Protein in INSANE! Membrane UpperLeaflet>POPC=1.0 LowerLeaflet>POPC=1.0
247980
   14AUC    AUC    1  24.428  16.395   7.501
   15AUC    AUC    2  24.673  16.395   7.349
   16AUC    AUC    3  24.673  16.395   7.652
   17AUC    AUC    4  24.182  16.395   7.349
   18AUC    AUC    5  24.182  16.395   7.652
   19AUC    AUC    6  24.276  16.640   7.501
   20AUC    AUC    7  24.579  16.640   7.501
   21AUC    AUC    8  24.276  16.149   7.501
   22AUC    AUC    9  24.579  16.149   7.501
   23AUC    AUC   10  24.428  16.243   7.746
   24AUC    AUC   11  24.428  16.546   7.746
   25AUC    AUC   12  24.428  16.243   7.255
   26AUC    AUC   13  24.428  16.546   7.255
   27AUC    AUC   14  24.919  16.395   7.197
   28AUC    AUC   15  24.919  16.395   7.501
   29AUC    AUC   16  24.919  16.395   7.804
   30AUC    AUC   17  23.937  16.395   7.197
   31AUC    AUC   18  23.937  16.395   7.501
   32AUC    AUC   19  23.937  16.395   7.804
   33AUC    AUC   20  24.124  16.885   7.501
   34AUC    AUC   21  24.428  16.885   7.501
   35AUC    AUC   22  24.731  16.885   7.501
   36AUC    AUC   23  24.124  15.904   7.501
   37AUC    AUC   24  24.428  15.904   7.501
   38AUC    AUC   25  24.731  15.904   7.501
   39AUC    AUC   26  24.428  16.091   7.991
   40AUC    AUC   27  24.428  16.395   7.991
   41AUC    AUC   28  24.428  16.698   7.991
   42AUC    AUC   29  24.428  16.091   7.010
   43AUC    AUC   30  24.428  16.395   7.010
   44AUC    AUC   31  24.428  16.698   7.010
   45AUC    AUC   32  24.673  16.243   7.898
   46AUC    AUC   33  24.673  16.546   7.898
   47AUC    AUC   34  24.673  16.243   7.103
   48AUC    AUC   35  24.673  16.546   7.103
   49AUC    AUC   36  24.182  16.243   7.898
   50AUC    AUC   37  24.182  16.546   7.898
   51AUC    AUC   38  24.182  16.243   7.103
   52AUC    AUC   39  24.182  16.546   7.103
   53AUC    AUC   40  24.825  16.640   7.349
   54AUC    AUC   41  24.825  16.640   7.652
   55AUC    AUC   42  24.031  16.640   7.349
   56AUC    AUC   43  24.031  16.640   7.652
   57AUC    AUC   44  24.825  16.149   7.349
   58AUC    AUC   45  24.825  16.149   7.652
   59AUC    AUC   46  24.031  16.149   7.349
   60AUC    AUC   47  24.031  16.149   7.652
   61AUC    AUC   48  24.276  16.792   7.746
   62AUC    AUC   49  24.579  16.792   7.746
   63AUC    AUC   50  24.276  15.998   7.746
   64AUC    AUC   51  24.579  15.998   7.746
   65AUC    AUC   52  24.276  16.792   7.255
   66AUC    AUC   53  24.579  16.792   7.255
   67AUC    AUC   54  24.276  15.998   7.255
   68AUC    AUC   55  24.579  15.998   7.255
   69AUSL   AUS   56  24.837  16.395   8.081
   70AUSL   AUS   57  24.693  15.978   8.011
   71AUL    AUL   58  24.919  16.091   8.295
   72THSLK    S   59  24.820  15.790   8.163
   73ETHY    C1   60  24.978  15.469   8.456
   74ETHY    C1   61  25.226  15.156   8.845
   75THSLK    S   62  24.942  16.355   8.333
   76ETHY    C1   63  25.185  16.288   8.720
   77ETHY    C1   64  25.478  16.307   9.194
   78AUSL   AUS   65  24.591  16.243   8.174
   79AUSL   AUS   66  24.264  16.546   8.174
   80AUL    AUL   67  24.428  16.395   8.482
   81THSLK    S   68  24.678  16.197   8.426
   82ETHY    C1   69  24.791  16.056   8.852
   83ETHY    C1   70  24.940  15.985   9.385
   84THSLK    S   71  24.176  16.515   8.439
   85ETHY    C1   72  24.071  16.526   8.889
   86ETHY    C1   73  23.921  16.634   9.415
   87AUSL   AUS   74  24.591  16.546   8.174
   88AUSL   AUS   75  24.938  16.659   7.917
   89AUL    AUL   76  24.919  16.698   8.295
   90THSLK    S   77  24.679  16.592   8.426
   91ETHY    C1   78  24.785  16.732   8.854
   92ETHY    C1   79  24.935  16.804   9.386
   93THSLK    S   80  25.118  16.775   8.082
   94ETHY    C1   81  25.463  16.910   8.358
   95ETHY    C1   82  25.838  17.164   8.683
   96AUSL   AUS   83  24.837  16.395   6.921
   97AUSL   AUS   84  24.693  16.811   6.990
   98AUL    AUL   85  24.919  16.698   6.706
   99THSLK    S   86  24.943  16.355   6.668
  100ETHY    C1   87  25.180  16.288   6.278
  101ETHY    C1   88  25.473  16.307   5.804
  102THSLK    S   89  24.868  16.939   6.816
  103ETHY    C1   90  25.099  17.157   6.480
  104ETHY    C1   91  25.325  17.499   6.102
  105AUSL   AUS   92  24.591  16.243   6.827
  106AUSL   AUS   93  24.938  16.130   7.084
  107AUL    AUL   94  24.919  16.091   6.706
  108THSLK    S   95  25.084  15.943   6.932
  109ETHY    C1   96  25.368  15.689   6.670
  110ETHY    C1   97  25.760  15.469   6.340
  111THSLK    S   98  24.679  16.197   6.575
  112ETHY    C1   99  24.785  16.057   6.147
  113ETHY    C1  100  24.935  15.985   5.615
  114AUSL   AUS  101  24.591  16.546   6.827
  115AUSL   AUS  102  24.264  16.243   6.827
  116AUL    AUL  103  24.428  16.395   6.519
  117THSLK    S  104  24.164  16.197   6.579
  118ETHY    C1  105  24.030  16.059   6.158
  119ETHY    C1  106  23.887  15.987   5.624
  120THSLK    S  107  24.692  16.514   6.566
  121ETHY    C1  108  24.819  16.523   6.121
  122ETHY    C1  109  24.963  16.632   5.594
  123AUSL   AUS  110  24.019  16.395   8.081
  124AUSL   AUS  111  24.163  16.811   8.011
  125AUL    AUL  112  23.937  16.698   8.295
  126THSLK    S  113  23.913  16.355   8.333
  127ETHY    C1  114  23.676  16.288   8.723
  128ETHY    C1  115  23.382  16.307   9.197
  129THSLK    S  116  24.035  16.953   8.202
  130ETHY    C1  117  23.882  17.198   8.563
  131ETHY    C1  118  23.634  17.533   8.933
  132AUSL   AUS  119  24.264  16.243   8.174
  133AUSL   AUS  120  23.918  16.130   7.917
  134AUL    AUL  121  23.937  16.091   8.295
  135THSLK    S  122  23.737  15.962   8.043
  136ETHY    C1  123  23.396  15.736   8.259
  137ETHY    C1  124  23.020  15.508   8.602
  138THSLK    S  125  24.164  16.197   8.422
  139ETHY    C1  126  24.036  16.058   8.844
  140ETHY    C1  127  23.892  15.986   9.378
  141AUSL   AUS  128  24.019  16.395   6.921
  142AUSL   AUS  129  24.163  15.978   6.990
  143AUL    AUL  130  23.937  16.091   6.706
  144THSLK    S  131  23.914  16.355   6.668
  145ETHY    C1  132  23.670  16.288   6.281
  146ETHY    C1  133  23.378  16.307   5.807
  147THSLK    S  134  23.989  15.804   6.855
  148ETHY    C1  135  23.752  15.511   6.587
  149ETHY    C1  136  23.527  15.190   6.190
  150AUSL   AUS  137  24.264  16.546   6.827
  151AUSL   AUS  138  23.918  16.659   7.084
  152AUL    AUL  139  23.937  16.698   6.706
  153THSLK    S  140  23.772  16.794   6.894
  154ETHY    C1  141  23.483  16.958   6.572
  155ETHY    C1  142  23.092  17.203   6.259
  156THSLK    S  143  24.177  16.515   6.562
  157ETHY    C1  144  24.064  16.525   6.114
  158ETHY    C1  145  23.916  16.633   5.587
  159AUSL   AUS  146  25.008  16.804   7.501
  160AUSL   AUS  147  24.938  16.659   7.084
  161AUL    AUL  148  25.222  16.885   7.197
  162THSLK    S  149  25.118  16.776   6.920
  163ETHY    C1  150  25.459  16.909   6.638
  164ETHY    C1  151  25.835  17.163   6.314
  165THSLK    S  152  25.281  16.875   7.501
  166ETHY    C1  153  25.705  17.059   7.497
  167ETHY    C1  154  26.169  17.368   7.498
  168AUSL   AUS  155  25.102  16.558   7.349
  169AUSL   AUS  156  25.102  16.231   7.652
  170AUL    AUL  157  25.409  16.395   7.501
  171THSLK    S  158  25.369  16.613   7.341
  172ETHY    C1  159  25.821  16.669   7.262
  173ETHY    C1  160  26.346  16.834   7.172
  174THSLK    S  161  25.348  16.099   7.659
  175ETHY    C1  162  25.765  15.914   7.728
  176ETHY    C1  163  26.301  15.786   7.820
  177AUSL   AUS  164  25.102  16.558   7.652
  178AUSL   AUS  165  24.844  16.905   7.765
  179AUL    AUL  166  25.222  16.885   7.804
  180THSLK    S  167  25.030  17.040   7.925
  181ETHY    C1  168  25.346  17.308   8.128
  182ETHY    C1  169  25.661  17.705   8.362
  183THSLK    S  170  25.369  16.613   7.661
  184ETHY    C1  171  25.821  16.669   7.733
  185ETHY    C1  172  26.347  16.834   7.824
  186AUSL   AUS  173  23.848  16.804   7.501
  187AUSL   AUS  174  23.918  16.659   7.917
  188AUL    AUL  175  23.634  16.885   7.804
  189THSLK    S  176  23.771  16.794   8.107
  190ETHY    C1  177  23.487  16.963   8.430
  191ETHY    C1  178  23.095  17.208   8.743
  192THSLK    S  179  23.617  16.942   7.501
  193ETHY    C1  180  23.263  17.240   7.497
  194ETHY    C1  181  22.779  17.517   7.498
  195AUSL   AUS  182  23.754  16.558   7.349
  196AUSL   AUS  183  24.011  16.905   7.236
  197AUL    AUL  184  23.634  16.885   7.197
  198THSLK    S  185  23.508  16.668   7.307
  199ETHY    C1  186  23.090  16.813   7.173
  200ETHY    C1  187  22.555  16.953   7.099
  201THSLK    S  188  23.880  17.074   7.056
  202ETHY    C1  189  23.656  17.396   6.812
  203ETHY    C1  190  23.316  17.778   6.589
  204AUSL   AUS  191  23.754  16.558   7.652
  205AUSL   AUS  192  23.754  16.231   7.349
  206AUL    AUL  193  23.446  16.395   7.501
  207THSLK    S  194  23.487  16.153   7.377
  208ETHY    C1  195  23.034  16.064   7.359
  209ETHY    C1  196  22.509  15.909   7.252
  210THSLK    S  197  23.508  16.668   7.694
  211ETHY    C1  198  23.091  16.819   7.825
  212ETHY    C1  199  22.556  16.957   7.900
  213AUSL   AUS  200  25.008  15.986   7.501
  214AUSL   AUS  201  24.938  16.130   7.917
  215AUL    AUL  202  25.222  15.904   7.804
  216THSLK    S  203  25.239  15.847   7.501
  217ETHY    C1  204  25.593  15.549   7.497
  218ETHY    C1  205  26.077  15.272   7.498
  219THSLK    S  206  25.084  15.943   8.070
  220ETHY    C1  207  25.372  15.688   8.326
  221ETHY    C1  208  25.764  15.468   8.657
  222AUSL   AUS  209  25.102  16.231   7.349
  223AUSL   AUS  210  24.844  15.884   7.236
  224AUL    AUL  211  25.222  15.904   7.197
  225THSLK    S  212  25.348  16.099   7.343
  226ETHY    C1  213  25.764  15.914   7.266
  227ETHY    C1  214  26.300  15.786   7.176
  228THSLK    S  215  24.976  15.693   7.092
  229ETHY    C1  216  25.197  15.332   6.907
  230ETHY    C1  217  25.538  14.962   6.667
  231AUSL   AUS  218  23.848  15.986   7.501
  232AUSL   AUS  219  23.918  16.130   7.084
  233AUL    AUL  220  23.634  15.904   7.197
  234THSLK    S  221  23.738  15.962   6.958
  235ETHY    C1  222  23.392  15.742   6.743
  236ETHY    C1  223  23.017  15.512   6.400
  237THSLK    S  224  23.575  15.914   7.501
  238ETHY    C1  225  23.151  15.731   7.497
  239ETHY    C1  226  22.687  15.421   7.498
  240AUSL   AUS  227  23.754  16.231   7.652
  241AUSL   AUS  228  24.011  15.884   7.765
  242AUL    AUL  229  23.634  15.904   7.804
  243THSLK    S  230  23.825  15.727   7.889
  244ETHY    C1  231  23.512  15.421   8.033
  245ETHY    C1  232  23.197  15.034   8.284
  246THSLK    S  233  23.487  16.154   7.625
  247ETHY    C1  234  23.035  16.058   7.639
  248ETHY    C1  235  22.510  15.905   7.746
  249AUSL   AUS  236  24.428  16.975   7.910
  250AUSL   AUS  237  24.011  16.905   7.765
  251AUL    AUL  238  24.124  17.189   7.991
  252THSLK    S  239  23.880  17.073   7.945
  253ETHY    C1  240  23.659  17.401   8.185
  254ETHY    C1  241  23.318  17.781   8.409
  255THSLK    S  242  24.462  17.216   8.033
  256ETHY    C1  243  24.520  17.588   8.301
  257ETHY    C1  244  24.504  18.067   8.586
  258AUSL   AUS  245  24.276  17.068   7.664
  259AUSL   AUS  246  24.579  17.068   7.337
  260AUL    AUL  247  24.428  17.376   7.501
  261THSLK    S  248  24.307  17.328   7.770
  262ETHY    C1  249  24.297  17.769   7.907
  263ETHY    C1  250  24.188  18.298   8.048
  264THSLK    S  251  24.624  17.317   7.235
  265ETHY    C1  252  24.762  17.735   7.097
  266ETHY    C1  253  24.834  18.270   6.955
  267AUSL   AUS  254  24.579  17.068   7.664
  268AUSL   AUS  255  24.693  16.811   8.011
  269AUL    AUL  256  24.731  17.189   7.991
  270THSLK    S  257  24.867  16.939   8.185
  271ETHY    C1  258  25.103  17.158   8.517
  272ETHY    C1  259  25.329  17.500   8.895
  273THSLK    S  260  24.624  17.316   7.767
  274ETHY    C1  261  24.763  17.737   7.898
  275ETHY    C1  262  24.836  18.271   8.041
  276AUSL   AUS  263  24.428  15.815   7.910
  277AUSL   AUS  264  24.844  15.884   7.765
  278AUL    AUL  265  24.731  15.600   7.991
  279THSLK    S  266  24.394  15.551   7.997
  280ETHY    C1  267  24.339  15.142   8.205
  281ETHY    C1  268  24.354  14.674   8.507
  282THSLK    S  269  24.976  15.693   7.910
  283ETHY    C1  270  25.199  15.331   8.089
  284ETHY    C1  271  25.540  14.961   8.330
  285AUSL   AUS  272  24.276  15.721   7.664
  286AUSL   AUS  273  24.163  15.978   8.011
  287AUL    AUL  274  24.124  15.600   7.991
  288THSLK    S  275  24.231  15.468   7.746
  289ETHY    C1  276  24.094  15.037   7.843
  290ETHY    C1  277  24.021  14.505   7.996
  291THSLK    S  278  23.988  15.804   8.146
  292ETHY    C1  279  23.757  15.506   8.413
  293ETHY    C1  280  23.530  15.186   8.810
  294AUSL   AUS  281  24.579  15.721   7.664
  295AUSL   AUS  282  24.276  15.721   7.337
  296AUL    AUL  283  24.428  15.413   7.501
  297THSLK    S  284  24.231  15.468   7.255
  298ETHY    C1  285  24.092  15.039   7.152
  299ETHY    C1  286  24.020  14.507   7.001
  300THSLK    S  287  24.548  15.456   7.750
  301ETHY    C1  288  24.561  15.005   7.852
  302ETHY    C1  289  24.669  14.479   8.003
  303AUSL   AUS  290  24.428  16.975   7.092
  304AUSL   AUS  291  24.844  16.905   7.236
  305AUL    AUL  292  24.731  17.189   7.010
  306THSLK    S  293  24.462  17.216   6.969
  307ETHY    C1  294  24.517  17.585   6.696
  308ETHY    C1  295  24.501  18.064   6.412
  309THSLK    S  296  25.031  17.040   7.077
  310ETHY    C1  297  25.344  17.307   6.868
  311ETHY    C1  298  25.659  17.704   6.634
  312AUSL   AUS  299  24.276  17.068   7.337
  313AUSL   AUS  300  24.163  16.811   6.990
  314AUL    AUL  301  24.124  17.189   7.010
  315THSLK    S  302  24.307  17.329   7.232
  316ETHY    C1  303  24.295  17.767   7.088
  317ETHY    C1  304  24.187  18.296   6.948
  318THSLK    S  305  24.036  16.954   6.799
  319ETHY    C1  306  23.878  17.194   6.437
  320ETHY    C1  307  23.630  17.529   6.067
  321AUSL   AUS  308  24.428  15.815   7.092
  322AUSL   AUS  309  24.011  15.884   7.236
  323AUL    AUL  310  24.124  15.600   7.010
  324THSLK    S  311  23.825  15.727   7.113
  325ETHY    C1  312  23.509  15.425   6.964
  326ETHY    C1  313  23.195  15.038   6.714
  327THSLK    S  314  24.394  15.551   7.004
  328ETHY    C1  315  24.335  15.146   6.791
  329ETHY    C1  316  24.352  14.676   6.490
  330AUSL   AUS  317  24.579  15.721   7.337
  331AUSL   AUS  318  24.693  15.978   6.990
  332AUL    AUL  319  24.731  15.600   7.010
  333THSLK    S  320  24.549  15.455   7.252
  334ETHY    C1  321  24.559  15.007   7.143
  335ETHY    C1  322  24.667  14.480   6.993
  336THSLK    S  323  24.821  15.789   6.839
  337ETHY    C1  324  24.973  15.471   6.541
  338ETHY    C1  325  25.222  15.157   6.152
  339AUC    AUC  326  51.537  24.737   7.501
  340AUC    AUC  327  51.782  24.737   7.349
  341AUC    AUC  328  51.782  24.737   7.652
  342AUC    AUC  329  51.291  24.737   7.349
  343AUC    AUC  330  51.291  24.737   7.652
  344AUC    AUC  331  51.385  24.982   7.501
  345AUC    AUC  332  51.688  24.982   7.501
  346AUC    AUC  333  51.385  24.491   7.501
  347AUC    AUC  334  51.688  24.491   7.501
  348AUC    AUC  335  51.537  24.585   7.746
  349AUC    AUC  336  51.537  24.888   7.746
  350AUC    AUC  337  51.537  24.585   7.255
  351AUC    AUC  338  51.537  24.888   7.255
  352AUC    AUC  339  52.028  24.737   7.197
  353AUC    AUC  340  52.028  24.737   7.501
  354AUC    AUC  341  52.028  24.737   7.804
  355AUC    AUC  342  51.046  24.737   7.197
  356AUC    AUC  343  51.046  24.737   7.501
  357AUC    AUC  344  51.046  24.737   7.804
  358AUC    AUC  345  51.233  25.227   7.501
  359AUC    AUC  346  51.537  25.227   7.501
  360AUC    AUC  347  51.840  25.227   7.501
  361AUC    AUC  348  51.233  24.246   7.501
  362AUC    AUC  349  51.537  24.246   7.501
  363AUC    AUC  350  51.840  24.246   7.501
  364AUC    AUC  351  51.537  24.433   7.991
  365AUC    AUC  352  51.537  24.737   7.991
  366AUC    AUC  353  51.537  25.040   7.991
  367AUC    AUC  354  51.537  24.433   7.010
  368AUC    AUC  355  51.537  24.737   7.010
  369AUC    AUC  356  51.537  25.040   7.010
  370AUC    AUC  357  51.782  24.585   7.898
  371AUC    AUC  358  51.782  24.888   7.898
  372AUC    AUC  359  51.782  24.585   7.103
  373AUC    AUC  360  51.782  24.888   7.103
  374AUC    AUC  361  51.291  24.585   7.898
  375AUC    AUC  362  51.291  24.888   7.898
  376AUC    AUC  363  51.291  24.585   7.103
  377AUC    AUC  364  51.291  24.888   7.103
  378AUC    AUC  365  51.934  24.982   7.349
  379AUC    AUC  366  51.934  24.982   7.652
  380AUC    AUC  367  51.140  24.982   7.349
  381AUC    AUC  368  51.140  24.982   7.652
  382AUC    AUC  369  51.934  24.491   7.349
  383AUC    AUC  370  51.934  24.491   7.652
  384AUC    AUC  371  51.140  24.491   7.349
  385AUC    AUC  372  51.140  24.491   7.652
  386AUC    AUC  373  51.385  25.134   7.746
  387AUC    AUC  374  51.688  25.134   7.746
  388AUC    AUC  375  51.385  24.340   7.746
  389AUC    AUC  376  51.688  24.340   7.746
  390AUC    AUC  377  51.385  25.134   7.255
  391AUC    AUC  378  51.688  25.134   7.255
  392AUC    AUC  379  51.385  24.340   7.255
  393AUC    AUC  380  51.688  24.340   7.255
  394AUSL   AUS  381  51.946  24.737   8.081
  395AUSL   AUS  382  51.802  24.320   8.011
  396AUL    AUL  383  52.028  24.433   8.295
  397THSLK    S  384  51.929  24.132   8.163
  398ETHY    C1  385  52.087  23.811   8.456
  399ETHY    C1  386  52.335  23.498   8.845
  400THSLK    S  387  52.051  24.697   8.333
  401ETHY    C1  388  52.294  24.630   8.720
  402ETHY    C1  389  52.587  24.649   9.194
  403AUSL   AUS  390  51.700  24.585   8.174
  404AUSL   AUS  391  51.373  24.888   8.174
  405AUL    AUL  392  51.537  24.737   8.482
  406THSLK    S  393  51.787  24.539   8.426
  407ETHY    C1  394  51.900  24.398   8.852
  408ETHY    C1  395  52.049  24.327   9.385
  409THSLK    S  396  51.285  24.857   8.439
  410ETHY    C1  397  51.180  24.868   8.889
  411ETHY    C1  398  51.030  24.976   9.415
  412AUSL   AUS  399  51.700  24.888   8.174
  413AUSL   AUS  400  52.047  25.001   7.917
  414AUL    AUL  401  52.028  25.040   8.295
  415THSLK    S  402  51.788  24.934   8.426
  416ETHY    C1  403  51.894  25.074   8.854
  417ETHY    C1  404  52.044  25.146   9.386
  418THSLK    S  405  52.227  25.117   8.082
  419ETHY    C1  406  52.572  25.252   8.358
  420ETHY    C1  407  52.947  25.506   8.683
  421AUSL   AUS  408  51.946  24.737   6.921
  422AUSL   AUS  409  51.802  25.153   6.990
  423AUL    AUL  410  52.028  25.040   6.706
  424THSLK    S  411  52.052  24.697   6.668
  425ETHY    C1  412  52.289  24.630   6.278
  426ETHY    C1  413  52.582  24.649   5.804
  427THSLK    S  414  51.977  25.281   6.816
  428ETHY    C1  415  52.208  25.499   6.480
  429ETHY    C1  416  52.434  25.841   6.102
  430AUSL   AUS  417  51.700  24.585   6.827
  431AUSL   AUS  418  52.047  24.472   7.084
  432AUL    AUL  419  52.028  24.433   6.706
  433THSLK    S  420  52.193  24.285   6.932
  434ETHY    C1  421  52.477  24.031   6.670
  435ETHY    C1  422  52.869  23.811   6.340
  436THSLK    S  423  51.788  24.539   6.575
  437ETHY    C1  424  51.894  24.399   6.147
  438ETHY    C1  425  52.044  24.327   5.615
  439AUSL   AUS  426  51.700  24.888   6.827
  440AUSL   AUS  427  51.373  24.585   6.827
  441AUL    AUL  428  51.537  24.737   6.519
  442THSLK    S  429  51.273  24.539   6.579
  443ETHY    C1  430  51.139  24.401   6.158
  444ETHY    C1  431  50.996  24.329   5.624
  445THSLK    S  432  51.801  24.856   6.566
  446ETHY    C1  433  51.928  24.865   6.121
  447ETHY    C1  434  52.072  24.974   5.594
  448AUSL   AUS  435  51.128  24.737   8.081
  449AUSL   AUS  436  51.272  25.153   8.011
  450AUL    AUL  437  51.046  25.040   8.295
  451THSLK    S  438  51.022  24.697   8.333
  452ETHY    C1  439  50.785  24.630   8.723
  453ETHY    C1  440  50.491  24.649   9.197
  454THSLK    S  441  51.144  25.295   8.202
  455ETHY    C1  442  50.991  25.540   8.563
  456ETHY    C1  443  50.743  25.875   8.933
  457AUSL   AUS  444  51.373  24.585   8.174
  458AUSL   AUS  445  51.027  24.472   7.917
  459AUL    AUL  446  51.046  24.433   8.295
  460THSLK    S  447  50.846  24.304   8.043
  461ETHY    C1  448  50.505  24.078   8.259
  462ETHY    C1  449  50.129  23.850   8.602
  463THSLK    S  450  51.273  24.539   8.422
  464ETHY    C1  451  51.145  24.400   8.844
  465ETHY    C1  452  51.001  24.328   9.378
  466AUSL   AUS  453  51.128  24.737   6.921
  467AUSL   AUS  454  51.272  24.320   6.990
  468AUL    AUL  455  51.046  24.433   6.706
  469THSLK    S  456  51.023  24.697   6.668
  470ETHY    C1  457  50.779  24.630   6.281
  471ETHY    C1  458  50.487  24.649   5.807
  472THSLK    S  459  51.098  24.146   6.855
  473ETHY    C1  460  50.861  23.853   6.587
  474ETHY    C1  461  50.636  23.532   6.190
  475AUSL   AUS  462  51.373  24.888   6.827
  476AUSL   AUS  463  51.027  25.001   7.084
  477AUL    AUL  464  51.046  25.040   6.706
  478THSLK    S  465  50.881  25.136   6.894
  479ETHY    C1  466  50.592  25.300   6.572
  480ETHY    C1  467  50.201  25.545   6.259
  481THSLK    S  468  51.286  24.857   6.562
  482ETHY    C1  469  51.173  24.867   6.114
  483ETHY    C1  470  51.025  24.975   5.587
  484AUSL   AUS  471  52.117  25.146   7.501
  485AUSL   AUS  472  52.047  25.001   7.084
  486AUL    AUL  473  52.331  25.227   7.197
  487THSLK    S  474  52.227  25.118   6.920
  488ETHY    C1  475  52.568  25.251   6.638
  489ETHY    C1  476  52.944  25.505   6.314
  490THSLK    S  477  52.390  25.217   7.501
  491ETHY    C1  478  52.814  25.401   7.497
  492ETHY    C1  479  53.278  25.710   7.498
  493AUSL   AUS  480  52.211  24.900   7.349
  494AUSL   AUS  481  52.211  24.573   7.652
  495AUL    AUL  482  52.518  24.737   7.501
  496THSLK    S  483  52.478  24.955   7.341
  497ETHY    C1  484  52.930  25.011   7.262
  498ETHY    C1  485  53.455  25.176   7.172
  499THSLK    S  486  52.457  24.441   7.659
  500ETHY    C1  487  52.874  24.256   7.728
  501ETHY    C1  488  53.410  24.128   7.820
  502AUSL   AUS  489  52.211  24.900   7.652
  503AUSL   AUS  490  51.953  25.247   7.765
  504AUL    AUL  491  52.331  25.227   7.804
  505THSLK    S  492  52.139  25.382   7.925
  506ETHY    C1  493  52.455  25.650   8.128
  507ETHY    C1  494  52.770  26.047   8.362
  508THSLK    S  495  52.478  24.955   7.661
  509ETHY    C1  496  52.930  25.011   7.733
  510ETHY    C1  497  53.456  25.176   7.824
  511AUSL   AUS  498  50.957  25.146   7.501
  512AUSL   AUS  499  51.027  25.001   7.917
  513AUL    AUL  500  50.743  25.227   7.804
  514THSLK    S  501  50.880  25.136   8.107
  515ETHY    C1  502  50.596  25.305   8.430
  516ETHY    C1  503  50.204  25.550   8.743
  517THSLK    S  504  50.726  25.284   7.501
  518ETHY    C1  505  50.372  25.582   7.497
  519ETHY    C1  506  49.888  25.859   7.498
  520AUSL   AUS  507  50.863  24.900   7.349
  521AUSL   AUS  508  51.120  25.247   7.236
  522AUL    AUL  509  50.743  25.227   7.197
  523THSLK    S  510  50.617  25.010   7.307
  524ETHY    C1  511  50.199  25.155   7.173
  525ETHY    C1  512  49.664  25.295   7.099
  526THSLK    S  513  50.989  25.416   7.056
  527ETHY    C1  514  50.765  25.738   6.812
  528ETHY    C1  515  50.425  26.120   6.589
  529AUSL   AUS  516  50.863  24.900   7.652
  530AUSL   AUS  517  50.863  24.573   7.349
  531AUL    AUL  518  50.555  24.737   7.501
  532THSLK    S  519  50.596  24.495   7.377
  533ETHY    C1  520  50.143  24.406   7.359
  534ETHY    C1  521  49.618  24.251   7.252
  535THSLK    S  522  50.617  25.010   7.694
  536ETHY    C1  523  50.200  25.161   7.825
  537ETHY    C1  524  49.665  25.299   7.900
  538AUSL   AUS  525  52.117  24.328   7.501
  539AUSL   AUS  526  52.047  24.472   7.917
  540AUL    AUL  527  52.331  24.246   7.804
  541THSLK    S  528  52.348  24.189   7.501
  542ETHY    C1  529  52.702  23.891   7.497
  543ETHY    C1  530  53.186  23.614   7.498
  544THSLK    S  531  52.193  24.285   8.070
  545ETHY    C1  532  52.481  24.030   8.326
  546ETHY    C1  533  52.873  23.810   8.657
  547AUSL   AUS  534  52.211  24.573   7.349
  548AUSL   AUS  535  51.953  24.226   7.236
  549AUL    AUL  536  52.331  24.246   7.197
  550THSLK    S  537  52.457  24.441   7.343
  551ETHY    C1  538  52.873  24.256   7.266
  552ETHY    C1  539  53.409  24.128   7.176
  553THSLK    S  540  52.085  24.035   7.092
  554ETHY    C1  541  52.306  23.674   6.907
  555ETHY    C1  542  52.647  23.304   6.667
  556AUSL   AUS  543  50.957  24.328   7.501
  557AUSL   AUS  544  51.027  24.472   7.084
  558AUL    AUL  545  50.743  24.246   7.197
  559THSLK    S  546  50.847  24.304   6.958
  560ETHY    C1  547  50.501  24.084   6.743
  561ETHY    C1  548  50.126  23.854   6.400
  562THSLK    S  549  50.684  24.256   7.501
  563ETHY    C1  550  50.260  24.073   7.497
  564ETHY    C1  551  49.796  23.763   7.498
  565AUSL   AUS  552  50.863  24.573   7.652
  566AUSL   AUS  553  51.120  24.226   7.765
  567AUL    AUL  554  50.743  24.246   7.804
  568THSLK    S  555  50.934  24.069   7.889
  569ETHY    C1  556  50.621  23.763   8.033
  570ETHY    C1  557  50.306  23.376   8.284
  571THSLK    S  558  50.596  24.496   7.625
  572ETHY    C1  559  50.144  24.400   7.639
  573ETHY    C1  560  49.619  24.247   7.746
  574AUSL   AUS  561  51.537  25.317   7.910
  575AUSL   AUS  562  51.120  25.247   7.765
  576AUL    AUL  563  51.233  25.531   7.991
  577THSLK    S  564  50.989  25.415   7.945
  578ETHY    C1  565  50.768  25.743   8.185
  579ETHY    C1  566  50.427  26.123   8.409
  580THSLK    S  567  51.571  25.558   8.033
  581ETHY    C1  568  51.629  25.930   8.301
  582ETHY    C1  569  51.613  26.409   8.586
  583AUSL   AUS  570  51.385  25.410   7.664
  584AUSL   AUS  571  51.688  25.410   7.337
  585AUL    AUL  572  51.537  25.718   7.501
  586THSLK    S  573  51.416  25.670   7.770
  587ETHY    C1  574  51.406  26.111   7.907
  588ETHY    C1  575  51.297  26.640   8.048
  589THSLK    S  576  51.733  25.659   7.235
  590ETHY    C1  577  51.871  26.077   7.097
  591ETHY    C1  578  51.943  26.612   6.955
  592AUSL   AUS  579  51.688  25.410   7.664
  593AUSL   AUS  580  51.802  25.153   8.011
  594AUL    AUL  581  51.840  25.531   7.991
  595THSLK    S  582  51.976  25.281   8.185
  596ETHY    C1  583  52.212  25.500   8.517
  597ETHY    C1  584  52.438  25.842   8.895
  598THSLK    S  585  51.733  25.658   7.767
  599ETHY    C1  586  51.872  26.079   7.898
  600ETHY    C1  587  51.945  26.613   8.041
  601AUSL   AUS  588  51.537  24.157   7.910
  602AUSL   AUS  589  51.953  24.226   7.765
  603AUL    AUL  590  51.840  23.942   7.991
  604THSLK    S  591  51.503  23.893   7.997
  605ETHY    C1  592  51.448  23.484   8.205
  606ETHY    C1  593  51.463  23.016   8.507
  607THSLK    S  594  52.085  24.035   7.910
  608ETHY    C1  595  52.308  23.673   8.089
  609ETHY    C1  596  52.649  23.303   8.330
  610AUSL   AUS  597  51.385  24.063   7.664
  611AUSL   AUS  598  51.272  24.320   8.011
  612AUL    AUL  599  51.233  23.942   7.991
  613THSLK    S  600  51.340  23.810   7.746
  614ETHY    C1  601  51.203  23.379   7.843
  615ETHY    C1  602  51.130  22.847   7.996
  616THSLK    S  603  51.097  24.146   8.146
  617ETHY    C1  604  50.866  23.848   8.413
  618ETHY    C1  605  50.639  23.528   8.810
  619AUSL   AUS  606  51.688  24.063   7.664
  620AUSL   AUS  607  51.385  24.063   7.337
  621AUL    AUL  608  51.537  23.755   7.501
  622THSLK    S  609  51.340  23.810   7.255
  623ETHY    C1  610  51.201  23.381   7.152
  624ETHY    C1  611  51.129  22.849   7.001
  625THSLK    S  612  51.657  23.798   7.750
  626ETHY    C1  613  51.670  23.347   7.852
  627ETHY    C1  614  51.778  22.821   8.003
  628AUSL   AUS  615  51.537  25.317   7.092
  629AUSL   AUS  616  51.953  25.247   7.236
  630AUL    AUL  617  51.840  25.531   7.010
  631THSLK    S  618  51.571  25.558   6.969
  632ETHY    C1  619  51.626  25.927   6.696
  633ETHY    C1  620  51.610  26.406   6.412
  634THSLK    S  621  52.140  25.382   7.077
  635ETHY    C1  622  52.453  25.649   6.868
  636ETHY    C1  623  52.768  26.046   6.634
  637AUSL   AUS  624  51.385  25.410   7.337
  638AUSL   AUS  625  51.272  25.153   6.990
  639AUL    AUL  626  51.233  25.531   7.010
  640THSLK    S  627  51.416  25.671   7.232
  641ETHY    C1  628  51.404  26.109   7.088
  642ETHY    C1  629  51.296  26.638   6.948
  643THSLK    S  630  51.145  25.296   6.799
  644ETHY    C1  631  50.987  25.536   6.437
  645ETHY    C1  632  50.739  25.871   6.067
  646AUSL   AUS  633  51.537  24.157   7.092
  647AUSL   AUS  634  51.120  24.226   7.236
  648AUL    AUL  635  51.233  23.942   7.010
  649THSLK    S  636  50.934  24.069   7.113
  650ETHY    C1  637  50.618  23.767   6.964
  651ETHY    C1  638  50.304  23.380   6.714
  652THSLK    S  639  51.503  23.893   7.004
  653ETHY    C1  640  51.444  23.488   6.791
  654ETHY    C1  641  51.461  23.018   6.490
  655AUSL   AUS  642  51.688  24.063   7.337
  656AUSL   AUS  643  51.802  24.320   6.990
  657AUL    AUL  644  51.840  23.942   7.010
  658THSLK    S  645  51.658  23.797   7.252
  659ETHY    C1  646  51.668  23.349   7.143
  660ETHY    C1  647  51.776  22.822   6.993
  661THSLK    S  648  51.930  24.131   6.839
  662ETHY    C1  649  52.082  23.813   6.541
  663ETHY    C1  650  52.331  23.499   6.152
  664AUC    AUC  651   7.868  29.631   7.501
  665AUC    AUC  652   8.113  29.631   7.349
  666AUC    AUC  653   8.113  29.631   7.652
  667AUC    AUC  654   7.622  29.631   7.349
  668AUC    AUC  655   7.622  29.631   7.652
  669AUC    AUC  656   7.716  29.876   7.501
  670AUC    AUC  657   8.019  29.876   7.501
  671AUC    AUC  658   7.716  29.385   7.501
  672AUC    AUC  659   8.019  29.385   7.501
  673AUC    AUC  660   7.868  29.479   7.746
  674AUC    AUC  661   7.868  29.782   7.746
  675AUC    AUC  662   7.868  29.479   7.255
  676AUC    AUC  663   7.868  29.782   7.255
  677AUC    AUC  664   8.359  29.631   7.197
  678AUC    AUC  665   8.359  29.631   7.501
  679AUC    AUC  666   8.359  29.631   7.804
  680AUC    AUC  667   7.377  29.631   7.197
  681AUC    AUC  668   7.377  29.631   7.501
  682AUC    AUC  669   7.377  29.631   7.804
  683AUC    AUC  670   7.564  30.121   7.501
  684AUC    AUC  671   7.868  30.121   7.501
  685AUC    AUC  672   8.171  30.121   7.501
  686AUC    AUC  673   7.564  29.140   7.501
  687AUC    AUC  674   7.868  29.140   7.501
  688AUC    AUC  675   8.171  29.140   7.501
  689AUC    AUC  676   7.868  29.327   7.991
  690AUC    AUC  677   7.868  29.631   7.991
  691AUC    AUC  678   7.868  29.934   7.991
  692AUC    AUC  679   7.868  29.327   7.010
  693AUC    AUC  680   7.868  29.631   7.010
  694AUC    AUC  681   7.868  29.934   7.010
  695AUC    AUC  682   8.113  29.479   7.898
  696AUC    AUC  683   8.113  29.782   7.898
  697AUC    AUC  684   8.113  29.479   7.103
  698AUC    AUC  685   8.113  29.782   7.103
  699AUC    AUC  686   7.622  29.479   7.898
  700AUC    AUC  687   7.622  29.782   7.898
  701AUC    AUC  688   7.622  29.479   7.103
  702AUC    AUC  689   7.622  29.782   7.103
  703AUC    AUC  690   8.265  29.876   7.349
  704AUC    AUC  691   8.265  29.876   7.652
  705AUC    AUC  692   7.471  29.876   7.349
  706AUC    AUC  693   7.471  29.876   7.652
  707AUC    AUC  694   8.265  29.385   7.349
  708AUC    AUC  695   8.265  29.385   7.652
  709AUC    AUC  696   7.471  29.385   7.349
  710AUC    AUC  697   7.471  29.385   7.652
  711AUC    AUC  698   7.716  30.028   7.746
  712AUC    AUC  699   8.019  30.028   7.746
  713AUC    AUC  700   7.716  29.234   7.746
  714AUC    AUC  701   8.019  29.234   7.746
  715AUC    AUC  702   7.716  30.028   7.255
  716AUC    AUC  703   8.019  30.028   7.255
  717AUC    AUC  704   7.716  29.234   7.255
  718AUC    AUC  705   8.019  29.234   7.255
  719AUSL   AUS  706   8.277  29.631   8.081
  720AUSL   AUS  707   8.133  29.214   8.011
  721AUL    AUL  708   8.359  29.327   8.295
  722THSLK    S  709   8.260  29.026   8.163
  723ETHY    C1  710   8.418  28.705   8.456
  724ETHY    C1  711   8.666  28.392   8.845
  725THSLK    S  712   8.382  29.591   8.333
  726ETHY    C1  713   8.625  29.524   8.720
  727ETHY    C1  714   8.918  29.543   9.194
  728AUSL   AUS  715   8.031  29.479   8.174
  729AUSL   AUS  716   7.704  29.782   8.174
  730AUL    AUL  717   7.868  29.631   8.482
  731THSLK    S  718   8.118  29.433   8.426
  732ETHY    C1  719   8.231  29.292   8.852
  733ETHY    C1  720   8.380  29.221   9.385
  734THSLK    S  721   7.616  29.751   8.439
  735ETHY    C1  722   7.511  29.762   8.889
  736ETHY    C1  723   7.361  29.870   9.415
  737AUSL   AUS  724   8.031  29.782   8.174
  738AUSL   AUS  725   8.378  29.895   7.917
  739AUL    AUL  726   8.359  29.934   8.295
  740THSLK    S  727   8.119  29.828   8.426
  741ETHY    C1  728   8.225  29.968   8.854
  742ETHY    C1  729   8.375  30.040   9.386
  743THSLK    S  730   8.558  30.011   8.082
  744ETHY    C1  731   8.903  30.146   8.358
  745ETHY    C1  732   9.278  30.400   8.683
  746AUSL   AUS  733   8.277  29.631   6.921
  747AUSL   AUS  734   8.133  30.047   6.990
  748AUL    AUL  735   8.359  29.934   6.706
  749THSLK    S  736   8.383  29.591   6.668
  750ETHY    C1  737   8.620  29.524   6.278
  751ETHY    C1  738   8.913  29.543   5.804
  752THSLK    S  739   8.308  30.175   6.816
  753ETHY    C1  740   8.539  30.393   6.480
  754ETHY    C1  741   8.765  30.735   6.102
  755AUSL   AUS  742   8.031  29.479   6.827
  756AUSL   AUS  743   8.378  29.366   7.084
  757AUL    AUL  744   8.359  29.327   6.706
  758THSLK    S  745   8.524  29.179   6.932
  759ETHY    C1  746   8.808  28.925   6.670
  760ETHY    C1  747   9.200  28.705   6.340
  761THSLK    S  748   8.119  29.433   6.575
  762ETHY    C1  749   8.225  29.293   6.147
  763ETHY    C1  750   8.375  29.221   5.615
  764AUSL   AUS  751   8.031  29.782   6.827
  765AUSL   AUS  752   7.704  29.479   6.827
  766AUL    AUL  753   7.868  29.631   6.519
  767THSLK    S  754   7.604  29.433   6.579
  768ETHY    C1  755   7.470  29.295   6.158
  769ETHY    C1  756   7.327  29.223   5.624
  770THSLK    S  757   8.132  29.750   6.566
  771ETHY    C1  758   8.259  29.759   6.121
  772ETHY    C1  759   8.403  29.868   5.594
  773AUSL   AUS  760   7.459  29.631   8.081
  774AUSL   AUS  761   7.603  30.047   8.011
  775AUL    AUL  762   7.377  29.934   8.295
  776THSLK    S  763   7.353  29.591   8.333
  777ETHY    C1  764   7.116  29.524   8.723
  778ETHY    C1  765   6.822  29.543   9.197
  779THSLK    S  766   7.475  30.189   8.202
  780ETHY    C1  767   7.322  30.434   8.563
  781ETHY    C1  768   7.074  30.769   8.933
  782AUSL   AUS  769   7.704  29.479   8.174
  783AUSL   AUS  770   7.358  29.366   7.917
  784AUL    AUL  771   7.377  29.327   8.295
  785THSLK    S  772   7.177  29.198   8.043
  786ETHY    C1  773   6.836  28.972   8.259
  787ETHY    C1  774   6.460  28.744   8.602
  788THSLK    S  775   7.604  29.433   8.422
  789ETHY    C1  776   7.476  29.294   8.844
  790ETHY    C1  777   7.332  29.222   9.378
  791AUSL   AUS  778   7.459  29.631   6.921
  792AUSL   AUS  779   7.603  29.214   6.990
  793AUL    AUL  780   7.377  29.327   6.706
  794THSLK    S  781   7.354  29.591   6.668
  795ETHY    C1  782   7.110  29.524   6.281
  796ETHY    C1  783   6.818  29.543   5.807
  797THSLK    S  784   7.429  29.040   6.855
  798ETHY    C1  785   7.192  28.747   6.587
  799ETHY    C1  786   6.967  28.426   6.190
  800AUSL   AUS  787   7.704  29.782   6.827
  801AUSL   AUS  788   7.358  29.895   7.084
  802AUL    AUL  789   7.377  29.934   6.706
  803THSLK    S  790   7.212  30.030   6.894
  804ETHY    C1  791   6.923  30.194   6.572
  805ETHY    C1  792   6.532  30.439   6.259
  806THSLK    S  793   7.617  29.751   6.562
  807ETHY    C1  794   7.504  29.761   6.114
  808ETHY    C1  795   7.356  29.869   5.587
  809AUSL   AUS  796   8.448  30.040   7.501
  810AUSL   AUS  797   8.378  29.895   7.084
  811AUL    AUL  798   8.662  30.121   7.197
  812THSLK    S  799   8.558  30.012   6.920
  813ETHY    C1  800   8.899  30.145   6.638
  814ETHY    C1  801   9.275  30.399   6.314
  815THSLK    S  802   8.721  30.111   7.501
  816ETHY    C1  803   9.145  30.295   7.497
  817ETHY    C1  804   9.609  30.604   7.498
  818AUSL   AUS  805   8.542  29.794   7.349
  819AUSL   AUS  806   8.542  29.467   7.652
  820AUL    AUL  807   8.849  29.631   7.501
  821THSLK    S  808   8.809  29.849   7.341
  822ETHY    C1  809   9.261  29.905   7.262
  823ETHY    C1  810   9.786  30.070   7.172
  824THSLK    S  811   8.788  29.335   7.659
  825ETHY    C1  812   9.205  29.150   7.728
  826ETHY    C1  813   9.741  29.022   7.820
  827AUSL   AUS  814   8.542  29.794   7.652
  828AUSL   AUS  815   8.284  30.141   7.765
  829AUL    AUL  816   8.662  30.121   7.804
  830THSLK    S  817   8.470  30.276   7.925
  831ETHY    C1  818   8.786  30.544   8.128
  832ETHY    C1  819   9.101  30.941   8.362
  833THSLK    S  820   8.809  29.849   7.661
  834ETHY    C1  821   9.261  29.905   7.733
  835ETHY    C1  822   9.787  30.070   7.824
  836AUSL   AUS  823   7.288  30.040   7.501
  837AUSL   AUS  824   7.358  29.895   7.917
  838AUL    AUL  825   7.074  30.121   7.804
  839THSLK    S  826   7.211  30.030   8.107
  840ETHY    C1  827   6.927  30.199   8.430
  841ETHY    C1  828   6.535  30.444   8.743
  842THSLK    S  829   7.057  30.178   7.501
  843ETHY    C1  830   6.703  30.476   7.497
  844ETHY    C1  831   6.219  30.753   7.498
  845AUSL   AUS  832   7.194  29.794   7.349
  846AUSL   AUS  833   7.451  30.141   7.236
  847AUL    AUL  834   7.074  30.121   7.197
  848THSLK    S  835   6.948  29.904   7.307
  849ETHY    C1  836   6.530  30.049   7.173
  850ETHY    C1  837   5.995  30.189   7.099
  851THSLK    S  838   7.320  30.310   7.056
  852ETHY    C1  839   7.096  30.632   6.812
  853ETHY    C1  840   6.756  31.014   6.589
  854AUSL   AUS  841   7.194  29.794   7.652
  855AUSL   AUS  842   7.194  29.467   7.349
  856AUL    AUL  843   6.886  29.631   7.501
  857THSLK    S  844   6.927  29.389   7.377
  858ETHY    C1  845   6.474  29.300   7.359
  859ETHY    C1  846   5.949  29.145   7.252
  860THSLK    S  847   6.948  29.904   7.694
  861ETHY    C1  848   6.531  30.055   7.825
  862ETHY    C1  849   5.996  30.193   7.900
  863AUSL   AUS  850   8.448  29.222   7.501
  864AUSL   AUS  851   8.378  29.366   7.917
  865AUL    AUL  852   8.662  29.140   7.804
  866THSLK    S  853   8.679  29.083   7.501
  867ETHY    C1  854   9.033  28.785   7.497
  868ETHY    C1  855   9.517  28.508   7.498
  869THSLK    S  856   8.524  29.179   8.070
  870ETHY    C1  857   8.812  28.924   8.326
  871ETHY    C1  858   9.204  28.704   8.657
  872AUSL   AUS  859   8.542  29.467   7.349
  873AUSL   AUS  860   8.284  29.120   7.236
  874AUL    AUL  861   8.662  29.140   7.197
  875THSLK    S  862   8.788  29.335   7.343
  876ETHY    C1  863   9.204  29.150   7.266
  877ETHY    C1  864   9.740  29.022   7.176
  878THSLK    S  865   8.416  28.929   7.092
  879ETHY    C1  866   8.637  28.568   6.907
  880ETHY    C1  867   8.978  28.198   6.667
  881AUSL   AUS  868   7.288  29.222   7.501
  882AUSL   AUS  869   7.358  29.366   7.084
  883AUL    AUL  870   7.074  29.140   7.197
  884THSLK    S  871   7.178  29.198   6.958
  885ETHY    C1  872   6.832  28.978   6.743
  886ETHY    C1  873   6.457  28.748   6.400
  887THSLK    S  874   7.015  29.150   7.501
  888ETHY    C1  875   6.591  28.967   7.497
  889ETHY    C1  876   6.127  28.657   7.498
  890AUSL   AUS  877   7.194  29.467   7.652
  891AUSL   AUS  878   7.451  29.120   7.765
  892AUL    AUL  879   7.074  29.140   7.804
  893THSLK    S  880   7.265  28.963   7.889
  894ETHY    C1  881   6.952  28.657   8.033
  895ETHY    C1  882   6.637  28.270   8.284
  896THSLK    S  883   6.927  29.390   7.625
  897ETHY    C1  884   6.475  29.294   7.639
  898ETHY    C1  885   5.950  29.141   7.746
  899AUSL   AUS  886   7.868  30.211   7.910
  900AUSL   AUS  887   7.451  30.141   7.765
  901AUL    AUL  888   7.564  30.425   7.991
  902THSLK    S  889   7.320  30.309   7.945
  903ETHY    C1  890   7.099  30.637   8.185
  904ETHY    C1  891   6.758  31.017   8.409
  905THSLK    S  892   7.902  30.452   8.033
  906ETHY    C1  893   7.960  30.824   8.301
  907ETHY    C1  894   7.944  31.303   8.586
  908AUSL   AUS  895   7.716  30.304   7.664
  909AUSL   AUS  896   8.019  30.304   7.337
  910AUL    AUL  897   7.868  30.612   7.501
  911THSLK    S  898   7.747  30.564   7.770
  912ETHY    C1  899   7.737  31.005   7.907
  913ETHY    C1  900   7.628  31.534   8.048
  914THSLK    S  901   8.064  30.553   7.235
  915ETHY    C1  902   8.202  30.971   7.097
  916ETHY    C1  903   8.274  31.506   6.955
  917AUSL   AUS  904   8.019  30.304   7.664
  918AUSL   AUS  905   8.133  30.047   8.011
  919AUL    AUL  906   8.171  30.425   7.991
  920THSLK    S  907   8.307  30.175   8.185
  921ETHY    C1  908   8.543  30.394   8.517
  922ETHY    C1  909   8.769  30.736   8.895
  923THSLK    S  910   8.064  30.552   7.767
  924ETHY    C1  911   8.203  30.973   7.898
  925ETHY    C1  912   8.276  31.507   8.041
  926AUSL   AUS  913   7.868  29.051   7.910
  927AUSL   AUS  914   8.284  29.120   7.765
  928AUL    AUL  915   8.171  28.836   7.991
  929THSLK    S  916   7.834  28.787   7.997
  930ETHY    C1  917   7.779  28.378   8.205
  931ETHY    C1  918   7.794  27.910   8.507
  932THSLK    S  919   8.416  28.929   7.910
  933ETHY    C1  920   8.639  28.567   8.089
  934ETHY    C1  921   8.980  28.197   8.330
  935AUSL   AUS  922   7.716  28.957   7.664
  936AUSL   AUS  923   7.603  29.214   8.011
  937AUL    AUL  924   7.564  28.836   7.991
  938THSLK    S  925   7.671  28.704   7.746
  939ETHY    C1  926   7.534  28.273   7.843
  940ETHY    C1  927   7.461  27.741   7.996
  941THSLK    S  928   7.428  29.040   8.146
  942ETHY    C1  929   7.197  28.742   8.413
  943ETHY    C1  930   6.970  28.422   8.810
  944AUSL   AUS  931   8.019  28.957   7.664
  945AUSL   AUS  932   7.716  28.957   7.337
  946AUL    AUL  933   7.868  28.649   7.501
  947THSLK    S  934   7.671  28.704   7.255
  948ETHY    C1  935   7.532  28.275   7.152
  949ETHY    C1  936   7.460  27.743   7.001
  950THSLK    S  937   7.988  28.692   7.750
  951ETHY    C1  938   8.001  28.241   7.852
  952ETHY    C1  939   8.109  27.715   8.003
  953AUSL   AUS  940   7.868  30.211   7.092
  954AUSL   AUS  941   8.284  30.141   7.236
  955AUL    AUL  942   8.171  30.425   7.010
  956THSLK    S  943   7.902  30.452   6.969
  957ETHY    C1  944   7.957  30.821   6.696
  958ETHY    C1  945   7.941  31.300   6.412
  959THSLK    S  946   8.471  30.276   7.077
  960ETHY    C1  947   8.784  30.543   6.868
  961ETHY    C1  948   9.099  30.940   6.634
  962AUSL   AUS  949   7.716  30.304   7.337
  963AUSL   AUS  950   7.603  30.047   6.990
  964AUL    AUL  951   7.564  30.425   7.010
  965THSLK    S  952   7.747  30.565   7.232
  966ETHY    C1  953   7.735  31.003   7.088
  967ETHY    C1  954   7.627  31.532   6.948
  968THSLK    S  955   7.476  30.190   6.799
  969ETHY    C1  956   7.318  30.430   6.437
  970ETHY    C1  957   7.070  30.765   6.067
  971AUSL   AUS  958   7.868  29.051   7.092
  972AUSL   AUS  959   7.451  29.120   7.236
  973AUL    AUL  960   7.564  28.836   7.010
  974THSLK    S  961   7.265  28.963   7.113
  975ETHY    C1  962   6.949  28.661   6.964
  976ETHY    C1  963   6.635  28.274   6.714
  977THSLK    S  964   7.834  28.787   7.004
  978ETHY    C1  965   7.775  28.382   6.791
  979ETHY    C1  966   7.792  27.912   6.490
  980AUSL   AUS  967   8.019  28.957   7.337
  981AUSL   AUS  968   8.133  29.214   6.990
  982AUL    AUL  969   8.171  28.836   7.010
  983THSLK    S  970   7.989  28.691   7.252
  984ETHY    C1  971   7.999  28.243   7.143
  985ETHY    C1  972   8.107  27.716   6.993
  986THSLK    S  973   8.261  29.025   6.839
  987ETHY    C1  974   8.413  28.707   6.541
  988ETHY    C1  975   8.662  28.393   6.152
  989AUC    AUC  976   8.657  19.167   7.501
  990AUC    AUC  977   8.902  19.167   7.349
  991AUC    AUC  978   8.902  19.167   7.652
  992AUC    AUC  979   8.411  19.167   7.349
  993AUC    AUC  980   8.411  19.167   7.652
  994AUC    AUC  981   8.505  19.412   7.501
  995AUC    AUC  982   8.808  19.412   7.501
  996AUC    AUC  983   8.505  18.921   7.501
  997AUC    AUC  984   8.808  18.921   7.501
  998AUC    AUC  985   8.657  19.015   7.746
  999AUC    AUC  986   8.657  19.318   7.746
 1000AUC    AUC  987   8.657  19.015   7.255
 1001AUC    AUC  988   8.657  19.318   7.255
 1002AUC    AUC  989   9.148  19.167   7.197
 1003AUC    AUC  990   9.148  19.167   7.501
 1004AUC    AUC  991   9.148  19.167   7.804
 1005AUC    AUC  992   8.166  19.167   7.197
 1006AUC    AUC  993   8.166  19.167   7.501
 1007AUC    AUC  994   8.166  19.167   7.804
 1008AUC    AUC  995   8.353  19.657   7.501
 1009AUC    AUC  996   8.657  19.657   7.501
 1010AUC    AUC  997   8.960  19.657   7.501
 1011AUC    AUC  998   8.353  18.676   7.501
 1012AUC    AUC  999   8.657  18.676   7.501
 1013AUC    AUC 1000   8.960  18.676   7.501
 1014AUC    AUC 1001   8.657  18.863   7.991
 1015AUC    AUC 1002   8.657  19.167   7.991
 1016AUC    AUC 1003   8.657  19.470   7.991
 1017AUC    AUC 1004   8.657  18.863   7.010
 1018AUC    AUC 1005   8.657  19.167   7.010
 1019AUC    AUC 1006   8.657  19.470   7.010
 1020AUC    AUC 1007   8.902  19.015   7.898
 1021AUC    AUC 1008   8.902  19.318   7.898
 1022AUC    AUC 1009   8.902  19.015   7.103
 1023AUC    AUC 1010   8.902  19.318   7.103
 1024AUC    AUC 1011   8.411  19.015   7.898
 1025AUC    AUC 1012   8.411  19.318   7.898
 1026AUC    AUC 1013   8.411  19.015   7.103
 1027AUC    AUC 1014   8.411  19.318   7.103
 1028AUC    AUC 1015   9.054  19.412   7.349
 1029AUC    AUC 1016   9.054  19.412   7.652
 1030AUC    AUC 1017   8.260  19.412   7.349
 1031AUC    AUC 1018   8.260  19.412   7.652
 1032AUC    AUC 1019   9.054  18.921   7.349
 1033AUC    AUC 1020   9.054  18.921   7.652
 1034AUC    AUC 1021   8.260  18.921   7.349
 1035AUC    AUC 1022   8.260  18.921   7.652
 1036AUC    AUC 1023   8.505  19.564   7.746
 1037AUC    AUC 1024   8.808  19.564   7.746
 1038AUC    AUC 1025   8.505  18.770   7.746
 1039AUC    AUC 1026   8.808  18.770   7.746
 1040AUC    AUC 1027   8.505  19.564   7.255
 1041AUC    AUC 1028   8.808  19.564   7.255
 1042AUC    AUC 1029   8.505  18.770   7.255
 1043AUC    AUC 1030   8.808  18.770   7.255
 1044AUSL   AUS 1031   9.066  19.167   8.081
 1045AUSL   AUS 1032   8.922  18.750   8.011
 1046AUL    AUL 1033   9.148  18.863   8.295
 1047THSLK    S 1034   9.049  18.562   8.163
 1048ETHY    C1 1035   9.207  18.241   8.456
 1049ETHY    C1 1036   9.455  17.928   8.845
 1050THSLK    S 1037   9.171  19.127   8.333
 1051ETHY    C1 1038   9.414  19.060   8.720
 1052ETHY    C1 1039   9.707  19.079   9.194
 1053AUSL   AUS 1040   8.820  19.015   8.174
 1054AUSL   AUS 1041   8.493  19.318   8.174
 1055AUL    AUL 1042   8.657  19.167   8.482
 1056THSLK    S 1043   8.907  18.969   8.426
 1057ETHY    C1 1044   9.020  18.828   8.852
 1058ETHY    C1 1045   9.169  18.757   9.385
 1059THSLK    S 1046   8.405  19.287   8.439
 1060ETHY    C1 1047   8.300  19.298   8.889
 1061ETHY    C1 1048   8.150  19.406   9.415
 1062AUSL   AUS 1049   8.820  19.318   8.174
 1063AUSL   AUS 1050   9.167  19.431   7.917
 1064AUL    AUL 1051   9.148  19.470   8.295
 1065THSLK    S 1052   8.908  19.364   8.426
 1066ETHY    C1 1053   9.014  19.504   8.854
 1067ETHY    C1 1054   9.164  19.576   9.386
 1068THSLK    S 1055   9.347  19.547   8.082
 1069ETHY    C1 1056   9.692  19.682   8.358
 1070ETHY    C1 1057  10.067  19.936   8.683
 1071AUSL   AUS 1058   9.066  19.167   6.921
 1072AUSL   AUS 1059   8.922  19.583   6.990
 1073AUL    AUL 1060   9.148  19.470   6.706
 1074THSLK    S 1061   9.172  19.127   6.668
 1075ETHY    C1 1062   9.409  19.060   6.278
 1076ETHY    C1 1063   9.702  19.079   5.804
 1077THSLK    S 1064   9.097  19.711   6.816
 1078ETHY    C1 1065   9.328  19.929   6.480
 1079ETHY    C1 1066   9.554  20.271   6.102
 1080AUSL   AUS 1067   8.820  19.015   6.827
 1081AUSL   AUS 1068   9.167  18.902   7.084
 1082AUL    AUL 1069   9.148  18.863   6.706
 1083THSLK    S 1070   9.313  18.715   6.932
 1084ETHY    C1 1071   9.597  18.461   6.670
 1085ETHY    C1 1072   9.989  18.241   6.340
 1086THSLK    S 1073   8.908  18.969   6.575
 1087ETHY    C1 1074   9.014  18.829   6.147
 1088ETHY    C1 1075   9.164  18.757   5.615
 1089AUSL   AUS 1076   8.820  19.318   6.827
 1090AUSL   AUS 1077   8.493  19.015   6.827
 1091AUL    AUL 1078   8.657  19.167   6.519
 1092THSLK    S 1079   8.393  18.969   6.579
 1093ETHY    C1 1080   8.259  18.831   6.158
 1094ETHY    C1 1081   8.116  18.759   5.624
 1095THSLK    S 1082   8.921  19.286   6.566
 1096ETHY    C1 1083   9.048  19.295   6.121
 1097ETHY    C1 1084   9.192  19.404   5.594
 1098AUSL   AUS 1085   8.248  19.167   8.081
 1099AUSL   AUS 1086   8.392  19.583   8.011
 1100AUL    AUL 1087   8.166  19.470   8.295
 1101THSLK    S 1088   8.142  19.127   8.333
 1102ETHY    C1 1089   7.905  19.060   8.723
 1103ETHY    C1 1090   7.611  19.079   9.197
 1104THSLK    S 1091   8.264  19.725   8.202
 1105ETHY    C1 1092   8.111  19.970   8.563
 1106ETHY    C1 1093   7.863  20.305   8.933
 1107AUSL   AUS 1094   8.493  19.015   8.174
 1108AUSL   AUS 1095   8.147  18.902   7.917
 1109AUL    AUL 1096   8.166  18.863   8.295
 1110THSLK    S 1097   7.966  18.734   8.043
 1111ETHY    C1 1098   7.625  18.508   8.259
 1112ETHY    C1 1099   7.249  18.280   8.602
 1113THSLK    S 1100   8.393  18.969   8.422
 1114ETHY    C1 1101   8.265  18.830   8.844
 1115ETHY    C1 1102   8.121  18.758   9.378
 1116AUSL   AUS 1103   8.248  19.167   6.921
 1117AUSL   AUS 1104   8.392  18.750   6.990
 1118AUL    AUL 1105   8.166  18.863   6.706
 1119THSLK    S 1106   8.143  19.127   6.668
 1120ETHY    C1 1107   7.899  19.060   6.281
 1121ETHY    C1 1108   7.607  19.079   5.807
 1122THSLK    S 1109   8.218  18.576   6.855
 1123ETHY    C1 1110   7.981  18.283   6.587
 1124ETHY    C1 1111   7.756  17.962   6.190
 1125AUSL   AUS 1112   8.493  19.318   6.827
 1126AUSL   AUS 1113   8.147  19.431   7.084
 1127AUL    AUL 1114   8.166  19.470   6.706
 1128THSLK    S 1115   8.001  19.566   6.894
 1129ETHY    C1 1116   7.712  19.730   6.572
 1130ETHY    C1 1117   7.321  19.975   6.259
 1131THSLK    S 1118   8.406  19.287   6.562
 1132ETHY    C1 1119   8.293  19.297   6.114
 1133ETHY    C1 1120   8.145  19.405   5.587
 1134AUSL   AUS 1121   9.237  19.576   7.501
 1135AUSL   AUS 1122   9.167  19.431   7.084
 1136AUL    AUL 1123   9.451  19.657   7.197
 1137THSLK    S 1124   9.347  19.548   6.920
 1138ETHY    C1 1125   9.688  19.681   6.638
 1139ETHY    C1 1126  10.064  19.935   6.314
 1140THSLK    S 1127   9.510  19.647   7.501
 1141ETHY    C1 1128   9.934  19.831   7.497
 1142ETHY    C1 1129  10.398  20.140   7.498
 1143AUSL   AUS 1130   9.331  19.330   7.349
 1144AUSL   AUS 1131   9.331  19.003   7.652
 1145AUL    AUL 1132   9.638  19.167   7.501
 1146THSLK    S 1133   9.598  19.385   7.341
 1147ETHY    C1 1134  10.050  19.441   7.262
 1148ETHY    C1 1135  10.575  19.606   7.172
 1149THSLK    S 1136   9.577  18.871   7.659
 1150ETHY    C1 1137   9.994  18.686   7.728
 1151ETHY    C1 1138  10.530  18.558   7.820
 1152AUSL   AUS 1139   9.331  19.330   7.652
 1153AUSL   AUS 1140   9.073  19.677   7.765
 1154AUL    AUL 1141   9.451  19.657   7.804
 1155THSLK    S 1142   9.259  19.812   7.925
 1156ETHY    C1 1143   9.575  20.080   8.128
 1157ETHY    C1 1144   9.890  20.477   8.362
 1158THSLK    S 1145   9.598  19.385   7.661
 1159ETHY    C1 1146  10.050  19.441   7.733
 1160ETHY    C1 1147  10.576  19.606   7.824
 1161AUSL   AUS 1148   8.077  19.576   7.501
 1162AUSL   AUS 1149   8.147  19.431   7.917
 1163AUL    AUL 1150   7.863  19.657   7.804
 1164THSLK    S 1151   8.000  19.566   8.107
 1165ETHY    C1 1152   7.716  19.735   8.430
 1166ETHY    C1 1153   7.324  19.980   8.743
 1167THSLK    S 1154   7.846  19.714   7.501
 1168ETHY    C1 1155   7.492  20.012   7.497
 1169ETHY    C1 1156   7.008  20.289   7.498
 1170AUSL   AUS 1157   7.983  19.330   7.349
 1171AUSL   AUS 1158   8.240  19.677   7.236
 1172AUL    AUL 1159   7.863  19.657   7.197
 1173THSLK    S 1160   7.737  19.440   7.307
 1174ETHY    C1 1161   7.319  19.585   7.173
 1175ETHY    C1 1162   6.784  19.725   7.099
 1176THSLK    S 1163   8.109  19.846   7.056
 1177ETHY    C1 1164   7.885  20.168   6.812
 1178ETHY    C1 1165   7.545  20.550   6.589
 1179AUSL   AUS 1166   7.983  19.330   7.652
 1180AUSL   AUS 1167   7.983  19.003   7.349
 1181AUL    AUL 1168   7.675  19.167   7.501
 1182THSLK    S 1169   7.716  18.925   7.377
 1183ETHY    C1 1170   7.263  18.836   7.359
 1184ETHY    C1 1171   6.738  18.681   7.252
 1185THSLK    S 1172   7.737  19.440   7.694
 1186ETHY    C1 1173   7.320  19.591   7.825
 1187ETHY    C1 1174   6.785  19.729   7.900
 1188AUSL   AUS 1175   9.237  18.758   7.501
 1189AUSL   AUS 1176   9.167  18.902   7.917
 1190AUL    AUL 1177   9.451  18.676   7.804
 1191THSLK    S 1178   9.468  18.619   7.501
 1192ETHY    C1 1179   9.822  18.321   7.497
 1193ETHY    C1 1180  10.306  18.044   7.498
 1194THSLK    S 1181   9.313  18.715   8.070
 1195ETHY    C1 1182   9.601  18.460   8.326
 1196ETHY    C1 1183   9.993  18.240   8.657
 1197AUSL   AUS 1184   9.331  19.003   7.349
 1198AUSL   AUS 1185   9.073  18.656   7.236
 1199AUL    AUL 1186   9.451  18.676   7.197
 1200THSLK    S 1187   9.577  18.871   7.343
 1201ETHY    C1 1188   9.993  18.686   7.266
 1202ETHY    C1 1189  10.529  18.558   7.176
 1203THSLK    S 1190   9.205  18.465   7.092
 1204ETHY    C1 1191   9.426  18.104   6.907
 1205ETHY    C1 1192   9.767  17.734   6.667
 1206AUSL   AUS 1193   8.077  18.758   7.501
 1207AUSL   AUS 1194   8.147  18.902   7.084
 1208AUL    AUL 1195   7.863  18.676   7.197
 1209THSLK    S 1196   7.967  18.734   6.958
 1210ETHY    C1 1197   7.621  18.514   6.743
 1211ETHY    C1 1198   7.246  18.284   6.400
 1212THSLK    S 1199   7.804  18.686   7.501
 1213ETHY    C1 1200   7.380  18.503   7.497
 1214ETHY    C1 1201   6.916  18.193   7.498
 1215AUSL   AUS 1202   7.983  19.003   7.652
 1216AUSL   AUS 1203   8.240  18.656   7.765
 1217AUL    AUL 1204   7.863  18.676   7.804
 1218THSLK    S 1205   8.054  18.499   7.889
 1219ETHY    C1 1206   7.741  18.193   8.033
 1220ETHY    C1 1207   7.426  17.806   8.284
 1221THSLK    S 1208   7.716  18.926   7.625
 1222ETHY    C1 1209   7.264  18.830   7.639
 1223ETHY    C1 1210   6.739  18.677   7.746
 1224AUSL   AUS 1211   8.657  19.747   7.910
 1225AUSL   AUS 1212   8.240  19.677   7.765
 1226AUL    AUL 1213   8.353  19.961   7.991
 1227THSLK    S 1214   8.109  19.845   7.945
 1228ETHY    C1 1215   7.888  20.173   8.185
 1229ETHY    C1 1216   7.547  20.553   8.409
 1230THSLK    S 1217   8.691  19.988   8.033
 1231ETHY    C1 1218   8.749  20.360   8.301
 1232ETHY    C1 1219   8.733  20.839   8.586
 1233AUSL   AUS 1220   8.505  19.840   7.664
 1234AUSL   AUS 1221   8.808  19.840   7.337
 1235AUL    AUL 1222   8.657  20.148   7.501
 1236THSLK    S 1223   8.536  20.100   7.770
 1237ETHY    C1 1224   8.526  20.541   7.907
 1238ETHY    C1 1225   8.417  21.070   8.048
 1239THSLK    S 1226   8.853  20.089   7.235
 1240ETHY    C1 1227   8.991  20.507   7.097
 1241ETHY    C1 1228   9.063  21.042   6.955
 1242AUSL   AUS 1229   8.808  19.840   7.664
 1243AUSL   AUS 1230   8.922  19.583   8.011
 1244AUL    AUL 1231   8.960  19.961   7.991
 1245THSLK    S 1232   9.096  19.711   8.185
 1246ETHY    C1 1233   9.332  19.930   8.517
 1247ETHY    C1 1234   9.558  20.272   8.895
 1248THSLK    S 1235   8.853  20.088   7.767
 1249ETHY    C1 1236   8.992  20.509   7.898
 1250ETHY    C1 1237   9.065  21.043   8.041
 1251AUSL   AUS 1238   8.657  18.587   7.910
 1252AUSL   AUS 1239   9.073  18.656   7.765
 1253AUL    AUL 1240   8.960  18.372   7.991
 1254THSLK    S 1241   8.623  18.323   7.997
 1255ETHY    C1 1242   8.568  17.914   8.205
 1256ETHY    C1 1243   8.583  17.446   8.507
 1257THSLK    S 1244   9.205  18.465   7.910
 1258ETHY    C1 1245   9.428  18.103   8.089
 1259ETHY    C1 1246   9.769  17.733   8.330
 1260AUSL   AUS 1247   8.505  18.493   7.664
 1261AUSL   AUS 1248   8.392  18.750   8.011
 1262AUL    AUL 1249   8.353  18.372   7.991
 1263THSLK    S 1250   8.460  18.240   7.746
 1264ETHY    C1 1251   8.323  17.809   7.843
 1265ETHY    C1 1252   8.250  17.277   7.996
 1266THSLK    S 1253   8.217  18.576   8.146
 1267ETHY    C1 1254   7.986  18.278   8.413
 1268ETHY    C1 1255   7.759  17.958   8.810
 1269AUSL   AUS 1256   8.808  18.493   7.664
 1270AUSL   AUS 1257   8.505  18.493   7.337
 1271AUL    AUL 1258   8.657  18.185   7.501
 1272THSLK    S 1259   8.460  18.240   7.255
 1273ETHY    C1 1260   8.321  17.811   7.152
 1274ETHY    C1 1261   8.249  17.279   7.001
 1275THSLK    S 1262   8.777  18.228   7.750
 1276ETHY    C1 1263   8.790  17.777   7.852
 1277ETHY    C1 1264   8.898  17.251   8.003
 1278AUSL   AUS 1265   8.657  19.747   7.092
 1279AUSL   AUS 1266   9.073  19.677   7.236
 1280AUL    AUL 1267   8.960  19.961   7.010
 1281THSLK    S 1268   8.691  19.988   6.969
 1282ETHY    C1 1269   8.746  20.357   6.696
 1283ETHY    C1 1270   8.730  20.836   6.412
 1284THSLK    S 1271   9.260  19.812   7.077
 1285ETHY    C1 1272   9.573  20.079   6.868
 1286ETHY    C1 1273   9.888  20.476   6.634
 1287AUSL   AUS 1274   8.505  19.840   7.337
 1288AUSL   AUS 1275   8.392  19.583   6.990
 1289AUL    AUL 1276   8.353  19.961   7.010
 1290THSLK    S 1277   8.536  20.101   7.232
 1291ETHY    C1 1278   8.524  20.539   7.088
 1292ETHY    C1 1279   8.416  21.068   6.948
 1293THSLK    S 1280   8.265  19.726   6.799
 1294ETHY    C1 1281   8.107  19.966   6.437
 1295ETHY    C1 1282   7.859  20.301   6.067
 1296AUSL   AUS 1283   8.657  18.587   7.092
 1297AUSL   AUS 1284   8.240  18.656   7.236
 1298AUL    AUL 1285   8.353  18.372   7.010
 1299THSLK    S 1286   8.054  18.499   7.113
 1300ETHY    C1 1287   7.738  18.197   6.964
 1301ETHY    C1 1288   7.424  17.810   6.714
 1302THSLK    S 1289   8.623  18.323   7.004
 1303ETHY    C1 1290   8.564  17.918   6.791
 1304ETHY    C1 1291   8.581  17.448   6.490
 1305AUSL   AUS 1292   8.808  18.493   7.337
 1306AUSL   AUS 1293   8.922  18.750   6.990
 1307AUL    AUL 1294   8.960  18.372   7.010
 1308THSLK    S 1295   8.778  18.227   7.252
 1309ETHY    C1 1296   8.788  17.779   7.143
 1310ETHY    C1 1297   8.896  17.252   6.993
 1311THSLK    S 1298   9.050  18.561   6.839
 1312ETHY    C1 1299   9.202  18.243   6.541
 1313ETHY    C1 1300   9.451  17.929   6.152
 1314AUC    AUC 1301  27.801  44.376   7.501
 1315AUC    AUC 1302  28.046  44.376   7.349
 1316AUC    AUC 1303  28.046  44.376   7.652
 1317AUC    AUC 1304  27.555  44.376   7.349
 1318AUC    AUC 1305  27.555  44.376   7.652
 1319AUC    AUC 1306  27.649  44.621   7.501
 1320AUC    AUC 1307  27.952  44.621   7.501
 1321AUC    AUC 1308  27.649  44.130   7.501
 1322AUC    AUC 1309  27.952  44.130   7.501
 1323AUC    AUC 1310  27.801  44.224   7.746
 1324AUC    AUC 1311  27.801  44.527   7.746
 1325AUC    AUC 1312  27.801  44.224   7.255
 1326AUC    AUC 1313  27.801  44.527   7.255
 1327AUC    AUC 1314  28.292  44.376   7.197
 1328AUC    AUC 1315  28.292  44.376   7.501
 1329AUC    AUC 1316  28.292  44.376   7.804
 1330AUC    AUC 1317  27.310  44.376   7.197
 1331AUC    AUC 1318  27.310  44.376   7.501
 1332AUC    AUC 1319  27.310  44.376   7.804
 1333AUC    AUC 1320  27.497  44.866   7.501
 1334AUC    AUC 1321  27.801  44.866   7.501
 1335AUC    AUC 1322  28.104  44.866   7.501
 1336AUC    AUC 1323  27.497  43.885   7.501
 1337AUC    AUC 1324  27.801  43.885   7.501
 1338AUC    AUC 1325  28.104  43.885   7.501
 1339AUC    AUC 1326  27.801  44.072   7.991
 1340AUC    AUC 1327  27.801  44.376   7.991
 1341AUC    AUC 1328  27.801  44.679   7.991
 1342AUC    AUC 1329  27.801  44.072   7.010
 1343AUC    AUC 1330  27.801  44.376   7.010
 1344AUC    AUC 1331  27.801  44.679   7.010
 1345AUC    AUC 1332  28.046  44.224   7.898
 1346AUC    AUC 1333  28.046  44.527   7.898
 1347AUC    AUC 1334  28.046  44.224   7.103
 1348AUC    AUC 1335  28.046  44.527   7.103
 1349AUC    AUC 1336  27.555  44.224   7.898
 1350AUC    AUC 1337  27.555  44.527   7.898
 1351AUC    AUC 1338  27.555  44.224   7.103
 1352AUC    AUC 1339  27.555  44.527   7.103
 1353AUC    AUC 1340  28.198  44.621   7.349
 1354AUC    AUC 1341  28.198  44.621   7.652
 1355AUC    AUC 1342  27.404  44.621   7.349
 1356AUC    AUC 1343  27.404  44.621   7.652
 1357AUC    AUC 1344  28.198  44.130   7.349
 1358AUC    AUC 1345  28.198  44.130   7.652
 1359AUC    AUC 1346  27.404  44.130   7.349
 1360AUC    AUC 1347  27.404  44.130   7.652
 1361AUC    AUC 1348  27.649  44.773   7.746
 1362AUC    AUC 1349  27.952  44.773   7.746
 1363AUC    AUC 1350  27.649  43.979   7.746
 1364AUC    AUC 1351  27.952  43.979   7.746
 1365AUC    AUC 1352  27.649  44.773   7.255
 1366AUC    AUC 1353  27.952  44.773   7.255
 1367AUC    AUC 1354  27.649  43.979   7.255
 1368AUC    AUC 1355  27.952  43.979   7.255
 1369AUSL   AUS 1356  28.210  44.376   8.081
 1370AUSL   AUS 1357  28.066  43.959   8.011
 1371AUL    AUL 1358  28.292  44.072   8.295
 1372THSLK    S 1359  28.193  43.771   8.163
 1373ETHY    C1 1360  28.351  43.450   8.456
 1374ETHY    C1 1361  28.599  43.137   8.845
 1375THSLK    S 1362  28.315  44.336   8.333
 1376ETHY    C1 1363  28.558  44.269   8.720
 1377ETHY    C1 1364  28.851  44.288   9.194
 1378AUSL   AUS 1365  27.964  44.224   8.174
 1379AUSL   AUS 1366  27.637  44.527   8.174
 1380AUL    AUL 1367  27.801  44.376   8.482
 1381THSLK    S 1368  28.051  44.178   8.426
 1382ETHY    C1 1369  28.164  44.037   8.852
 1383ETHY    C1 1370  28.313  43.966   9.385
 1384THSLK    S 1371  27.549  44.496   8.439
 1385ETHY    C1 1372  27.444  44.507   8.889
 1386ETHY    C1 1373  27.294  44.615   9.415
 1387AUSL   AUS 1374  27.964  44.527   8.174
 1388AUSL   AUS 1375  28.311  44.640   7.917
 1389AUL    AUL 1376  28.292  44.679   8.295
 1390THSLK    S 1377  28.052  44.573   8.426
 1391ETHY    C1 1378  28.158  44.713   8.854
 1392ETHY    C1 1379  28.308  44.785   9.386
 1393THSLK    S 1380  28.491  44.756   8.082
 1394ETHY    C1 1381  28.836  44.891   8.358
 1395ETHY    C1 1382  29.211  45.145   8.683
 1396AUSL   AUS 1383  28.210  44.376   6.921
 1397AUSL   AUS 1384  28.066  44.792   6.990
 1398AUL    AUL 1385  28.292  44.679   6.706
 1399THSLK    S 1386  28.316  44.336   6.668
 1400ETHY    C1 1387  28.553  44.269   6.278
 1401ETHY    C1 1388  28.846  44.288   5.804
 1402THSLK    S 1389  28.241  44.920   6.816
 1403ETHY    C1 1390  28.472  45.138   6.480
 1404ETHY    C1 1391  28.698  45.480   6.102
 1405AUSL   AUS 1392  27.964  44.224   6.827
 1406AUSL   AUS 1393  28.311  44.111   7.084
 1407AUL    AUL 1394  28.292  44.072   6.706
 1408THSLK    S 1395  28.457  43.924   6.932
 1409ETHY    C1 1396  28.741  43.670   6.670
 1410ETHY    C1 1397  29.133  43.450   6.340
 1411THSLK    S 1398  28.052  44.178   6.575
 1412ETHY    C1 1399  28.158  44.038   6.147
 1413ETHY    C1 1400  28.308  43.966   5.615
 1414AUSL   AUS 1401  27.964  44.527   6.827
 1415AUSL   AUS 1402  27.637  44.224   6.827
 1416AUL    AUL 1403  27.801  44.376   6.519
 1417THSLK    S 1404  27.537  44.178   6.579
 1418ETHY    C1 1405  27.403  44.040   6.158
 1419ETHY    C1 1406  27.260  43.968   5.624
 1420THSLK    S 1407  28.065  44.495   6.566
 1421ETHY    C1 1408  28.192  44.504   6.121
 1422ETHY    C1 1409  28.336  44.613   5.594
 1423AUSL   AUS 1410  27.392  44.376   8.081
 1424AUSL   AUS 1411  27.536  44.792   8.011
 1425AUL    AUL 1412  27.310  44.679   8.295
 1426THSLK    S 1413  27.286  44.336   8.333
 1427ETHY    C1 1414  27.049  44.269   8.723
 1428ETHY    C1 1415  26.755  44.288   9.197
 1429THSLK    S 1416  27.408  44.934   8.202
 1430ETHY    C1 1417  27.255  45.179   8.563
 1431ETHY    C1 1418  27.007  45.514   8.933
 1432AUSL   AUS 1419  27.637  44.224   8.174
 1433AUSL   AUS 1420  27.291  44.111   7.917
 1434AUL    AUL 1421  27.310  44.072   8.295
 1435THSLK    S 1422  27.110  43.943   8.043
 1436ETHY    C1 1423  26.769  43.717   8.259
 1437ETHY    C1 1424  26.393  43.489   8.602
 1438THSLK    S 1425  27.537  44.178   8.422
 1439ETHY    C1 1426  27.409  44.039   8.844
 1440ETHY    C1 1427  27.265  43.967   9.378
 1441AUSL   AUS 1428  27.392  44.376   6.921
 1442AUSL   AUS 1429  27.536  43.959   6.990
 1443AUL    AUL 1430  27.310  44.072   6.706
 1444THSLK    S 1431  27.287  44.336   6.668
 1445ETHY    C1 1432  27.043  44.269   6.281
 1446ETHY    C1 1433  26.751  44.288   5.807
 1447THSLK    S 1434  27.362  43.785   6.855
 1448ETHY    C1 1435  27.125  43.492   6.587
 1449ETHY    C1 1436  26.900  43.171   6.190
 1450AUSL   AUS 1437  27.637  44.527   6.827
 1451AUSL   AUS 1438  27.291  44.640   7.084
 1452AUL    AUL 1439  27.310  44.679   6.706
 1453THSLK    S 1440  27.145  44.775   6.894
 1454ETHY    C1 1441  26.856  44.939   6.572
 1455ETHY    C1 1442  26.465  45.184   6.259
 1456THSLK    S 1443  27.550  44.496   6.562
 1457ETHY    C1 1444  27.437  44.506   6.114
 1458ETHY    C1 1445  27.289  44.614   5.587
 1459AUSL   AUS 1446  28.381  44.785   7.501
 1460AUSL   AUS 1447  28.311  44.640   7.084
 1461AUL    AUL 1448  28.595  44.866   7.197
 1462THSLK    S 1449  28.491  44.757   6.920
 1463ETHY    C1 1450  28.832  44.890   6.638
 1464ETHY    C1 1451  29.208  45.144   6.314
 1465THSLK    S 1452  28.654  44.856   7.501
 1466ETHY    C1 1453  29.078  45.040   7.497
 1467ETHY    C1 1454  29.542  45.349   7.498
 1468AUSL   AUS 1455  28.475  44.539   7.349
 1469AUSL   AUS 1456  28.475  44.212   7.652
 1470AUL    AUL 1457  28.782  44.376   7.501
 1471THSLK    S 1458  28.742  44.594   7.341
 1472ETHY    C1 1459  29.194  44.650   7.262
 1473ETHY    C1 1460  29.719  44.815   7.172
 1474THSLK    S 1461  28.721  44.080   7.659
 1475ETHY    C1 1462  29.138  43.895   7.728
 1476ETHY    C1 1463  29.674  43.767   7.820
 1477AUSL   AUS 1464  28.475  44.539   7.652
 1478AUSL   AUS 1465  28.217  44.886   7.765
 1479AUL    AUL 1466  28.595  44.866   7.804
 1480THSLK    S 1467  28.403  45.021   7.925
 1481ETHY    C1 1468  28.719  45.289   8.128
 1482ETHY    C1 1469  29.034  45.686   8.362
 1483THSLK    S 1470  28.742  44.594   7.661
 1484ETHY    C1 1471  29.194  44.650   7.733
 1485ETHY    C1 1472  29.720  44.815   7.824
 1486AUSL   AUS 1473  27.221  44.785   7.501
 1487AUSL   AUS 1474  27.291  44.640   7.917
 1488AUL    AUL 1475  27.007  44.866   7.804
 1489THSLK    S 1476  27.144  44.775   8.107
 1490ETHY    C1 1477  26.860  44.944   8.430
 1491ETHY    C1 1478  26.468  45.189   8.743
 1492THSLK    S 1479  26.990  44.923   7.501
 1493ETHY    C1 1480  26.636  45.221   7.497
 1494ETHY    C1 1481  26.152  45.498   7.498
 1495AUSL   AUS 1482  27.127  44.539   7.349
 1496AUSL   AUS 1483  27.384  44.886   7.236
 1497AUL    AUL 1484  27.007  44.866   7.197
 1498THSLK    S 1485  26.881  44.649   7.307
 1499ETHY    C1 1486  26.463  44.794   7.173
 1500ETHY    C1 1487  25.928  44.934   7.099
 1501THSLK    S 1488  27.253  45.055   7.056
 1502ETHY    C1 1489  27.029  45.377   6.812
 1503ETHY    C1 1490  26.689  45.759   6.589
 1504AUSL   AUS 1491  27.127  44.539   7.652
 1505AUSL   AUS 1492  27.127  44.212   7.349
 1506AUL    AUL 1493  26.819  44.376   7.501
 1507THSLK    S 1494  26.860  44.134   7.377
 1508ETHY    C1 1495  26.407  44.045   7.359
 1509ETHY    C1 1496  25.882  43.890   7.252
 1510THSLK    S 1497  26.881  44.649   7.694
 1511ETHY    C1 1498  26.464  44.800   7.825
 1512ETHY    C1 1499  25.929  44.938   7.900
 1513AUSL   AUS 1500  28.381  43.967   7.501
 1514AUSL   AUS 1501  28.311  44.111   7.917
 1515AUL    AUL 1502  28.595  43.885   7.804
 1516THSLK    S 1503  28.612  43.828   7.501
 1517ETHY    C1 1504  28.966  43.530   7.497
 1518ETHY    C1 1505  29.450  43.253   7.498
 1519THSLK    S 1506  28.457  43.924   8.070
 1520ETHY    C1 1507  28.745  43.669   8.326
 1521ETHY    C1 1508  29.137  43.449   8.657
 1522AUSL   AUS 1509  28.475  44.212   7.349
 1523AUSL   AUS 1510  28.217  43.865   7.236
 1524AUL    AUL 1511  28.595  43.885   7.197
 1525THSLK    S 1512  28.721  44.080   7.343
 1526ETHY    C1 1513  29.137  43.895   7.266
 1527ETHY    C1 1514  29.673  43.767   7.176
 1528THSLK    S 1515  28.349  43.674   7.092
 1529ETHY    C1 1516  28.570  43.313   6.907
 1530ETHY    C1 1517  28.911  42.943   6.667
 1531AUSL   AUS 1518  27.221  43.967   7.501
 1532AUSL   AUS 1519  27.291  44.111   7.084
 1533AUL    AUL 1520  27.007  43.885   7.197
 1534THSLK    S 1521  27.111  43.943   6.958
 1535ETHY    C1 1522  26.765  43.723   6.743
 1536ETHY    C1 1523  26.390  43.493   6.400
 1537THSLK    S 1524  26.948  43.895   7.501
 1538ETHY    C1 1525  26.524  43.712   7.497
 1539ETHY    C1 1526  26.060  43.402   7.498
 1540AUSL   AUS 1527  27.127  44.212   7.652
 1541AUSL   AUS 1528  27.384  43.865   7.765
 1542AUL    AUL 1529  27.007  43.885   7.804
 1543THSLK    S 1530  27.198  43.708   7.889
 1544ETHY    C1 1531  26.885  43.402   8.033
 1545ETHY    C1 1532  26.570  43.015   8.284
 1546THSLK    S 1533  26.860  44.135   7.625
 1547ETHY    C1 1534  26.408  44.039   7.639
 1548ETHY    C1 1535  25.883  43.886   7.746
 1549AUSL   AUS 1536  27.801  44.956   7.910
 1550AUSL   AUS 1537  27.384  44.886   7.765
 1551AUL    AUL 1538  27.497  45.170   7.991
 1552THSLK    S 1539  27.253  45.054   7.945
 1553ETHY    C1 1540  27.032  45.382   8.185
 1554ETHY    C1 1541  26.691  45.762   8.409
 1555THSLK    S 1542  27.835  45.197   8.033
 1556ETHY    C1 1543  27.893  45.569   8.301
 1557ETHY    C1 1544  27.877  46.048   8.586
 1558AUSL   AUS 1545  27.649  45.049   7.664
 1559AUSL   AUS 1546  27.952  45.049   7.337
 1560AUL    AUL 1547  27.801  45.357   7.501
 1561THSLK    S 1548  27.680  45.309   7.770
 1562ETHY    C1 1549  27.670  45.750   7.907
 1563ETHY    C1 1550  27.561  46.279   8.048
 1564THSLK    S 1551  27.997  45.298   7.235
 1565ETHY    C1 1552  28.135  45.716   7.097
 1566ETHY    C1 1553  28.207  46.251   6.955
 1567AUSL   AUS 1554  27.952  45.049   7.664
 1568AUSL   AUS 1555  28.066  44.792   8.011
 1569AUL    AUL 1556  28.104  45.170   7.991
 1570THSLK    S 1557  28.240  44.920   8.185
 1571ETHY    C1 1558  28.476  45.139   8.517
 1572ETHY    C1 1559  28.702  45.481   8.895
 1573THSLK    S 1560  27.997  45.297   7.767
 1574ETHY    C1 1561  28.136  45.718   7.898
 1575ETHY    C1 1562  28.209  46.252   8.041
 1576AUSL   AUS 1563  27.801  43.796   7.910
 1577AUSL   AUS 1564  28.217  43.865   7.765
 1578AUL    AUL 1565  28.104  43.581   7.991
 1579THSLK    S 1566  27.767  43.532   7.997
 1580ETHY    C1 1567  27.712  43.123   8.205
 1581ETHY    C1 1568  27.727  42.655   8.507
 1582THSLK    S 1569  28.349  43.674   7.910
 1583ETHY    C1 1570  28.572  43.312   8.089
 1584ETHY    C1 1571  28.913  42.942   8.330
 1585AUSL   AUS 1572  27.649  43.702   7.664
 1586AUSL   AUS 1573  27.536  43.959   8.011
 1587AUL    AUL 1574  27.497  43.581   7.991
 1588THSLK    S 1575  27.604  43.449   7.746
 1589ETHY    C1 1576  27.467  43.018   7.843
 1590ETHY    C1 1577  27.394  42.486   7.996
 1591THSLK    S 1578  27.361  43.785   8.146
 1592ETHY    C1 1579  27.130  43.487   8.413
 1593ETHY    C1 1580  26.903  43.167   8.810
 1594AUSL   AUS 1581  27.952  43.702   7.664
 1595AUSL   AUS 1582  27.649  43.702   7.337
 1596AUL    AUL 1583  27.801  43.394   7.501
 1597THSLK    S 1584  27.604  43.449   7.255
 1598ETHY    C1 1585  27.465  43.020   7.152
 1599ETHY    C1 1586  27.393  42.488   7.001
 1600THSLK    S 1587  27.921  43.437   7.750
 1601ETHY    C1 1588  27.934  42.986   7.852
 1602ETHY    C1 1589  28.042  42.460   8.003
 1603AUSL   AUS 1590  27.801  44.956   7.092
 1604AUSL   AUS 1591  28.217  44.886   7.236
 1605AUL    AUL 1592  28.104  45.170   7.010
 1606THSLK    S 1593  27.835  45.197   6.969
 1607ETHY    C1 1594  27.890  45.566   6.696
 1608ETHY    C1 1595  27.874  46.045   6.412
 1609THSLK    S 1596  28.404  45.021   7.077
 1610ETHY    C1 1597  28.717  45.288   6.868
 1611ETHY    C1 1598  29.032  45.685   6.634
 1612AUSL   AUS 1599  27.649  45.049   7.337
 1613AUSL   AUS 1600  27.536  44.792   6.990
 1614AUL    AUL 1601  27.497  45.170   7.010
 1615THSLK    S 1602  27.680  45.310   7.232
 1616ETHY    C1 1603  27.668  45.748   7.088
 1617ETHY    C1 1604  27.560  46.277   6.948
 1618THSLK    S 1605  27.409  44.935   6.799
 1619ETHY    C1 1606  27.251  45.175   6.437
 1620ETHY    C1 1607  27.003  45.510   6.067
 1621AUSL   AUS 1608  27.801  43.796   7.092
 1622AUSL   AUS 1609  27.384  43.865   7.236
 1623AUL    AUL 1610  27.497  43.581   7.010
 1624THSLK    S 1611  27.198  43.708   7.113
 1625ETHY    C1 1612  26.882  43.406   6.964
 1626ETHY    C1 1613  26.568  43.019   6.714
 1627THSLK    S 1614  27.767  43.532   7.004
 1628ETHY    C1 1615  27.708  43.127   6.791
 1629ETHY    C1 1616  27.725  42.657   6.490
 1630AUSL   AUS 1617  27.952  43.702   7.337
 1631AUSL   AUS 1618  28.066  43.959   6.990
 1632AUL    AUL 1619  28.104  43.581   7.010
 1633THSLK    S 1620  27.922  43.436   7.252
 1634ETHY    C1 1621  27.932  42.988   7.143
 1635ETHY    C1 1622  28.040  42.461   6.993
 1636THSLK    S 1623  28.194  43.770   6.839
 1637ETHY    C1 1624  28.346  43.452   6.541
 1638ETHY    C1 1625  28.595  43.138   6.152
 1639AUC    AUC 1626  14.888   9.398   7.501
 1640AUC    AUC 1627  15.133   9.398   7.349
 1641AUC    AUC 1628  15.133   9.398   7.652
 1642AUC    AUC 1629  14.642   9.398   7.349
 1643AUC    AUC 1630  14.642   9.398   7.652
 1644AUC    AUC 1631  14.736   9.643   7.501
 1645AUC    AUC 1632  15.039   9.643   7.501
 1646AUC    AUC 1633  14.736   9.152   7.501
 1647AUC    AUC 1634  15.039   9.152   7.501
 1648AUC    AUC 1635  14.888   9.246   7.746
 1649AUC    AUC 1636  14.888   9.549   7.746
 1650AUC    AUC 1637  14.888   9.246   7.255
 1651AUC    AUC 1638  14.888   9.549   7.255
 1652AUC    AUC 1639  15.379   9.398   7.197
 1653AUC    AUC 1640  15.379   9.398   7.501
 1654AUC    AUC 1641  15.379   9.398   7.804
 1655AUC    AUC 1642  14.397   9.398   7.197
 1656AUC    AUC 1643  14.397   9.398   7.501
 1657AUC    AUC 1644  14.397   9.398   7.804
 1658AUC    AUC 1645  14.584   9.888   7.501
 1659AUC    AUC 1646  14.888   9.888   7.501
 1660AUC    AUC 1647  15.191   9.888   7.501
 1661AUC    AUC 1648  14.584   8.907   7.501
 1662AUC    AUC 1649  14.888   8.907   7.501
 1663AUC    AUC 1650  15.191   8.907   7.501
 1664AUC    AUC 1651  14.888   9.094   7.991
 1665AUC    AUC 1652  14.888   9.398   7.991
 1666AUC    AUC 1653  14.888   9.701   7.991
 1667AUC    AUC 1654  14.888   9.094   7.010
 1668AUC    AUC 1655  14.888   9.398   7.010
 1669AUC    AUC 1656  14.888   9.701   7.010
 1670AUC    AUC 1657  15.133   9.246   7.898
 1671AUC    AUC 1658  15.133   9.549   7.898
 1672AUC    AUC 1659  15.133   9.246   7.103
 1673AUC    AUC 1660  15.133   9.549   7.103
 1674AUC    AUC 1661  14.642   9.246   7.898
 1675AUC    AUC 1662  14.642   9.549   7.898
 1676AUC    AUC 1663  14.642   9.246   7.103
 1677AUC    AUC 1664  14.642   9.549   7.103
 1678AUC    AUC 1665  15.285   9.643   7.349
 1679AUC    AUC 1666  15.285   9.643   7.652
 1680AUC    AUC 1667  14.491   9.643   7.349
 1681AUC    AUC 1668  14.491   9.643   7.652
 1682AUC    AUC 1669  15.285   9.152   7.349
 1683AUC    AUC 1670  15.285   9.152   7.652
 1684AUC    AUC 1671  14.491   9.152   7.349
 1685AUC    AUC 1672  14.491   9.152   7.652
 1686AUC    AUC 1673  14.736   9.795   7.746
 1687AUC    AUC 1674  15.039   9.795   7.746
 1688AUC    AUC 1675  14.736   9.001   7.746
 1689AUC    AUC 1676  15.039   9.001   7.746
 1690AUC    AUC 1677  14.736   9.795   7.255
 1691AUC    AUC 1678  15.039   9.795   7.255
 1692AUC    AUC 1679  14.736   9.001   7.255
 1693AUC    AUC 1680  15.039   9.001   7.255
 1694AUSL   AUS 1681  15.297   9.398   8.081
 1695AUSL   AUS 1682  15.153   8.981   8.011
 1696AUL    AUL 1683  15.379   9.094   8.295
 1697THSLK    S 1684  15.280   8.793   8.163
 1698ETHY    C1 1685  15.438   8.472   8.456
 1699ETHY    C1 1686  15.686   8.159   8.845
 1700THSLK    S 1687  15.402   9.358   8.333
 1701ETHY    C1 1688  15.645   9.291   8.720
 1702ETHY    C1 1689  15.938   9.310   9.194
 1703AUSL   AUS 1690  15.051   9.246   8.174
 1704AUSL   AUS 1691  14.724   9.549   8.174
 1705AUL    AUL 1692  14.888   9.398   8.482
 1706THSLK    S 1693  15.138   9.200   8.426
 1707ETHY    C1 1694  15.251   9.059   8.852
 1708ETHY    C1 1695  15.400   8.988   9.385
 1709THSLK    S 1696  14.636   9.518   8.439
 1710ETHY    C1 1697  14.531   9.529   8.889
 1711ETHY    C1 1698  14.381   9.637   9.415
 1712AUSL   AUS 1699  15.051   9.549   8.174
 1713AUSL   AUS 1700  15.398   9.662   7.917
 1714AUL    AUL 1701  15.379   9.701   8.295
 1715THSLK    S 1702  15.139   9.595   8.426
 1716ETHY    C1 1703  15.245   9.735   8.854
 1717ETHY    C1 1704  15.395   9.807   9.386
 1718THSLK    S 1705  15.578   9.778   8.082
 1719ETHY    C1 1706  15.923   9.913   8.358
 1720ETHY    C1 1707  16.298  10.167   8.683
 1721AUSL   AUS 1708  15.297   9.398   6.921
 1722AUSL   AUS 1709  15.153   9.814   6.990
 1723AUL    AUL 1710  15.379   9.701   6.706
 1724THSLK    S 1711  15.403   9.358   6.668
 1725ETHY    C1 1712  15.640   9.291   6.278
 1726ETHY    C1 1713  15.933   9.310   5.804
 1727THSLK    S 1714  15.328   9.942   6.816
 1728ETHY    C1 1715  15.559  10.160   6.480
 1729ETHY    C1 1716  15.785  10.502   6.102
 1730AUSL   AUS 1717  15.051   9.246   6.827
 1731AUSL   AUS 1718  15.398   9.133   7.084
 1732AUL    AUL 1719  15.379   9.094   6.706
 1733THSLK    S 1720  15.544   8.946   6.932
 1734ETHY    C1 1721  15.828   8.692   6.670
 1735ETHY    C1 1722  16.220   8.472   6.340
 1736THSLK    S 1723  15.139   9.200   6.575
 1737ETHY    C1 1724  15.245   9.060   6.147
 1738ETHY    C1 1725  15.395   8.988   5.615
 1739AUSL   AUS 1726  15.051   9.549   6.827
 1740AUSL   AUS 1727  14.724   9.246   6.827
 1741AUL    AUL 1728  14.888   9.398   6.519
 1742THSLK    S 1729  14.624   9.200   6.579
 1743ETHY    C1 1730  14.490   9.062   6.158
 1744ETHY    C1 1731  14.347   8.990   5.624
 1745THSLK    S 1732  15.152   9.517   6.566
 1746ETHY    C1 1733  15.279   9.526   6.121
 1747ETHY    C1 1734  15.423   9.635   5.594
 1748AUSL   AUS 1735  14.479   9.398   8.081
 1749AUSL   AUS 1736  14.623   9.814   8.011
 1750AUL    AUL 1737  14.397   9.701   8.295
 1751THSLK    S 1738  14.373   9.358   8.333
 1752ETHY    C1 1739  14.136   9.291   8.723
 1753ETHY    C1 1740  13.842   9.310   9.197
 1754THSLK    S 1741  14.495   9.956   8.202
 1755ETHY    C1 1742  14.342  10.201   8.563
 1756ETHY    C1 1743  14.094  10.536   8.933
 1757AUSL   AUS 1744  14.724   9.246   8.174
 1758AUSL   AUS 1745  14.378   9.133   7.917
 1759AUL    AUL 1746  14.397   9.094   8.295
 1760THSLK    S 1747  14.197   8.965   8.043
 1761ETHY    C1 1748  13.856   8.739   8.259
 1762ETHY    C1 1749  13.480   8.511   8.602
 1763THSLK    S 1750  14.624   9.200   8.422
 1764ETHY    C1 1751  14.496   9.061   8.844
 1765ETHY    C1 1752  14.352   8.989   9.378
 1766AUSL   AUS 1753  14.479   9.398   6.921
 1767AUSL   AUS 1754  14.623   8.981   6.990
 1768AUL    AUL 1755  14.397   9.094   6.706
 1769THSLK    S 1756  14.374   9.358   6.668
 1770ETHY    C1 1757  14.130   9.291   6.281
 1771ETHY    C1 1758  13.838   9.310   5.807
 1772THSLK    S 1759  14.449   8.807   6.855
 1773ETHY    C1 1760  14.212   8.514   6.587
 1774ETHY    C1 1761  13.987   8.193   6.190
 1775AUSL   AUS 1762  14.724   9.549   6.827
 1776AUSL   AUS 1763  14.378   9.662   7.084
 1777AUL    AUL 1764  14.397   9.701   6.706
 1778THSLK    S 1765  14.232   9.797   6.894
 1779ETHY    C1 1766  13.943   9.961   6.572
 1780ETHY    C1 1767  13.552  10.206   6.259
 1781THSLK    S 1768  14.637   9.518   6.562
 1782ETHY    C1 1769  14.524   9.528   6.114
 1783ETHY    C1 1770  14.376   9.636   5.587
 1784AUSL   AUS 1771  15.468   9.807   7.501
 1785AUSL   AUS 1772  15.398   9.662   7.084
 1786AUL    AUL 1773  15.682   9.888   7.197
 1787THSLK    S 1774  15.578   9.779   6.920
 1788ETHY    C1 1775  15.919   9.912   6.638
 1789ETHY    C1 1776  16.295  10.166   6.314
 1790THSLK    S 1777  15.741   9.878   7.501
 1791ETHY    C1 1778  16.165  10.062   7.497
 1792ETHY    C1 1779  16.629  10.371   7.498
 1793AUSL   AUS 1780  15.562   9.561   7.349
 1794AUSL   AUS 1781  15.562   9.234   7.652
 1795AUL    AUL 1782  15.869   9.398   7.501
 1796THSLK    S 1783  15.829   9.616   7.341
 1797ETHY    C1 1784  16.281   9.672   7.262
 1798ETHY    C1 1785  16.806   9.837   7.172
 1799THSLK    S 1786  15.808   9.102   7.659
 1800ETHY    C1 1787  16.225   8.917   7.728
 1801ETHY    C1 1788  16.761   8.789   7.820
 1802AUSL   AUS 1789  15.562   9.561   7.652
 1803AUSL   AUS 1790  15.304   9.908   7.765
 1804AUL    AUL 1791  15.682   9.888   7.804
 1805THSLK    S 1792  15.490  10.043   7.925
 1806ETHY    C1 1793  15.806  10.311   8.128
 1807ETHY    C1 1794  16.121  10.708   8.362
 1808THSLK    S 1795  15.829   9.616   7.661
 1809ETHY    C1 1796  16.281   9.672   7.733
 1810ETHY    C1 1797  16.807   9.837   7.824
 1811AUSL   AUS 1798  14.308   9.807   7.501
 1812AUSL   AUS 1799  14.378   9.662   7.917
 1813AUL    AUL 1800  14.094   9.888   7.804
 1814THSLK    S 1801  14.231   9.797   8.107
 1815ETHY    C1 1802  13.947   9.966   8.430
 1816ETHY    C1 1803  13.555  10.211   8.743
 1817THSLK    S 1804  14.077   9.945   7.501
 1818ETHY    C1 1805  13.723  10.243   7.497
 1819ETHY    C1 1806  13.239  10.520   7.498
 1820AUSL   AUS 1807  14.214   9.561   7.349
 1821AUSL   AUS 1808  14.471   9.908   7.236
 1822AUL    AUL 1809  14.094   9.888   7.197
 1823THSLK    S 1810  13.968   9.671   7.307
 1824ETHY    C1 1811  13.550   9.816   7.173
 1825ETHY    C1 1812  13.015   9.956   7.099
 1826THSLK    S 1813  14.340  10.077   7.056
 1827ETHY    C1 1814  14.116  10.399   6.812
 1828ETHY    C1 1815  13.776  10.781   6.589
 1829AUSL   AUS 1816  14.214   9.561   7.652
 1830AUSL   AUS 1817  14.214   9.234   7.349
 1831AUL    AUL 1818  13.906   9.398   7.501
 1832THSLK    S 1819  13.947   9.156   7.377
 1833ETHY    C1 1820  13.494   9.067   7.359
 1834ETHY    C1 1821  12.969   8.912   7.252
 1835THSLK    S 1822  13.968   9.671   7.694
 1836ETHY    C1 1823  13.551   9.822   7.825
 1837ETHY    C1 1824  13.016   9.960   7.900
 1838AUSL   AUS 1825  15.468   8.989   7.501
 1839AUSL   AUS 1826  15.398   9.133   7.917
 1840AUL    AUL 1827  15.682   8.907   7.804
 1841THSLK    S 1828  15.699   8.850   7.501
 1842ETHY    C1 1829  16.053   8.552   7.497
 1843ETHY    C1 1830  16.537   8.275   7.498
 1844THSLK    S 1831  15.544   8.946   8.070
 1845ETHY    C1 1832  15.832   8.691   8.326
 1846ETHY    C1 1833  16.224   8.471   8.657
 1847AUSL   AUS 1834  15.562   9.234   7.349
 1848AUSL   AUS 1835  15.304   8.887   7.236
 1849AUL    AUL 1836  15.682   8.907   7.197
 1850THSLK    S 1837  15.808   9.102   7.343
 1851ETHY    C1 1838  16.224   8.917   7.266
 1852ETHY    C1 1839  16.760   8.789   7.176
 1853THSLK    S 1840  15.436   8.696   7.092
 1854ETHY    C1 1841  15.657   8.335   6.907
 1855ETHY    C1 1842  15.998   7.965   6.667
 1856AUSL   AUS 1843  14.308   8.989   7.501
 1857AUSL   AUS 1844  14.378   9.133   7.084
 1858AUL    AUL 1845  14.094   8.907   7.197
 1859THSLK    S 1846  14.198   8.965   6.958
 1860ETHY    C1 1847  13.852   8.745   6.743
 1861ETHY    C1 1848  13.477   8.515   6.400
 1862THSLK    S 1849  14.035   8.917   7.501
 1863ETHY    C1 1850  13.611   8.734   7.497
 1864ETHY    C1 1851  13.147   8.424   7.498
 1865AUSL   AUS 1852  14.214   9.234   7.652
 1866AUSL   AUS 1853  14.471   8.887   7.765
 1867AUL    AUL 1854  14.094   8.907   7.804
 1868THSLK    S 1855  14.285   8.730   7.889
 1869ETHY    C1 1856  13.972   8.424   8.033
 1870ETHY    C1 1857  13.657   8.037   8.284
 1871THSLK    S 1858  13.947   9.157   7.625
 1872ETHY    C1 1859  13.495   9.061   7.639
 1873ETHY    C1 1860  12.970   8.908   7.746
 1874AUSL   AUS 1861  14.888   9.978   7.910
 1875AUSL   AUS 1862  14.471   9.908   7.765
 1876AUL    AUL 1863  14.584  10.192   7.991
 1877THSLK    S 1864  14.340  10.076   7.945
 1878ETHY    C1 1865  14.119  10.404   8.185
 1879ETHY    C1 1866  13.778  10.784   8.409
 1880THSLK    S 1867  14.922  10.219   8.033
 1881ETHY    C1 1868  14.980  10.591   8.301
 1882ETHY    C1 1869  14.964  11.070   8.586
 1883AUSL   AUS 1870  14.736  10.071   7.664
 1884AUSL   AUS 1871  15.039  10.071   7.337
 1885AUL    AUL 1872  14.888  10.379   7.501
 1886THSLK    S 1873  14.767  10.331   7.770
 1887ETHY    C1 1874  14.757  10.772   7.907
 1888ETHY    C1 1875  14.648  11.301   8.048
 1889THSLK    S 1876  15.084  10.320   7.235
 1890ETHY    C1 1877  15.222  10.738   7.097
 1891ETHY    C1 1878  15.294  11.273   6.955
 1892AUSL   AUS 1879  15.039  10.071   7.664
 1893AUSL   AUS 1880  15.153   9.814   8.011
 1894AUL    AUL 1881  15.191  10.192   7.991
 1895THSLK    S 1882  15.327   9.942   8.185
 1896ETHY    C1 1883  15.563  10.161   8.517
 1897ETHY    C1 1884  15.789  10.503   8.895
 1898THSLK    S 1885  15.084  10.319   7.767
 1899ETHY    C1 1886  15.223  10.740   7.898
 1900ETHY    C1 1887  15.296  11.274   8.041
 1901AUSL   AUS 1888  14.888   8.818   7.910
 1902AUSL   AUS 1889  15.304   8.887   7.765
 1903AUL    AUL 1890  15.191   8.603   7.991
 1904THSLK    S 1891  14.854   8.554   7.997
 1905ETHY    C1 1892  14.799   8.145   8.205
 1906ETHY    C1 1893  14.814   7.677   8.507
 1907THSLK    S 1894  15.436   8.696   7.910
 1908ETHY    C1 1895  15.659   8.334   8.089
 1909ETHY    C1 1896  16.000   7.964   8.330
 1910AUSL   AUS 1897  14.736   8.724   7.664
 1911AUSL   AUS 1898  14.623   8.981   8.011
 1912AUL    AUL 1899  14.584   8.603   7.991
 1913THSLK    S 1900  14.691   8.471   7.746
 1914ETHY    C1 1901  14.554   8.040   7.843
 1915ETHY    C1 1902  14.481   7.508   7.996
 1916THSLK    S 1903  14.448   8.807   8.146
 1917ETHY    C1 1904  14.217   8.509   8.413
 1918ETHY    C1 1905  13.990   8.189   8.810
 1919AUSL   AUS 1906  15.039   8.724   7.664
 1920AUSL   AUS 1907  14.736   8.724   7.337
 1921AUL    AUL 1908  14.888   8.416   7.501
 1922THSLK    S 1909  14.691   8.471   7.255
 1923ETHY    C1 1910  14.552   8.042   7.152
 1924ETHY    C1 1911  14.480   7.510   7.001
 1925THSLK    S 1912  15.008   8.459   7.750
 1926ETHY    C1 1913  15.021   8.008   7.852
 1927ETHY    C1 1914  15.129   7.482   8.003
 1928AUSL   AUS 1915  14.888   9.978   7.092
 1929AUSL   AUS 1916  15.304   9.908   7.236
 1930AUL    AUL 1917  15.191  10.192   7.010
 1931THSLK    S 1918  14.922  10.219   6.969
 1932ETHY    C1 1919  14.977  10.588   6.696
 1933ETHY    C1 1920  14.961  11.067   6.412
 1934THSLK    S 1921  15.491  10.043   7.077
 1935ETHY    C1 1922  15.804  10.310   6.868
 1936ETHY    C1 1923  16.119  10.707   6.634
 1937AUSL   AUS 1924  14.736  10.071   7.337
 1938AUSL   AUS 1925  14.623   9.814   6.990
 1939AUL    AUL 1926  14.584  10.192   7.010
 1940THSLK    S 1927  14.767  10.332   7.232
 1941ETHY    C1 1928  14.755  10.770   7.088
 1942ETHY    C1 1929  14.647  11.299   6.948
 1943THSLK    S 1930  14.496   9.957   6.799
 1944ETHY    C1 1931  14.338  10.197   6.437
 1945ETHY    C1 1932  14.090  10.532   6.067
 1946AUSL   AUS 1933  14.888   8.818   7.092
 1947AUSL   AUS 1934  14.471   8.887   7.236
 1948AUL    AUL 1935  14.584   8.603   7.010
 1949THSLK    S 1936  14.285   8.730   7.113
 1950ETHY    C1 1937  13.969   8.428   6.964
 1951ETHY    C1 1938  13.655   8.041   6.714
 1952THSLK    S 1939  14.854   8.554   7.004
 1953ETHY    C1 1940  14.795   8.149   6.791
 1954ETHY    C1 1941  14.812   7.679   6.490
 1955AUSL   AUS 1942  15.039   8.724   7.337
 1956AUSL   AUS 1943  15.153   8.981   6.990
 1957AUL    AUL 1944  15.191   8.603   7.010
 1958THSLK    S 1945  15.009   8.458   7.252
 1959ETHY    C1 1946  15.019   8.010   7.143
 1960ETHY    C1 1947  15.127   7.483   6.993
 1961THSLK    S 1948  15.281   8.792   6.839
 1962ETHY    C1 1949  15.433   8.474   6.541
 1963ETHY    C1 1950  15.682   8.160   6.152
 1964AUC    AUC 1951  21.488  38.900   7.501
 1965AUC    AUC 1952  21.733  38.900   7.349
 1966AUC    AUC 1953  21.733  38.900   7.652
 1967AUC    AUC 1954  21.242  38.900   7.349
 1968AUC    AUC 1955  21.242  38.900   7.652
 1969AUC    AUC 1956  21.336  39.145   7.501
 1970AUC    AUC 1957  21.639  39.145   7.501
 1971AUC    AUC 1958  21.336  38.654   7.501
 1972AUC    AUC 1959  21.639  38.654   7.501
 1973AUC    AUC 1960  21.488  38.748   7.746
 1974AUC    AUC 1961  21.488  39.051   7.746
 1975AUC    AUC 1962  21.488  38.748   7.255
 1976AUC    AUC 1963  21.488  39.051   7.255
 1977AUC    AUC 1964  21.979  38.900   7.197
 1978AUC    AUC 1965  21.979  38.900   7.501
 1979AUC    AUC 1966  21.979  38.900   7.804
 1980AUC    AUC 1967  20.997  38.900   7.197
 1981AUC    AUC 1968  20.997  38.900   7.501
 1982AUC    AUC 1969  20.997  38.900   7.804
 1983AUC    AUC 1970  21.184  39.390   7.501
 1984AUC    AUC 1971  21.488  39.390   7.501
 1985AUC    AUC 1972  21.791  39.390   7.501
 1986AUC    AUC 1973  21.184  38.409   7.501
 1987AUC    AUC 1974  21.488  38.409   7.501
 1988AUC    AUC 1975  21.791  38.409   7.501
 1989AUC    AUC 1976  21.488  38.596   7.991
 1990AUC    AUC 1977  21.488  38.900   7.991
 1991AUC    AUC 1978  21.488  39.203   7.991
 1992AUC    AUC 1979  21.488  38.596   7.010
 1993AUC    AUC 1980  21.488  38.900   7.010
 1994AUC    AUC 1981  21.488  39.203   7.010
 1995AUC    AUC 1982  21.733  38.748   7.898
 1996AUC    AUC 1983  21.733  39.051   7.898
 1997AUC    AUC 1984  21.733  38.748   7.103
 1998AUC    AUC 1985  21.733  39.051   7.103
 1999AUC    AUC 1986  21.242  38.748   7.898
 2000AUC    AUC 1987  21.242  39.051   7.898
 2001AUC    AUC 1988  21.242  38.748   7.103
 2002AUC    AUC 1989  21.242  39.051   7.103
 2003AUC    AUC 1990  21.885  39.145   7.349
 2004AUC    AUC 1991  21.885  39.145   7.652
 2005AUC    AUC 1992  21.091  39.145   7.349
 2006AUC    AUC 1993  21.091  39.145   7.652
 2007AUC    AUC 1994  21.885  38.654   7.349
 2008AUC    AUC 1995  21.885  38.654   7.652
 2009AUC    AUC 1996  21.091  38.654   7.349
 2010AUC    AUC 1997  21.091  38.654   7.652
 2011AUC    AUC 1998  21.336  39.297   7.746
 2012AUC    AUC 1999  21.639  39.297   7.746
 2013AUC    AUC 2000  21.336  38.503   7.746
 2014AUC    AUC 2001  21.639  38.503   7.746
 2015AUC    AUC 2002  21.336  39.297   7.255
 2016AUC    AUC 2003  21.639  39.297   7.255
 2017AUC    AUC 2004  21.336  38.503   7.255
 2018AUC    AUC 2005  21.639  38.503   7.255
 2019AUSL   AUS 2006  21.897  38.900   8.081
 2020AUSL   AUS 2007  21.753  38.483   8.011
 2021AUL    AUL 2008  21.979  38.596   8.295
 2022THSLK    S 2009  21.880  38.295   8.163
 2023ETHY    C1 2010  22.038  37.974   8.456
 2024ETHY    C1 2011  22.286  37.661   8.845
 2025THSLK    S 2012  22.002  38.860   8.333
 2026ETHY    C1 2013  22.245  38.793   8.720
 2027ETHY    C1 2014  22.538  38.812   9.194
 2028AUSL   AUS 2015  21.651  38.748   8.174
 2029AUSL   AUS 2016  21.324  39.051   8.174
 2030AUL    AUL 2017  21.488  38.900   8.482
 2031THSLK    S 2018  21.738  38.702   8.426
 2032ETHY    C1 2019  21.851  38.561   8.852
 2033ETHY    C1 2020  22.000  38.490   9.385
 2034THSLK    S 2021  21.236  39.020   8.439
 2035ETHY    C1 2022  21.131  39.031   8.889
 2036ETHY    C1 2023  20.981  39.139   9.415
 2037AUSL   AUS 2024  21.651  39.051   8.174
 2038AUSL   AUS 2025  21.998  39.164   7.917
 2039AUL    AUL 2026  21.979  39.203   8.295
 2040THSLK    S 2027  21.739  39.097   8.426
 2041ETHY    C1 2028  21.845  39.237   8.854
 2042ETHY    C1 2029  21.995  39.309   9.386
 2043THSLK    S 2030  22.178  39.280   8.082
 2044ETHY    C1 2031  22.523  39.415   8.358
 2045ETHY    C1 2032  22.898  39.669   8.683
 2046AUSL   AUS 2033  21.897  38.900   6.921
 2047AUSL   AUS 2034  21.753  39.316   6.990
 2048AUL    AUL 2035  21.979  39.203   6.706
 2049THSLK    S 2036  22.003  38.860   6.668
 2050ETHY    C1 2037  22.240  38.793   6.278
 2051ETHY    C1 2038  22.533  38.812   5.804
 2052THSLK    S 2039  21.928  39.444   6.816
 2053ETHY    C1 2040  22.159  39.662   6.480
 2054ETHY    C1 2041  22.385  40.004   6.102
 2055AUSL   AUS 2042  21.651  38.748   6.827
 2056AUSL   AUS 2043  21.998  38.635   7.084
 2057AUL    AUL 2044  21.979  38.596   6.706
 2058THSLK    S 2045  22.144  38.448   6.932
 2059ETHY    C1 2046  22.428  38.194   6.670
 2060ETHY    C1 2047  22.820  37.974   6.340
 2061THSLK    S 2048  21.739  38.702   6.575
 2062ETHY    C1 2049  21.845  38.562   6.147
 2063ETHY    C1 2050  21.995  38.490   5.615
 2064AUSL   AUS 2051  21.651  39.051   6.827
 2065AUSL   AUS 2052  21.324  38.748   6.827
 2066AUL    AUL 2053  21.488  38.900   6.519
 2067THSLK    S 2054  21.224  38.702   6.579
 2068ETHY    C1 2055  21.090  38.564   6.158
 2069ETHY    C1 2056  20.947  38.492   5.624
 2070THSLK    S 2057  21.752  39.019   6.566
 2071ETHY    C1 2058  21.879  39.028   6.121
 2072ETHY    C1 2059  22.023  39.137   5.594
 2073AUSL   AUS 2060  21.079  38.900   8.081
 2074AUSL   AUS 2061  21.223  39.316   8.011
 2075AUL    AUL 2062  20.997  39.203   8.295
 2076THSLK    S 2063  20.973  38.860   8.333
 2077ETHY    C1 2064  20.736  38.793   8.723
 2078ETHY    C1 2065  20.442  38.812   9.197
 2079THSLK    S 2066  21.095  39.458   8.202
 2080ETHY    C1 2067  20.942  39.703   8.563
 2081ETHY    C1 2068  20.694  40.038   8.933
 2082AUSL   AUS 2069  21.324  38.748   8.174
 2083AUSL   AUS 2070  20.978  38.635   7.917
 2084AUL    AUL 2071  20.997  38.596   8.295
 2085THSLK    S 2072  20.797  38.467   8.043
 2086ETHY    C1 2073  20.456  38.241   8.259
 2087ETHY    C1 2074  20.080  38.013   8.602
 2088THSLK    S 2075  21.224  38.702   8.422
 2089ETHY    C1 2076  21.096  38.563   8.844
 2090ETHY    C1 2077  20.952  38.491   9.378
 2091AUSL   AUS 2078  21.079  38.900   6.921
 2092AUSL   AUS 2079  21.223  38.483   6.990
 2093AUL    AUL 2080  20.997  38.596   6.706
 2094THSLK    S 2081  20.974  38.860   6.668
 2095ETHY    C1 2082  20.730  38.793   6.281
 2096ETHY    C1 2083  20.438  38.812   5.807
 2097THSLK    S 2084  21.049  38.309   6.855
 2098ETHY    C1 2085  20.812  38.016   6.587
 2099ETHY    C1 2086  20.587  37.695   6.190
 2100AUSL   AUS 2087  21.324  39.051   6.827
 2101AUSL   AUS 2088  20.978  39.164   7.084
 2102AUL    AUL 2089  20.997  39.203   6.706
 2103THSLK    S 2090  20.832  39.299   6.894
 2104ETHY    C1 2091  20.543  39.463   6.572
 2105ETHY    C1 2092  20.152  39.708   6.259
 2106THSLK    S 2093  21.237  39.020   6.562
 2107ETHY    C1 2094  21.124  39.030   6.114
 2108ETHY    C1 2095  20.976  39.138   5.587
 2109AUSL   AUS 2096  22.068  39.309   7.501
 2110AUSL   AUS 2097  21.998  39.164   7.084
 2111AUL    AUL 2098  22.282  39.390   7.197
 2112THSLK    S 2099  22.178  39.281   6.920
 2113ETHY    C1 2100  22.519  39.414   6.638
 2114ETHY    C1 2101  22.895  39.668   6.314
 2115THSLK    S 2102  22.341  39.380   7.501
 2116ETHY    C1 2103  22.765  39.564   7.497
 2117ETHY    C1 2104  23.229  39.873   7.498
 2118AUSL   AUS 2105  22.162  39.063   7.349
 2119AUSL   AUS 2106  22.162  38.736   7.652
 2120AUL    AUL 2107  22.469  38.900   7.501
 2121THSLK    S 2108  22.429  39.118   7.341
 2122ETHY    C1 2109  22.881  39.174   7.262
 2123ETHY    C1 2110  23.406  39.339   7.172
 2124THSLK    S 2111  22.408  38.604   7.659
 2125ETHY    C1 2112  22.825  38.419   7.728
 2126ETHY    C1 2113  23.361  38.291   7.820
 2127AUSL   AUS 2114  22.162  39.063   7.652
 2128AUSL   AUS 2115  21.904  39.410   7.765
 2129AUL    AUL 2116  22.282  39.390   7.804
 2130THSLK    S 2117  22.090  39.545   7.925
 2131ETHY    C1 2118  22.406  39.813   8.128
 2132ETHY    C1 2119  22.721  40.210   8.362
 2133THSLK    S 2120  22.429  39.118   7.661
 2134ETHY    C1 2121  22.881  39.174   7.733
 2135ETHY    C1 2122  23.407  39.339   7.824
 2136AUSL   AUS 2123  20.908  39.309   7.501
 2137AUSL   AUS 2124  20.978  39.164   7.917
 2138AUL    AUL 2125  20.694  39.390   7.804
 2139THSLK    S 2126  20.831  39.299   8.107
 2140ETHY    C1 2127  20.547  39.468   8.430
 2141ETHY    C1 2128  20.155  39.713   8.743
 2142THSLK    S 2129  20.677  39.447   7.501
 2143ETHY    C1 2130  20.323  39.745   7.497
 2144ETHY    C1 2131  19.839  40.022   7.498
 2145AUSL   AUS 2132  20.814  39.063   7.349
 2146AUSL   AUS 2133  21.071  39.410   7.236
 2147AUL    AUL 2134  20.694  39.390   7.197
 2148THSLK    S 2135  20.568  39.173   7.307
 2149ETHY    C1 2136  20.150  39.318   7.173
 2150ETHY    C1 2137  19.615  39.458   7.099
 2151THSLK    S 2138  20.940  39.579   7.056
 2152ETHY    C1 2139  20.716  39.901   6.812
 2153ETHY    C1 2140  20.376  40.283   6.589
 2154AUSL   AUS 2141  20.814  39.063   7.652
 2155AUSL   AUS 2142  20.814  38.736   7.349
 2156AUL    AUL 2143  20.506  38.900   7.501
 2157THSLK    S 2144  20.547  38.658   7.377
 2158ETHY    C1 2145  20.094  38.569   7.359
 2159ETHY    C1 2146  19.569  38.414   7.252
 2160THSLK    S 2147  20.568  39.173   7.694
 2161ETHY    C1 2148  20.151  39.324   7.825
 2162ETHY    C1 2149  19.616  39.462   7.900
 2163AUSL   AUS 2150  22.068  38.491   7.501
 2164AUSL   AUS 2151  21.998  38.635   7.917
 2165AUL    AUL 2152  22.282  38.409   7.804
 2166THSLK    S 2153  22.299  38.352   7.501
 2167ETHY    C1 2154  22.653  38.054   7.497
 2168ETHY    C1 2155  23.137  37.777   7.498
 2169THSLK    S 2156  22.144  38.448   8.070
 2170ETHY    C1 2157  22.432  38.193   8.326
 2171ETHY    C1 2158  22.824  37.973   8.657
 2172AUSL   AUS 2159  22.162  38.736   7.349
 2173AUSL   AUS 2160  21.904  38.389   7.236
 2174AUL    AUL 2161  22.282  38.409   7.197
 2175THSLK    S 2162  22.408  38.604   7.343
 2176ETHY    C1 2163  22.824  38.419   7.266
 2177ETHY    C1 2164  23.360  38.291   7.176
 2178THSLK    S 2165  22.036  38.198   7.092
 2179ETHY    C1 2166  22.257  37.837   6.907
 2180ETHY    C1 2167  22.598  37.467   6.667
 2181AUSL   AUS 2168  20.908  38.491   7.501
 2182AUSL   AUS 2169  20.978  38.635   7.084
 2183AUL    AUL 2170  20.694  38.409   7.197
 2184THSLK    S 2171  20.798  38.467   6.958
 2185ETHY    C1 2172  20.452  38.247   6.743
 2186ETHY    C1 2173  20.077  38.017   6.400
 2187THSLK    S 2174  20.635  38.419   7.501
 2188ETHY    C1 2175  20.211  38.236   7.497
 2189ETHY    C1 2176  19.747  37.926   7.498
 2190AUSL   AUS 2177  20.814  38.736   7.652
 2191AUSL   AUS 2178  21.071  38.389   7.765
 2192AUL    AUL 2179  20.694  38.409   7.804
 2193THSLK    S 2180  20.885  38.232   7.889
 2194ETHY    C1 2181  20.572  37.926   8.033
 2195ETHY    C1 2182  20.257  37.539   8.284
 2196THSLK    S 2183  20.547  38.659   7.625
 2197ETHY    C1 2184  20.095  38.563   7.639
 2198ETHY    C1 2185  19.570  38.410   7.746
 2199AUSL   AUS 2186  21.488  39.480   7.910
 2200AUSL   AUS 2187  21.071  39.410   7.765
 2201AUL    AUL 2188  21.184  39.694   7.991
 2202THSLK    S 2189  20.940  39.578   7.945
 2203ETHY    C1 2190  20.719  39.906   8.185
 2204ETHY    C1 2191  20.378  40.286   8.409
 2205THSLK    S 2192  21.522  39.721   8.033
 2206ETHY    C1 2193  21.580  40.093   8.301
 2207ETHY    C1 2194  21.564  40.572   8.586
 2208AUSL   AUS 2195  21.336  39.573   7.664
 2209AUSL   AUS 2196  21.639  39.573   7.337
 2210AUL    AUL 2197  21.488  39.881   7.501
 2211THSLK    S 2198  21.367  39.833   7.770
 2212ETHY    C1 2199  21.357  40.274   7.907
 2213ETHY    C1 2200  21.248  40.803   8.048
 2214THSLK    S 2201  21.684  39.822   7.235
 2215ETHY    C1 2202  21.822  40.240   7.097
 2216ETHY    C1 2203  21.894  40.775   6.955
 2217AUSL   AUS 2204  21.639  39.573   7.664
 2218AUSL   AUS 2205  21.753  39.316   8.011
 2219AUL    AUL 2206  21.791  39.694   7.991
 2220THSLK    S 2207  21.927  39.444   8.185
 2221ETHY    C1 2208  22.163  39.663   8.517
 2222ETHY    C1 2209  22.389  40.005   8.895
 2223THSLK    S 2210  21.684  39.821   7.767
 2224ETHY    C1 2211  21.823  40.242   7.898
 2225ETHY    C1 2212  21.896  40.776   8.041
 2226AUSL   AUS 2213  21.488  38.320   7.910
 2227AUSL   AUS 2214  21.904  38.389   7.765
 2228AUL    AUL 2215  21.791  38.105   7.991
 2229THSLK    S 2216  21.454  38.056   7.997
 2230ETHY    C1 2217  21.399  37.647   8.205
 2231ETHY    C1 2218  21.414  37.179   8.507
 2232THSLK    S 2219  22.036  38.198   7.910
 2233ETHY    C1 2220  22.259  37.836   8.089
 2234ETHY    C1 2221  22.600  37.466   8.330
 2235AUSL   AUS 2222  21.336  38.226   7.664
 2236AUSL   AUS 2223  21.223  38.483   8.011
 2237AUL    AUL 2224  21.184  38.105   7.991
 2238THSLK    S 2225  21.291  37.973   7.746
 2239ETHY    C1 2226  21.154  37.542   7.843
 2240ETHY    C1 2227  21.081  37.010   7.996
 2241THSLK    S 2228  21.048  38.309   8.146
 2242ETHY    C1 2229  20.817  38.011   8.413
 2243ETHY    C1 2230  20.590  37.691   8.810
 2244AUSL   AUS 2231  21.639  38.226   7.664
 2245AUSL   AUS 2232  21.336  38.226   7.337
 2246AUL    AUL 2233  21.488  37.918   7.501
 2247THSLK    S 2234  21.291  37.973   7.255
 2248ETHY    C1 2235  21.152  37.544   7.152
 2249ETHY    C1 2236  21.080  37.012   7.001
 2250THSLK    S 2237  21.608  37.961   7.750
 2251ETHY    C1 2238  21.621  37.510   7.852
 2252ETHY    C1 2239  21.729  36.984   8.003
 2253AUSL   AUS 2240  21.488  39.480   7.092
 2254AUSL   AUS 2241  21.904  39.410   7.236
 2255AUL    AUL 2242  21.791  39.694   7.010
 2256THSLK    S 2243  21.522  39.721   6.969
 2257ETHY    C1 2244  21.577  40.090   6.696
 2258ETHY    C1 2245  21.561  40.569   6.412
 2259THSLK    S 2246  22.091  39.545   7.077
 2260ETHY    C1 2247  22.404  39.812   6.868
 2261ETHY    C1 2248  22.719  40.209   6.634
 2262AUSL   AUS 2249  21.336  39.573   7.337
 2263AUSL   AUS 2250  21.223  39.316   6.990
 2264AUL    AUL 2251  21.184  39.694   7.010
 2265THSLK    S 2252  21.367  39.834   7.232
 2266ETHY    C1 2253  21.355  40.272   7.088
 2267ETHY    C1 2254  21.247  40.801   6.948
 2268THSLK    S 2255  21.096  39.459   6.799
 2269ETHY    C1 2256  20.938  39.699   6.437
 2270ETHY    C1 2257  20.690  40.034   6.067
 2271AUSL   AUS 2258  21.488  38.320   7.092
 2272AUSL   AUS 2259  21.071  38.389   7.236
 2273AUL    AUL 2260  21.184  38.105   7.010
 2274THSLK    S 2261  20.885  38.232   7.113
 2275ETHY    C1 2262  20.569  37.930   6.964
 2276ETHY    C1 2263  20.255  37.543   6.714
 2277THSLK    S 2264  21.454  38.056   7.004
 2278ETHY    C1 2265  21.395  37.651   6.791
 2279ETHY    C1 2266  21.412  37.181   6.490
 2280AUSL   AUS 2267  21.639  38.226   7.337
 2281AUSL   AUS 2268  21.753  38.483   6.990
 2282AUL    AUL 2269  21.791  38.105   7.010
 2283THSLK    S 2270  21.609  37.960   7.252
 2284ETHY    C1 2271  21.619  37.512   7.143
 2285ETHY    C1 2272  21.727  36.985   6.993
 2286THSLK    S 2273  21.881  38.294   6.839
 2287ETHY    C1 2274  22.033  37.976   6.541
 2288ETHY    C1 2275  22.282  37.662   6.152
 2289AUC    AUC 2276   7.302   4.005   7.501
 2290AUC    AUC 2277   7.547   4.005   7.349
 2291AUC    AUC 2278   7.547   4.005   7.652
 2292AUC    AUC 2279   7.056   4.005   7.349
 2293AUC    AUC 2280   7.056   4.005   7.652
 2294AUC    AUC 2281   7.150   4.250   7.501
 2295AUC    AUC 2282   7.453   4.250   7.501
 2296AUC    AUC 2283   7.150   3.759   7.501
 2297AUC    AUC 2284   7.453   3.759   7.501
 2298AUC    AUC 2285   7.302   3.853   7.746
 2299AUC    AUC 2286   7.302   4.156   7.746
 2300AUC    AUC 2287   7.302   3.853   7.255
 2301AUC    AUC 2288   7.302   4.156   7.255
 2302AUC    AUC 2289   7.793   4.005   7.197
 2303AUC    AUC 2290   7.793   4.005   7.501
 2304AUC    AUC 2291   7.793   4.005   7.804
 2305AUC    AUC 2292   6.811   4.005   7.197
 2306AUC    AUC 2293   6.811   4.005   7.501
 2307AUC    AUC 2294   6.811   4.005   7.804
 2308AUC    AUC 2295   6.998   4.495   7.501
 2309AUC    AUC 2296   7.302   4.495   7.501
 2310AUC    AUC 2297   7.605   4.495   7.501
 2311AUC    AUC 2298   6.998   3.514   7.501
 2312AUC    AUC 2299   7.302   3.514   7.501
 2313AUC    AUC 2300   7.605   3.514   7.501
 2314AUC    AUC 2301   7.302   3.701   7.991
 2315AUC    AUC 2302   7.302   4.005   7.991
 2316AUC    AUC 2303   7.302   4.308   7.991
 2317AUC    AUC 2304   7.302   3.701   7.010
 2318AUC    AUC 2305   7.302   4.005   7.010
 2319AUC    AUC 2306   7.302   4.308   7.010
 2320AUC    AUC 2307   7.547   3.853   7.898
 2321AUC    AUC 2308   7.547   4.156   7.898
 2322AUC    AUC 2309   7.547   3.853   7.103
 2323AUC    AUC 2310   7.547   4.156   7.103
 2324AUC    AUC 2311   7.056   3.853   7.898
 2325AUC    AUC 2312   7.056   4.156   7.898
 2326AUC    AUC 2313   7.056   3.853   7.103
 2327AUC    AUC 2314   7.056   4.156   7.103
 2328AUC    AUC 2315   7.699   4.250   7.349
 2329AUC    AUC 2316   7.699   4.250   7.652
 2330AUC    AUC 2317   6.905   4.250   7.349
 2331AUC    AUC 2318   6.905   4.250   7.652
 2332AUC    AUC 2319   7.699   3.759   7.349
 2333AUC    AUC 2320   7.699   3.759   7.652
 2334AUC    AUC 2321   6.905   3.759   7.349
 2335AUC    AUC 2322   6.905   3.759   7.652
 2336AUC    AUC 2323   7.150   4.402   7.746
 2337AUC    AUC 2324   7.453   4.402   7.746
 2338AUC    AUC 2325   7.150   3.608   7.746
 2339AUC    AUC 2326   7.453   3.608   7.746
 2340AUC    AUC 2327   7.150   4.402   7.255
 2341AUC    AUC 2328   7.453   4.402   7.255
 2342AUC    AUC 2329   7.150   3.608   7.255
 2343AUC    AUC 2330   7.453   3.608   7.255
 2344AUSL   AUS 2331   7.711   4.005   8.081
 2345AUSL   AUS 2332   7.567   3.588   8.011
 2346AUL    AUL 2333   7.793   3.701   8.295
 2347THSLK    S 2334   7.694   3.400   8.163
 2348ETHY    C1 2335   7.852   3.079   8.456
 2349ETHY    C1 2336   8.100   2.766   8.845
 2350THSLK    S 2337   7.816   3.965   8.333
 2351ETHY    C1 2338   8.059   3.898   8.720
 2352ETHY    C1 2339   8.352   3.917   9.194
 2353AUSL   AUS 2340   7.465   3.853   8.174
 2354AUSL   AUS 2341   7.138   4.156   8.174
 2355AUL    AUL 2342   7.302   4.005   8.482
 2356THSLK    S 2343   7.552   3.807   8.426
 2357ETHY    C1 2344   7.665   3.666   8.852
 2358ETHY    C1 2345   7.814   3.595   9.385
 2359THSLK    S 2346   7.050   4.125   8.439
 2360ETHY    C1 2347   6.945   4.136   8.889
 2361ETHY    C1 2348   6.795   4.244   9.415
 2362AUSL   AUS 2349   7.465   4.156   8.174
 2363AUSL   AUS 2350   7.812   4.269   7.917
 2364AUL    AUL 2351   7.793   4.308   8.295
 2365THSLK    S 2352   7.553   4.202   8.426
 2366ETHY    C1 2353   7.659   4.342   8.854
 2367ETHY    C1 2354   7.809   4.414   9.386
 2368THSLK    S 2355   7.992   4.385   8.082
 2369ETHY    C1 2356   8.337   4.520   8.358
 2370ETHY    C1 2357   8.712   4.774   8.683
 2371AUSL   AUS 2358   7.711   4.005   6.921
 2372AUSL   AUS 2359   7.567   4.421   6.990
 2373AUL    AUL 2360   7.793   4.308   6.706
 2374THSLK    S 2361   7.817   3.965   6.668
 2375ETHY    C1 2362   8.054   3.898   6.278
 2376ETHY    C1 2363   8.347   3.917   5.804
 2377THSLK    S 2364   7.742   4.549   6.816
 2378ETHY    C1 2365   7.973   4.767   6.480
 2379ETHY    C1 2366   8.199   5.109   6.102
 2380AUSL   AUS 2367   7.465   3.853   6.827
 2381AUSL   AUS 2368   7.812   3.740   7.084
 2382AUL    AUL 2369   7.793   3.701   6.706
 2383THSLK    S 2370   7.958   3.553   6.932
 2384ETHY    C1 2371   8.242   3.299   6.670
 2385ETHY    C1 2372   8.634   3.079   6.340
 2386THSLK    S 2373   7.553   3.807   6.575
 2387ETHY    C1 2374   7.659   3.667   6.147
 2388ETHY    C1 2375   7.809   3.595   5.615
 2389AUSL   AUS 2376   7.465   4.156   6.827
 2390AUSL   AUS 2377   7.138   3.853   6.827
 2391AUL    AUL 2378   7.302   4.005   6.519
 2392THSLK    S 2379   7.038   3.807   6.579
 2393ETHY    C1 2380   6.904   3.669   6.158
 2394ETHY    C1 2381   6.761   3.597   5.624
 2395THSLK    S 2382   7.566   4.124   6.566
 2396ETHY    C1 2383   7.693   4.133   6.121
 2397ETHY    C1 2384   7.837   4.242   5.594
 2398AUSL   AUS 2385   6.893   4.005   8.081
 2399AUSL   AUS 2386   7.037   4.421   8.011
 2400AUL    AUL 2387   6.811   4.308   8.295
 2401THSLK    S 2388   6.787   3.965   8.333
 2402ETHY    C1 2389   6.550   3.898   8.723
 2403ETHY    C1 2390   6.256   3.917   9.197
 2404THSLK    S 2391   6.909   4.563   8.202
 2405ETHY    C1 2392   6.756   4.808   8.563
 2406ETHY    C1 2393   6.508   5.143   8.933
 2407AUSL   AUS 2394   7.138   3.853   8.174
 2408AUSL   AUS 2395   6.792   3.740   7.917
 2409AUL    AUL 2396   6.811   3.701   8.295
 2410THSLK    S 2397   6.611   3.572   8.043
 2411ETHY    C1 2398   6.270   3.346   8.259
 2412ETHY    C1 2399   5.894   3.118   8.602
 2413THSLK    S 2400   7.038   3.807   8.422
 2414ETHY    C1 2401   6.910   3.668   8.844
 2415ETHY    C1 2402   6.766   3.596   9.378
 2416AUSL   AUS 2403   6.893   4.005   6.921
 2417AUSL   AUS 2404   7.037   3.588   6.990
 2418AUL    AUL 2405   6.811   3.701   6.706
 2419THSLK    S 2406   6.788   3.965   6.668
 2420ETHY    C1 2407   6.544   3.898   6.281
 2421ETHY    C1 2408   6.252   3.917   5.807
 2422THSLK    S 2409   6.863   3.414   6.855
 2423ETHY    C1 2410   6.626   3.121   6.587
 2424ETHY    C1 2411   6.401   2.800   6.190
 2425AUSL   AUS 2412   7.138   4.156   6.827
 2426AUSL   AUS 2413   6.792   4.269   7.084
 2427AUL    AUL 2414   6.811   4.308   6.706
 2428THSLK    S 2415   6.646   4.404   6.894
 2429ETHY    C1 2416   6.357   4.568   6.572
 2430ETHY    C1 2417   5.966   4.813   6.259
 2431THSLK    S 2418   7.051   4.125   6.562
 2432ETHY    C1 2419   6.938   4.135   6.114
 2433ETHY    C1 2420   6.790   4.243   5.587
 2434AUSL   AUS 2421   7.882   4.414   7.501
 2435AUSL   AUS 2422   7.812   4.269   7.084
 2436AUL    AUL 2423   8.096   4.495   7.197
 2437THSLK    S 2424   7.992   4.386   6.920
 2438ETHY    C1 2425   8.333   4.519   6.638
 2439ETHY    C1 2426   8.709   4.773   6.314
 2440THSLK    S 2427   8.155   4.485   7.501
 2441ETHY    C1 2428   8.579   4.669   7.497
 2442ETHY    C1 2429   9.043   4.978   7.498
 2443AUSL   AUS 2430   7.976   4.168   7.349
 2444AUSL   AUS 2431   7.976   3.841   7.652
 2445AUL    AUL 2432   8.283   4.005   7.501
 2446THSLK    S 2433   8.243   4.223   7.341
 2447ETHY    C1 2434   8.695   4.279   7.262
 2448ETHY    C1 2435   9.220   4.444   7.172
 2449THSLK    S 2436   8.222   3.709   7.659
 2450ETHY    C1 2437   8.639   3.524   7.728
 2451ETHY    C1 2438   9.175   3.396   7.820
 2452AUSL   AUS 2439   7.976   4.168   7.652
 2453AUSL   AUS 2440   7.718   4.515   7.765
 2454AUL    AUL 2441   8.096   4.495   7.804
 2455THSLK    S 2442   7.904   4.650   7.925
 2456ETHY    C1 2443   8.220   4.918   8.128
 2457ETHY    C1 2444   8.535   5.315   8.362
 2458THSLK    S 2445   8.243   4.223   7.661
 2459ETHY    C1 2446   8.695   4.279   7.733
 2460ETHY    C1 2447   9.221   4.444   7.824
 2461AUSL   AUS 2448   6.722   4.414   7.501
 2462AUSL   AUS 2449   6.792   4.269   7.917
 2463AUL    AUL 2450   6.508   4.495   7.804
 2464THSLK    S 2451   6.645   4.404   8.107
 2465ETHY    C1 2452   6.361   4.573   8.430
 2466ETHY    C1 2453   5.969   4.818   8.743
 2467THSLK    S 2454   6.491   4.552   7.501
 2468ETHY    C1 2455   6.137   4.850   7.497
 2469ETHY    C1 2456   5.653   5.127   7.498
 2470AUSL   AUS 2457   6.628   4.168   7.349
 2471AUSL   AUS 2458   6.885   4.515   7.236
 2472AUL    AUL 2459   6.508   4.495   7.197
 2473THSLK    S 2460   6.382   4.278   7.307
 2474ETHY    C1 2461   5.964   4.423   7.173
 2475ETHY    C1 2462   5.429   4.563   7.099
 2476THSLK    S 2463   6.754   4.684   7.056
 2477ETHY    C1 2464   6.530   5.006   6.812
 2478ETHY    C1 2465   6.190   5.388   6.589
 2479AUSL   AUS 2466   6.628   4.168   7.652
 2480AUSL   AUS 2467   6.628   3.841   7.349
 2481AUL    AUL 2468   6.320   4.005   7.501
 2482THSLK    S 2469   6.361   3.763   7.377
 2483ETHY    C1 2470   5.908   3.674   7.359
 2484ETHY    C1 2471   5.383   3.519   7.252
 2485THSLK    S 2472   6.382   4.278   7.694
 2486ETHY    C1 2473   5.965   4.429   7.825
 2487ETHY    C1 2474   5.430   4.567   7.900
 2488AUSL   AUS 2475   7.882   3.596   7.501
 2489AUSL   AUS 2476   7.812   3.740   7.917
 2490AUL    AUL 2477   8.096   3.514   7.804
 2491THSLK    S 2478   8.113   3.457   7.501
 2492ETHY    C1 2479   8.467   3.159   7.497
 2493ETHY    C1 2480   8.951   2.882   7.498
 2494THSLK    S 2481   7.958   3.553   8.070
 2495ETHY    C1 2482   8.246   3.298   8.326
 2496ETHY    C1 2483   8.638   3.078   8.657
 2497AUSL   AUS 2484   7.976   3.841   7.349
 2498AUSL   AUS 2485   7.718   3.494   7.236
 2499AUL    AUL 2486   8.096   3.514   7.197
 2500THSLK    S 2487   8.222   3.709   7.343
 2501ETHY    C1 2488   8.638   3.524   7.266
 2502ETHY    C1 2489   9.174   3.396   7.176
 2503THSLK    S 2490   7.850   3.303   7.092
 2504ETHY    C1 2491   8.071   2.942   6.907
 2505ETHY    C1 2492   8.412   2.572   6.667
 2506AUSL   AUS 2493   6.722   3.596   7.501
 2507AUSL   AUS 2494   6.792   3.740   7.084
 2508AUL    AUL 2495   6.508   3.514   7.197
 2509THSLK    S 2496   6.612   3.572   6.958
 2510ETHY    C1 2497   6.266   3.352   6.743
 2511ETHY    C1 2498   5.891   3.122   6.400
 2512THSLK    S 2499   6.449   3.524   7.501
 2513ETHY    C1 2500   6.025   3.341   7.497
 2514ETHY    C1 2501   5.561   3.031   7.498
 2515AUSL   AUS 2502   6.628   3.841   7.652
 2516AUSL   AUS 2503   6.885   3.494   7.765
 2517AUL    AUL 2504   6.508   3.514   7.804
 2518THSLK    S 2505   6.699   3.337   7.889
 2519ETHY    C1 2506   6.386   3.031   8.033
 2520ETHY    C1 2507   6.071   2.644   8.284
 2521THSLK    S 2508   6.361   3.764   7.625
 2522ETHY    C1 2509   5.909   3.668   7.639
 2523ETHY    C1 2510   5.384   3.515   7.746
 2524AUSL   AUS 2511   7.302   4.585   7.910
 2525AUSL   AUS 2512   6.885   4.515   7.765
 2526AUL    AUL 2513   6.998   4.799   7.991
 2527THSLK    S 2514   6.754   4.683   7.945
 2528ETHY    C1 2515   6.533   5.011   8.185
 2529ETHY    C1 2516   6.192   5.391   8.409
 2530THSLK    S 2517   7.336   4.826   8.033
 2531ETHY    C1 2518   7.394   5.198   8.301
 2532ETHY    C1 2519   7.378   5.677   8.586
 2533AUSL   AUS 2520   7.150   4.678   7.664
 2534AUSL   AUS 2521   7.453   4.678   7.337
 2535AUL    AUL 2522   7.302   4.986   7.501
 2536THSLK    S 2523   7.181   4.938   7.770
 2537ETHY    C1 2524   7.171   5.379   7.907
 2538ETHY    C1 2525   7.062   5.908   8.048
 2539THSLK    S 2526   7.498   4.927   7.235
 2540ETHY    C1 2527   7.636   5.345   7.097
 2541ETHY    C1 2528   7.708   5.880   6.955
 2542AUSL   AUS 2529   7.453   4.678   7.664
 2543AUSL   AUS 2530   7.567   4.421   8.011
 2544AUL    AUL 2531   7.605   4.799   7.991
 2545THSLK    S 2532   7.741   4.549   8.185
 2546ETHY    C1 2533   7.977   4.768   8.517
 2547ETHY    C1 2534   8.203   5.110   8.895
 2548THSLK    S 2535   7.498   4.926   7.767
 2549ETHY    C1 2536   7.637   5.347   7.898
 2550ETHY    C1 2537   7.710   5.881   8.041
 2551AUSL   AUS 2538   7.302   3.425   7.910
 2552AUSL   AUS 2539   7.718   3.494   7.765
 2553AUL    AUL 2540   7.605   3.210   7.991
 2554THSLK    S 2541   7.268   3.161   7.997
 2555ETHY    C1 2542   7.213   2.752   8.205
 2556ETHY    C1 2543   7.228   2.284   8.507
 2557THSLK    S 2544   7.850   3.303   7.910
 2558ETHY    C1 2545   8.073   2.941   8.089
 2559ETHY    C1 2546   8.414   2.571   8.330
 2560AUSL   AUS 2547   7.150   3.331   7.664
 2561AUSL   AUS 2548   7.037   3.588   8.011
 2562AUL    AUL 2549   6.998   3.210   7.991
 2563THSLK    S 2550   7.105   3.078   7.746
 2564ETHY    C1 2551   6.968   2.647   7.843
 2565ETHY    C1 2552   6.895   2.115   7.996
 2566THSLK    S 2553   6.862   3.414   8.146
 2567ETHY    C1 2554   6.631   3.116   8.413
 2568ETHY    C1 2555   6.404   2.796   8.810
 2569AUSL   AUS 2556   7.453   3.331   7.664
 2570AUSL   AUS 2557   7.150   3.331   7.337
 2571AUL    AUL 2558   7.302   3.023   7.501
 2572THSLK    S 2559   7.105   3.078   7.255
 2573ETHY    C1 2560   6.966   2.649   7.152
 2574ETHY    C1 2561   6.894   2.117   7.001
 2575THSLK    S 2562   7.422   3.066   7.750
 2576ETHY    C1 2563   7.435   2.615   7.852
 2577ETHY    C1 2564   7.543   2.089   8.003
 2578AUSL   AUS 2565   7.302   4.585   7.092
 2579AUSL   AUS 2566   7.718   4.515   7.236
 2580AUL    AUL 2567   7.605   4.799   7.010
 2581THSLK    S 2568   7.336   4.826   6.969
 2582ETHY    C1 2569   7.391   5.195   6.696
 2583ETHY    C1 2570   7.375   5.674   6.412
 2584THSLK    S 2571   7.905   4.650   7.077
 2585ETHY    C1 2572   8.218   4.917   6.868
 2586ETHY    C1 2573   8.533   5.314   6.634
 2587AUSL   AUS 2574   7.150   4.678   7.337
 2588AUSL   AUS 2575   7.037   4.421   6.990
 2589AUL    AUL 2576   6.998   4.799   7.010
 2590THSLK    S 2577   7.181   4.939   7.232
 2591ETHY    C1 2578   7.169   5.377   7.088
 2592ETHY    C1 2579   7.061   5.906   6.948
 2593THSLK    S 2580   6.910   4.564   6.799
 2594ETHY    C1 2581   6.752   4.804   6.437
 2595ETHY    C1 2582   6.504   5.139   6.067
 2596AUSL   AUS 2583   7.302   3.425   7.092
 2597AUSL   AUS 2584   6.885   3.494   7.236
 2598AUL    AUL 2585   6.998   3.210   7.010
 2599THSLK    S 2586   6.699   3.337   7.113
 2600ETHY    C1 2587   6.383   3.035   6.964
 2601ETHY    C1 2588   6.069   2.648   6.714
 2602THSLK    S 2589   7.268   3.161   7.004
 2603ETHY    C1 2590   7.209   2.756   6.791
 2604ETHY    C1 2591   7.226   2.286   6.490
 2605AUSL   AUS 2592   7.453   3.331   7.337
 2606AUSL   AUS 2593   7.567   3.588   6.990
 2607AUL    AUL 2594   7.605   3.210   7.010
 2608THSLK    S 2595   7.423   3.065   7.252
 2609ETHY    C1 2596   7.433   2.617   7.143
 2610ETHY    C1 2597   7.541   2.090   6.993
 2611THSLK    S 2598   7.695   3.399   6.839
 2612ETHY    C1 2599   7.847   3.081   6.541
 2613ETHY    C1 2600   8.096   2.767   6.152
 2614AUC    AUC 2601  23.033  30.523   7.501
 2615AUC    AUC 2602  23.278  30.523   7.349
 2616AUC    AUC 2603  23.278  30.523   7.652
 2617AUC    AUC 2604  22.787  30.523   7.349
 2618AUC    AUC 2605  22.787  30.523   7.652
 2619AUC    AUC 2606  22.881  30.768   7.501
 2620AUC    AUC 2607  23.184  30.768   7.501
 2621AUC    AUC 2608  22.881  30.277   7.501
 2622AUC    AUC 2609  23.184  30.277   7.501
 2623AUC    AUC 2610  23.033  30.371   7.746
 2624AUC    AUC 2611  23.033  30.674   7.746
 2625AUC    AUC 2612  23.033  30.371   7.255
 2626AUC    AUC 2613  23.033  30.674   7.255
 2627AUC    AUC 2614  23.524  30.523   7.197
 2628AUC    AUC 2615  23.524  30.523   7.501
 2629AUC    AUC 2616  23.524  30.523   7.804
 2630AUC    AUC 2617  22.542  30.523   7.197
 2631AUC    AUC 2618  22.542  30.523   7.501
 2632AUC    AUC 2619  22.542  30.523   7.804
 2633AUC    AUC 2620  22.729  31.013   7.501
 2634AUC    AUC 2621  23.033  31.013   7.501
 2635AUC    AUC 2622  23.336  31.013   7.501
 2636AUC    AUC 2623  22.729  30.032   7.501
 2637AUC    AUC 2624  23.033  30.032   7.501
 2638AUC    AUC 2625  23.336  30.032   7.501
 2639AUC    AUC 2626  23.033  30.219   7.991
 2640AUC    AUC 2627  23.033  30.523   7.991
 2641AUC    AUC 2628  23.033  30.826   7.991
 2642AUC    AUC 2629  23.033  30.219   7.010
 2643AUC    AUC 2630  23.033  30.523   7.010
 2644AUC    AUC 2631  23.033  30.826   7.010
 2645AUC    AUC 2632  23.278  30.371   7.898
 2646AUC    AUC 2633  23.278  30.674   7.898
 2647AUC    AUC 2634  23.278  30.371   7.103
 2648AUC    AUC 2635  23.278  30.674   7.103
 2649AUC    AUC 2636  22.787  30.371   7.898
 2650AUC    AUC 2637  22.787  30.674   7.898
 2651AUC    AUC 2638  22.787  30.371   7.103
 2652AUC    AUC 2639  22.787  30.674   7.103
 2653AUC    AUC 2640  23.430  30.768   7.349
 2654AUC    AUC 2641  23.430  30.768   7.652
 2655AUC    AUC 2642  22.636  30.768   7.349
 2656AUC    AUC 2643  22.636  30.768   7.652
 2657AUC    AUC 2644  23.430  30.277   7.349
 2658AUC    AUC 2645  23.430  30.277   7.652
 2659AUC    AUC 2646  22.636  30.277   7.349
 2660AUC    AUC 2647  22.636  30.277   7.652
 2661AUC    AUC 2648  22.881  30.920   7.746
 2662AUC    AUC 2649  23.184  30.920   7.746
 2663AUC    AUC 2650  22.881  30.126   7.746
 2664AUC    AUC 2651  23.184  30.126   7.746
 2665AUC    AUC 2652  22.881  30.920   7.255
 2666AUC    AUC 2653  23.184  30.920   7.255
 2667AUC    AUC 2654  22.881  30.126   7.255
 2668AUC    AUC 2655  23.184  30.126   7.255
 2669AUSL   AUS 2656  23.442  30.523   8.081
 2670AUSL   AUS 2657  23.298  30.106   8.011
 2671AUL    AUL 2658  23.524  30.219   8.295
 2672THSLK    S 2659  23.425  29.918   8.163
 2673ETHY    C1 2660  23.583  29.597   8.456
 2674ETHY    C1 2661  23.831  29.284   8.845
 2675THSLK    S 2662  23.547  30.483   8.333
 2676ETHY    C1 2663  23.790  30.416   8.720
 2677ETHY    C1 2664  24.083  30.435   9.194
 2678AUSL   AUS 2665  23.196  30.371   8.174
 2679AUSL   AUS 2666  22.869  30.674   8.174
 2680AUL    AUL 2667  23.033  30.523   8.482
 2681THSLK    S 2668  23.283  30.325   8.426
 2682ETHY    C1 2669  23.396  30.184   8.852
 2683ETHY    C1 2670  23.545  30.113   9.385
 2684THSLK    S 2671  22.781  30.643   8.439
 2685ETHY    C1 2672  22.676  30.654   8.889
 2686ETHY    C1 2673  22.526  30.762   9.415
 2687AUSL   AUS 2674  23.196  30.674   8.174
 2688AUSL   AUS 2675  23.543  30.787   7.917
 2689AUL    AUL 2676  23.524  30.826   8.295
 2690THSLK    S 2677  23.284  30.720   8.426
 2691ETHY    C1 2678  23.390  30.860   8.854
 2692ETHY    C1 2679  23.540  30.932   9.386
 2693THSLK    S 2680  23.723  30.903   8.082
 2694ETHY    C1 2681  24.068  31.038   8.358
 2695ETHY    C1 2682  24.443  31.292   8.683
 2696AUSL   AUS 2683  23.442  30.523   6.921
 2697AUSL   AUS 2684  23.298  30.939   6.990
 2698AUL    AUL 2685  23.524  30.826   6.706
 2699THSLK    S 2686  23.548  30.483   6.668
 2700ETHY    C1 2687  23.785  30.416   6.278
 2701ETHY    C1 2688  24.078  30.435   5.804
 2702THSLK    S 2689  23.473  31.067   6.816
 2703ETHY    C1 2690  23.704  31.285   6.480
 2704ETHY    C1 2691  23.930  31.627   6.102
 2705AUSL   AUS 2692  23.196  30.371   6.827
 2706AUSL   AUS 2693  23.543  30.258   7.084
 2707AUL    AUL 2694  23.524  30.219   6.706
 2708THSLK    S 2695  23.689  30.071   6.932
 2709ETHY    C1 2696  23.973  29.817   6.670
 2710ETHY    C1 2697  24.365  29.597   6.340
 2711THSLK    S 2698  23.284  30.325   6.575
 2712ETHY    C1 2699  23.390  30.185   6.147
 2713ETHY    C1 2700  23.540  30.113   5.615
 2714AUSL   AUS 2701  23.196  30.674   6.827
 2715AUSL   AUS 2702  22.869  30.371   6.827
 2716AUL    AUL 2703  23.033  30.523   6.519
 2717THSLK    S 2704  22.769  30.325   6.579
 2718ETHY    C1 2705  22.635  30.187   6.158
 2719ETHY    C1 2706  22.492  30.115   5.624
 2720THSLK    S 2707  23.297  30.642   6.566
 2721ETHY    C1 2708  23.424  30.651   6.121
 2722ETHY    C1 2709  23.568  30.760   5.594
 2723AUSL   AUS 2710  22.624  30.523   8.081
 2724AUSL   AUS 2711  22.768  30.939   8.011
 2725AUL    AUL 2712  22.542  30.826   8.295
 2726THSLK    S 2713  22.518  30.483   8.333
 2727ETHY    C1 2714  22.281  30.416   8.723
 2728ETHY    C1 2715  21.987  30.435   9.197
 2729THSLK    S 2716  22.640  31.081   8.202
 2730ETHY    C1 2717  22.487  31.326   8.563
 2731ETHY    C1 2718  22.239  31.661   8.933
 2732AUSL   AUS 2719  22.869  30.371   8.174
 2733AUSL   AUS 2720  22.523  30.258   7.917
 2734AUL    AUL 2721  22.542  30.219   8.295
 2735THSLK    S 2722  22.342  30.090   8.043
 2736ETHY    C1 2723  22.001  29.864   8.259
 2737ETHY    C1 2724  21.625  29.636   8.602
 2738THSLK    S 2725  22.769  30.325   8.422
 2739ETHY    C1 2726  22.641  30.186   8.844
 2740ETHY    C1 2727  22.497  30.114   9.378
 2741AUSL   AUS 2728  22.624  30.523   6.921
 2742AUSL   AUS 2729  22.768  30.106   6.990
 2743AUL    AUL 2730  22.542  30.219   6.706
 2744THSLK    S 2731  22.519  30.483   6.668
 2745ETHY    C1 2732  22.275  30.416   6.281
 2746ETHY    C1 2733  21.983  30.435   5.807
 2747THSLK    S 2734  22.594  29.932   6.855
 2748ETHY    C1 2735  22.357  29.639   6.587
 2749ETHY    C1 2736  22.132  29.318   6.190
 2750AUSL   AUS 2737  22.869  30.674   6.827
 2751AUSL   AUS 2738  22.523  30.787   7.084
 2752AUL    AUL 2739  22.542  30.826   6.706
 2753THSLK    S 2740  22.377  30.922   6.894
 2754ETHY    C1 2741  22.088  31.086   6.572
 2755ETHY    C1 2742  21.697  31.331   6.259
 2756THSLK    S 2743  22.782  30.643   6.562
 2757ETHY    C1 2744  22.669  30.653   6.114
 2758ETHY    C1 2745  22.521  30.761   5.587
 2759AUSL   AUS 2746  23.613  30.932   7.501
 2760AUSL   AUS 2747  23.543  30.787   7.084
 2761AUL    AUL 2748  23.827  31.013   7.197
 2762THSLK    S 2749  23.723  30.904   6.920
 2763ETHY    C1 2750  24.064  31.037   6.638
 2764ETHY    C1 2751  24.440  31.291   6.314
 2765THSLK    S 2752  23.886  31.003   7.501
 2766ETHY    C1 2753  24.310  31.187   7.497
 2767ETHY    C1 2754  24.774  31.496   7.498
 2768AUSL   AUS 2755  23.707  30.686   7.349
 2769AUSL   AUS 2756  23.707  30.359   7.652
 2770AUL    AUL 2757  24.014  30.523   7.501
 2771THSLK    S 2758  23.974  30.741   7.341
 2772ETHY    C1 2759  24.426  30.797   7.262
 2773ETHY    C1 2760  24.951  30.962   7.172
 2774THSLK    S 2761  23.953  30.227   7.659
 2775ETHY    C1 2762  24.370  30.042   7.728
 2776ETHY    C1 2763  24.906  29.914   7.820
 2777AUSL   AUS 2764  23.707  30.686   7.652
 2778AUSL   AUS 2765  23.449  31.033   7.765
 2779AUL    AUL 2766  23.827  31.013   7.804
 2780THSLK    S 2767  23.635  31.168   7.925
 2781ETHY    C1 2768  23.951  31.436   8.128
 2782ETHY    C1 2769  24.266  31.833   8.362
 2783THSLK    S 2770  23.974  30.741   7.661
 2784ETHY    C1 2771  24.426  30.797   7.733
 2785ETHY    C1 2772  24.952  30.962   7.824
 2786AUSL   AUS 2773  22.453  30.932   7.501
 2787AUSL   AUS 2774  22.523  30.787   7.917
 2788AUL    AUL 2775  22.239  31.013   7.804
 2789THSLK    S 2776  22.376  30.922   8.107
 2790ETHY    C1 2777  22.092  31.091   8.430
 2791ETHY    C1 2778  21.700  31.336   8.743
 2792THSLK    S 2779  22.222  31.070   7.501
 2793ETHY    C1 2780  21.868  31.368   7.497
 2794ETHY    C1 2781  21.384  31.645   7.498
 2795AUSL   AUS 2782  22.359  30.686   7.349
 2796AUSL   AUS 2783  22.616  31.033   7.236
 2797AUL    AUL 2784  22.239  31.013   7.197
 2798THSLK    S 2785  22.113  30.796   7.307
 2799ETHY    C1 2786  21.695  30.941   7.173
 2800ETHY    C1 2787  21.160  31.081   7.099
 2801THSLK    S 2788  22.485  31.202   7.056
 2802ETHY    C1 2789  22.261  31.524   6.812
 2803ETHY    C1 2790  21.921  31.906   6.589
 2804AUSL   AUS 2791  22.359  30.686   7.652
 2805AUSL   AUS 2792  22.359  30.359   7.349
 2806AUL    AUL 2793  22.051  30.523   7.501
 2807THSLK    S 2794  22.092  30.281   7.377
 2808ETHY    C1 2795  21.639  30.192   7.359
 2809ETHY    C1 2796  21.114  30.037   7.252
 2810THSLK    S 2797  22.113  30.796   7.694
 2811ETHY    C1 2798  21.696  30.947   7.825
 2812ETHY    C1 2799  21.161  31.085   7.900
 2813AUSL   AUS 2800  23.613  30.114   7.501
 2814AUSL   AUS 2801  23.543  30.258   7.917
 2815AUL    AUL 2802  23.827  30.032   7.804
 2816THSLK    S 2803  23.844  29.975   7.501
 2817ETHY    C1 2804  24.198  29.677   7.497
 2818ETHY    C1 2805  24.682  29.400   7.498
 2819THSLK    S 2806  23.689  30.071   8.070
 2820ETHY    C1 2807  23.977  29.816   8.326
 2821ETHY    C1 2808  24.369  29.596   8.657
 2822AUSL   AUS 2809  23.707  30.359   7.349
 2823AUSL   AUS 2810  23.449  30.012   7.236
 2824AUL    AUL 2811  23.827  30.032   7.197
 2825THSLK    S 2812  23.953  30.227   7.343
 2826ETHY    C1 2813  24.369  30.042   7.266
 2827ETHY    C1 2814  24.905  29.914   7.176
 2828THSLK    S 2815  23.581  29.821   7.092
 2829ETHY    C1 2816  23.802  29.460   6.907
 2830ETHY    C1 2817  24.143  29.090   6.667
 2831AUSL   AUS 2818  22.453  30.114   7.501
 2832AUSL   AUS 2819  22.523  30.258   7.084
 2833AUL    AUL 2820  22.239  30.032   7.197
 2834THSLK    S 2821  22.343  30.090   6.958
 2835ETHY    C1 2822  21.997  29.870   6.743
 2836ETHY    C1 2823  21.622  29.640   6.400
 2837THSLK    S 2824  22.180  30.042   7.501
 2838ETHY    C1 2825  21.756  29.859   7.497
 2839ETHY    C1 2826  21.292  29.549   7.498
 2840AUSL   AUS 2827  22.359  30.359   7.652
 2841AUSL   AUS 2828  22.616  30.012   7.765
 2842AUL    AUL 2829  22.239  30.032   7.804
 2843THSLK    S 2830  22.430  29.855   7.889
 2844ETHY    C1 2831  22.117  29.549   8.033
 2845ETHY    C1 2832  21.802  29.162   8.284
 2846THSLK    S 2833  22.092  30.282   7.625
 2847ETHY    C1 2834  21.640  30.186   7.639
 2848ETHY    C1 2835  21.115  30.033   7.746
 2849AUSL   AUS 2836  23.033  31.103   7.910
 2850AUSL   AUS 2837  22.616  31.033   7.765
 2851AUL    AUL 2838  22.729  31.317   7.991
 2852THSLK    S 2839  22.485  31.201   7.945
 2853ETHY    C1 2840  22.264  31.529   8.185
 2854ETHY    C1 2841  21.923  31.909   8.409
 2855THSLK    S 2842  23.067  31.344   8.033
 2856ETHY    C1 2843  23.125  31.716   8.301
 2857ETHY    C1 2844  23.109  32.195   8.586
 2858AUSL   AUS 2845  22.881  31.196   7.664
 2859AUSL   AUS 2846  23.184  31.196   7.337
 2860AUL    AUL 2847  23.033  31.504   7.501
 2861THSLK    S 2848  22.912  31.456   7.770
 2862ETHY    C1 2849  22.902  31.897   7.907
 2863ETHY    C1 2850  22.793  32.426   8.048
 2864THSLK    S 2851  23.229  31.445   7.235
 2865ETHY    C1 2852  23.367  31.863   7.097
 2866ETHY    C1 2853  23.439  32.398   6.955
 2867AUSL   AUS 2854  23.184  31.196   7.664
 2868AUSL   AUS 2855  23.298  30.939   8.011
 2869AUL    AUL 2856  23.336  31.317   7.991
 2870THSLK    S 2857  23.472  31.067   8.185
 2871ETHY    C1 2858  23.708  31.286   8.517
 2872ETHY    C1 2859  23.934  31.628   8.895
 2873THSLK    S 2860  23.229  31.444   7.767
 2874ETHY    C1 2861  23.368  31.865   7.898
 2875ETHY    C1 2862  23.441  32.399   8.041
 2876AUSL   AUS 2863  23.033  29.943   7.910
 2877AUSL   AUS 2864  23.449  30.012   7.765
 2878AUL    AUL 2865  23.336  29.728   7.991
 2879THSLK    S 2866  22.999  29.679   7.997
 2880ETHY    C1 2867  22.944  29.270   8.205
 2881ETHY    C1 2868  22.959  28.802   8.507
 2882THSLK    S 2869  23.581  29.821   7.910
 2883ETHY    C1 2870  23.804  29.459   8.089
 2884ETHY    C1 2871  24.145  29.089   8.330
 2885AUSL   AUS 2872  22.881  29.849   7.664
 2886AUSL   AUS 2873  22.768  30.106   8.011
 2887AUL    AUL 2874  22.729  29.728   7.991
 2888THSLK    S 2875  22.836  29.596   7.746
 2889ETHY    C1 2876  22.699  29.165   7.843
 2890ETHY    C1 2877  22.626  28.633   7.996
 2891THSLK    S 2878  22.593  29.932   8.146
 2892ETHY    C1 2879  22.362  29.634   8.413
 2893ETHY    C1 2880  22.135  29.314   8.810
 2894AUSL   AUS 2881  23.184  29.849   7.664
 2895AUSL   AUS 2882  22.881  29.849   7.337
 2896AUL    AUL 2883  23.033  29.541   7.501
 2897THSLK    S 2884  22.836  29.596   7.255
 2898ETHY    C1 2885  22.697  29.167   7.152
 2899ETHY    C1 2886  22.625  28.635   7.001
 2900THSLK    S 2887  23.153  29.584   7.750
 2901ETHY    C1 2888  23.166  29.133   7.852
 2902ETHY    C1 2889  23.274  28.607   8.003
 2903AUSL   AUS 2890  23.033  31.103   7.092
 2904AUSL   AUS 2891  23.449  31.033   7.236
 2905AUL    AUL 2892  23.336  31.317   7.010
 2906THSLK    S 2893  23.067  31.344   6.969
 2907ETHY    C1 2894  23.122  31.713   6.696
 2908ETHY    C1 2895  23.106  32.192   6.412
 2909THSLK    S 2896  23.636  31.168   7.077
 2910ETHY    C1 2897  23.949  31.435   6.868
 2911ETHY    C1 2898  24.264  31.832   6.634
 2912AUSL   AUS 2899  22.881  31.196   7.337
 2913AUSL   AUS 2900  22.768  30.939   6.990
 2914AUL    AUL 2901  22.729  31.317   7.010
 2915THSLK    S 2902  22.912  31.457   7.232
 2916ETHY    C1 2903  22.900  31.895   7.088
 2917ETHY    C1 2904  22.792  32.424   6.948
 2918THSLK    S 2905  22.641  31.082   6.799
 2919ETHY    C1 2906  22.483  31.322   6.437
 2920ETHY    C1 2907  22.235  31.657   6.067
 2921AUSL   AUS 2908  23.033  29.943   7.092
 2922AUSL   AUS 2909  22.616  30.012   7.236
 2923AUL    AUL 2910  22.729  29.728   7.010
 2924THSLK    S 2911  22.430  29.855   7.113
 2925ETHY    C1 2912  22.114  29.553   6.964
 2926ETHY    C1 2913  21.800  29.166   6.714
 2927THSLK    S 2914  22.999  29.679   7.004
 2928ETHY    C1 2915  22.940  29.274   6.791
 2929ETHY    C1 2916  22.957  28.804   6.490
 2930AUSL   AUS 2917  23.184  29.849   7.337
 2931AUSL   AUS 2918  23.298  30.106   6.990
 2932AUL    AUL 2919  23.336  29.728   7.010
 2933THSLK    S 2920  23.154  29.583   7.252
 2934ETHY    C1 2921  23.164  29.135   7.143
 2935ETHY    C1 2922  23.272  28.608   6.993
 2936THSLK    S 2923  23.426  29.917   6.839
 2937ETHY    C1 2924  23.578  29.599   6.541
 2938ETHY    C1 2925  23.827  29.285   6.152
 2939AUC    AUC 2926  38.005   8.055   7.501
 2940AUC    AUC 2927  38.250   8.055   7.349
 2941AUC    AUC 2928  38.250   8.055   7.652
 2942AUC    AUC 2929  37.759   8.055   7.349
 2943AUC    AUC 2930  37.759   8.055   7.652
 2944AUC    AUC 2931  37.853   8.300   7.501
 2945AUC    AUC 2932  38.156   8.300   7.501
 2946AUC    AUC 2933  37.853   7.809   7.501
 2947AUC    AUC 2934  38.156   7.809   7.501
 2948AUC    AUC 2935  38.005   7.903   7.746
 2949AUC    AUC 2936  38.005   8.206   7.746
 2950AUC    AUC 2937  38.005   7.903   7.255
 2951AUC    AUC 2938  38.005   8.206   7.255
 2952AUC    AUC 2939  38.496   8.055   7.197
 2953AUC    AUC 2940  38.496   8.055   7.501
 2954AUC    AUC 2941  38.496   8.055   7.804
 2955AUC    AUC 2942  37.514   8.055   7.197
 2956AUC    AUC 2943  37.514   8.055   7.501
 2957AUC    AUC 2944  37.514   8.055   7.804
 2958AUC    AUC 2945  37.701   8.545   7.501
 2959AUC    AUC 2946  38.005   8.545   7.501
 2960AUC    AUC 2947  38.308   8.545   7.501
 2961AUC    AUC 2948  37.701   7.564   7.501
 2962AUC    AUC 2949  38.005   7.564   7.501
 2963AUC    AUC 2950  38.308   7.564   7.501
 2964AUC    AUC 2951  38.005   7.751   7.991
 2965AUC    AUC 2952  38.005   8.055   7.991
 2966AUC    AUC 2953  38.005   8.358   7.991
 2967AUC    AUC 2954  38.005   7.751   7.010
 2968AUC    AUC 2955  38.005   8.055   7.010
 2969AUC    AUC 2956  38.005   8.358   7.010
 2970AUC    AUC 2957  38.250   7.903   7.898
 2971AUC    AUC 2958  38.250   8.206   7.898
 2972AUC    AUC 2959  38.250   7.903   7.103
 2973AUC    AUC 2960  38.250   8.206   7.103
 2974AUC    AUC 2961  37.759   7.903   7.898
 2975AUC    AUC 2962  37.759   8.206   7.898
 2976AUC    AUC 2963  37.759   7.903   7.103
 2977AUC    AUC 2964  37.759   8.206   7.103
 2978AUC    AUC 2965  38.402   8.300   7.349
 2979AUC    AUC 2966  38.402   8.300   7.652
 2980AUC    AUC 2967  37.608   8.300   7.349
 2981AUC    AUC 2968  37.608   8.300   7.652
 2982AUC    AUC 2969  38.402   7.809   7.349
 2983AUC    AUC 2970  38.402   7.809   7.652
 2984AUC    AUC 2971  37.608   7.809   7.349
 2985AUC    AUC 2972  37.608   7.809   7.652
 2986AUC    AUC 2973  37.853   8.452   7.746
 2987AUC    AUC 2974  38.156   8.452   7.746
 2988AUC    AUC 2975  37.853   7.658   7.746
 2989AUC    AUC 2976  38.156   7.658   7.746
 2990AUC    AUC 2977  37.853   8.452   7.255
 2991AUC    AUC 2978  38.156   8.452   7.255
 2992AUC    AUC 2979  37.853   7.658   7.255
 2993AUC    AUC 2980  38.156   7.658   7.255
 2994AUSL   AUS 2981  38.414   8.055   8.081
 2995AUSL   AUS 2982  38.270   7.638   8.011
 2996AUL    AUL 2983  38.496   7.751   8.295
 2997THSLK    S 2984  38.397   7.450   8.163
 2998ETHY    C1 2985  38.555   7.129   8.456
 2999ETHY    C1 2986  38.803   6.816   8.845
 3000THSLK    S 2987  38.519   8.015   8.333
 3001ETHY    C1 2988  38.762   7.948   8.720
 3002ETHY    C1 2989  39.055   7.967   9.194
 3003AUSL   AUS 2990  38.168   7.903   8.174
 3004AUSL   AUS 2991  37.841   8.206   8.174
 3005AUL    AUL 2992  38.005   8.055   8.482
 3006THSLK    S 2993  38.255   7.857   8.426
 3007ETHY    C1 2994  38.368   7.716   8.852
 3008ETHY    C1 2995  38.517   7.645   9.385
 3009THSLK    S 2996  37.753   8.175   8.439
 3010ETHY    C1 2997  37.648   8.186   8.889
 3011ETHY    C1 2998  37.498   8.294   9.415
 3012AUSL   AUS 2999  38.168   8.206   8.174
 3013AUSL   AUS 3000  38.515   8.319   7.917
 3014AUL    AUL 3001  38.496   8.358   8.295
 3015THSLK    S 3002  38.256   8.252   8.426
 3016ETHY    C1 3003  38.362   8.392   8.854
 3017ETHY    C1 3004  38.512   8.464   9.386
 3018THSLK    S 3005  38.695   8.435   8.082
 3019ETHY    C1 3006  39.040   8.570   8.358
 3020ETHY    C1 3007  39.415   8.824   8.683
 3021AUSL   AUS 3008  38.414   8.055   6.921
 3022AUSL   AUS 3009  38.270   8.471   6.990
 3023AUL    AUL 3010  38.496   8.358   6.706
 3024THSLK    S 3011  38.520   8.015   6.668
 3025ETHY    C1 3012  38.757   7.948   6.278
 3026ETHY    C1 3013  39.050   7.967   5.804
 3027THSLK    S 3014  38.445   8.599   6.816
 3028ETHY    C1 3015  38.676   8.817   6.480
 3029ETHY    C1 3016  38.902   9.159   6.102
 3030AUSL   AUS 3017  38.168   7.903   6.827
 3031AUSL   AUS 3018  38.515   7.790   7.084
 3032AUL    AUL 3019  38.496   7.751   6.706
 3033THSLK    S 3020  38.661   7.603   6.932
 3034ETHY    C1 3021  38.945   7.349   6.670
 3035ETHY    C1 3022  39.337   7.129   6.340
 3036THSLK    S 3023  38.256   7.857   6.575
 3037ETHY    C1 3024  38.362   7.717   6.147
 3038ETHY    C1 3025  38.512   7.645   5.615
 3039AUSL   AUS 3026  38.168   8.206   6.827
 3040AUSL   AUS 3027  37.841   7.903   6.827
 3041AUL    AUL 3028  38.005   8.055   6.519
 3042THSLK    S 3029  37.741   7.857   6.579
 3043ETHY    C1 3030  37.607   7.719   6.158
 3044ETHY    C1 3031  37.464   7.647   5.624
 3045THSLK    S 3032  38.269   8.174   6.566
 3046ETHY    C1 3033  38.396   8.183   6.121
 3047ETHY    C1 3034  38.540   8.292   5.594
 3048AUSL   AUS 3035  37.596   8.055   8.081
 3049AUSL   AUS 3036  37.740   8.471   8.011
 3050AUL    AUL 3037  37.514   8.358   8.295
 3051THSLK    S 3038  37.490   8.015   8.333
 3052ETHY    C1 3039  37.253   7.948   8.723
 3053ETHY    C1 3040  36.959   7.967   9.197
 3054THSLK    S 3041  37.612   8.613   8.202
 3055ETHY    C1 3042  37.459   8.858   8.563
 3056ETHY    C1 3043  37.211   9.193   8.933
 3057AUSL   AUS 3044  37.841   7.903   8.174
 3058AUSL   AUS 3045  37.495   7.790   7.917
 3059AUL    AUL 3046  37.514   7.751   8.295
 3060THSLK    S 3047  37.314   7.622   8.043
 3061ETHY    C1 3048  36.973   7.396   8.259
 3062ETHY    C1 3049  36.597   7.168   8.602
 3063THSLK    S 3050  37.741   7.857   8.422
 3064ETHY    C1 3051  37.613   7.718   8.844
 3065ETHY    C1 3052  37.469   7.646   9.378
 3066AUSL   AUS 3053  37.596   8.055   6.921
 3067AUSL   AUS 3054  37.740   7.638   6.990
 3068AUL    AUL 3055  37.514   7.751   6.706
 3069THSLK    S 3056  37.491   8.015   6.668
 3070ETHY    C1 3057  37.247   7.948   6.281
 3071ETHY    C1 3058  36.955   7.967   5.807
 3072THSLK    S 3059  37.566   7.464   6.855
 3073ETHY    C1 3060  37.329   7.171   6.587
 3074ETHY    C1 3061  37.104   6.850   6.190
 3075AUSL   AUS 3062  37.841   8.206   6.827
 3076AUSL   AUS 3063  37.495   8.319   7.084
 3077AUL    AUL 3064  37.514   8.358   6.706
 3078THSLK    S 3065  37.349   8.454   6.894
 3079ETHY    C1 3066  37.060   8.618   6.572
 3080ETHY    C1 3067  36.669   8.863   6.259
 3081THSLK    S 3068  37.754   8.175   6.562
 3082ETHY    C1 3069  37.641   8.185   6.114
 3083ETHY    C1 3070  37.493   8.293   5.587
 3084AUSL   AUS 3071  38.585   8.464   7.501
 3085AUSL   AUS 3072  38.515   8.319   7.084
 3086AUL    AUL 3073  38.799   8.545   7.197
 3087THSLK    S 3074  38.695   8.436   6.920
 3088ETHY    C1 3075  39.036   8.569   6.638
 3089ETHY    C1 3076  39.412   8.823   6.314
 3090THSLK    S 3077  38.858   8.535   7.501
 3091ETHY    C1 3078  39.282   8.719   7.497
 3092ETHY    C1 3079  39.746   9.028   7.498
 3093AUSL   AUS 3080  38.679   8.218   7.349
 3094AUSL   AUS 3081  38.679   7.891   7.652
 3095AUL    AUL 3082  38.986   8.055   7.501
 3096THSLK    S 3083  38.946   8.273   7.341
 3097ETHY    C1 3084  39.398   8.329   7.262
 3098ETHY    C1 3085  39.923   8.494   7.172
 3099THSLK    S 3086  38.925   7.759   7.659
 3100ETHY    C1 3087  39.342   7.574   7.728
 3101ETHY    C1 3088  39.878   7.446   7.820
 3102AUSL   AUS 3089  38.679   8.218   7.652
 3103AUSL   AUS 3090  38.421   8.565   7.765
 3104AUL    AUL 3091  38.799   8.545   7.804
 3105THSLK    S 3092  38.607   8.700   7.925
 3106ETHY    C1 3093  38.923   8.968   8.128
 3107ETHY    C1 3094  39.238   9.365   8.362
 3108THSLK    S 3095  38.946   8.273   7.661
 3109ETHY    C1 3096  39.398   8.329   7.733
 3110ETHY    C1 3097  39.924   8.494   7.824
 3111AUSL   AUS 3098  37.425   8.464   7.501
 3112AUSL   AUS 3099  37.495   8.319   7.917
 3113AUL    AUL 3100  37.211   8.545   7.804
 3114THSLK    S 3101  37.348   8.454   8.107
 3115ETHY    C1 3102  37.064   8.623   8.430
 3116ETHY    C1 3103  36.672   8.868   8.743
 3117THSLK    S 3104  37.194   8.602   7.501
 3118ETHY    C1 3105  36.840   8.900   7.497
 3119ETHY    C1 3106  36.356   9.177   7.498
 3120AUSL   AUS 3107  37.331   8.218   7.349
 3121AUSL   AUS 3108  37.588   8.565   7.236
 3122AUL    AUL 3109  37.211   8.545   7.197
 3123THSLK    S 3110  37.085   8.328   7.307
 3124ETHY    C1 3111  36.667   8.473   7.173
 3125ETHY    C1 3112  36.132   8.613   7.099
 3126THSLK    S 3113  37.457   8.734   7.056
 3127ETHY    C1 3114  37.233   9.056   6.812
 3128ETHY    C1 3115  36.893   9.438   6.589
 3129AUSL   AUS 3116  37.331   8.218   7.652
 3130AUSL   AUS 3117  37.331   7.891   7.349
 3131AUL    AUL 3118  37.023   8.055   7.501
 3132THSLK    S 3119  37.064   7.813   7.377
 3133ETHY    C1 3120  36.611   7.724   7.359
 3134ETHY    C1 3121  36.086   7.569   7.252
 3135THSLK    S 3122  37.085   8.328   7.694
 3136ETHY    C1 3123  36.668   8.479   7.825
 3137ETHY    C1 3124  36.133   8.617   7.900
 3138AUSL   AUS 3125  38.585   7.646   7.501
 3139AUSL   AUS 3126  38.515   7.790   7.917
 3140AUL    AUL 3127  38.799   7.564   7.804
 3141THSLK    S 3128  38.816   7.507   7.501
 3142ETHY    C1 3129  39.170   7.209   7.497
 3143ETHY    C1 3130  39.654   6.932   7.498
 3144THSLK    S 3131  38.661   7.603   8.070
 3145ETHY    C1 3132  38.949   7.348   8.326
 3146ETHY    C1 3133  39.341   7.128   8.657
 3147AUSL   AUS 3134  38.679   7.891   7.349
 3148AUSL   AUS 3135  38.421   7.544   7.236
 3149AUL    AUL 3136  38.799   7.564   7.197
 3150THSLK    S 3137  38.925   7.759   7.343
 3151ETHY    C1 3138  39.341   7.574   7.266
 3152ETHY    C1 3139  39.877   7.446   7.176
 3153THSLK    S 3140  38.553   7.353   7.092
 3154ETHY    C1 3141  38.774   6.992   6.907
 3155ETHY    C1 3142  39.115   6.622   6.667
 3156AUSL   AUS 3143  37.425   7.646   7.501
 3157AUSL   AUS 3144  37.495   7.790   7.084
 3158AUL    AUL 3145  37.211   7.564   7.197
 3159THSLK    S 3146  37.315   7.622   6.958
 3160ETHY    C1 3147  36.969   7.402   6.743
 3161ETHY    C1 3148  36.594   7.172   6.400
 3162THSLK    S 3149  37.152   7.574   7.501
 3163ETHY    C1 3150  36.728   7.391   7.497
 3164ETHY    C1 3151  36.264   7.081   7.498
 3165AUSL   AUS 3152  37.331   7.891   7.652
 3166AUSL   AUS 3153  37.588   7.544   7.765
 3167AUL    AUL 3154  37.211   7.564   7.804
 3168THSLK    S 3155  37.402   7.387   7.889
 3169ETHY    C1 3156  37.089   7.081   8.033
 3170ETHY    C1 3157  36.774   6.694   8.284
 3171THSLK    S 3158  37.064   7.814   7.625
 3172ETHY    C1 3159  36.612   7.718   7.639
 3173ETHY    C1 3160  36.087   7.565   7.746
 3174AUSL   AUS 3161  38.005   8.635   7.910
 3175AUSL   AUS 3162  37.588   8.565   7.765
 3176AUL    AUL 3163  37.701   8.849   7.991
 3177THSLK    S 3164  37.457   8.733   7.945
 3178ETHY    C1 3165  37.236   9.061   8.185
 3179ETHY    C1 3166  36.895   9.441   8.409
 3180THSLK    S 3167  38.039   8.876   8.033
 3181ETHY    C1 3168  38.097   9.248   8.301
 3182ETHY    C1 3169  38.081   9.727   8.586
 3183AUSL   AUS 3170  37.853   8.728   7.664
 3184AUSL   AUS 3171  38.156   8.728   7.337
 3185AUL    AUL 3172  38.005   9.036   7.501
 3186THSLK    S 3173  37.884   8.988   7.770
 3187ETHY    C1 3174  37.874   9.429   7.907
 3188ETHY    C1 3175  37.765   9.958   8.048
 3189THSLK    S 3176  38.201   8.977   7.235
 3190ETHY    C1 3177  38.339   9.395   7.097
 3191ETHY    C1 3178  38.411   9.930   6.955
 3192AUSL   AUS 3179  38.156   8.728   7.664
 3193AUSL   AUS 3180  38.270   8.471   8.011
 3194AUL    AUL 3181  38.308   8.849   7.991
 3195THSLK    S 3182  38.444   8.599   8.185
 3196ETHY    C1 3183  38.680   8.818   8.517
 3197ETHY    C1 3184  38.906   9.160   8.895
 3198THSLK    S 3185  38.201   8.976   7.767
 3199ETHY    C1 3186  38.340   9.397   7.898
 3200ETHY    C1 3187  38.413   9.931   8.041
 3201AUSL   AUS 3188  38.005   7.475   7.910
 3202AUSL   AUS 3189  38.421   7.544   7.765
 3203AUL    AUL 3190  38.308   7.260   7.991
 3204THSLK    S 3191  37.971   7.211   7.997
 3205ETHY    C1 3192  37.916   6.802   8.205
 3206ETHY    C1 3193  37.931   6.334   8.507
 3207THSLK    S 3194  38.553   7.353   7.910
 3208ETHY    C1 3195  38.776   6.991   8.089
 3209ETHY    C1 3196  39.117   6.621   8.330
 3210AUSL   AUS 3197  37.853   7.381   7.664
 3211AUSL   AUS 3198  37.740   7.638   8.011
 3212AUL    AUL 3199  37.701   7.260   7.991
 3213THSLK    S 3200  37.808   7.128   7.746
 3214ETHY    C1 3201  37.671   6.697   7.843
 3215ETHY    C1 3202  37.598   6.165   7.996
 3216THSLK    S 3203  37.565   7.464   8.146
 3217ETHY    C1 3204  37.334   7.166   8.413
 3218ETHY    C1 3205  37.107   6.846   8.810
 3219AUSL   AUS 3206  38.156   7.381   7.664
 3220AUSL   AUS 3207  37.853   7.381   7.337
 3221AUL    AUL 3208  38.005   7.073   7.501
 3222THSLK    S 3209  37.808   7.128   7.255
 3223ETHY    C1 3210  37.669   6.699   7.152
 3224ETHY    C1 3211  37.597   6.167   7.001
 3225THSLK    S 3212  38.125   7.116   7.750
 3226ETHY    C1 3213  38.138   6.665   7.852
 3227ETHY    C1 3214  38.246   6.139   8.003
 3228AUSL   AUS 3215  38.005   8.635   7.092
 3229AUSL   AUS 3216  38.421   8.565   7.236
 3230AUL    AUL 3217  38.308   8.849   7.010
 3231THSLK    S 3218  38.039   8.876   6.969
 3232ETHY    C1 3219  38.094   9.245   6.696
 3233ETHY    C1 3220  38.078   9.724   6.412
 3234THSLK    S 3221  38.608   8.700   7.077
 3235ETHY    C1 3222  38.921   8.967   6.868
 3236ETHY    C1 3223  39.236   9.364   6.634
 3237AUSL   AUS 3224  37.853   8.728   7.337
 3238AUSL   AUS 3225  37.740   8.471   6.990
 3239AUL    AUL 3226  37.701   8.849   7.010
 3240THSLK    S 3227  37.884   8.989   7.232
 3241ETHY    C1 3228  37.872   9.427   7.088
 3242ETHY    C1 3229  37.764   9.956   6.948
 3243THSLK    S 3230  37.613   8.614   6.799
 3244ETHY    C1 3231  37.455   8.854   6.437
 3245ETHY    C1 3232  37.207   9.189   6.067
 3246AUSL   AUS 3233  38.005   7.475   7.092
 3247AUSL   AUS 3234  37.588   7.544   7.236
 3248AUL    AUL 3235  37.701   7.260   7.010
 3249THSLK    S 3236  37.402   7.387   7.113
 3250ETHY    C1 3237  37.086   7.085   6.964
 3251ETHY    C1 3238  36.772   6.698   6.714
 3252THSLK    S 3239  37.971   7.211   7.004
 3253ETHY    C1 3240  37.912   6.806   6.791
 3254ETHY    C1 3241  37.929   6.336   6.490
 3255AUSL   AUS 3242  38.156   7.381   7.337
 3256AUSL   AUS 3243  38.270   7.638   6.990
 3257AUL    AUL 3244  38.308   7.260   7.010
 3258THSLK    S 3245  38.126   7.115   7.252
 3259ETHY    C1 3246  38.136   6.667   7.143
 3260ETHY    C1 3247  38.244   6.140   6.993
 3261THSLK    S 3248  38.398   7.449   6.839
 3262ETHY    C1 3249  38.550   7.131   6.541
 3263ETHY    C1 3250  38.799   6.817   6.152
 3264POPC   NC3 3251  16.763  36.870   9.450
 3264POPC   PO4 3252  16.733  36.925   9.150
 3264POPC   GL1 3253  16.771  36.940   8.850
 3264POPC   GL2 3254  16.748  37.006   8.850
 3264POPC   C1A 3255  16.760  36.868   8.550
 3264POPC   D2A 3256  16.769  36.884   8.250
 3264POPC   C3A 3257  16.698  36.916   7.950
 3264POPC   C4A 3258  16.746  36.890   7.650
 3264POPC   C1B 3259  16.839  37.083   8.550
 3264POPC   C2B 3260  16.854  37.138   8.250
 3264POPC   C3B 3261  16.858  37.109   7.950
 3264POPC   C4B 3262  16.877  37.100   7.650
 3265POPC   NC3 3263  28.336  36.128   9.450
 3265POPC   PO4 3264  28.418  36.084   9.150
 3265POPC   GL1 3265  28.411  36.173   8.850
 3265POPC   GL2 3266  28.300  36.027   8.850
 3265POPC   C1A 3267  28.396  36.126   8.550
 3265POPC   D2A 3268  28.366  36.095   8.250
 3265POPC   C3A 3269  28.363  36.154   7.950
 3265POPC   C4A 3270  28.334  36.133   7.650
 3265POPC   C1B 3271  28.316  35.844   8.550
 3265POPC   C2B 3272  28.266  35.894   8.250
 3265POPC   C3B 3273  28.316  35.878   7.950
 3265POPC   C4B 3274  28.308  35.870   7.650
 3266POPC   NC3 3275   0.403  11.260   9.450
 3266POPC   PO4 3276   0.486  11.305   9.150
 3266POPC   GL1 3277   0.388  11.288   8.850
 3266POPC   GL2 3278   0.335  11.410   8.850
 3266POPC   C1A 3279   0.429  11.298   8.550
 3266POPC   D2A 3280   0.483  11.334   8.250
 3266POPC   C3A 3281   0.474  11.316   7.950
 3266POPC   C4A 3282   0.459  11.297   7.650
 3266POPC   C1B 3283   0.208  11.414   8.550
 3266POPC   C2B 3284   0.231  11.418   8.250
 3266POPC   C3B 3285   0.239  11.440   7.950
 3266POPC   C4B 3286   0.181  11.463   7.650
 3267POPC   NC3 3287   0.433  23.714   9.450
 3267POPC   PO4 3288   0.442  23.729   9.150
 3267POPC   GL1 3289   0.476  23.742   8.850
 3267POPC   GL2 3290   0.460  23.567   8.850
 3267POPC   C1A 3291   0.426  23.714   8.550
 3267POPC   D2A 3292   0.473  23.673   8.250
 3267POPC   C3A 3293   0.414  23.730   7.950
 3267POPC   C4A 3294   0.461  23.706   7.650
 3267POPC   C1B 3295   0.472  23.439   8.550
 3267POPC   C2B 3296   0.453  23.510   8.250
 3267POPC   C3B 3297   0.519  23.465   7.950
 3267POPC   C4B 3298   0.501  23.474   7.650
 3268POPC   NC3 3299  37.727  12.820   9.450
 3268POPC   PO4 3300  37.697  12.850   9.150
 3268POPC   GL1 3301  37.680  12.838   8.850
 3268POPC   GL2 3302  37.561  12.815   8.850
 3268POPC   C1A 3303  37.712  12.844   8.550
 3268POPC   D2A 3304  37.659  12.894   8.250
 3268POPC   C3A 3305  37.672  12.822   7.950
 3268POPC   C4A 3306  37.663  12.831   7.650
 3268POPC   C1B 3307  37.468  12.888   8.550
 3268POPC   C2B 3308  37.475  12.879   8.250
 3268POPC   C3B 3309  37.404  12.871   7.950
 3268POPC   C4B 3310  37.399  12.837   7.650
 3269POPC   NC3 3311  35.381   3.571   9.450
 3269POPC   PO4 3312  35.302   3.585   9.150
 3269POPC   GL1 3313  35.330   3.586   8.850
 3269POPC   GL2 3314  35.345   3.398   8.850
 3269POPC   C1A 3315  35.378   3.529   8.550
 3269POPC   D2A 3316  35.331   3.558   8.250
 3269POPC   C3A 3317  35.335   3.518   7.950
 3269POPC   C4A 3318  35.399   3.569   7.650
 3269POPC   C1B 3319  35.300   3.311   8.550
 3269POPC   C2B 3320  35.301   3.292   8.250
 3269POPC   C3B 3321  35.367   3.328   7.950
 3269POPC   C4B 3322  35.395   3.306   7.650
 3270POPC   NC3 3323   5.901  40.778   9.450
 3270POPC   PO4 3324   5.869  40.827   9.150
 3270POPC   GL1 3325   5.884  40.778   8.850
 3270POPC   GL2 3326   6.031  40.752   8.850
 3270POPC   C1A 3327   5.842  40.778   8.550
 3270POPC   D2A 3328   5.894  40.769   8.250
 3270POPC   C3A 3329   5.878  40.767   7.950
 3270POPC   C4A 3330   5.830  40.830   7.650
 3270POPC   C1B 3331   6.129  40.773   8.550
 3270POPC   C2B 3332   6.114  40.754   8.250
 3270POPC   C3B 3333   6.142  40.686   7.950
 3270POPC   C4B 3334   6.148  40.759   7.650
 3271POPC   NC3 3335  13.626  11.269   9.450
 3271POPC   PO4 3336  13.594  11.317   9.150
 3271POPC   GL1 3337  13.656  11.314   8.850
 3271POPC   GL2 3338  13.580  11.423   8.850
 3271POPC   C1A 3339  13.670  11.342   8.550
 3271POPC   D2A 3340  13.665  11.299   8.250
 3271POPC   C3A 3341  13.667  11.303   7.950
 3271POPC   C4A 3342  13.621  11.315   7.650
 3271POPC   C1B 3343  13.570  11.518   8.550
 3271POPC   C2B 3344  13.602  11.505   8.250
 3271POPC   C3B 3345  13.609  11.589   7.950
 3271POPC   C4B 3346  13.615  11.587   7.650
 3272POPC   NC3 3347  20.634  43.920   9.450
 3272POPC   PO4 3348  20.570  43.853   9.150
 3272POPC   GL1 3349  20.624  43.846   8.850
 3272POPC   GL2 3350  20.653  43.791   8.850
 3272POPC   C1A 3351  20.582  43.843   8.550
 3272POPC   D2A 3352  20.629  43.884   8.250
 3272POPC   C3A 3353  20.587  43.891   7.950
 3272POPC   C4A 3354  20.563  43.913   7.650
 3272POPC   C1B 3355  20.680  43.694   8.550
 3272POPC   C2B 3356  20.774  43.678   8.250
 3272POPC   C3B 3357  20.742  43.701   7.950
 3272POPC   C4B 3358  20.739  43.621   7.650
 3273POPC   NC3 3359  19.081  22.209   9.450
 3273POPC   PO4 3360  19.017  22.153   9.150
 3273POPC   GL1 3361  19.034  22.158   8.850
 3273POPC   GL2 3362  18.913  22.158   8.850
 3273POPC   C1A 3363  19.089  22.135   8.550
 3273POPC   D2A 3364  19.071  22.151   8.250
 3273POPC   C3A 3365  19.096  22.149   7.950
 3273POPC   C4A 3366  19.058  22.198   7.650
 3273POPC   C1B 3367  18.805  22.189   8.550
 3273POPC   C2B 3368  18.823  22.179   8.250
 3273POPC   C3B 3369  18.841  22.151   7.950
 3273POPC   C4B 3370  18.791  22.139   7.650
 3274POPC   NC3 3371   6.659  15.990   9.450
 3274POPC   PO4 3372   6.693  16.001   9.150
 3274POPC   GL1 3373   6.691  15.951   8.850
 3274POPC   GL2 3374   6.804  15.931   8.850
 3274POPC   C1A 3375   6.622  15.975   8.550
 3274POPC   D2A 3376   6.691  15.984   8.250
 3274POPC   C3A 3377   6.676  16.002   7.950
 3274POPC   C4A 3378   6.647  15.975   7.650
 3274POPC   C1B 3379   6.912  15.831   8.550
 3274POPC   C2B 3380   6.834  15.817   8.250
 3274POPC   C3B 3381   6.849  15.904   7.950
 3274POPC   C4B 3382   6.848  15.850   7.650
 3275POPC   NC3 3383  44.659   6.643   9.450
 3275POPC   PO4 3384  44.616   6.648   9.150
 3275POPC   GL1 3385  44.637   6.643   8.850
 3275POPC   GL2 3386  44.570   6.534   8.850
 3275POPC   C1A 3387  44.664   6.601   8.550
 3275POPC   D2A 3388  44.651   6.678   8.250
 3275POPC   C3A 3389  44.676   6.636   7.950
 3275POPC   C4A 3390  44.675   6.633   7.650
 3275POPC   C1B 3391  44.501   6.419   8.550
 3275POPC   C2B 3392  44.500   6.401   8.250
 3275POPC   C3B 3393  44.485   6.494   7.950
 3275POPC   C4B 3394  44.506   6.412   7.650
 3276POPC   NC3 3395  20.565   9.713   9.450
 3276POPC   PO4 3396  20.632   9.716   9.150
 3276POPC   GL1 3397  20.587   9.752   8.850
 3276POPC   GL2 3398  20.650   9.619   8.850
 3276POPC   C1A 3399  20.615   9.791   8.550
 3276POPC   D2A 3400  20.630   9.699   8.250
 3276POPC   C3A 3401  20.616   9.719   7.950
 3276POPC   C4A 3402  20.583   9.726   7.650
 3276POPC   C1B 3403  20.655   9.520   8.550
 3276POPC   C2B 3404  20.642   9.520   8.250
 3276POPC   C3B 3405  20.693   9.493   7.950
 3276POPC   C4B 3406  20.690   9.497   7.650
 3277POPC   NC3 3407  34.591  31.522   9.450
 3277POPC   PO4 3408  34.588  31.439   9.150
 3277POPC   GL1 3409  34.546  31.520   8.850
 3277POPC   GL2 3410  34.553  31.327   8.850
 3277POPC   C1A 3411  34.575  31.465   8.550
 3277POPC   D2A 3412  34.556  31.431   8.250
 3277POPC   C3A 3413  34.622  31.433   7.950
 3277POPC   C4A 3414  34.565  31.433   7.650
 3277POPC   C1B 3415  34.447  31.239   8.550
 3277POPC   C2B 3416  34.493  31.207   8.250
 3277POPC   C3B 3417  34.433  31.287   7.950
 3277POPC   C4B 3418  34.408  31.235   7.650
 3278POPC   NC3 3419  11.313  17.461   9.450
 3278POPC   PO4 3420  11.297  17.483   9.150
 3278POPC   GL1 3421  11.255  17.533   8.850
 3278POPC   GL2 3422  11.339  17.654   8.850
 3278POPC   C1A 3423  11.317  17.541   8.550
 3278POPC   D2A 3424  11.326  17.459   8.250
 3278POPC   C3A 3425  11.281  17.487   7.950
 3278POPC   C4A 3426  11.284  17.497   7.650
 3278POPC   C1B 3427  11.418  17.756   8.550
 3278POPC   C2B 3428  11.405  17.736   8.250
 3278POPC   C3B 3429  11.408  17.753   7.950
 3278POPC   C4B 3430  11.440  17.780   7.650
 3279POPC   NC3 3431  10.512   7.422   9.450
 3279POPC   PO4 3432  10.486   7.409   9.150
 3279POPC   GL1 3433  10.521   7.415   8.850
 3279POPC   GL2 3434  10.437   7.351   8.850
 3279POPC   C1A 3435  10.508   7.469   8.550
 3279POPC   D2A 3436  10.561   7.430   8.250
 3279POPC   C3A 3437  10.506   7.413   7.950
 3279POPC   C4A 3438  10.557   7.413   7.650
 3279POPC   C1B 3439  10.241   7.379   8.550
 3279POPC   C2B 3440  10.252   7.314   8.250
 3279POPC   C3B 3441  10.243   7.405   7.950
 3279POPC   C4B 3442  10.316   7.334   7.650
 3280POPC   NC3 3443  17.462   9.011   9.450
 3280POPC   PO4 3444  17.460   9.004   9.150
 3280POPC   GL1 3445  17.488   8.977   8.850
 3280POPC   GL2 3446  17.430   9.031   8.850
 3280POPC   C1A 3447  17.536   8.970   8.550
 3280POPC   D2A 3448  17.510   8.925   8.250
 3280POPC   C3A 3449  17.466   8.994   7.950
 3280POPC   C4A 3450  17.481   8.949   7.650
 3280POPC   C1B 3451  17.263   8.995   8.550
 3280POPC   C2B 3452  17.267   9.028   8.250
 3280POPC   C3B 3453  17.290   9.084   7.950
 3280POPC   C4B 3454  17.238   9.024   7.650
 3281POPC   NC3 3455  33.808   1.974   9.450
 3281POPC   PO4 3456  33.752   1.966   9.150
 3281POPC   GL1 3457  33.761   1.942   8.850
 3281POPC   GL2 3458  33.705   1.836   8.850
 3281POPC   C1A 3459  33.820   2.034   8.550
 3281POPC   D2A 3460  33.823   1.996   8.250
 3281POPC   C3A 3461  33.789   1.995   7.950
 3281POPC   C4A 3462  33.796   1.954   7.650
 3281POPC   C1B 3463  33.699   1.741   8.550
 3281POPC   C2B 3464  33.743   1.752   8.250
 3281POPC   C3B 3465  33.758   1.749   7.950
 3281POPC   C4B 3466  33.660   1.795   7.650
 3282POPC   NC3 3467  18.274   3.529   9.450
 3282POPC   PO4 3468  18.283   3.590   9.150
 3282POPC   GL1 3469  18.244   3.563   8.850
 3282POPC   GL2 3470  18.251   3.400   8.850
 3282POPC   C1A 3471  18.323   3.571   8.550
 3282POPC   D2A 3472  18.282   3.527   8.250
 3282POPC   C3A 3473  18.313   3.573   7.950
 3282POPC   C4A 3474  18.293   3.567   7.650
 3282POPC   C1B 3475  18.313   3.273   8.550
 3282POPC   C2B 3476  18.319   3.282   8.250
 3282POPC   C3B 3477  18.311   3.244   7.950
 3282POPC   C4B 3478  18.280   3.287   7.650
 3283POPC   NC3 3479  36.127  20.634   9.450
 3283POPC   PO4 3480  36.089  20.604   9.150
 3283POPC   GL1 3481  36.162  20.653   8.850
 3283POPC   GL2 3482  36.196  20.538   8.850
 3283POPC   C1A 3483  36.083  20.630   8.550
 3283POPC   D2A 3484  36.087  20.616   8.250
 3283POPC   C3A 3485  36.127  20.573   7.950
 3283POPC   C4A 3486  36.097  20.603   7.650
 3283POPC   C1B 3487  36.283  20.380   8.550
 3283POPC   C2B 3488  36.243  20.382   8.250
 3283POPC   C3B 3489  36.271  20.420   7.950
 3283POPC   C4B 3490  36.220  20.402   7.650
 3284POPC   NC3 3491   1.205  42.367   9.450
 3284POPC   PO4 3492   1.182  42.373   9.150
 3284POPC   GL1 3493   1.229  42.336   8.850
 3284POPC   GL2 3494   1.081  42.265   8.850
 3284POPC   C1A 3495   1.250  42.352   8.550
 3284POPC   D2A 3496   1.169  42.357   8.250
 3284POPC   C3A 3497   1.169  42.291   7.950
 3284POPC   C4A 3498   1.216  42.301   7.650
 3284POPC   C1B 3499   0.953  42.189   8.550
 3284POPC   C2B 3500   1.002  42.227   8.250
 3284POPC   C3B 3501   0.954  42.204   7.950
 3284POPC   C4B 3502   0.948  42.266   7.650
 3285POPC   NC3 3503  38.476  17.486   9.450
 3285POPC   PO4 3504  38.474  17.478   9.150
 3285POPC   GL1 3505  38.474  17.525   8.850
 3285POPC   GL2 3506  38.374  17.534   8.850
 3285POPC   C1A 3507  38.487  17.494   8.550
 3285POPC   D2A 3508  38.466  17.518   8.250
 3285POPC   C3A 3509  38.474  17.505   7.950
 3285POPC   C4A 3510  38.406  17.514   7.650
 3285POPC   C1B 3511  38.209  17.440   8.550
 3285POPC   C2B 3512  38.197  17.474   8.250
 3285POPC   C3B 3513  38.177  17.487   7.950
 3285POPC   C4B 3514  38.173  17.469   7.650
 3286POPC   NC3 3515   1.950  31.474   9.450
 3286POPC   PO4 3516   2.033  31.452   9.150
 3286POPC   GL1 3517   1.971  31.437   8.850
 3286POPC   GL2 3518   2.141  31.419   8.850
 3286POPC   C1A 3519   1.983  31.436   8.550
 3286POPC   D2A 3520   2.021  31.456   8.250
 3286POPC   C3A 3521   1.957  31.455   7.950
 3286POPC   C4A 3522   2.003  31.444   7.650
 3286POPC   C1B 3523   2.202  31.315   8.550
 3286POPC   C2B 3524   2.162  31.363   8.250
 3286POPC   C3B 3525   2.228  31.380   7.950
 3286POPC   C4B 3526   2.172  31.291   7.650
 3287POPC   NC3 3527   2.762  24.539   9.450
 3287POPC   PO4 3528   2.720  24.493   9.150
 3287POPC   GL1 3529   2.740  24.501   8.850
 3287POPC   GL2 3530   2.781  24.558   8.850
 3287POPC   C1A 3531   2.776  24.535   8.550
 3287POPC   D2A 3532   2.794  24.467   8.250
 3287POPC   C3A 3533   2.777  24.484   7.950
 3287POPC   C4A 3534   2.764  24.453   7.650
 3287POPC   C1B 3535   2.880  24.692   8.550
 3287POPC   C2B 3536   2.882  24.692   8.250
 3287POPC   C3B 3537   2.839  24.699   7.950
 3287POPC   C4B 3538   2.905  24.731   7.650
 3288POPC   NC3 3539  25.275  33.821   9.450
 3288POPC   PO4 3540  25.217  33.759   9.150
 3288POPC   GL1 3541  25.234  33.828   8.850
 3288POPC   GL2 3542  25.400  33.848   8.850
 3288POPC   C1A 3543  25.236  33.835   8.550
 3288POPC   D2A 3544  25.280  33.849   8.250
 3288POPC   C3A 3545  25.279  33.800   7.950
 3288POPC   C4A 3546  25.253  33.797   7.650
 3288POPC   C1B 3547  25.546  33.892   8.550
 3288POPC   C2B 3548  25.526  33.864   8.250
 3288POPC   C3B 3549  25.462  33.901   7.950
 3288POPC   C4B 3550  25.534  33.828   7.650
 3289POPC   NC3 3551  24.448  38.425   9.450
 3289POPC   PO4 3552  24.540  38.435   9.150
 3289POPC   GL1 3553  24.521  38.422   8.850
 3289POPC   GL2 3554  24.617  38.426   8.850
 3289POPC   C1A 3555  24.448  38.475   8.550
 3289POPC   D2A 3556  24.506  38.504   8.250
 3289POPC   C3A 3557  24.516  38.455   7.950
 3289POPC   C4A 3558  24.512  38.425   7.650
 3289POPC   C1B 3559  24.684  38.308   8.550
 3289POPC   C2B 3560  24.684  38.347   8.250
 3289POPC   C3B 3561  24.686  38.309   7.950
 3289POPC   C4B 3562  24.751  38.352   7.650
 3290POPC   NC3 3563  19.791  35.343   9.450
 3290POPC   PO4 3564  19.844  35.349   9.150
 3290POPC   GL1 3565  19.814  35.368   8.850
 3290POPC   GL2 3566  19.886  35.251   8.850
 3290POPC   C1A 3567  19.874  35.350   8.550
 3290POPC   D2A 3568  19.796  35.320   8.250
 3290POPC   C3A 3569  19.811  35.355   7.950
 3290POPC   C4A 3570  19.852  35.310   7.650
 3290POPC   C1B 3571  19.885  35.089   8.550
 3290POPC   C2B 3572  19.919  35.068   8.250
 3290POPC   C3B 3573  19.918  35.111   7.950
 3290POPC   C4B 3574  19.915  35.114   7.650
 3291POPC   NC3 3575   0.437  13.671   9.450
 3291POPC   PO4 3576   0.469  13.669   9.150
 3291POPC   GL1 3577   0.416  13.604   8.850
 3291POPC   GL2 3578   0.414  13.539   8.850
 3291POPC   C1A 3579   0.394  13.622   8.550
 3291POPC   D2A 3580   0.421  13.643   8.250
 3291POPC   C3A 3581   0.395  13.596   7.950
 3291POPC   C4A 3582   0.391  13.606   7.650
 3291POPC   C1B 3583   0.307  13.404   8.550
 3291POPC   C2B 3584   0.321  13.371   8.250
 3291POPC   C3B 3585   0.332  13.417   7.950
 3291POPC   C4B 3586   0.357  13.407   7.650
 3292POPC   NC3 3587  29.903  31.439   9.450
 3292POPC   PO4 3588  29.925  31.432   9.150
 3292POPC   GL1 3589  29.879  31.501   8.850
 3292POPC   GL2 3590  29.803  31.378   8.850
 3292POPC   C1A 3591  29.878  31.434   8.550
 3292POPC   D2A 3592  29.884  31.445   8.250
 3292POPC   C3A 3593  29.875  31.515   7.950
 3292POPC   C4A 3594  29.890  31.508   7.650
 3292POPC   C1B 3595  29.695  31.268   8.550
 3292POPC   C2B 3596  29.757  31.325   8.250
 3292POPC   C3B 3597  29.789  31.322   7.950
 3292POPC   C4B 3598  29.752  31.283   7.650
 3293POPC   NC3 3599  13.648  29.948   9.450
 3293POPC   PO4 3600  13.654  29.902   9.150
 3293POPC   GL1 3601  13.661  29.970   8.850
 3293POPC   GL2 3602  13.550  29.912   8.850
 3293POPC   C1A 3603  13.600  29.941   8.550
 3293POPC   D2A 3604  13.644  29.933   8.250
 3293POPC   C3A 3605  13.658  29.911   7.950
 3293POPC   C4A 3606  13.598  29.951   7.650
 3293POPC   C1B 3607  13.328  29.955   8.550
 3293POPC   C2B 3608  13.405  29.974   8.250
 3293POPC   C3B 3609  13.346  29.939   7.950
 3293POPC   C4B 3610  13.405  29.919   7.650
 3294POPC   NC3 3611  44.673  22.179   9.450
 3294POPC   PO4 3612  44.677  22.169   9.150
 3294POPC   GL1 3613  44.691  22.139   8.850
 3294POPC   GL2 3614  44.741  22.237   8.850
 3294POPC   C1A 3615  44.639  22.180   8.550
 3294POPC   D2A 3616  44.662  22.202   8.250
 3294POPC   C3A 3617  44.666  22.168   7.950
 3294POPC   C4A 3618  44.666  22.203   7.650
 3294POPC   C1B 3619  44.911  22.306   8.550
 3294POPC   C2B 3620  44.929  22.243   8.250
 3294POPC   C3B 3621  44.844  22.211   7.950
 3294POPC   C4B 3622  44.883  22.252   7.650
 3295POPC   NC3 3623  27.639  13.670   9.450
 3295POPC   PO4 3624  27.587  13.627   9.150
 3295POPC   GL1 3625  27.560  13.595   8.850
 3295POPC   GL2 3626  27.515  13.650   8.850
 3295POPC   C1A 3627  27.590  13.644   8.550
 3295POPC   D2A 3628  27.551  13.590   8.250
 3295POPC   C3A 3629  27.565  13.664   7.950
 3295POPC   C4A 3630  27.590  13.591   7.650
 3295POPC   C1B 3631  27.359  13.674   8.550
 3295POPC   C2B 3632  27.373  13.606   8.250
 3295POPC   C3B 3633  27.380  13.652   7.950
 3295POPC   C4B 3634  27.354  13.683   7.650
 3296POPC   NC3 3635   5.127   5.083   9.450
 3296POPC   PO4 3636   5.119   5.129   9.150
 3296POPC   GL1 3637   5.090   5.111   8.850
 3296POPC   GL2 3638   5.018   5.116   8.850
 3296POPC   C1A 3639   5.142   5.045   8.550
 3296POPC   D2A 3640   5.119   5.058   8.250
 3296POPC   C3A 3641   5.089   5.096   7.950
 3296POPC   C4A 3642   5.134   5.134   7.650
 3296POPC   C1B 3643   4.814   5.170   8.550
 3296POPC   C2B 3644   4.851   5.099   8.250
 3296POPC   C3B 3645   4.836   5.162   7.950
 3296POPC   C4B 3646   4.843   5.123   7.650
 3297POPC   NC3 3647  37.652   4.333   9.450
 3297POPC   PO4 3648  37.687   4.315   9.150
 3297POPC   GL1 3649  37.715   4.366   8.850
 3297POPC   GL2 3650  37.686   4.174   8.850
 3297POPC   C1A 3651  37.725   4.315   8.550
 3297POPC   D2A 3652  37.684   4.364   8.250
 3297POPC   C3A 3653  37.642   4.339   7.950
 3297POPC   C4A 3654  37.632   4.278   7.650
 3297POPC   C1B 3655  37.745   4.049   8.550
 3297POPC   C2B 3656  37.761   4.070   8.250
 3297POPC   C3B 3657  37.745   4.036   7.950
 3297POPC   C4B 3658  37.762   4.099   7.650
 3298POPC   NC3 3659  19.850  10.542   9.450
 3298POPC   PO4 3660  19.878  10.539   9.150
 3298POPC   GL1 3661  19.854  10.476   8.850
 3298POPC   GL2 3662  19.910  10.395   8.850
 3298POPC   C1A 3663  19.792  10.516   8.550
 3298POPC   D2A 3664  19.828  10.557   8.250
 3298POPC   C3A 3665  19.868  10.481   7.950
 3298POPC   C4A 3666  19.830  10.504   7.650
 3298POPC   C1B 3667  19.877  10.287   8.550
 3298POPC   C2B 3668  19.888  10.301   8.250
 3298POPC   C3B 3669  19.961  10.263   7.950
 3298POPC   C4B 3670  19.931  10.270   7.650
 3299POPC   NC3 3671  37.642  18.328   9.450
 3299POPC   PO4 3672  37.671  18.309   9.150
 3299POPC   GL1 3673  37.699  18.282   8.850
 3299POPC   GL2 3674  37.825  18.383   8.850
 3299POPC   C1A 3675  37.666  18.320   8.550
 3299POPC   D2A 3676  37.709  18.233   8.250
 3299POPC   C3A 3677  37.684  18.255   7.950
 3299POPC   C4A 3678  37.719  18.301   7.650
 3299POPC   C1B 3679  37.881  18.400   8.550
 3299POPC   C2B 3680  37.863  18.347   8.250
 3299POPC   C3B 3681  37.876  18.356   7.950
 3299POPC   C4B 3682  37.885  18.386   7.650
 3300POPC   NC3 3683  19.819  19.800   9.450
 3300POPC   PO4 3684  19.839  19.820   9.150
 3300POPC   GL1 3685  19.813  19.834   8.850
 3300POPC   GL2 3686  19.940  19.814   8.850
 3300POPC   C1A 3687  19.830  19.881   8.550
 3300POPC   D2A 3688  19.830  19.819   8.250
 3300POPC   C3A 3689  19.800  19.855   7.950
 3300POPC   C4A 3690  19.859  19.827   7.650
 3300POPC   C1B 3691  20.044  19.829   8.550
 3300POPC   C2B 3692  20.076  19.793   8.250
 3300POPC   C3B 3693  20.094  19.868   7.950
 3300POPC   C4B 3694  20.130  19.817   7.650
 3301POPC   NC3 3695  12.095  40.032   9.450
 3301POPC   PO4 3696  12.121  39.985   9.150
 3301POPC   GL1 3697  12.070  40.028   8.850
 3301POPC   GL2 3698  12.175  40.141   8.850
 3301POPC   C1A 3699  12.097  39.982   8.550
 3301POPC   D2A 3700  12.042  39.983   8.250
 3301POPC   C3A 3701  12.028  40.055   7.950
 3301POPC   C4A 3702  12.054  40.016   7.650
 3301POPC   C1B 3703  12.206  40.203   8.550
 3301POPC   C2B 3704  12.190  40.200   8.250
 3301POPC   C3B 3705  12.269  40.184   7.950
 3301POPC   C4B 3706  12.202  40.165   7.650
 3302POPC   NC3 3707  15.141   5.822   9.450
 3302POPC   PO4 3708  15.168   5.866   9.150
 3302POPC   GL1 3709  15.214   5.845   8.850
 3302POPC   GL2 3710  15.204   5.963   8.850
 3302POPC   C1A 3711  15.138   5.890   8.550
 3302POPC   D2A 3712  15.194   5.903   8.250
 3302POPC   C3A 3713  15.189   5.822   7.950
 3302POPC   C4A 3714  15.174   5.848   7.650
 3302POPC   C1B 3715  15.296   6.132   8.550
 3302POPC   C2B 3716  15.292   6.151   8.250
 3302POPC   C3B 3717  15.298   6.116   7.950
 3302POPC   C4B 3718  15.251   6.107   7.650
 3303POPC   NC3 3719  13.632  26.817   9.450
 3303POPC   PO4 3720  13.592  26.854   9.150
 3303POPC   GL1 3721  13.586  26.852   8.850
 3303POPC   GL2 3722  13.539  26.867   8.850
 3303POPC   C1A 3723  13.640  26.798   8.550
 3303POPC   D2A 3724  13.644  26.768   8.250
 3303POPC   C3A 3725  13.590  26.831   7.950
 3303POPC   C4A 3726  13.663  26.803   7.650
 3303POPC   C1B 3727  13.443  26.983   8.550
 3303POPC   C2B 3728  13.451  26.957   8.250
 3303POPC   C3B 3729  13.464  26.986   7.950
 3303POPC   C4B 3730  13.417  26.956   7.650
 3304POPC   NC3 3731  30.724  20.607   9.450
 3304POPC   PO4 3732  30.647  20.634   9.150
 3304POPC   GL1 3733  30.697  20.601   8.850
 3304POPC   GL2 3734  30.568  20.562   8.850
 3304POPC   C1A 3735  30.718  20.637   8.550
 3304POPC   D2A 3736  30.692  20.643   8.250
 3304POPC   C3A 3737  30.731  20.616   7.950
 3304POPC   C4A 3738  30.711  20.561   7.650
 3304POPC   C1B 3739  30.501  20.468   8.550
 3304POPC   C2B 3740  30.485  20.480   8.250
 3304POPC   C3B 3741  30.557  20.450   7.950
 3304POPC   C4B 3742  30.520  20.450   7.650
 3305POPC   NC3 3743   1.257  19.798   9.450
 3305POPC   PO4 3744   1.176  19.835   9.150
 3305POPC   GL1 3745   1.213  19.822   8.850
 3305POPC   GL2 3746   1.231  19.972   8.850
 3305POPC   C1A 3747   1.186  19.811   8.550
 3305POPC   D2A 3748   1.229  19.826   8.250
 3305POPC   C3A 3749   1.227  19.870   7.950
 3305POPC   C4A 3750   1.191  19.808   7.650
 3305POPC   C1B 3751   1.252  20.025   8.550
 3305POPC   C2B 3752   1.304  20.102   8.250
 3305POPC   C3B 3753   1.298  20.053   7.950
 3305POPC   C4B 3754   1.341  20.075   7.650
 3306POPC   NC3 3755  40.827   6.669   9.450
 3306POPC   PO4 3756  40.819   6.679   9.150
 3306POPC   GL1 3757  40.808   6.628   8.850
 3306POPC   GL2 3758  40.669   6.731   8.850
 3306POPC   C1A 3759  40.773   6.622   8.550
 3306POPC   D2A 3760  40.804   6.657   8.250
 3306POPC   C3A 3761  40.745   6.668   7.950
 3306POPC   C4A 3762  40.759   6.680   7.650
 3306POPC   C1B 3763  40.609   6.836   8.550
 3306POPC   C2B 3764  40.574   6.850   8.250
 3306POPC   C3B 3765  40.616   6.771   7.950
 3306POPC   C4B 3766  40.591   6.808   7.650
 3307POPC   NC3 3767   1.240   3.522   9.450
 3307POPC   PO4 3768   1.190   3.525   9.150
 3307POPC   GL1 3769   1.169   3.547   8.850
 3307POPC   GL2 3770   1.331   3.428   8.850
 3307POPC   C1A 3771   1.245   3.537   8.550
 3307POPC   D2A 3772   1.243   3.510   8.250
 3307POPC   C3A 3773   1.226   3.584   7.950
 3307POPC   C4A 3774   1.248   3.494   7.650
 3307POPC   C1B 3775   1.336   3.306   8.550
 3307POPC   C2B 3776   1.365   3.335   8.250
 3307POPC   C3B 3777   1.344   3.322   7.950
 3307POPC   C4B 3778   1.300   3.365   7.650
 3308POPC   NC3 3779   5.092  37.649   9.450
 3308POPC   PO4 3780   5.097  37.706   9.150
 3308POPC   GL1 3781   5.076  37.714   8.850
 3308POPC   GL2 3782   4.974  37.694   8.850
 3308POPC   C1A 3783   5.069  37.687   8.550
 3308POPC   D2A 3784   5.057  37.703   8.250
 3308POPC   C3A 3785   5.047  37.671   7.950
 3308POPC   C4A 3786   5.100  37.705   7.650
 3308POPC   C1B 3787   4.870  37.693   8.550
 3308POPC   C2B 3788   4.816  37.689   8.250
 3308POPC   C3B 3789   4.820  37.693   7.950
 3308POPC   C4B 3790   4.804  37.658   7.650
 3309POPC   NC3 3791  20.599  22.972   9.450
 3309POPC   PO4 3792  20.603  22.924   9.150
 3309POPC   GL1 3793  20.602  22.986   8.850
 3309POPC   GL2 3794  20.533  22.906   8.850
 3309POPC   C1A 3795  20.599  22.924   8.550
 3309POPC   D2A 3796  20.630  22.960   8.250
 3309POPC   C3A 3797  20.569  22.980   7.950
 3309POPC   C4A 3798  20.568  22.982   7.650
 3309POPC   C1B 3799  20.415  22.800   8.550
 3309POPC   C2B 3800  20.464  22.765   8.250
 3309POPC   C3B 3801  20.401  22.750   7.950
 3309POPC   C4B 3802  20.414  22.771   7.650
 3310POPC   NC3 3803  28.361  39.972   9.450
 3310POPC   PO4 3804  28.337  39.976   9.150
 3310POPC   GL1 3805  28.398  40.054   8.850
 3310POPC   GL2 3806  28.446  40.059   8.850
 3310POPC   C1A 3807  28.351  39.979   8.550
 3310POPC   D2A 3808  28.376  39.999   8.250
 3310POPC   C3A 3809  28.356  40.034   7.950
 3310POPC   C4A 3810  28.410  40.032   7.650
 3310POPC   C1B 3811  28.563  40.047   8.550
 3310POPC   C2B 3812  28.595  40.055   8.250
 3310POPC   C3B 3813  28.585  40.096   7.950
 3310POPC   C4B 3814  28.650  40.090   7.650
 3311POPC   NC3 3815  21.369   5.060   9.450
 3311POPC   PO4 3816  21.408   5.137   9.150
 3311POPC   GL1 3817  21.342   5.095   8.850
 3311POPC   GL2 3818  21.499   5.176   8.850
 3311POPC   C1A 3819  21.427   5.071   8.550
 3311POPC   D2A 3820  21.414   5.072   8.250
 3311POPC   C3A 3821  21.428   5.056   7.950
 3311POPC   C4A 3822  21.379   5.053   7.650
 3311POPC   C1B 3823  21.552   5.308   8.550
 3311POPC   C2B 3824  21.568   5.241   8.250
 3311POPC   C3B 3825  21.523   5.279   7.950
 3311POPC   C4B 3826  21.538   5.285   7.650
 3312POPC   NC3 3827  36.100  32.201   9.450
 3312POPC   PO4 3828  36.135  32.250   9.150
 3312POPC   GL1 3829  36.116  32.282   8.850
 3312POPC   GL2 3830  36.103  32.403   8.850
 3312POPC   C1A 3831  36.111  32.237   8.550
 3312POPC   D2A 3832  36.126  32.264   8.250
 3312POPC   C3A 3833  36.088  32.248   7.950
 3312POPC   C4A 3834  36.093  32.236   7.650
 3312POPC   C1B 3835  36.076  32.504   8.550
 3312POPC   C2B 3836  36.056  32.455   8.250
 3312POPC   C3B 3837  36.087  32.534   7.950
 3312POPC   C4B 3838  36.142  32.461   7.650
 3313POPC   NC3 3839  22.919   5.110   9.450
 3313POPC   PO4 3840  22.937   5.141   9.150
 3313POPC   GL1 3841  22.891   5.078   8.850
 3313POPC   GL2 3842  22.943   4.985   8.850
 3313POPC   C1A 3843  22.984   5.072   8.550
 3313POPC   D2A 3844  22.938   5.091   8.250
 3313POPC   C3A 3845  22.960   5.083   7.950
 3313POPC   C4A 3846  22.910   5.141   7.650
 3313POPC   C1B 3847  23.068   4.875   8.550
 3313POPC   C2B 3848  23.080   4.874   8.250
 3313POPC   C3B 3849  23.091   4.915   7.950
 3313POPC   C4B 3850  23.073   4.890   7.650
 3314POPC   NC3 3851  27.594  41.596   9.450
 3314POPC   PO4 3852  27.557  41.522   9.150
 3314POPC   GL1 3853  27.577  41.581   8.850
 3314POPC   GL2 3854  27.624  41.394   8.850
 3314POPC   C1A 3855  27.577  41.543   8.550
 3314POPC   D2A 3856  27.586  41.514   8.250
 3314POPC   C3A 3857  27.626  41.578   7.950
 3314POPC   C4A 3858  27.614  41.542   7.650
 3314POPC   C1B 3859  27.652  41.320   8.550
 3314POPC   C2B 3860  27.617  41.362   8.250
 3314POPC   C3B 3861  27.688  41.310   7.950
 3314POPC   C4B 3862  27.666  41.296   7.650
 3315POPC   NC3 3863   4.361  42.355   9.450
 3315POPC   PO4 3864   4.359  42.292   9.150
 3315POPC   GL1 3865   4.343  42.381   8.850
 3315POPC   GL2 3866   4.336  42.187   8.850
 3315POPC   C1A 3867   4.268  42.307   8.550
 3315POPC   D2A 3868   4.273  42.361   8.250
 3315POPC   C3A 3869   4.318  42.309   7.950
 3315POPC   C4A 3870   4.304  42.334   7.650
 3315POPC   C1B 3871   4.272  42.107   8.550
 3315POPC   C2B 3872   4.335  42.129   8.250
 3315POPC   C3B 3873   4.349  42.076   7.950
 3315POPC   C4B 3874   4.345  42.122   7.650
 3316POPC   NC3 3875  26.072  35.391   9.450
 3316POPC   PO4 3876  26.013  35.317   9.150
 3316POPC   GL1 3877  26.043  35.396   8.850
 3316POPC   GL2 3878  26.093  35.234   8.850
 3316POPC   C1A 3879  26.061  35.323   8.550
 3316POPC   D2A 3880  26.089  35.322   8.250
 3316POPC   C3A 3881  26.079  35.396   7.950
 3316POPC   C4A 3882  26.071  35.371   7.650
 3316POPC   C1B 3883  26.041  35.093   8.550
 3316POPC   C2B 3884  26.083  35.060   8.250
 3316POPC   C3B 3885  26.113  35.081   7.950
 3316POPC   C4B 3886  26.128  35.151   7.650
 3317POPC   NC3 3887  42.374  25.264   9.450
 3317POPC   PO4 3888  42.333  25.257   9.150
 3317POPC   GL1 3889  42.378  25.224   8.850
 3317POPC   GL2 3890  42.318  25.112   8.850
 3317POPC   C1A 3891  42.340  25.290   8.550
 3317POPC   D2A 3892  42.332  25.302   8.250
 3317POPC   C3A 3893  42.356  25.241   7.950
 3317POPC   C4A 3894  42.342  25.288   7.650
 3317POPC   C1B 3895  42.382  24.995   8.550
 3317POPC   C2B 3896  42.387  25.041   8.250
 3317POPC   C3B 3897  42.374  25.031   7.950
 3317POPC   C4B 3898  42.358  24.981   7.650
 3318POPC   NC3 3899  42.322   4.341   9.450
 3318POPC   PO4 3900  42.373   4.318   9.150
 3318POPC   GL1 3901  42.341   4.281   8.850
 3318POPC   GL2 3902  42.217   4.334   8.850
 3318POPC   C1A 3903  42.329   4.274   8.550
 3318POPC   D2A 3904  42.299   4.290   8.250
 3318POPC   C3A 3905  42.377   4.315   7.950
 3318POPC   C4A 3906  42.368   4.310   7.650
 3318POPC   C1B 3907  42.060   4.381   8.550
 3318POPC   C2B 3908  42.073   4.434   8.250
 3318POPC   C3B 3909  42.047   4.349   7.950
 3318POPC   C4B 3910  42.058   4.386   7.650
 3319POPC   NC3 3911   4.354  20.623   9.450
 3319POPC   PO4 3912   4.334  20.621   9.150
 3319POPC   GL1 3913   4.340  20.632   8.850
 3319POPC   GL2 3914   4.211  20.615   8.850
 3319POPC   C1A 3915   4.331  20.612   8.550
 3319POPC   D2A 3916   4.335  20.634   8.250
 3319POPC   C3A 3917   4.299  20.654   7.950
 3319POPC   C4A 3918   4.336  20.621   7.650
 3319POPC   C1B 3919   4.093  20.503   8.550
 3319POPC   C2B 3920   4.080  20.554   8.250
 3319POPC   C3B 3921   4.056  20.570   7.950
 3319POPC   C4B 3922   4.126  20.484   7.650
 3320POPC   NC3 3923  31.479  22.918   9.450
 3320POPC   PO4 3924  31.482  22.977   9.150
 3320POPC   GL1 3925  31.507  22.915   8.850
 3320POPC   GL2 3926  31.568  22.890   8.850
 3320POPC   C1A 3927  31.437  22.952   8.550
 3320POPC   D2A 3928  31.458  22.920   8.250
 3320POPC   C3A 3929  31.480  22.900   7.950
 3320POPC   C4A 3930  31.492  22.948   7.650
 3320POPC   C1B 3931  31.625  22.805   8.550
 3320POPC   C2B 3932  31.630  22.763   8.250
 3320POPC   C3B 3933  31.703  22.731   7.950
 3320POPC   C4B 3934  31.688  22.776   7.650
 3321POPC   NC3 3935   1.183   1.993   9.450
 3321POPC   PO4 3936   1.167   2.021   9.150
 3321POPC   GL1 3937   1.226   1.998   8.850
 3321POPC   GL2 3938   1.347   2.056   8.850
 3321POPC   C1A 3939   1.260   1.975   8.550
 3321POPC   D2A 3940   1.200   1.973   8.250
 3321POPC   C3A 3941   1.235   1.949   7.950
 3321POPC   C4A 3942   1.212   1.964   7.650
 3321POPC   C1B 3943   1.411   2.092   8.550
 3321POPC   C2B 3944   1.435   2.068   8.250
 3321POPC   C3B 3945   1.437   2.158   7.950
 3321POPC   C4B 3946   1.424   2.128   7.650
 3322POPC   NC3 3947  41.606  32.276   9.450
 3322POPC   PO4 3948  41.549  32.271   9.150
 3322POPC   GL1 3949  41.513  32.238   8.850
 3322POPC   GL2 3950  41.594  32.186   8.850
 3322POPC   C1A 3951  41.601  32.273   8.550
 3322POPC   D2A 3952  41.519  32.256   8.250
 3322POPC   C3A 3953  41.570  32.295   7.950
 3322POPC   C4A 3954  41.592  32.213   7.650
 3322POPC   C1B 3955  41.720  31.987   8.550
 3322POPC   C2B 3956  41.716  32.039   8.250
 3322POPC   C3B 3957  41.731  32.048   7.950
 3322POPC   C4B 3958  41.645  32.066   7.650
 3323POPC   NC3 3959  20.637  21.434   9.450
 3323POPC   PO4 3960  20.622  21.427   9.150
 3323POPC   GL1 3961  20.587  21.369   8.850
 3323POPC   GL2 3962  20.567  21.290   8.850
 3323POPC   C1A 3963  20.575  21.370   8.550
 3323POPC   D2A 3964  20.649  21.364   8.250
 3323POPC   C3A 3965  20.611  21.372   7.950
 3323POPC   C4A 3966  20.591  21.386   7.650
 3323POPC   C1B 3967  20.479  21.173   8.550
 3323POPC   C2B 3968  20.405  21.224   8.250
 3323POPC   C3B 3969  20.468  21.250   7.950
 3323POPC   C4B 3970  20.393  21.226   7.650
 3324POPC   NC3 3971  39.190  33.049   9.450
 3324POPC   PO4 3972  39.211  32.980   9.150
 3324POPC   GL1 3973  39.219  33.020   8.850
 3324POPC   GL2 3974  39.383  33.039   8.850
 3324POPC   C1A 3975  39.276  32.985   8.550
 3324POPC   D2A 3976  39.260  33.067   8.250
 3324POPC   C3A 3977  39.259  32.990   7.950
 3324POPC   C4A 3978  39.207  33.073   7.650
 3324POPC   C1B 3979  39.496  33.041   8.550
 3324POPC   C2B 3980  39.454  32.993   8.250
 3324POPC   C3B 3981  39.493  33.065   7.950
 3324POPC   C4B 3982  39.460  33.009   7.650
 3325POPC   NC3 3983  37.649  43.087   9.450
 3325POPC   PO4 3984  37.699  43.078   9.150
 3325POPC   GL1 3985  37.650  43.160   8.850
 3325POPC   GL2 3986  37.611  42.951   8.850
 3325POPC   C1A 3987  37.662  43.102   8.550
 3325POPC   D2A 3988  37.634  43.078   8.250
 3325POPC   C3A 3989  37.684  43.063   7.950
 3325POPC   C4A 3990  37.633  43.149   7.650
 3325POPC   C1B 3991  37.562  42.896   8.550
 3325POPC   C2B 3992  37.604  42.920   8.250
 3325POPC   C3B 3993  37.590  42.885   7.950
 3325POPC   C4B 3994  37.614  42.855   7.650
 3326POPC   NC3 3995  35.399  22.207   9.450
 3326POPC   PO4 3996  35.378  22.144   9.150
 3326POPC   GL1 3997  35.396  22.137   8.850
 3326POPC   GL2 3998  35.434  22.202   8.850
 3326POPC   C1A 3999  35.401  22.131   8.550
 3326POPC   D2A 4000  35.335  22.211   8.250
 3326POPC   C3A 4001  35.388  22.138   7.950
 3326POPC   C4A 4002  35.361  22.185   7.650
 3326POPC   C1B 4003  35.622  22.233   8.550
 3326POPC   C2B 4004  35.554  22.223   8.250
 3326POPC   C3B 4005  35.623  22.199   7.950
 3326POPC   C4B 4006  35.599  22.139   7.650
 3327POPC   NC3 4007  33.800  17.523   9.450
 3327POPC   PO4 4008  33.806  17.507   9.150
 3327POPC   GL1 4009  33.771  17.519   8.850
 3327POPC   GL2 4010  33.701  17.369   8.850
 3327POPC   C1A 4011  33.795  17.519   8.550
 3327POPC   D2A 4012  33.789  17.540   8.250
 3327POPC   C3A 4013  33.832  17.554   7.950
 3327POPC   C4A 4014  33.816  17.497   7.650
 3327POPC   C1B 4015  33.598  17.284   8.550
 3327POPC   C2B 4016  33.676  17.296   8.250
 3327POPC   C3B 4017  33.670  17.318   7.950
 3327POPC   C4B 4018  33.658  17.284   7.650
 3328POPC   NC3 4019  31.510  27.562   9.450
 3328POPC   PO4 4020  31.495  27.551   9.150
 3328POPC   GL1 4021  31.498  27.553   8.850
 3328POPC   GL2 4022  31.627  27.591   8.850
 3328POPC   C1A 4023  31.504  27.549   8.550
 3328POPC   D2A 4024  31.447  27.595   8.250
 3328POPC   C3A 4025  31.504  27.623   7.950
 3328POPC   C4A 4026  31.444  27.640   7.650
 3328POPC   C1B 4027  31.759  27.628   8.550
 3328POPC   C2B 4028  31.764  27.631   8.250
 3328POPC   C3B 4029  31.726  27.634   7.950
 3328POPC   C4B 4030  31.766  27.624   7.650
 3329POPC   NC3 4031  11.342  21.373   9.450
 3329POPC   PO4 4032  11.296  21.403   9.150
 3329POPC   GL1 4033  11.262  21.402   8.850
 3329POPC   GL2 4034  11.242  21.480   8.850
 3329POPC   C1A 4035  11.281  21.387   8.550
 3329POPC   D2A 4036  11.306  21.378   8.250
 3329POPC   C3A 4037  11.301  21.399   7.950
 3329POPC   C4A 4038  11.317  21.371   7.650
 3329POPC   C1B 4039  11.144  21.523   8.550
 3329POPC   C2B 4040  11.118  21.520   8.250
 3329POPC   C3B 4041  11.125  21.541   7.950
 3329POPC   C4B 4042  11.145  21.611   7.650
 3330POPC   NC3 4043  43.068  39.235   9.450
 3330POPC   PO4 4044  43.149  39.273   9.150
 3330POPC   GL1 4045  43.068  39.210   8.850
 3330POPC   GL2 4046  42.957  39.270   8.850
 3330POPC   C1A 4047  43.083  39.255   8.550
 3330POPC   D2A 4048  43.076  39.201   8.250
 3330POPC   C3A 4049  43.085  39.200   7.950
 3330POPC   C4A 4050  43.091  39.241   7.650
 3330POPC   C1B 4051  42.870  39.269   8.550
 3330POPC   C2B 4052  42.848  39.253   8.250
 3330POPC   C3B 4053  42.907  39.221   7.950
 3330POPC   C4B 4054  42.862  39.226   7.650
 3331POPC   NC3 4055  16.722  41.578   9.450
 3331POPC   PO4 4056  16.691  41.591   9.150
 3331POPC   GL1 4057  16.747  41.578   8.850
 3331POPC   GL2 4058  16.759  41.709   8.850
 3331POPC   C1A 4059  16.689  41.564   8.550
 3331POPC   D2A 4060  16.726  41.521   8.250
 3331POPC   C3A 4061  16.748  41.531   7.950
 3331POPC   C4A 4062  16.697  41.513   7.650
 3331POPC   C1B 4063  16.828  41.788   8.550
 3331POPC   C2B 4064  16.816  41.804   8.250
 3331POPC   C3B 4065  16.793  41.823   7.950
 3331POPC   C4B 4066  16.800  41.773   7.650
 3332POPC   NC3 4067  28.405  25.237   9.450
 3332POPC   PO4 4068  28.346  25.222   9.150
 3332POPC   GL1 4069  28.372  25.293   8.850
 3332POPC   GL2 4070  28.326  25.197   8.850
 3332POPC   C1A 4071  28.375  25.230   8.550
 3332POPC   D2A 4072  28.355  25.280   8.250
 3332POPC   C3A 4073  28.392  25.278   7.950
 3332POPC   C4A 4074  28.399  25.217   7.650
 3332POPC   C1B 4075  28.224  25.101   8.550
 3332POPC   C2B 4076  28.208  25.109   8.250
 3332POPC   C3B 4077  28.209  25.040   7.950
 3332POPC   C4B 4078  28.204  25.116   7.650
 3333POPC   NC3 4079  18.315  21.342   9.450
 3333POPC   PO4 4080  18.331  21.392   9.150
 3333POPC   GL1 4081  18.246  21.405   8.850
 3333POPC   GL2 4082  18.305  21.531   8.850
 3333POPC   C1A 4083  18.258  21.434   8.550
 3333POPC   D2A 4084  18.274  21.434   8.250
 3333POPC   C3A 4085  18.252  21.381   7.950
 3333POPC   C4A 4086  18.301  21.373   7.650
 3333POPC   C1B 4087  18.308  21.593   8.550
 3333POPC   C2B 4088  18.370  21.619   8.250
 3333POPC   C3B 4089  18.335  21.602   7.950
 3333POPC   C4B 4090  18.300  21.614   7.650
 3334POPC   NC3 4091  12.094  26.846   9.450
 3334POPC   PO4 4092  12.054  26.786   9.150
 3334POPC   GL1 4093  12.076  26.773   8.850
 3334POPC   GL2 4094  12.107  26.674   8.850
 3334POPC   C1A 4095  12.109  26.829   8.550
 3334POPC   D2A 4096  12.056  26.832   8.250
 3334POPC   C3A 4097  12.026  26.803   7.950
 3334POPC   C4A 4098  12.083  26.788   7.650
 3334POPC   C1B 4099  12.031  26.617   8.550
 3334POPC   C2B 4100  12.080  26.586   8.250
 3334POPC   C3B 4101  12.115  26.614   7.950
 3334POPC   C4B 4102  12.055  26.535   7.650
 3335POPC   NC3 4103  26.829  19.857   9.450
 3335POPC   PO4 4104  26.807  19.841   9.150
 3335POPC   GL1 4105  26.830  19.873   8.850
 3335POPC   GL2 4106  26.891  19.705   8.850
 3335POPC   C1A 4107  26.842  19.818   8.550
 3335POPC   D2A 4108  26.788  19.869   8.250
 3335POPC   C3A 4109  26.769  19.847   7.950
 3335POPC   C4A 4110  26.825  19.809   7.650
 3335POPC   C1B 4111  27.008  19.644   8.550
 3335POPC   C2B 4112  26.976  19.636   8.250
 3335POPC   C3B 4113  27.002  19.651   7.950
 3335POPC   C4B 4114  26.928  19.624   7.650
 3336POPC   NC3 4115   1.952   7.400   9.450
 3336POPC   PO4 4116   1.995   7.440   9.150
 3336POPC   GL1 4117   2.011   7.422   8.850
 3336POPC   GL2 4118   2.127   7.445   8.850
 3336POPC   C1A 4119   1.997   7.465   8.550
 3336POPC   D2A 4120   1.987   7.387   8.250
 3336POPC   C3A 4121   1.993   7.425   7.950
 3336POPC   C4A 4122   1.974   7.404   7.650
 3336POPC   C1B 4123   2.227   7.512   8.550
 3336POPC   C2B 4124   2.243   7.501   8.250
 3336POPC   C3B 4125   2.257   7.498   7.950
 3336POPC   C4B 4126   2.264   7.506   7.650
 3337POPC   NC3 4127  42.320  37.656   9.450
 3337POPC   PO4 4128  42.372  37.699   9.150
 3337POPC   GL1 4129  42.304  37.650   8.850
 3337POPC   GL2 4130  42.248  37.790   8.850
 3337POPC   C1A 4131  42.317  37.672   8.550
 3337POPC   D2A 4132  42.327  37.674   8.250
 3337POPC   C3A 4133  42.300  37.632   7.950
 3337POPC   C4A 4134  42.367  37.712   7.650
 3337POPC   C1B 4135  42.181  37.826   8.550
 3337POPC   C2B 4136  42.168  37.853   8.250
 3337POPC   C3B 4137  42.143  37.880   7.950
 3337POPC   C4B 4138  42.199  37.829   7.650
 3338POPC   NC3 4139  31.458  21.373   9.450
 3338POPC   PO4 4140  31.492  21.356   9.150
 3338POPC   GL1 4141  31.497  21.368   8.850
 3338POPC   GL2 4142  31.456  21.297   8.850
 3338POPC   C1A 4143  31.482  21.413   8.550
 3338POPC   D2A 4144  31.479  21.353   8.250
 3338POPC   C3A 4145  31.496  21.407   7.950
 3338POPC   C4A 4146  31.450  21.355   7.650
 3338POPC   C1B 4147  31.529  21.160   8.550
 3338POPC   C2B 4148  31.569  21.101   8.250
 3338POPC   C3B 4149  31.531  21.169   7.950
 3338POPC   C4B 4150  31.490  21.125   7.650
 3339POPC   NC3 4151  44.675  20.602   9.450
 3339POPC   PO4 4152  44.682  20.636   9.150
 3339POPC   GL1 4153  44.620  20.633   8.850
 3339POPC   GL2 4154  44.797  20.567   8.850
 3339POPC   C1A 4155  44.654  20.583   8.550
 3339POPC   D2A 4156  44.677  20.563   8.250
 3339POPC   C3A 4157  44.697  20.625   7.950
 3339POPC   C4A 4158  44.655  20.609   7.650
 3339POPC   C1B 4159  44.851  20.420   8.550
 3339POPC   C2B 4160  44.826  20.466   8.250
 3339POPC   C3B 4161  44.859  20.461   7.950
 3339POPC   C4B 4162  44.879  20.506   7.650
 3340POPC   NC3 4163  40.001   0.460   9.450
 3340POPC   PO4 4164  40.037   0.419   9.150
 3340POPC   GL1 4165  40.049   0.471   8.850
 3340POPC   GL2 4166  40.051   0.387   8.850
 3340POPC   C1A 4167  40.022   0.483   8.550
 3340POPC   D2A 4168  39.964   0.427   8.250
 3340POPC   C3A 4169  39.985   0.479   7.950
 3340POPC   C4A 4170  39.957   0.417   7.650
 3340POPC   C1B 4171  40.143   0.276   8.550
 3340POPC   C2B 4172  40.221   0.230   8.250
 3340POPC   C3B 4173  40.215   0.255   7.950
 3340POPC   C4B 4174  40.161   0.252   7.650
 3341POPC   NC3 4175  24.519   8.185   9.450
 3341POPC   PO4 4176  24.485   8.191   9.150
 3341POPC   GL1 4177  24.447   8.241   8.850
 3341POPC   GL2 4178  24.406   8.106   8.850
 3341POPC   C1A 4179  24.502   8.245   8.550
 3341POPC   D2A 4180  24.484   8.163   8.250
 3341POPC   C3A 4181  24.519   8.194   7.950
 3341POPC   C4A 4182  24.460   8.231   7.650
 3341POPC   C1B 4183  24.295   8.027   8.550
 3341POPC   C2B 4184  24.261   8.098   8.250
 3341POPC   C3B 4185  24.221   8.073   7.950
 3341POPC   C4B 4186  24.294   8.094   7.650
 3342POPC   NC3 4187  15.159  41.601   9.450
 3342POPC   PO4 4188  15.160  41.534   9.150
 3342POPC   GL1 4189  15.174  41.535   8.850
 3342POPC   GL2 4190  15.300  41.540   8.850
 3342POPC   C1A 4191  15.201  41.578   8.550
 3342POPC   D2A 4192  15.147  41.520   8.250
 3342POPC   C3A 4193  15.141  41.608   7.950
 3342POPC   C4A 4194  15.149  41.545   7.650
 3342POPC   C1B 4195  15.462  41.593   8.550
 3342POPC   C2B 4196  15.397  41.583   8.250
 3342POPC   C3B 4197  15.470  41.594   7.950
 3342POPC   C4B 4198  15.469  41.605   7.650
 3343POPC   NC3 4199  41.568   1.955   9.450
 3343POPC   PO4 4200  41.530   1.949   9.150
 3343POPC   GL1 4201  41.551   2.000   8.850
 3343POPC   GL2 4202  41.596   2.114   8.850
 3343POPC   C1A 4203  41.572   1.965   8.550
 3343POPC   D2A 4204  41.592   1.944   8.250
 3343POPC   C3A 4205  41.522   2.033   7.950
 3343POPC   C4A 4206  41.570   1.970   7.650
 3343POPC   C1B 4207  41.568   2.274   8.550
 3343POPC   C2B 4208  41.598   2.257   8.250
 3343POPC   C3B 4209  41.603   2.275   7.950
 3343POPC   C4B 4210  41.639   2.233   7.650
 3344POPC   NC3 4211  23.753  27.636   9.450
 3344POPC   PO4 4212  23.747  27.638   9.150
 3344POPC   GL1 4213  23.683  27.566   8.850
 3344POPC   GL2 4214  23.601  27.692   8.850
 3344POPC   C1A 4215  23.741  27.605   8.550
 3344POPC   D2A 4216  23.735  27.583   8.250
 3344POPC   C3A 4217  23.666  27.601   7.950
 3344POPC   C4A 4218  23.732  27.543   7.650
 3344POPC   C1B 4219  23.599  27.796   8.550
 3344POPC   C2B 4220  23.552  27.799   8.250
 3344POPC   C3B 4221  23.553  27.806   7.950
 3344POPC   C4B 4222  23.545  27.819   7.650
 3345POPC   NC3 4223   1.995  36.082   9.450
 3345POPC   PO4 4224   2.003  36.109   9.150
 3345POPC   GL1 4225   1.984  36.163   8.850
 3345POPC   GL2 4226   2.040  36.196   8.850
 3345POPC   C1A 4227   2.012  36.098   8.550
 3345POPC   D2A 4228   1.967  36.094   8.250
 3345POPC   C3A 4229   1.943  36.154   7.950
 3345POPC   C4A 4230   2.018  36.160   7.650
 3345POPC   C1B 4231   2.220  36.249   8.550
 3345POPC   C2B 4232   2.131  36.307   8.250
 3345POPC   C3B 4233   2.197  36.270   7.950
 3345POPC   C4B 4234   2.199  36.339   7.650
 3346POPC   NC3 4235  29.884  38.425   9.450
 3346POPC   PO4 4236  29.912  38.429   9.150
 3346POPC   GL1 4237  29.895  38.474   8.850
 3346POPC   GL2 4238  29.904  38.363   8.850
 3346POPC   C1A 4239  29.941  38.434   8.550
 3346POPC   D2A 4240  29.876  38.417   8.250
 3346POPC   C3A 4241  29.917  38.416   7.950
 3346POPC   C4A 4242  29.918  38.498   7.650
 3346POPC   C1B 4243  29.808  38.180   8.550
 3346POPC   C2B 4244  29.796  38.258   8.250
 3346POPC   C3B 4245  29.797  38.221   7.950
 3346POPC   C4B 4246  29.863  38.202   7.650
 3347POPC   NC3 4247  38.466  32.999   9.450
 3347POPC   PO4 4248  38.463  33.071   9.150
 3347POPC   GL1 4249  38.439  32.988   8.850
 3347POPC   GL2 4250  38.323  32.945   8.850
 3347POPC   C1A 4251  38.411  33.059   8.550
 3347POPC   D2A 4252  38.442  33.032   8.250
 3347POPC   C3A 4253  38.440  33.041   7.950
 3347POPC   C4A 4254  38.423  33.003   7.650
 3347POPC   C1B 4255  38.256  32.930   8.550
 3347POPC   C2B 4256  38.185  32.959   8.250
 3347POPC   C3B 4257  38.199  32.884   7.950
 3347POPC   C4B 4258  38.225  32.954   7.650
 3348POPC   NC3 4259  24.498  39.264   9.450
 3348POPC   PO4 4260  24.465  39.266   9.150
 3348POPC   GL1 4261  24.470  39.237   8.850
 3348POPC   GL2 4262  24.631  39.250   8.850
 3348POPC   C1A 4263  24.464  39.268   8.550
 3348POPC   D2A 4264  24.499  39.200   8.250
 3348POPC   C3A 4265  24.465  39.264   7.950
 3348POPC   C4A 4266  24.516  39.208   7.650
 3348POPC   C1B 4267  24.681  39.293   8.550
 3348POPC   C2B 4268  24.739  39.335   8.250
 3348POPC   C3B 4269  24.753  39.324   7.950
 3348POPC   C4B 4270  24.725  39.349   7.650
 3349POPC   NC3 4271  23.698  33.812   9.450
 3349POPC   PO4 4272  23.686  33.791   9.150
 3349POPC   GL1 4273  23.711  33.827   8.850
 3349POPC   GL2 4274  23.675  33.890   8.850
 3349POPC   C1A 4275  23.690  33.793   8.550
 3349POPC   D2A 4276  23.682  33.798   8.250
 3349POPC   C3A 4277  23.763  33.798   7.950
 3349POPC   C4A 4278  23.746  33.778   7.650
 3349POPC   C1B 4279  23.700  34.002   8.550
 3349POPC   C2B 4280  23.711  34.054   8.250
 3349POPC   C3B 4281  23.699  34.032   7.950
 3349POPC   C4B 4282  23.676  34.053   7.650
 3350POPC   NC3 4283   9.726  39.999   9.450
 3350POPC   PO4 4284   9.792  40.000   9.150
 3350POPC   GL1 4285   9.725  40.054   8.850
 3350POPC   GL2 4286   9.650  39.934   8.850
 3350POPC   C1A 4287   9.783  40.024   8.550
 3350POPC   D2A 4288   9.768  40.011   8.250
 3350POPC   C3A 4289   9.737  39.984   7.950
 3350POPC   C4A 4290   9.738  40.017   7.650
 3350POPC   C1B 4291   9.486  39.948   8.550
 3350POPC   C2B 4292   9.478  39.983   8.250
 3350POPC   C3B 4293   9.540  39.912   7.950
 3350POPC   C4B 4294   9.510  39.933   7.650
 3351POPC   NC3 4295   2.032  26.781   9.450
 3351POPC   PO4 4296   1.962  26.825   9.150
 3351POPC   GL1 4297   1.986  26.826   8.850
 3351POPC   GL2 4298   2.032  26.685   8.850
 3351POPC   C1A 4299   2.005  26.845   8.550
 3351POPC   D2A 4300   2.011  26.825   8.250
 3351POPC   C3A 4301   2.023  26.770   7.950
 3351POPC   C4A 4302   2.027  26.776   7.650
 3351POPC   C1B 4303   2.080  26.534   8.550
 3351POPC   C2B 4304   2.061  26.542   8.250
 3351POPC   C3B 4305   2.043  26.542   7.950
 3351POPC   C4B 4306   2.075  26.563   7.650
 3352POPC   NC3 4307  42.340  22.956   9.450
 3352POPC   PO4 4308  42.294  22.960   9.150
 3352POPC   GL1 4309  42.306  22.970   8.850
 3352POPC   GL2 4310  42.211  22.826   8.850
 3352POPC   C1A 4311  42.366  22.925   8.550
 3352POPC   D2A 4312  42.357  22.966   8.250
 3352POPC   C3A 4313  42.351  22.938   7.950
 3352POPC   C4A 4314  42.293  22.944   7.650
 3352POPC   C1B 4315  42.086  22.783   8.550
 3352POPC   C2B 4316  42.104  22.791   8.250
 3352POPC   C3B 4317  42.181  22.803   7.950
 3352POPC   C4B 4318  42.134  22.818   7.650
 3353POPC   NC3 4319  40.783  42.367   9.450
 3353POPC   PO4 4320  40.788  42.356   9.150
 3353POPC   GL1 4321  40.734  42.347   8.850
 3353POPC   GL2 4322  40.808  42.412   8.850
 3353POPC   C1A 4323  40.778  42.341   8.550
 3353POPC   D2A 4324  40.751  42.285   8.250
 3353POPC   C3A 4325  40.827  42.307   7.950
 3353POPC   C4A 4326  40.759  42.287   7.650
 3353POPC   C1B 4327  40.821  42.549   8.550
 3353POPC   C2B 4328  40.828  42.559   8.250
 3353POPC   C3B 4329  40.857  42.537   7.950
 3353POPC   C4B 4330  40.832  42.550   7.650
 3354POPC   NC3 4331   4.361   6.615   9.450
 3354POPC   PO4 4332   4.331   6.623   9.150
 3354POPC   GL1 4333   4.305   6.614   8.850
 3354POPC   GL2 4334   4.338   6.525   8.850
 3354POPC   C1A 4335   4.277   6.664   8.550
 3354POPC   D2A 4336   4.338   6.640   8.250
 3354POPC   C3A 4337   4.324   6.619   7.950
 3354POPC   C4A 4338   4.301   6.641   7.650
 3354POPC   C1B 4339   4.240   6.376   8.550
 3354POPC   C2B 4340   4.300   6.448   8.250
 3354POPC   C3B 4341   4.310   6.350   7.950
 3354POPC   C4B 4342   4.268   6.445   7.650
 3355POPC   NC3 4343  29.883   3.548   9.450
 3355POPC   PO4 4344  29.968   3.582   9.150
 3355POPC   GL1 4345  29.959   3.516   8.850
 3355POPC   GL2 4346  29.786   3.428   8.850
 3355POPC   C1A 4347  29.895   3.519   8.550
 3355POPC   D2A 4348  29.966   3.570   8.250
 3355POPC   C3A 4349  29.950   3.560   7.950
 3355POPC   C4A 4350  29.889   3.581   7.650
 3355POPC   C1B 4351  29.690   3.429   8.550
 3355POPC   C2B 4352  29.715   3.434   8.250
 3355POPC   C3B 4353  29.683   3.410   7.950
 3355POPC   C4B 4354  29.683   3.439   7.650
 3356POPC   NC3 4355  41.572  28.415   9.450
 3356POPC   PO4 4356  41.600  28.353   9.150
 3356POPC   GL1 4357  41.562  28.352   8.850
 3356POPC   GL2 4358  41.609  28.285   8.850
 3356POPC   C1A 4359  41.530  28.413   8.550
 3356POPC   D2A 4360  41.580  28.407   8.250
 3356POPC   C3A 4361  41.526  28.395   7.950
 3356POPC   C4A 4362  41.605  28.389   7.650
 3356POPC   C1B 4363  41.670  28.167   8.550
 3356POPC   C2B 4364  41.658  28.151   8.250
 3356POPC   C3B 4365  41.667  28.184   7.950
 3356POPC   C4B 4366  41.621  28.133   7.650
 3357POPC   NC3 4367   9.013  24.450   9.450
 3357POPC   PO4 4368   9.022  24.462   9.150
 3357POPC   GL1 4369   9.022  24.537   8.850
 3357POPC   GL2 4370   9.080  24.527   8.850
 3357POPC   C1A 4371   8.939  24.466   8.550
 3357POPC   D2A 4372   8.980  24.524   8.250
 3357POPC   C3A 4373   8.963  24.448   7.950
 3357POPC   C4A 4374   8.981  24.528   7.650
 3357POPC   C1B 4375   9.152  24.595   8.550
 3357POPC   C2B 4376   9.146  24.636   8.250
 3357POPC   C3B 4377   9.176  24.631   7.950
 3357POPC   C4B 4378   9.156  24.616   7.650
 3358POPC   NC3 4379  39.256  19.867   9.450
 3358POPC   PO4 4380  39.188  19.842   9.150
 3358POPC   GL1 4381  39.243  19.884   8.850
 3358POPC   GL2 4382  39.331  19.729   8.850
 3358POPC   C1A 4383  39.207  19.879   8.550
 3358POPC   D2A 4384  39.190  19.801   8.250
 3358POPC   C3A 4385  39.186  19.835   7.950
 3358POPC   C4A 4386  39.221  19.876   7.650
 3358POPC   C1B 4387  39.320  19.574   8.550
 3358POPC   C2B 4388  39.370  19.654   8.250
 3358POPC   C3B 4389  39.324  19.565   7.950
 3358POPC   C4B 4390  39.334  19.601   7.650
 3359POPC   NC3 4391  22.944  23.711   9.450
 3359POPC   PO4 4392  22.917  23.707   9.150
 3359POPC   GL1 4393  22.969  23.761   8.850
 3359POPC   GL2 4394  23.065  23.761   8.850
 3359POPC   C1A 4395  22.964  23.673   8.550
 3359POPC   D2A 4396  22.898  23.741   8.250
 3359POPC   C3A 4397  22.924  23.715   7.950
 3359POPC   C4A 4398  22.895  23.704   7.650
 3359POPC   C1B 4399  23.139  23.935   8.550
 3359POPC   C2B 4400  23.097  23.904   8.250
 3359POPC   C3B 4401  23.071  23.896   7.950
 3359POPC   C4B 4402  23.087  23.932   7.650
 3360POPC   NC3 4403   9.752  24.475   9.450
 3360POPC   PO4 4404   9.786  24.492   9.150
 3360POPC   GL1 4405   9.701  24.516   8.850
 3360POPC   GL2 4406   9.838  24.578   8.850
 3360POPC   C1A 4407   9.756  24.473   8.550
 3360POPC   D2A 4408   9.793  24.455   8.250
 3360POPC   C3A 4409   9.709  24.457   7.950
 3360POPC   C4A 4410   9.781  24.459   7.650
 3360POPC   C1B 4411   9.887  24.743   8.550
 3360POPC   C2B 4412   9.846  24.768   8.250
 3360POPC   C3B 4413   9.821  24.762   7.950
 3360POPC   C4B 4414   9.868  24.675   7.650
 3361POPC   NC3 4415   3.534  14.361   9.450
 3361POPC   PO4 4416   3.590  14.386   9.150
 3361POPC   GL1 4417   3.551  14.411   8.850
 3361POPC   GL2 4418   3.556  14.547   8.850
 3361POPC   C1A 4419   3.564  14.422   8.550
 3361POPC   D2A 4420   3.525  14.366   8.250
 3361POPC   C3A 4421   3.532  14.396   7.950
 3361POPC   C4A 4422   3.523  14.358   7.650
 3361POPC   C1B 4423   3.578  14.678   8.550
 3361POPC   C2B 4424   3.590  14.642   8.250
 3361POPC   C3B 4425   3.625  14.609   7.950
 3361POPC   C4B 4426   3.587  14.689   7.650
 3362POPC   NC3 4427  28.384  14.362   9.450
 3362POPC   PO4 4428  28.342  14.402   9.150
 3362POPC   GL1 4429  28.319  14.387   8.850
 3362POPC   GL2 4430  28.263  14.443   8.850
 3362POPC   C1A 4431  28.342  14.429   8.550
 3362POPC   D2A 4432  28.360  14.412   8.250
 3362POPC   C3A 4433  28.373  14.388   7.950
 3362POPC   C4A 4434  28.356  14.369   7.650
 3362POPC   C1B 4435  28.145  14.398   8.550
 3362POPC   C2B 4436  28.169  14.409   8.250
 3362POPC   C3B 4437  28.087  14.370   7.950
 3362POPC   C4B 4438  28.106  14.453   7.650
 3363POPC   NC3 4439  14.392  32.235   9.450
 3363POPC   PO4 4440  14.417  32.219   9.150
 3363POPC   GL1 4441  14.450  32.293   8.850
 3363POPC   GL2 4442  14.261  32.215   8.850
 3363POPC   C1A 4443  14.448  32.230   8.550
 3363POPC   D2A 4444  14.362  32.259   8.250
 3363POPC   C3A 4445  14.445  32.279   7.950
 3363POPC   C4A 4446  14.406  32.200   7.650
 3363POPC   C1B 4447  14.169  32.103   8.550
 3363POPC   C2B 4448  14.256  32.135   8.250
 3363POPC   C3B 4449  14.197  32.046   7.950
 3363POPC   C4B 4450  14.253  32.094   7.650
 3364POPC   NC3 4451  29.962  15.964   9.450
 3364POPC   PO4 4452  29.955  15.948   9.150
 3364POPC   GL1 4453  29.964  15.946   8.850
 3364POPC   GL2 4454  29.794  15.938   8.850
 3364POPC   C1A 4455  29.945  15.964   8.550
 3364POPC   D2A 4456  29.948  15.975   8.250
 3364POPC   C3A 4457  29.941  15.958   7.950
 3364POPC   C4A 4458  29.877  15.944   7.650
 3364POPC   C1B 4459  29.646  15.920   8.550
 3364POPC   C2B 4460  29.649  15.877   8.250
 3364POPC   C3B 4461  29.661  15.863   7.950
 3364POPC   C4B 4462  29.716  15.953   7.650
 3365POPC   NC3 4463   0.440  39.274   9.450
 3365POPC   PO4 4464   0.416  39.281   9.150
 3365POPC   GL1 4465   0.435  39.266   8.850
 3365POPC   GL2 4466   0.318  39.282   8.850
 3365POPC   C1A 4467   0.434  39.201   8.550
 3365POPC   D2A 4468   0.435  39.232   8.250
 3365POPC   C3A 4469   0.453  39.198   7.950
 3365POPC   C4A 4470   0.487  39.273   7.650
 3365POPC   C1B 4471   0.270  39.412   8.550
 3365POPC   C2B 4472   0.238  39.438   8.250
 3365POPC   C3B 4473   0.262  39.461   7.950
 3365POPC   C4B 4474   0.291  39.390   7.650
 3366POPC   NC3 4475  36.163  40.043   9.450
 3366POPC   PO4 4476  36.126  40.008   9.150
 3366POPC   GL1 4477  36.092  39.963   8.850
 3366POPC   GL2 4478  36.020  40.037   8.850
 3366POPC   C1A 4479  36.113  39.991   8.550
 3366POPC   D2A 4480  36.112  40.043   8.250
 3366POPC   C3A 4481  36.125  40.025   7.950
 3366POPC   C4A 4482  36.172  40.023   7.650
 3366POPC   C1B 4483  35.915  40.016   8.550
 3366POPC   C2B 4484  35.848  39.998   8.250
 3366POPC   C3B 4485  35.920  39.993   7.950
 3366POPC   C4B 4486  35.847  40.059   7.650
 3367POPC   NC3 4487  16.761  13.675   9.450
 3367POPC   PO4 4488  16.766  13.578   9.150
 3367POPC   GL1 4489  16.740  13.670   8.850
 3367POPC   GL2 4490  16.901  13.657   8.850
 3367POPC   C1A 4491  16.715  13.672   8.550
 3367POPC   D2A 4492  16.757  13.638   8.250
 3367POPC   C3A 4493  16.712  13.659   7.950
 3367POPC   C4A 4494  16.757  13.584   7.650
 3367POPC   C1B 4495  16.941  13.717   8.550
 3367POPC   C2B 4496  16.943  13.643   8.250
 3367POPC   C3B 4497  16.964  13.704   7.950
 3367POPC   C4B 4498  16.933  13.648   7.650
 3368POPC   NC3 4499  40.763   8.183   9.450
 3368POPC   PO4 4500  40.798   8.177   9.150
 3368POPC   GL1 4501  40.792   8.235   8.850
 3368POPC   GL2 4502  40.828   8.275   8.850
 3368POPC   C1A 4503  40.832   8.202   8.550
 3368POPC   D2A 4504  40.793   8.173   8.250
 3368POPC   C3A 4505  40.736   8.243   7.950
 3368POPC   C4A 4506  40.746   8.149   7.650
 3368POPC   C1B 4507  40.843   8.455   8.550
 3368POPC   C2B 4508  40.846   8.474   8.250
 3368POPC   C3B 4509  40.842   8.464   7.950
 3368POPC   C4B 4510  40.882   8.414   7.650
 3369POPC   NC3 4511  30.654  17.538   9.450
 3369POPC   PO4 4512  30.697  17.501   9.150
 3369POPC   GL1 4513  30.666  17.476   8.850
 3369POPC   GL2 4514  30.799  17.626   8.850
 3369POPC   C1A 4515  30.716  17.490   8.550
 3369POPC   D2A 4516  30.674  17.557   8.250
 3369POPC   C3A 4517  30.704  17.461   7.950
 3369POPC   C4A 4518  30.735  17.539   7.650
 3369POPC   C1B 4519  30.809  17.724   8.550
 3369POPC   C2B 4520  30.896  17.685   8.250
 3369POPC   C3B 4521  30.890  17.732   7.950
 3369POPC   C4B 4522  30.894  17.663   7.650
 3370POPC   NC3 4523   9.782  15.229   9.450
 3370POPC   PO4 4524   9.774  15.160   9.150
 3370POPC   GL1 4525   9.743  15.149   8.850
 3370POPC   GL2 4526   9.890  15.127   8.850
 3370POPC   C1A 4527   9.780  15.180   8.550
 3370POPC   D2A 4528   9.720  15.229   8.250
 3370POPC   C3A 4529   9.792  15.137   7.950
 3370POPC   C4A 4530   9.757  15.194   7.650
 3370POPC   C1B 4531   9.955  15.099   8.550
 3370POPC   C2B 4532   9.961  15.122   8.250
 3370POPC   C3B 4533   9.971  15.116   7.950
 3370POPC   C4B 4534  10.015  15.125   7.650
 3371POPC   NC3 4535  33.809   8.948   9.450
 3371POPC   PO4 4536  33.822   8.972   9.150
 3371POPC   GL1 4537  33.826   8.956   8.850
 3371POPC   GL2 4538  33.716   8.930   8.850
 3371POPC   C1A 4539  33.770   8.998   8.550
 3371POPC   D2A 4540  33.846   8.984   8.250
 3371POPC   C3A 4541  33.779   9.009   7.950
 3371POPC   C4A 4542  33.830   8.929   7.650
 3371POPC   C1B 4543  33.624   8.775   8.550
 3371POPC   C2B 4544  33.618   8.783   8.250
 3371POPC   C3B 4545  33.649   8.802   7.950
 3371POPC   C4B 4546  33.667   8.753   7.650
 3372POPC   NC3 4547  28.349  18.275   9.450
 3372POPC   PO4 4548  28.361  18.262   9.150
 3372POPC   GL1 4549  28.349  18.311   8.850
 3372POPC   GL2 4550  28.255  18.263   8.850
 3372POPC   C1A 4551  28.386  18.281   8.550
 3372POPC   D2A 4552  28.370  18.322   8.250
 3372POPC   C3A 4553  28.399  18.279   7.950
 3372POPC   C4A 4554  28.353  18.278   7.650
 3372POPC   C1B 4555  28.122  18.288   8.550
 3372POPC   C2B 4556  28.131  18.343   8.250
 3372POPC   C3B 4557  28.139  18.297   7.950
 3372POPC   C4B 4558  28.084  18.268   7.650
 3373POPC   NC3 4559  19.059   6.660   9.450
 3373POPC   PO4 4560  19.084   6.632   9.150
 3373POPC   GL1 4561  19.098   6.689   8.850
 3373POPC   GL2 4562  19.086   6.716   8.850
 3373POPC   C1A 4563  19.066   6.676   8.550
 3373POPC   D2A 4564  19.085   6.686   8.250
 3373POPC   C3A 4565  19.079   6.666   7.950
 3373POPC   C4A 4566  19.083   6.599   7.650
 3373POPC   C1B 4567  19.168   6.832   8.550
 3373POPC   C2B 4568  19.189   6.862   8.250
 3373POPC   C3B 4569  19.168   6.861   7.950
 3373POPC   C4B 4570  19.222   6.870   7.650
 3374POPC   NC3 4571  43.895  21.361   9.450
 3374POPC   PO4 4572  43.866  21.373   9.150
 3374POPC   GL1 4573  43.882  21.385   8.850
 3374POPC   GL2 4574  43.987  21.422   8.850
 3374POPC   C1A 4575  43.893  21.416   8.550
 3374POPC   D2A 4576  43.921  21.376   8.250
 3374POPC   C3A 4577  43.928  21.343   7.950
 3374POPC   C4A 4578  43.851  21.341   7.650
 3374POPC   C1B 4579  44.090  21.496   8.550
 3374POPC   C2B 4580  44.128  21.428   8.250
 3374POPC   C3B 4581  44.083  21.460   7.950
 3374POPC   C4B 4582  44.144  21.471   7.650
 3375POPC   NC3 4583  42.379  24.475   9.450
 3375POPC   PO4 4584  42.304  24.523   9.150
 3375POPC   GL1 4585  42.354  24.515   8.850
 3375POPC   GL2 4586  42.234  24.369   8.850
 3375POPC   C1A 4587  42.291  24.473   8.550
 3375POPC   D2A 4588  42.377  24.497   8.250
 3375POPC   C3A 4589  42.301  24.460   7.950
 3375POPC   C4A 4590  42.304  24.454   7.650
 3375POPC   C1B 4591  42.168  24.314   8.550
 3375POPC   C2B 4592  42.156  24.333   8.250
 3375POPC   C3B 4593  42.153  24.364   7.950
 3375POPC   C4B 4594  42.111  24.355   7.650
 3376POPC   NC3 4595  29.134   4.332   9.450
 3376POPC   PO4 4596  29.188   4.367   9.150
 3376POPC   GL1 4597  29.165   4.310   8.850
 3376POPC   GL2 4598  29.267   4.341   8.850
 3376POPC   C1A 4599  29.137   4.305   8.550
 3376POPC   D2A 4600  29.139   4.311   8.250
 3376POPC   C3A 4601  29.174   4.290   7.950
 3376POPC   C4A 4602  29.186   4.354   7.650
 3376POPC   C1B 4603  29.400   4.321   8.550
 3376POPC   C2B 4604  29.360   4.266   8.250
 3376POPC   C3B 4605  29.378   4.255   7.950
 3376POPC   C4B 4606  29.353   4.274   7.650
 3377POPC   NC3 4607  36.095  43.081   9.450
 3377POPC   PO4 4608  36.125  43.140   9.150
 3377POPC   GL1 4609  36.102  43.155   8.850
 3377POPC   GL2 4610  36.051  43.180   8.850
 3377POPC   C1A 4611  36.167  43.079   8.550
 3377POPC   D2A 4612  36.170  43.132   8.250
 3377POPC   C3A 4613  36.102  43.137   7.950
 3377POPC   C4A 4614  36.080  43.070   7.650
 3377POPC   C1B 4615  35.913  43.234   8.550
 3377POPC   C2B 4616  35.911  43.218   8.250
 3377POPC   C3B 4617  35.915  43.302   7.950
 3377POPC   C4B 4618  35.977  43.284   7.650
 3378POPC   NC3 4619   7.422  22.900   9.450
 3378POPC   PO4 4620   7.383  22.888   9.150
 3378POPC   GL1 4621   7.383  22.980   8.850
 3378POPC   GL2 4622   7.409  22.851   8.850
 3378POPC   C1A 4623   7.442  22.897   8.550
 3378POPC   D2A 4624   7.429  22.946   8.250
 3378POPC   C3A 4625   7.430  22.961   7.950
 3378POPC   C4A 4626   7.379  22.888   7.650
 3378POPC   C1B 4627   7.454  22.697   8.550
 3378POPC   C2B 4628   7.415  22.695   8.250
 3378POPC   C3B 4629   7.453  22.732   7.950
 3378POPC   C4B 4630   7.408  22.658   7.650
 3379POPC   NC3 4631  43.123  33.018   9.450
 3379POPC   PO4 4632  43.127  32.990   9.150
 3379POPC   GL1 4633  43.124  33.023   8.850
 3379POPC   GL2 4634  43.184  32.953   8.850
 3379POPC   C1A 4635  43.126  32.977   8.550
 3379POPC   D2A 4636  43.156  32.977   8.250
 3379POPC   C3A 4637  43.130  33.065   7.950
 3379POPC   C4A 4638  43.112  33.017   7.650
 3379POPC   C1B 4639  43.291  32.898   8.550
 3379POPC   C2B 4640  43.316  32.904   8.250
 3379POPC   C3B 4641  43.340  32.852   7.950
 3379POPC   C4B 4642  43.363  32.936   7.650
 3380POPC   NC3 4643  33.008  33.051   9.450
 3380POPC   PO4 4644  32.992  32.998   9.150
 3380POPC   GL1 4645  33.023  33.059   8.850
 3380POPC   GL2 4646  33.065  32.920   8.850
 3380POPC   C1A 4647  33.049  33.016   8.550
 3380POPC   D2A 4648  33.023  32.994   8.250
 3380POPC   C3A 4649  33.064  32.992   7.950
 3380POPC   C4A 4650  33.056  33.071   7.650
 3380POPC   C1B 4651  33.119  32.826   8.550
 3380POPC   C2B 4652  33.140  32.833   8.250
 3380POPC   C3B 4653  33.202  32.800   7.950
 3380POPC   C4B 4654  33.159  32.839   7.650
 3381POPC   NC3 4655  11.281  27.594   9.450
 3381POPC   PO4 4656  11.340  27.615   9.150
 3381POPC   GL1 4657  11.295  27.583   8.850
 3381POPC   GL2 4658  11.159  27.467   8.850
 3381POPC   C1A 4659  11.255  27.636   8.550
 3381POPC   D2A 4660  11.305  27.642   8.250
 3381POPC   C3A 4661  11.279  27.635   7.950
 3381POPC   C4A 4662  11.255  27.543   7.650
 3381POPC   C1B 4663  11.103  27.438   8.550
 3381POPC   C2B 4664  11.148  27.384   8.250
 3381POPC   C3B 4665  11.106  27.385   7.950
 3381POPC   C4B 4666  11.095  27.466   7.650
 3382POPC   NC3 4667  15.920  22.203   9.450
 3382POPC   PO4 4668  15.998  22.134   9.150
 3382POPC   GL1 4669  16.005  22.132   8.850
 3382POPC   GL2 4670  16.056  22.068   8.850
 3382POPC   C1A 4671  15.979  22.130   8.550
 3382POPC   D2A 4672  15.991  22.173   8.250
 3382POPC   C3A 4673  15.948  22.139   7.950
 3382POPC   C4A 4674  15.974  22.207   7.650
 3382POPC   C1B 4675  16.123  22.008   8.550
 3382POPC   C2B 4676  16.114  21.962   8.250
 3382POPC   C3B 4677  16.087  21.943   7.950
 3382POPC   C4B 4678  16.159  21.994   7.650
 3383POPC   NC3 4679  33.813  29.941   9.450
 3383POPC   PO4 4680  33.783  29.921   9.150
 3383POPC   GL1 4681  33.796  29.968   8.850
 3383POPC   GL2 4682  33.734  30.018   8.850
 3383POPC   C1A 4683  33.817  29.905   8.550
 3383POPC   D2A 4684  33.802  29.923   8.250
 3383POPC   C3A 4685  33.804  29.886   7.950
 3383POPC   C4A 4686  33.838  29.912   7.650
 3383POPC   C1B 4687  33.603  30.075   8.550
 3383POPC   C2B 4688  33.600  30.161   8.250
 3383POPC   C3B 4689  33.669  30.065   7.950
 3383POPC   C4B 4690  33.591  30.129   7.650
 3384POPC   NC3 4691  27.588  14.403   9.450
 3384POPC   PO4 4692  27.545  14.451   9.150
 3384POPC   GL1 4693  27.643  14.355   8.850
 3384POPC   GL2 4694  27.570  14.513   8.850
 3384POPC   C1A 4695  27.583  14.449   8.550
 3384POPC   D2A 4696  27.566  14.372   8.250
 3384POPC   C3A 4697  27.608  14.438   7.950
 3384POPC   C4A 4698  27.556  14.438   7.650
 3384POPC   C1B 4699  27.410  14.625   8.550
 3384POPC   C2B 4700  27.460  14.658   8.250
 3384POPC   C3B 4701  27.441  14.606   7.950
 3384POPC   C4B 4702  27.480  14.659   7.650
 3385POPC   NC3 4703  12.075  43.916   9.450
 3385POPC   PO4 4704  12.057  43.860   9.150
 3385POPC   GL1 4705  12.056  43.896   8.850
 3385POPC   GL2 4706  12.138  43.939   8.850
 3385POPC   C1A 4707  12.040  43.839   8.550
 3385POPC   D2A 4708  12.124  43.856   8.250
 3385POPC   C3A 4709  12.028  43.871   7.950
 3385POPC   C4A 4710  12.052  43.866   7.650
 3385POPC   C1B 4711  12.316  43.974   8.550
 3385POPC   C2B 4712  12.294  44.041   8.250
 3385POPC   C3B 4713  12.265  43.975   7.950
 3385POPC   C4B 4714  12.246  44.012   7.650
 3386POPC   NC3 4715   1.168  19.027   9.450
 3386POPC   PO4 4716   1.213  19.073   9.150
 3386POPC   GL1 4717   1.177  19.058   8.850
 3386POPC   GL2 4718   1.231  18.895   8.850
 3386POPC   C1A 4719   1.187  19.042   8.550
 3386POPC   D2A 4720   1.258  19.049   8.250
 3386POPC   C3A 4721   1.257  19.091   7.950
 3386POPC   C4A 4722   1.228  19.080   7.650
 3386POPC   C1B 4723   1.196  18.760   8.550
 3386POPC   C2B 4724   1.228  18.764   8.250
 3386POPC   C3B 4725   1.275  18.770   7.950
 3386POPC   C4B 4726   1.236  18.808   7.650
 3387POPC   NC3 4727   8.997  43.137   9.450
 3387POPC   PO4 4728   8.928  43.149   9.150
 3387POPC   GL1 4729   8.971  43.099   8.850
 3387POPC   GL2 4730   8.895  43.167   8.850
 3387POPC   C1A 4731   8.928  43.125   8.550
 3387POPC   D2A 4732   8.966  43.132   8.250
 3387POPC   C3A 4733   8.935  43.140   7.950
 3387POPC   C4A 4734   8.963  43.136   7.650
 3387POPC   C1B 4735   8.808  43.334   8.550
 3387POPC   C2B 4736   8.877  43.305   8.250
 3387POPC   C3B 4737   8.836  43.288   7.950
 3387POPC   C4B 4738   8.820  43.316   7.650
 3388POPC   NC3 4739   5.855  44.690   9.450
 3388POPC   PO4 4740   5.869  44.639   9.150
 3388POPC   GL1 4741   5.875  44.666   8.850
 3388POPC   GL2 4742   5.915  44.608   8.850
 3388POPC   C1A 4743   5.822  44.645   8.550
 3388POPC   D2A 4744   5.872  44.685   8.250
 3388POPC   C3A 4745   5.912  44.710   7.950
 3388POPC   C4A 4746   5.821  44.643   7.650
 3388POPC   C1B 4747   6.070  44.515   8.550
 3388POPC   C2B 4748   6.005  44.498   8.250
 3388POPC   C3B 4749   6.012  44.458   7.950
 3388POPC   C4B 4750   6.028  44.458   7.650
 3389POPC   NC3 4751  31.519  44.657   9.450
 3389POPC   PO4 4752  31.450  44.621   9.150
 3389POPC   GL1 4753  31.494  44.627   8.850
 3389POPC   GL2 4754  31.447  44.823   8.850
 3389POPC   C1A 4755  31.498  44.679   8.550
 3389POPC   D2A 4756  31.486  44.618   8.250
 3389POPC   C3A 4757  31.461  44.684   7.950
 3389POPC   C4A 4758  31.504  44.663   7.650
 3389POPC   C1B 4759  31.390  44.936   8.550
 3389POPC   C2B 4760  31.407  44.926   8.250
 3389POPC   C3B 4761  31.344  44.944   7.950
 3389POPC   C4B 4762  31.417  44.935   7.650
 3390POPC   NC3 4763  20.603   6.604   9.450
 3390POPC   PO4 4764  20.654   6.627   9.150
 3390POPC   GL1 4765  20.609   6.596   8.850
 3390POPC   GL2 4766  20.503   6.700   8.850
 3390POPC   C1A 4767  20.592   6.635   8.550
 3390POPC   D2A 4768  20.605   6.693   8.250
 3390POPC   C3A 4769  20.650   6.686   7.950
 3390POPC   C4A 4770  20.643   6.687   7.650
 3390POPC   C1B 4771  20.391   6.808   8.550
 3390POPC   C2B 4772  20.435   6.803   8.250
 3390POPC   C3B 4773  20.438   6.810   7.950
 3390POPC   C4B 4774  20.431   6.805   7.650
 3391POPC   NC3 4775  10.552  31.496   9.450
 3391POPC   PO4 4776  10.519  31.442   9.150
 3391POPC   GL1 4777  10.484  31.478   8.850
 3391POPC   GL2 4778  10.419  31.402   8.850
 3391POPC   C1A 4779  10.533  31.450   8.550
 3391POPC   D2A 4780  10.482  31.488   8.250
 3391POPC   C3A 4781  10.511  31.500   7.950
 3391POPC   C4A 4782  10.528  31.511   7.650
 3391POPC   C1B 4783  10.266  31.363   8.550
 3391POPC   C2B 4784  10.281  31.373   8.250
 3391POPC   C3B 4785  10.282  31.404   7.950
 3391POPC   C4B 4786  10.306  31.351   7.650
 3392POPC   NC3 4787  31.502  36.927   9.450
 3392POPC   PO4 4788  31.485  36.925   9.150
 3392POPC   GL1 4789  31.510  36.938   8.850
 3392POPC   GL2 4790  31.359  36.940   8.850
 3392POPC   C1A 4791  31.429  36.888   8.550
 3392POPC   D2A 4792  31.490  36.858   8.250
 3392POPC   C3A 4793  31.485  36.913   7.950
 3392POPC   C4A 4794  31.521  36.903   7.650
 3392POPC   C1B 4795  31.203  37.040   8.550
 3392POPC   C2B 4796  31.267  36.992   8.250
 3392POPC   C3B 4797  31.200  36.989   7.950
 3392POPC   C4B 4798  31.219  37.033   7.650
 3393POPC   NC3 4799  12.816  36.871   9.450
 3393POPC   PO4 4800  12.830  36.936   9.150
 3393POPC   GL1 4801  12.842  36.933   8.850
 3393POPC   GL2 4802  12.905  36.970   8.850
 3393POPC   C1A 4803  12.827  36.941   8.550
 3393POPC   D2A 4804  12.805  36.907   8.250
 3393POPC   C3A 4805  12.840  36.899   7.950
 3393POPC   C4A 4806  12.852  36.910   7.650
 3393POPC   C1B 4807  13.016  37.108   8.550
 3393POPC   C2B 4808  13.024  37.040   8.250
 3393POPC   C3B 4809  13.059  37.123   7.950
 3393POPC   C4B 4810  13.007  37.067   7.650
 3394POPC   NC3 4811  18.245  34.526   9.450
 3394POPC   PO4 4812  18.302  34.617   9.150
 3394POPC   GL1 4813  18.303  34.615   8.850
 3394POPC   GL2 4814  18.286  34.723   8.850
 3394POPC   C1A 4815  18.298  34.602   8.550
 3394POPC   D2A 4816  18.285  34.589   8.250
 3394POPC   C3A 4817  18.250  34.613   7.950
 3394POPC   C4A 4818  18.312  34.573   7.650
 3394POPC   C1B 4819  18.288  34.870   8.550
 3394POPC   C2B 4820  18.276  34.804   8.250
 3394POPC   C3B 4821  18.268  34.801   7.950
 3394POPC   C4B 4822  18.288  34.815   7.650
 3395POPC   NC3 4823  11.303  29.889   9.450
 3395POPC   PO4 4824  11.291  29.962   9.150
 3395POPC   GL1 4825  11.270  29.970   8.850
 3395POPC   GL2 4826  11.348  30.047   8.850
 3395POPC   C1A 4827  11.309  29.931   8.550
 3395POPC   D2A 4828  11.292  29.925   8.250
 3395POPC   C3A 4829  11.315  29.878   7.950
 3395POPC   C4A 4830  11.278  29.898   7.650
 3395POPC   C1B 4831  11.487  30.108   8.550
 3395POPC   C2B 4832  11.500  30.055   8.250
 3395POPC   C3B 4833  11.500  30.120   7.950
 3395POPC   C4B 4834  11.436  30.086   7.650
 3396POPC   NC3 4835  33.814  12.864   9.450
 3396POPC   PO4 4836  33.809  12.880   9.150
 3396POPC   GL1 4837  33.800  12.827   8.850
 3396POPC   GL2 4838  33.915  12.904   8.850
 3396POPC   C1A 4839  33.798  12.865   8.550
 3396POPC   D2A 4840  33.846  12.810   8.250
 3396POPC   C3A 4841  33.796  12.878   7.950
 3396POPC   C4A 4842  33.827  12.814   7.650
 3396POPC   C1B 4843  34.045  13.017   8.550
 3396POPC   C2B 4844  34.022  12.934   8.250
 3396POPC   C3B 4845  34.016  12.930   7.950
 3396POPC   C4B 4846  34.013  12.966   7.650
 3397POPC   NC3 4847   0.440  29.132   9.450
 3397POPC   PO4 4848   0.427  29.185   9.150
 3397POPC   GL1 4849   0.397  29.122   8.850
 3397POPC   GL2 4850   0.604  29.216   8.850
 3397POPC   C1A 4851   0.474  29.179   8.550
 3397POPC   D2A 4852   0.477  29.132   8.250
 3397POPC   C3A 4853   0.452  29.140   7.950
 3397POPC   C4A 4854   0.391  29.131   7.650
 3397POPC   C1B 4855   0.647  29.210   8.550
 3397POPC   C2B 4856   0.683  29.217   8.250
 3397POPC   C3B 4857   0.644  29.209   7.950
 3397POPC   C4B 4858   0.680  29.188   7.650
 3398POPC   NC3 4859  40.760  10.551   9.450
 3398POPC   PO4 4860  40.823  10.536   9.150
 3398POPC   GL1 4861  40.743  10.521   8.850
 3398POPC   GL2 4862  40.654  10.490   8.850
 3398POPC   C1A 4863  40.780  10.507   8.550
 3398POPC   D2A 4864  40.756  10.519   8.250
 3398POPC   C3A 4865  40.752  10.563   7.950
 3398POPC   C4A 4866  40.776  10.501   7.650
 3398POPC   C1B 4867  40.529  10.459   8.550
 3398POPC   C2B 4868  40.571  10.490   8.250
 3398POPC   C3B 4869  40.562  10.489   7.950
 3398POPC   C4B 4870  40.524  10.513   7.650
 3399POPC   NC3 4871  16.734  36.080   9.450
 3399POPC   PO4 4872  16.738  36.082   9.150
 3399POPC   GL1 4873  16.690  36.124   8.850
 3399POPC   GL2 4874  16.641  36.093   8.850
 3399POPC   C1A 4875  16.681  36.151   8.550
 3399POPC   D2A 4876  16.690  36.167   8.250
 3399POPC   C3A 4877  16.700  36.125   7.950
 3399POPC   C4A 4878  16.733  36.090   7.650
 3399POPC   C1B 4879  16.451  36.130   8.550
 3399POPC   C2B 4880  16.500  36.088   8.250
 3399POPC   C3B 4881  16.489  36.151   7.950
 3399POPC   C4B 4882  16.480  36.127   7.650
 3400POPC   NC3 4883  30.704   3.497   9.450
 3400POPC   PO4 4884  30.718   3.530   9.150
 3400POPC   GL1 4885  30.735   3.492   8.850
 3400POPC   GL2 4886  30.758   3.441   8.850
 3400POPC   C1A 4887  30.722   3.528   8.550
 3400POPC   D2A 4888  30.744   3.498   8.250
 3400POPC   C3A 4889  30.653   3.548   7.950
 3400POPC   C4A 4890  30.697   3.544   7.650
 3400POPC   C1B 4891  30.791   3.359   8.550
 3400POPC   C2B 4892  30.782   3.295   8.250
 3400POPC   C3B 4893  30.847   3.327   7.950
 3400POPC   C4B 4894  30.862   3.283   7.650
 3401POPC   NC3 4895  23.724  41.538   9.450
 3401POPC   PO4 4896  23.665  41.525   9.150
 3401POPC   GL1 4897  23.706  41.601   8.850
 3401POPC   GL2 4898  23.754  41.419   8.850
 3401POPC   C1A 4899  23.751  41.573   8.550
 3401POPC   D2A 4900  23.681  41.518   8.250
 3401POPC   C3A 4901  23.668  41.535   7.950
 3401POPC   C4A 4902  23.672  41.591   7.650
 3401POPC   C1B 4903  23.789  41.346   8.550
 3401POPC   C2B 4904  23.822  41.321   8.250
 3401POPC   C3B 4905  23.818  41.315   7.950
 3401POPC   C4B 4906  23.794  41.377   7.650
 3402POPC   NC3 4907  26.796  15.907   9.450
 3402POPC   PO4 4908  26.819  15.965   9.150
 3402POPC   GL1 4909  26.844  15.915   8.850
 3402POPC   GL2 4910  26.691  16.003   8.850
 3402POPC   C1A 4911  26.806  15.937   8.550
 3402POPC   D2A 4912  26.774  15.939   8.250
 3402POPC   C3A 4913  26.864  15.991   7.950
 3402POPC   C4A 4914  26.828  15.972   7.650
 3402POPC   C1B 4915  26.634  16.053   8.550
 3402POPC   C2B 4916  26.561  16.031   8.250
 3402POPC   C3B 4917  26.624  16.055   7.950
 3402POPC   C4B 4918  26.613  16.004   7.650
 3403POPC   NC3 4919  19.788  18.238   9.450
 3403POPC   PO4 4920  19.839  18.333   9.150
 3403POPC   GL1 4921  19.876  18.309   8.850
 3403POPC   GL2 4922  19.779  18.168   8.850
 3403POPC   C1A 4923  19.879  18.286   8.550
 3403POPC   D2A 4924  19.835  18.289   8.250
 3403POPC   C3A 4925  19.829  18.267   7.950
 3403POPC   C4A 4926  19.832  18.285   7.650
 3403POPC   C1B 4927  19.727  18.063   8.550
 3403POPC   C2B 4928  19.648  18.097   8.250
 3403POPC   C3B 4929  19.714  18.041   7.950
 3403POPC   C4B 4930  19.681  18.087   7.650
 3404POPC   NC3 4931  33.831  10.490   9.450
 3404POPC   PO4 4932  33.848  10.518   9.150
 3404POPC   GL1 4933  33.841  10.541   8.850
 3404POPC   GL2 4934  33.868  10.465   8.850
 3404POPC   C1A 4935  33.820  10.562   8.550
 3404POPC   D2A 4936  33.828  10.488   8.250
 3404POPC   C3A 4937  33.831  10.535   7.950
 3404POPC   C4A 4938  33.767  10.484   7.650
 3404POPC   C1B 4939  33.990  10.379   8.550
 3404POPC   C2B 4940  33.962  10.362   8.250
 3404POPC   C3B 4941  34.037  10.357   7.950
 3404POPC   C4B 4942  33.947  10.325   7.650
 3405POPC   NC3 4943  26.789  12.040   9.450
 3405POPC   PO4 4944  26.804  12.125   9.150
 3405POPC   GL1 4945  26.770  12.077   8.850
 3405POPC   GL2 4946  26.899  12.055   8.850
 3405POPC   C1A 4947  26.774  12.069   8.550
 3405POPC   D2A 4948  26.798  12.046   8.250
 3405POPC   C3A 4949  26.772  12.040   7.950
 3405POPC   C4A 4950  26.780  12.040   7.650
 3405POPC   C1B 4951  27.022  12.147   8.550
 3405POPC   C2B 4952  27.034  12.088   8.250
 3405POPC   C3B 4953  27.042  12.165   7.950
 3405POPC   C4B 4954  27.029  12.099   7.650
 3406POPC   NC3 4955  44.708  23.720   9.450
 3406POPC   PO4 4956  44.622  23.742   9.150
 3406POPC   GL1 4957  44.632  23.677   8.850
 3406POPC   GL2 4958  44.627  23.574   8.850
 3406POPC   C1A 4959  44.666  23.666   8.550
 3406POPC   D2A 4960  44.660  23.683   8.250
 3406POPC   C3A 4961  44.672  23.712   7.950
 3406POPC   C4A 4962  44.705  23.693   7.650
 3406POPC   C1B 4963  44.517  23.468   8.550
 3406POPC   C2B 4964  44.526  23.453   8.250
 3406POPC   C3B 4965  44.527  23.474   7.950
 3406POPC   C4B 4966  44.585  23.523   7.650
 3407POPC   NC3 4967  28.408   9.731   9.450
 3407POPC   PO4 4968  28.369   9.740   9.150
 3407POPC   GL1 4969  28.389   9.759   8.850
 3407POPC   GL2 4970  28.457   9.748   8.850
 3407POPC   C1A 4971  28.354   9.745   8.550
 3407POPC   D2A 4972  28.391   9.735   8.250
 3407POPC   C3A 4973  28.388   9.754   7.950
 3407POPC   C4A 4974  28.320   9.728   7.650
 3407POPC   C1B 4975  28.663   9.814   8.550
 3407POPC   C2B 4976  28.597   9.783   8.250
 3407POPC   C3B 4977  28.661   9.746   7.950
 3407POPC   C4B 4978  28.662   9.774   7.650
 3408POPC   NC3 4979  15.208  19.019   9.450
 3408POPC   PO4 4980  15.223  19.043   9.150
 3408POPC   GL1 4981  15.203  19.031   8.850
 3408POPC   GL2 4982  15.103  19.138   8.850
 3408POPC   C1A 4983  15.170  19.083   8.550
 3408POPC   D2A 4984  15.191  19.105   8.250
 3408POPC   C3A 4985  15.183  19.047   7.950
 3408POPC   C4A 4986  15.182  19.102   7.650
 3408POPC   C1B 4987  14.969  19.165   8.550
 3408POPC   C2B 4988  14.950  19.128   8.250
 3408POPC   C3B 4989  14.983  19.207   7.950
 3408POPC   C4B 4990  14.974  19.197   7.650
 3409POPC   NC3 4991  22.185  19.877   9.450
 3409POPC   PO4 4992  22.156  19.865   9.150
 3409POPC   GL1 4993  22.179  19.884   8.850
 3409POPC   GL2 4994  22.277  19.768   8.850
 3409POPC   C1A 4995  22.142  19.805   8.550
 3409POPC   D2A 4996  22.150  19.804   8.250
 3409POPC   C3A 4997  22.179  19.797   7.950
 3409POPC   C4A 4998  22.178  19.842   7.650
 3409POPC   C1B 4999  22.330  19.584   8.550
 3409POPC   C2B 5000  22.258  19.663   8.250
 3409POPC   C3B 5001  22.267  19.656   7.950
 3409POPC   C4B 5002  22.334  19.627   7.650
 3410POPC   NC3 5003  34.612   0.412   9.450
 3410POPC   PO4 5004  34.530   0.423   9.150
 3410POPC   GL1 5005  34.531   0.418   8.850
 3410POPC   GL2 5006  34.672   0.390   8.850
 3410POPC   C1A 5007  34.615   0.444   8.550
 3410POPC   D2A 5008  34.611   0.486   8.250
 3410POPC   C3A 5009  34.554   0.470   7.950
 3410POPC   C4A 5010  34.616   0.442   7.650
 3410POPC   C1B 5011  34.730   0.243   8.550
 3410POPC   C2B 5012  34.766   0.209   8.250
 3410POPC   C3B 5013  34.794   0.252   7.950
 3410POPC   C4B 5014  34.768   0.289   7.650
 3411POPC   NC3 5015  22.127  11.296   9.450
 3411POPC   PO4 5016  22.142  11.289   9.150
 3411POPC   GL1 5017  22.210  11.325   8.850
 3411POPC   GL2 5018  22.251  11.452   8.850
 3411POPC   C1A 5019  22.143  11.310   8.550
 3411POPC   D2A 5020  22.121  11.310   8.250
 3411POPC   C3A 5021  22.202  11.309   7.950
 3411POPC   C4A 5022  22.211  11.252   7.650
 3411POPC   C1B 5023  22.219  11.568   8.550
 3411POPC   C2B 5024  22.223  11.583   8.250
 3411POPC   C3B 5025  22.275  11.566   7.950
 3411POPC   C4B 5026  22.227  11.551   7.650
 3412POPC   NC3 5027   5.047  10.519   9.450
 3412POPC   PO4 5028   5.100  10.558   9.150
 3412POPC   GL1 5029   5.106  10.529   8.850
 3412POPC   GL2 5030   4.948  10.606   8.850
 3412POPC   C1A 5031   5.135  10.476   8.550
 3412POPC   D2A 5032   5.083  10.574   8.250
 3412POPC   C3A 5033   5.135  10.534   7.950
 3412POPC   C4A 5034   5.076  10.505   7.650
 3412POPC   C1B 5035   4.908  10.612   8.550
 3412POPC   C2B 5036   4.881  10.650   8.250
 3412POPC   C3B 5037   4.823  10.597   7.950
 3412POPC   C4B 5038   4.870  10.618   7.650
 3413POPC   NC3 5039   7.422  36.916   9.450
 3413POPC   PO4 5040   7.416  36.934   9.150
 3413POPC   GL1 5041   7.385  36.922   8.850
 3413POPC   GL2 5042   7.470  37.032   8.850
 3413POPC   C1A 5043   7.463  36.876   8.550
 3413POPC   D2A 5044   7.455  36.927   8.250
 3413POPC   C3A 5045   7.464  36.935   7.950
 3413POPC   C4A 5046   7.444  36.932   7.650
 3413POPC   C1B 5047   7.575  37.059   8.550
 3413POPC   C2B 5048   7.630  37.092   8.250
 3413POPC   C3B 5049   7.561  37.098   7.950
 3413POPC   C4B 5050   7.627  37.092   7.650
 3414POPC   NC3 5051  26.808  33.040   9.450
 3414POPC   PO4 5052  26.818  32.982   9.150
 3414POPC   GL1 5053  26.787  33.047   8.850
 3414POPC   GL2 5054  26.910  33.010   8.850
 3414POPC   C1A 5055  26.847  33.073   8.550
 3414POPC   D2A 5056  26.785  32.989   8.250
 3414POPC   C3A 5057  26.799  33.049   7.950
 3414POPC   C4A 5058  26.843  33.072   7.650
 3414POPC   C1B 5059  27.075  33.079   8.550
 3414POPC   C2B 5060  27.053  33.081   8.250
 3414POPC   C3B 5061  27.030  33.027   7.950
 3414POPC   C4B 5062  27.050  33.094   7.650
 3415POPC   NC3 5063  28.337  11.317   9.450
 3415POPC   PO4 5064  28.376  11.277   9.150
 3415POPC   GL1 5065  28.371  11.255   8.850
 3415POPC   GL2 5066  28.542  11.268   8.850
 3415POPC   C1A 5067  28.331  11.334   8.550
 3415POPC   D2A 5068  28.410  11.316   8.250
 3415POPC   C3A 5069  28.333  11.259   7.950
 3415POPC   C4A 5070  28.364  11.349   7.650
 3415POPC   C1B 5071  28.643  11.274   8.550
 3415POPC   C2B 5072  28.614  11.322   8.250
 3415POPC   C3B 5073  28.592  11.295   7.950
 3415POPC   C4B 5074  28.665  11.298   7.650
 3416POPC   NC3 5075  35.340  29.171   9.450
 3416POPC   PO4 5076  35.331  29.115   9.150
 3416POPC   GL1 5077  35.336  29.121   8.850
 3416POPC   GL2 5078  35.425  29.223   8.850
 3416POPC   C1A 5079  35.347  29.167   8.550
 3416POPC   D2A 5080  35.328  29.175   8.250
 3416POPC   C3A 5081  35.369  29.109   7.950
 3416POPC   C4A 5082  35.364  29.147   7.650
 3416POPC   C1B 5083  35.494  29.380   8.550
 3416POPC   C2B 5084  35.436  29.398   8.250
 3416POPC   C3B 5085  35.444  29.386   7.950
 3416POPC   C4B 5086  35.470  29.394   7.650
 3417POPC   NC3 5087  32.297  22.971   9.450
 3417POPC   PO4 5088  32.212  22.955   9.150
 3417POPC   GL1 5089  32.233  22.926   8.850
 3417POPC   GL2 5090  32.133  22.835   8.850
 3417POPC   C1A 5091  32.269  22.961   8.550
 3417POPC   D2A 5092  32.200  22.942   8.250
 3417POPC   C3A 5093  32.255  22.930   7.950
 3417POPC   C4A 5094  32.281  22.911   7.650
 3417POPC   C1B 5095  32.066  22.727   8.550
 3417POPC   C2B 5096  32.090  22.712   8.250
 3417POPC   C3B 5097  32.089  22.697   7.950
 3417POPC   C4B 5098  32.143  22.691   7.650
 3418POPC   NC3 5099  42.288  38.428   9.450
 3418POPC   PO4 5100  42.363  38.441   9.150
 3418POPC   GL1 5101  42.296  38.491   8.850
 3418POPC   GL2 5102  42.364  38.556   8.850
 3418POPC   C1A 5103  42.382  38.436   8.550
 3418POPC   D2A 5104  42.291  38.446   8.250
 3418POPC   C3A 5105  42.340  38.429   7.950
 3418POPC   C4A 5106  42.312  38.499   7.650
 3418POPC   C1B 5107  42.372  38.659   8.550
 3418POPC   C2B 5108  42.344  38.684   8.250
 3418POPC   C3B 5109  42.351  38.676   7.950
 3418POPC   C4B 5110  42.427  38.693   7.650
 3419POPC   NC3 5111   2.014  22.908   9.450
 3419POPC   PO4 5112   2.028  22.988   9.150
 3419POPC   GL1 5113   1.998  22.978   8.850
 3419POPC   GL2 5114   1.986  22.839   8.850
 3419POPC   C1A 5115   1.988  22.924   8.550
 3419POPC   D2A 5116   2.003  22.961   8.250
 3419POPC   C3A 5117   2.037  22.951   7.950
 3419POPC   C4A 5118   1.963  22.906   7.650
 3419POPC   C1B 5119   1.927  22.682   8.550
 3419POPC   C2B 5120   1.864  22.746   8.250
 3419POPC   C3B 5121   1.869  22.743   7.950
 3419POPC   C4B 5122   1.936  22.676   7.650
 3420POPC   NC3 5123  32.207  29.161   9.450
 3420POPC   PO4 5124  32.289  29.131   9.150
 3420POPC   GL1 5125  32.219  29.179   8.850
 3420POPC   GL2 5126  32.394  29.149   8.850
 3420POPC   C1A 5127  32.260  29.136   8.550
 3420POPC   D2A 5128  32.222  29.096   8.250
 3420POPC   C3A 5129  32.254  29.141   7.950
 3420POPC   C4A 5130  32.250  29.191   7.650
 3420POPC   C1B 5131  32.531  29.186   8.550
 3420POPC   C2B 5132  32.537  29.142   8.250
 3420POPC   C3B 5133  32.456  29.114   7.950
 3420POPC   C4B 5134  32.495  29.098   7.650
 3421POPC   NC3 5135  33.069  19.872   9.450
 3421POPC   PO4 5136  32.989  19.816   9.150
 3421POPC   GL1 5137  33.003  19.854   8.850
 3421POPC   GL2 5138  33.117  19.854   8.850
 3421POPC   C1A 5139  33.003  19.873   8.550
 3421POPC   D2A 5140  33.036  19.854   8.250
 3421POPC   C3A 5141  33.032  19.819   7.950
 3421POPC   C4A 5142  33.008  19.820   7.650
 3421POPC   C1B 5143  33.243  19.843   8.550
 3421POPC   C2B 5144  33.235  19.881   8.250
 3421POPC   C3B 5145  33.232  19.846   7.950
 3421POPC   C4B 5146  33.272  19.904   7.650
 3422POPC   NC3 5147  29.177  15.990   9.450
 3422POPC   PO4 5148  29.189  15.968   9.150
 3422POPC   GL1 5149  29.125  16.001   8.850
 3422POPC   GL2 5150  29.258  16.021   8.850
 3422POPC   C1A 5151  29.192  15.917   8.550
 3422POPC   D2A 5152  29.145  15.954   8.250
 3422POPC   C3A 5153  29.164  15.946   7.950
 3422POPC   C4A 5154  29.174  15.981   7.650
 3422POPC   C1B 5155  29.242  16.165   8.550
 3422POPC   C2B 5156  29.314  16.206   8.250
 3422POPC   C3B 5157  29.281  16.205   7.950
 3422POPC   C4B 5158  29.303  16.170   7.650
 3423POPC   NC3 5159  39.985  15.199   9.450
 3423POPC   PO4 5160  40.012  15.210   9.150
 3423POPC   GL1 5161  40.045  15.200   8.850
 3423POPC   GL2 5162  39.903  15.103   8.850
 3423POPC   C1A 5163  39.958  15.151   8.550
 3423POPC   D2A 5164  39.984  15.204   8.250
 3423POPC   C3A 5165  40.024  15.190   7.950
 3423POPC   C4A 5166  40.018  15.135   7.650
 3423POPC   C1B 5167  39.798  15.134   8.550
 3423POPC   C2B 5168  39.819  15.131   8.250
 3423POPC   C3B 5169  39.768  15.046   7.950
 3423POPC   C4B 5170  39.764  15.123   7.650
 3424POPC   NC3 5171  20.623  33.812   9.450
 3424POPC   PO4 5172  20.644  33.765   9.150
 3424POPC   GL1 5173  20.582  33.814   8.850
 3424POPC   GL2 5174  20.667  33.694   8.850
 3424POPC   C1A 5175  20.576  33.849   8.550
 3424POPC   D2A 5176  20.624  33.839   8.250
 3424POPC   C3A 5177  20.584  33.760   7.950
 3424POPC   C4A 5178  20.638  33.844   7.650
 3424POPC   C1B 5179  20.779  33.600   8.550
 3424POPC   C2B 5180  20.800  33.671   8.250
 3424POPC   C3B 5181  20.766  33.599   7.950
 3424POPC   C4B 5182  20.782  33.611   7.650
 3425POPC   NC3 5183  19.041  15.154   9.450
 3425POPC   PO4 5184  19.073  15.170   9.150
 3425POPC   GL1 5185  19.096  15.164   8.850
 3425POPC   GL2 5186  19.039  15.322   8.850
 3425POPC   C1A 5187  19.019  15.228   8.550
 3425POPC   D2A 5188  19.047  15.161   8.250
 3425POPC   C3A 5189  19.029  15.147   7.950
 3425POPC   C4A 5190  19.095  15.141   7.650
 3425POPC   C1B 5191  18.955  15.404   8.550
 3425POPC   C2B 5192  18.918  15.435   8.250
 3425POPC   C3B 5193  19.001  15.374   7.950
 3425POPC   C4B 5194  18.912  15.375   7.650
 3426POPC   NC3 5195  19.787  44.701   9.450
 3426POPC   PO4 5196  19.798  44.621   9.150
 3426POPC   GL1 5197  19.804  44.667   8.850
 3426POPC   GL2 5198  19.756  44.696   8.850
 3426POPC   C1A 5199  19.883  44.684   8.550
 3426POPC   D2A 5200  19.859  44.656   8.250
 3426POPC   C3A 5201  19.805  44.696   7.950
 3426POPC   C4A 5202  19.790  44.708   7.650
 3426POPC   C1B 5203  19.593  44.643   8.550
 3426POPC   C2B 5204  19.623  44.658   8.250
 3426POPC   C3B 5205  19.571  44.624   7.950
 3426POPC   C4B 5206  19.545  44.653   7.650
 3427POPC   NC3 5207  19.823   3.579   9.450
 3427POPC   PO4 5208  19.826   3.493   9.150
 3427POPC   GL1 5209  19.825   3.551   8.850
 3427POPC   GL2 5210  19.897   3.674   8.850
 3427POPC   C1A 5211  19.794   3.590   8.550
 3427POPC   D2A 5212  19.796   3.516   8.250
 3427POPC   C3A 5213  19.827   3.589   7.950
 3427POPC   C4A 5214  19.861   3.499   7.650
 3427POPC   C1B 5215  20.065   3.737   8.550
 3427POPC   C2B 5216  20.050   3.707   8.250
 3427POPC   C3B 5217  19.997   3.726   7.950
 3427POPC   C4B 5218  20.040   3.724   7.650
 3428POPC   NC3 5219  18.313  31.465   9.450
 3428POPC   PO4 5220  18.240  31.465   9.150
 3428POPC   GL1 5221  18.256  31.431   8.850
 3428POPC   GL2 5222  18.367  31.477   8.850
 3428POPC   C1A 5223  18.240  31.482   8.550
 3428POPC   D2A 5224  18.275  31.479   8.250
 3428POPC   C3A 5225  18.327  31.440   7.950
 3428POPC   C4A 5226  18.241  31.503   7.650
 3428POPC   C1B 5227  18.496  31.466   8.550
 3428POPC   C2B 5228  18.564  31.502   8.250
 3428POPC   C3B 5229  18.497  31.482   7.950
 3428POPC   C4B 5230  18.494  31.524   7.650
 3429POPC   NC3 5231  43.094  15.945   9.450
 3429POPC   PO4 5232  43.126  15.958   9.150
 3429POPC   GL1 5233  43.082  15.937   8.850
 3429POPC   GL2 5234  43.020  15.830   8.850
 3429POPC   C1A 5235  43.084  15.986   8.550
 3429POPC   D2A 5236  43.128  15.977   8.250
 3429POPC   C3A 5237  43.083  15.989   7.950
 3429POPC   C4A 5238  43.073  15.959   7.650
 3429POPC   C1B 5239  42.941  15.800   8.550
 3429POPC   C2B 5240  42.893  15.807   8.250
 3429POPC   C3B 5241  42.978  15.781   7.950
 3429POPC   C4B 5242  42.895  15.739   7.650
 3430POPC   NC3 5243   9.006  37.686   9.450
 3430POPC   PO4 5244   9.022  37.633   9.150
 3430POPC   GL1 5245   8.964  37.709   8.850
 3430POPC   GL2 5246   8.847  37.746   8.850
 3430POPC   C1A 5247   8.988  37.690   8.550
 3430POPC   D2A 5248   8.987  37.707   8.250
 3430POPC   C3A 5249   8.965  37.710   7.950
 3430POPC   C4A 5250   8.942  37.660   7.650
 3430POPC   C1B 5251   8.754  37.749   8.550
 3430POPC   C2B 5252   8.720  37.748   8.250
 3430POPC   C3B 5253   8.689  37.702   7.950
 3430POPC   C4B 5254   8.682  37.744   7.650
 3431POPC   NC3 5255  14.361  25.258   9.450
 3431POPC   PO4 5256  14.410  25.229   9.150
 3431POPC   GL1 5257  14.365  25.237   8.850
 3431POPC   GL2 5258  14.472  25.105   8.850
 3431POPC   C1A 5259  14.402  25.302   8.550
 3431POPC   D2A 5260  14.421  25.289   8.250
 3431POPC   C3A 5261  14.374  25.231   7.950
 3431POPC   C4A 5262  14.422  25.313   7.650
 3431POPC   C1B 5263  14.421  25.051   8.550
 3431POPC   C2B 5264  14.478  25.047   8.250
 3431POPC   C3B 5265  14.431  25.065   7.950
 3431POPC   C4B 5266  14.470  25.046   7.650
 3432POPC   NC3 5267  27.559  22.917   9.450
 3432POPC   PO4 5268  27.628  22.901   9.150
 3432POPC   GL1 5269  27.582  22.902   8.850
 3432POPC   GL2 5270  27.691  23.029   8.850
 3432POPC   C1A 5271  27.582  22.963   8.550
 3432POPC   D2A 5272  27.579  22.959   8.250
 3432POPC   C3A 5273  27.581  22.932   7.950
 3432POPC   C4A 5274  27.611  22.986   7.650
 3432POPC   C1B 5275  27.808  23.037   8.550
 3432POPC   C2B 5276  27.794  23.059   8.250
 3432POPC   C3B 5277  27.822  23.057   7.950
 3432POPC   C4B 5278  27.785  23.066   7.650
 3433POPC   NC3 5279   2.807  41.531   9.450
 3433POPC   PO4 5280   2.760  41.565   9.150
 3433POPC   GL1 5281   2.737  41.547   8.850
 3433POPC   GL2 5282   2.864  41.704   8.850
 3433POPC   C1A 5283   2.749  41.593   8.550
 3433POPC   D2A 5284   2.787  41.557   8.250
 3433POPC   C3A 5285   2.728  41.601   7.950
 3433POPC   C4A 5286   2.733  41.547   7.650
 3433POPC   C1B 5287   2.884  41.827   8.550
 3433POPC   C2B 5288   2.848  41.751   8.250
 3433POPC   C3B 5289   2.830  41.768   7.950
 3433POPC   C4B 5290   2.831  41.779   7.650
 3434POPC   NC3 5291  40.771  22.125   9.450
 3434POPC   PO4 5292  40.735  22.122   9.150
 3434POPC   GL1 5293  40.784  22.180   8.850
 3434POPC   GL2 5294  40.649  22.147   8.850
 3434POPC   C1A 5295  40.806  22.195   8.550
 3434POPC   D2A 5296  40.778  22.172   8.250
 3434POPC   C3A 5297  40.770  22.178   7.950
 3434POPC   C4A 5298  40.788  22.130   7.650
 3434POPC   C1B 5299  40.556  22.054   8.550
 3434POPC   C2B 5300  40.512  22.068   8.250
 3434POPC   C3B 5301  40.512  22.021   7.950
 3434POPC   C4B 5302  40.514  22.001   7.650
 3435POPC   NC3 5303  36.918  40.801   9.450
 3435POPC   PO4 5304  36.899  40.749   9.150
 3435POPC   GL1 5305  36.906  40.762   8.850
 3435POPC   GL2 5306  36.907  40.622   8.850
 3435POPC   C1A 5307  36.935  40.750   8.550
 3435POPC   D2A 5308  36.883  40.781   8.250
 3435POPC   C3A 5309  36.914  40.753   7.950
 3435POPC   C4A 5310  36.901  40.824   7.650
 3435POPC   C1B 5311  36.945  40.547   8.550
 3435POPC   C2B 5312  36.905  40.563   8.250
 3435POPC   C3B 5313  36.868  40.510   7.950
 3435POPC   C4B 5314  36.940  40.498   7.650
 3436POPC   NC3 5315  44.620   9.699   9.450
 3436POPC   PO4 5316  44.679   9.758   9.150
 3436POPC   GL1 5317  44.664   9.783   8.850
 3436POPC   GL2 5318  44.703   9.602   8.850
 3436POPC   C1A 5319  44.675   9.729   8.550
 3436POPC   D2A 5320  44.627   9.762   8.250
 3436POPC   C3A 5321  44.701   9.760   7.950
 3436POPC   C4A 5322  44.688   9.766   7.650
 3436POPC   C1B 5323  44.707   9.487   8.550
 3436POPC   C2B 5324  44.712   9.524   8.250
 3436POPC   C3B 5325  44.643   9.525   7.950
 3436POPC   C4B 5326  44.680   9.518   7.650
 3437POPC   NC3 5327  26.828  11.333   9.450
 3437POPC   PO4 5328  26.819  11.290   9.150
 3437POPC   GL1 5329  26.795  11.334   8.850
 3437POPC   GL2 5330  26.801  11.176   8.850
 3437POPC   C1A 5331  26.854  11.259   8.550
 3437POPC   D2A 5332  26.845  11.290   8.250
 3437POPC   C3A 5333  26.781  11.308   7.950
 3437POPC   C4A 5334  26.834  11.297   7.650
 3437POPC   C1B 5335  26.802  11.092   8.550
 3437POPC   C2B 5336  26.864  11.013   8.250
 3437POPC   C3B 5337  26.822  11.023   7.950
 3437POPC   C4B 5338  26.807  11.021   7.650
 3438POPC   NC3 5339  18.331   7.438   9.450
 3438POPC   PO4 5340  18.296   7.432   9.150
 3438POPC   GL1 5341  18.332   7.408   8.850
 3438POPC   GL2 5342  18.308   7.500   8.850
 3438POPC   C1A 5343  18.295   7.387   8.550
 3438POPC   D2A 5344  18.257   7.395   8.250
 3438POPC   C3A 5345  18.294   7.465   7.950
 3438POPC   C4A 5346  18.300   7.458   7.650
 3438POPC   C1B 5347  18.326   7.680   8.550
 3438POPC   C2B 5348  18.390   7.697   8.250
 3438POPC   C3B 5349  18.397   7.648   7.950
 3438POPC   C4B 5350  18.387   7.624   7.650
 3439POPC   NC3 5351  21.342  34.592   9.450
 3439POPC   PO4 5352  21.417  34.622   9.150
 3439POPC   GL1 5353  21.365  34.592   8.850
 3439POPC   GL2 5354  21.538  34.568   8.850
 3439POPC   C1A 5355  21.352  34.612   8.550
 3439POPC   D2A 5356  21.419  34.625   8.250
 3439POPC   C3A 5357  21.356  34.555   7.950
 3439POPC   C4A 5358  21.423  34.569   7.650
 3439POPC   C1B 5359  21.645  34.496   8.550
 3439POPC   C2B 5360  21.642  34.517   8.250
 3439POPC   C3B 5361  21.585  34.539   7.950
 3439POPC   C4B 5362  21.636  34.452   7.650
 3440POPC   NC3 5363  11.253   9.012   9.450
 3440POPC   PO4 5364  11.285   8.995   9.150
 3440POPC   GL1 5365  11.271   8.965   8.850
 3440POPC   GL2 5366  11.280   8.897   8.850
 3440POPC   C1A 5367  11.348   8.982   8.550
 3440POPC   D2A 5368  11.316   8.973   8.250
 3440POPC   C3A 5369  11.339   8.972   7.950
 3440POPC   C4A 5370  11.316   8.941   7.650
 3440POPC   C1B 5371  11.339   8.714   8.550
 3440POPC   C2B 5372  11.333   8.702   8.250
 3440POPC   C3B 5373  11.284   8.732   7.950
 3440POPC   C4B 5374  11.273   8.728   7.650
 3441POPC   NC3 5375  35.361   2.734   9.450
 3441POPC   PO4 5376  35.360   2.723   9.150
 3441POPC   GL1 5377  35.327   2.775   8.850
 3441POPC   GL2 5378  35.231   2.729   8.850
 3441POPC   C1A 5379  35.337   2.799   8.550
 3441POPC   D2A 5380  35.306   2.738   8.250
 3441POPC   C3A 5381  35.335   2.766   7.950
 3441POPC   C4A 5382  35.305   2.719   7.650
 3441POPC   C1B 5383  35.123   2.652   8.550
 3441POPC   C2B 5384  35.114   2.589   8.250
 3441POPC   C3B 5385  35.101   2.599   7.950
 3441POPC   C4B 5386  35.113   2.617   7.650
 3442POPC   NC3 5387  27.547   1.975   9.450
 3442POPC   PO4 5388  27.593   2.038   9.150
 3442POPC   GL1 5389  27.584   1.994   8.850
 3442POPC   GL2 5390  27.690   1.910   8.850
 3442POPC   C1A 5391  27.610   1.983   8.550
 3442POPC   D2A 5392  27.606   1.996   8.250
 3442POPC   C3A 5393  27.580   1.960   7.950
 3442POPC   C4A 5394  27.596   1.998   7.650
 3442POPC   C1B 5395  27.719   1.767   8.550
 3442POPC   C2B 5396  27.748   1.773   8.250
 3442POPC   C3B 5397  27.696   1.813   7.950
 3442POPC   C4B 5398  27.758   1.748   7.650
 3443POPC   NC3 5399  41.535  14.364   9.450
 3443POPC   PO4 5400  41.544  14.436   9.150
 3443POPC   GL1 5401  41.546  14.400   8.850
 3443POPC   GL2 5402  41.538  14.514   8.850
 3443POPC   C1A 5403  41.596  14.444   8.550
 3443POPC   D2A 5404  41.542  14.434   8.250
 3443POPC   C3A 5405  41.542  14.360   7.950
 3443POPC   C4A 5406  41.529  14.412   7.650
 3443POPC   C1B 5407  41.499  14.600   8.550
 3443POPC   C2B 5408  41.469  14.626   8.250
 3443POPC   C3B 5409  41.421  14.616   7.950
 3443POPC   C4B 5410  41.420  14.599   7.650
 3444POPC   NC3 5411  32.991   9.724   9.450
 3444POPC   PO4 5412  33.066   9.712   9.150
 3444POPC   GL1 5413  33.010   9.739   8.850
 3444POPC   GL2 5414  32.946   9.670   8.850
 3444POPC   C1A 5415  33.000   9.703   8.550
 3444POPC   D2A 5416  33.067   9.713   8.250
 3444POPC   C3A 5417  33.003   9.769   7.950
 3444POPC   C4A 5418  32.979   9.745   7.650
 3444POPC   C1B 5419  32.853   9.539   8.550
 3444POPC   C2B 5420  32.914   9.570   8.250
 3444POPC   C3B 5421  32.892   9.519   7.950
 3444POPC   C4B 5422  32.920   9.530   7.650
 3445POPC   NC3 5423   1.985  23.720   9.450
 3445POPC   PO4 5424   1.947  23.714   9.150
 3445POPC   GL1 5425   1.995  23.722   8.850
 3445POPC   GL2 5426   2.069  23.777   8.850
 3445POPC   C1A 5427   2.035  23.711   8.550
 3445POPC   D2A 5428   1.967  23.702   8.250
 3445POPC   C3A 5429   1.972  23.724   7.950
 3445POPC   C4A 5430   1.942  23.680   7.650
 3445POPC   C1B 5431   2.168  23.832   8.550
 3445POPC   C2B 5432   2.170  23.872   8.250
 3445POPC   C3B 5433   2.228  23.842   7.950
 3445POPC   C4B 5434   2.216  23.894   7.650
 3446POPC   NC3 5435  23.761   9.705   9.450
 3446POPC   PO4 5436  23.754   9.733   9.150
 3446POPC   GL1 5437  23.756   9.781   8.850
 3446POPC   GL2 5438  23.606   9.866   8.850
 3446POPC   C1A 5439  23.736   9.717   8.550
 3446POPC   D2A 5440  23.710   9.769   8.250
 3446POPC   C3A 5441  23.666   9.766   7.950
 3446POPC   C4A 5442  23.737   9.732   7.650
 3446POPC   C1B 5443  23.582   9.911   8.550
 3446POPC   C2B 5444  23.547   9.952   8.250
 3446POPC   C3B 5445  23.488   9.935   7.950
 3446POPC   C4B 5446  23.531   9.913   7.650
 3447POPC   NC3 5447  42.379  33.817   9.450
 3447POPC   PO4 5448  42.332  33.782   9.150
 3447POPC   GL1 5449  42.317  33.830   8.850
 3447POPC   GL2 5450  42.462  33.868   8.850
 3447POPC   C1A 5451  42.330  33.833   8.550
 3447POPC   D2A 5452  42.325  33.825   8.250
 3447POPC   C3A 5453  42.372  33.818   7.950
 3447POPC   C4A 5454  42.307  33.812   7.650
 3447POPC   C1B 5455  42.533  33.925   8.550
 3447POPC   C2B 5456  42.558  33.892   8.250
 3447POPC   C3B 5457  42.529  33.898   7.950
 3447POPC   C4B 5458  42.556  33.899   7.650
 3448POPC   NC3 5459  36.901  35.349   9.450
 3448POPC   PO4 5460  36.938  35.338   9.150
 3448POPC   GL1 5461  36.942  35.341   8.850
 3448POPC   GL2 5462  36.992  35.307   8.850
 3448POPC   C1A 5463  36.876  35.365   8.550
 3448POPC   D2A 5464  36.925  35.338   8.250
 3448POPC   C3A 5465  36.941  35.361   7.950
 3448POPC   C4A 5466  36.939  35.371   7.650
 3448POPC   C1B 5467  37.071  35.202   8.550
 3448POPC   C2B 5468  37.103  35.167   8.250
 3448POPC   C3B 5469  37.148  35.244   7.950
 3448POPC   C4B 5470  37.114  35.215   7.650
 3449POPC   NC3 5471  40.037  36.895   9.450
 3449POPC   PO4 5472  40.056  36.874   9.150
 3449POPC   GL1 5473  39.962  36.931   8.850
 3449POPC   GL2 5474  39.925  37.036   8.850
 3449POPC   C1A 5475  39.969  36.929   8.550
 3449POPC   D2A 5476  40.020  36.900   8.250
 3449POPC   C3A 5477  40.000  36.889   7.950
 3449POPC   C4A 5478  40.039  36.922   7.650
 3449POPC   C1B 5479  39.937  37.153   8.550
 3449POPC   C2B 5480  39.886  37.176   8.250
 3449POPC   C3B 5481  39.883  37.105   7.950
 3449POPC   C4B 5482  39.871  37.173   7.650
 3450POPC   NC3 5483  36.919   1.208   9.450
 3450POPC   PO4 5484  36.887   1.190   9.150
 3450POPC   GL1 5485  36.908   1.191   8.850
 3450POPC   GL2 5486  37.053   1.255   8.850
 3450POPC   C1A 5487  36.865   1.186   8.550
 3450POPC   D2A 5488  36.949   1.180   8.250
 3450POPC   C3A 5489  36.902   1.218   7.950
 3450POPC   C4A 5490  36.950   1.264   7.650
 3450POPC   C1B 5491  37.100   1.242   8.550
 3450POPC   C2B 5492  37.133   1.277   8.250
 3450POPC   C3B 5493  37.164   1.273   7.950
 3450POPC   C4B 5494  37.185   1.334   7.650
 3451POPC   NC3 5495   0.393  30.684   9.450
 3451POPC   PO4 5496   0.434  30.699   9.150
 3451POPC   GL1 5497   0.402  30.649   8.850
 3451POPC   GL2 5498   0.548  30.704   8.850
 3451POPC   C1A 5499   0.396  30.719   8.550
 3451POPC   D2A 5500   0.423  30.739   8.250
 3451POPC   C3A 5501   0.414  30.647   7.950
 3451POPC   C4A 5502   0.442  30.707   7.650
 3451POPC   C1B 5503   0.669  30.706   8.550
 3451POPC   C2B 5504   0.660  30.701   8.250
 3451POPC   C3B 5505   0.736  30.664   7.950
 3451POPC   C4B 5506   0.660  30.680   7.650
 3452POPC   NC3 5507  25.216  24.494   9.450
 3452POPC   PO4 5508  25.280  24.480   9.150
 3452POPC   GL1 5509  25.278  24.498   8.850
 3452POPC   GL2 5510  25.405  24.574   8.850
 3452POPC   C1A 5511  25.238  24.465   8.550
 3452POPC   D2A 5512  25.306  24.494   8.250
 3452POPC   C3A 5513  25.227  24.487   7.950
 3452POPC   C4A 5514  25.303  24.515   7.650
 3452POPC   C1B 5515  25.505  24.581   8.550
 3452POPC   C2B 5516  25.482  24.660   8.250
 3452POPC   C3B 5517  25.527  24.643   7.950
 3452POPC   C4B 5518  25.445  24.662   7.650
 3453POPC   NC3 5519  22.163  19.045   9.450
 3453POPC   PO4 5520  22.210  19.089   9.150
 3453POPC   GL1 5521  22.157  19.063   8.850
 3453POPC   GL2 5522  22.185  18.995   8.850
 3453POPC   C1A 5523  22.128  19.012   8.550
 3453POPC   D2A 5524  22.184  19.074   8.250
 3453POPC   C3A 5525  22.194  19.098   7.950
 3453POPC   C4A 5526  22.195  19.053   7.650
 3453POPC   C1B 5527  22.222  18.817   8.550
 3453POPC   C2B 5528  22.271  18.782   8.250
 3453POPC   C3B 5529  22.268  18.810   7.950
 3453POPC   C4B 5530  22.314  18.806   7.650
 3454POPC   NC3 5531  28.397  30.724   9.450
 3454POPC   PO4 5532  28.407  30.679   9.150
 3454POPC   GL1 5533  28.326  30.713   8.850
 3454POPC   GL2 5534  28.236  30.782   8.850
 3454POPC   C1A 5535  28.324  30.648   8.550
 3454POPC   D2A 5536  28.398  30.700   8.250
 3454POPC   C3A 5537  28.405  30.700   7.950
 3454POPC   C4A 5538  28.378  30.677   7.650
 3454POPC   C1B 5539  28.153  30.901   8.550
 3454POPC   C2B 5540  28.226  30.868   8.250
 3454POPC   C3B 5541  28.172  30.862   7.950
 3454POPC   C4B 5542  28.170  30.809   7.650
 3455POPC   NC3 5543  23.738  11.320   9.450
 3455POPC   PO4 5544  23.699  11.349   9.150
 3455POPC   GL1 5545  23.690  11.333   8.850
 3455POPC   GL2 5546  23.617  11.238   8.850
 3455POPC   C1A 5547  23.700  11.294   8.550
 3455POPC   D2A 5548  23.672  11.279   8.250
 3455POPC   C3A 5549  23.754  11.257   7.950
 3455POPC   C4A 5550  23.697  11.315   7.650
 3455POPC   C1B 5551  23.450  11.279   8.550
 3455POPC   C2B 5552  23.504  11.276   8.250
 3455POPC   C3B 5553  23.470  11.221   7.950
 3455POPC   C4B 5554  23.488  11.238   7.650
 3456POPC   NC3 5555  43.922  15.212   9.450
 3456POPC   PO4 5556  43.936  15.221   9.150
 3456POPC   GL1 5557  43.892  15.134   8.850
 3456POPC   GL2 5558  43.981  15.173   8.850
 3456POPC   C1A 5559  43.901  15.172   8.550
 3456POPC   D2A 5560  43.898  15.208   8.250
 3456POPC   C3A 5561  43.892  15.191   7.950
 3456POPC   C4A 5562  43.891  15.134   7.650
 3456POPC   C1B 5563  44.095  15.123   8.550
 3456POPC   C2B 5564  44.112  15.138   8.250
 3456POPC   C3B 5565  44.124  15.181   7.950
 3456POPC   C4B 5566  44.149  15.134   7.650
 3457POPC   NC3 5567  14.430  12.110   9.450
 3457POPC   PO4 5568  14.416  12.035   9.150
 3457POPC   GL1 5569  14.376  12.111   8.850
 3457POPC   GL2 5570  14.537  12.048   8.850
 3457POPC   C1A 5571  14.429  12.098   8.550
 3457POPC   D2A 5572  14.363  12.031   8.250
 3457POPC   C3A 5573  14.396  12.063   7.950
 3457POPC   C4A 5574  14.367  12.049   7.650
 3457POPC   C1B 5575  14.666  12.080   8.550
 3457POPC   C2B 5576  14.685  12.028   8.250
 3457POPC   C3B 5577  14.651  12.104   7.950
 3457POPC   C4B 5578  14.663  12.061   7.650
 3458POPC   NC3 5579   1.246  12.105   9.450
 3458POPC   PO4 5580   1.193  12.094   9.150
 3458POPC   GL1 5581   1.255  12.056   8.850
 3458POPC   GL2 5582   1.207  12.154   8.850
 3458POPC   C1A 5583   1.254  12.062   8.550
 3458POPC   D2A 5584   1.178  12.095   8.250
 3458POPC   C3A 5585   1.234  12.118   7.950
 3458POPC   C4A 5586   1.196  12.074   7.650
 3458POPC   C1B 5587   1.264  12.324   8.550
 3458POPC   C2B 5588   1.248  12.277   8.250
 3458POPC   C3B 5589   1.215  12.305   7.950
 3458POPC   C4B 5590   1.296  12.310   7.650
 3459POPC   NC3 5591  16.000  36.100   9.450
 3459POPC   PO4 5592  15.910  36.085   9.150
 3459POPC   GL1 5593  15.956  36.112   8.850
 3459POPC   GL2 5594  15.945  36.008   8.850
 3459POPC   C1A 5595  16.000  36.117   8.550
 3459POPC   D2A 5596  15.941  36.087   8.250
 3459POPC   C3A 5597  15.909  36.125   7.950
 3459POPC   C4A 5598  15.989  36.103   7.650
 3459POPC   C1B 5599  16.011  35.853   8.550
 3459POPC   C2B 5600  16.003  35.931   8.250
 3459POPC   C3B 5601  16.004  35.934   7.950
 3459POPC   C4B 5602  15.996  35.918   7.650
 3460POPC   NC3 5603  12.816  26.825   9.450
 3460POPC   PO4 5604  12.858  26.774   9.150
 3460POPC   GL1 5605  12.812  26.822   8.850
 3460POPC   GL2 5606  12.772  26.946   8.850
 3460POPC   C1A 5607  12.847  26.821   8.550
 3460POPC   D2A 5608  12.814  26.776   8.250
 3460POPC   C3A 5609  12.850  26.772   7.950
 3460POPC   C4A 5610  12.820  26.832   7.650
 3460POPC   C1B 5611  12.662  26.961   8.550
 3460POPC   C2B 5612  12.706  26.995   8.250
 3460POPC   C3B 5613  12.638  26.952   7.950
 3460POPC   C4B 5614  12.719  26.990   7.650
 3461POPC   NC3 5615  10.558  32.991   9.450
 3461POPC   PO4 5616  10.555  33.021   9.150
 3461POPC   GL1 5617  10.533  33.055   8.850
 3461POPC   GL2 5618  10.456  32.926   8.850
 3461POPC   C1A 5619  10.530  33.000   8.550
 3461POPC   D2A 5620  10.531  33.009   8.250
 3461POPC   C3A 5621  10.542  33.003   7.950
 3461POPC   C4A 5622  10.478  33.067   7.650
 3461POPC   C1B 5623  10.313  32.925   8.550
 3461POPC   C2B 5624  10.352  32.921   8.250
 3461POPC   C3B 5625  10.366  32.856   7.950
 3461POPC   C4B 5626  10.338  32.870   7.650
 3462POPC   NC3 5627  31.467  38.499   9.450
 3462POPC   PO4 5628  31.454  38.446   9.150
 3462POPC   GL1 5629  31.497  38.421   8.850
 3462POPC   GL2 5630  31.348  38.530   8.850
 3462POPC   C1A 5631  31.453  38.409   8.550
 3462POPC   D2A 5632  31.427  38.439   8.250
 3462POPC   C3A 5633  31.436  38.453   7.950
 3462POPC   C4A 5634  31.469  38.500   7.650
 3462POPC   C1B 5635  31.316  38.632   8.550
 3462POPC   C2B 5636  31.273  38.612   8.250
 3462POPC   C3B 5637  31.288  38.596   7.950
 3462POPC   C4B 5638  31.273  38.555   7.650
 3463POPC   NC3 5639  32.263  36.918   9.450
 3463POPC   PO4 5640  32.245  36.936   9.150
 3463POPC   GL1 5641  32.293  36.906   8.850
 3463POPC   GL2 5642  32.358  36.789   8.850
 3463POPC   C1A 5643  32.275  36.885   8.550
 3463POPC   D2A 5644  32.274  36.940   8.250
 3463POPC   C3A 5645  32.274  36.882   7.950
 3463POPC   C4A 5646  32.201  36.926   7.650
 3463POPC   C1B 5647  32.332  36.682   8.550
 3463POPC   C2B 5648  32.416  36.691   8.250
 3463POPC   C3B 5649  32.399  36.732   7.950
 3463POPC   C4B 5650  32.398  36.711   7.650
 3464POPC   NC3 5651  41.547  15.982   9.450
 3464POPC   PO4 5652  41.538  15.997   9.150
 3464POPC   GL1 5653  41.608  15.966   8.850
 3464POPC   GL2 5654  41.416  15.920   8.850
 3464POPC   C1A 5655  41.561  15.944   8.550
 3464POPC   D2A 5656  41.527  15.960   8.250
 3464POPC   C3A 5657  41.587  15.928   7.950
 3464POPC   C4A 5658  41.522  15.978   7.650
 3464POPC   C1B 5659  41.318  15.971   8.550
 3464POPC   C2B 5660  41.306  15.897   8.250
 3464POPC   C3B 5661  41.305  15.925   7.950
 3464POPC   C4B 5662  41.343  15.959   7.650
 3465POPC   NC3 5663  24.507  33.001   9.450
 3465POPC   PO4 5664  24.441  33.061   9.150
 3465POPC   GL1 5665  24.516  32.993   8.850
 3465POPC   GL2 5666  24.409  33.130   8.850
 3465POPC   C1A 5667  24.518  32.989   8.550
 3465POPC   D2A 5668  24.504  33.049   8.250
 3465POPC   C3A 5669  24.490  33.039   7.950
 3465POPC   C4A 5670  24.516  33.049   7.650
 3465POPC   C1B 5671  24.432  33.261   8.550
 3465POPC   C2B 5672  24.386  33.253   8.250
 3465POPC   C3B 5673  24.347  33.218   7.950
 3465POPC   C4B 5674  24.363  33.271   7.650
 3466POPC   NC3 5675  30.731  43.072   9.450
 3466POPC   PO4 5676  30.734  43.119   9.150
 3466POPC   GL1 5677  30.679  43.149   8.850
 3466POPC   GL2 5678  30.653  43.257   8.850
 3466POPC   C1A 5679  30.656  43.156   8.550
 3466POPC   D2A 5680  30.741  43.066   8.250
 3466POPC   C3A 5681  30.728  43.069   7.950
 3466POPC   C4A 5682  30.719  43.101   7.650
 3466POPC   C1B 5683  30.610  43.389   8.550
 3466POPC   C2B 5684  30.601  43.316   8.250
 3466POPC   C3B 5685  30.620  43.355   7.950
 3466POPC   C4B 5686  30.624  43.404   7.650
 3467POPC   NC3 5687  20.615  43.114   9.450
 3467POPC   PO4 5688  20.639  43.063   9.150
 3467POPC   GL1 5689  20.659  43.112   8.850
 3467POPC   GL2 5690  20.519  43.028   8.850
 3467POPC   C1A 5691  20.634  43.107   8.550
 3467POPC   D2A 5692  20.605  43.071   8.250
 3467POPC   C3A 5693  20.571  43.153   7.950
 3467POPC   C4A 5694  20.647  43.135   7.650
 3467POPC   C1B 5695  20.423  42.907   8.550
 3467POPC   C2B 5696  20.490  42.936   8.250
 3467POPC   C3B 5697  20.509  42.911   7.950
 3467POPC   C4B 5698  20.488  42.902   7.650
 3468POPC   NC3 5699  12.104   8.221   9.450
 3468POPC   PO4 5700  12.091   8.230   9.150
 3468POPC   GL1 5701  12.067   8.173   8.850
 3468POPC   GL2 5702  12.099   8.041   8.850
 3468POPC   C1A 5703  12.106   8.194   8.550
 3468POPC   D2A 5704  12.074   8.207   8.250
 3468POPC   C3A 5705  12.119   8.206   7.950
 3468POPC   C4A 5706  12.111   8.156   7.650
 3468POPC   C1B 5707  12.168   7.930   8.550
 3468POPC   C2B 5708  12.147   7.949   8.250
 3468POPC   C3B 5709  12.217   7.937   7.950
 3468POPC   C4B 5710  12.181   7.982   7.650
 3469POPC   NC3 5711  17.543  23.727   9.450
 3469POPC   PO4 5712  17.485  23.710   9.150
 3469POPC   GL1 5713  17.543  23.714   8.850
 3469POPC   GL2 5714  17.386  23.799   8.850
 3469POPC   C1A 5715  17.523  23.713   8.550
 3469POPC   D2A 5716  17.522  23.710   8.250
 3469POPC   C3A 5717  17.536  23.716   7.950
 3469POPC   C4A 5718  17.489  23.733   7.650
 3469POPC   C1B 5719  17.383  23.914   8.550
 3469POPC   C2B 5720  17.399  23.879   8.250
 3469POPC   C3B 5721  17.380  23.895   7.950
 3469POPC   C4B 5722  17.398  23.930   7.650
 3470POPC   NC3 5723   2.796  34.585   9.450
 3470POPC   PO4 5724   2.727  34.583   9.150
 3470POPC   GL1 5725   2.752  34.594   8.850
 3470POPC   GL2 5726   2.668  34.698   8.850
 3470POPC   C1A 5727   2.725  34.617   8.550
 3470POPC   D2A 5728   2.757  34.537   8.250
 3470POPC   C3A 5729   2.758  34.608   7.950
 3470POPC   C4A 5730   2.720  34.623   7.650
 3470POPC   C1B 5731   2.564  34.745   8.550
 3470POPC   C2B 5732   2.556  34.739   8.250
 3470POPC   C3B 5733   2.591  34.751   7.950
 3470POPC   C4B 5734   2.588  34.775   7.650
 3471POPC   NC3 5735   2.810  11.303   9.450
 3471POPC   PO4 5736   2.806  11.318   9.150
 3471POPC   GL1 5737   2.805  11.326   8.850
 3471POPC   GL2 5738   2.857  11.374   8.850
 3471POPC   C1A 5739   2.732  11.256   8.550
 3471POPC   D2A 5740   2.741  11.341   8.250
 3471POPC   C3A 5741   2.806  11.314   7.950
 3471POPC   C4A 5742   2.747  11.344   7.650
 3471POPC   C1B 5743   2.834  11.503   8.550
 3471POPC   C2B 5744   2.875  11.561   8.250
 3471POPC   C3B 5745   2.911  11.554   7.950
 3471POPC   C4B 5746   2.888  11.487   7.650
 3472POPC   NC3 5747  18.237  44.648   9.450
 3472POPC   PO4 5748  18.314  44.637   9.150
 3472POPC   GL1 5749  18.281  44.676   8.850
 3472POPC   GL2 5750  18.184  44.712   8.850
 3472POPC   C1A 5751  18.300  44.629   8.550
 3472POPC   D2A 5752  18.263  44.694   8.250
 3472POPC   C3A 5753  18.312  44.691   7.950
 3472POPC   C4A 5754  18.292  44.662   7.650
 3472POPC   C1B 5755  18.020  44.677   8.550
 3472POPC   C2B 5756  18.018  44.654   8.250
 3472POPC   C3B 5757  18.052  44.656   7.950
 3472POPC   C4B 5758  18.078  44.714   7.650
 3473POPC   NC3 5759  12.031  13.603   9.450
 3473POPC   PO4 5760  12.077  13.631   9.150
 3473POPC   GL1 5761  12.063  13.617   8.850
 3473POPC   GL2 5762  12.103  13.531   8.850
 3473POPC   C1A 5763  12.029  13.620   8.550
 3473POPC   D2A 5764  12.032  13.587   8.250
 3473POPC   C3A 5765  12.089  13.584   7.950
 3473POPC   C4A 5766  12.056  13.585   7.650
 3473POPC   C1B 5767  12.037  13.365   8.550
 3473POPC   C2B 5768  12.119  13.405   8.250
 3473POPC   C3B 5769  12.081  13.361   7.950
 3473POPC   C4B 5770  12.133  13.363   7.650
 3474POPC   NC3 5771  11.323   7.432   9.450
 3474POPC   PO4 5772  11.330   7.412   9.150
 3474POPC   GL1 5773  11.340   7.387   8.850
 3474POPC   GL2 5774  11.243   7.567   8.850
 3474POPC   C1A 5775  11.280   7.414   8.550
 3474POPC   D2A 5776  11.290   7.371   8.250
 3474POPC   C3A 5777  11.265   7.471   7.950
 3474POPC   C4A 5778  11.297   7.408   7.650
 3474POPC   C1B 5779  11.219   7.707   8.550
 3474POPC   C2B 5780  11.284   7.707   8.250
 3474POPC   C3B 5781  11.255   7.640   7.950
 3474POPC   C4B 5782  11.275   7.642   7.650
 3475POPC   NC3 5783  12.859  40.736   9.450
 3475POPC   PO4 5784  12.814  40.771   9.150
 3475POPC   GL1 5785  12.832  40.758   8.850
 3475POPC   GL2 5786  12.930  40.893   8.850
 3475POPC   C1A 5787  12.861  40.797   8.550
 3475POPC   D2A 5788  12.803  40.804   8.250
 3475POPC   C3A 5789  12.887  40.786   7.950
 3475POPC   C4A 5790  12.893  40.741   7.650
 3475POPC   C1B 5791  13.010  40.943   8.550
 3475POPC   C2B 5792  13.088  40.986   8.250
 3475POPC   C3B 5793  13.047  40.974   7.950
 3475POPC   C4B 5794  13.095  40.955   7.650
 3476POPC   NC3 5795  25.278   3.534   9.450
 3476POPC   PO4 5796  25.294   3.524   9.150
 3476POPC   GL1 5797  25.258   3.537   8.850
 3476POPC   GL2 5798  25.388   3.552   8.850
 3476POPC   C1A 5799  25.242   3.549   8.550
 3476POPC   D2A 5800  25.294   3.537   8.250
 3476POPC   C3A 5801  25.247   3.498   7.950
 3476POPC   C4A 5802  25.285   3.521   7.650
 3476POPC   C1B 5803  25.492   3.568   8.550
 3476POPC   C2B 5804  25.500   3.552   8.250
 3476POPC   C3B 5805  25.513   3.542   7.950
 3476POPC   C4B 5806  25.521   3.566   7.650
 3477POPC   NC3 5807  40.791  31.455   9.450
 3477POPC   PO4 5808  40.758  31.518   9.150
 3477POPC   GL1 5809  40.762  31.469   8.850
 3477POPC   GL2 5810  40.793  31.371   8.850
 3477POPC   C1A 5811  40.810  31.482   8.550
 3477POPC   D2A 5812  40.743  31.508   8.250
 3477POPC   C3A 5813  40.779  31.453   7.950
 3477POPC   C4A 5814  40.829  31.436   7.650
 3477POPC   C1B 5815  40.801  31.211   8.550
 3477POPC   C2B 5816  40.812  31.233   8.250
 3477POPC   C3B 5817  40.782  31.255   7.950
 3477POPC   C4B 5818  40.748  31.270   7.650
 3478POPC   NC3 5819  38.482  12.809   9.450
 3478POPC   PO4 5820  38.470  12.833   9.150
 3478POPC   GL1 5821  38.416  12.833   8.850
 3478POPC   GL2 5822  38.362  12.757   8.850
 3478POPC   C1A 5823  38.427  12.892   8.550
 3478POPC   D2A 5824  38.418  12.819   8.250
 3478POPC   C3A 5825  38.435  12.887   7.950
 3478POPC   C4A 5826  38.436  12.884   7.650
 3478POPC   C1B 5827  38.203  12.692   8.550
 3478POPC   C2B 5828  38.253  12.673   8.250
 3478POPC   C3B 5829  38.275  12.714   7.950
 3478POPC   C4B 5830  38.213  12.680   7.650
 3479POPC   NC3 5831   4.307  33.789   9.450
 3479POPC   PO4 5832   4.346  33.761   9.150
 3479POPC   GL1 5833   4.348  33.790   8.850
 3479POPC   GL2 5834   4.426  33.904   8.850
 3479POPC   C1A 5835   4.361  33.819   8.550
 3479POPC   D2A 5836   4.351  33.789   8.250
 3479POPC   C3A 5837   4.326  33.841   7.950
 3479POPC   C4A 5838   4.313  33.838   7.650
 3479POPC   C1B 5839   4.418  33.967   8.550
 3479POPC   C2B 5840   4.443  34.032   8.250
 3479POPC   C3B 5841   4.449  34.023   7.950
 3479POPC   C4B 5842   4.464  33.958   7.650
 3480POPC   NC3 5843  20.614  42.375   9.450
 3480POPC   PO4 5844  20.581  42.352   9.150
 3480POPC   GL1 5845  20.638  42.360   8.850
 3480POPC   GL2 5846  20.704  42.470   8.850
 3480POPC   C1A 5847  20.635  42.384   8.550
 3480POPC   D2A 5848  20.577  42.380   8.250
 3480POPC   C3A 5849  20.658  42.310   7.950
 3480POPC   C4A 5850  20.654  42.337   7.650
 3480POPC   C1B 5851  20.793  42.490   8.550
 3480POPC   C2B 5852  20.816  42.574   8.250
 3480POPC   C3B 5853  20.720  42.489   7.950
 3480POPC   C4B 5854  20.759  42.539   7.650
 3481POPC   NC3 5855   2.762  43.859   9.450
 3481POPC   PO4 5856   2.767  43.848   9.150
 3481POPC   GL1 5857   2.733  43.887   8.850
 3481POPC   GL2 5858   2.864  43.879   8.850
 3481POPC   C1A 5859   2.799  43.928   8.550
 3481POPC   D2A 5860   2.746  43.910   8.250
 3481POPC   C3A 5861   2.796  43.889   7.950
 3481POPC   C4A 5862   2.733  43.840   7.650
 3481POPC   C1B 5863   3.031  43.865   8.550
 3481POPC   C2B 5864   2.973  43.824   8.250
 3481POPC   C3B 5865   3.052  43.866   7.950
 3481POPC   C4B 5866   3.011  43.842   7.650
 3482POPC   NC3 5867  25.263   7.384   9.450
 3482POPC   PO4 5868  25.235   7.462   9.150
 3482POPC   GL1 5869  25.297   7.429   8.850
 3482POPC   GL2 5870  25.254   7.534   8.850
 3482POPC   C1A 5871  25.286   7.425   8.550
 3482POPC   D2A 5872  25.265   7.377   8.250
 3482POPC   C3A 5873  25.282   7.449   7.950
 3482POPC   C4A 5874  25.270   7.432   7.650
 3482POPC   C1B 5875  25.309   7.658   8.550
 3482POPC   C2B 5876  25.311   7.679   8.250
 3482POPC   C3B 5877  25.242   7.661   7.950
 3482POPC   C4B 5878  25.283   7.640   7.650
 3483POPC   NC3 5879  28.378   2.814   9.450
 3483POPC   PO4 5880  28.389   2.755   9.150
 3483POPC   GL1 5881  28.415   2.794   8.850
 3483POPC   GL2 5882  28.266   2.744   8.850
 3483POPC   C1A 5883  28.401   2.790   8.550
 3483POPC   D2A 5884  28.385   2.723   8.250
 3483POPC   C3A 5885  28.327   2.727   7.950
 3483POPC   C4A 5886  28.407   2.760   7.650
 3483POPC   C1B 5887  28.115   2.788   8.550
 3483POPC   C2B 5888  28.103   2.812   8.250
 3483POPC   C3B 5889  28.075   2.776   7.950
 3483POPC   C4B 5890  28.095   2.807   7.650
 3484POPC   NC3 5891  43.153  22.212   9.450
 3484POPC   PO4 5892  43.064  22.189   9.150
 3484POPC   GL1 5893  43.085  22.139   8.850
 3484POPC   GL2 5894  42.994  22.124   8.850
 3484POPC   C1A 5895  43.091  22.195   8.550
 3484POPC   D2A 5896  43.078  22.190   8.250
 3484POPC   C3A 5897  43.146  22.153   7.950
 3484POPC   C4A 5898  43.120  22.199   7.650
 3484POPC   C1B 5899  42.887  22.018   8.550
 3484POPC   C2B 5900  42.923  21.998   8.250
 3484POPC   C3B 5901  42.870  22.038   7.950
 3484POPC   C4B 5902  42.890  22.039   7.650
 3485POPC   NC3 5903   9.738  36.861   9.450
 3485POPC   PO4 5904   9.741  36.899   9.150
 3485POPC   GL1 5905   9.795  36.887   8.850
 3485POPC   GL2 5906   9.600  36.974   8.850
 3485POPC   C1A 5907   9.732  36.896   8.550
 3485POPC   D2A 5908   9.750  36.942   8.250
 3485POPC   C3A 5909   9.741  36.856   7.950
 3485POPC   C4A 5910   9.781  36.895   7.650
 3485POPC   C1B 5911   9.508  36.998   8.550
 3485POPC   C2B 5912   9.518  36.965   8.250
 3485POPC   C3B 5913   9.513  36.956   7.950
 3485POPC   C4B 5914   9.491  36.984   7.650
 3486POPC   NC3 5915   7.430  26.806   9.450
 3486POPC   PO4 5916   7.384  26.773   9.150
 3486POPC   GL1 5917   7.422  26.821   8.850
 3486POPC   GL2 5918   7.535  26.947   8.850
 3486POPC   C1A 5919   7.465  26.853   8.550
 3486POPC   D2A 5920   7.397  26.836   8.250
 3486POPC   C3A 5921   7.449  26.802   7.950
 3486POPC   C4A 5922   7.388  26.824   7.650
 3486POPC   C1B 5923   7.556  27.047   8.550
 3486POPC   C2B 5924   7.587  26.992   8.250
 3486POPC   C3B 5925   7.634  27.016   7.950
 3486POPC   C4B 5926   7.588  26.973   7.650
 3487POPC   NC3 5927  22.947  43.129   9.450
 3487POPC   PO4 5928  22.986  43.087   9.150
 3487POPC   GL1 5929  22.937  43.131   8.850
 3487POPC   GL2 5930  22.946  43.256   8.850
 3487POPC   C1A 5931  22.913  43.151   8.550
 3487POPC   D2A 5932  22.978  43.156   8.250
 3487POPC   C3A 5933  22.916  43.103   7.950
 3487POPC   C4A 5934  22.971  43.086   7.650
 3487POPC   C1B 5935  23.042  43.390   8.550
 3487POPC   C2B 5936  23.081  43.318   8.250
 3487POPC   C3B 5937  23.061  43.315   7.950
 3487POPC   C4B 5938  23.065  43.349   7.650
 3488POPC   NC3 5939   9.795   8.925   9.450
 3488POPC   PO4 5940   9.741   9.000   9.150
 3488POPC   GL1 5941   9.795   8.991   8.850
 3488POPC   GL2 5942   9.776   8.876   8.850
 3488POPC   C1A 5943   9.738   8.945   8.550
 3488POPC   D2A 5944   9.718   8.957   8.250
 3488POPC   C3A 5945   9.776   9.011   7.950
 3488POPC   C4A 5946   9.736   8.923   7.650
 3488POPC   C1B 5947   9.781   8.735   8.550
 3488POPC   C2B 5948   9.821   8.684   8.250
 3488POPC   C3B 5949   9.778   8.777   7.950
 3488POPC   C4B 5950   9.801   8.683   7.650
 3489POPC   NC3 5951  12.829  39.205   9.450
 3489POPC   PO4 5952  12.875  39.205   9.150
 3489POPC   GL1 5953  12.882  39.260   8.850
 3489POPC   GL2 5954  12.907  39.344   8.850
 3489POPC   C1A 5955  12.821  39.265   8.550
 3489POPC   D2A 5956  12.877  39.277   8.250
 3489POPC   C3A 5957  12.849  39.268   7.950
 3489POPC   C4A 5958  12.832  39.276   7.650
 3489POPC   C1B 5959  12.889  39.522   8.550
 3489POPC   C2B 5960  12.883  39.446   8.250
 3489POPC   C3B 5961  12.815  39.495   7.950
 3489POPC   C4B 5962  12.832  39.448   7.650
 3490POPC   NC3 5963  25.299  19.859   9.450
 3490POPC   PO4 5964  25.216  19.854   9.150
 3490POPC   GL1 5965  25.298  19.859   8.850
 3490POPC   GL2 5966  25.202  19.801   8.850
 3490POPC   C1A 5967  25.284  19.849   8.550
 3490POPC   D2A 5968  25.312  19.858   8.250
 3490POPC   C3A 5969  25.223  19.821   7.950
 3490POPC   C4A 5970  25.262  19.801   7.650
 3490POPC   C1B 5971  25.115  19.666   8.550
 3490POPC   C2B 5972  25.044  19.697   8.250
 3490POPC   C3B 5973  25.027  19.654   7.950
 3490POPC   C4B 5974  25.064  19.664   7.650
 3491POPC   NC3 5975  30.649  41.562   9.450
 3491POPC   PO4 5976  30.700  41.554   9.150
 3491POPC   GL1 5977  30.746  41.584   8.850
 3491POPC   GL2 5978  30.819  41.612   8.850
 3491POPC   C1A 5979  30.726  41.526   8.550
 3491POPC   D2A 5980  30.713  41.536   8.250
 3491POPC   C3A 5981  30.671  41.530   7.950
 3491POPC   C4A 5982  30.678  41.598   7.650
 3491POPC   C1B 5983  30.855  41.804   8.550
 3491POPC   C2B 5984  30.857  41.757   8.250
 3491POPC   C3B 5985  30.837  41.737   7.950
 3491POPC   C4B 5986  30.868  41.788   7.650
 3492POPC   NC3 5987  22.160  14.398   9.450
 3492POPC   PO4 5988  22.208  14.367   9.150
 3492POPC   GL1 5989  22.136  14.360   8.850
 3492POPC   GL2 5990  22.254  14.366   8.850
 3492POPC   C1A 5991  22.123  14.424   8.550
 3492POPC   D2A 5992  22.119  14.405   8.250
 3492POPC   C3A 5993  22.133  14.391   7.950
 3492POPC   C4A 5994  22.178  14.445   7.650
 3492POPC   C1B 5995  22.419  14.292   8.550
 3492POPC   C2B 5996  22.407  14.282   8.250
 3492POPC   C3B 5997  22.349  14.273   7.950
 3492POPC   C4B 5998  22.373  14.332   7.650
 3493POPC   NC3 5999  12.104  39.213   9.450
 3493POPC   PO4 6000  12.078  39.225   9.150
 3493POPC   GL1 6001  12.109  39.214   8.850
 3493POPC   GL2 6002  12.151  39.237   8.850
 3493POPC   C1A 6003  12.033  39.220   8.550
 3493POPC   D2A 6004  12.076  39.265   8.250
 3493POPC   C3A 6005  12.033  39.247   7.950
 3493POPC   C4A 6006  12.073  39.196   7.650
 3493POPC   C1B 6007  12.349  39.182   8.550
 3493POPC   C2B 6008  12.348  39.242   8.250
 3493POPC   C3B 6009  12.314  39.209   7.950
 3493POPC   C4B 6010  12.303  39.230   7.650
 3494POPC   NC3 6011  29.957  35.302   9.450
 3494POPC   PO4 6012  29.958  35.353   9.150
 3494POPC   GL1 6013  29.934  35.307   8.850
 3494POPC   GL2 6014  30.014  35.498   8.850
 3494POPC   C1A 6015  29.945  35.352   8.550
 3494POPC   D2A 6016  29.967  35.332   8.250
 3494POPC   C3A 6017  29.930  35.388   7.950
 3494POPC   C4A 6018  29.941  35.394   7.650
 3494POPC   C1B 6019  30.009  35.549   8.550
 3494POPC   C2B 6020  30.040  35.543   8.250
 3494POPC   C3B 6021  30.089  35.575   7.950
 3494POPC   C4B 6022  30.076  35.566   7.650
 3495POPC   NC3 6023  11.289  36.911   9.450
 3495POPC   PO4 6024  11.326  36.859   9.150
 3495POPC   GL1 6025  11.252  36.923   8.850
 3495POPC   GL2 6026  11.429  36.932   8.850
 3495POPC   C1A 6027  11.342  36.867   8.550
 3495POPC   D2A 6028  11.308  36.931   8.250
 3495POPC   C3A 6029  11.321  36.872   7.950
 3495POPC   C4A 6030  11.332  36.880   7.650
 3495POPC   C1B 6031  11.466  37.092   8.550
 3495POPC   C2B 6032  11.482  37.098   8.250
 3495POPC   C3B 6033  11.490  37.018   7.950
 3495POPC   C4B 6034  11.491  37.022   7.650
 3496POPC   NC3 6035  36.088   3.579   9.450
 3496POPC   PO4 6036  36.107   3.499   9.150
 3496POPC   GL1 6037  36.169   3.492   8.850
 3496POPC   GL2 6038  36.170   3.636   8.850
 3496POPC   C1A 6039  36.172   3.551   8.550
 3496POPC   D2A 6040  36.168   3.500   8.250
 3496POPC   C3A 6041  36.143   3.535   7.950
 3496POPC   C4A 6042  36.091   3.576   7.650
 3496POPC   C1B 6043  36.277   3.682   8.550
 3496POPC   C2B 6044  36.310   3.770   8.250
 3496POPC   C3B 6045  36.277   3.713   7.950
 3496POPC   C4B 6046  36.296   3.723   7.650
 3497POPC   NC3 6047  27.601   8.159   9.450
 3497POPC   PO4 6048  27.621   8.200   9.150
 3497POPC   GL1 6049  27.599   8.235   8.850
 3497POPC   GL2 6050  27.609   8.089   8.850
 3497POPC   C1A 6051  27.607   8.220   8.550
 3497POPC   D2A 6052  27.564   8.241   8.250
 3497POPC   C3A 6053  27.601   8.155   7.950
 3497POPC   C4A 6054  27.569   8.169   7.650
 3497POPC   C1B 6055  27.667   8.007   8.550
 3497POPC   C2B 6056  27.684   7.940   8.250
 3497POPC   C3B 6057  27.682   8.007   7.950
 3497POPC   C4B 6058  27.688   7.966   7.650
 3498POPC   NC3 6059  37.680  31.503   9.450
 3498POPC   PO4 6060  37.727  31.461   9.150
 3498POPC   GL1 6061  37.675  31.491   8.850
 3498POPC   GL2 6062  37.664  31.356   8.850
 3498POPC   C1A 6063  37.671  31.480   8.550
 3498POPC   D2A 6064  37.704  31.434   8.250
 3498POPC   C3A 6065  37.645  31.445   7.950
 3498POPC   C4A 6066  37.632  31.488   7.650
 3498POPC   C1B 6067  37.711  31.204   8.550
 3498POPC   C2B 6068  37.736  31.243   8.250
 3498POPC   C3B 6069  37.689  31.188   7.950
 3498POPC   C4B 6070  37.673  31.226   7.650
 3499POPC   NC3 6071  41.607  16.729   9.450
 3499POPC   PO4 6072  41.590  16.700   9.150
 3499POPC   GL1 6073  41.537  16.767   8.850
 3499POPC   GL2 6074  41.714  16.833   8.850
 3499POPC   C1A 6075  41.605  16.735   8.550
 3499POPC   D2A 6076  41.546  16.767   8.250
 3499POPC   C3A 6077  41.584  16.739   7.950
 3499POPC   C4A 6078  41.519  16.775   7.650
 3499POPC   C1B 6079  41.757  16.825   8.550
 3499POPC   C2B 6080  41.774  16.828   8.250
 3499POPC   C3B 6081  41.748  16.818   7.950
 3499POPC   C4B 6082  41.733  16.803   7.650
 3500POPC   NC3 6083  19.010  10.485   9.450
 3500POPC   PO4 6084  19.060  10.514   9.150
 3500POPC   GL1 6085  19.019  10.484   8.850
 3500POPC   GL2 6086  19.052  10.382   8.850
 3500POPC   C1A 6087  19.054  10.546   8.550
 3500POPC   D2A 6088  19.072  10.507   8.250
 3500POPC   C3A 6089  19.070  10.490   7.950
 3500POPC   C4A 6090  19.058  10.539   7.650
 3500POPC   C1B 6091  18.980  10.314   8.550
 3500POPC   C2B 6092  18.951  10.315   8.250
 3500POPC   C3B 6093  18.958  10.321   7.950
 3500POPC   C4B 6094  18.924  10.326   7.650
 3501POPC   NC3 6095  22.917  22.137   9.450
 3501POPC   PO4 6096  22.905  22.159   9.150
 3501POPC   GL1 6097  22.988  22.180   8.850
 3501POPC   GL2 6098  22.885  22.285   8.850
 3501POPC   C1A 6099  22.955  22.139   8.550
 3501POPC   D2A 6100  22.898  22.161   8.250
 3501POPC   C3A 6101  22.985  22.136   7.950
 3501POPC   C4A 6102  22.960  22.169   7.650
 3501POPC   C1B 6103  22.787  22.277   8.550
 3501POPC   C2B 6104  22.767  22.376   8.250
 3501POPC   C3B 6105  22.708  22.284   7.950
 3501POPC   C4B 6106  22.721  22.345   7.650
 3502POPC   NC3 6107  43.920   1.962   9.450
 3502POPC   PO4 6108  43.887   2.037   9.150
 3502POPC   GL1 6109  43.842   2.013   8.850
 3502POPC   GL2 6110  43.912   1.899   8.850
 3502POPC   C1A 6111  43.885   1.982   8.550
 3502POPC   D2A 6112  43.935   1.978   8.250
 3502POPC   C3A 6113  43.930   1.998   7.950
 3502POPC   C4A 6114  43.862   1.954   7.650
 3502POPC   C1B 6115  43.951   1.703   8.550
 3502POPC   C2B 6116  43.905   1.713   8.250
 3502POPC   C3B 6117  43.902   1.776   7.950
 3502POPC   C4B 6118  43.884   1.772   7.650
 3503POPC   NC3 6119  40.001  29.931   9.450
 3503POPC   PO4 6120  40.015  29.964   9.150
 3503POPC   GL1 6121  40.017  29.925   8.850
 3503POPC   GL2 6122  39.877  29.855   8.850
 3503POPC   C1A 6123  40.011  29.912   8.550
 3503POPC   D2A 6124  39.985  29.942   8.250
 3503POPC   C3A 6125  40.006  29.913   7.950
 3503POPC   C4A 6126  39.959  29.876   7.650
 3503POPC   C1B 6127  39.773  29.758   8.550
 3503POPC   C2B 6128  39.833  29.778   8.250
 3503POPC   C3B 6129  39.797  29.752   7.950
 3503POPC   C4B 6130  39.819  29.761   7.650
 3504POPC   NC3 6131  30.742  33.787   9.450
 3504POPC   PO4 6132  30.663  33.828   9.150
 3504POPC   GL1 6133  30.682  33.760   8.850
 3504POPC   GL2 6134  30.746  33.719   8.850
 3504POPC   C1A 6135  30.652  33.836   8.550
 3504POPC   D2A 6136  30.686  33.767   8.250
 3504POPC   C3A 6137  30.691  33.758   7.950
 3504POPC   C4A 6138  30.734  33.812   7.650
 3504POPC   C1B 6139  30.722  33.588   8.550
 3504POPC   C2B 6140  30.685  33.557   8.250
 3504POPC   C3B 6141  30.686  33.548   7.950
 3504POPC   C4B 6142  30.738  33.539   7.650
 3505POPC   NC3 6143  15.223  29.958   9.450
 3505POPC   PO4 6144  15.169  29.938   9.150
 3505POPC   GL1 6145  15.202  29.949   8.850
 3505POPC   GL2 6146  15.243  29.891   8.850
 3505POPC   C1A 6147  15.189  29.951   8.550
 3505POPC   D2A 6148  15.191  29.889   8.250
 3505POPC   C3A 6149  15.217  29.962   7.950
 3505POPC   C4A 6150  15.201  29.910   7.650
 3505POPC   C1B 6151  15.445  29.766   8.550
 3505POPC   C2B 6152  15.376  29.773   8.250
 3505POPC   C3B 6153  15.415  29.759   7.950
 3505POPC   C4B 6154  15.426  29.758   7.650
 3506POPC   NC3 6155  43.081  16.741   9.450
 3506POPC   PO4 6156  43.121  16.719   9.150
 3506POPC   GL1 6157  43.120  16.703   8.850
 3506POPC   GL2 6158  43.011  16.725   8.850
 3506POPC   C1A 6159  43.135  16.689   8.550
 3506POPC   D2A 6160  43.088  16.701   8.250
 3506POPC   C3A 6161  43.103  16.721   7.950
 3506POPC   C4A 6162  43.138  16.725   7.650
 3506POPC   C1B 6163  42.845  16.701   8.550
 3506POPC   C2B 6164  42.842  16.736   8.250
 3506POPC   C3B 6165  42.882  16.738   7.950
 3506POPC   C4B 6166  42.867  16.788   7.650
 3507POPC   NC3 6167  39.186  25.221   9.450
 3507POPC   PO4 6168  39.214  25.229   9.150
 3507POPC   GL1 6169  39.254  25.250   8.850
 3507POPC   GL2 6170  39.061  25.292   8.850
 3507POPC   C1A 6171  39.249  25.266   8.550
 3507POPC   D2A 6172  39.258  25.302   8.250
 3507POPC   C3A 6173  39.196  25.303   7.950
 3507POPC   C4A 6174  39.197  25.267   7.650
 3507POPC   C1B 6175  39.017  25.347   8.550
 3507POPC   C2B 6176  39.010  25.339   8.250
 3507POPC   C3B 6177  38.989  25.328   7.950
 3507POPC   C4B 6178  39.020  25.304   7.650
 3508POPC   NC3 6179  33.032  32.226   9.450
 3508POPC   PO4 6180  33.046  32.233   9.150
 3508POPC   GL1 6181  33.010  32.218   8.850
 3508POPC   GL2 6182  33.085  32.351   8.850
 3508POPC   C1A 6183  33.016  32.209   8.550
 3508POPC   D2A 6184  33.012  32.264   8.250
 3508POPC   C3A 6185  33.021  32.235   7.950
 3508POPC   C4A 6186  32.975  32.256   7.650
 3508POPC   C1B 6187  33.169  32.426   8.550
 3508POPC   C2B 6188  33.153  32.502   8.250
 3508POPC   C3B 6189  33.104  32.439   7.950
 3508POPC   C4B 6190  33.140  32.426   7.650
 3509POPC   NC3 6191  17.468  33.057   9.450
 3509POPC   PO4 6192  17.539  32.985   9.150
 3509POPC   GL1 6193  17.540  32.984   8.850
 3509POPC   GL2 6194  17.426  32.954   8.850
 3509POPC   C1A 6195  17.512  33.029   8.550
 3509POPC   D2A 6196  17.540  33.031   8.250
 3509POPC   C3A 6197  17.475  33.035   7.950
 3509POPC   C4A 6198  17.503  33.025   7.650
 3509POPC   C1B 6199  17.347  32.848   8.550
 3509POPC   C2B 6200  17.405  32.843   8.250
 3509POPC   C3B 6201  17.367  32.805   7.950
 3509POPC   C4B 6202  17.406  32.855   7.650
 3510POPC   NC3 6203  26.032   2.794   9.450
 3510POPC   PO4 6204  26.073   2.718   9.150
 3510POPC   GL1 6205  26.072   2.765   8.850
 3510POPC   GL2 6206  25.928   2.757   8.850
 3510POPC   C1A 6207  26.022   2.748   8.550
 3510POPC   D2A 6208  26.028   2.792   8.250
 3510POPC   C3A 6209  26.029   2.765   7.950
 3510POPC   C4A 6210  26.035   2.811   7.650
 3510POPC   C1B 6211  25.778   2.739   8.550
 3510POPC   C2B 6212  25.824   2.704   8.250
 3510POPC   C3B 6213  25.815   2.653   7.950
 3510POPC   C4B 6214  25.825   2.648   7.650
 3511POPC   NC3 6215  38.417  29.123   9.450
 3511POPC   PO4 6216  38.458  29.167   9.150
 3511POPC   GL1 6217  38.469  29.140   8.850
 3511POPC   GL2 6218  38.545  29.141   8.850
 3511POPC   C1A 6219  38.440  29.176   8.550
 3511POPC   D2A 6220  38.425  29.160   8.250
 3511POPC   C3A 6221  38.501  29.127   7.950
 3511POPC   C4A 6222  38.497  29.099   7.650
 3511POPC   C1B 6223  38.660  29.147   8.550
 3511POPC   C2B 6224  38.736  29.076   8.250
 3511POPC   C3B 6225  38.655  29.141   7.950
 3511POPC   C4B 6226  38.728  29.103   7.650
 3512POPC   NC3 6227  22.963  40.741   9.450
 3512POPC   PO4 6228  22.907  40.748   9.150
 3512POPC   GL1 6229  22.958  40.743   8.850
 3512POPC   GL2 6230  22.802  40.878   8.850
 3512POPC   C1A 6231  22.915  40.798   8.550
 3512POPC   D2A 6232  22.952  40.786   8.250
 3512POPC   C3A 6233  22.966  40.800   7.950
 3512POPC   C4A 6234  22.971  40.798   7.650
 3512POPC   C1B 6235  22.735  40.982   8.550
 3512POPC   C2B 6236  22.791  40.999   8.250
 3512POPC   C3B 6237  22.757  40.984   7.950
 3512POPC   C4B 6238  22.736  40.921   7.650
 3513POPC   NC3 6239  26.844  22.890   9.450
 3513POPC   PO4 6240  26.821  22.928   9.150
 3513POPC   GL1 6241  26.843  22.943   8.850
 3513POPC   GL2 6242  26.739  22.933   8.850
 3513POPC   C1A 6243  26.823  22.988   8.550
 3513POPC   D2A 6244  26.782  22.900   8.250
 3513POPC   C3A 6245  26.832  22.937   7.950
 3513POPC   C4A 6246  26.861  22.962   7.650
 3513POPC   C1B 6247  26.531  22.970   8.550
 3513POPC   C2B 6248  26.540  22.914   8.250
 3513POPC   C3B 6249  26.525  22.915   7.950
 3513POPC   C4B 6250  26.576  22.915   7.650
 3514POPC   NC3 6251  39.256   1.256   9.450
 3514POPC   PO4 6252  39.190   1.228   9.150
 3514POPC   GL1 6253  39.245   1.197   8.850
 3514POPC   GL2 6254  39.225   1.117   8.850
 3514POPC   C1A 6255  39.268   1.206   8.550
 3514POPC   D2A 6256  39.227   1.250   8.250
 3514POPC   C3A 6257  39.274   1.263   7.950
 3514POPC   C4A 6258  39.193   1.243   7.650
 3514POPC   C1B 6259  39.157   1.019   8.550
 3514POPC   C2B 6260  39.162   0.999   8.250
 3514POPC   C3B 6261  39.217   0.933   7.950
 3514POPC   C4B 6262  39.140   0.929   7.650
 3515POPC   NC3 6263  23.762  36.141   9.450
 3515POPC   PO4 6264  23.750  36.162   9.150
 3515POPC   GL1 6265  23.721  36.144   8.850
 3515POPC   GL2 6266  23.777  36.250   8.850
 3515POPC   C1A 6267  23.742  36.132   8.550
 3515POPC   D2A 6268  23.716  36.157   8.250
 3515POPC   C3A 6269  23.728  36.138   7.950
 3515POPC   C4A 6270  23.666  36.125   7.650
 3515POPC   C1B 6271  23.897  36.342   8.550
 3515POPC   C2B 6272  23.838  36.360   8.250
 3515POPC   C3B 6273  23.886  36.344   7.950
 3515POPC   C4B 6274  23.848  36.271   7.650
 3516POPC   NC3 6275  20.575   3.564   9.450
 3516POPC   PO4 6276  20.639   3.546   9.150
 3516POPC   GL1 6277  20.585   3.520   8.850
 3516POPC   GL2 6278  20.635   3.694   8.850
 3516POPC   C1A 6279  20.634   3.539   8.550
 3516POPC   D2A 6280  20.605   3.548   8.250
 3516POPC   C3A 6281  20.609   3.510   7.950
 3516POPC   C4A 6282  20.628   3.518   7.650
 3516POPC   C1B 6283  20.605   3.765   8.550
 3516POPC   C2B 6284  20.588   3.824   8.250
 3516POPC   C3B 6285  20.557   3.791   7.950
 3516POPC   C4B 6286  20.611   3.743   7.650
 3517POPC   NC3 6287  36.107  21.370   9.450
 3517POPC   PO4 6288  36.140  21.371   9.150
 3517POPC   GL1 6289  36.090  21.371   8.850
 3517POPC   GL2 6290  36.076  21.440   8.850
 3517POPC   C1A 6291  36.078  21.412   8.550
 3517POPC   D2A 6292  36.113  21.350   8.250
 3517POPC   C3A 6293  36.168  21.361   7.950
 3517POPC   C4A 6294  36.124  21.393   7.650
 3517POPC   C1B 6295  35.942  21.532   8.550
 3517POPC   C2B 6296  35.958  21.596   8.250
 3517POPC   C3B 6297  35.939  21.606   7.950
 3517POPC   C4B 6298  35.983  21.580   7.650
 3518POPC   NC3 6299  43.106  12.883   9.450
 3518POPC   PO4 6300  43.133  12.879   9.150
 3518POPC   GL1 6301  43.061  12.898   8.850
 3518POPC   GL2 6302  43.241  12.854   8.850
 3518POPC   C1A 6303  43.090  12.855   8.550
 3518POPC   D2A 6304  43.108  12.901   8.250
 3518POPC   C3A 6305  43.117  12.897   7.950
 3518POPC   C4A 6306  43.069  12.898   7.650
 3518POPC   C1B 6307  43.357  12.886   8.550
 3518POPC   C2B 6308  43.402  12.922   8.250
 3518POPC   C3B 6309  43.325  12.845   7.950
 3518POPC   C4B 6310  43.405  12.892   7.650
 3519POPC   NC3 6311   5.118  30.712   9.450
 3519POPC   PO4 6312   5.080  30.652   9.150
 3519POPC   GL1 6313   5.097  30.651   8.850
 3519POPC   GL2 6314   4.975  30.596   8.850
 3519POPC   C1A 6315   5.118  30.703   8.550
 3519POPC   D2A 6316   5.078  30.729   8.250
 3519POPC   C3A 6317   5.055  30.707   7.950
 3519POPC   C4A 6318   5.107  30.731   7.650
 3519POPC   C1B 6319   4.973  30.487   8.550
 3519POPC   C2B 6320   4.881  30.463   8.250
 3519POPC   C3B 6321   4.876  30.511   7.950
 3519POPC   C4B 6322   4.931  30.515   7.650
 3520POPC   NC3 6323  36.134  36.170   9.450
 3520POPC   PO4 6324  36.129  36.093   9.150
 3520POPC   GL1 6325  36.078  36.096   8.850
 3520POPC   GL2 6326  36.142  36.210   8.850
 3520POPC   C1A 6327  36.162  36.092   8.550
 3520POPC   D2A 6328  36.147  36.141   8.250
 3520POPC   C3A 6329  36.168  36.143   7.950
 3520POPC   C4A 6330  36.162  36.141   7.650
 3520POPC   C1B 6331  36.114  36.388   8.550
 3520POPC   C2B 6332  36.204  36.383   8.250
 3520POPC   C3B 6333  36.200  36.350   7.950
 3520POPC   C4B 6334  36.117  36.384   7.650
 3521POPC   NC3 6335   7.449   9.778   9.450
 3521POPC   PO4 6336   7.436   9.757   9.150
 3521POPC   GL1 6337   7.417   9.755   8.850
 3521POPC   GL2 6338   7.381   9.653   8.850
 3521POPC   C1A 6339   7.424   9.749   8.550
 3521POPC   D2A 6340   7.439   9.719   8.250
 3521POPC   C3A 6341   7.394   9.703   7.950
 3521POPC   C4A 6342   7.386   9.765   7.650
 3521POPC   C1B 6343   7.461   9.522   8.550
 3521POPC   C2B 6344   7.448   9.464   8.250
 3521POPC   C3B 6345   7.480   9.458   7.950
 3521POPC   C4B 6346   7.389   9.548   7.650
 3522POPC   NC3 6347  36.147  28.362   9.450
 3522POPC   PO4 6348  36.099  28.412   9.150
 3522POPC   GL1 6349  36.098  28.368   8.850
 3522POPC   GL2 6350  36.092  28.205   8.850
 3522POPC   C1A 6351  36.101  28.374   8.550
 3522POPC   D2A 6352  36.149  28.400   8.250
 3522POPC   C3A 6353  36.147  28.380   7.950
 3522POPC   C4A 6354  36.157  28.321   7.650
 3522POPC   C1B 6355  36.117  28.141   8.550
 3522POPC   C2B 6356  36.053  28.147   8.250
 3522POPC   C3B 6357  36.110  28.097   7.950
 3522POPC   C4B 6358  36.057  28.119   7.650
 3523POPC   NC3 6359  39.974  22.911   9.450
 3523POPC   PO4 6360  39.971  22.929   9.150
 3523POPC   GL1 6361  40.015  22.974   8.850
 3523POPC   GL2 6362  40.095  22.983   8.850
 3523POPC   C1A 6363  39.999  22.934   8.550
 3523POPC   D2A 6364  39.966  22.944   8.250
 3523POPC   C3A 6365  40.030  22.948   7.950
 3523POPC   C4A 6366  40.014  22.911   7.650
 3523POPC   C1B 6367  40.239  22.973   8.550
 3523POPC   C2B 6368  40.234  22.911   8.250
 3523POPC   C3B 6369  40.272  22.985   7.950
 3523POPC   C4B 6370  40.283  22.932   7.650
 3524POPC   NC3 6371  43.085  22.915   9.450
 3524POPC   PO4 6372  43.074  22.939   9.150
 3524POPC   GL1 6373  43.131  22.961   8.850
 3524POPC   GL2 6374  43.198  22.968   8.850
 3524POPC   C1A 6375  43.069  22.897   8.550
 3524POPC   D2A 6376  43.077  22.917   8.250
 3524POPC   C3A 6377  43.082  22.900   7.950
 3524POPC   C4A 6378  43.102  22.986   7.650
 3524POPC   C1B 6379  43.392  22.963   8.550
 3524POPC   C2B 6380  43.339  22.937   8.250
 3524POPC   C3B 6381  43.367  22.939   7.950
 3524POPC   C4B 6382  43.401  22.993   7.650
 3525POPC   NC3 6383   2.757  37.679   9.450
 3525POPC   PO4 6384   2.753  37.714   9.150
 3525POPC   GL1 6385   2.744  37.670   8.850
 3525POPC   GL2 6386   2.832  37.748   8.850
 3525POPC   C1A 6387   2.727  37.729   8.550
 3525POPC   D2A 6388   2.720  37.724   8.250
 3525POPC   C3A 6389   2.775  37.703   7.950
 3525POPC   C4A 6390   2.775  37.708   7.650
 3525POPC   C1B 6391   2.939  37.898   8.550
 3525POPC   C2B 6392   2.912  37.820   8.250
 3525POPC   C3B 6393   2.963  37.854   7.950
 3525POPC   C4B 6394   2.957  37.839   7.650
 3526POPC   NC3 6395   4.285  12.081   9.450
 3526POPC   PO4 6396   4.282  12.028   9.150
 3526POPC   GL1 6397   4.343  12.092   8.850
 3526POPC   GL2 6398   4.219  12.053   8.850
 3526POPC   C1A 6399   4.349  12.039   8.550
 3526POPC   D2A 6400   4.306  12.081   8.250
 3526POPC   C3A 6401   4.314  12.043   7.950
 3526POPC   C4A 6402   4.334  12.086   7.650
 3526POPC   C1B 6403   4.097  12.085   8.550
 3526POPC   C2B 6404   4.083  12.031   8.250
 3526POPC   C3B 6405   4.072  12.078   7.950
 3526POPC   C4B 6406   4.075  12.033   7.650
 3527POPC   NC3 6407  19.038   8.220   9.450
 3527POPC   PO4 6408  19.055   8.167   9.150
 3527POPC   GL1 6409  19.081   8.162   8.850
 3527POPC   GL2 6410  19.012   8.302   8.850
 3527POPC   C1A 6411  19.039   8.188   8.550
 3527POPC   D2A 6412  19.026   8.150   8.250
 3527POPC   C3A 6413  19.097   8.219   7.950
 3527POPC   C4A 6414  19.049   8.189   7.650
 3527POPC   C1B 6415  18.935   8.411   8.550
 3527POPC   C2B 6416  18.946   8.476   8.250
 3527POPC   C3B 6417  18.950   8.430   7.950
 3527POPC   C4B 6418  18.968   8.440   7.650
 3528POPC   NC3 6419   6.641   9.004   9.450
 3528POPC   PO4 6420   6.694   8.930   9.150
 3528POPC   GL1 6421   6.679   8.996   8.850
 3528POPC   GL2 6422   6.533   8.902   8.850
 3528POPC   C1A 6423   6.654   8.932   8.550
 3528POPC   D2A 6424   6.632   9.005   8.250
 3528POPC   C3A 6425   6.674   8.941   7.950
 3528POPC   C4A 6426   6.614   8.929   7.650
 3528POPC   C1B 6427   6.494   8.765   8.550
 3528POPC   C2B 6428   6.522   8.781   8.250
 3528POPC   C3B 6429   6.453   8.754   7.950
 3528POPC   C4B 6430   6.467   8.805   7.650
 3529POPC   NC3 6431  27.557  26.855   9.450
 3529POPC   PO4 6432  27.601  26.826   9.150
 3529POPC   GL1 6433  27.623  26.848   8.850
 3529POPC   GL2 6434  27.544  26.757   8.850
 3529POPC   C1A 6435  27.579  26.816   8.550
 3529POPC   D2A 6436  27.592  26.805   8.250
 3529POPC   C3A 6437  27.573  26.786   7.950
 3529POPC   C4A 6438  27.576  26.844   7.650
 3529POPC   C1B 6439  27.431  26.589   8.550
 3529POPC   C2B 6440  27.407  26.604   8.250
 3529POPC   C3B 6441  27.468  26.612   7.950
 3529POPC   C4B 6442  27.424  26.611   7.650
 3530POPC   NC3 6443  36.900  25.301   9.450
 3530POPC   PO4 6444  36.950  25.288   9.150
 3530POPC   GL1 6445  36.945  25.270   8.850
 3530POPC   GL2 6446  36.824  25.243   8.850
 3530POPC   C1A 6447  36.860  25.240   8.550
 3530POPC   D2A 6448  36.953  25.304   8.250
 3530POPC   C3A 6449  36.952  25.260   7.950
 3530POPC   C4A 6450  36.863  25.260   7.650
 3530POPC   C1B 6451  36.655  25.227   8.550
 3530POPC   C2B 6452  36.611  25.224   8.250
 3530POPC   C3B 6453  36.604  25.244   7.950
 3530POPC   C4B 6454  36.693  25.297   7.650
 3531POPC   NC3 6455  32.232  15.187   9.450
 3531POPC   PO4 6456  32.269  15.159   9.150
 3531POPC   GL1 6457  32.276  15.207   8.850
 3531POPC   GL2 6458  32.389  15.216   8.850
 3531POPC   C1A 6459  32.279  15.187   8.550
 3531POPC   D2A 6460  32.217  15.144   8.250
 3531POPC   C3A 6461  32.221  15.179   7.950
 3531POPC   C4A 6462  32.201  15.216   7.650
 3531POPC   C1B 6463  32.477  15.235   8.550
 3531POPC   C2B 6464  32.498  15.214   8.250
 3531POPC   C3B 6465  32.481  15.238   7.950
 3531POPC   C4B 6466  32.523  15.253   7.650
 3532POPC   NC3 6467  22.127  41.542   9.450
 3532POPC   PO4 6468  22.178  41.547   9.150
 3532POPC   GL1 6469  22.180  41.536   8.850
 3532POPC   GL2 6470  22.077  41.577   8.850
 3532POPC   C1A 6471  22.136  41.560   8.550
 3532POPC   D2A 6472  22.156  41.608   8.250
 3532POPC   C3A 6473  22.159  41.559   7.950
 3532POPC   C4A 6474  22.165  41.538   7.650
 3532POPC   C1B 6475  21.938  41.646   8.550
 3532POPC   C2B 6476  21.940  41.643   8.250
 3532POPC   C3B 6477  21.908  41.651   7.950
 3532POPC   C4B 6478  21.938  41.638   7.650
 3533POPC   NC3 6479  18.253   1.959   9.450
 3533POPC   PO4 6480  18.274   2.023   9.150
 3533POPC   GL1 6481  18.333   2.037   8.850
 3533POPC   GL2 6482  18.241   1.836   8.850
 3533POPC   C1A 6483  18.302   1.959   8.550
 3533POPC   D2A 6484  18.261   1.965   8.250
 3533POPC   C3A 6485  18.321   1.947   7.950
 3533POPC   C4A 6486  18.244   2.001   7.650
 3533POPC   C1B 6487  18.199   1.730   8.550
 3533POPC   C2B 6488  18.249   1.712   8.250
 3533POPC   C3B 6489  18.174   1.783   7.950
 3533POPC   C4B 6490  18.252   1.749   7.650
 3534POPC   NC3 6491  42.334  44.705   9.450
 3534POPC   PO4 6492  42.310  44.682   9.150
 3534POPC   GL1 6493  42.287  44.658   8.850
 3534POPC   GL2 6494  42.339  44.572   8.850
 3534POPC   C1A 6495  42.366  44.618   8.550
 3534POPC   D2A 6496  42.311  44.627   8.250
 3534POPC   C3A 6497  42.288  44.683   7.950
 3534POPC   C4A 6498  42.333  44.699   7.650
 3534POPC   C1B 6499  42.445  44.414   8.550
 3534POPC   C2B 6500  42.383  44.395   8.250
 3534POPC   C3B 6501  42.412  44.409   7.950
 3534POPC   C4B 6502  42.428  44.404   7.650
 3535POPC   NC3 6503  22.172  21.346   9.450
 3535POPC   PO4 6504  22.126  21.421   9.150
 3535POPC   GL1 6505  22.182  21.416   8.850
 3535POPC   GL2 6506  22.248  21.359   8.850
 3535POPC   C1A 6507  22.155  21.413   8.550
 3535POPC   D2A 6508  22.201  21.388   8.250
 3535POPC   C3A 6509  22.181  21.392   7.950
 3535POPC   C4A 6510  22.153  21.372   7.650
 3535POPC   C1B 6511  22.390  21.261   8.550
 3535POPC   C2B 6512  22.359  21.259   8.250
 3535POPC   C3B 6513  22.385  21.224   7.950
 3535POPC   C4B 6514  22.405  21.218   7.650
 3536POPC   NC3 6515  43.879  19.067   9.450
 3536POPC   PO4 6516  43.928  19.102   9.150
 3536POPC   GL1 6517  43.879  19.080   8.850
 3536POPC   GL2 6518  43.784  19.072   8.850
 3536POPC   C1A 6519  43.886  19.027   8.550
 3536POPC   D2A 6520  43.847  19.076   8.250
 3536POPC   C3A 6521  43.935  19.091   7.950
 3536POPC   C4A 6522  43.919  19.082   7.650
 3536POPC   C1B 6523  43.631  19.140   8.550
 3536POPC   C2B 6524  43.676  19.187   8.250
 3536POPC   C3B 6525  43.640  19.178   7.950
 3536POPC   C4B 6526  43.635  19.177   7.650
 3537POPC   NC3 6527   9.796  23.680   9.450
 3537POPC   PO4 6528   9.728  23.690   9.150
 3537POPC   GL1 6529   9.751  23.746   8.850
 3537POPC   GL2 6530   9.597  23.727   8.850
 3537POPC   C1A 6531   9.737  23.689   8.550
 3537POPC   D2A 6532   9.740  23.687   8.250
 3537POPC   C3A 6533   9.752  23.677   7.950
 3537POPC   C4A 6534   9.742  23.670   7.650
 3537POPC   C1B 6535   9.542  23.749   8.550
 3537POPC   C2B 6536   9.537  23.768   8.250
 3537POPC   C3B 6537   9.526  23.789   7.950
 3537POPC   C4B 6538   9.525  23.715   7.650
 3538POPC   NC3 6539  32.287  40.018   9.450
 3538POPC   PO4 6540  32.270  39.958   9.150
 3538POPC   GL1 6541  32.260  40.007   8.850
 3538POPC   GL2 6542  32.301  40.089   8.850
 3538POPC   C1A 6543  32.276  39.960   8.550
 3538POPC   D2A 6544  32.249  40.013   8.250
 3538POPC   C3A 6545  32.286  40.003   7.950
 3538POPC   C4A 6546  32.260  39.973   7.650
 3538POPC   C1B 6547  32.433  40.173   8.550
 3538POPC   C2B 6548  32.455  40.165   8.250
 3538POPC   C3B 6549  32.447  40.157   7.950
 3538POPC   C4B 6550  32.481  40.144   7.650
 3539POPC   NC3 6551  34.577  25.280   9.450
 3539POPC   PO4 6552  34.539  25.307   9.150
 3539POPC   GL1 6553  34.609  25.250   8.850
 3539POPC   GL2 6554  34.709  25.221   8.850
 3539POPC   C1A 6555  34.609  25.236   8.550
 3539POPC   D2A 6556  34.621  25.307   8.250
 3539POPC   C3A 6557  34.577  25.277   7.950
 3539POPC   C4A 6558  34.588  25.241   7.650
 3539POPC   C1B 6559  34.829  25.299   8.550
 3539POPC   C2B 6560  34.855  25.318   8.250
 3539POPC   C3B 6561  34.812  25.253   7.950
 3539POPC   C4B 6562  34.841  25.253   7.650
 3540POPC   NC3 6563  27.604  19.828   9.450
 3540POPC   PO4 6564  27.592  19.788   9.150
 3540POPC   GL1 6565  27.616  19.834   8.850
 3540POPC   GL2 6566  27.512  19.874   8.850
 3540POPC   C1A 6567  27.551  19.809   8.550
 3540POPC   D2A 6568  27.549  19.810   8.250
 3540POPC   C3A 6569  27.588  19.795   7.950
 3540POPC   C4A 6570  27.545  19.815   7.650
 3540POPC   C1B 6571  27.416  19.999   8.550
 3540POPC   C2B 6572  27.358  19.999   8.250
 3540POPC   C3B 6573  27.336  19.995   7.950
 3540POPC   C4B 6574  27.335  19.994   7.650
 3541POPC   NC3 6575  43.070  24.465   9.450
 3541POPC   PO4 6576  43.100  24.473   9.150
 3541POPC   GL1 6577  43.109  24.525   8.850
 3541POPC   GL2 6578  42.982  24.538   8.850
 3541POPC   C1A 6579  43.107  24.452   8.550
 3541POPC   D2A 6580  43.111  24.508   8.250
 3541POPC   C3A 6581  43.077  24.452   7.950
 3541POPC   C4A 6582  43.104  24.525   7.650
 3541POPC   C1B 6583  42.838  24.507   8.550
 3541POPC   C2B 6584  42.844  24.519   8.250
 3541POPC   C3B 6585  42.912  24.547   7.950
 3541POPC   C4B 6586  42.834  24.508   7.650
 3542POPC   NC3 6587   5.106   2.740   9.450
 3542POPC   PO4 6588   5.087   2.810   9.150
 3542POPC   GL1 6589   5.087   2.730   8.850
 3542POPC   GL2 6590   5.055   2.840   8.850
 3542POPC   C1A 6591   5.076   2.800   8.550
 3542POPC   D2A 6592   5.141   2.779   8.250
 3542POPC   C3A 6593   5.143   2.748   7.950
 3542POPC   C4A 6594   5.083   2.732   7.650
 3542POPC   C1B 6595   4.900   2.958   8.550
 3542POPC   C2B 6596   4.937   2.947   8.250
 3542POPC   C3B 6597   4.978   2.953   7.950
 3542POPC   C4B 6598   4.920   3.011   7.650
 3543POPC   NC3 6599  40.755  43.120   9.450
 3543POPC   PO4 6600  40.771  43.086   9.150
 3543POPC   GL1 6601  40.793  43.102   8.850
 3543POPC   GL2 6602  40.789  42.955   8.850
 3543POPC   C1A 6603  40.762  43.078   8.550
 3543POPC   D2A 6604  40.833  43.084   8.250
 3543POPC   C3A 6605  40.804  43.082   7.950
 3543POPC   C4A 6606  40.752  43.101   7.650
 3543POPC   C1B 6607  40.846  42.903   8.550
 3543POPC   C2B 6608  40.776  42.892   8.250
 3543POPC   C3B 6609  40.791  42.889   7.950
 3543POPC   C4B 6610  40.818  42.854   7.650
 3544POPC   NC3 6611  16.734  30.743   9.450
 3544POPC   PO4 6612  16.755  30.729   9.150
 3544POPC   GL1 6613  16.719  30.655   8.850
 3544POPC   GL2 6614  16.763  30.838   8.850
 3544POPC   C1A 6615  16.725  30.702   8.550
 3544POPC   D2A 6616  16.754  30.655   8.250
 3544POPC   C3A 6617  16.685  30.739   7.950
 3544POPC   C4A 6618  16.777  30.707   7.650
 3544POPC   C1B 6619  16.731  30.907   8.550
 3544POPC   C2B 6620  16.696  30.898   8.250
 3544POPC   C3B 6621  16.696  30.943   7.950
 3544POPC   C4B 6622  16.768  30.992   7.650
 3545POPC   NC3 6623  40.788   0.483   9.450
 3545POPC   PO4 6624  40.822   0.464   9.150
 3545POPC   GL1 6625  40.793   0.434   8.850
 3545POPC   GL2 6626  40.688   0.604   8.850
 3545POPC   C1A 6627  40.790   0.421   8.550
 3545POPC   D2A 6628  40.812   0.394   8.250
 3545POPC   C3A 6629  40.797   0.419   7.950
 3545POPC   C4A 6630  40.830   0.444   7.650
 3545POPC   C1B 6631  40.700   0.668   8.550
 3545POPC   C2B 6632  40.732   0.668   8.250
 3545POPC   C3B 6633  40.668   0.699   7.950
 3545POPC   C4B 6634  40.730   0.701   7.650
 3546POPC   NC3 6635  34.600  41.605   9.450
 3546POPC   PO4 6636  34.581  41.593   9.150
 3546POPC   GL1 6637  34.556  41.603   8.850
 3546POPC   GL2 6638  34.489  41.713   8.850
 3546POPC   C1A 6639  34.560  41.550   8.550
 3546POPC   D2A 6640  34.626  41.571   8.250
 3546POPC   C3A 6641  34.612  41.545   7.950
 3546POPC   C4A 6642  34.556  41.588   7.650
 3546POPC   C1B 6643  34.519  41.752   8.550
 3546POPC   C2B 6644  34.529  41.808   8.250
 3546POPC   C3B 6645  34.527  41.795   7.950
 3546POPC   C4B 6646  34.496  41.766   7.650
 3547POPC   NC3 6647  15.988  30.663   9.450
 3547POPC   PO4 6648  15.981  30.713   9.150
 3547POPC   GL1 6649  15.952  30.732   8.850
 3547POPC   GL2 6650  15.895  30.561   8.850
 3547POPC   C1A 6651  15.968  30.682   8.550
 3547POPC   D2A 6652  15.987  30.687   8.250
 3547POPC   C3A 6653  15.944  30.647   7.950
 3547POPC   C4A 6654  15.953  30.649   7.650
 3547POPC   C1B 6655  15.894  30.440   8.550
 3547POPC   C2B 6656  15.883  30.422   8.250
 3547POPC   C3B 6657  15.804  30.515   7.950
 3547POPC   C4B 6658  15.875  30.446   7.650
 3548POPC   NC3 6659   1.174  32.244   9.450
 3548POPC   PO4 6660   1.227  32.220   9.150
 3548POPC   GL1 6661   1.244  32.273   8.850
 3548POPC   GL2 6662   1.194  32.146   8.850
 3548POPC   C1A 6663   1.257  32.252   8.550
 3548POPC   D2A 6664   1.192  32.218   8.250
 3548POPC   C3A 6665   1.182  32.235   7.950
 3548POPC   C4A 6666   1.173  32.298   7.650
 3548POPC   C1B 6667   1.136  31.980   8.550
 3548POPC   C2B 6668   1.095  31.998   8.250
 3548POPC   C3B 6669   1.059  32.027   7.950
 3548POPC   C4B 6670   1.053  32.040   7.650
 3549POPC   NC3 6671  10.484  12.041   9.450
 3549POPC   PO4 6672  10.509  12.034   9.150
 3549POPC   GL1 6673  10.529  12.052   8.850
 3549POPC   GL2 6674  10.609  12.238   8.850
 3549POPC   C1A 6675  10.484  12.086   8.550
 3549POPC   D2A 6676  10.502  12.084   8.250
 3549POPC   C3A 6677  10.534  12.028   7.950
 3549POPC   C4A 6678  10.528  12.032   7.650
 3549POPC   C1B 6679  10.558  12.351   8.550
 3549POPC   C2B 6680  10.567  12.301   8.250
 3549POPC   C3B 6681  10.617  12.324   7.950
 3549POPC   C4B 6682  10.564  12.294   7.650
 3550POPC   NC3 6683  31.430  33.009   9.450
 3550POPC   PO4 6684  31.480  33.060   9.150
 3550POPC   GL1 6685  31.478  33.073   8.850
 3550POPC   GL2 6686  31.321  33.056   8.850
 3550POPC   C1A 6687  31.456  33.009   8.550
 3550POPC   D2A 6688  31.481  33.072   8.250
 3550POPC   C3A 6689  31.507  33.018   7.950
 3550POPC   C4A 6690  31.502  33.067   7.650
 3550POPC   C1B 6691  31.241  33.121   8.550
 3550POPC   C2B 6692  31.290  33.165   8.250
 3550POPC   C3B 6693  31.285  33.135   7.950
 3550POPC   C4B 6694  31.215  33.189   7.650
 3551POPC   NC3 6695  43.140   4.297   9.450
 3551POPC   PO4 6696  43.145   4.348   9.150
 3551POPC   GL1 6697  43.070   4.292   8.850
 3551POPC   GL2 6698  43.220   4.434   8.850
 3551POPC   C1A 6699  43.139   4.345   8.550
 3551POPC   D2A 6700  43.142   4.336   8.250
 3551POPC   C3A 6701  43.156   4.320   7.950
 3551POPC   C4A 6702  43.096   4.332   7.650
 3551POPC   C1B 6703  43.293   4.540   8.550
 3551POPC   C2B 6704  43.300   4.533   8.250
 3551POPC   C3B 6705  43.292   4.568   7.950
 3551POPC   C4B 6706  43.261   4.528   7.650
 3552POPC   NC3 6707  25.291   5.834   9.450
 3552POPC   PO4 6708  25.226   5.882   9.150
 3552POPC   GL1 6709  25.276   5.885   8.850
 3552POPC   GL2 6710  25.235   6.034   8.850
 3552POPC   C1A 6711  25.252   5.888   8.550
 3552POPC   D2A 6712  25.228   5.885   8.250
 3552POPC   C3A 6713  25.234   5.880   7.950
 3552POPC   C4A 6714  25.291   5.831   7.650
 3552POPC   C1B 6715  25.225   6.138   8.550
 3552POPC   C2B 6716  25.242   6.130   8.250
 3552POPC   C3B 6717  25.245   6.154   7.950
 3552POPC   C4B 6718  25.270   6.164   7.650
 3553POPC   NC3 6719  39.990  16.754   9.450
 3553POPC   PO4 6720  40.001  16.773   9.150
 3553POPC   GL1 6721  39.999  16.689   8.850
 3553POPC   GL2 6722  39.878  16.861   8.850
 3553POPC   C1A 6723  40.045  16.778   8.550
 3553POPC   D2A 6724  40.005  16.709   8.250
 3553POPC   C3A 6725  39.963  16.766   7.950
 3553POPC   C4A 6726  39.984  16.736   7.650
 3553POPC   C1B 6727  39.850  16.895   8.550
 3553POPC   C2B 6728  39.821  16.967   8.250
 3553POPC   C3B 6729  39.803  16.895   7.950
 3553POPC   C4B 6730  39.829  16.898   7.650
 3554POPC   NC3 6731  22.198  20.607   9.450
 3554POPC   PO4 6732  22.139  20.577   9.150
 3554POPC   GL1 6733  22.191  20.616   8.850
 3554POPC   GL2 6734  22.163  20.479   8.850
 3554POPC   C1A 6735  22.211  20.654   8.550
 3554POPC   D2A 6736  22.142  20.626   8.250
 3554POPC   C3A 6737  22.125  20.577   7.950
 3554POPC   C4A 6738  22.198  20.575   7.650
 3554POPC   C1B 6739  22.259  20.381   8.550
 3554POPC   C2B 6740  22.214  20.351   8.250
 3554POPC   C3B 6741  22.264  20.388   7.950
 3554POPC   C4B 6742  22.225  20.416   7.650
 3555POPC   NC3 6743  10.496  26.813   9.450
 3555POPC   PO4 6744  10.479  26.858   9.150
 3555POPC   GL1 6745  10.554  26.859   8.850
 3555POPC   GL2 6746  10.434  26.778   8.850
 3555POPC   C1A 6747  10.532  26.797   8.550
 3555POPC   D2A 6748  10.493  26.802   8.250
 3555POPC   C3A 6749  10.571  26.840   7.950
 3555POPC   C4A 6750  10.572  26.798   7.650
 3555POPC   C1B 6751  10.267  26.825   8.550
 3555POPC   C2B 6752  10.233  26.842   8.250
 3555POPC   C3B 6753  10.227  26.834   7.950
 3555POPC   C4B 6754  10.270  26.796   7.650
 3556POPC   NC3 6755   6.650   5.833   9.450
 3556POPC   PO4 6756   6.675   5.841   9.150
 3556POPC   GL1 6757   6.615   5.874   8.850
 3556POPC   GL2 6758   6.553   5.897   8.850
 3556POPC   C1A 6759   6.640   5.849   8.550
 3556POPC   D2A 6760   6.657   5.919   8.250
 3556POPC   C3A 6761   6.658   5.845   7.950
 3556POPC   C4A 6762   6.639   5.858   7.650
 3556POPC   C1B 6763   6.441   5.924   8.550
 3556POPC   C2B 6764   6.371   5.926   8.250
 3556POPC   C3B 6765   6.355   5.957   7.950
 3556POPC   C4B 6766   6.435   5.978   7.650
 3557POPC   NC3 6767  20.590  35.354   9.450
 3557POPC   PO4 6768  20.609  35.305   9.150
 3557POPC   GL1 6769  20.622  35.350   8.850
 3557POPC   GL2 6770  20.533  35.413   8.850
 3557POPC   C1A 6771  20.599  35.342   8.550
 3557POPC   D2A 6772  20.600  35.342   8.250
 3557POPC   C3A 6773  20.617  35.348   7.950
 3557POPC   C4A 6774  20.580  35.367   7.650
 3557POPC   C1B 6775  20.402  35.536   8.550
 3557POPC   C2B 6776  20.476  35.504   8.250
 3557POPC   C3B 6777  20.471  35.544   7.950
 3557POPC   C4B 6778  20.427  35.494   7.650
 3558POPC   NC3 6779  43.149   7.450   9.450
 3558POPC   PO4 6780  43.129   7.372   9.150
 3558POPC   GL1 6781  43.158   7.431   8.850
 3558POPC   GL2 6782  43.038   7.366   8.850
 3558POPC   C1A 6783  43.147   7.381   8.550
 3558POPC   D2A 6784  43.068   7.424   8.250
 3558POPC   C3A 6785  43.145   7.377   7.950
 3558POPC   C4A 6786  43.069   7.424   7.650
 3558POPC   C1B 6787  43.005   7.250   8.550
 3558POPC   C2B 6788  43.003   7.253   8.250
 3558POPC   C3B 6789  42.933   7.222   7.950
 3558POPC   C4B 6790  42.957   7.178   7.650
 3559POPC   NC3 6791  38.422  37.655   9.450
 3559POPC   PO4 6792  38.444  37.642   9.150
 3559POPC   GL1 6793  38.446  37.709   8.850
 3559POPC   GL2 6794  38.611  37.677   8.850
 3559POPC   C1A 6795  38.444  37.654   8.550
 3559POPC   D2A 6796  38.443  37.641   8.250
 3559POPC   C3A 6797  38.504  37.726   7.950
 3559POPC   C4A 6798  38.502  37.695   7.650
 3559POPC   C1B 6799  38.747  37.712   8.550
 3559POPC   C2B 6800  38.687  37.654   8.250
 3559POPC   C3B 6801  38.702  37.640   7.950
 3559POPC   C4B 6802  38.740  37.644   7.650
 3560POPC   NC3 6803   5.119  41.565   9.450
 3560POPC   PO4 6804   5.118  41.545   9.150
 3560POPC   GL1 6805   5.046  41.514   8.850
 3560POPC   GL2 6806   5.011  41.507   8.850
 3560POPC   C1A 6807   5.089  41.569   8.550
 3560POPC   D2A 6808   5.129  41.551   8.250
 3560POPC   C3A 6809   5.137  41.537   7.950
 3560POPC   C4A 6810   5.057  41.525   7.650
 3560POPC   C1B 6811   4.894  41.490   8.550
 3560POPC   C2B 6812   4.883  41.418   8.250
 3560POPC   C3B 6813   4.839  41.416   7.950
 3560POPC   C4B 6814   4.838  41.438   7.650
 3561POPC   NC3 6815  41.526  19.823   9.450
 3561POPC   PO4 6816  41.596  19.844   9.150
 3561POPC   GL1 6817  41.587  19.855   8.850
 3561POPC   GL2 6818  41.664  19.918   8.850
 3561POPC   C1A 6819  41.570  19.860   8.550
 3561POPC   D2A 6820  41.517  19.846   8.250
 3561POPC   C3A 6821  41.536  19.845   7.950
 3561POPC   C4A 6822  41.541  19.816   7.650
 3561POPC   C1B 6823  41.737  19.996   8.550
 3561POPC   C2B 6824  41.759  20.037   8.250
 3561POPC   C3B 6825  41.780  19.965   7.950
 3561POPC   C4B 6826  41.711  20.012   7.650
 3562POPC   NC3 6827  27.548  18.249   9.450
 3562POPC   PO4 6828  27.587  18.263   9.150
 3562POPC   GL1 6829  27.567  18.257   8.850
 3562POPC   GL2 6830  27.656  18.184   8.850
 3562POPC   C1A 6831  27.586  18.292   8.550
 3562POPC   D2A 6832  27.608  18.275   8.250
 3562POPC   C3A 6833  27.616  18.288   7.950
 3562POPC   C4A 6834  27.555  18.301   7.650
 3562POPC   C1B 6835  27.708  18.093   8.550
 3562POPC   C2B 6836  27.696  18.113   8.250
 3562POPC   C3B 6837  27.712  18.055   7.950
 3562POPC   C4B 6838  27.789  18.119   7.650
 3563POPC   NC3 6839  44.658  43.932   9.450
 3563POPC   PO4 6840  44.690  43.861   9.150
 3563POPC   GL1 6841  44.662  43.848   8.850
 3563POPC   GL2 6842  44.692  44.009   8.850
 3563POPC   C1A 6843  44.663  43.927   8.550
 3563POPC   D2A 6844  44.683  43.861   8.250
 3563POPC   C3A 6845  44.616  43.839   7.950
 3563POPC   C4A 6846  44.708  43.898   7.650
 3563POPC   C1B 6847  44.687  44.154   8.550
 3563POPC   C2B 6848  44.657  44.131   8.250
 3563POPC   C3B 6849  44.697  44.101   7.950
 3563POPC   C4B 6850  44.649  44.106   7.650
 3564POPC   NC3 6851  35.358  32.277   9.450
 3564POPC   PO4 6852  35.360  32.274   9.150
 3564POPC   GL1 6853  35.373  32.254   8.850
 3564POPC   GL2 6854  35.221  32.284   8.850
 3564POPC   C1A 6855  35.325  32.278   8.550
 3564POPC   D2A 6856  35.316  32.205   8.250
 3564POPC   C3A 6857  35.357  32.238   7.950
 3564POPC   C4A 6858  35.389  32.275   7.650
 3564POPC   C1B 6859  35.117  32.280   8.550
 3564POPC   C2B 6860  35.121  32.312   8.250
 3564POPC   C3B 6861  35.103  32.284   7.950
 3564POPC   C4B 6862  35.136  32.280   7.650
 3565POPC   NC3 6863  15.974  29.119   9.450
 3565POPC   PO4 6864  15.969  29.128   9.150
 3565POPC   GL1 6865  15.927  29.101   8.850
 3565POPC   GL2 6866  15.845  29.242   8.850
 3565POPC   C1A 6867  15.981  29.194   8.550
 3565POPC   D2A 6868  15.963  29.167   8.250
 3565POPC   C3A 6869  15.943  29.136   7.950
 3565POPC   C4A 6870  15.926  29.128   7.650
 3565POPC   C1B 6871  15.761  29.311   8.550
 3565POPC   C2B 6872  15.730  29.269   8.250
 3565POPC   C3B 6873  15.747  29.274   7.950
 3565POPC   C4B 6874  15.782  29.310   7.650
 3566POPC   NC3 6875  32.983  31.439   9.450
 3566POPC   PO4 6876  33.027  31.520   9.150
 3566POPC   GL1 6877  33.051  31.425   8.850
 3566POPC   GL2 6878  33.025  31.566   8.850
 3566POPC   C1A 6879  33.037  31.501   8.550
 3566POPC   D2A 6880  33.055  31.495   8.250
 3566POPC   C3A 6881  32.980  31.461   7.950
 3566POPC   C4A 6882  32.977  31.507   7.650
 3566POPC   C1B 6883  32.903  31.667   8.550
 3566POPC   C2B 6884  32.968  31.720   8.250
 3566POPC   C3B 6885  32.893  31.663   7.950
 3566POPC   C4B 6886  32.979  31.713   7.650
 3567POPC   NC3 6887   4.330  11.337   9.450
 3567POPC   PO4 6888   4.326  11.331   9.150
 3567POPC   GL1 6889   4.285  11.262   8.850
 3567POPC   GL2 6890   4.205  11.286   8.850
 3567POPC   C1A 6891   4.305  11.306   8.550
 3567POPC   D2A 6892   4.274  11.252   8.250
 3567POPC   C3A 6893   4.268  11.302   7.950
 3567POPC   C4A 6894   4.327  11.344   7.650
 3567POPC   C1B 6895   4.029  11.246   8.550
 3567POPC   C2B 6896   4.067  11.242   8.250
 3567POPC   C3B 6897   4.107  11.264   7.950
 3567POPC   C4B 6898   4.069  11.295   7.650
 3568POPC   NC3 6899   4.326  21.374   9.450
 3568POPC   PO4 6900   4.332  21.341   9.150
 3568POPC   GL1 6901   4.295  21.400   8.850
 3568POPC   GL2 6902   4.430  21.439   8.850
 3568POPC   C1A 6903   4.309  21.359   8.550
 3568POPC   D2A 6904   4.282  21.412   8.250
 3568POPC   C3A 6905   4.335  21.402   7.950
 3568POPC   C4A 6906   4.359  21.358   7.650
 3568POPC   C1B 6907   4.562  21.583   8.550
 3568POPC   C2B 6908   4.512  21.518   8.250
 3568POPC   C3B 6909   4.499  21.506   7.950
 3568POPC   C4B 6910   4.558  21.583   7.650
 3569POPC   NC3 6911  32.239  20.594   9.450
 3569POPC   PO4 6912  32.205  20.616   9.150
 3569POPC   GL1 6913  32.231  20.638   8.850
 3569POPC   GL2 6914  32.385  20.683   8.850
 3569POPC   C1A 6915  32.258  20.573   8.550
 3569POPC   D2A 6916  32.218  20.624   8.250
 3569POPC   C3A 6917  32.263  20.625   7.950
 3569POPC   C4A 6918  32.240  20.571   7.650
 3569POPC   C1B 6919  32.498  20.668   8.550
 3569POPC   C2B 6920  32.468  20.671   8.250
 3569POPC   C3B 6921  32.498  20.663   7.950
 3569POPC   C4B 6922  32.539  20.641   7.650
 3570POPC   NC3 6923  33.820   8.204   9.450
 3570POPC   PO4 6924  33.780   8.162   9.150
 3570POPC   GL1 6925  33.769   8.228   8.850
 3570POPC   GL2 6926  33.715   8.345   8.850
 3570POPC   C1A 6927  33.821   8.151   8.550
 3570POPC   D2A 6928  33.799   8.193   8.250
 3570POPC   C3A 6929  33.792   8.210   7.950
 3570POPC   C4A 6930  33.807   8.184   7.650
 3570POPC   C1B 6931  33.733   8.388   8.550
 3570POPC   C2B 6932  33.698   8.390   8.250
 3570POPC   C3B 6933  33.686   8.461   7.950
 3570POPC   C4B 6934  33.726   8.409   7.650
 3571POPC   NC3 6935  10.481  27.604   9.450
 3571POPC   PO4 6936  10.537  27.639   9.150
 3571POPC   GL1 6937  10.517  27.551   8.850
 3571POPC   GL2 6938  10.540  27.730   8.850
 3571POPC   C1A 6939  10.492  27.636   8.550
 3571POPC   D2A 6940  10.511  27.636   8.250
 3571POPC   C3A 6941  10.531  27.585   7.950
 3571POPC   C4A 6942  10.487  27.638   7.650
 3571POPC   C1B 6943  10.571  27.871   8.550
 3571POPC   C2B 6944  10.603  27.794   8.250
 3571POPC   C3B 6945  10.576  27.803   7.950
 3571POPC   C4B 6946  10.541  27.869   7.650
 3572POPC   NC3 6947  22.122  15.151   9.450
 3572POPC   PO4 6948  22.209  15.154   9.150
 3572POPC   GL1 6949  22.121  15.181   8.850
 3572POPC   GL2 6950  22.209  15.291   8.850
 3572POPC   C1A 6951  22.183  15.170   8.550
 3572POPC   D2A 6952  22.141  15.229   8.250
 3572POPC   C3A 6953  22.122  15.158   7.950
 3572POPC   C4A 6954  22.205  15.197   7.650
 3572POPC   C1B 6955  22.197  15.420   8.550
 3572POPC   C2B 6956  22.140  15.467   8.250
 3572POPC   C3B 6957  22.216  15.428   7.950
 3572POPC   C4B 6958  22.213  15.435   7.650
 3573POPC   NC3 6959  36.080   6.629   9.450
 3573POPC   PO4 6960  36.129   6.684   9.150
 3573POPC   GL1 6961  36.151   6.637   8.850
 3573POPC   GL2 6962  36.131   6.478   8.850
 3573POPC   C1A 6963  36.160   6.676   8.550
 3573POPC   D2A 6964  36.094   6.612   8.250
 3573POPC   C3A 6965  36.146   6.677   7.950
 3573POPC   C4A 6966  36.138   6.623   7.650
 3573POPC   C1B 6967  36.083   6.367   8.550
 3573POPC   C2B 6968  36.078   6.355   8.250
 3573POPC   C3B 6969  36.042   6.358   7.950
 3573POPC   C4B 6970  36.061   6.421   7.650
 3574POPC   NC3 6971  34.534  38.499   9.450
 3574POPC   PO4 6972  34.561  38.442   9.150
 3574POPC   GL1 6973  34.580  38.475   8.850
 3574POPC   GL2 6974  34.706  38.598   8.850
 3574POPC   C1A 6975  34.565  38.459   8.550
 3574POPC   D2A 6976  34.587  38.481   8.250
 3574POPC   C3A 6977  34.625  38.409   7.950
 3574POPC   C4A 6978  34.600  38.488   7.650
 3574POPC   C1B 6979  34.763  38.624   8.550
 3574POPC   C2B 6980  34.754  38.620   8.250
 3574POPC   C3B 6981  34.727  38.646   7.950
 3574POPC   C4B 6982  34.716  38.599   7.650
 3575POPC   NC3 6983  43.116   5.098   9.450
 3575POPC   PO4 6984  43.159   5.047   9.150
 3575POPC   GL1 6985  43.153   5.131   8.850
 3575POPC   GL2 6986  43.226   5.198   8.850
 3575POPC   C1A 6987  43.152   5.050   8.550
 3575POPC   D2A 6988  43.122   5.087   8.250
 3575POPC   C3A 6989  43.100   5.116   7.950
 3575POPC   C4A 6990  43.144   5.113   7.650
 3575POPC   C1B 6991  43.304   5.245   8.550
 3575POPC   C2B 6992  43.265   5.194   8.250
 3575POPC   C3B 6993  43.357   5.272   7.950
 3575POPC   C4B 6994  43.269   5.208   7.650
 3576POPC   NC3 6995  44.617  33.813   9.450
 3576POPC   PO4 6996  44.624  33.777   9.150
 3576POPC   GL1 6997  44.666  33.812   8.850
 3576POPC   GL2 6998  44.658  33.706   8.850
 3576POPC   C1A 6999  44.695  33.830   8.550
 3576POPC   D2A 7000  44.706  33.763   8.250
 3576POPC   C3A 7001  44.665  33.766   7.950
 3576POPC   C4A 7002  44.627  33.809   7.650
 3576POPC   C1B 7003  44.535  33.533   8.550
 3576POPC   C2B 7004  44.616  33.524   8.250
 3576POPC   C3B 7005  44.557  33.554   7.950
 3576POPC   C4B 7006  44.608  33.564   7.650
 3577POPC   NC3 7007  14.420  23.705   9.450
 3577POPC   PO4 7008  14.444  23.757   9.150
 3577POPC   GL1 7009  14.371  23.690   8.850
 3577POPC   GL2 7010  14.247  23.670   8.850
 3577POPC   C1A 7011  14.360  23.685   8.550
 3577POPC   D2A 7012  14.391  23.666   8.250
 3577POPC   C3A 7013  14.438  23.751   7.950
 3577POPC   C4A 7014  14.389  23.732   7.650
 3577POPC   C1B 7015  14.177  23.596   8.550
 3577POPC   C2B 7016  14.203  23.633   8.250
 3577POPC   C3B 7017  14.195  23.585   7.950
 3577POPC   C4B 7018  14.125  23.609   7.650
 3578POPC   NC3 7019  18.285  43.863   9.450
 3578POPC   PO4 7020  18.302  43.928   9.150
 3578POPC   GL1 7021  18.333  43.924   8.850
 3578POPC   GL2 7022  18.282  43.743   8.850
 3578POPC   C1A 7023  18.247  43.839   8.550
 3578POPC   D2A 7024  18.319  43.902   8.250
 3578POPC   C3A 7025  18.244  43.922   7.950
 3578POPC   C4A 7026  18.332  43.919   7.650
 3578POPC   C1B 7027  18.414  43.624   8.550
 3578POPC   C2B 7028  18.411  43.642   8.250
 3578POPC   C3B 7029  18.379  43.653   7.950
 3578POPC   C4B 7030  18.374  43.643   7.650
 3579POPC   NC3 7031   2.748  42.317   9.450
 3579POPC   PO4 7032   2.779  42.320   9.150
 3579POPC   GL1 7033   2.763  42.333   8.850
 3579POPC   GL2 7034   2.809  42.268   8.850
 3579POPC   C1A 7035   2.774  42.318   8.550
 3579POPC   D2A 7036   2.737  42.375   8.250
 3579POPC   C3A 7037   2.726  42.341   7.950
 3579POPC   C4A 7038   2.781  42.374   7.650
 3579POPC   C1B 7039   2.897  42.167   8.550
 3579POPC   C2B 7040   2.894  42.137   8.250
 3579POPC   C3B 7041   2.976  42.115   7.950
 3579POPC   C4B 7042   2.932  42.112   7.650
 3580POPC   NC3 7043  36.918  36.879   9.450
 3580POPC   PO4 7044  36.898  36.857   9.150
 3580POPC   GL1 7045  36.859  36.920   8.850
 3580POPC   GL2 7046  36.826  36.866   8.850
 3580POPC   C1A 7047  36.939  36.882   8.550
 3580POPC   D2A 7048  36.918  36.896   8.250
 3580POPC   C3A 7049  36.949  36.883   7.950
 3580POPC   C4A 7050  36.891  36.899   7.650
 3580POPC   C1B 7051  36.673  36.817   8.550
 3580POPC   C2B 7052  36.699  36.771   8.250
 3580POPC   C3B 7053  36.690  36.789   7.950
 3580POPC   C4B 7054  36.634  36.817   7.650
 3581POPC   NC3 7055  16.005  19.022   9.450
 3581POPC   PO4 7056  15.947  19.057   9.150
 3581POPC   GL1 7057  15.976  19.052   8.850
 3581POPC   GL2 7058  15.804  18.971   8.850
 3581POPC   C1A 7059  16.005  19.062   8.550
 3581POPC   D2A 7060  15.956  19.023   8.250
 3581POPC   C3A 7061  15.957  19.049   7.950
 3581POPC   C4A 7062  15.943  19.086   7.650
 3581POPC   C1B 7063  15.699  18.965   8.550
 3581POPC   C2B 7064  15.749  18.965   8.250
 3581POPC   C3B 7065  15.696  18.945   7.950
 3581POPC   C4B 7066  15.746  18.901   7.650
 3582POPC   NC3 7067  29.105  22.156   9.450
 3582POPC   PO4 7068  29.176  22.165   9.150
 3582POPC   GL1 7069  29.107  22.149   8.850
 3582POPC   GL2 7070  29.017  22.095   8.850
 3582POPC   C1A 7071  29.192  22.133   8.550
 3582POPC   D2A 7072  29.147  22.137   8.250
 3582POPC   C3A 7073  29.139  22.136   7.950
 3582POPC   C4A 7074  29.097  22.164   7.650
 3582POPC   C1B 7075  28.936  22.096   8.550
 3582POPC   C2B 7076  28.898  22.067   8.250
 3582POPC   C3B 7077  28.964  22.088   7.950
 3582POPC   C4B 7078  28.872  22.069   7.650
 3583POPC   NC3 7079   0.470  15.188   9.450
 3583POPC   PO4 7080   0.403  15.167   9.150
 3583POPC   GL1 7081   0.420  15.199   8.850
 3583POPC   GL2 7082   0.435  15.018   8.850
 3583POPC   C1A 7083   0.423  15.197   8.550
 3583POPC   D2A 7084   0.450  15.185   8.250
 3583POPC   C3A 7085   0.402  15.175   7.950
 3583POPC   C4A 7086   0.468  15.141   7.650
 3583POPC   C1B 7087   0.557  14.968   8.550
 3583POPC   C2B 7088   0.545  14.930   8.250
 3583POPC   C3B 7089   0.552  14.961   7.950
 3583POPC   C4B 7090   0.497  14.917   7.650
 3584POPC   NC3 7091   1.221  15.965   9.450
 3584POPC   PO4 7092   1.244  15.913   9.150
 3584POPC   GL1 7093   1.230  15.965   8.850
 3584POPC   GL2 7094   1.092  16.006   8.850
 3584POPC   C1A 7095   1.222  15.971   8.550
 3584POPC   D2A 7096   1.182  15.961   8.250
 3584POPC   C3A 7097   1.216  15.956   7.950
 3584POPC   C4A 7098   1.221  15.997   7.650
 3584POPC   C1B 7099   1.015  16.060   8.550
 3584POPC   C2B 7100   0.945  16.065   8.250
 3584POPC   C3B 7101   0.971  16.037   7.950
 3584POPC   C4B 7102   1.000  16.090   7.650
 3585POPC   NC3 7103  19.840  22.953   9.450
 3585POPC   PO4 7104  19.807  22.985   9.150
 3585POPC   GL1 7105  19.861  22.919   8.850
 3585POPC   GL2 7106  19.950  23.012   8.850
 3585POPC   C1A 7107  19.874  22.906   8.550
 3585POPC   D2A 7108  19.811  22.977   8.250
 3585POPC   C3A 7109  19.840  22.988   7.950
 3585POPC   C4A 7110  19.807  22.917   7.650
 3585POPC   C1B 7111  19.988  23.105   8.550
 3585POPC   C2B 7112  19.974  23.132   8.250
 3585POPC   C3B 7113  19.991  23.149   7.950
 3585POPC   C4B 7114  19.988  23.098   7.650
 3586POPC   NC3 7115  25.262  40.733   9.450
 3586POPC   PO4 7116  25.245  40.773   9.150
 3586POPC   GL1 7117  25.245  40.754   8.850
 3586POPC   GL2 7118  25.146  40.830   8.850
 3586POPC   C1A 7119  25.307  40.779   8.550
 3586POPC   D2A 7120  25.241  40.804   8.250
 3586POPC   C3A 7121  25.303  40.767   7.950
 3586POPC   C4A 7122  25.303  40.811   7.650
 3586POPC   C1B 7123  25.059  40.838   8.550
 3586POPC   C2B 7124  25.034  40.761   8.250
 3586POPC   C3B 7125  24.975  40.772   7.950
 3586POPC   C4B 7126  25.054  40.809   7.650
 3587POPC   NC3 7127  16.713  31.448   9.450
 3587POPC   PO4 7128  16.690  31.447   9.150
 3587POPC   GL1 7129  16.727  31.444   8.850
 3587POPC   GL2 7130  16.662  31.545   8.850
 3587POPC   C1A 7131  16.750  31.486   8.550
 3587POPC   D2A 7132  16.768  31.423   8.250
 3587POPC   C3A 7133  16.769  31.495   7.950
 3587POPC   C4A 7134  16.718  31.438   7.650
 3587POPC   C1B 7135  16.599  31.657   8.550
 3587POPC   C2B 7136  16.668  31.722   8.250
 3587POPC   C3B 7137  16.594  31.649   7.950
 3587POPC   C4B 7138  16.622  31.673   7.650
 3588POPC   NC3 7139  43.854  12.882   9.450
 3588POPC   PO4 7140  43.847  12.901   9.150
 3588POPC   GL1 7141  43.859  12.865   8.850
 3588POPC   GL2 7142  43.777  12.886   8.850
 3588POPC   C1A 7143  43.923  12.892   8.550
 3588POPC   D2A 7144  43.877  12.856   8.250
 3588POPC   C3A 7145  43.902  12.814   7.950
 3588POPC   C4A 7146  43.853  12.872   7.650
 3588POPC   C1B 7147  43.608  12.892   8.550
 3588POPC   C2B 7148  43.662  12.917   8.250
 3588POPC   C3B 7149  43.681  12.876   7.950
 3588POPC   C4B 7150  43.598  12.884   7.650
 3589POPC   NC3 7151  38.443  12.088   9.450
 3589POPC   PO4 7152  38.466  12.067   9.150
 3589POPC   GL1 7153  38.432  12.070   8.850
 3589POPC   GL2 7154  38.403  12.237   8.850
 3589POPC   C1A 7155  38.452  12.031   8.550
 3589POPC   D2A 7156  38.478  12.093   8.250
 3589POPC   C3A 7157  38.444  12.103   7.950
 3589POPC   C4A 7158  38.419  12.088   7.650
 3589POPC   C1B 7159  38.344  12.275   8.550
 3589POPC   C2B 7160  38.348  12.278   8.250
 3589POPC   C3B 7161  38.371  12.277   7.950
 3589POPC   C4B 7162  38.396  12.331   7.650
 3590POPC   NC3 7163  25.229   9.791   9.450
 3590POPC   PO4 7164  25.280   9.789   9.150
 3590POPC   GL1 7165  25.255   9.789   8.850
 3590POPC   GL2 7166  25.100   9.727   8.850
 3590POPC   C1A 7167  25.314   9.751   8.550
 3590POPC   D2A 7168  25.251   9.704   8.250
 3590POPC   C3A 7169  25.230   9.710   7.950
 3590POPC   C4A 7170  25.222   9.766   7.650
 3590POPC   C1B 7171  25.051   9.732   8.550
 3590POPC   C2B 7172  24.967   9.728   8.250
 3590POPC   C3B 7173  25.043   9.789   7.950
 3590POPC   C4B 7174  25.055   9.758   7.650
 3591POPC   NC3 7175  32.277   7.464   9.450
 3591POPC   PO4 7176  32.293   7.374   9.150
 3591POPC   GL1 7177  32.215   7.436   8.850
 3591POPC   GL2 7178  32.179   7.324   8.850
 3591POPC   C1A 7179  32.295   7.471   8.550
 3591POPC   D2A 7180  32.212   7.405   8.250
 3591POPC   C3A 7181  32.295   7.412   7.950
 3591POPC   C4A 7182  32.215   7.453   7.650
 3591POPC   C1B 7183  32.196   7.153   8.550
 3591POPC   C2B 7184  32.238   7.143   8.250
 3591POPC   C3B 7185  32.215   7.146   7.950
 3591POPC   C4B 7186  32.167   7.194   7.650
 3592POPC   NC3 7187  36.889  15.974   9.450
 3592POPC   PO4 7188  36.894  15.922   9.150
 3592POPC   GL1 7189  36.877  15.963   8.850
 3592POPC   GL2 7190  36.842  15.806   8.850
 3592POPC   C1A 7191  36.919  15.948   8.550
 3592POPC   D2A 7192  36.856  15.948   8.250
 3592POPC   C3A 7193  36.859  15.987   7.950
 3592POPC   C4A 7194  36.898  15.945   7.650
 3592POPC   C1B 7195  36.834  15.718   8.550
 3592POPC   C2B 7196  36.876  15.745   8.250
 3592POPC   C3B 7197  36.833  15.680   7.950
 3592POPC   C4B 7198  36.827  15.707   7.650
 3593POPC   NC3 7199   1.258   5.905   9.450
 3593POPC   PO4 7200   1.199   5.860   9.150
 3593POPC   GL1 7201   1.250   5.864   8.850
 3593POPC   GL2 7202   1.244   6.024   8.850
 3593POPC   C1A 7203   1.259   5.846   8.550
 3593POPC   D2A 7204   1.190   5.879   8.250
 3593POPC   C3A 7205   1.181   5.844   7.950
 3593POPC   C4A 7206   1.249   5.900   7.650
 3593POPC   C1B 7207   1.203   6.074   8.550
 3593POPC   C2B 7208   1.220   6.100   8.250
 3593POPC   C3B 7209   1.210   6.126   7.950
 3593POPC   C4B 7210   1.262   6.166   7.650
 3594POPC   NC3 7211  34.540  15.196   9.450
 3594POPC   PO4 7212  34.564  15.150   9.150
 3594POPC   GL1 7213  34.621  15.213   8.850
 3594POPC   GL2 7214  34.506  15.250   8.850
 3594POPC   C1A 7215  34.557  15.189   8.550
 3594POPC   D2A 7216  34.584  15.221   8.250
 3594POPC   C3A 7217  34.613  15.164   7.950
 3594POPC   C4A 7218  34.587  15.181   7.650
 3594POPC   C1B 7219  34.353  15.353   8.550
 3594POPC   C2B 7220  34.402  15.292   8.250
 3594POPC   C3B 7221  34.335  15.351   7.950
 3594POPC   C4B 7222  34.365  15.287   7.650
 3595POPC   NC3 7223  15.974   3.505   9.450
 3595POPC   PO4 7224  15.964   3.566   9.150
 3595POPC   GL1 7225  15.982   3.559   8.850
 3595POPC   GL2 7226  16.043   3.658   8.850
 3595POPC   C1A 7227  15.943   3.578   8.550
 3595POPC   D2A 7228  15.938   3.548   8.250
 3595POPC   C3A 7229  15.999   3.562   7.950
 3595POPC   C4A 7230  15.976   3.538   7.650
 3595POPC   C1B 7231  16.089   3.773   8.550
 3595POPC   C2B 7232  16.086   3.777   8.250
 3595POPC   C3B 7233  16.127   3.699   7.950
 3595POPC   C4B 7234  16.141   3.747   7.650
 3596POPC   NC3 7235  15.207   2.722   9.450
 3596POPC   PO4 7236  15.221   2.746   9.150
 3596POPC   GL1 7237  15.216   2.764   8.850
 3596POPC   GL2 7238  15.087   2.673   8.850
 3596POPC   C1A 7239  15.133   2.747   8.550
 3596POPC   D2A 7240  15.134   2.718   8.250
 3596POPC   C3A 7241  15.177   2.776   7.950
 3596POPC   C4A 7242  15.160   2.795   7.650
 3596POPC   C1B 7243  15.046   2.586   8.550
 3596POPC   C2B 7244  14.980   2.605   8.250
 3596POPC   C3B 7245  15.034   2.573   7.950
 3596POPC   C4B 7246  14.980   2.557   7.650
 3597POPC   NC3 7247   4.338  32.218   9.450
 3597POPC   PO4 7248   4.336  32.269   9.150
 3597POPC   GL1 7249   4.270  32.264   8.850
 3597POPC   GL2 7250   4.442  32.287   8.850
 3597POPC   C1A 7251   4.300  32.271   8.550
 3597POPC   D2A 7252   4.310  32.271   8.250
 3597POPC   C3A 7253   4.295  32.221   7.950
 3597POPC   C4A 7254   4.353  32.233   7.650
 3597POPC   C1B 7255   4.527  32.204   8.550
 3597POPC   C2B 7256   4.548  32.274   8.250
 3597POPC   C3B 7257   4.538  32.276   7.950
 3597POPC   C4B 7258   4.519  32.262   7.650
 3598POPC   NC3 7259  23.689  12.871   9.450
 3598POPC   PO4 7260  23.712  12.832   9.150
 3598POPC   GL1 7261  23.736  12.808   8.850
 3598POPC   GL2 7262  23.803  12.695   8.850
 3598POPC   C1A 7263  23.759  12.863   8.550
 3598POPC   D2A 7264  23.694  12.820   8.250
 3598POPC   C3A 7265  23.723  12.836   7.950
 3598POPC   C4A 7266  23.692  12.826   7.650
 3598POPC   C1B 7267  23.810  12.589   8.550
 3598POPC   C2B 7268  23.852  12.592   8.250
 3598POPC   C3B 7269  23.864  12.600   7.950
 3598POPC   C4B 7270  23.836  12.602   7.650
 3599POPC   NC3 7271   5.850  43.117   9.450
 3599POPC   PO4 7272   5.831  43.140   9.150
 3599POPC   GL1 7273   5.870  43.140   8.850
 3599POPC   GL2 7274   5.843  43.233   8.850
 3599POPC   C1A 7275   5.846  43.068   8.550
 3599POPC   D2A 7276   5.820  43.066   8.250
 3599POPC   C3A 7277   5.876  43.141   7.950
 3599POPC   C4A 7278   5.888  43.087   7.650
 3599POPC   C1B 7279   5.908  43.368   8.550
 3599POPC   C2B 7280   5.909  43.321   8.250
 3599POPC   C3B 7281   5.878  43.370   7.950
 3599POPC   C4B 7282   5.843  43.312   7.650
 3600POPC   NC3 7283  11.274   1.167   9.450
 3600POPC   PO4 7284  11.326   1.176   9.150
 3600POPC   GL1 7285  11.277   1.205   8.850
 3600POPC   GL2 7286  11.221   1.114   8.850
 3600POPC   C1A 7287  11.347   1.219   8.550
 3600POPC   D2A 7288  11.257   1.215   8.250
 3600POPC   C3A 7289  11.282   1.256   7.950
 3600POPC   C4A 7290  11.292   1.242   7.650
 3600POPC   C1B 7291  11.096   1.037   8.550
 3600POPC   C2B 7292  11.100   1.079   8.250
 3600POPC   C3B 7293  11.151   1.015   7.950
 3600POPC   C4B 7294  11.119   1.020   7.650
 3601POPC   NC3 7295  24.442  11.300   9.450
 3601POPC   PO4 7296  24.469  11.262   9.150
 3601POPC   GL1 7297  24.476  11.339   8.850
 3601POPC   GL2 7298  24.533  11.345   8.850
 3601POPC   C1A 7299  24.501  11.280   8.550
 3601POPC   D2A 7300  24.449  11.251   8.250
 3601POPC   C3A 7301  24.456  11.342   7.950
 3601POPC   C4A 7302  24.448  11.300   7.650
 3601POPC   C1B 7303  24.696  11.520   8.550
 3601POPC   C2B 7304  24.703  11.485   8.250
 3601POPC   C3B 7305  24.635  11.504   7.950
 3601POPC   C4B 7306  24.646  11.485   7.650
 3602POPC   NC3 7307  16.764  19.827   9.450
 3602POPC   PO4 7308  16.706  19.823   9.150
 3602POPC   GL1 7309  16.780  19.802   8.850
 3602POPC   GL2 7310  16.740  19.732   8.850
 3602POPC   C1A 7311  16.691  19.881   8.550
 3602POPC   D2A 7312  16.744  19.799   8.250
 3602POPC   C3A 7313  16.745  19.826   7.950
 3602POPC   C4A 7314  16.686  19.867   7.650
 3602POPC   C1B 7315  16.694  19.568   8.550
 3602POPC   C2B 7316  16.662  19.567   8.250
 3602POPC   C3B 7317  16.638  19.589   7.950
 3602POPC   C4B 7318  16.640  19.561   7.650
 3603POPC   NC3 7319   4.362  12.830   9.450
 3603POPC   PO4 7320   4.294  12.899   9.150
 3603POPC   GL1 7321   4.321  12.842   8.850
 3603POPC   GL2 7322   4.344  12.973   8.850
 3603POPC   C1A 7323   4.282  12.896   8.550
 3603POPC   D2A 7324   4.351  12.861   8.250
 3603POPC   C3A 7325   4.342  12.887   7.950
 3603POPC   C4A 7326   4.323  12.844   7.650
 3603POPC   C1B 7327   4.301  13.079   8.550
 3603POPC   C2B 7328   4.307  13.080   8.250
 3603POPC   C3B 7329   4.368  13.104   7.950
 3603POPC   C4B 7330   4.293  13.112   7.650
 3604POPC   NC3 7331   4.361   4.324   9.450
 3604POPC   PO4 7332   4.321   4.285   9.150
 3604POPC   GL1 7333   4.295   4.352   8.850
 3604POPC   GL2 7334   4.349   4.445   8.850
 3604POPC   C1A 7335   4.332   4.367   8.550
 3604POPC   D2A 7336   4.298   4.279   8.250
 3604POPC   C3A 7337   4.277   4.320   7.950
 3604POPC   C4A 7338   4.320   4.303   7.650
 3604POPC   C1B 7339   4.371   4.610   8.550
 3604POPC   C2B 7340   4.381   4.605   8.250
 3604POPC   C3B 7341   4.370   4.591   7.950
 3604POPC   C4B 7342   4.336   4.541   7.650
 3605POPC   NC3 7343  43.134  36.916   9.450
 3605POPC   PO4 7344  43.104  36.893   9.150
 3605POPC   GL1 7345  43.086  36.941   8.850
 3605POPC   GL2 7346  43.063  36.815   8.850
 3605POPC   C1A 7347  43.074  36.909   8.550
 3605POPC   D2A 7348  43.080  36.882   8.250
 3605POPC   C3A 7349  43.109  36.860   7.950
 3605POPC   C4A 7350  43.099  36.941   7.650
 3605POPC   C1B 7351  43.091  36.631   8.550
 3605POPC   C2B 7352  43.072  36.604   8.250
 3605POPC   C3B 7353  43.120  36.639   7.950
 3605POPC   C4B 7354  43.066  36.696   7.650
 3606POPC   NC3 7355  11.317  16.742   9.450
 3606POPC   PO4 7356  11.311  16.729   9.150
 3606POPC   GL1 7357  11.285  16.755   8.850
 3606POPC   GL2 7358  11.185  16.634   8.850
 3606POPC   C1A 7359  11.322  16.768   8.550
 3606POPC   D2A 7360  11.335  16.736   8.250
 3606POPC   C3A 7361  11.306  16.745   7.950
 3606POPC   C4A 7362  11.331  16.690   7.650
 3606POPC   C1B 7363  11.051  16.612   8.550
 3606POPC   C2B 7364  11.087  16.636   8.250
 3606POPC   C3B 7365  11.066  16.622   7.950
 3606POPC   C4B 7366  11.067  16.649   7.650
 3607POPC   NC3 7367  34.582  18.318   9.450
 3607POPC   PO4 7368  34.576  18.317   9.150
 3607POPC   GL1 7369  34.620  18.281   8.850
 3607POPC   GL2 7370  34.527  18.381   8.850
 3607POPC   C1A 7371  34.610  18.310   8.550
 3607POPC   D2A 7372  34.604  18.236   8.250
 3607POPC   C3A 7373  34.537  18.301   7.950
 3607POPC   C4A 7374  34.616  18.236   7.650
 3607POPC   C1B 7375  34.433  18.419   8.550
 3607POPC   C2B 7376  34.432  18.434   8.250
 3607POPC   C3B 7377  34.350  18.431   7.950
 3607POPC   C4B 7378  34.440  18.429   7.650
 3608POPC   NC3 7379   2.005   2.032   9.450
 3608POPC   PO4 7380   1.981   2.035   9.150
 3608POPC   GL1 7381   2.015   2.017   8.850
 3608POPC   GL2 7382   1.861   1.873   8.850
 3608POPC   C1A 7383   1.967   2.004   8.550
 3608POPC   D2A 7384   2.028   1.996   8.250
 3608POPC   C3A 7385   1.967   1.946   7.950
 3608POPC   C4A 7386   1.955   2.037   7.650
 3608POPC   C1B 7387   1.771   1.842   8.550
 3608POPC   C2B 7388   1.796   1.824   8.250
 3608POPC   C3B 7389   1.772   1.850   7.950
 3608POPC   C4B 7390   1.813   1.788   7.650
 3609POPC   NC3 7391  28.407   8.940   9.450
 3609POPC   PO4 7392  28.320   8.968   9.150
 3609POPC   GL1 7393  28.402   9.000   8.850
 3609POPC   GL2 7394  28.512   8.972   8.850
 3609POPC   C1A 7395  28.416   9.008   8.550
 3609POPC   D2A 7396  28.332   8.964   8.250
 3609POPC   C3A 7397  28.356   8.977   7.950
 3609POPC   C4A 7398  28.367   9.010   7.650
 3609POPC   C1B 7399  28.643   8.879   8.550
 3609POPC   C2B 7400  28.598   8.890   8.250
 3609POPC   C3B 7401  28.638   8.900   7.950
 3609POPC   C4B 7402  28.586   8.908   7.650
 3610POPC   NC3 7403  28.389  26.016   9.450
 3610POPC   PO4 7404  28.412  26.077   9.150
 3610POPC   GL1 7405  28.393  26.039   8.850
 3610POPC   GL2 7406  28.314  26.130   8.850
 3610POPC   C1A 7407  28.361  26.068   8.550
 3610POPC   D2A 7408  28.340  26.019   8.250
 3610POPC   C3A 7409  28.409  26.086   7.950
 3610POPC   C4A 7410  28.341  26.088   7.650
 3610POPC   C1B 7411  28.196  26.236   8.550
 3610POPC   C2B 7412  28.202  26.296   8.250
 3610POPC   C3B 7413  28.234  26.259   7.950
 3610POPC   C4B 7414  28.276  26.293   7.650
 3611POPC   NC3 7415  32.289  42.364   9.450
 3611POPC   PO4 7416  32.238  42.378   9.150
 3611POPC   GL1 7417  32.279  42.376   8.850
 3611POPC   GL2 7418  32.112  42.343   8.850
 3611POPC   C1A 7419  32.208  42.296   8.550
 3611POPC   D2A 7420  32.295  42.359   8.250
 3611POPC   C3A 7421  32.265  42.336   7.950
 3611POPC   C4A 7422  32.287  42.326   7.650
 3611POPC   C1B 7423  32.003  42.418   8.550
 3611POPC   C2B 7424  31.974  42.419   8.250
 3611POPC   C3B 7425  31.997  42.416   7.950
 3611POPC   C4B 7426  31.964  42.367   7.650
 3612POPC   NC3 7427  27.564  40.038   9.450
 3612POPC   PO4 7428  27.629  39.993   9.150
 3612POPC   GL1 7429  27.609  40.054   8.850
 3612POPC   GL2 7430  27.453  39.954   8.850
 3612POPC   C1A 7431  27.585  39.987   8.550
 3612POPC   D2A 7432  27.607  39.976   8.250
 3612POPC   C3A 7433  27.580  40.015   7.950
 3612POPC   C4A 7434  27.551  39.966   7.650
 3612POPC   C1B 7435  27.405  39.853   8.550
 3612POPC   C2B 7436  27.375  39.889   8.250
 3612POPC   C3B 7437  27.389  39.845   7.950
 3612POPC   C4B 7438  27.344  39.914   7.650
 3613POPC   NC3 7439  21.402  26.013   9.450
 3613POPC   PO4 7440  21.420  26.054   9.150
 3613POPC   GL1 7441  21.398  26.020   8.850
 3613POPC   GL2 7442  21.472  26.003   8.850
 3613POPC   C1A 7443  21.426  26.065   8.550
 3613POPC   D2A 7444  21.404  26.091   8.250
 3613POPC   C3A 7445  21.341  26.034   7.950
 3613POPC   C4A 7446  21.380  26.003   7.650
 3613POPC   C1B 7447  21.598  25.988   8.550
 3613POPC   C2B 7448  21.672  25.936   8.250
 3613POPC   C3B 7449  21.589  25.964   7.950
 3613POPC   C4B 7450  21.661  25.948   7.650
 3614POPC   NC3 7451  39.998   6.630   9.450
 3614POPC   PO4 7452  39.983   6.683   9.150
 3614POPC   GL1 7453  40.042   6.668   8.850
 3614POPC   GL2 7454  39.908   6.708   8.850
 3614POPC   C1A 7455  40.040   6.666   8.550
 3614POPC   D2A 7456  39.959   6.635   8.250
 3614POPC   C3A 7457  39.983   6.649   7.950
 3614POPC   C4A 7458  39.972   6.628   7.650
 3614POPC   C1B 7459  39.812   6.797   8.550
 3614POPC   C2B 7460  39.836   6.858   8.250
 3614POPC   C3B 7461  39.784   6.776   7.950
 3614POPC   C4B 7462  39.860   6.798   7.650
 3615POPC   NC3 7463  15.925  24.467   9.450
 3615POPC   PO4 7464  15.933  24.522   9.150
 3615POPC   GL1 7465  15.909  24.443   8.850
 3615POPC   GL2 7466  15.893  24.392   8.850
 3615POPC   C1A 7467  15.913  24.453   8.550
 3615POPC   D2A 7468  15.914  24.523   8.250
 3615POPC   C3A 7469  15.920  24.514   7.950
 3615POPC   C4A 7470  15.970  24.462   7.650
 3615POPC   C1B 7471  15.761  24.277   8.550
 3615POPC   C2B 7472  15.802  24.281   8.250
 3615POPC   C3B 7473  15.824  24.254   7.950
 3615POPC   C4B 7474  15.802  24.333   7.650
 3616POPC   NC3 7475  12.834  11.314   9.450
 3616POPC   PO4 7476  12.898  11.327   9.150
 3616POPC   GL1 7477  12.872  11.328   8.850
 3616POPC   GL2 7478  12.979  11.423   8.850
 3616POPC   C1A 7479  12.880  11.280   8.550
 3616POPC   D2A 7480  12.802  11.272   8.250
 3616POPC   C3A 7481  12.865  11.306   7.950
 3616POPC   C4A 7482  12.811  11.314   7.650
 3616POPC   C1B 7483  13.063  11.485   8.550
 3616POPC   C2B 7484  12.991  11.497   8.250
 3616POPC   C3B 7485  13.001  11.468   7.950
 3616POPC   C4B 7486  13.034  11.444   7.650
 3617POPC   NC3 7487  33.025  10.539   9.450
 3617POPC   PO4 7488  32.988  10.559   9.150
 3617POPC   GL1 7489  33.063  10.565   8.850
 3617POPC   GL2 7490  33.137  10.533   8.850
 3617POPC   C1A 7491  32.978  10.566   8.550
 3617POPC   D2A 7492  32.976  10.490   8.250
 3617POPC   C3A 7493  33.003  10.563   7.950
 3617POPC   C4A 7494  32.995  10.559   7.650
 3617POPC   C1B 7495  33.274  10.528   8.550
 3617POPC   C2B 7496  33.285  10.534   8.250
 3617POPC   C3B 7497  33.292  10.595   7.950
 3617POPC   C4B 7498  33.244  10.612   7.650
 3618POPC   NC3 7499  34.595  14.447   9.450
 3618POPC   PO4 7500  34.609  14.368   9.150
 3618POPC   GL1 7501  34.611  14.400   8.850
 3618POPC   GL2 7502  34.584  14.259   8.850
 3618POPC   C1A 7503  34.611  14.363   8.550
 3618POPC   D2A 7504  34.564  14.433   8.250
 3618POPC   C3A 7505  34.562  14.390   7.950
 3618POPC   C4A 7506  34.583  14.388   7.650
 3618POPC   C1B 7507  34.705  14.180   8.550
 3618POPC   C2B 7508  34.667  14.142   8.250
 3618POPC   C3B 7509  34.643  14.170   7.950
 3618POPC   C4B 7510  34.666  14.210   7.650
 3619POPC   NC3 7511  15.907  32.988   9.450
 3619POPC   PO4 7512  15.999  33.021   9.150
 3619POPC   GL1 7513  16.004  33.014   8.850
 3619POPC   GL2 7514  15.932  32.955   8.850
 3619POPC   C1A 7515  15.915  33.059   8.550
 3619POPC   D2A 7516  16.002  32.978   8.250
 3619POPC   C3A 7517  16.000  32.987   7.950
 3619POPC   C4A 7518  15.956  33.043   7.650
 3619POPC   C1B 7519  15.796  32.796   8.550
 3619POPC   C2B 7520  15.803  32.787   8.250
 3619POPC   C3B 7521  15.846  32.857   7.950
 3619POPC   C4B 7522  15.823  32.858   7.650
 3620POPC   NC3 7523  20.652   1.948   9.450
 3620POPC   PO4 7524  20.647   1.974   9.150
 3620POPC   GL1 7525  20.593   1.987   8.850
 3620POPC   GL2 7526  20.461   1.956   8.850
 3620POPC   C1A 7527  20.640   1.997   8.550
 3620POPC   D2A 7528  20.623   1.946   8.250
 3620POPC   C3A 7529  20.608   2.013   7.950
 3620POPC   C4A 7530  20.658   1.977   7.650
 3620POPC   C1B 7531  20.332   1.987   8.550
 3620POPC   C2B 7532  20.340   2.038   8.250
 3620POPC   C3B 7533  20.387   2.042   7.950
 3620POPC   C4B 7534  20.337   1.984   7.650
 3621POPC   NC3 7535  19.878  32.982   9.450
 3621POPC   PO4 7536  19.848  33.045   9.150
 3621POPC   GL1 7537  19.831  33.062   8.850
 3621POPC   GL2 7538  19.720  32.950   8.850
 3621POPC   C1A 7539  19.854  33.073   8.550
 3621POPC   D2A 7540  19.799  33.029   8.250
 3621POPC   C3A 7541  19.878  33.048   7.950
 3621POPC   C4A 7542  19.881  33.018   7.650
 3621POPC   C1B 7543  19.656  32.781   8.550
 3621POPC   C2B 7544  19.717  32.790   8.250
 3621POPC   C3B 7545  19.730  32.804   7.950
 3621POPC   C4B 7546  19.648  32.826   7.650
 3622POPC   NC3 7547  11.297  38.499   9.450
 3622POPC   PO4 7548  11.271  38.434   9.150
 3622POPC   GL1 7549  11.348  38.495   8.850
 3622POPC   GL2 7550  11.211  38.545   8.850
 3622POPC   C1A 7551  11.282  38.494   8.550
 3622POPC   D2A 7552  11.335  38.499   8.250
 3622POPC   C3A 7553  11.259  38.471   7.950
 3622POPC   C4A 7554  11.275  38.440   7.650
 3622POPC   C1B 7555  11.115  38.573   8.550
 3622POPC   C2B 7556  11.140  38.611   8.250
 3622POPC   C3B 7557  11.100  38.590   7.950
 3622POPC   C4B 7558  11.078  38.627   7.650
 3623POPC   NC3 7559  22.932  14.414   9.450
 3623POPC   PO4 7560  22.905  14.367   9.150
 3623POPC   GL1 7561  22.918  14.388   8.850
 3623POPC   GL2 7562  22.811  14.336   8.850
 3623POPC   C1A 7563  22.976  14.384   8.550
 3623POPC   D2A 7564  22.987  14.408   8.250
 3623POPC   C3A 7565  22.954  14.396   7.950
 3623POPC   C4A 7566  22.910  14.361   7.650
 3623POPC   C1B 7567  22.697  14.339   8.550
 3623POPC   C2B 7568  22.731  14.321   8.250
 3623POPC   C3B 7569  22.672  14.348   7.950
 3623POPC   C4B 7570  22.670  14.345   7.650
 3624POPC   NC3 7571  43.877   5.055   9.450
 3624POPC   PO4 7572  43.877   5.110   9.150
 3624POPC   GL1 7573  43.910   5.092   8.850
 3624POPC   GL2 7574  43.924   5.189   8.850
 3624POPC   C1A 7575  43.924   5.051   8.550
 3624POPC   D2A 7576  43.850   5.125   8.250
 3624POPC   C3A 7577  43.847   5.096   7.950
 3624POPC   C4A 7578  43.886   5.067   7.650
 3624POPC   C1B 7579  44.050   5.285   8.550
 3624POPC   C2B 7580  44.035   5.333   8.250
 3624POPC   C3B 7581  43.997   5.327   7.950
 3624POPC   C4B 7582  44.038   5.267   7.650
 3625POPC   NC3 7583  36.894  24.474   9.450
 3625POPC   PO4 7584  36.951  24.447   9.150
 3625POPC   GL1 7585  36.916  24.513   8.850
 3625POPC   GL2 7586  36.987  24.462   8.850
 3625POPC   C1A 7587  36.891  24.474   8.550
 3625POPC   D2A 7588  36.870  24.532   8.250
 3625POPC   C3A 7589  36.917  24.461   7.950
 3625POPC   C4A 7590  36.945  24.479   7.650
 3625POPC   C1B 7591  37.183  24.420   8.550
 3625POPC   C2B 7592  37.105  24.436   8.250
 3625POPC   C3B 7593  37.154  24.408   7.950
 3625POPC   C4B 7594  37.122  24.468   7.650
 3626POPC   NC3 7595   4.330  39.962   9.450
 3626POPC   PO4 7596   4.338  40.047   9.150
 3626POPC   GL1 7597   4.307  39.977   8.850
 3626POPC   GL2 7598   4.240  39.938   8.850
 3626POPC   C1A 7599   4.364  40.048   8.550
 3626POPC   D2A 7600   4.315  40.010   8.250
 3626POPC   C3A 7601   4.319  40.032   7.950
 3626POPC   C4A 7602   4.315  39.995   7.650
 3626POPC   C1B 7603   4.121  39.901   8.550
 3626POPC   C2B 7604   4.137  39.849   8.250
 3626POPC   C3B 7605   4.071  39.870   7.950
 3626POPC   C4B 7606   4.061  39.831   7.650
 3627POPC   NC3 7607   2.767  16.682   9.450
 3627POPC   PO4 7608   2.792  16.757   9.150
 3627POPC   GL1 7609   2.751  16.778   8.850
 3627POPC   GL2 7610   2.665  16.789   8.850
 3627POPC   C1A 7611   2.758  16.684   8.550
 3627POPC   D2A 7612   2.770  16.740   8.250
 3627POPC   C3A 7613   2.799  16.768   7.950
 3627POPC   C4A 7614   2.767  16.750   7.650
 3627POPC   C1B 7615   2.505  16.829   8.550
 3627POPC   C2B 7616   2.549  16.842   8.250
 3627POPC   C3B 7617   2.569  16.841   7.950
 3627POPC   C4B 7618   2.541  16.775   7.650
 3628POPC   NC3 7619  12.818   3.514   9.450
 3628POPC   PO4 7620  12.839   3.569   9.150
 3628POPC   GL1 7621  12.887   3.567   8.850
 3628POPC   GL2 7622  12.984   3.462   8.850
 3628POPC   C1A 7623  12.880   3.520   8.550
 3628POPC   D2A 7624  12.812   3.493   8.250
 3628POPC   C3A 7625  12.828   3.555   7.950
 3628POPC   C4A 7626  12.806   3.545   7.650
 3628POPC   C1B 7627  13.066   3.458   8.550
 3628POPC   C2B 7628  13.072   3.461   8.250
 3628POPC   C3B 7629  13.083   3.447   7.950
 3628POPC   C4B 7630  13.083   3.438   7.650
 3629POPC   NC3 7631  33.050  40.742   9.450
 3629POPC   PO4 7632  32.980  40.750   9.150
 3629POPC   GL1 7633  32.978  40.738   8.850
 3629POPC   GL2 7634  32.913  40.744   8.850
 3629POPC   C1A 7635  32.996  40.770   8.550
 3629POPC   D2A 7636  32.992  40.777   8.250
 3629POPC   C3A 7637  33.056  40.754   7.950
 3629POPC   C4A 7638  33.065  40.828   7.650
 3629POPC   C1B 7639  32.781  40.825   8.550
 3629POPC   C2B 7640  32.809  40.806   8.250
 3629POPC   C3B 7641  32.745  40.767   7.950
 3629POPC   C4B 7642  32.760  40.771   7.650
 3630POPC   NC3 7643   5.830  38.461   9.450
 3630POPC   PO4 7644   5.914  38.488   9.150
 3630POPC   GL1 7645   5.853  38.446   8.850
 3630POPC   GL2 7646   5.889  38.573   8.850
 3630POPC   C1A 7647   5.871  38.465   8.550
 3630POPC   D2A 7648   5.842  38.480   8.250
 3630POPC   C3A 7649   5.909  38.407   7.950
 3630POPC   C4A 7650   5.868  38.433   7.650
 3630POPC   C1B 7651   5.971  38.721   8.550
 3630POPC   C2B 7652   5.992  38.673   8.250
 3630POPC   C3B 7653   6.024  38.652   7.950
 3630POPC   C4B 7654   6.000  38.659   7.650
 3631POPC   NC3 7655   1.964  42.350   9.450
 3631POPC   PO4 7656   2.009  42.382   9.150
 3631POPC   GL1 7657   1.960  42.329   8.850
 3631POPC   GL2 7658   2.019  42.230   8.850
 3631POPC   C1A 7659   1.980  42.381   8.550
 3631POPC   D2A 7660   1.969  42.378   8.250
 3631POPC   C3A 7661   1.979  42.342   7.950
 3631POPC   C4A 7662   1.960  42.381   7.650
 3631POPC   C1B 7663   1.983  42.090   8.550
 3631POPC   C2B 7664   2.011  42.070   8.250
 3631POPC   C3B 7665   1.980  42.064   7.950
 3631POPC   C4B 7666   2.063  42.122   7.650
 3632POPC   NC3 7667  19.066  15.920   9.450
 3632POPC   PO4 7668  19.053  15.933   9.150
 3632POPC   GL1 7669  19.013  15.943   8.850
 3632POPC   GL2 7670  18.895  15.996   8.850
 3632POPC   C1A 7671  19.053  15.965   8.550
 3632POPC   D2A 7672  19.070  15.991   8.250
 3632POPC   C3A 7673  19.059  15.986   7.950
 3632POPC   C4A 7674  19.064  15.975   7.650
 3632POPC   C1B 7675  18.783  16.013   8.550
 3632POPC   C2B 7676  18.780  15.978   8.250
 3632POPC   C3B 7677  18.808  15.988   7.950
 3632POPC   C4B 7678  18.767  15.935   7.650
 3633POPC   NC3 7679  33.053  17.487   9.450
 3633POPC   PO4 7680  33.066  17.554   9.150
 3633POPC   GL1 7681  33.071  17.465   8.850
 3633POPC   GL2 7682  32.960  17.489   8.850
 3633POPC   C1A 7683  33.059  17.479   8.550
 3633POPC   D2A 7684  33.067  17.476   8.250
 3633POPC   C3A 7685  33.050  17.521   7.950
 3633POPC   C4A 7686  33.058  17.504   7.650
 3633POPC   C1B 7687  32.803  17.434   8.550
 3633POPC   C2B 7688  32.789  17.361   8.250
 3633POPC   C3B 7689  32.848  17.393   7.950
 3633POPC   C4B 7690  32.815  17.360   7.650
 3634POPC   NC3 7691   9.735  25.994   9.450
 3634POPC   PO4 7692   9.742  26.061   9.150
 3634POPC   GL1 7693   9.779  25.995   8.850
 3634POPC   GL2 7694   9.839  26.087   8.850
 3634POPC   C1A 7695   9.725  26.044   8.550
 3634POPC   D2A 7696   9.708  26.019   8.250
 3634POPC   C3A 7697   9.701  26.069   7.950
 3634POPC   C4A 7698   9.780  26.008   7.650
 3634POPC   C1B 7699  10.035  26.055   8.550
 3634POPC   C2B 7700  10.031  26.037   8.250
 3634POPC   C3B 7701  10.046  26.081   7.950
 3634POPC   C4B 7702  10.046  26.016   7.650
 3635POPC   NC3 7703  15.172  28.362   9.450
 3635POPC   PO4 7704  15.162  28.332   9.150
 3635POPC   GL1 7705  15.157  28.354   8.850
 3635POPC   GL2 7706  15.053  28.457   8.850
 3635POPC   C1A 7707  15.204  28.404   8.550
 3635POPC   D2A 7708  15.221  28.405   8.250
 3635POPC   C3A 7709  15.186  28.363   7.950
 3635POPC   C4A 7710  15.168  28.336   7.650
 3635POPC   C1B 7711  15.012  28.518   8.550
 3635POPC   C2B 7712  14.937  28.469   8.250
 3635POPC   C3B 7713  15.014  28.466   7.950
 3635POPC   C4B 7714  14.929  28.517   7.650
 3636POPC   NC3 7715  27.573   8.925   9.450
 3636POPC   PO4 7716  27.642   9.006   9.150
 3636POPC   GL1 7717  27.555   8.950   8.850
 3636POPC   GL2 7718  27.510   8.956   8.850
 3636POPC   C1A 7719  27.635   8.979   8.550
 3636POPC   D2A 7720  27.598   9.001   8.250
 3636POPC   C3A 7721  27.582   8.964   7.950
 3636POPC   C4A 7722  27.546   8.993   7.650
 3636POPC   C1B 7723  27.409   8.886   8.550
 3636POPC   C2B 7724  27.353   8.880   8.250
 3636POPC   C3B 7725  27.409   8.896   7.950
 3636POPC   C4B 7726  27.361   8.860   7.650
 3637POPC   NC3 7727   1.247  39.224   9.450
 3637POPC   PO4 7728   1.237  39.263   9.150
 3637POPC   GL1 7729   1.178  39.200   8.850
 3637POPC   GL2 7730   1.276  39.387   8.850
 3637POPC   C1A 7731   1.231  39.185   8.550
 3637POPC   D2A 7732   1.255  39.195   8.250
 3637POPC   C3A 7733   1.170  39.276   7.950
 3637POPC   C4A 7734   1.225  39.186   7.650
 3637POPC   C1B 7735   1.275  39.501   8.550
 3637POPC   C2B 7736   1.268  39.441   8.250
 3637POPC   C3B 7737   1.275  39.498   7.950
 3637POPC   C4B 7738   1.288  39.473   7.650
 3638POPC   NC3 7739  25.309  27.561   9.450
 3638POPC   PO4 7740  25.280  27.601   9.150
 3638POPC   GL1 7741  25.229  27.568   8.850
 3638POPC   GL2 7742  25.271  27.702   8.850
 3638POPC   C1A 7743  25.269  27.546   8.550
 3638POPC   D2A 7744  25.311  27.553   8.250
 3638POPC   C3A 7745  25.253  27.600   7.950
 3638POPC   C4A 7746  25.233  27.547   7.650
 3638POPC   C1B 7747  25.331  27.793   8.550
 3638POPC   C2B 7748  25.327  27.847   8.250
 3638POPC   C3B 7749  25.320  27.838   7.950
 3638POPC   C4B 7750  25.266  27.823   7.650
 3639POPC   NC3 7751  31.482  41.584   9.450
 3639POPC   PO4 7752  31.510  41.567   9.150
 3639POPC   GL1 7753  31.451  41.578   8.850
 3639POPC   GL2 7754  31.426  41.635   8.850
 3639POPC   C1A 7755  31.429  41.575   8.550
 3639POPC   D2A 7756  31.466  41.594   8.250
 3639POPC   C3A 7757  31.469  41.574   7.950
 3639POPC   C4A 7758  31.462  41.523   7.650
 3639POPC   C1B 7759  31.337  41.756   8.550
 3639POPC   C2B 7760  31.369  41.790   8.250
 3639POPC   C3B 7761  31.388  41.795   7.950
 3639POPC   C4B 7762  31.378  41.760   7.650
 3640POPC   NC3 7763  12.074  40.816   9.450
 3640POPC   PO4 7764  12.068  40.733   9.150
 3640POPC   GL1 7765  12.119  40.800   8.850
 3640POPC   GL2 7766  12.040  40.676   8.850
 3640POPC   C1A 7767  12.093  40.785   8.550
 3640POPC   D2A 7768  12.027  40.784   8.250
 3640POPC   C3A 7769  12.125  40.832   7.950
 3640POPC   C4A 7770  12.108  40.771   7.650
 3640POPC   C1B 7771  12.019  40.525   8.550
 3640POPC   C2B 7772  12.050  40.491   8.250
 3640POPC   C3B 7773  12.013  40.542   7.950
 3640POPC   C4B 7774  12.069  40.556   7.650
 3641POPC   NC3 7775  21.343  44.671   9.450
 3641POPC   PO4 7776  21.434  44.637   9.150
 3641POPC   GL1 7777  21.390  44.641   8.850
 3641POPC   GL2 7778  21.491  44.604   8.850
 3641POPC   C1A 7779  21.376  44.613   8.550
 3641POPC   D2A 7780  21.350  44.650   8.250
 3641POPC   C3A 7781  21.403  44.677   7.950
 3641POPC   C4A 7782  21.340  44.697   7.650
 3641POPC   C1B 7783  21.605  44.440   8.550
 3641POPC   C2B 7784  21.549  44.451   8.250
 3641POPC   C3B 7785  21.513  44.509   7.950
 3641POPC   C4B 7786  21.593  44.497   7.650
 3642POPC   NC3 7787  15.229  33.775   9.450
 3642POPC   PO4 7788  15.213  33.842   9.150
 3642POPC   GL1 7789  15.225  33.759   8.850
 3642POPC   GL2 7790  15.090  33.737   8.850
 3642POPC   C1A 7791  15.224  33.763   8.550
 3642POPC   D2A 7792  15.148  33.825   8.250
 3642POPC   C3A 7793  15.202  33.839   7.950
 3642POPC   C4A 7794  15.162  33.759   7.650
 3642POPC   C1B 7795  14.956  33.778   8.550
 3642POPC   C2B 7796  14.887  33.797   8.250
 3642POPC   C3B 7797  14.890  33.785   7.950
 3642POPC   C4B 7798  14.923  33.769   7.650
 3643POPC   NC3 7799  36.870  17.469   9.450
 3643POPC   PO4 7800  36.938  17.518   9.150
 3643POPC   GL1 7801  36.880  17.521   8.850
 3643POPC   GL2 7802  36.984  17.649   8.850
 3643POPC   C1A 7803  36.887  17.465   8.550
 3643POPC   D2A 7804  36.942  17.460   8.250
 3643POPC   C3A 7805  36.912  17.530   7.950
 3643POPC   C4A 7806  36.944  17.519   7.650
 3643POPC   C1B 7807  37.111  17.719   8.550
 3643POPC   C2B 7808  37.041  17.695   8.250
 3643POPC   C3B 7809  37.107  17.708   7.950
 3643POPC   C4B 7810  37.020  17.716   7.650
 3644POPC   NC3 7811  10.573  10.526   9.450
 3644POPC   PO4 7812  10.477  10.571   9.150
 3644POPC   GL1 7813  10.522  10.541   8.850
 3644POPC   GL2 7814  10.646  10.594   8.850
 3644POPC   C1A 7815  10.506  10.494   8.550
 3644POPC   D2A 7816  10.477  10.549   8.250
 3644POPC   C3A 7817  10.496  10.524   7.950
 3644POPC   C4A 7818  10.558  10.526   7.650
 3644POPC   C1B 7819  10.733  10.600   8.550
 3644POPC   C2B 7820  10.721  10.638   8.250
 3644POPC   C3B 7821  10.737  10.581   7.950
 3644POPC   C4B 7822  10.779  10.615   7.650
 3645POPC   NC3 7823   4.342  17.459   9.450
 3645POPC   PO4 7824   4.344  17.495   9.150
 3645POPC   GL1 7825   4.302  17.496   8.850
 3645POPC   GL2 7826   4.317  17.381   8.850
 3645POPC   C1A 7827   4.358  17.467   8.550
 3645POPC   D2A 7828   4.318  17.517   8.250
 3645POPC   C3A 7829   4.285  17.541   7.950
 3645POPC   C4A 7830   4.285  17.523   7.650
 3645POPC   C1B 7831   4.398  17.300   8.550
 3645POPC   C2B 7832   4.334  17.223   8.250
 3645POPC   C3B 7833   4.361  17.230   7.950
 3645POPC   C4B 7834   4.363  17.289   7.650
 3646POPC   NC3 7835  23.696  12.116   9.450
 3646POPC   PO4 7836  23.708  12.055   9.150
 3646POPC   GL1 7837  23.724  12.097   8.850
 3646POPC   GL2 7838  23.632  12.045   8.850
 3646POPC   C1A 7839  23.764  12.070   8.550
 3646POPC   D2A 7840  23.686  12.038   8.250
 3646POPC   C3A 7841  23.707  12.079   7.950
 3646POPC   C4A 7842  23.716  12.100   7.650
 3646POPC   C1B 7843  23.416  12.058   8.550
 3646POPC   C2B 7844  23.448  12.023   8.250
 3646POPC   C3B 7845  23.491  12.044   7.950
 3646POPC   C4B 7846  23.476  12.074   7.650
 3647POPC   NC3 7847  26.846   6.604   9.450
 3647POPC   PO4 7848  26.837   6.663   9.150
 3647POPC   GL1 7849  26.812   6.621   8.850
 3647POPC   GL2 7850  26.850   6.752   8.850
 3647POPC   C1A 7851  26.866   6.618   8.550
 3647POPC   D2A 7852  26.856   6.613   8.250
 3647POPC   C3A 7853  26.823   6.648   7.950
 3647POPC   C4A 7854  26.849   6.650   7.650
 3647POPC   C1B 7855  26.784   6.926   8.550
 3647POPC   C2B 7856  26.821   6.879   8.250
 3647POPC   C3B 7857  26.812   6.895   7.950
 3647POPC   C4B 7858  26.825   6.917   7.650
 3648POPC   NC3 7859   5.903   1.950   9.450
 3648POPC   PO4 7860   5.885   2.037   9.150
 3648POPC   GL1 7861   5.858   1.940   8.850
 3648POPC   GL2 7862   5.895   1.836   8.850
 3648POPC   C1A 7863   5.848   2.028   8.550
 3648POPC   D2A 7864   5.901   2.024   8.250
 3648POPC   C3A 7865   5.878   2.009   7.950
 3648POPC   C4A 7866   5.853   2.034   7.650
 3648POPC   C1B 7867   5.947   1.775   8.550
 3648POPC   C2B 7868   5.946   1.720   8.250
 3648POPC   C3B 7869   5.920   1.782   7.950
 3648POPC   C4B 7870   5.927   1.732   7.650
 3649POPC   NC3 7871  17.513  30.655   9.450
 3649POPC   PO4 7872  17.488  30.738   9.150
 3649POPC   GL1 7873  17.520  30.683   8.850
 3649POPC   GL2 7874  17.642  30.777   8.850
 3649POPC   C1A 7875  17.541  30.688   8.550
 3649POPC   D2A 7876  17.480  30.735   8.250
 3649POPC   C3A 7877  17.494  30.722   7.950
 3649POPC   C4A 7878  17.491  30.723   7.650
 3649POPC   C1B 7879  17.754  30.863   8.550
 3649POPC   C2B 7880  17.661  30.802   8.250
 3649POPC   C3B 7881  17.747  30.848   7.950
 3649POPC   C4B 7882  17.661  30.860   7.650
 3650POPC   NC3 7883  10.574  33.803   9.450
 3650POPC   PO4 7884  10.571  33.770   9.150
 3650POPC   GL1 7885  10.563  33.788   8.850
 3650POPC   GL2 7886  10.602  33.907   8.850
 3650POPC   C1A 7887  10.531  33.850   8.550
 3650POPC   D2A 7888  10.553  33.778   8.250
 3650POPC   C3A 7889  10.568  33.808   7.950
 3650POPC   C4A 7890  10.493  33.776   7.650
 3650POPC   C1B 7891  10.542  34.029   8.550
 3650POPC   C2B 7892  10.584  34.070   8.250
 3650POPC   C3B 7893  10.587  34.034   7.950
 3650POPC   C4B 7894  10.599  34.056   7.650
 3651POPC   NC3 7895  16.779  16.719   9.450
 3651POPC   PO4 7896  16.699  16.707   9.150
 3651POPC   GL1 7897  16.763  16.748   8.850
 3651POPC   GL2 7898  16.825  16.641   8.850
 3651POPC   C1A 7899  16.775  16.745   8.550
 3651POPC   D2A 7900  16.684  16.730   8.250
 3651POPC   C3A 7901  16.769  16.721   7.950
 3651POPC   C4A 7902  16.741  16.696   7.650
 3651POPC   C1B 7903  16.850  16.545   8.550
 3651POPC   C2B 7904  16.867  16.539   8.250
 3651POPC   C3B 7905  16.907  16.552   7.950
 3651POPC   C4B 7906  16.863  16.569   7.650
 3652POPC   NC3 7907  22.940  10.566   9.450
 3652POPC   PO4 7908  22.954  10.563   9.150
 3652POPC   GL1 7909  22.935  10.553   8.850
 3652POPC   GL2 7910  22.859  10.552   8.850
 3652POPC   C1A 7911  22.950  10.520   8.550
 3652POPC   D2A 7912  22.938  10.546   8.250
 3652POPC   C3A 7913  22.967  10.487   7.950
 3652POPC   C4A 7914  22.967  10.534   7.650
 3652POPC   C1B 7915  22.654  10.484   8.550
 3652POPC   C2B 7916  22.698  10.438   8.250
 3652POPC   C3B 7917  22.645  10.477   7.950
 3652POPC   C4B 7918  22.696  10.498   7.650
 3653POPC   NC3 7919  15.933   6.621   9.450
 3653POPC   PO4 7920  16.004   6.631   9.150
 3653POPC   GL1 7921  15.964   6.659   8.850
 3653POPC   GL2 7922  15.993   6.547   8.850
 3653POPC   C1A 7923  15.957   6.619   8.550
 3653POPC   D2A 7924  15.937   6.640   8.250
 3653POPC   C3A 7925  15.916   6.651   7.950
 3653POPC   C4A 7926  15.995   6.627   7.650
 3653POPC   C1B 7927  15.963   6.397   8.550
 3653POPC   C2B 7928  15.980   6.441   8.250
 3653POPC   C3B 7929  15.966   6.361   7.950
 3653POPC   C4B 7930  15.899   6.370   7.650
 3654POPC   NC3 7931  40.751  43.860   9.450
 3654POPC   PO4 7932  40.758  43.871   9.150
 3654POPC   GL1 7933  40.749  43.889   8.850
 3654POPC   GL2 7934  40.877  43.848   8.850
 3654POPC   C1A 7935  40.736  43.868   8.550
 3654POPC   D2A 7936  40.805  43.905   8.250
 3654POPC   C3A 7937  40.820  43.876   7.950
 3654POPC   C4A 7938  40.750  43.845   7.650
 3654POPC   C1B 7939  41.021  43.778   8.550
 3654POPC   C2B 7940  41.000  43.749   8.250
 3654POPC   C3B 7941  41.001  43.723   7.950
 3654POPC   C4B 7942  40.959  43.738   7.650
 3655POPC   NC3 7943   6.609  11.316   9.450
 3655POPC   PO4 7944   6.626  11.288   9.150
 3655POPC   GL1 7945   6.624  11.311   8.850
 3655POPC   GL2 7946   6.775  11.366   8.850
 3655POPC   C1A 7947   6.602  11.339   8.550
 3655POPC   D2A 7948   6.693  11.271   8.250
 3655POPC   C3A 7949   6.653  11.349   7.950
 3655POPC   C4A 7950   6.670  11.291   7.650
 3655POPC   C1B 7951   6.838  11.498   8.550
 3655POPC   C2B 7952   6.793  11.472   8.250
 3655POPC   C3B 7953   6.833  11.457   7.950
 3655POPC   C4B 7954   6.795  11.522   7.650
 3656POPC   NC3 7955  12.079  25.315   9.450
 3656POPC   PO4 7956  12.120  25.225   9.150
 3656POPC   GL1 7957  12.084  25.278   8.850
 3656POPC   GL2 7958  11.981  25.284   8.850
 3656POPC   C1A 7959  12.056  25.248   8.550
 3656POPC   D2A 7960  12.107  25.279   8.250
 3656POPC   C3A 7961  12.111  25.277   7.950
 3656POPC   C4A 7962  12.109  25.262   7.650
 3656POPC   C1B 7963  11.814  25.288   8.550
 3656POPC   C2B 7964  11.857  25.281   8.250
 3656POPC   C3B 7965  11.870  25.255   7.950
 3656POPC   C4B 7966  11.801  25.267   7.650
 3657POPC   NC3 7967  15.212  39.206   9.450
 3657POPC   PO4 7968  15.229  39.261   9.150
 3657POPC   GL1 7969  15.211  39.249   8.850
 3657POPC   GL2 7970  15.072  39.206   8.850
 3657POPC   C1A 7971  15.151  39.280   8.550
 3657POPC   D2A 7972  15.153  39.234   8.250
 3657POPC   C3A 7973  15.225  39.214   7.950
 3657POPC   C4A 7974  15.201  39.253   7.650
 3657POPC   C1B 7975  14.958  39.255   8.550
 3657POPC   C2B 7976  14.973  39.255   8.250
 3657POPC   C3B 7977  14.949  39.229   7.950
 3657POPC   C4B 7978  14.976  39.179   7.650
 3658POPC   NC3 7979   8.200  37.724   9.450
 3658POPC   PO4 7980   8.242  37.671   9.150
 3658POPC   GL1 7981   8.225  37.644   8.850
 3658POPC   GL2 7982   8.165  37.844   8.850
 3658POPC   C1A 7983   8.208  37.632   8.550
 3658POPC   D2A 7984   8.149  37.670   8.250
 3658POPC   C3A 7985   8.203  37.725   7.950
 3658POPC   C4A 7986   8.160  37.688   7.650
 3658POPC   C1B 7987   8.159  37.867   8.550
 3658POPC   C2B 7988   8.158  37.903   8.250
 3658POPC   C3B 7989   8.079  37.945   7.950
 3658POPC   C4B 7990   8.094  37.910   7.650
 3659POPC   NC3 7991  25.251   9.013   9.450
 3659POPC   PO4 7992  25.264   8.970   9.150
 3659POPC   GL1 7993  25.286   8.950   8.850
 3659POPC   GL2 7994  25.133   8.970   8.850
 3659POPC   C1A 7995  25.226   8.941   8.550
 3659POPC   D2A 7996  25.297   8.941   8.250
 3659POPC   C3A 7997  25.278   8.924   7.950
 3659POPC   C4A 7998  25.222   8.977   7.650
 3659POPC   C1B 7999  24.990   9.021   8.550
 3659POPC   C2B 8000  25.022   8.944   8.250
 3659POPC   C3B 8001  25.038   9.011   7.950
 3659POPC   C4B 8002  24.998   8.948   7.650
 3660POPC   NC3 8003  33.823  39.240   9.450
 3660POPC   PO4 8004  33.806  39.262   9.150
 3660POPC   GL1 8005  33.818  39.277   8.850
 3660POPC   GL2 8006  33.934  39.177   8.850
 3660POPC   C1A 8007  33.822  39.208   8.550
 3660POPC   D2A 8008  33.755  39.186   8.250
 3660POPC   C3A 8009  33.769  39.265   7.950
 3660POPC   C4A 8010  33.793  39.232   7.650
 3660POPC   C1B 8011  33.990  39.022   8.550
 3660POPC   C2B 8012  33.980  39.028   8.250
 3660POPC   C3B 8013  33.958  39.113   7.950
 3660POPC   C4B 8014  33.940  39.117   7.650
 3661POPC   NC3 8015  13.646  21.348   9.450
 3661POPC   PO4 8016  13.593  21.350   9.150
 3661POPC   GL1 8017  13.668  21.414   8.850
 3661POPC   GL2 8018  13.703  21.496   8.850
 3661POPC   C1A 8019  13.640  21.340   8.550
 3661POPC   D2A 8020  13.607  21.411   8.250
 3661POPC   C3A 8021  13.593  21.372   7.950
 3661POPC   C4A 8022  13.648  21.357   7.650
 3661POPC   C1B 8023  13.750  21.581   8.550
 3661POPC   C2B 8024  13.683  21.639   8.250
 3661POPC   C3B 8025  13.701  21.660   7.950
 3661POPC   C4B 8026  13.702  21.575   7.650
 3662POPC   NC3 8027  37.728  36.120   9.450
 3662POPC   PO4 8028  37.640  36.142   9.150
 3662POPC   GL1 8029  37.649  36.125   8.850
 3662POPC   GL2 8030  37.589  36.209   8.850
 3662POPC   C1A 8031  37.641  36.147   8.550
 3662POPC   D2A 8032  37.640  36.141   8.250
 3662POPC   C3A 8033  37.703  36.126   7.950
 3662POPC   C4A 8034  37.688  36.128   7.650
 3662POPC   C1B 8035  37.636  36.405   8.550
 3662POPC   C2B 8036  37.638  36.408   8.250
 3662POPC   C3B 8037  37.542  36.351   7.950
 3662POPC   C4B 8038  37.634  36.395   7.650
 3663POPC   NC3 8039   1.972  38.435   9.450
 3663POPC   PO4 8040   2.014  38.490   9.150
 3663POPC   GL1 8041   2.023  38.474   8.850
 3663POPC   GL2 8042   1.935  38.380   8.850
 3663POPC   C1A 8043   2.020  38.438   8.550
 3663POPC   D2A 8044   1.986  38.452   8.250
 3663POPC   C3A 8045   2.032  38.449   7.950
 3663POPC   C4A 8046   2.008  38.459   7.650
 3663POPC   C1B 8047   1.853  38.217   8.550
 3663POPC   C2B 8048   1.894  38.263   8.250
 3663POPC   C3B 8049   1.834  38.252   7.950
 3663POPC   C4B 8050   1.808  38.269   7.650
 3664POPC   NC3 8051  22.935  18.285   9.450
 3664POPC   PO4 8052  22.975  18.239   9.150
 3664POPC   GL1 8053  22.912  18.289   8.850
 3664POPC   GL2 8054  23.019  18.251   8.850
 3664POPC   C1A 8055  22.983  18.270   8.550
 3664POPC   D2A 8056  22.946  18.298   8.250
 3664POPC   C3A 8057  22.929  18.330   7.950
 3664POPC   C4A 8058  22.961  18.253   7.650
 3664POPC   C1B 8059  23.188  18.280   8.550
 3664POPC   C2B 8060  23.201  18.294   8.250
 3664POPC   C3B 8061  23.190  18.265   7.950
 3664POPC   C4B 8062  23.156  18.237   7.650
 3665POPC   NC3 8063  43.100  29.187   9.450
 3665POPC   PO4 8064  43.136  29.099   9.150
 3665POPC   GL1 8065  43.067  29.148   8.850
 3665POPC   GL2 8066  42.983  29.096   8.850
 3665POPC   C1A 8067  43.123  29.108   8.550
 3665POPC   D2A 8068  43.074  29.191   8.250
 3665POPC   C3A 8069  43.068  29.105   7.950
 3665POPC   C4A 8070  43.080  29.138   7.650
 3665POPC   C1B 8071  42.878  29.159   8.550
 3665POPC   C2B 8072  42.889  29.157   8.250
 3665POPC   C3B 8073  42.838  29.154   7.950
 3665POPC   C4B 8074  42.825  29.141   7.650
 3666POPC   NC3 8075  22.916  43.914   9.450
 3666POPC   PO4 8076  22.975  43.916   9.150
 3666POPC   GL1 8077  22.939  43.840   8.850
 3666POPC   GL2 8078  22.832  43.824   8.850
 3666POPC   C1A 8079  22.955  43.924   8.550
 3666POPC   D2A 8080  22.913  43.857   8.250
 3666POPC   C3A 8081  22.916  43.918   7.950
 3666POPC   C4A 8082  22.933  43.935   7.650
 3666POPC   C1B 8083  22.760  43.674   8.550
 3666POPC   C2B 8084  22.752  43.732   8.250
 3666POPC   C3B 8085  22.721  43.662   7.950
 3666POPC   C4B 8086  22.746  43.664   7.650
 3667POPC   NC3 8087  25.295   1.944   9.450
 3667POPC   PO4 8088  25.285   2.035   9.150
 3667POPC   GL1 8089  25.216   1.961   8.850
 3667POPC   GL2 8090  25.370   1.874   8.850
 3667POPC   C1A 8091  25.305   1.984   8.550
 3667POPC   D2A 8092  25.295   1.946   8.250
 3667POPC   C3A 8093  25.269   2.029   7.950
 3667POPC   C4A 8094  25.282   2.008   7.650
 3667POPC   C1B 8095  25.412   1.813   8.550
 3667POPC   C2B 8096  25.504   1.828   8.250
 3667POPC   C3B 8097  25.439   1.801   7.950
 3667POPC   C4B 8098  25.499   1.796   7.650
 3668POPC   NC3 8099  20.581   5.115   9.450
 3668POPC   PO4 8100  20.588   5.044   9.150
 3668POPC   GL1 8101  20.643   5.080   8.850
 3668POPC   GL2 8102  20.706   5.011   8.850
 3668POPC   C1A 8103  20.603   5.066   8.550
 3668POPC   D2A 8104  20.607   5.096   8.250
 3668POPC   C3A 8105  20.660   5.131   7.950
 3668POPC   C4A 8106  20.603   5.049   7.650
 3668POPC   C1B 8107  20.864   5.011   8.550
 3668POPC   C2B 8108  20.814   4.992   8.250
 3668POPC   C3B 8109  20.884   4.983   7.950
 3668POPC   C4B 8110  20.803   5.039   7.650
 3669POPC   NC3 8111  16.747  29.892   9.450
 3669POPC   PO4 8112  16.723  29.955   9.150
 3669POPC   GL1 8113  16.694  29.912   8.850
 3669POPC   GL2 8114  16.608  29.836   8.850
 3669POPC   C1A 8115  16.706  29.951   8.550
 3669POPC   D2A 8116  16.748  29.958   8.250
 3669POPC   C3A 8117  16.743  29.929   7.950
 3669POPC   C4A 8118  16.703  29.955   7.650
 3669POPC   C1B 8119  16.525  29.703   8.550
 3669POPC   C2B 8120  16.574  29.687   8.250
 3669POPC   C3B 8121  16.595  29.704   7.950
 3669POPC   C4B 8122  16.541  29.755   7.650
 3670POPC   NC3 8123  30.724  39.989   9.450
 3670POPC   PO4 8124  30.669  40.049   9.150
 3670POPC   GL1 8125  30.729  39.993   8.850
 3670POPC   GL2 8126  30.779  40.107   8.850
 3670POPC   C1A 8127  30.724  40.045   8.550
 3670POPC   D2A 8128  30.658  39.993   8.250
 3670POPC   C3A 8129  30.651  40.045   7.950
 3670POPC   C4A 8130  30.656  40.020   7.650
 3670POPC   C1B 8131  30.840  40.215   8.550
 3670POPC   C2B 8132  30.797  40.243   8.250
 3670POPC   C3B 8133  30.790  40.275   7.950
 3670POPC   C4B 8134  30.850  40.215   7.650
 3671POPC   NC3 8135  37.714  27.572   9.450
 3671POPC   PO4 8136  37.658  27.602   9.150
 3671POPC   GL1 8137  37.661  27.607   8.850
 3671POPC   GL2 8138  37.841  27.536   8.850
 3671POPC   C1A 8139  37.657  27.548   8.550
 3671POPC   D2A 8140  37.695  27.559   8.250
 3671POPC   C3A 8141  37.709  27.642   7.950
 3671POPC   C4A 8142  37.637  27.609   7.650
 3671POPC   C1B 8143  37.874  27.510   8.550
 3671POPC   C2B 8144  37.869  27.480   8.250
 3671POPC   C3B 8145  37.881  27.543   7.950
 3671POPC   C4B 8146  37.959  27.511   7.650
 3672POPC   NC3 8147   5.896  35.401   9.450
 3672POPC   PO4 8148   5.825  35.345   9.150
 3672POPC   GL1 8149   5.886  35.325   8.850
 3672POPC   GL2 8150   5.758  35.325   8.850
 3672POPC   C1A 8151   5.862  35.386   8.550
 3672POPC   D2A 8152   5.830  35.361   8.250
 3672POPC   C3A 8153   5.825  35.395   7.950
 3672POPC   C4A 8154   5.878  35.397   7.650
 3672POPC   C1B 8155   5.641  35.281   8.550
 3672POPC   C2B 8156   5.574  35.362   8.250
 3672POPC   C3B 8157   5.653  35.287   7.950
 3672POPC   C4B 8158   5.655  35.326   7.650
 3673POPC   NC3 8159  40.794   1.177   9.450
 3673POPC   PO4 8160  40.771   1.170   9.150
 3673POPC   GL1 8161  40.820   1.185   8.850
 3673POPC   GL2 8162  40.816   1.376   8.850
 3673POPC   C1A 8163  40.804   1.181   8.550
 3673POPC   D2A 8164  40.810   1.194   8.250
 3673POPC   C3A 8165  40.823   1.237   7.950
 3673POPC   C4A 8166  40.816   1.219   7.650
 3673POPC   C1B 8167  40.833   1.473   8.550
 3673POPC   C2B 8168  40.913   1.481   8.250
 3673POPC   C3B 8169  40.827   1.490   7.950
 3673POPC   C4B 8170  40.885   1.477   7.650
 3674POPC   NC3 8171   1.992  10.499   9.450
 3674POPC   PO4 8172   2.013  10.494   9.150
 3674POPC   GL1 8173   2.023  10.568   8.850
 3674POPC   GL2 8174   2.098  10.570   8.850
 3674POPC   C1A 8175   2.025  10.523   8.550
 3674POPC   D2A 8176   1.991  10.490   8.250
 3674POPC   C3A 8177   2.001  10.542   7.950
 3674POPC   C4A 8178   1.980  10.479   7.650
 3674POPC   C1B 8179   2.229  10.510   8.550
 3674POPC   C2B 8180   2.236  10.529   8.250
 3674POPC   C3B 8181   2.284  10.490   7.950
 3674POPC   C4B 8182   2.195  10.518   7.650
 3675POPC   NC3 8183   3.491   9.746   9.450
 3675POPC   PO4 8184   3.585   9.765   9.150
 3675POPC   GL1 8185   3.512   9.779   8.850
 3675POPC   GL2 8186   3.680   9.751   8.850
 3675POPC   C1A 8187   3.509   9.776   8.550
 3675POPC   D2A 8188   3.513   9.704   8.250
 3675POPC   C3A 8189   3.545   9.787   7.950
 3675POPC   C4A 8190   3.543   9.760   7.650
 3675POPC   C1B 8191   3.818   9.769   8.550
 3675POPC   C2B 8192   3.792   9.775   8.250
 3675POPC   C3B 8193   3.754   9.797   7.950
 3675POPC   C4B 8194   3.774   9.763   7.650
 3676POPC   NC3 8195  14.394  42.379   9.450
 3676POPC   PO4 8196  14.395  42.357   9.150
 3676POPC   GL1 8197  14.391  42.370   8.850
 3676POPC   GL2 8198  14.370  42.481   8.850
 3676POPC   C1A 8199  14.400  42.333   8.550
 3676POPC   D2A 8200  14.444  42.307   8.250
 3676POPC   C3A 8201  14.411  42.319   7.950
 3676POPC   C4A 8202  14.415  42.329   7.650
 3676POPC   C1B 8203  14.417  42.624   8.550
 3676POPC   C2B 8204  14.410  42.553   8.250
 3676POPC   C3B 8205  14.367  42.626   7.950
 3676POPC   C4B 8206  14.360  42.613   7.650
 3677POPC   NC3 8207   3.586  42.293   9.450
 3677POPC   PO4 8208   3.582  42.372   9.150
 3677POPC   GL1 8209   3.522  42.298   8.850
 3677POPC   GL2 8210   3.647  42.228   8.850
 3677POPC   C1A 8211   3.492  42.297   8.550
 3677POPC   D2A 8212   3.498  42.328   8.250
 3677POPC   C3A 8213   3.535  42.329   7.950
 3677POPC   C4A 8214   3.548  42.336   7.650
 3677POPC   C1B 8215   3.677  42.121   8.550
 3677POPC   C2B 8216   3.750  42.173   8.250
 3677POPC   C3B 8217   3.681  42.198   7.950
 3677POPC   C4B 8218   3.748  42.165   7.650
 3678POPC   NC3 8219  37.669  38.459   9.450
 3678POPC   PO4 8220  37.690  38.424   9.150
 3678POPC   GL1 8221  37.723  38.460   8.850
 3678POPC   GL2 8222  37.569  38.370   8.850
 3678POPC   C1A 8223  37.727  38.500   8.550
 3678POPC   D2A 8224  37.669  38.497   8.250
 3678POPC   C3A 8225  37.712  38.503   7.950
 3678POPC   C4A 8226  37.721  38.490   7.650
 3678POPC   C1B 8227  37.513  38.273   8.550
 3678POPC   C2B 8228  37.445  38.278   8.250
 3678POPC   C3B 8229  37.464  38.303   7.950
 3678POPC   C4B 8230  37.518  38.306   7.650
 3679POPC   NC3 8231   1.231  41.599   9.450
 3679POPC   PO4 8232   1.173  41.557   9.150
 3679POPC   GL1 8233   1.211  41.577   8.850
 3679POPC   GL2 8234   1.120  41.607   8.850
 3679POPC   C1A 8235   1.231  41.563   8.550
 3679POPC   D2A 8236   1.227  41.512   8.250
 3679POPC   C3A 8237   1.248  41.604   7.950
 3679POPC   C4A 8238   1.221  41.578   7.650
 3679POPC   C1B 8239   1.003  41.617   8.550
 3679POPC   C2B 8240   0.999  41.644   8.250
 3679POPC   C3B 8241   0.990  41.633   7.950
 3679POPC   C4B 8242   0.937  41.591   7.650
 3680POPC   NC3 8243  29.134  18.290   9.450
 3680POPC   PO4 8244  29.192  18.276   9.150
 3680POPC   GL1 8245  29.148  18.263   8.850
 3680POPC   GL2 8246  29.047  18.336   8.850
 3680POPC   C1A 8247  29.129  18.278   8.550
 3680POPC   D2A 8248  29.113  18.293   8.250
 3680POPC   C3A 8249  29.183  18.255   7.950
 3680POPC   C4A 8250  29.163  18.251   7.650
 3680POPC   C1B 8251  28.884  18.399   8.550
 3680POPC   C2B 8252  28.878  18.353   8.250
 3680POPC   C3B 8253  28.947  18.374   7.950
 3680POPC   C4B 8254  28.941  18.380   7.650
 3681POPC   NC3 8255  17.547  39.201   9.450
 3681POPC   PO4 8256  17.472  39.250   9.150
 3681POPC   GL1 8257  17.523  39.211   8.850
 3681POPC   GL2 8258  17.461  39.110   8.850
 3681POPC   C1A 8259  17.527  39.183   8.550
 3681POPC   D2A 8260  17.512  39.204   8.250
 3681POPC   C3A 8261  17.520  39.263   7.950
 3681POPC   C4A 8262  17.514  39.218   7.650
 3681POPC   C1B 8263  17.507  38.935   8.550
 3681POPC   C2B 8264  17.478  38.966   8.250
 3681POPC   C3B 8265  17.430  38.944   7.950
 3681POPC   C4B 8266  17.501  38.988   7.650
 3682POPC   NC3 8267  28.396  37.654   9.450
 3682POPC   PO4 8268  28.385  37.704   9.150
 3682POPC   GL1 8269  28.397  37.692   8.850
 3682POPC   GL2 8270  28.265  37.673   8.850
 3682POPC   C1A 8271  28.331  37.694   8.550
 3682POPC   D2A 8272  28.340  37.637   8.250
 3682POPC   C3A 8273  28.415  37.687   7.950
 3682POPC   C4A 8274  28.352  37.638   7.650
 3682POPC   C1B 8275  28.083  37.683   8.550
 3682POPC   C2B 8276  28.086  37.641   8.250
 3682POPC   C3B 8277  28.077  37.703   7.950
 3682POPC   C4B 8278  28.161  37.651   7.650
 3683POPC   NC3 8279  42.319  12.125   9.450
 3683POPC   PO4 8280  42.314  12.122   9.150
 3683POPC   GL1 8281  42.302  12.040   8.850
 3683POPC   GL2 8282  42.347  12.212   8.850
 3683POPC   C1A 8283  42.341  12.034   8.550
 3683POPC   D2A 8284  42.296  12.120   8.250
 3683POPC   C3A 8285  42.327  12.080   7.950
 3683POPC   C4A 8286  42.345  12.094   7.650
 3683POPC   C1B 8287  42.399  12.305   8.550
 3683POPC   C2B 8288  42.387  12.287   8.250
 3683POPC   C3B 8289  42.386  12.341   7.950
 3683POPC   C4B 8290  42.417  12.335   7.650
 3684POPC   NC3 8291  29.947   8.161   9.450
 3684POPC   PO4 8292  29.905   8.205   9.150
 3684POPC   GL1 8293  29.876   8.246   8.850
 3684POPC   GL2 8294  29.921   8.349   8.850
 3684POPC   C1A 8295  29.942   8.223   8.550
 3684POPC   D2A 8296  29.937   8.164   8.250
 3684POPC   C3A 8297  29.874   8.201   7.950
 3684POPC   C4A 8298  29.942   8.209   7.650
 3684POPC   C1B 8299  29.915   8.458   8.550
 3684POPC   C2B 8300  29.971   8.439   8.250
 3684POPC   C3B 8301  29.925   8.480   7.950
 3684POPC   C4B 8302  29.952   8.439   7.650
 3685POPC   NC3 8303  23.695  26.844   9.450
 3685POPC   PO4 8304  23.674  26.811   9.150
 3685POPC   GL1 8305  23.696  26.845   8.850
 3685POPC   GL2 8306  23.656  26.673   8.850
 3685POPC   C1A 8307  23.728  26.851   8.550
 3685POPC   D2A 8308  23.706  26.856   8.250
 3685POPC   C3A 8309  23.742  26.856   7.950
 3685POPC   C4A 8310  23.763  26.866   7.650
 3685POPC   C1B 8311  23.552  26.633   8.550
 3685POPC   C2B 8312  23.611  26.602   8.250
 3685POPC   C3B 8313  23.604  26.575   7.950
 3685POPC   C4B 8314  23.608  26.573   7.650
 3686POPC   NC3 8315  16.725  43.091   9.450
 3686POPC   PO4 8316  16.762  43.124   9.150
 3686POPC   GL1 8317  16.683  43.095   8.850
 3686POPC   GL2 8318  16.825  43.053   8.850
 3686POPC   C1A 8319  16.702  43.159   8.550
 3686POPC   D2A 8320  16.767  43.089   8.250
 3686POPC   C3A 8321  16.778  43.076   7.950
 3686POPC   C4A 8322  16.705  43.094   7.650
 3686POPC   C1B 8323  16.927  43.033   8.550
 3686POPC   C2B 8324  17.013  43.043   8.250
 3686POPC   C3B 8325  17.005  43.079   7.950
 3686POPC   C4B 8326  16.944  43.044   7.650
 3687POPC   NC3 8327  13.647  43.156   9.450
 3687POPC   PO4 8328  13.634  43.128   9.150
 3687POPC   GL1 8329  13.591  43.149   8.850
 3687POPC   GL2 8330  13.687  43.196   8.850
 3687POPC   C1A 8331  13.643  43.072   8.550
 3687POPC   D2A 8332  13.578  43.079   8.250
 3687POPC   C3A 8333  13.662  43.093   7.950
 3687POPC   C4A 8334  13.670  43.150   7.650
 3687POPC   C1B 8335  13.772  43.290   8.550
 3687POPC   C2B 8336  13.759  43.338   8.250
 3687POPC   C3B 8337  13.772  43.277   7.950
 3687POPC   C4B 8338  13.808  43.303   7.650
 3688POPC   NC3 8339  44.672  21.390   9.450
 3688POPC   PO4 8340  44.661  21.345   9.150
 3688POPC   GL1 8341  44.621  21.423   8.850
 3688POPC   GL2 8342  44.584  21.399   8.850
 3688POPC   C1A 8343  44.634  21.421   8.550
 3688POPC   D2A 8344  44.672  21.397   8.250
 3688POPC   C3A 8345  44.680  21.353   7.950
 3688POPC   C4A 8346  44.651  21.369   7.650
 3688POPC   C1B 8347  44.419  21.374   8.550
 3688POPC   C2B 8348  44.417  21.368   8.250
 3688POPC   C3B 8349  44.399  21.375   7.950
 3688POPC   C4B 8350  44.404  21.386   7.650
 3689POPC   NC3 8351   3.516  32.283   9.450
 3689POPC   PO4 8352   3.547  32.244   9.150
 3689POPC   GL1 8353   3.552  32.199   8.850
 3689POPC   GL2 8354   3.638  32.258   8.850
 3689POPC   C1A 8355   3.577  32.221   8.550
 3689POPC   D2A 8356   3.561  32.237   8.250
 3689POPC   C3A 8357   3.546  32.276   7.950
 3689POPC   C4A 8358   3.506  32.297   7.650
 3689POPC   C1B 8359   3.809  32.401   8.550
 3689POPC   C2B 8360   3.715  32.378   8.250
 3689POPC   C3B 8361   3.736  32.359   7.950
 3689POPC   C4B 8362   3.728  32.404   7.650
 3690POPC   NC3 8363  35.391  34.589   9.450
 3690POPC   PO4 8364  35.334  34.547   9.150
 3690POPC   GL1 8365  35.356  34.595   8.850
 3690POPC   GL2 8366  35.282  34.684   8.850
 3690POPC   C1A 8367  35.363  34.567   8.550
 3690POPC   D2A 8368  35.338  34.589   8.250
 3690POPC   C3A 8369  35.334  34.593   7.950
 3690POPC   C4A 8370  35.322  34.532   7.650
 3690POPC   C1B 8371  35.164  34.694   8.550
 3690POPC   C2B 8372  35.173  34.755   8.250
 3690POPC   C3B 8373  35.115  34.718   7.950
 3690POPC   C4B 8374  35.175  34.711   7.650
 3691POPC   NC3 8375   4.322  36.891   9.450
 3691POPC   PO4 8376   4.268  36.885   9.150
 3691POPC   GL1 8377   4.348  36.857   8.850
 3691POPC   GL2 8378   4.413  36.858   8.850
 3691POPC   C1A 8379   4.285  36.933   8.550
 3691POPC   D2A 8380   4.314  36.919   8.250
 3691POPC   C3A 8381   4.273  36.886   7.950
 3691POPC   C4A 8382   4.304  36.894   7.650
 3691POPC   C1B 8383   4.451  36.691   8.550
 3691POPC   C2B 8384   4.470  36.759   8.250
 3691POPC   C3B 8385   4.441  36.680   7.950
 3691POPC   C4B 8386   4.447  36.725   7.650
 3692POPC   NC3 8387  23.674  34.526   9.450
 3692POPC   PO4 8388  23.683  34.553   9.150
 3692POPC   GL1 8389  23.694  34.531   8.850
 3692POPC   GL2 8390  23.668  34.658   8.850
 3692POPC   C1A 8391  23.674  34.618   8.550
 3692POPC   D2A 8392  23.665  34.532   8.250
 3692POPC   C3A 8393  23.756  34.533   7.950
 3692POPC   C4A 8394  23.748  34.591   7.650
 3692POPC   C1B 8395  23.488  34.762   8.550
 3692POPC   C2B 8396  23.499  34.725   8.250
 3692POPC   C3B 8397  23.565  34.777   7.950
 3692POPC   C4B 8398  23.560  34.779   7.650
 3693POPC   NC3 8399   3.509   7.390   9.450
 3693POPC   PO4 8400   3.560   7.407   9.150
 3693POPC   GL1 8401   3.501   7.392   8.850
 3693POPC   GL2 8402   3.665   7.533   8.850
 3693POPC   C1A 8403   3.546   7.412   8.550
 3693POPC   D2A 8404   3.525   7.442   8.250
 3693POPC   C3A 8405   3.573   7.454   7.950
 3693POPC   C4A 8406   3.517   7.405   7.650
 3693POPC   C1B 8407   3.767   7.643   8.550
 3693POPC   C2B 8408   3.710   7.574   8.250
 3693POPC   C3B 8409   3.757   7.640   7.950
 3693POPC   C4B 8410   3.681   7.583   7.650
 3694POPC   NC3 8411  11.309   9.717   9.450
 3694POPC   PO4 8412  11.284   9.752   9.150
 3694POPC   GL1 8413  11.285   9.762   8.850
 3694POPC   GL2 8414  11.265   9.809   8.850
 3694POPC   C1A 8415  11.282   9.711   8.550
 3694POPC   D2A 8416  11.273   9.758   8.250
 3694POPC   C3A 8417  11.283   9.732   7.950
 3694POPC   C4A 8418  11.300   9.717   7.650
 3694POPC   C1B 8419  11.179   9.949   8.550
 3694POPC   C2B 8420  11.170   9.950   8.250
 3694POPC   C3B 8421  11.191   9.996   7.950
 3694POPC   C4B 8422  11.164   9.995   7.650
 3695POPC   NC3 8423  40.809   8.972   9.450
 3695POPC   PO4 8424  40.753   8.980   9.150
 3695POPC   GL1 8425  40.832   9.015   8.850
 3695POPC   GL2 8426  40.651   8.936   8.850
 3695POPC   C1A 8427  40.785   8.947   8.550
 3695POPC   D2A 8428  40.825   8.934   8.250
 3695POPC   C3A 8429  40.811   8.961   7.950
 3695POPC   C4A 8430  40.809   8.952   7.650
 3695POPC   C1B 8431  40.530   8.921   8.550
 3695POPC   C2B 8432  40.572   8.975   8.250
 3695POPC   C3B 8433  40.579   8.976   7.950
 3695POPC   C4B 8434  40.542   9.003   7.650
 3696POPC   NC3 8435  14.431  19.806   9.450
 3696POPC   PO4 8436  14.364  19.799   9.150
 3696POPC   GL1 8437  14.442  19.870   8.850
 3696POPC   GL2 8438  14.344  19.759   8.850
 3696POPC   C1A 8439  14.434  19.870   8.550
 3696POPC   D2A 8440  14.426  19.859   8.250
 3696POPC   C3A 8441  14.398  19.813   7.950
 3696POPC   C4A 8442  14.430  19.796   7.650
 3696POPC   C1B 8443  14.200  19.729   8.550
 3696POPC   C2B 8444  14.142  19.728   8.250
 3696POPC   C3B 8445  14.147  19.749   7.950
 3696POPC   C4B 8446  14.217  19.664   7.650
 3697POPC   NC3 8447  12.067  36.934   9.450
 3697POPC   PO4 8448  12.101  36.861   9.150
 3697POPC   GL1 8449  12.043  36.944   8.850
 3697POPC   GL2 8450  12.148  36.983   8.850
 3697POPC   C1A 8451  12.111  36.942   8.550
 3697POPC   D2A 8452  12.088  36.927   8.250
 3697POPC   C3A 8453  12.050  36.935   7.950
 3697POPC   C4A 8454  12.055  36.953   7.650
 3697POPC   C1B 8455  12.191  37.110   8.550
 3697POPC   C2B 8456  12.111  37.127   8.250
 3697POPC   C3B 8457  12.121  37.156   7.950
 3697POPC   C4B 8458  12.111  37.161   7.650
 3698POPC   NC3 8459  14.368  31.424   9.450
 3698POPC   PO4 8460  14.437  31.450   9.150
 3698POPC   GL1 8461  14.390  31.512   8.850
 3698POPC   GL2 8462  14.442  31.324   8.850
 3698POPC   C1A 8463  14.367  31.474   8.550
 3698POPC   D2A 8464  14.399  31.487   8.250
 3698POPC   C3A 8465  14.450  31.469   7.950
 3698POPC   C4A 8466  14.434  31.513   7.650
 3698POPC   C1B 8467  14.392  31.199   8.550
 3698POPC   C2B 8468  14.373  31.257   8.250
 3698POPC   C3B 8469  14.443  31.254   7.950
 3698POPC   C4B 8470  14.408  31.271   7.650
 3699POPC   NC3 8471  38.464  13.673   9.450
 3699POPC   PO4 8472  38.458  13.617   9.150
 3699POPC   GL1 8473  38.416  13.675   8.850
 3699POPC   GL2 8474  38.307  13.621   8.850
 3699POPC   C1A 8475  38.450  13.587   8.550
 3699POPC   D2A 8476  38.464  13.657   8.250
 3699POPC   C3A 8477  38.406  13.669   7.950
 3699POPC   C4A 8478  38.416  13.677   7.650
 3699POPC   C1B 8479  38.177  13.696   8.550
 3699POPC   C2B 8480  38.257  13.648   8.250
 3699POPC   C3B 8481  38.198  13.641   7.950
 3699POPC   C4B 8482  38.223  13.697   7.650
 3700POPC   NC3 8483  26.806   3.578   9.450
 3700POPC   PO4 8484  26.787   3.505   9.150
 3700POPC   GL1 8485  26.782   3.530   8.850
 3700POPC   GL2 8486  26.964   3.523   8.850
 3700POPC   C1A 8487  26.781   3.569   8.550
 3700POPC   D2A 8488  26.809   3.510   8.250
 3700POPC   C3A 8489  26.787   3.532   7.950
 3700POPC   C4A 8490  26.864   3.578   7.650
 3700POPC   C1B 8491  27.019   3.563   8.550
 3700POPC   C2B 8492  27.060   3.533   8.250
 3700POPC   C3B 8493  27.019   3.606   7.950
 3700POPC   C4B 8494  27.055   3.624   7.650
 3701POPC   NC3 8495  44.643  25.279   9.450
 3701POPC   PO4 8496  44.709  25.296   9.150
 3701POPC   GL1 8497  44.640  25.250   8.850
 3701POPC   GL2 8498  44.760  25.230   8.850
 3701POPC   C1A 8499  44.700  25.261   8.550
 3701POPC   D2A 8500  44.626  25.279   8.250
 3701POPC   C3A 8501  44.675  25.277   7.950
 3701POPC   C4A 8502  44.644  25.234   7.650
 3701POPC   C1B 8503  44.882  25.148   8.550
 3701POPC   C2B 8504  44.873  25.100   8.250
 3701POPC   C3B 8505  44.909  25.121   7.950
 3701POPC   C4B 8506  44.886  25.167   7.650
 3702POPC   NC3 8507  14.392   3.564   9.450
 3702POPC   PO4 8508  14.442   3.575   9.150
 3702POPC   GL1 8509  14.380   3.504   8.850
 3702POPC   GL2 8510  14.352   3.448   8.850
 3702POPC   C1A 8511  14.382   3.550   8.550
 3702POPC   D2A 8512  14.401   3.566   8.250
 3702POPC   C3A 8513  14.450   3.531   7.950
 3702POPC   C4A 8514  14.435   3.562   7.650
 3702POPC   C1B 8515  14.278   3.359   8.550
 3702POPC   C2B 8516  14.302   3.297   8.250
 3702POPC   C3B 8517  14.265   3.329   7.950
 3702POPC   C4B 8518  14.216   3.319   7.650
 3703POPC   NC3 8519  20.562  44.664   9.450
 3703POPC   PO4 8520  20.624  44.643   9.150
 3703POPC   GL1 8521  20.564  44.659   8.850
 3703POPC   GL2 8522  20.659  44.560   8.850
 3703POPC   C1A 8523  20.632  44.701   8.550
 3703POPC   D2A 8524  20.597  44.616   8.250
 3703POPC   C3A 8525  20.654  44.654   7.950
 3703POPC   C4A 8526  20.600  44.648   7.650
 3703POPC   C1B 8527  20.664  44.382   8.550
 3703POPC   C2B 8528  20.703  44.429   8.250
 3703POPC   C3B 8529  20.714  44.378   7.950
 3703POPC   C4B 8530  20.718  44.395   7.650
 3704POPC   NC3 8531   6.637  43.106   9.450
 3704POPC   PO4 8532   6.611  43.115   9.150
 3704POPC   GL1 8533   6.693  43.127   8.850
 3704POPC   GL2 8534   6.740  43.074   8.850
 3704POPC   C1A 8535   6.655  43.107   8.550
 3704POPC   D2A 8536   6.613  43.131   8.250
 3704POPC   C3A 8537   6.600  43.123   7.950
 3704POPC   C4A 8538   6.612  43.063   7.650
 3704POPC   C1B 8539   6.862  42.963   8.550
 3704POPC   C2B 8540   6.884  42.913   8.250
 3704POPC   C3B 8541   6.833  42.950   7.950
 3704POPC   C4B 8542   6.824  42.921   7.650
 3705POPC   NC3 8543  22.895  13.676   9.450
 3705POPC   PO4 8544  22.973  13.581   9.150
 3705POPC   GL1 8545  22.976  13.657   8.850
 3705POPC   GL2 8546  22.963  13.563   8.850
 3705POPC   C1A 8547  22.922  13.604   8.550
 3705POPC   D2A 8548  22.898  13.674   8.250
 3705POPC   C3A 8549  22.929  13.652   7.950
 3705POPC   C4A 8550  22.914  13.640   7.650
 3705POPC   C1B 8551  23.072  13.417   8.550
 3705POPC   C2B 8552  23.089  13.358   8.250
 3705POPC   C3B 8553  23.018  13.417   7.950
 3705POPC   C4B 8554  23.092  13.406   7.650
 3706POPC   NC3 8555   8.163  12.870   9.450
 3706POPC   PO4 8556   8.177  12.805   9.150
 3706POPC   GL1 8557   8.178  12.880   8.850
 3706POPC   GL2 8558   8.250  12.761   8.850
 3706POPC   C1A 8559   8.197  12.887   8.550
 3706POPC   D2A 8560   8.171  12.853   8.250
 3706POPC   C3A 8561   8.229  12.833   7.950
 3706POPC   C4A 8562   8.218  12.877   7.650
 3706POPC   C1B 8563   8.238  12.608   8.550
 3706POPC   C2B 8564   8.280  12.618   8.250
 3706POPC   C3B 8565   8.262  12.600   7.950
 3706POPC   C4B 8566   8.299  12.607   7.650
 3707POPC   NC3 8567  43.117  18.329   9.450
 3707POPC   PO4 8568  43.095  18.295   9.150
 3707POPC   GL1 8569  43.096  18.299   8.850
 3707POPC   GL2 8570  43.164  18.359   8.850
 3707POPC   C1A 8571  43.104  18.267   8.550
 3707POPC   D2A 8572  43.134  18.276   8.250
 3707POPC   C3A 8573  43.144  18.281   7.950
 3707POPC   C4A 8574  43.061  18.290   7.650
 3707POPC   C1B 8575  43.241  18.519   8.550
 3707POPC   C2B 8576  43.228  18.477   8.250
 3707POPC   C3B 8577  43.256  18.438   7.950
 3707POPC   C4B 8578  43.250  18.487   7.650
 3708POPC   NC3 8579  12.118  35.342   9.450
 3708POPC   PO4 8580  12.042  35.321   9.150
 3708POPC   GL1 8581  12.038  35.377   8.850
 3708POPC   GL2 8582  12.029  35.490   8.850
 3708POPC   C1A 8583  12.092  35.303   8.550
 3708POPC   D2A 8584  12.088  35.344   8.250
 3708POPC   C3A 8585  12.099  35.350   7.950
 3708POPC   C4A 8586  12.073  35.386   7.650
 3708POPC   C1B 8587  12.085  35.600   8.550
 3708POPC   C2B 8588  12.049  35.648   8.250
 3708POPC   C3B 8589  12.021  35.558   7.950
 3708POPC   C4B 8590  12.002  35.553   7.650
 3709POPC   NC3 8591  28.416  29.935   9.450
 3709POPC   PO4 8592  28.332  29.888   9.150
 3709POPC   GL1 8593  28.387  29.957   8.850
 3709POPC   GL2 8594  28.242  29.885   8.850
 3709POPC   C1A 8595  28.363  29.958   8.550
 3709POPC   D2A 8596  28.356  29.933   8.250
 3709POPC   C3A 8597  28.389  29.888   7.950
 3709POPC   C4A 8598  28.388  29.874   7.650
 3709POPC   C1B 8599  28.158  29.811   8.550
 3709POPC   C2B 8600  28.109  29.842   8.250
 3709POPC   C3B 8601  28.170  29.800   7.950
 3709POPC   C4B 8602  28.135  29.802   7.650
 3710POPC   NC3 8603  18.318   2.754   9.450
 3710POPC   PO4 8604  18.293   2.781   9.150
 3710POPC   GL1 8605  18.320   2.735   8.850
 3710POPC   GL2 8606  18.205   2.648   8.850
 3710POPC   C1A 8607  18.293   2.802   8.550
 3710POPC   D2A 8608  18.257   2.722   8.250
 3710POPC   C3A 8609  18.303   2.716   7.950
 3710POPC   C4A 8610  18.246   2.777   7.650
 3710POPC   C1B 8611  18.179   2.542   8.550
 3710POPC   C2B 8612  18.202   2.507   8.250
 3710POPC   C3B 8613  18.240   2.582   7.950
 3710POPC   C4B 8614  18.193   2.512   7.650
 3711POPC   NC3 8615  37.725  37.673   9.450
 3711POPC   PO4 8616  37.652  37.720   9.150
 3711POPC   GL1 8617  37.666  37.690   8.850
 3711POPC   GL2 8618  37.543  37.772   8.850
 3711POPC   C1A 8619  37.718  37.649   8.550
 3711POPC   D2A 8620  37.642  37.698   8.250
 3711POPC   C3A 8621  37.721  37.709   7.950
 3711POPC   C4A 8622  37.647  37.710   7.650
 3711POPC   C1B 8623  37.529  37.858   8.550
 3711POPC   C2B 8624  37.443  37.806   8.250
 3711POPC   C3B 8625  37.453  37.825   7.950
 3711POPC   C4B 8626  37.437  37.825   7.650
 3712POPC   NC3 8627  14.396  40.794   9.450
 3712POPC   PO4 8628  14.359  40.780   9.150
 3712POPC   GL1 8629  14.430  40.782   8.850
 3712POPC   GL2 8630  14.394  40.854   8.850
 3712POPC   C1A 8631  14.366  40.741   8.550
 3712POPC   D2A 8632  14.366  40.734   8.250
 3712POPC   C3A 8633  14.432  40.749   7.950
 3712POPC   C4A 8634  14.413  40.764   7.650
 3712POPC   C1B 8635  14.338  40.966   8.550
 3712POPC   C2B 8636  14.276  41.009   8.250
 3712POPC   C3B 8637  14.315  41.005   7.950
 3712POPC   C4B 8638  14.347  41.053   7.650
 3713POPC   NC3 8639  36.098  12.847   9.450
 3713POPC   PO4 8640  36.113  12.811   9.150
 3713POPC   GL1 8641  36.109  12.884   8.850
 3713POPC   GL2 8642  36.014  12.779   8.850
 3713POPC   C1A 8643  36.125  12.811   8.550
 3713POPC   D2A 8644  36.110  12.881   8.250
 3713POPC   C3A 8645  36.092  12.877   7.950
 3713POPC   C4A 8646  36.085  12.872   7.650
 3713POPC   C1B 8647  35.949  12.702   8.550
 3713POPC   C2B 8648  35.986  12.652   8.250
 3713POPC   C3B 8649  36.007  12.670   7.950
 3713POPC   C4B 8650  35.970  12.660   7.650
 3714POPC   NC3 8651  25.296  33.008   9.450
 3714POPC   PO4 8652  25.276  33.018   9.150
 3714POPC   GL1 8653  25.310  33.053   8.850
 3714POPC   GL2 8654  25.191  32.930   8.850
 3714POPC   C1A 8655  25.302  32.987   8.550
 3714POPC   D2A 8656  25.303  33.055   8.250
 3714POPC   C3A 8657  25.257  33.030   7.950
 3714POPC   C4A 8658  25.291  32.978   7.650
 3714POPC   C1B 8659  25.088  32.889   8.550
 3714POPC   C2B 8660  25.015  32.903   8.250
 3714POPC   C3B 8661  25.034  32.945   7.950
 3714POPC   C4B 8662  25.047  32.941   7.650
 3715POPC   NC3 8663  34.619  11.257   9.450
 3715POPC   PO4 8664  34.544  11.266   9.150
 3715POPC   GL1 8665  34.578  11.327   8.850
 3715POPC   GL2 8666  34.718  11.221   8.850
 3715POPC   C1A 8667  34.566  11.269   8.550
 3715POPC   D2A 8668  34.587  11.309   8.250
 3715POPC   C3A 8669  34.598  11.317   7.950
 3715POPC   C4A 8670  34.531  11.291   7.650
 3715POPC   C1B 8671  34.774  11.198   8.550
 3715POPC   C2B 8672  34.773  11.106   8.250
 3715POPC   C3B 8673  34.766  11.121   7.950
 3715POPC   C4B 8674  34.752  11.178   7.650
 3716POPC   NC3 8675   9.771  43.840   9.450
 3716POPC   PO4 8676   9.766  43.906   9.150
 3716POPC   GL1 8677   9.759  43.876   8.850
 3716POPC   GL2 8678   9.626  43.991   8.850
 3716POPC   C1A 8679   9.749  43.840   8.550
 3716POPC   D2A 8680   9.742  43.858   8.250
 3716POPC   C3A 8681   9.739  43.865   7.950
 3716POPC   C4A 8682   9.793  43.863   7.650
 3716POPC   C1B 8683   9.536  44.052   8.550
 3716POPC   C2B 8684   9.536  44.018   8.250
 3716POPC   C3B 8685   9.529  44.065   7.950
 3716POPC   C4B 8686   9.541  44.114   7.650
 3717POPC   NC3 8687  14.417  29.907   9.450
 3717POPC   PO4 8688  14.422  29.937   9.150
 3717POPC   GL1 8689  14.417  29.967   8.850
 3717POPC   GL2 8690  14.261  29.938   8.850
 3717POPC   C1A 8691  14.412  29.958   8.550
 3717POPC   D2A 8692  14.399  29.887   8.250
 3717POPC   C3A 8693  14.415  29.959   7.950
 3717POPC   C4A 8694  14.402  29.921   7.650
 3717POPC   C1B 8695  14.107  29.932   8.550
 3717POPC   C2B 8696  14.164  29.874   8.250
 3717POPC   C3B 8697  14.182  29.848   7.950
 3717POPC   C4B 8698  14.185  29.924   7.650
 3718POPC   NC3 8699  24.526  19.865   9.450
 3718POPC   PO4 8700  24.514  19.851   9.150
 3718POPC   GL1 8701  24.487  19.804   8.850
 3718POPC   GL2 8702  24.586  19.799   8.850
 3718POPC   C1A 8703  24.481  19.832   8.550
 3718POPC   D2A 8704  24.512  19.871   8.250
 3718POPC   C3A 8705  24.532  19.786   7.950
 3718POPC   C4A 8706  24.523  19.845   7.650
 3718POPC   C1B 8707  24.719  19.718   8.550
 3718POPC   C2B 8708  24.717  19.689   8.250
 3718POPC   C3B 8709  24.657  19.649   7.950
 3718POPC   C4B 8710  24.701  19.676   7.650
 3719POPC   NC3 8711  39.217  21.420   9.450
 3719POPC   PO4 8712  39.240  21.352   9.150
 3719POPC   GL1 8713  39.191  21.419   8.850
 3719POPC   GL2 8714  39.086  21.320   8.850
 3719POPC   C1A 8715  39.217  21.417   8.550
 3719POPC   D2A 8716  39.265  21.435   8.250
 3719POPC   C3A 8717  39.188  21.386   7.950
 3719POPC   C4A 8718  39.218  21.408   7.650
 3719POPC   C1B 8719  38.971  21.332   8.550
 3719POPC   C2B 8720  38.969  21.300   8.250
 3719POPC   C3B 8721  38.941  21.317   7.950
 3719POPC   C4B 8722  38.949  21.333   7.650
 3720POPC   NC3 8723  39.276  36.153   9.450
 3720POPC   PO4 8724  39.213  36.149   9.150
 3720POPC   GL1 8725  39.195  36.109   8.850
 3720POPC   GL2 8726  39.312  36.230   8.850
 3720POPC   C1A 8727  39.252  36.139   8.550
 3720POPC   D2A 8728  39.241  36.123   8.250
 3720POPC   C3A 8729  39.214  36.112   7.950
 3720POPC   C4A 8730  39.262  36.084   7.650
 3720POPC   C1B 8731  39.423  36.340   8.550
 3720POPC   C2B 8732  39.402  36.365   8.250
 3720POPC   C3B 8733  39.350  36.330   7.950
 3720POPC   C4B 8734  39.413  36.320   7.650
 3721POPC   NC3 8735  13.611   6.671   9.450
 3721POPC   PO4 8736  13.646   6.605   9.150
 3721POPC   GL1 8737  13.603   6.692   8.850
 3721POPC   GL2 8738  13.701   6.495   8.850
 3721POPC   C1A 8739  13.614   6.625   8.550
 3721POPC   D2A 8740  13.586   6.679   8.250
 3721POPC   C3A 8741  13.591   6.651   7.950
 3721POPC   C4A 8742  13.674   6.690   7.650
 3721POPC   C1B 8743  13.658   6.380   8.550
 3721POPC   C2B 8744  13.653   6.356   8.250
 3721POPC   C3B 8745  13.697   6.387   7.950
 3721POPC   C4B 8746  13.723   6.439   7.650
 3722POPC   NC3 8747  39.974   1.233   9.450
 3722POPC   PO4 8748  40.016   1.202   9.150
 3722POPC   GL1 8749  39.971   1.256   8.850
 3722POPC   GL2 8750  39.947   1.140   8.850
 3722POPC   C1A 8751  40.034   1.246   8.550
 3722POPC   D2A 8752  40.025   1.261   8.250
 3722POPC   C3A 8753  40.011   1.253   7.950
 3722POPC   C4A 8754  40.017   1.169   7.650
 3722POPC   C1B 8755  39.770   1.074   8.550
 3722POPC   C2B 8756  39.832   1.063   8.250
 3722POPC   C3B 8757  39.834   1.062   7.950
 3722POPC   C4B 8758  39.837   1.078   7.650
 3723POPC   NC3 8759   2.726  40.025   9.450
 3723POPC   PO4 8760   2.733  40.007   9.150
 3723POPC   GL1 8761   2.725  40.056   8.850
 3723POPC   GL2 8762   2.618  39.980   8.850
 3723POPC   C1A 8763   2.769  40.041   8.550
 3723POPC   D2A 8764   2.783  39.979   8.250
 3723POPC   C3A 8765   2.797  40.052   7.950
 3723POPC   C4A 8766   2.777  39.979   7.650
 3723POPC   C1B 8767   2.580  39.844   8.550
 3723POPC   C2B 8768   2.543  39.859   8.250
 3723POPC   C3B 8769   2.532  39.884   7.950
 3723POPC   C4B 8770   2.569  39.866   7.650
 3724POPC   NC3 8771   3.580  13.609   9.450
 3724POPC   PO4 8772   3.537  13.661   9.150
 3724POPC   GL1 8773   3.512  13.589   8.850
 3724POPC   GL2 8774   3.426  13.733   8.850
 3724POPC   C1A 8775   3.585  13.648   8.550
 3724POPC   D2A 8776   3.572  13.610   8.250
 3724POPC   C3A 8777   3.580  13.617   7.950
 3724POPC   C4A 8778   3.535  13.663   7.650
 3724POPC   C1B 8779   3.410  13.862   8.550
 3724POPC   C2B 8780   3.431  13.819   8.250
 3724POPC   C3B 8781   3.366  13.810   7.950
 3724POPC   C4B 8782   3.344  13.777   7.650
 3725POPC   NC3 8783  39.208  15.168   9.450
 3725POPC   PO4 8784  39.233  15.201   9.150
 3725POPC   GL1 8785  39.219  15.208   8.850
 3725POPC   GL2 8786  39.332  15.048   8.850
 3725POPC   C1A 8787  39.190  15.181   8.550
 3725POPC   D2A 8788  39.239  15.189   8.250
 3725POPC   C3A 8789  39.257  15.216   7.950
 3725POPC   C4A 8790  39.243  15.162   7.650
 3725POPC   C1B 8791  39.450  15.008   8.550
 3725POPC   C2B 8792  39.378  15.055   8.250
 3725POPC   C3B 8793  39.379  15.014   7.950
 3725POPC   C4B 8794  39.423  14.965   7.650
 3726POPC   NC3 8795  43.886  22.143   9.450
 3726POPC   PO4 8796  43.921  22.143   9.150
 3726POPC   GL1 8797  43.877  22.152   8.850
 3726POPC   GL2 8798  43.909  22.259   8.850
 3726POPC   C1A 8799  43.842  22.163   8.550
 3726POPC   D2A 8800  43.856  22.185   8.250
 3726POPC   C3A 8801  43.921  22.170   7.950
 3726POPC   C4A 8802  43.913  22.142   7.650
 3726POPC   C1B 8803  43.974  22.418   8.550
 3726POPC   C2B 8804  43.969  22.354   8.250
 3726POPC   C3B 8805  44.002  22.422   7.950
 3726POPC   C4B 8806  43.943  22.352   7.650
 3727POPC   NC3 8807  22.143  12.887   9.450
 3727POPC   PO4 8808  22.210  12.871   9.150
 3727POPC   GL1 8809  22.124  12.855   8.850
 3727POPC   GL2 8810  22.247  12.772   8.850
 3727POPC   C1A 8811  22.177  12.890   8.550
 3727POPC   D2A 8812  22.137  12.901   8.250
 3727POPC   C3A 8813  22.123  12.827   7.950
 3727POPC   C4A 8814  22.148  12.839   7.650
 3727POPC   C1B 8815  22.400  12.723   8.550
 3727POPC   C2B 8816  22.398  12.727   8.250
 3727POPC   C3B 8817  22.363  12.760   7.950
 3727POPC   C4B 8818  22.336  12.724   7.650
 3728POPC   NC3 8819  33.030  38.476   9.450
 3728POPC   PO4 8820  33.027  38.494   9.150
 3728POPC   GL1 8821  33.047  38.417   8.850
 3728POPC   GL2 8822  33.108  38.413   8.850
 3728POPC   C1A 8823  33.000  38.441   8.550
 3728POPC   D2A 8824  32.982  38.471   8.250
 3728POPC   C3A 8825  33.046  38.414   7.950
 3728POPC   C4A 8826  33.017  38.470   7.650
 3728POPC   C1B 8827  33.261  38.290   8.550
 3728POPC   C2B 8828  33.259  38.337   8.250
 3728POPC   C3B 8829  33.232  38.327   7.950
 3728POPC   C4B 8830  33.230  38.295   7.650
 3729POPC   NC3 8831  34.559  22.970   9.450
 3729POPC   PO4 8832  34.580  22.913   9.150
 3729POPC   GL1 8833  34.553  22.930   8.850
 3729POPC   GL2 8834  34.595  23.055   8.850
 3729POPC   C1A 8835  34.562  22.963   8.550
 3729POPC   D2A 8836  34.546  22.890   8.250
 3729POPC   C3A 8837  34.564  22.932   7.950
 3729POPC   C4A 8838  34.584  22.981   7.650
 3729POPC   C1B 8839  34.626  23.202   8.550
 3729POPC   C2B 8840  34.662  23.164   8.250
 3729POPC   C3B 8841  34.652  23.197   7.950
 3729POPC   C4B 8842  34.642  23.196   7.650
 3730POPC   NC3 8843  43.128   3.499   9.450
 3730POPC   PO4 8844  43.100   3.493   9.150
 3730POPC   GL1 8845  43.134   3.523   8.850
 3730POPC   GL2 8846  43.005   3.589   8.850
 3730POPC   C1A 8847  43.101   3.505   8.550
 3730POPC   D2A 8848  43.077   3.515   8.250
 3730POPC   C3A 8849  43.117   3.588   7.950
 3730POPC   C4A 8850  43.114   3.563   7.650
 3730POPC   C1B 8851  42.869   3.660   8.550
 3730POPC   C2B 8852  42.876   3.743   8.250
 3730POPC   C3B 8853  42.933   3.677   7.950
 3730POPC   C4B 8854  42.956   3.695   7.650
 3731POPC   NC3 8855   8.187  40.028   9.450
 3731POPC   PO4 8856   8.178  39.987   9.150
 3731POPC   GL1 8857   8.177  39.973   8.850
 3731POPC   GL2 8858   8.319  40.090   8.850
 3731POPC   C1A 8859   8.232  39.995   8.550
 3731POPC   D2A 8860   8.238  39.982   8.250
 3731POPC   C3A 8861   8.174  40.049   7.950
 3731POPC   C4A 8862   8.236  39.962   7.650
 3731POPC   C1B 8863   8.453  40.141   8.550
 3731POPC   C2B 8864   8.381  40.169   8.250
 3731POPC   C3B 8865   8.447  40.115   7.950
 3731POPC   C4B 8866   8.391  40.114   7.650
 3732POPC   NC3 8867  39.990  44.671   9.450
 3732POPC   PO4 8868  40.043  44.712   9.150
 3732POPC   GL1 8869  39.991  44.628   8.850
 3732POPC   GL2 8870  39.837  44.689   8.850
 3732POPC   C1A 8871  39.994  44.688   8.550
 3732POPC   D2A 8872  39.991  44.711   8.250
 3732POPC   C3A 8873  40.035  44.626   7.950
 3732POPC   C4A 8874  39.958  44.697   7.650
 3732POPC   C1B 8875  39.796  44.623   8.550
 3732POPC   C2B 8876  39.736  44.582   8.250
 3732POPC   C3B 8877  39.730  44.608   7.950
 3732POPC   C4B 8878  39.784  44.679   7.650
 3733POPC   NC3 8879   2.720  43.086   9.450
 3733POPC   PO4 8880   2.773  43.128   9.150
 3733POPC   GL1 8881   2.726  43.147   8.850
 3733POPC   GL2 8882   2.724  42.992   8.850
 3733POPC   C1A 8883   2.766  43.156   8.550
 3733POPC   D2A 8884   2.780  43.138   8.250
 3733POPC   C3A 8885   2.780  43.154   7.950
 3733POPC   C4A 8886   2.729  43.110   7.650
 3733POPC   C1B 8887   2.721  42.848   8.550
 3733POPC   C2B 8888   2.736  42.879   8.250
 3733POPC   C3B 8889   2.694  42.882   7.950
 3733POPC   C4B 8890   2.680  42.877   7.650
 3734POPC   NC3 8891  40.783  40.022   9.450
 3734POPC   PO4 8892  40.802  40.011   9.150
 3734POPC   GL1 8893  40.754  40.017   8.850
 3734POPC   GL2 8894  40.832  39.876   8.850
 3734POPC   C1A 8895  40.758  40.017   8.550
 3734POPC   D2A 8896  40.761  40.054   8.250
 3734POPC   C3A 8897  40.798  40.013   7.950
 3734POPC   C4A 8898  40.743  40.001   7.650
 3734POPC   C1B 8899  40.775  39.795   8.550
 3734POPC   C2B 8900  40.789  39.797   8.250
 3734POPC   C3B 8901  40.778  39.756   7.950
 3734POPC   C4B 8902  40.784  39.760   7.650
 3735POPC   NC3 8903  22.971   8.150   9.450
 3735POPC   PO4 8904  22.916   8.165   9.150
 3735POPC   GL1 8905  22.909   8.247   8.850
 3735POPC   GL2 8906  23.087   8.237   8.850
 3735POPC   C1A 8907  22.942   8.183   8.550
 3735POPC   D2A 8908  22.930   8.193   8.250
 3735POPC   C3A 8909  22.945   8.206   7.950
 3735POPC   C4A 8910  22.891   8.174   7.650
 3735POPC   C1B 8911  23.138   8.298   8.550
 3735POPC   C2B 8912  23.169   8.310   8.250
 3735POPC   C3B 8913  23.197   8.325   7.950
 3735POPC   C4B 8914  23.129   8.334   7.650
 3736POPC   NC3 8915   8.941  44.649   9.450
 3736POPC   PO4 8916   8.957  44.670   9.150
 3736POPC   GL1 8917   9.010  44.638   8.850
 3736POPC   GL2 8918   8.889  44.594   8.850
 3736POPC   C1A 8919   8.952  44.636   8.550
 3736POPC   D2A 8920   9.011  44.701   8.250
 3736POPC   C3A 8921   9.008  44.699   7.950
 3736POPC   C4A 8922   9.012  44.648   7.650
 3736POPC   C1B 8923   8.871  44.478   8.550
 3736POPC   C2B 8924   8.891  44.466   8.250
 3736POPC   C3B 8925   8.859  44.426   7.950
 3736POPC   C4B 8926   8.862  44.448   7.650
 3737POPC   NC3 8927  40.054  35.399   9.450
 3737POPC   PO4 8928  40.051  35.330   9.150
 3737POPC   GL1 8929  39.987  35.383   8.850
 3737POPC   GL2 8930  39.970  35.201   8.850
 3737POPC   C1A 8931  40.045  35.392   8.550
 3737POPC   D2A 8932  39.960  35.319   8.250
 3737POPC   C3A 8933  39.993  35.361   7.950
 3737POPC   C4A 8934  39.991  35.347   7.650
 3737POPC   C1B 8935  39.851  35.100   8.550
 3737POPC   C2B 8936  39.901  35.162   8.250
 3737POPC   C3B 8937  39.879  35.138   7.950
 3737POPC   C4B 8938  39.925  35.144   7.650
 3738POPC   NC3 8939  32.229  25.235   9.450
 3738POPC   PO4 8940  32.214  25.250   9.150
 3738POPC   GL1 8941  32.281  25.269   8.850
 3738POPC   GL2 8942  32.140  25.359   8.850
 3738POPC   C1A 8943  32.295  25.224   8.550
 3738POPC   D2A 8944  32.206  25.305   8.250
 3738POPC   C3A 8945  32.208  25.255   7.950
 3738POPC   C4A 8946  32.259  25.284   7.650
 3738POPC   C1B 8947  32.057  25.407   8.550
 3738POPC   C2B 8948  32.112  25.416   8.250
 3738POPC   C3B 8949  32.039  25.428   7.950
 3738POPC   C4B 8950  32.093  25.472   7.650
 3739POPC   NC3 8951  19.043  12.807   9.450
 3739POPC   PO4 8952  19.030  12.862   9.150
 3739POPC   GL1 8953  19.031  12.823   8.850
 3739POPC   GL2 8954  18.923  12.859   8.850
 3739POPC   C1A 8955  19.021  12.875   8.550
 3739POPC   D2A 8956  19.093  12.828   8.250
 3739POPC   C3A 8957  19.016  12.891   7.950
 3739POPC   C4A 8958  19.102  12.811   7.650
 3739POPC   C1B 8959  18.815  12.796   8.550
 3739POPC   C2B 8960  18.772  12.733   8.250
 3739POPC   C3B 8961  18.865  12.789   7.950
 3739POPC   C4B 8962  18.773  12.752   7.650
 3740POPC   NC3 8963   1.195  27.629   9.450
 3740POPC   PO4 8964   1.193  27.562   9.150
 3740POPC   GL1 8965   1.186  27.581   8.850
 3740POPC   GL2 8966   1.132  27.543   8.850
 3740POPC   C1A 8967   1.260  27.578   8.550
 3740POPC   D2A 8968   1.202  27.590   8.250
 3740POPC   C3A 8969   1.237  27.558   7.950
 3740POPC   C4A 8970   1.206  27.623   7.650
 3740POPC   C1B 8971   0.966  27.544   8.550
 3740POPC   C2B 8972   0.958  27.556   8.250
 3740POPC   C3B 8973   0.936  27.512   7.950
 3740POPC   C4B 8974   0.948  27.479   7.650
 3741POPC   NC3 8975  40.774   7.445   9.450
 3741POPC   PO4 8976  40.799   7.436   9.150
 3741POPC   GL1 8977  40.765   7.464   8.850
 3741POPC   GL2 8978  40.781   7.255   8.850
 3741POPC   C1A 8979  40.829   7.394   8.550
 3741POPC   D2A 8980  40.778   7.461   8.250
 3741POPC   C3A 8981  40.790   7.377   7.950
 3741POPC   C4A 8982  40.792   7.447   7.650
 3741POPC   C1B 8983  40.816   7.148   8.550
 3741POPC   C2B 8984  40.813   7.169   8.250
 3741POPC   C3B 8985  40.861   7.152   7.950
 3741POPC   C4B 8986  40.864   7.211   7.650
 3742POPC   NC3 8987  10.533  28.368   9.450
 3742POPC   PO4 8988  10.480  28.376   9.150
 3742POPC   GL1 8989  10.502  28.367   8.850
 3742POPC   GL2 8990  10.615  28.401   8.850
 3742POPC   C1A 8991  10.517  28.391   8.550
 3742POPC   D2A 8992  10.498  28.367   8.250
 3742POPC   C3A 8993  10.533  28.376   7.950
 3742POPC   C4A 8994  10.503  28.321   7.650
 3742POPC   C1B 8995  10.735  28.418   8.550
 3742POPC   C2B 8996  10.790  28.401   8.250
 3742POPC   C3B 8997  10.781  28.483   7.950
 3742POPC   C4B 8998  10.806  28.425   7.650
 3743POPC   NC3 8999  11.309  11.304   9.450
 3743POPC   PO4 9000  11.326  11.311   9.150
 3743POPC   GL1 9001  11.316  11.318   8.850
 3743POPC   GL2 9002  11.267  11.421   8.850
 3743POPC   C1A 9003  11.260  11.322   8.550
 3743POPC   D2A 9004  11.326  11.260   8.250
 3743POPC   C3A 9005  11.326  11.269   7.950
 3743POPC   C4A 9006  11.288  11.276   7.650
 3743POPC   C1B 9007  11.176  11.551   8.550
 3743POPC   C2B 9008  11.176  11.499   8.250
 3743POPC   C3B 9009  11.254  11.530   7.950
 3743POPC   C4B 9010  11.239  11.540   7.650
 3744POPC   NC3 9011  12.857  16.764   9.450
 3744POPC   PO4 9012  12.816  16.737   9.150
 3744POPC   GL1 9013  12.802  16.750   8.850
 3744POPC   GL2 9014  12.845  16.577   8.850
 3744POPC   C1A 9015  12.896  16.718   8.550
 3744POPC   D2A 9016  12.815  16.779   8.250
 3744POPC   C3A 9017  12.825  16.711   7.950
 3744POPC   C4A 9018  12.804  16.690   7.650
 3744POPC   C1B 9019  12.955  16.456   8.550
 3744POPC   C2B 9020  12.908  16.510   8.250
 3744POPC   C3B 9021  12.967  16.490   7.950
 3744POPC   C4B 9022  12.969  16.527   7.650
 3745POPC   NC3 9023  34.531  28.345   9.450
 3745POPC   PO4 9024  34.569  28.379   9.150
 3745POPC   GL1 9025  34.624  28.327   8.850
 3745POPC   GL2 9026  34.733  28.401   8.850
 3745POPC   C1A 9027  34.551  28.350   8.550
 3745POPC   D2A 9028  34.541  28.337   8.250
 3745POPC   C3A 9029  34.583  28.400   7.950
 3745POPC   C4A 9030  34.539  28.343   7.650
 3745POPC   C1B 9031  34.790  28.536   8.550
 3745POPC   C2B 9032  34.804  28.479   8.250
 3745POPC   C3B 9033  34.783  28.481   7.950
 3745POPC   C4B 9034  34.808  28.539   7.650
 3746POPC   NC3 9035   1.166  29.952   9.450
 3746POPC   PO4 9036   1.192  29.936   9.150
 3746POPC   GL1 9037   1.189  29.897   8.850
 3746POPC   GL2 9038   1.079  29.954   8.850
 3746POPC   C1A 9039   1.185  29.942   8.550
 3746POPC   D2A 9040   1.238  29.929   8.250
 3746POPC   C3A 9041   1.225  29.968   7.950
 3746POPC   C4A 9042   1.190  29.938   7.650
 3746POPC   C1B 9043   0.994  29.993   8.550
 3746POPC   C2B 9044   0.943  29.989   8.250
 3746POPC   C3B 9045   0.945  30.025   7.950
 3746POPC   C4B 9046   0.958  30.051   7.650
 3747POPC   NC3 9047  39.992  36.140   9.450
 3747POPC   PO4 9048  40.020  36.134   9.150
 3747POPC   GL1 9049  40.018  36.125   8.850
 3747POPC   GL2 9050  39.936  36.228   8.850
 3747POPC   C1A 9051  39.993  36.130   8.550
 3747POPC   D2A 9052  40.001  36.134   8.250
 3747POPC   C3A 9053  40.003  36.094   7.950
 3747POPC   C4A 9054  40.011  36.177   7.650
 3747POPC   C1B 9055  39.815  36.323   8.550
 3747POPC   C2B 9056  39.822  36.284   8.250
 3747POPC   C3B 9057  39.867  36.345   7.950
 3747POPC   C4B 9058  39.832  36.262   7.650
 3748POPC   NC3 9059  27.543  30.679   9.450
 3748POPC   PO4 9060  27.597  30.656   9.150
 3748POPC   GL1 9061  27.549  30.686   8.850
 3748POPC   GL2 9062  27.762  30.634   8.850
 3748POPC   C1A 9063  27.625  30.736   8.550
 3748POPC   D2A 9064  27.620  30.686   8.250
 3748POPC   C3A 9065  27.544  30.725   7.950
 3748POPC   C4A 9066  27.638  30.694   7.650
 3748POPC   C1B 9067  27.812  30.716   8.550
 3748POPC   C2B 9068  27.888  30.680   8.250
 3748POPC   C3B 9069  27.865  30.662   7.950
 3748POPC   C4B 9070  27.887  30.699   7.650
 3749POPC   NC3 9071  24.497  12.828   9.450
 3749POPC   PO4 9072  24.528  12.818   9.150
 3749POPC   GL1 9073  24.490  12.851   8.850
 3749POPC   GL2 9074  24.557  12.804   8.850
 3749POPC   C1A 9075  24.516  12.897   8.550
 3749POPC   D2A 9076  24.534  12.877   8.250
 3749POPC   C3A 9077  24.494  12.866   7.950
 3749POPC   C4A 9078  24.511  12.838   7.650
 3749POPC   C1B 9079  24.735  12.721   8.550
 3749POPC   C2B 9080  24.725  12.731   8.250
 3749POPC   C3B 9081  24.701  12.738   7.950
 3749POPC   C4B 9082  24.673  12.699   7.650
 3750POPC   NC3 9083  19.063  39.986   9.450
 3750POPC   PO4 9084  19.058  40.040   9.150
 3750POPC   GL1 9085  19.039  39.976   8.850
 3750POPC   GL2 9086  19.043  39.922   8.850
 3750POPC   C1A 9087  19.047  40.042   8.550
 3750POPC   D2A 9088  19.032  39.994   8.250
 3750POPC   C3A 9089  19.051  40.007   7.950
 3750POPC   C4A 9090  19.012  39.966   7.650
 3750POPC   C1B 9091  19.086  39.797   8.550
 3750POPC   C2B 9092  19.129  39.807   8.250
 3750POPC   C3B 9093  19.133  39.733   7.950
 3750POPC   C4B 9094  19.044  39.770   7.650
 3751POPC   NC3 9095  29.924  36.113   9.450
 3751POPC   PO4 9096  29.907  36.132   9.150
 3751POPC   GL1 9097  29.948  36.093   8.850
 3751POPC   GL2 9098  29.761  36.080   8.850
 3751POPC   C1A 9099  29.921  36.094   8.550
 3751POPC   D2A 9100  29.883  36.137   8.250
 3751POPC   C3A 9101  29.956  36.097   7.950
 3751POPC   C4A 9102  29.941  36.123   7.650
 3751POPC   C1B 9103  29.653  36.073   8.550
 3751POPC   C2B 9104  29.699  36.052   8.250
 3751POPC   C3B 9105  29.685  36.057   7.950
 3751POPC   C4B 9106  29.663  36.103   7.650
 3752POPC   NC3 9107  23.706  43.108   9.450
 3752POPC   PO4 9108  23.711  43.082   9.150
 3752POPC   GL1 9109  23.714  43.143   8.850
 3752POPC   GL2 9110  23.629  42.953   8.850
 3752POPC   C1A 9111  23.700  43.107   8.550
 3752POPC   D2A 9112  23.761  43.134   8.250
 3752POPC   C3A 9113  23.705  43.085   7.950
 3752POPC   C4A 9114  23.727  43.063   7.650
 3752POPC   C1B 9115  23.670  42.891   8.550
 3752POPC   C2B 9116  23.623  42.856   8.250
 3752POPC   C3B 9117  23.625  42.915   7.950
 3752POPC   C4B 9118  23.649  42.856   7.650
 3753POPC   NC3 9119  40.028   2.753   9.450
 3753POPC   PO4 9120  39.975   2.809   9.150
 3753POPC   GL1 9121  39.999   2.743   8.850
 3753POPC   GL2 9122  39.953   2.657   8.850
 3753POPC   C1A 9123  39.957   2.788   8.550
 3753POPC   D2A 9124  40.007   2.774   8.250
 3753POPC   C3A 9125  39.963   2.722   7.950
 3753POPC   C4A 9126  40.031   2.756   7.650
 3753POPC   C1B 9127  39.937   2.498   8.550
 3753POPC   C2B 9128  39.879   2.552   8.250
 3753POPC   C3B 9129  39.895   2.512   7.950
 3753POPC   C4B 9130  39.936   2.549   7.650
 3754POPC   NC3 9131  26.864   8.977   9.450
 3754POPC   PO4 9132  26.839   8.978   9.150
 3754POPC   GL1 9133  26.791   8.938   8.850
 3754POPC   GL2 9134  26.865   9.091   8.850
 3754POPC   C1A 9135  26.822   8.993   8.550
 3754POPC   D2A 9136  26.852   8.946   8.250
 3754POPC   C3A 9137  26.800   9.003   7.950
 3754POPC   C4A 9138  26.810   8.955   7.650
 3754POPC   C1B 9139  26.787   9.185   8.550
 3754POPC   C2B 9140  26.818   9.197   8.250
 3754POPC   C3B 9141  26.840   9.212   7.950
 3754POPC   C4B 9142  26.850   9.179   7.650
 3755POPC   NC3 9143  17.538  19.039   9.450
 3755POPC   PO4 9144  17.555  19.034   9.150
 3755POPC   GL1 9145  17.471  19.018   8.850
 3755POPC   GL2 9146  17.382  19.047   8.850
 3755POPC   C1A 9147  17.478  19.075   8.550
 3755POPC   D2A 9148  17.532  19.010   8.250
 3755POPC   C3A 9149  17.523  19.037   7.950
 3755POPC   C4A 9150  17.552  19.014   7.650
 3755POPC   C1B 9151  17.303  19.069   8.550
 3755POPC   C2B 9152  17.305  19.053   8.250
 3755POPC   C3B 9153  17.245  19.056   7.950
 3755POPC   C4B 9154  17.236  19.100   7.650
 3756POPC   NC3 9155   8.199  15.229   9.450
 3756POPC   PO4 9156   8.156  15.149   9.150
 3756POPC   GL1 9157   8.191  15.154   8.850
 3756POPC   GL2 9158   8.112  15.123   8.850
 3756POPC   C1A 9159   8.172  15.219   8.550
 3756POPC   D2A 9160   8.153  15.211   8.250
 3756POPC   C3A 9161   8.165  15.154   7.950
 3756POPC   C4A 9162   8.230  15.183   7.650
 3756POPC   C1B 9163   7.941  15.197   8.550
 3756POPC   C2B 9164   7.920  15.130   8.250
 3756POPC   C3B 9165   7.905  15.201   7.950
 3756POPC   C4B 9166   7.973  15.134   7.650
 3757POPC   NC3 9167  21.345  27.601   9.450
 3757POPC   PO4 9168  21.406  27.576   9.150
 3757POPC   GL1 9169  21.356  27.557   8.850
 3757POPC   GL2 9170  21.243  27.536   8.850
 3757POPC   C1A 9171  21.360  27.626   8.550
 3757POPC   D2A 9172  21.384  27.591   8.250
 3757POPC   C3A 9173  21.405  27.581   7.950
 3757POPC   C4A 9174  21.354  27.604   7.650
 3757POPC   C1B 9175  21.157  27.600   8.550
 3757POPC   C2B 9176  21.145  27.601   8.250
 3757POPC   C3B 9177  21.161  27.600   7.950
 3757POPC   C4B 9178  21.121  27.557   7.650
 3758POPC   NC3 9179  35.325  13.619   9.450
 3758POPC   PO4 9180  35.318  13.676   9.150
 3758POPC   GL1 9181  35.356  13.595   8.850
 3758POPC   GL2 9182  35.387  13.700   8.850
 3758POPC   C1A 9183  35.310  13.603   8.550
 3758POPC   D2A 9184  35.384  13.620   8.250
 3758POPC   C3A 9185  35.323  13.583   7.950
 3758POPC   C4A 9186  35.312  13.597   7.650
 3758POPC   C1B 9187  35.396  13.902   8.550
 3758POPC   C2B 9188  35.400  13.861   8.250
 3758POPC   C3B 9189  35.413  13.884   7.950
 3758POPC   C4B 9190  35.386  13.837   7.650
 3759POPC   NC3 9191   9.003  35.362   9.450
 3759POPC   PO4 9192   8.937  35.400   9.150
 3759POPC   GL1 9193   8.997  35.336   8.850
 3759POPC   GL2 9194   8.861  35.368   8.850
 3759POPC   C1A 9195   8.929  35.385   8.550
 3759POPC   D2A 9196   9.004  35.322   8.250
 3759POPC   C3A 9197   8.925  35.384   7.950
 3759POPC   C4A 9198   8.952  35.310   7.650
 3759POPC   C1B 9199   8.739  35.446   8.550
 3759POPC   C2B 9200   8.748  35.491   8.250
 3759POPC   C3B 9201   8.718  35.496   7.950
 3759POPC   C4B 9202   8.759  35.486   7.650
 3760POPC   NC3 9203   4.335  43.087   9.450
 3760POPC   PO4 9204   4.339  43.106   9.150
 3760POPC   GL1 9205   4.312  43.101   8.850
 3760POPC   GL2 9206   4.344  42.945   8.850
 3760POPC   C1A 9207   4.300  43.134   8.550
 3760POPC   D2A 9208   4.325  43.108   8.250
 3760POPC   C3A 9209   4.340  43.073   7.950
 3760POPC   C4A 9210   4.344  43.072   7.650
 3760POPC   C1B 9211   4.294  42.820   8.550
 3760POPC   C2B 9212   4.337  42.849   8.250
 3760POPC   C3B 9213   4.331  42.870   7.950
 3760POPC   C4B 9214   4.240  42.844   7.650
 3761POPC   NC3 9215  16.746  15.224   9.450
 3761POPC   PO4 9216  16.763  15.141   9.150
 3761POPC   GL1 9217  16.758  15.182   8.850
 3761POPC   GL2 9218  16.676  15.072   8.850
 3761POPC   C1A 9219  16.759  15.180   8.550
 3761POPC   D2A 9220  16.694  15.186   8.250
 3761POPC   C3A 9221  16.702  15.208   7.950
 3761POPC   C4A 9222  16.747  15.138   7.650
 3761POPC   C1B 9223  16.692  14.962   8.550
 3761POPC   C2B 9224  16.701  14.942   8.250
 3761POPC   C3B 9225  16.655  14.968   7.950
 3761POPC   C4B 9226  16.675  14.954   7.650
 3762POPC   NC3 9227  42.319  16.681   9.450
 3762POPC   PO4 9228  42.349  16.688   9.150
 3762POPC   GL1 9229  42.287  16.689   8.850
 3762POPC   GL2 9230  42.259  16.755   8.850
 3762POPC   C1A 9231  42.383  16.716   8.550
 3762POPC   D2A 9232  42.356  16.714   8.250
 3762POPC   C3A 9233  42.288  16.698   7.950
 3762POPC   C4A 9234  42.288  16.699   7.650
 3762POPC   C1B 9235  42.059  16.743   8.550
 3762POPC   C2B 9236  42.040  16.755   8.250
 3762POPC   C3B 9237  42.100  16.732   7.950
 3762POPC   C4B 9238  42.062  16.703   7.650
 3763POPC   NC3 9239   1.962  35.366   9.450
 3763POPC   PO4 9240   2.005  35.337   9.150
 3763POPC   GL1 9241   1.943  35.342   8.850
 3763POPC   GL2 9242   1.881  35.255   8.850
 3763POPC   C1A 9243   1.971  35.360   8.550
 3763POPC   D2A 9244   2.010  35.337   8.250
 3763POPC   C3A 9245   1.976  35.394   7.950
 3763POPC   C4A 9246   2.028  35.399   7.650
 3763POPC   C1B 9247   1.785  35.175   8.550
 3763POPC   C2B 9248   1.766  35.149   8.250
 3763POPC   C3B 9249   1.836  35.147   7.950
 3763POPC   C4B 9250   1.807  35.206   7.650
 3764POPC   NC3 9251  10.571  17.529   9.450
 3764POPC   PO4 9252  10.502  17.533   9.150
 3764POPC   GL1 9253  10.480  17.556   8.850
 3764POPC   GL2 9254  10.497  17.567   8.850
 3764POPC   C1A 9255  10.557  17.537   8.550
 3764POPC   D2A 9256  10.569  17.518   8.250
 3764POPC   C3A 9257  10.479  17.465   7.950
 3764POPC   C4A 9258  10.529  17.458   7.650
 3764POPC   C1B 9259  10.397  17.736   8.550
 3764POPC   C2B 9260  10.359  17.681   8.250
 3764POPC   C3B 9261  10.366  17.722   7.950
 3764POPC   C4B 9262  10.414  17.710   7.650
 3765POPC   NC3 9263  43.129  21.369   9.450
 3765POPC   PO4 9264  43.142  21.352   9.150
 3765POPC   GL1 9265  43.084  21.434   8.850
 3765POPC   GL2 9266  43.184  21.239   8.850
 3765POPC   C1A 9267  43.063  21.360   8.550
 3765POPC   D2A 9268  43.062  21.387   8.250
 3765POPC   C3A 9269  43.142  21.398   7.950
 3765POPC   C4A 9270  43.071  21.389   7.650
 3765POPC   C1B 9271  43.172  21.119   8.550
 3765POPC   C2B 9272  43.205  21.194   8.250
 3765POPC   C3B 9273  43.253  21.167   7.950
 3765POPC   C4B 9274  43.241  21.162   7.650
 3766POPC   NC3 9275  15.919  16.703   9.450
 3766POPC   PO4 9276  15.972  16.756   9.150
 3766POPC   GL1 9277  15.968  16.740   8.850
 3766POPC   GL2 9278  15.811  16.702   8.850
 3766POPC   C1A 9279  15.919  16.760   8.550
 3766POPC   D2A 9280  15.965  16.747   8.250
 3766POPC   C3A 9281  15.971  16.686   7.950
 3766POPC   C4A 9282  15.916  16.696   7.650
 3766POPC   C1B 9283  15.738  16.623   8.550
 3766POPC   C2B 9284  15.766  16.700   8.250
 3766POPC   C3B 9285  15.692  16.670   7.950
 3766POPC   C4B 9286  15.705  16.611   7.650
 3767POPC   NC3 9287  29.135  41.592   9.450
 3767POPC   PO4 9288  29.177  41.591   9.150
 3767POPC   GL1 9289  29.182  41.608   8.850
 3767POPC   GL2 9290  28.975  41.526   8.850
 3767POPC   C1A 9291  29.146  41.511   8.550
 3767POPC   D2A 9292  29.123  41.560   8.250
 3767POPC   C3A 9293  29.128  41.534   7.950
 3767POPC   C4A 9294  29.194  41.575   7.650
 3767POPC   C1B 9295  28.894  41.555   8.550
 3767POPC   C2B 9296  28.867  41.496   8.250
 3767POPC   C3B 9297  28.892  41.522   7.950
 3767POPC   C4B 9298  28.940  41.546   7.650
 3768POPC   NC3 9299  19.841  19.102   9.450
 3768POPC   PO4 9300  19.858  19.097   9.150
 3768POPC   GL1 9301  19.850  19.065   8.850
 3768POPC   GL2 9302  19.723  19.131   8.850
 3768POPC   C1A 9303  19.853  19.037   8.550
 3768POPC   D2A 9304  19.860  19.096   8.250
 3768POPC   C3A 9305  19.824  19.068   7.950
 3768POPC   C4A 9306  19.803  19.058   7.650
 3768POPC   C1B 9307  19.610  19.189   8.550
 3768POPC   C2B 9308  19.584  19.181   8.250
 3768POPC   C3B 9309  19.601  19.197   7.950
 3768POPC   C4B 9310  19.599  19.175   7.650
 3769POPC   NC3 9311   0.415  25.998   9.450
 3769POPC   PO4 9312   0.420  26.029   9.150
 3769POPC   GL1 9313   0.463  26.018   8.850
 3769POPC   GL2 9314   0.363  25.953   8.850
 3769POPC   C1A 9315   0.450  26.052   8.550
 3769POPC   D2A 9316   0.396  26.003   8.250
 3769POPC   C3A 9317   0.429  26.062   7.950
 3769POPC   C4A 9318   0.454  26.017   7.650
 3769POPC   C1B 9319   0.335  25.810   8.550
 3769POPC   C2B 9320   0.345  25.838   8.250
 3769POPC   C3B 9321   0.360  25.796   7.950
 3769POPC   C4B 9322   0.329  25.831   7.650
 3770POPC   NC3 9323  13.640  39.202   9.450
 3770POPC   PO4 9324  13.583  39.208   9.150
 3770POPC   GL1 9325  13.578  39.241   8.850
 3770POPC   GL2 9326  13.742  39.233   8.850
 3770POPC   C1A 9327  13.622  39.196   8.550
 3770POPC   D2A 9328  13.656  39.247   8.250
 3770POPC   C3A 9329  13.651  39.192   7.950
 3770POPC   C4A 9330  13.660  39.217   7.650
 3770POPC   C1B 9331  13.893  39.162   8.550
 3770POPC   C2B 9332  13.856  39.158   8.250
 3770POPC   C3B 9333  13.854  39.240   7.950
 3770POPC   C4B 9334  13.908  39.186   7.650
 3771POPC   NC3 9335  19.043   4.298   9.450
 3771POPC   PO4 9336  19.100   4.306   9.150
 3771POPC   GL1 9337  19.032   4.313   8.850
 3771POPC   GL2 9338  19.126   4.273   8.850
 3771POPC   C1A 9339  19.085   4.300   8.550
 3771POPC   D2A 9340  19.103   4.311   8.250
 3771POPC   C3A 9341  19.095   4.338   7.950
 3771POPC   C4A 9342  19.037   4.347   7.650
 3771POPC   C1B 9343  19.273   4.174   8.550
 3771POPC   C2B 9344  19.255   4.131   8.250
 3771POPC   C3B 9345  19.263   4.116   7.950
 3771POPC   C4B 9346  19.187   4.141   7.650
 3772POPC   NC3 9347  21.414  33.036   9.450
 3772POPC   PO4 9348  21.398  33.053   9.150
 3772POPC   GL1 9349  21.426  33.006   8.850
 3772POPC   GL2 9350  21.455  32.999   8.850
 3772POPC   C1A 9351  21.401  32.996   8.550
 3772POPC   D2A 9352  21.409  33.062   8.250
 3772POPC   C3A 9353  21.414  33.065   7.950
 3772POPC   C4A 9354  21.343  32.976   7.650
 3772POPC   C1B 9355  21.661  32.898   8.550
 3772POPC   C2B 9356  21.601  32.966   8.250
 3772POPC   C3B 9357  21.658  32.898   7.950
 3772POPC   C4B 9358  21.581  32.902   7.650
 3773POPC   NC3 9359  15.169  19.795   9.450
 3773POPC   PO4 9360  15.160  19.849   9.150
 3773POPC   GL1 9361  15.194  19.840   8.850
 3773POPC   GL2 9362  15.235  19.724   8.850
 3773POPC   C1A 9363  15.133  19.797   8.550
 3773POPC   D2A 9364  15.158  19.787   8.250
 3773POPC   C3A 9365  15.207  19.801   7.950
 3773POPC   C4A 9366  15.167  19.792   7.650
 3773POPC   C1B 9367  15.327  19.668   8.550
 3773POPC   C2B 9368  15.303  19.665   8.250
 3773POPC   C3B 9369  15.290  19.668   7.950
 3773POPC   C4B 9370  15.364  19.625   7.650
 3774POPC   NC3 9371  11.277  22.927   9.450
 3774POPC   PO4 9372  11.346  22.977   9.150
 3774POPC   GL1 9373  11.318  22.951   8.850
 3774POPC   GL2 9374  11.165  23.038   8.850
 3774POPC   C1A 9375  11.273  22.895   8.550
 3774POPC   D2A 9376  11.332  22.968   8.250
 3774POPC   C3A 9377  11.347  22.949   7.950
 3774POPC   C4A 9378  11.343  22.896   7.650
 3774POPC   C1B 9379  11.061  23.097   8.550
 3774POPC   C2B 9380  11.131  23.125   8.250
 3774POPC   C3B 9381  11.064  23.137   7.950
 3774POPC   C4B 9382  11.086  23.064   7.650
 3775POPC   NC3 9383   2.008  12.106   9.450
 3775POPC   PO4 9384   1.971  12.094   9.150
 3775POPC   GL1 9385   1.948  12.124   8.850
 3775POPC   GL2 9386   2.071  12.037   8.850
 3775POPC   C1A 9387   1.967  12.061   8.550
 3775POPC   D2A 9388   1.961  12.064   8.250
 3775POPC   C3A 9389   1.998  12.116   7.950
 3775POPC   C4A 9390   1.996  12.048   7.650
 3775POPC   C1B 9391   2.221  12.005   8.550
 3775POPC   C2B 9392   2.249  12.090   8.250
 3775POPC   C3B 9393   2.240  12.054   7.950
 3775POPC   C4B 9394   2.194  12.081   7.650
 3776POPC   NC3 9395  21.360  33.787   9.450
 3776POPC   PO4 9396  21.358  33.841   9.150
 3776POPC   GL1 9397  21.391  33.809   8.850
 3776POPC   GL2 9398  21.551  33.760   8.850
 3776POPC   C1A 9399  21.354  33.842   8.550
 3776POPC   D2A 9400  21.381  33.822   8.250
 3776POPC   C3A 9401  21.361  33.839   7.950
 3776POPC   C4A 9402  21.423  33.844   7.650
 3776POPC   C1B 9403  21.661  33.783   8.550
 3776POPC   C2B 9404  21.592  33.727   8.250
 3776POPC   C3B 9405  21.634  33.797   7.950
 3776POPC   C4B 9406  21.590  33.741   7.650
 3777POPC   NC3 9407  15.921  41.509   9.450
 3777POPC   PO4 9408  15.924  41.509   9.150
 3777POPC   GL1 9409  15.984  41.574   8.850
 3777POPC   GL2 9410  15.788  41.555   8.850
 3777POPC   C1A 9411  15.987  41.595   8.550
 3777POPC   D2A 9412  15.941  41.594   8.250
 3777POPC   C3A 9413  15.913  41.578   7.950
 3777POPC   C4A 9414  15.945  41.564   7.650
 3777POPC   C1B 9415  15.741  41.457   8.550
 3777POPC   C2B 9416  15.716  41.431   8.250
 3777POPC   C3B 9417  15.693  41.504   7.950
 3777POPC   C4B 9418  15.739  41.450   7.650
 3778POPC   NC3 9419  19.058  19.022   9.450
 3778POPC   PO4 9420  19.080  19.062   9.150
 3778POPC   GL1 9421  19.020  19.100   8.850
 3778POPC   GL2 9422  19.047  18.910   8.850
 3778POPC   C1A 9423  19.048  19.048   8.550
 3778POPC   D2A 9424  19.043  19.044   8.250
 3778POPC   C3A 9425  19.054  19.054   7.950
 3778POPC   C4A 9426  19.022  19.011   7.650
 3778POPC   C1B 9427  19.085  18.808   8.550
 3778POPC   C2B 9428  19.079  18.822   8.250
 3778POPC   C3B 9429  19.125  18.767   7.950
 3778POPC   C4B 9430  19.059  18.800   7.650
 3779POPC   NC3 9431  39.230  22.915   9.450
 3779POPC   PO4 9432  39.207  22.979   9.150
 3779POPC   GL1 9433  39.194  22.895   8.850
 3779POPC   GL2 9434  39.205  22.859   8.850
 3779POPC   C1A 9435  39.238  22.893   8.550
 3779POPC   D2A 9436  39.259  22.932   8.250
 3779POPC   C3A 9437  39.255  22.917   7.950
 3779POPC   C4A 9438  39.213  22.941   7.650
 3779POPC   C1B 9439  39.141  22.665   8.550
 3779POPC   C2B 9440  39.184  22.646   8.250
 3779POPC   C3B 9441  39.171  22.659   7.950
 3779POPC   C4B 9442  39.145  22.709   7.650
 3780POPC   NC3 9443  26.849  18.303   9.450
 3780POPC   PO4 9444  26.854  18.332   9.150
 3780POPC   GL1 9445  26.805  18.279   8.850
 3780POPC   GL2 9446  26.885  18.170   8.850
 3780POPC   C1A 9447  26.791  18.311   8.550
 3780POPC   D2A 9448  26.830  18.247   8.250
 3780POPC   C3A 9449  26.778  18.327   7.950
 3780POPC   C4A 9450  26.815  18.253   7.650
 3780POPC   C1B 9451  27.019  18.136   8.550
 3780POPC   C2B 9452  27.019  18.115   8.250
 3780POPC   C3B 9453  27.016  18.099   7.950
 3780POPC   C4B 9454  27.024  18.051   7.650
 3781POPC   NC3 9455  12.877  25.221   9.450
 3781POPC   PO4 9456  12.892  25.314   9.150
 3781POPC   GL1 9457  12.894  25.304   8.850
 3781POPC   GL2 9458  12.905  25.370   8.850
 3781POPC   C1A 9459  12.804  25.223   8.550
 3781POPC   D2A 9460  12.887  25.293   8.250
 3781POPC   C3A 9461  12.817  25.263   7.950
 3781POPC   C4A 9462  12.875  25.304   7.650
 3781POPC   C1B 9463  12.984  25.473   8.550
 3781POPC   C2B 9464  12.996  25.517   8.250
 3781POPC   C3B 9465  12.959  25.482   7.950
 3781POPC   C4B 9466  12.926  25.454   7.650
 3782POPC   NC3 9467  26.032  29.181   9.450
 3782POPC   PO4 9468  26.018  29.147   9.150
 3782POPC   GL1 9469  25.998  29.180   8.850
 3782POPC   GL2 9470  26.164  29.206   8.850
 3782POPC   C1A 9471  26.012  29.107   8.550
 3782POPC   D2A 9472  26.045  29.117   8.250
 3782POPC   C3A 9473  26.057  29.096   7.950
 3782POPC   C4A 9474  26.059  29.111   7.650
 3782POPC   C1B 9475  26.253  29.304   8.550
 3782POPC   C2B 9476  26.228  29.300   8.250
 3782POPC   C3B 9477  26.177  29.374   7.950
 3782POPC   C4B 9478  26.196  29.316   7.650
 3783POPC   NC3 9479  44.698  12.072   9.450
 3783POPC   PO4 9480  44.649  12.079   9.150
 3783POPC   GL1 9481  44.686  12.107   8.850
 3783POPC   GL2 9482  44.626  11.930   8.850
 3783POPC   C1A 9483  44.624  12.079   8.550
 3783POPC   D2A 9484  44.658  12.039   8.250
 3783POPC   C3A 9485  44.643  12.044   7.950
 3783POPC   C4A 9486  44.683  12.105   7.650
 3783POPC   C1B 9487  44.531  11.795   8.550
 3783POPC   C2B 9488  44.603  11.839   8.250
 3783POPC   C3B 9489  44.543  11.883   7.950
 3783POPC   C4B 9490  44.551  11.864   7.650
 3784POPC   NC3 9491   9.718  22.893   9.450
 3784POPC   PO4 9492   9.797  22.897   9.150
 3784POPC   GL1 9493   9.770  22.946   8.850
 3784POPC   GL2 9494   9.761  23.016   8.850
 3784POPC   C1A 9495   9.736  22.962   8.550
 3784POPC   D2A 9496   9.701  22.916   8.250
 3784POPC   C3A 9497   9.741  22.944   7.950
 3784POPC   C4A 9498   9.706  22.974   7.650
 3784POPC   C1B 9499   9.816  23.206   8.550
 3784POPC   C2B 9500   9.832  23.186   8.250
 3784POPC   C3B 9501   9.833  23.213   7.950
 3784POPC   C4B 9502   9.806  23.128   7.650
 3785POPC   NC3 9503   8.187  41.532   9.450
 3785POPC   PO4 9504   8.155  41.512   9.150
 3785POPC   GL1 9505   8.151  41.583   8.850
 3785POPC   GL2 9506   8.203  41.415   8.850
 3785POPC   C1A 9507   8.186  41.523   8.550
 3785POPC   D2A 9508   8.189  41.548   8.250
 3785POPC   C3A 9509   8.206  41.558   7.950
 3785POPC   C4A 9510   8.177  41.589   7.650
 3785POPC   C1B 9511   8.194  41.351   8.550
 3785POPC   C2B 9512   8.251  41.274   8.250
 3785POPC   C3B 9513   8.283  41.307   7.950
 3785POPC   C4B 9514   8.254  41.345   7.650
 3786POPC   NC3 9515  43.149   8.950   9.450
 3786POPC   PO4 9516  43.099   8.949   9.150
 3786POPC   GL1 9517  43.132   9.021   8.850
 3786POPC   GL2 9518  43.062   8.854   8.850
 3786POPC   C1A 9519  43.144   8.934   8.550
 3786POPC   D2A 9520  43.128   9.007   8.250
 3786POPC   C3A 9521  43.119   8.955   7.950
 3786POPC   C4A 9522  43.108   9.011   7.650
 3786POPC   C1B 9523  43.007   8.732   8.550
 3786POPC   C2B 9524  43.010   8.688   8.250
 3786POPC   C3B 9525  43.059   8.732   7.950
 3786POPC   C4B 9526  43.029   8.728   7.650
 3787POPC   NC3 9527   3.512  27.575   9.450
 3787POPC   PO4 9528   3.518  27.564   9.150
 3787POPC   GL1 9529   3.563  27.549   8.850
 3787POPC   GL2 9530   3.406  27.608   8.850
 3787POPC   C1A 9531   3.550  27.568   8.550
 3787POPC   D2A 9532   3.497  27.613   8.250
 3787POPC   C3A 9533   3.509  27.633   7.950
 3787POPC   C4A 9534   3.578  27.576   7.650
 3787POPC   C1B 9535   3.286  27.562   8.550
 3787POPC   C2B 9536   3.288  27.591   8.250
 3787POPC   C3B 9537   3.271  27.590   7.950
 3787POPC   C4B 9538   3.254  27.593   7.650
 3788POPC   NC3 9539  26.805  29.104   9.450
 3788POPC   PO4 9540  26.849  29.166   9.150
 3788POPC   GL1 9541  26.866  29.172   8.850
 3788POPC   GL2 9542  26.738  29.261   8.850
 3788POPC   C1A 9543  26.836  29.149   8.550
 3788POPC   D2A 9544  26.847  29.155   8.250
 3788POPC   C3A 9545  26.790  29.121   7.950
 3788POPC   C4A 9546  26.769  29.146   7.650
 3788POPC   C1B 9547  26.634  29.311   8.550
 3788POPC   C2B 9548  26.623  29.360   8.250
 3788POPC   C3B 9549  26.667  29.370   7.950
 3788POPC   C4B 9550  26.623  29.294   7.650
 3789POPC   NC3 9551  40.036   8.997   9.450
 3789POPC   PO4 9552  39.995   8.965   9.150
 3789POPC   GL1 9553  40.052   8.930   8.850
 3789POPC   GL2 9554  39.893   9.099   8.850
 3789POPC   C1A 9555  40.025   9.005   8.550
 3789POPC   D2A 9556  39.963   9.003   8.250
 3789POPC   C3A 9557  40.049   8.929   7.950
 3789POPC   C4A 9558  39.985   8.991   7.650
 3789POPC   C1B 9559  39.797   9.188   8.550
 3789POPC   C2B 9560  39.870   9.200   8.250
 3789POPC   C3B 9561  39.821   9.122   7.950
 3789POPC   C4B 9562  39.849   9.183   7.650
 3790POPC   NC3 9563  38.424   3.516   9.450
 3790POPC   PO4 9564  38.417   3.576   9.150
 3790POPC   GL1 9565  38.499   3.504   8.850
 3790POPC   GL2 9566  38.551   3.502   8.850
 3790POPC   C1A 9567  38.496   3.577   8.550
 3790POPC   D2A 9568  38.417   3.504   8.250
 3790POPC   C3A 9569  38.446   3.528   7.950
 3790POPC   C4A 9570  38.459   3.509   7.650
 3790POPC   C1B 9571  38.704   3.546   8.550
 3790POPC   C2B 9572  38.749   3.588   8.250
 3790POPC   C3B 9573  38.657   3.554   7.950
 3790POPC   C4B 9574  38.743   3.588   7.650
 3791POPC   NC3 9575  15.972  15.166   9.450
 3791POPC   PO4 9576  15.986  15.188   9.150
 3791POPC   GL1 9577  15.912  15.198   8.850
 3791POPC   GL2 9578  16.042  15.211   8.850
 3791POPC   C1A 9579  15.926  15.193   8.550
 3791POPC   D2A 9580  16.005  15.139   8.250
 3791POPC   C3A 9581  15.910  15.213   7.950
 3791POPC   C4A 9582  15.953  15.224   7.650
 3791POPC   C1B 9583  16.156  15.225   8.550
 3791POPC   C2B 9584  16.185  15.263   8.250
 3791POPC   C3B 9585  16.237  15.172   7.950
 3791POPC   C4B 9586  16.234  15.202   7.650
 3792POPC   NC3 9587  34.553  29.904   9.450
 3792POPC   PO4 9588  34.573  29.949   9.150
 3792POPC   GL1 9589  34.532  29.928   8.850
 3792POPC   GL2 9590  34.657  30.007   8.850
 3792POPC   C1A 9591  34.567  29.935   8.550
 3792POPC   D2A 9592  34.598  29.926   8.250
 3792POPC   C3A 9593  34.623  29.935   7.950
 3792POPC   C4A 9594  34.556  29.970   7.650
 3792POPC   C1B 9595  34.732  30.188   8.550
 3792POPC   C2B 9596  34.648  30.118   8.250
 3792POPC   C3B 9597  34.705  30.162   7.950
 3792POPC   C4B 9598  34.667  30.154   7.650
 3793POPC   NC3 9599  36.902  31.472   9.450
 3793POPC   PO4 9600  36.914  31.518   9.150
 3793POPC   GL1 9601  36.893  31.510   8.850
 3793POPC   GL2 9602  36.930  31.354   8.850
 3793POPC   C1A 9603  36.857  31.448   8.550
 3793POPC   D2A 9604  36.874  31.440   8.250
 3793POPC   C3A 9605  36.929  31.487   7.950
 3793POPC   C4A 9606  36.915  31.514   7.650
 3793POPC   C1B 9607  37.034  31.210   8.550
 3793POPC   C2B 9608  37.018  31.306   8.250
 3793POPC   C3B 9609  37.034  31.209   7.950
 3793POPC   C4B 9610  37.061  31.267   7.650
 3794POPC   NC3 9611  41.561  22.127   9.450
 3794POPC   PO4 9612  41.523  22.159   9.150
 3794POPC   GL1 9613  41.558  22.171   8.850
 3794POPC   GL2 9614  41.436  22.189   8.850
 3794POPC   C1A 9615  41.555  22.184   8.550
 3794POPC   D2A 9616  41.525  22.118   8.250
 3794POPC   C3A 9617  41.562  22.166   7.950
 3794POPC   C4A 9618  41.535  22.183   7.650
 3794POPC   C1B 9619  41.356  22.268   8.550
 3794POPC   C2B 9620  41.299  22.308   8.250
 3794POPC   C3B 9621  41.283  22.245   7.950
 3794POPC   C4B 9622  41.341  22.320   7.650
 3795POPC   NC3 9623  15.979  27.556   9.450
 3795POPC   PO4 9624  15.938  27.629   9.150
 3795POPC   GL1 9625  15.954  27.559   8.850
 3795POPC   GL2 9626  15.895  27.751   8.850
 3795POPC   C1A 9627  15.974  27.583   8.550
 3795POPC   D2A 9628  15.927  27.601   8.250
 3795POPC   C3A 9629  15.933  27.571   7.950
 3795POPC   C4A 9630  15.931  27.591   7.650
 3795POPC   C1B 9631  15.870  27.824   8.550
 3795POPC   C2B 9632  15.836  27.771   8.250
 3795POPC   C3B 9633  15.831  27.806   7.950
 3795POPC   C4B 9634  15.830  27.861   7.650
 3796POPC   NC3 9635  38.443  18.331   9.450
 3796POPC   PO4 9636  38.474  18.315   9.150
 3796POPC   GL1 9637  38.426  18.276   8.850
 3796POPC   GL2 9638  38.466  18.385   8.850
 3796POPC   C1A 9639  38.418  18.291   8.550
 3796POPC   D2A 9640  38.439  18.321   8.250
 3796POPC   C3A 9641  38.447  18.320   7.950
 3796POPC   C4A 9642  38.441  18.246   7.650
 3796POPC   C1B 9643  38.577  18.470   8.550
 3796POPC   C2B 9644  38.510  18.480   8.250
 3796POPC   C3B 9645  38.553  18.529   7.950
 3796POPC   C4B 9646  38.537  18.497   7.650
 3797POPC   NC3 9647  34.553  36.125   9.450
 3797POPC   PO4 9648  34.578  36.094   9.150
 3797POPC   GL1 9649  34.620  36.147   8.850
 3797POPC   GL2 9650  34.675  36.213   8.850
 3797POPC   C1A 9651  34.549  36.165   8.550
 3797POPC   D2A 9652  34.609  36.163   8.250
 3797POPC   C3A 9653  34.552  36.089   7.950
 3797POPC   C4A 9654  34.554  36.160   7.650
 3797POPC   C1B 9655  34.858  36.249   8.550
 3797POPC   C2B 9656  34.843  36.215   8.250
 3797POPC   C3B 9657  34.860  36.243   7.950
 3797POPC   C4B 9658  34.776  36.196   7.650
 3798POPC   NC3 9659  17.490  17.484   9.450
 3798POPC   PO4 9660  17.496  17.464   9.150
 3798POPC   GL1 9661  17.494  17.476   8.850
 3798POPC   GL2 9662  17.528  17.384   8.850
 3798POPC   C1A 9663  17.502  17.466   8.550
 3798POPC   D2A 9664  17.468  17.539   8.250
 3798POPC   C3A 9665  17.518  17.535   7.950
 3798POPC   C4A 9666  17.548  17.549   7.650
 3798POPC   C1B 9667  17.673  17.288   8.550
 3798POPC   C2B 9668  17.685  17.276   8.250
 3798POPC   C3B 9669  17.659  17.291   7.950
 3798POPC   C4B 9670  17.612  17.256   7.650
 3799POPC   NC3 9671   9.779  14.394   9.450
 3799POPC   PO4 9672   9.791  14.366   9.150
 3799POPC   GL1 9673   9.718  14.404   8.850
 3799POPC   GL2 9674   9.682  14.321   8.850
 3799POPC   C1A 9675   9.763  14.370   8.550
 3799POPC   D2A 9676   9.790  14.446   8.250
 3799POPC   C3A 9677   9.745  14.386   7.950
 3799POPC   C4A 9678   9.701  14.411   7.650
 3799POPC   C1B 9679   9.733  14.135   8.550
 3799POPC   C2B 9680   9.664  14.179   8.250
 3799POPC   C3B 9681   9.714  14.139   7.950
 3799POPC   C4B 9682   9.699  14.144   7.650
 3800POPC   NC3 9683   4.298   0.471   9.450
 3800POPC   PO4 9684   4.314   0.426   9.150
 3800POPC   GL1 9685   4.347   0.448   8.850
 3800POPC   GL2 9686   4.250   0.527   8.850
 3800POPC   C1A 9687   4.302   0.482   8.550
 3800POPC   D2A 9688   4.292   0.453   8.250
 3800POPC   C3A 9689   4.313   0.435   7.950
 3800POPC   C4A 9690   4.302   0.397   7.650
 3800POPC   C1B 9691   4.092   0.602   8.550
 3800POPC   C2B 9692   4.085   0.505   8.250
 3800POPC   C3B 9693   4.114   0.582   7.950
 3800POPC   C4B 9694   4.047   0.529   7.650
 3801POPC   NC3 9695  27.596  33.756   9.450
 3801POPC   PO4 9696  27.547  33.779   9.150
 3801POPC   GL1 9697  27.636  33.830   8.850
 3801POPC   GL2 9698  27.714  33.900   8.850
 3801POPC   C1A 9699  27.637  33.779   8.550
 3801POPC   D2A 9700  27.594  33.762   8.250
 3801POPC   C3A 9701  27.568  33.769   7.950
 3801POPC   C4A 9702  27.553  33.787   7.650
 3801POPC   C1B 9703  27.758  34.040   8.550
 3801POPC   C2B 9704  27.778  34.035   8.250
 3801POPC   C3B 9705  27.795  33.951   7.950
 3801POPC   C4B 9706  27.724  33.998   7.650
 3802POPC   NC3 9707  29.936   1.221   9.450
 3802POPC   PO4 9708  29.886   1.166   9.150
 3802POPC   GL1 9709  29.905   1.245   8.850
 3802POPC   GL2 9710  29.842   1.201   8.850
 3802POPC   C1A 9711  29.935   1.246   8.550
 3802POPC   D2A 9712  29.919   1.240   8.250
 3802POPC   C3A 9713  29.949   1.187   7.950
 3802POPC   C4A 9714  29.968   1.167   7.650
 3802POPC   C1B 9715  29.643   1.116   8.550
 3802POPC   C2B 9716  29.687   1.142   8.250
 3802POPC   C3B 9717  29.645   1.107   7.950
 3802POPC   C4B 9718  29.739   1.072   7.650
 3803POPC   NC3 9719  22.889  41.547   9.450
 3803POPC   PO4 9720  22.908  41.549   9.150
 3803POPC   GL1 9721  22.952  41.573   8.850
 3803POPC   GL2 9722  22.837  41.497   8.850
 3803POPC   C1A 9723  22.923  41.595   8.550
 3803POPC   D2A 9724  22.923  41.529   8.250
 3803POPC   C3A 9725  22.960  41.575   7.950
 3803POPC   C4A 9726  22.898  41.571   7.650
 3803POPC   C1B 9727  22.825  41.322   8.550
 3803POPC   C2B 9728  22.800  41.361   8.250
 3803POPC   C3B 9729  22.871  41.294   7.950
 3803POPC   C4B 9730  22.827  41.324   7.650
 3804POPC   NC3 9731  24.537  13.579   9.450
 3804POPC   PO4 9732  24.449  13.672   9.150
 3804POPC   GL1 9733  24.505  13.598   8.850
 3804POPC   GL2 9734  24.360  13.652   8.850
 3804POPC   C1A 9735  24.481  13.650   8.550
 3804POPC   D2A 9736  24.459  13.636   8.250
 3804POPC   C3A 9737  24.497  13.651   7.950
 3804POPC   C4A 9738  24.509  13.620   7.650
 3804POPC   C1B 9739  24.291  13.684   8.550
 3804POPC   C2B 9740  24.230  13.687   8.250
 3804POPC   C3B 9741  24.302  13.676   7.950
 3804POPC   C4B 9742  24.279  13.748   7.650
 3805POPC   NC3 9743   8.957  32.255   9.450
 3805POPC   PO4 9744   9.002  32.240   9.150
 3805POPC   GL1 9745   8.978  32.204   8.850
 3805POPC   GL2 9746   9.009  32.102   8.850
 3805POPC   C1A 9747   8.954  32.272   8.550
 3805POPC   D2A 9748   8.936  32.243   8.250
 3805POPC   C3A 9749   9.005  32.266   7.950
 3805POPC   C4A 9750   8.940  32.286   7.650
 3805POPC   C1B 9751   9.046  32.035   8.550
 3805POPC   C2B 9752   8.983  32.032   8.250
 3805POPC   C3B 9753   8.978  31.957   7.950
 3805POPC   C4B 9754   9.023  31.956   7.650
 3806POPC   NC3 9755  32.296  36.142   9.450
 3806POPC   PO4 9756  32.251  36.139   9.150
 3806POPC   GL1 9757  32.265  36.116   8.850
 3806POPC   GL2 9758  32.189  36.279   8.850
 3806POPC   C1A 9759  32.241  36.176   8.550
 3806POPC   D2A 9760  32.257  36.155   8.250
 3806POPC   C3A 9761  32.223  36.156   7.950
 3806POPC   C4A 9762  32.225  36.091   7.650
 3806POPC   C1B 9763  32.219  36.412   8.550
 3806POPC   C2B 9764  32.145  36.328   8.250
 3806POPC   C3B 9765  32.157  36.414   7.950
 3806POPC   C4B 9766  32.236  36.412   7.650
 3807POPC   NC3 9767  40.027   5.893   9.450
 3807POPC   PO4 9768  39.985   5.886   9.150
 3807POPC   GL1 9769  40.017   5.885   8.850
 3807POPC   GL2 9770  39.972   5.701   8.850
 3807POPC   C1A 9771  40.037   5.905   8.550
 3807POPC   D2A 9772  39.958   5.913   8.250
 3807POPC   C3A 9773  39.964   5.916   7.950
 3807POPC   C4A 9774  40.022   5.918   7.650
 3807POPC   C1B 9775  40.010   5.645   8.550
 3807POPC   C2B 9776  39.948   5.620   8.250
 3807POPC   C3B 9777  39.981   5.571   7.950
 3807POPC   C4B 9778  39.996   5.667   7.650
 3808POPC   NC3 9779  40.774  15.932   9.450
 3808POPC   PO4 9780  40.788  15.909   9.150
 3808POPC   GL1 9781  40.823  15.939   8.850
 3808POPC   GL2 9782  40.851  15.918   8.850
 3808POPC   C1A 9783  40.733  15.995   8.550
 3808POPC   D2A 9784  40.794  15.906   8.250
 3808POPC   C3A 9785  40.788  15.966   7.950
 3808POPC   C4A 9786  40.814  15.910   7.650
 3808POPC   C1B 9787  41.012  15.831   8.550
 3808POPC   C2B 9788  40.927  15.775   8.250
 3808POPC   C3B 9789  40.980  15.814   7.950
 3808POPC   C4B 9790  40.952  15.764   7.650
 3809POPC   NC3 9791  22.177   0.443   9.450
 3809POPC   PO4 9792  22.137   0.435   9.150
 3809POPC   GL1 9793  22.148   0.431   8.850
 3809POPC   GL2 9794  22.052   0.447   8.850
 3809POPC   C1A 9795  22.128   0.459   8.550
 3809POPC   D2A 9796  22.187   0.418   8.250
 3809POPC   C3A 9797  22.149   0.459   7.950
 3809POPC   C4A 9798  22.152   0.464   7.650
 3809POPC   C1B 9799  21.907   0.508   8.550
 3809POPC   C2B 9800  21.952   0.515   8.250
 3809POPC   C3B 9801  21.964   0.504   7.950
 3809POPC   C4B 9802  21.937   0.537   7.650
 3810POPC   NC3 9803  27.640  25.224   9.450
 3810POPC   PO4 9804  27.601  25.217   9.150
 3810POPC   GL1 9805  27.587  25.279   8.850
 3810POPC   GL2 9806  27.538  25.198   8.850
 3810POPC   C1A 9807  27.546  25.229   8.550
 3810POPC   D2A 9808  27.567  25.287   8.250
 3810POPC   C3A 9809  27.578  25.218   7.950
 3810POPC   C4A 9810  27.572  25.275   7.650
 3810POPC   C1B 9811  27.470  25.076   8.550
 3810POPC   C2B 9812  27.480  25.005   8.250
 3810POPC   C3B 9813  27.438  25.062   7.950
 3810POPC   C4B 9814  27.477  25.038   7.650
 3811POPC   NC3 9815  39.278  39.963   9.450
 3811POPC   PO4 9816  39.279  40.023   9.150
 3811POPC   GL1 9817  39.215  40.005   8.850
 3811POPC   GL2 9818  39.284  39.897   8.850
 3811POPC   C1A 9819  39.186  40.023   8.550
 3811POPC   D2A 9820  39.281  39.993   8.250
 3811POPC   C3A 9821  39.275  40.056   7.950
 3811POPC   C4A 9822  39.246  40.048   7.650
 3811POPC   C1B 9823  39.339  39.798   8.550
 3811POPC   C2B 9824  39.333  39.791   8.250
 3811POPC   C3B 9825  39.343  39.813   7.950
 3811POPC   C4B 9826  39.348  39.749   7.650
 3812POPC   NC3 9827  39.963  10.508   9.450
 3812POPC   PO4 9828  39.996  10.512   9.150
 3812POPC   GL1 9829  40.015  10.554   8.850
 3812POPC   GL2 9830  40.066  10.673   8.850
 3812POPC   C1A 9831  40.025  10.479   8.550
 3812POPC   D2A 9832  40.007  10.560   8.250
 3812POPC   C3A 9833  40.038  10.553   7.950
 3812POPC   C4A 9834  39.979  10.515   7.650
 3812POPC   C1B 9835  40.027  10.728   8.550
 3812POPC   C2B 9836  40.034  10.804   8.250
 3812POPC   C3B 9837  40.115  10.784   7.950
 3812POPC   C4B 9838  40.019  10.805   7.650
 3813POPC   NC3 9839  19.078  36.861   9.450
 3813POPC   PO4 9840  19.091  36.863   9.150
 3813POPC   GL1 9841  19.091  36.922   8.850
 3813POPC   GL2 9842  19.148  36.755   8.850
 3813POPC   C1A 9843  19.022  36.886   8.550
 3813POPC   D2A 9844  19.033  36.878   8.250
 3813POPC   C3A 9845  19.080  36.882   7.950
 3813POPC   C4A 9846  19.107  36.861   7.650
 3813POPC   C1B 9847  19.179  36.655   8.550
 3813POPC   C2B 9848  19.143  36.729   8.250
 3813POPC   C3B 9849  19.211  36.670   7.950
 3813POPC   C4B 9850  19.153  36.654   7.650
 3814POPC   NC3 9851  21.379  22.135   9.450
 3814POPC   PO4 9852  21.336  22.202   9.150
 3814POPC   GL1 9853  21.414  22.136   8.850
 3814POPC   GL2 9854  21.482  22.217   8.850
 3814POPC   C1A 9855  21.430  22.155   8.550
 3814POPC   D2A 9856  21.383  22.114   8.250
 3814POPC   C3A 9857  21.338  22.169   7.950
 3814POPC   C4A 9858  21.422  22.211   7.650
 3814POPC   C1B 9859  21.652  22.288   8.550
 3814POPC   C2B 9860  21.626  22.293   8.250
 3814POPC   C3B 9861  21.649  22.251   7.950
 3814POPC   C4B 9862  21.568  22.266   7.650
 3815POPC   NC3 9863  35.389  43.884   9.450
 3815POPC   PO4 9864  35.370  43.897   9.150
 3815POPC   GL1 9865  35.382  43.921   8.850
 3815POPC   GL2 9866  35.375  44.023   8.850
 3815POPC   C1A 9867  35.315  43.926   8.550
 3815POPC   D2A 9868  35.365  43.878   8.250
 3815POPC   C3A 9869  35.355  43.925   7.950
 3815POPC   C4A 9870  35.396  43.863   7.650
 3815POPC   C1B 9871  35.445  44.119   8.550
 3815POPC   C2B 9872  35.376  44.104   8.250
 3815POPC   C3B 9873  35.368  44.124   7.950
 3815POPC   C4B 9874  35.455  44.126   7.650
 3816POPC   NC3 9875   9.797  16.722   9.450
 3816POPC   PO4 9876   9.701  16.724   9.150
 3816POPC   GL1 9877   9.798  16.764   8.850
 3816POPC   GL2 9878   9.789  16.592   8.850
 3816POPC   C1A 9879   9.766  16.759   8.550
 3816POPC   D2A 9880   9.738  16.754   8.250
 3816POPC   C3A 9881   9.782  16.711   7.950
 3816POPC   C4A 9882   9.716  16.731   7.650
 3816POPC   C1B 9883   9.898  16.543   8.550
 3816POPC   C2B 9884   9.878  16.470   8.250
 3816POPC   C3B 9885   9.877  16.521   7.950
 3816POPC   C4B 9886   9.817  16.538   7.650
 3817POPC   NC3 9887  33.810   5.131   9.450
 3817POPC   PO4 9888  33.841   5.104   9.150
 3817POPC   GL1 9889  33.757   5.099   8.850
 3817POPC   GL2 9890  33.856   4.981   8.850
 3817POPC   C1A 9891  33.774   5.136   8.550
 3817POPC   D2A 9892  33.812   5.071   8.250
 3817POPC   C3A 9893  33.797   5.142   7.950
 3817POPC   C4A 9894  33.839   5.089   7.650
 3817POPC   C1B 9895  33.833   4.886   8.550
 3817POPC   C2B 9896  33.885   4.829   8.250
 3817POPC   C3B 9897  33.838   4.876   7.950
 3817POPC   C4B 9898  33.917   4.813   7.650
 3818POPC   NC3 9899  36.128  16.773   9.450
 3818POPC   PO4 9900  36.107  16.723   9.150
 3818POPC   GL1 9901  36.160  16.756   8.850
 3818POPC   GL2 9902  36.097  16.835   8.850
 3818POPC   C1A 9903  36.160  16.734   8.550
 3818POPC   D2A 9904  36.096  16.756   8.250
 3818POPC   C3A 9905  36.175  16.761   7.950
 3818POPC   C4A 9906  36.089  16.712   7.650
 3818POPC   C1B 9907  36.149  17.024   8.550
 3818POPC   C2B 9908  36.149  16.949   8.250
 3818POPC   C3B 9909  36.156  16.980   7.950
 3818POPC   C4B 9910  36.156  16.939   7.650
 3819POPC   NC3 9911  16.746   7.420   9.450
 3819POPC   PO4 9912  16.773   7.408   9.150
 3819POPC   GL1 9913  16.729   7.385   8.850
 3819POPC   GL2 9914  16.644   7.589   8.850
 3819POPC   C1A 9915  16.709   7.411   8.550
 3819POPC   D2A 9916  16.746   7.371   8.250
 3819POPC   C3A 9917  16.686   7.391   7.950
 3819POPC   C4A 9918  16.752   7.414   7.650
 3819POPC   C1B 9919  16.676   7.625   8.550
 3819POPC   C2B 9920  16.608   7.700   8.250
 3819POPC   C3B 9921  16.621   7.630   7.950
 3819POPC   C4B 9922  16.645   7.695   7.650
 3820POPC   NC3 9923  20.626  20.632   9.450
 3820POPC   PO4 9924  20.616  20.590   9.150
 3820POPC   GL1 9925  20.626  20.652   8.850
 3820POPC   GL2 9926  20.585  20.495   8.850
 3820POPC   C1A 9927  20.585  20.599   8.550
 3820POPC   D2A 9928  20.590  20.639   8.250
 3820POPC   C3A 9929  20.615  20.573   7.950
 3820POPC   C4A 9930  20.602  20.660   7.650
 3820POPC   C1B 9931  20.497  20.367   8.550
 3820POPC   C2B 9932  20.491  20.351   8.250
 3820POPC   C3B 9933  20.469  20.379   7.950
 3820POPC   C4B 9934  20.483  20.430   7.650
 3821POPC   NC3 9935  43.145  40.749   9.450
 3821POPC   PO4 9936  43.150  40.793   9.150
 3821POPC   GL1 9937  43.091  40.807   8.850
 3821POPC   GL2 9938  43.139  40.930   8.850
 3821POPC   C1A 9939  43.133  40.770   8.550
 3821POPC   D2A 9940  43.089  40.812   8.250
 3821POPC   C3A 9941  43.062  40.748   7.950
 3821POPC   C4A 9942  43.073  40.746   7.650
 3821POPC   C1B 9943  43.194  41.044   8.550
 3821POPC   C2B 9944  43.226  41.012   8.250
 3821POPC   C3B 9945  43.175  41.030   7.950
 3821POPC   C4B 9946  43.182  41.040   7.650
 3822POPC   NC3 9947   2.717   9.699   9.450
 3822POPC   PO4 9948   2.776   9.724   9.150
 3822POPC   GL1 9949   2.741   9.740   8.850
 3822POPC   GL2 9950   2.887   9.726   8.850
 3822POPC   C1A 9951   2.732   9.765   8.550
 3822POPC   D2A 9952   2.790   9.704   8.250
 3822POPC   C3A 9953   2.744   9.762   7.950
 3822POPC   C4A 9954   2.801   9.742   7.650
 3822POPC   C1B 9955   3.023   9.728   8.550
 3822POPC   C2B 9956   2.994   9.730   8.250
 3822POPC   C3B 9957   3.051   9.758   7.950
 3822POPC   C4B 9958   3.046   9.730   7.650
 3823POPC   NC3 9959  19.838   4.327   9.450
 3823POPC   PO4 9960  19.882   4.341   9.150
 3823POPC   GL1 9961  19.844   4.291   8.850
 3823POPC   GL2 9962  19.844   4.454   8.850
 3823POPC   C1A 9963  19.884   4.286   8.550
 3823POPC   D2A 9964  19.806   4.316   8.250
 3823POPC   C3A 9965  19.879   4.287   7.950
 3823POPC   C4A 9966  19.881   4.285   7.650
 3823POPC   C1B 9967  19.933   4.584   8.550
 3823POPC   C2B 9968  19.952   4.571   8.250
 3823POPC   C3B 9969  19.930   4.563   7.950
 3823POPC   C4B 9970  19.920   4.524   7.650
 3824POPC   NC3 9971   0.442   5.047   9.450
 3824POPC   PO4 9972   0.419   5.063   9.150
 3824POPC   GL1 9973   0.410   5.072   8.850
 3824POPC   GL2 9974   0.579   5.152   8.850
 3824POPC   C1A 9975   0.404   5.109   8.550
 3824POPC   D2A 9976   0.419   5.088   8.250
 3824POPC   C3A 9977   0.442   5.061   7.950
 3824POPC   C4A 9978   0.440   5.099   7.650
 3824POPC   C1B 9979   0.598   5.227   8.550
 3824POPC   C2B 9980   0.669   5.267   8.250
 3824POPC   C3B 9981   0.646   5.249   7.950
 3824POPC   C4B 9982   0.620   5.278   7.650
 3825POPC   NC3 9983  35.369  29.882   9.450
 3825POPC   PO4 9984  35.331  29.944   9.150
 3825POPC   GL1 9985  35.395  29.895   8.850
 3825POPC   GL2 9986  35.263  29.871   8.850
 3825POPC   C1A 9987  35.341  29.877   8.550
 3825POPC   D2A 9988  35.347  29.968   8.250
 3825POPC   C3A 9989  35.349  29.953   7.950
 3825POPC   C4A 9990  35.401  29.915   7.650
 3825POPC   C1B 9991  35.185  29.833   8.550
 3825POPC   C2B 9992  35.184  29.773   8.250
 3825POPC   C3B 9993  35.150  29.822   7.950
 3825POPC   C4B 9994  35.159  29.742   7.650
 3826POPC   NC3 9995   8.970  33.065   9.450
 3826POPC   PO4 9996   8.972  33.011   9.150
 3826POPC   GL1 9997   8.924  33.017   8.850
 3826POPC   GL2 9998   9.059  33.081   8.850
 3826POPC   C1A 9999   9.004  33.059   8.550
 3826POPC   D2A10000   8.967  32.991   8.250
 3826POPC   C3A10001   9.018  33.060   7.950
 3826POPC   C4A10002   8.968  33.013   7.650
 3826POPC   C1B10003   9.152  33.163   8.550
 3826POPC   C2B10004   9.186  33.150   8.250
 3826POPC   C3B10005   9.167  33.230   7.950
 3826POPC   C4B10006   9.173  33.191   7.650
 3827POPC   NC310007  40.737  27.583   9.450
 3827POPC   PO410008  40.766  27.554   9.150
 3827POPC   GL110009  40.772  27.642   8.850
 3827POPC   GL210010  40.666  27.658   8.850
 3827POPC   C1A10011  40.804  27.544   8.550
 3827POPC   D2A10012  40.800  27.596   8.250
 3827POPC   C3A10013  40.784  27.560   7.950
 3827POPC   C4A10014  40.806  27.597   7.650
 3827POPC   C1B10015  40.560  27.636   8.550
 3827POPC   C2B10016  40.548  27.607   8.250
 3827POPC   C3B10017  40.504  27.652   7.950
 3827POPC   C4B10018  40.497  27.687   7.650
 3828POPC   NC310019  22.983  44.687   9.450
 3828POPC   PO410020  22.920  44.650   9.150
 3828POPC   GL110021  22.898  44.635   8.850
 3828POPC   GL210022  23.028  44.605   8.850
 3828POPC   C1A10023  22.889  44.654   8.550
 3828POPC   D2A10024  22.895  44.615   8.250
 3828POPC   C3A10025  22.951  44.712   7.950
 3828POPC   C4A10026  22.967  44.629   7.650
 3828POPC   C1B10027  23.215  44.590   8.550
 3828POPC   C2B10028  23.157  44.606   8.250
 3828POPC   C3B10029  23.212  44.571   7.950
 3828POPC   C4B10030  23.187  44.575   7.650
 3829POPC   NC310031  34.588  32.220   9.450
 3829POPC   PO410032  34.565  32.264   9.150
 3829POPC   GL110033  34.607  32.251   8.850
 3829POPC   GL210034  34.476  32.157   8.850
 3829POPC   C1A10035  34.528  32.284   8.550
 3829POPC   D2A10036  34.578  32.255   8.250
 3829POPC   C3A10037  34.616  32.280   7.950
 3829POPC   C4A10038  34.601  32.292   7.650
 3829POPC   C1B10039  34.475  32.046   8.550
 3829POPC   C2B10040  34.483  32.002   8.250
 3829POPC   C3B10041  34.446  32.071   7.950
 3829POPC   C4B10042  34.453  31.991   7.650
 3830POPC   NC310043  33.774  36.950   9.450
 3830POPC   PO410044  33.814  36.915   9.150
 3830POPC   GL110045  33.810  36.916   8.850
 3830POPC   GL210046  33.931  36.933   8.850
 3830POPC   C1A10047  33.753  36.934   8.550
 3830POPC   D2A10048  33.820  36.931   8.250
 3830POPC   C3A10049  33.822  36.932   7.950
 3830POPC   C4A10050  33.823  36.931   7.650
 3830POPC   C1B10051  34.082  36.984   8.550
 3830POPC   C2B10052  33.999  36.969   8.250
 3830POPC   C3B10053  34.052  36.953   7.950
 3830POPC   C4B10054  34.041  36.906   7.650
 3831POPC   NC310055  42.366  20.617   9.450
 3831POPC   PO410056  42.304  20.622   9.150
 3831POPC   GL110057  42.375  20.636   8.850
 3831POPC   GL210058  42.507  20.619   8.850
 3831POPC   C1A10059  42.328  20.585   8.550
 3831POPC   D2A10060  42.358  20.655   8.250
 3831POPC   C3A10061  42.305  20.646   7.950
 3831POPC   C4A10062  42.306  20.564   7.650
 3831POPC   C1B10063  42.557  20.683   8.550
 3831POPC   C2B10064  42.599  20.692   8.250
 3831POPC   C3B10065  42.531  20.673   7.950
 3831POPC   C4B10066  42.590  20.674   7.650
 3832POPC   NC310067   1.187  40.041   9.450
 3832POPC   PO410068   1.165  39.990   9.150
 3832POPC   GL110069   1.201  40.015   8.850
 3832POPC   GL210070   1.317  39.883   8.850
 3832POPC   C1A10071   1.261  40.051   8.550
 3832POPC   D2A10072   1.202  40.056   8.250
 3832POPC   C3A10073   1.229  40.047   7.950
 3832POPC   C4A10074   1.258  40.031   7.650
 3832POPC   C1B10075   1.367  39.890   8.550
 3832POPC   C2B10076   1.439  39.819   8.250
 3832POPC   C3B10077   1.397  39.889   7.950
 3832POPC   C4B10078   1.430  39.876   7.650
 3833POPC   NC310079  25.218  42.342   9.450
 3833POPC   PO410080  25.244  42.370   9.150
 3833POPC   GL110081  25.294  42.293   8.850
 3833POPC   GL210082  25.244  42.448   8.850
 3833POPC   C1A10083  25.288  42.292   8.550
 3833POPC   D2A10084  25.300  42.313   8.250
 3833POPC   C3A10085  25.308  42.316   7.950
 3833POPC   C4A10086  25.284  42.345   7.650
 3833POPC   C1B10087  25.351  42.563   8.550
 3833POPC   C2B10088  25.302  42.621   8.250
 3833POPC   C3B10089  25.341  42.600   7.950
 3833POPC   C4B10090  25.299  42.618   7.650
 3834POPC   NC310091  15.910  43.154   9.450
 3834POPC   PO410092  15.937  43.139   9.150
 3834POPC   GL110093  15.973  43.069   8.850
 3834POPC   GL210094  16.063  43.169   8.850
 3834POPC   C1A10095  15.954  43.073   8.550
 3834POPC   D2A10096  15.997  43.139   8.250
 3834POPC   C3A10097  15.944  43.122   7.950
 3834POPC   C4A10098  15.908  43.121   7.650
 3834POPC   C1B10099  16.171  43.281   8.550
 3834POPC   C2B10100  16.175  43.312   8.250
 3834POPC   C3B10101  16.176  43.271   7.950
 3834POPC   C4B10102  16.194  43.245   7.650
 3835POPC   NC310103   1.187   8.151   9.450
 3835POPC   PO410104   1.179   8.169   9.150
 3835POPC   GL110105   1.167   8.147   8.850
 3835POPC   GL210106   1.097   8.278   8.850
 3835POPC   C1A10107   1.203   8.234   8.550
 3835POPC   D2A10108   1.215   8.172   8.250
 3835POPC   C3A10109   1.174   8.201   7.950
 3835POPC   C4A10110   1.259   8.226   7.650
 3835POPC   C1B10111   1.004   8.334   8.550
 3835POPC   C2B10112   0.994   8.277   8.250
 3835POPC   C3B10113   1.035   8.334   7.950
 3835POPC   C4B10114   1.023   8.328   7.650
 3836POPC   NC310115   8.985  34.602   9.450
 3836POPC   PO410116   8.946  34.565   9.150
 3836POPC   GL110117   8.971  34.571   8.850
 3836POPC   GL210118   9.128  34.617   8.850
 3836POPC   C1A10119   8.969  34.591   8.550
 3836POPC   D2A10120   9.019  34.558   8.250
 3836POPC   C3A10121   8.945  34.543   7.950
 3836POPC   C4A10122   8.986  34.569   7.650
 3836POPC   C1B10123   9.231  34.654   8.550
 3836POPC   C2B10124   9.221  34.586   8.250
 3836POPC   C3B10125   9.248  34.633   7.950
 3836POPC   C4B10126   9.253  34.589   7.650
 3837POPC   NC310127  16.780   1.235   9.450
 3837POPC   PO410128  16.760   1.184   9.150
 3837POPC   GL110129  16.739   1.180   8.850
 3837POPC   GL210130  16.631   1.088   8.850
 3837POPC   C1A10131  16.714   1.223   8.550
 3837POPC   D2A10132  16.709   1.254   8.250
 3837POPC   C3A10133  16.741   1.228   7.950
 3837POPC   C4A10134  16.718   1.224   7.650
 3837POPC   C1B10135  16.519   1.030   8.550
 3837POPC   C2B10136  16.545   1.008   8.250
 3837POPC   C3B10137  16.587   0.999   7.950
 3837POPC   C4B10138  16.587   1.097   7.650
 3838POPC   NC310139  11.256  37.707   9.450
 3838POPC   PO410140  11.302  37.699   9.150
 3838POPC   GL110141  11.294  37.661   8.850
 3838POPC   GL210142  11.203  37.766   8.850
 3838POPC   C1A10143  11.341  37.666   8.550
 3838POPC   D2A10144  11.261  37.631   8.250
 3838POPC   C3A10145  11.325  37.669   7.950
 3838POPC   C4A10146  11.322  37.692   7.650
 3838POPC   C1B10147  11.038  37.851   8.550
 3838POPC   C2B10148  11.091  37.768   8.250
 3838POPC   C3B10149  11.095  37.774   7.950
 3838POPC   C4B10150  11.057  37.797   7.650
 3839POPC   NC310151   5.831  17.503   9.450
 3839POPC   PO410152   5.819  17.553   9.150
 3839POPC   GL110153   5.863  17.538   8.850
 3839POPC   GL210154   5.790  17.431   8.850
 3839POPC   C1A10155   5.833  17.520   8.550
 3839POPC   D2A10156   5.824  17.463   8.250
 3839POPC   C3A10157   5.841  17.544   7.950
 3839POPC   C4A10158   5.913  17.458   7.650
 3839POPC   C1B10159   5.670  17.421   8.550
 3839POPC   C2B10160   5.605  17.407   8.250
 3839POPC   C3B10161   5.632  17.489   7.950
 3839POPC   C4B10162   5.668  17.490   7.650
 3840POPC   NC310163  29.159  36.141   9.450
 3840POPC   PO410164  29.119  36.080   9.150
 3840POPC   GL110165  29.168  36.153   8.850
 3840POPC   GL210166  29.119  35.970   8.850
 3840POPC   C1A10167  29.140  36.090   8.550
 3840POPC   D2A10168  29.157  36.125   8.250
 3840POPC   C3A10169  29.180  36.093   7.950
 3840POPC   C4A10170  29.104  36.106   7.650
 3840POPC   C1B10171  29.108  35.905   8.550
 3840POPC   C2B10172  29.112  35.888   8.250
 3840POPC   C3B10173  29.106  35.844   7.950
 3840POPC   C4B10174  29.107  35.844   7.650
 3841POPC   NC310175  42.355  43.061   9.450
 3841POPC   PO410176  42.314  43.123   9.150
 3841POPC   GL110177  42.307  43.106   8.850
 3841POPC   GL210178  42.427  43.076   8.850
 3841POPC   C1A10179  42.336  43.120   8.550
 3841POPC   D2A10180  42.334  43.123   8.250
 3841POPC   C3A10181  42.381  43.073   7.950
 3841POPC   C4A10182  42.364  43.101   7.650
 3841POPC   C1B10183  42.535  43.112   8.550
 3841POPC   C2B10184  42.605  43.114   8.250
 3841POPC   C3B10185  42.610  43.078   7.950
 3841POPC   C4B10186  42.574  43.142   7.650
 3842POPC   NC310187  12.808  19.800   9.450
 3842POPC   PO410188  12.859  19.786   9.150
 3842POPC   GL110189  12.897  19.847   8.850
 3842POPC   GL210190  12.960  19.717   8.850
 3842POPC   C1A10191  12.827  19.819   8.550
 3842POPC   D2A10192  12.845  19.800   8.250
 3842POPC   C3A10193  12.807  19.873   7.950
 3842POPC   C4A10194  12.816  19.822   7.650
 3842POPC   C1B10195  12.970  19.625   8.550
 3842POPC   C2B10196  13.007  19.586   8.250
 3842POPC   C3B10197  12.970  19.641   7.950
 3842POPC   C4B10198  13.042  19.673   7.650
 3843POPC   NC310199   1.951  12.835   9.450
 3843POPC   PO410200   2.002  12.844   9.150
 3843POPC   GL110201   2.023  12.811   8.850
 3843POPC   GL210202   1.913  12.774   8.850
 3843POPC   C1A10203   1.990  12.835   8.550
 3843POPC   D2A10204   1.978  12.901   8.250
 3843POPC   C3A10205   2.006  12.853   7.950
 3843POPC   C4A10206   2.022  12.853   7.650
 3843POPC   C1B10207   1.843  12.704   8.550
 3843POPC   C2B10208   1.762  12.729   8.250
 3843POPC   C3B10209   1.841  12.667   7.950
 3843POPC   C4B10210   1.804  12.699   7.650
 3844POPC   NC310211  42.347  23.688   9.450
 3844POPC   PO410212  42.295  23.753   9.150
 3844POPC   GL110213  42.374  23.700   8.850
 3844POPC   GL210214  42.412  23.676   8.850
 3844POPC   C1A10215  42.353  23.725   8.550
 3844POPC   D2A10216  42.359  23.710   8.250
 3844POPC   C3A10217  42.300  23.727   7.950
 3844POPC   C4A10218  42.288  23.673   7.650
 3844POPC   C1B10219  42.619  23.639   8.550
 3844POPC   C2B10220  42.611  23.636   8.250
 3844POPC   C3B10221  42.548  23.637   7.950
 3844POPC   C4B10222  42.575  23.683   7.650
 3845POPC   NC310223   1.263  38.454   9.450
 3845POPC   PO410224   1.233  38.421   9.150
 3845POPC   GL110225   1.189  38.412   8.850
 3845POPC   GL210226   1.149  38.408   8.850
 3845POPC   C1A10227   1.222  38.479   8.550
 3845POPC   D2A10228   1.200  38.462   8.250
 3845POPC   C3A10229   1.173  38.488   7.950
 3845POPC   C4A10230   1.215  38.494   7.650
 3845POPC   C1B10231   1.025  38.328   8.550
 3845POPC   C2B10232   0.969  38.317   8.250
 3845POPC   C3B10233   1.050  38.272   7.950
 3845POPC   C4B10234   1.028  38.313   7.650
 3846POPC   NC310235  24.538   9.702   9.450
 3846POPC   PO410236  24.454   9.753   9.150
 3846POPC   GL110237  24.451   9.715   8.850
 3846POPC   GL210238  24.531   9.658   8.850
 3846POPC   C1A10239  24.472   9.734   8.550
 3846POPC   D2A10240  24.493   9.734   8.250
 3846POPC   C3A10241  24.465   9.719   7.950
 3846POPC   C4A10242  24.464   9.791   7.650
 3846POPC   C1B10243  24.600   9.580   8.550
 3846POPC   C2B10244  24.619   9.522   8.250
 3846POPC   C3B10245  24.634   9.530   7.950
 3846POPC   C4B10246  24.645   9.565   7.650
 3847POPC   NC310247  39.207  23.673   9.450
 3847POPC   PO410248  39.206  23.665   9.150
 3847POPC   GL110249  39.228  23.714   8.850
 3847POPC   GL210250  39.220  23.801   8.850
 3847POPC   C1A10251  39.235  23.732   8.550
 3847POPC   D2A10252  39.187  23.667   8.250
 3847POPC   C3A10253  39.274  23.720   7.950
 3847POPC   C4A10254  39.233  23.696   7.650
 3847POPC   C1B10255  39.201  23.995   8.550
 3847POPC   C2B10256  39.229  23.940   8.250
 3847POPC   C3B10257  39.259  23.925   7.950
 3847POPC   C4B10258  39.257  23.996   7.650
 3848POPC   NC310259   1.943  15.170   9.450
 3848POPC   PO410260   1.988  15.162   9.150
 3848POPC   GL110261   1.997  15.207   8.850
 3848POPC   GL210262   1.880  15.200   8.850
 3848POPC   C1A10263   1.978  15.218   8.550
 3848POPC   D2A10264   1.952  15.145   8.250
 3848POPC   C3A10265   1.991  15.212   7.950
 3848POPC   C4A10266   1.989  15.162   7.650
 3848POPC   C1B10267   1.726  15.194   8.550
 3848POPC   C2B10268   1.711  15.253   8.250
 3848POPC   C3B10269   1.779  15.251   7.950
 3848POPC   C4B10270   1.721  15.178   7.650
 3849POPC   NC310271  24.469   1.221   9.450
 3849POPC   PO410272  24.540   1.165   9.150
 3849POPC   GL110273  24.490   1.213   8.850
 3849POPC   GL210274  24.600   1.188   8.850
 3849POPC   C1A10275  24.494   1.209   8.550
 3849POPC   D2A10276  24.531   1.257   8.250
 3849POPC   C3A10277  24.520   1.209   7.950
 3849POPC   C4A10278  24.466   1.189   7.650
 3849POPC   C1B10279  24.683   1.085   8.550
 3849POPC   C2B10280  24.719   1.061   8.250
 3849POPC   C3B10281  24.651   1.040   7.950
 3849POPC   C4B10282  24.691   1.111   7.650
 3850POPC   NC310283   0.427   5.864   9.450
 3850POPC   PO410284   0.468   5.882   9.150
 3850POPC   GL110285   0.419   5.829   8.850
 3850POPC   GL210286   0.311   5.902   8.850
 3850POPC   C1A10287   0.394   5.906   8.550
 3850POPC   D2A10288   0.455   5.869   8.250
 3850POPC   C3A10289   0.422   5.827   7.950
 3850POPC   C4A10290   0.423   5.849   7.650
 3850POPC   C1B10291   0.161   5.808   8.550
 3850POPC   C2B10292   0.190   5.846   8.250
 3850POPC   C3B10293   0.163   5.892   7.950
 3850POPC   C4B10294   0.205   5.873   7.650
 3851POPC   NC310295  19.073   9.773   9.450
 3851POPC   PO410296  19.034   9.721   9.150
 3851POPC   GL110297  19.041   9.771   8.850
 3851POPC   GL210298  19.058   9.635   8.850
 3851POPC   C1A10299  19.013   9.780   8.550
 3851POPC   D2A10300  19.053   9.774   8.250
 3851POPC   C3A10301  19.058   9.711   7.950
 3851POPC   C4A10302  19.046   9.748   7.650
 3851POPC   C1B10303  18.953   9.538   8.550
 3851POPC   C2B10304  18.975   9.503   8.250
 3851POPC   C3B10305  18.999   9.464   7.950
 3851POPC   C4B10306  18.967   9.511   7.650
 3852POPC   NC310307  36.094  26.833   9.450
 3852POPC   PO410308  36.150  26.820   9.150
 3852POPC   GL110309  36.088  26.777   8.850
 3852POPC   GL210310  36.279  26.852   8.850
 3852POPC   C1A10311  36.171  26.774   8.550
 3852POPC   D2A10312  36.168  26.858   8.250
 3852POPC   C3A10313  36.144  26.799   7.950
 3852POPC   C4A10314  36.110  26.770   7.650
 3852POPC   C1B10315  36.338  26.845   8.550
 3852POPC   C2B10316  36.390  26.893   8.250
 3852POPC   C3B10317  36.385  26.830   7.950
 3852POPC   C4B10318  36.343  26.863   7.650
 3853POPC   NC310319  17.466   9.703   9.450
 3853POPC   PO410320  17.503   9.735   9.150
 3853POPC   GL110321  17.464   9.771   8.850
 3853POPC   GL210322  17.374   9.869   8.850
 3853POPC   C1A10323  17.490   9.766   8.550
 3853POPC   D2A10324  17.495   9.783   8.250
 3853POPC   C3A10325  17.549   9.762   7.950
 3853POPC   C4A10326  17.463   9.767   7.650
 3853POPC   C1B10327  17.300   9.930   8.550
 3853POPC   C2B10328  17.340   9.857   8.250
 3853POPC   C3B10329  17.300   9.925   7.950
 3853POPC   C4B10330  17.268   9.941   7.650
 3854POPC   NC310331   5.868  11.283   9.450
 3854POPC   PO410332   5.844  11.272   9.150
 3854POPC   GL110333   5.849  11.304   8.850
 3854POPC   GL210334   5.867  11.426   8.850
 3854POPC   C1A10335   5.916  11.261   8.550
 3854POPC   D2A10336   5.849  11.257   8.250
 3854POPC   C3A10337   5.910  11.344   7.950
 3854POPC   C4A10338   5.847  11.297   7.650
 3854POPC   C1B10339   5.784  11.510   8.550
 3854POPC   C2B10340   5.784  11.528   8.250
 3854POPC   C3B10341   5.814  11.577   7.950
 3854POPC   C4B10342   5.818  11.566   7.650
 3855POPC   NC310343  16.748  44.678   9.450
 3855POPC   PO410344  16.752  44.638   9.150
 3855POPC   GL110345  16.761  44.686   8.850
 3855POPC   GL210346  16.601  44.597   8.850
 3855POPC   C1A10347  16.762  44.679   8.550
 3855POPC   D2A10348  16.749  44.681   8.250
 3855POPC   C3A10349  16.691  44.683   7.950
 3855POPC   C4A10350  16.730  44.686   7.650
 3855POPC   C1B10351  16.515  44.564   8.550
 3855POPC   C2B10352  16.511  44.623   8.250
 3855POPC   C3B10353  16.458  44.553   7.950
 3855POPC   C4B10354  16.536  44.555   7.650
 3856POPC   NC310355  39.194  22.189   9.450
 3856POPC   PO410356  39.209  22.210   9.150
 3856POPC   GL110357  39.280  22.121   8.850
 3856POPC   GL210358  39.202  22.015   8.850
 3856POPC   C1A10359  39.258  22.118   8.550
 3856POPC   D2A10360  39.223  22.132   8.250
 3856POPC   C3A10361  39.203  22.210   7.950
 3856POPC   C4A10362  39.184  22.127   7.650
 3856POPC   C1B10363  39.228  21.869   8.550
 3856POPC   C2B10364  39.233  21.899   8.250
 3856POPC   C3B10365  39.203  21.893   7.950
 3856POPC   C4B10366  39.258  21.897   7.650
 3857POPC   NC310367  20.631  12.859   9.450
 3857POPC   PO410368  20.599  12.803   9.150
 3857POPC   GL110369  20.595  12.810   8.850
 3857POPC   GL210370  20.660  12.737   8.850
 3857POPC   C1A10371  20.589  12.812   8.550
 3857POPC   D2A10372  20.646  12.883   8.250
 3857POPC   C3A10373  20.563  12.885   7.950
 3857POPC   C4A10374  20.660  12.877   7.650
 3857POPC   C1B10375  20.779  12.689   8.550
 3857POPC   C2B10376  20.777  12.707   8.250
 3857POPC   C3B10377  20.817  12.654   7.950
 3857POPC   C4B10378  20.813  12.638   7.650
 3858POPC   NC310379  38.406  35.305   9.450
 3858POPC   PO410380  38.406  35.319   9.150
 3858POPC   GL110381  38.413  35.321   8.850
 3858POPC   GL210382  38.418  35.427   8.850
 3858POPC   C1A10383  38.416  35.373   8.550
 3858POPC   D2A10384  38.450  35.382   8.250
 3858POPC   C3A10385  38.498  35.314   7.950
 3858POPC   C4A10386  38.504  35.373   7.650
 3858POPC   C1B10387  38.335  35.622   8.550
 3858POPC   C2B10388  38.351  35.599   8.250
 3858POPC   C3B10389  38.309  35.620   7.950
 3858POPC   C4B10390  38.326  35.606   7.650
 3859POPC   NC310391  14.432  28.338   9.450
 3859POPC   PO410392  14.390  28.384   9.150
 3859POPC   GL110393  14.440  28.343   8.850
 3859POPC   GL210394  14.434  28.246   8.850
 3859POPC   C1A10395  14.425  28.338   8.550
 3859POPC   D2A10396  14.404  28.404   8.250
 3859POPC   C3A10397  14.423  28.373   7.950
 3859POPC   C4A10398  14.371  28.396   7.650
 3859POPC   C1B10399  14.425  28.141   8.550
 3859POPC   C2B10400  14.410  28.151   8.250
 3859POPC   C3B10401  14.385  28.124   7.950
 3859POPC   C4B10402  14.349  28.154   7.650
 3860POPC   NC310403   5.043  12.104   9.450
 3860POPC   PO410404   5.116  12.081   9.150
 3860POPC   GL110405   5.104  12.034   8.850
 3860POPC   GL210406   4.994  11.985   8.850
 3860POPC   C1A10407   5.123  12.079   8.550
 3860POPC   D2A10408   5.046  12.039   8.250
 3860POPC   C3A10409   5.064  12.028   7.950
 3860POPC   C4A10410   5.104  12.118   7.650
 3860POPC   C1B10411   5.012  11.887   8.550
 3860POPC   C2B10412   4.958  11.853   8.250
 3860POPC   C3B10413   4.980  11.854   7.950
 3860POPC   C4B10414   4.957  11.867   7.650
 3861POPC   NC310415  43.145  28.322   9.450
 3861POPC   PO410416  43.159  28.351   9.150
 3861POPC   GL110417  43.107  28.376   8.850
 3861POPC   GL210418  43.165  28.460   8.850
 3861POPC   C1A10419  43.113  28.402   8.550
 3861POPC   D2A10420  43.155  28.348   8.250
 3861POPC   C3A10421  43.128  28.323   7.950
 3861POPC   C4A10422  43.140  28.369   7.650
 3861POPC   C1B10423  43.300  28.527   8.550
 3861POPC   C2B10424  43.285  28.551   8.250
 3861POPC   C3B10425  43.332  28.522   7.950
 3861POPC   C4B10426  43.328  28.466   7.650
 3862POPC   NC310427  21.383  18.324   9.450
 3862POPC   PO410428  21.406  18.272   9.150
 3862POPC   GL110429  21.397  18.322   8.850
 3862POPC   GL210430  21.304  18.328   8.850
 3862POPC   C1A10431  21.386  18.290   8.550
 3862POPC   D2A10432  21.435  18.307   8.250
 3862POPC   C3A10433  21.405  18.331   7.950
 3862POPC   C4A10434  21.375  18.280   7.650
 3862POPC   C1B10435  21.141  18.481   8.550
 3862POPC   C2B10436  21.237  18.440   8.250
 3862POPC   C3B10437  21.185  18.431   7.950
 3862POPC   C4B10438  21.201  18.419   7.650
 3863POPC   NC310439  27.635   5.886   9.450
 3863POPC   PO410440  27.624   5.881   9.150
 3863POPC   GL110441  27.582   5.905   8.850
 3863POPC   GL210442  27.613   5.995   8.850
 3863POPC   C1A10443  27.603   5.857   8.550
 3863POPC   D2A10444  27.577   5.880   8.250
 3863POPC   C3A10445  27.612   5.870   7.950
 3863POPC   C4A10446  27.641   5.836   7.650
 3863POPC   C1B10447  27.589   6.077   8.550
 3863POPC   C2B10448  27.583   6.161   8.250
 3863POPC   C3B10449  27.638   6.137   7.950
 3863POPC   C4B10450  27.630   6.155   7.650
 3864POPC   NC310451  19.839  15.137   9.450
 3864POPC   PO410452  19.803  15.199   9.150
 3864POPC   GL110453  19.800  15.227   8.850
 3864POPC   GL210454  19.981  15.195   8.850
 3864POPC   C1A10455  19.836  15.171   8.550
 3864POPC   D2A10456  19.865  15.147   8.250
 3864POPC   C3A10457  19.816  15.163   7.950
 3864POPC   C4A10458  19.875  15.136   7.650
 3864POPC   C1B10459  20.134  15.141   8.550
 3864POPC   C2B10460  20.105  15.228   8.250
 3864POPC   C3B10461  20.066  15.221   7.950
 3864POPC   C4B10462  20.071  15.177   7.650
 3865POPC   NC310463  19.094  20.562   9.450
 3865POPC   PO410464  19.065  20.648   9.150
 3865POPC   GL110465  19.055  20.589   8.850
 3865POPC   GL210466  19.112  20.675   8.850
 3865POPC   C1A10467  19.104  20.655   8.550
 3865POPC   D2A10468  19.064  20.562   8.250
 3865POPC   C3A10469  19.099  20.563   7.950
 3865POPC   C4A10470  19.057  20.645   7.650
 3865POPC   C1B10471  19.199  20.797   8.550
 3865POPC   C2B10472  19.141  20.878   8.250
 3865POPC   C3B10473  19.131  20.870   7.950
 3865POPC   C4B10474  19.185  20.844   7.650
 3866POPC   NC310475  43.895  20.601   9.450
 3866POPC   PO410476  43.867  20.611   9.150
 3866POPC   GL110477  43.904  20.638   8.850
 3866POPC   GL210478  43.968  20.632   8.850
 3866POPC   C1A10479  43.895  20.623   8.550
 3866POPC   D2A10480  43.867  20.600   8.250
 3866POPC   C3A10481  43.868  20.629   7.950
 3866POPC   C4A10482  43.861  20.603   7.650
 3866POPC   C1B10483  44.169  20.710   8.550
 3866POPC   C2B10484  44.137  20.722   8.250
 3866POPC   C3B10485  44.081  20.690   7.950
 3866POPC   C4B10486  44.164  20.639   7.650
 3867POPC   NC310487  24.520  28.350   9.450
 3867POPC   PO410488  24.514  28.408   9.150
 3867POPC   GL110489  24.508  28.334   8.850
 3867POPC   GL210490  24.509  28.217   8.850
 3867POPC   C1A10491  24.441  28.325   8.550
 3867POPC   D2A10492  24.484  28.407   8.250
 3867POPC   C3A10493  24.485  28.401   7.950
 3867POPC   C4A10494  24.478  28.419   7.650
 3867POPC   C1B10495  24.577  28.115   8.550
 3867POPC   C2B10496  24.596  28.109   8.250
 3867POPC   C3B10497  24.577  28.116   7.950
 3867POPC   C4B10498  24.607  28.186   7.650
 3868POPC   NC310499  11.250  30.656   9.450
 3868POPC   PO410500  11.339  30.706   9.150
 3868POPC   GL110501  11.269  30.739   8.850
 3868POPC   GL210502  11.416  30.764   8.850
 3868POPC   C1A10503  11.295  30.745   8.550
 3868POPC   D2A10504  11.327  30.715   8.250
 3868POPC   C3A10505  11.287  30.719   7.950
 3868POPC   C4A10506  11.283  30.717   7.650
 3868POPC   C1B10507  11.487  30.885   8.550
 3868POPC   C2B10508  11.553  30.804   8.250
 3868POPC   C3B10509  11.539  30.844   7.950
 3868POPC   C4B10510  11.479  30.828   7.650
 3869POPC   NC310511  22.135  25.309   9.450
 3869POPC   PO410512  22.126  25.237   9.150
 3869POPC   GL110513  22.184  25.263   8.850
 3869POPC   GL210514  22.190  25.413   8.850
 3869POPC   C1A10515  22.183  25.304   8.550
 3869POPC   D2A10516  22.195  25.261   8.250
 3869POPC   C3A10517  22.129  25.258   7.950
 3869POPC   C4A10518  22.166  25.232   7.650
 3869POPC   C1B10519  22.268  25.461   8.550
 3869POPC   C2B10520  22.300  25.420   8.250
 3869POPC   C3B10521  22.281  25.455   7.950
 3869POPC   C4B10522  22.275  25.470   7.650
 3870POPC   NC310523  40.739  16.697   9.450
 3870POPC   PO410524  40.786  16.711   9.150
 3870POPC   GL110525  40.757  16.756   8.850
 3870POPC   GL210526  40.912  16.634   8.850
 3870POPC   C1A10527  40.790  16.684   8.550
 3870POPC   D2A10528  40.805  16.682   8.250
 3870POPC   C3A10529  40.804  16.703   7.950
 3870POPC   C4A10530  40.812  16.684   7.650
 3870POPC   C1B10531  41.006  16.579   8.550
 3870POPC   C2B10532  41.018  16.625   8.250
 3870POPC   C3B10533  41.033  16.573   7.950
 3870POPC   C4B10534  40.960  16.632   7.650
 3871POPC   NC310535  12.891  31.506   9.450
 3871POPC   PO410536  12.811  31.434   9.150
 3871POPC   GL110537  12.846  31.481   8.850
 3871POPC   GL210538  12.727  31.530   8.850
 3871POPC   C1A10539  12.813  31.520   8.550
 3871POPC   D2A10540  12.895  31.496   8.250
 3871POPC   C3A10541  12.815  31.516   7.950
 3871POPC   C4A10542  12.874  31.502   7.650
 3871POPC   C1B10543  12.642  31.533   8.550
 3871POPC   C2B10544  12.659  31.529   8.250
 3871POPC   C3B10545  12.631  31.505   7.950
 3871POPC   C4B10546  12.646  31.592   7.650
 3872POPC   NC310547  39.278   3.495   9.450
 3872POPC   PO410548  39.183   3.582   9.150
 3872POPC   GL110549  39.204   3.550   8.850
 3872POPC   GL210550  39.066   3.507   8.850
 3872POPC   C1A10551  39.203   3.534   8.550
 3872POPC   D2A10552  39.250   3.548   8.250
 3872POPC   C3A10553  39.248   3.582   7.950
 3872POPC   C4A10554  39.278   3.582   7.650
 3872POPC   C1B10555  38.983   3.595   8.550
 3872POPC   C2B10556  38.933   3.506   8.250
 3872POPC   C3B10557  38.996   3.545   7.950
 3872POPC   C4B10558  38.966   3.550   7.650
 3873POPC   NC310559   6.680  37.729   9.450
 3873POPC   PO410560   6.633  37.704   9.150
 3873POPC   GL110561   6.628  37.638   8.850
 3873POPC   GL210562   6.505  37.706   8.850
 3873POPC   C1A10563   6.678  37.632   8.550
 3873POPC   D2A10564   6.623  37.671   8.250
 3873POPC   C3A10565   6.599  37.687   7.950
 3873POPC   C4A10566   6.658  37.706   7.650
 3873POPC   C1B10567   6.420  37.660   8.550
 3873POPC   C2B10568   6.413  37.688   8.250
 3873POPC   C3B10569   6.415  37.704   7.950
 3873POPC   C4B10570   6.440  37.670   7.650
 3874POPC   NC310571  29.144   2.035   9.450
 3874POPC   PO410572  29.151   2.030   9.150
 3874POPC   GL110573  29.150   1.967   8.850
 3874POPC   GL210574  29.251   1.950   8.850
 3874POPC   C1A10575  29.181   1.941   8.550
 3874POPC   D2A10576  29.129   1.956   8.250
 3874POPC   C3A10577  29.107   2.000   7.950
 3874POPC   C4A10578  29.182   1.953   7.650
 3874POPC   C1B10579  29.428   1.954   8.550
 3874POPC   C2B10580  29.403   1.938   8.250
 3874POPC   C3B10581  29.438   1.937   7.950
 3874POPC   C4B10582  29.350   1.985   7.650
 3875POPC   NC310583  42.330  32.256   9.450
 3875POPC   PO410584  42.333  32.267   9.150
 3875POPC   GL110585  42.363  32.208   8.850
 3875POPC   GL210586  42.242  32.250   8.850
 3875POPC   C1A10587  42.315  32.209   8.550
 3875POPC   D2A10588  42.314  32.260   8.250
 3875POPC   C3A10589  42.318  32.277   7.950
 3875POPC   C4A10590  42.309  32.216   7.650
 3875POPC   C1B10591  42.146  32.182   8.550
 3875POPC   C2B10592  42.151  32.176   8.250
 3875POPC   C3B10593  42.078  32.164   7.950
 3875POPC   C4B10594  42.145  32.115   7.650
 3876POPC   NC310595  18.332  22.983   9.450
 3876POPC   PO410596  18.317  22.931   9.150
 3876POPC   GL110597  18.241  22.894   8.850
 3876POPC   GL210598  18.222  23.062   8.850
 3876POPC   C1A10599  18.264  22.911   8.550
 3876POPC   D2A10600  18.294  22.925   8.250
 3876POPC   C3A10601  18.299  22.900   7.950
 3876POPC   C4A10602  18.321  22.954   7.650
 3876POPC   C1B10603  18.128  23.112   8.550
 3876POPC   C2B10604  18.169  23.141   8.250
 3876POPC   C3B10605  18.190  23.121   7.950
 3876POPC   C4B10606  18.191  23.173   7.650
 3877POPC   NC310607   9.747  40.831   9.450
 3877POPC   PO410608   9.783  40.783   9.150
 3877POPC   GL110609   9.788  40.763   8.850
 3877POPC   GL210610   9.825  40.832   8.850
 3877POPC   C1A10611   9.735  40.750   8.550
 3877POPC   D2A10612   9.768  40.812   8.250
 3877POPC   C3A10613   9.766  40.781   7.950
 3877POPC   C4A10614   9.789  40.758   7.650
 3877POPC   C1B10615   9.985  40.863   8.550
 3877POPC   C2B10616  10.019  40.852   8.250
 3877POPC   C3B10617   9.999  40.804   7.950
 3877POPC   C4B10618  10.006  40.864   7.650
 3878POPC   NC310619  29.121  30.702   9.450
 3878POPC   PO410620  29.150  30.682   9.150
 3878POPC   GL110621  29.153  30.713   8.850
 3878POPC   GL210622  29.152  30.821   8.850
 3878POPC   C1A10623  29.133  30.664   8.550
 3878POPC   D2A10624  29.138  30.676   8.250
 3878POPC   C3A10625  29.175  30.690   7.950
 3878POPC   C4A10626  29.132  30.721   7.650
 3878POPC   C1B10627  29.147  30.972   8.550
 3878POPC   C2B10628  29.190  30.983   8.250
 3878POPC   C3B10629  29.122  30.951   7.950
 3878POPC   C4B10630  29.178  30.907   7.650
 3879POPC   NC310631  27.589  11.295   9.450
 3879POPC   PO410632  27.591  11.268   9.150
 3879POPC   GL110633  27.584  11.332   8.850
 3879POPC   GL210634  27.636  11.451   8.850
 3879POPC   C1A10635  27.623  11.280   8.550
 3879POPC   D2A10636  27.556  11.345   8.250
 3879POPC   C3A10637  27.567  11.309   7.950
 3879POPC   C4A10638  27.588  11.346   7.650
 3879POPC   C1B10639  27.744  11.499   8.550
 3879POPC   C2B10640  27.669  11.570   8.250
 3879POPC   C3B10641  27.751  11.522   7.950
 3879POPC   C4B10642  27.660  11.543   7.650
 3880POPC   NC310643  19.103  36.150   9.450
 3880POPC   PO410644  19.098  36.130   9.150
 3880POPC   GL110645  19.100  36.169   8.850
 3880POPC   GL210646  19.060  35.960   8.850
 3880POPC   C1A10647  19.055  36.106   8.550
 3880POPC   D2A10648  19.093  36.131   8.250
 3880POPC   C3A10649  19.044  36.141   7.950
 3880POPC   C4A10650  19.099  36.155   7.650
 3880POPC   C1B10651  19.019  35.867   8.550
 3880POPC   C2B10652  19.043  35.834   8.250
 3880POPC   C3B10653  18.973  35.880   7.950
 3880POPC   C4B10654  19.003  35.894   7.650
 3881POPC   NC310655  44.684  10.566   9.450
 3881POPC   PO410656  44.671  10.504   9.150
 3881POPC   GL110657  44.614  10.477   8.850
 3881POPC   GL210658  44.739  10.592   8.850
 3881POPC   C1A10659  44.656  10.532   8.550
 3881POPC   D2A10660  44.708  10.490   8.250
 3881POPC   C3A10661  44.629  10.548   7.950
 3881POPC   C4A10662  44.620  10.560   7.650
 3881POPC   C1B10663  44.862  10.666   8.550
 3881POPC   C2B10664  44.920  10.625   8.250
 3881POPC   C3B10665  44.879  10.648   7.950
 3881POPC   C4B10666  44.877  10.601   7.650
 3882POPC   NC310667   2.731  12.869   9.450
 3882POPC   PO410668   2.720  12.808   9.150
 3882POPC   GL110669   2.765  12.817   8.850
 3882POPC   GL210670   2.638  12.880   8.850
 3882POPC   C1A10671   2.734  12.899   8.550
 3882POPC   D2A10672   2.807  12.889   8.250
 3882POPC   C3A10673   2.747  12.886   7.950
 3882POPC   C4A10674   2.750  12.840   7.650
 3882POPC   C1B10675   2.597  12.962   8.550
 3882POPC   C2B10676   2.564  12.966   8.250
 3882POPC   C3B10677   2.588  12.937   7.950
 3882POPC   C4B10678   2.535  13.013   7.650
 3883POPC   NC310679  10.524  36.118   9.450
 3883POPC   PO410680  10.553  36.129   9.150
 3883POPC   GL110681  10.495  36.100   8.850
 3883POPC   GL210682  10.427  36.151   8.850
 3883POPC   C1A10683  10.527  36.176   8.550
 3883POPC   D2A10684  10.567  36.119   8.250
 3883POPC   C3A10685  10.550  36.107   7.950
 3883POPC   C4A10686  10.532  36.105   7.650
 3883POPC   C1B10687  10.359  36.213   8.550
 3883POPC   C2B10688  10.359  36.279   8.250
 3883POPC   C3B10689  10.341  36.304   7.950
 3883POPC   C4B10690  10.305  36.235   7.650
 3884POPC   NC310691  21.352  28.350   9.450
 3884POPC   PO410692  21.421  28.374   9.150
 3884POPC   GL110693  21.372  28.329   8.850
 3884POPC   GL210694  21.416  28.282   8.850
 3884POPC   C1A10695  21.357  28.321   8.550
 3884POPC   D2A10696  21.384  28.335   8.250
 3884POPC   C3A10697  21.421  28.385   7.950
 3884POPC   C4A10698  21.392  28.369   7.650
 3884POPC   C1B10699  21.415  28.078   8.550
 3884POPC   C2B10700  21.477  28.171   8.250
 3884POPC   C3B10701  21.432  28.100   7.950
 3884POPC   C4B10702  21.440  28.103   7.650
 3885POPC   NC310703  13.665  36.858   9.450
 3885POPC   PO410704  13.585  36.904   9.150
 3885POPC   GL110705  13.599  36.934   8.850
 3885POPC   GL210706  13.515  36.859   8.850
 3885POPC   C1A10707  13.583  36.927   8.550
 3885POPC   D2A10708  13.592  36.924   8.250
 3885POPC   C3A10709  13.636  36.863   7.950
 3885POPC   C4A10710  13.653  36.863   7.650
 3885POPC   C1B10711  13.388  36.806   8.550
 3885POPC   C2B10712  13.346  36.868   8.250
 3885POPC   C3B10713  13.345  36.806   7.950
 3885POPC   C4B10714  13.413  36.883   7.650
 3886POPC   NC310715  25.315  11.307   9.450
 3886POPC   PO410716  25.252  11.270   9.150
 3886POPC   GL110717  25.292  11.256   8.850
 3886POPC   GL210718  25.423  11.252   8.850
 3886POPC   C1A10719  25.300  11.301   8.550
 3886POPC   D2A10720  25.226  11.322   8.250
 3886POPC   C3A10721  25.283  11.299   7.950
 3886POPC   C4A10722  25.300  11.328   7.650
 3886POPC   C1B10723  25.527  11.158   8.550
 3886POPC   C2B10724  25.516  11.207   8.250
 3886POPC   C3B10725  25.482  11.137   7.950
 3886POPC   C4B10726  25.472  11.158   7.650
 3887POPC   NC310727  22.159  12.026   9.450
 3887POPC   PO410728  22.191  12.110   9.150
 3887POPC   GL110729  22.146  12.063   8.850
 3887POPC   GL210730  22.096  12.135   8.850
 3887POPC   C1A10731  22.155  12.085   8.550
 3887POPC   D2A10732  22.146  12.065   8.250
 3887POPC   C3A10733  22.198  12.077   7.950
 3887POPC   C4A10734  22.142  12.096   7.650
 3887POPC   C1B10735  22.012  12.285   8.550
 3887POPC   C2B10736  22.014  12.220   8.250
 3887POPC   C3B10737  21.949  12.190   7.950
 3887POPC   C4B10738  21.948  12.198   7.650
 3888POPC   NC310739  17.484   1.246   9.450
 3888POPC   PO410740  17.494   1.229   9.150
 3888POPC   GL110741  17.518   1.247   8.850
 3888POPC   GL210742  17.433   1.299   8.850
 3888POPC   C1A10743  17.475   1.195   8.550
 3888POPC   D2A10744  17.544   1.231   8.250
 3888POPC   C3A10745  17.546   1.241   7.950
 3888POPC   C4A10746  17.538   1.214   7.650
 3888POPC   C1B10747  17.411   1.432   8.550
 3888POPC   C2B10748  17.470   1.500   8.250
 3888POPC   C3B10749  17.453   1.494   7.950
 3888POPC   C4B10750  17.412   1.463   7.650
 3889POPC   NC310751   7.397  14.400   9.450
 3889POPC   PO410752   7.409  14.424   9.150
 3889POPC   GL110753   7.380  14.359   8.850
 3889POPC   GL210754   7.496  14.399   8.850
 3889POPC   C1A10755   7.384  14.391   8.550
 3889POPC   D2A10756   7.433  14.407   8.250
 3889POPC   C3A10757   7.378  14.384   7.950
 3889POPC   C4A10758   7.444  14.357   7.650
 3889POPC   C1B10759   7.667  14.472   8.550
 3889POPC   C2B10760   7.645  14.473   8.250
 3889POPC   C3B10761   7.696  14.469   7.950
 3889POPC   C4B10762   7.702  14.443   7.650
 3890POPC   NC310763   1.989   6.647   9.450
 3890POPC   PO410764   1.965   6.672   9.150
 3890POPC   GL110765   1.942   6.619   8.850
 3890POPC   GL210766   2.090   6.772   8.850
 3890POPC   C1A10767   1.953   6.644   8.550
 3890POPC   D2A10768   1.999   6.597   8.250
 3890POPC   C3A10769   1.942   6.631   7.950
 3890POPC   C4A10770   1.968   6.651   7.650
 3890POPC   C1B10771   2.135   6.810   8.550
 3890POPC   C2B10772   2.160   6.841   8.250
 3890POPC   C3B10773   2.096   6.898   7.950
 3890POPC   C4B10774   2.123   6.894   7.650
 3891POPC   NC310775   0.442  14.384   9.450
 3891POPC   PO410776   0.486  14.416   9.150
 3891POPC   GL110777   0.457  14.435   8.850
 3891POPC   GL210778   0.394  14.318   8.850
 3891POPC   C1A10779   0.415  14.391   8.550
 3891POPC   D2A10780   0.439  14.415   8.250
 3891POPC   C3A10781   0.475  14.403   7.950
 3891POPC   C4A10782   0.438  14.388   7.650
 3891POPC   C1B10783   0.398  14.145   8.550
 3891POPC   C2B10784   0.414  14.112   8.250
 3891POPC   C3B10785   0.478  14.121   7.950
 3891POPC   C4B10786   0.482  14.131   7.650
 3892POPC   NC310787  44.634  19.786   9.450
 3892POPC   PO410788  44.683  19.808   9.150
 3892POPC   GL110789  44.644  19.859   8.850
 3892POPC   GL210790  44.739  19.724   8.850
 3892POPC   C1A10791  44.701  19.861   8.550
 3892POPC   D2A10792  44.619  19.803   8.250
 3892POPC   C3A10793  44.674  19.803   7.950
 3892POPC   C4A10794  44.675  19.814   7.650
 3892POPC   C1B10795  44.812  19.612   8.550
 3892POPC   C2B10796  44.805  19.632   8.250
 3892POPC   C3B10797  44.755  19.637   7.950
 3892POPC   C4B10798  44.797  19.598   7.650
 3893POPC   NC310799   2.741   9.005   9.450
 3893POPC   PO410800   2.723   9.016   9.150
 3893POPC   GL110801   2.786   8.970   8.850
 3893POPC   GL210802   2.937   8.991   8.850
 3893POPC   C1A10803   2.786   8.945   8.550
 3893POPC   D2A10804   2.751   8.928   8.250
 3893POPC   C3A10805   2.776   8.992   7.950
 3893POPC   C4A10806   2.802   9.022   7.650
 3893POPC   C1B10807   3.032   9.034   8.550
 3893POPC   C2B10808   3.014   9.019   8.250
 3893POPC   C3B10809   3.045   9.001   7.950
 3893POPC   C4B10810   3.023   9.014   7.650
 3894POPC   NC310811   8.984  14.396   9.450
 3894POPC   PO410812   8.975  14.414   9.150
 3894POPC   GL110813   8.998  14.451   8.850
 3894POPC   GL210814   8.928  14.276   8.850
 3894POPC   C1A10815   8.992  14.366   8.550
 3894POPC   D2A10816   8.941  14.360   8.250
 3894POPC   C3A10817   8.972  14.448   7.950
 3894POPC   C4A10818   9.013  14.381   7.650
 3894POPC   C1B10819   8.990  14.142   8.550
 3894POPC   C2B10820   8.959  14.109   8.250
 3894POPC   C3B10821   8.935  14.105   7.950
 3894POPC   C4B10822   8.939  14.171   7.650
 3895POPC   NC310823  38.478  22.909   9.450
 3895POPC   PO410824  38.484  22.985   9.150
 3895POPC   GL110825  38.430  22.973   8.850
 3895POPC   GL210826  38.543  23.044   8.850
 3895POPC   C1A10827  38.485  22.907   8.550
 3895POPC   D2A10828  38.424  22.983   8.250
 3895POPC   C3A10829  38.446  22.907   7.950
 3895POPC   C4A10830  38.454  22.899   7.650
 3895POPC   C1B10831  38.530  23.124   8.550
 3895POPC   C2B10832  38.551  23.141   8.250
 3895POPC   C3B10833  38.572  23.195   7.950
 3895POPC   C4B10834  38.519  23.151   7.650
 3896POPC   NC310835  10.490   2.794   9.450
 3896POPC   PO410836  10.526   2.758   9.150
 3896POPC   GL110837  10.529   2.761   8.850
 3896POPC   GL210838  10.614   2.804   8.850
 3896POPC   C1A10839  10.555   2.738   8.550
 3896POPC   D2A10840  10.535   2.814   8.250
 3896POPC   C3A10841  10.522   2.798   7.950
 3896POPC   C4A10842  10.558   2.734   7.650
 3896POPC   C1B10843  10.769   2.812   8.550
 3896POPC   C2B10844  10.812   2.748   8.250
 3896POPC   C3B10845  10.754   2.731   7.950
 3896POPC   C4B10846  10.800   2.824   7.650
 3897POPC   NC310847  20.630  34.556   9.450
 3897POPC   PO410848  20.581  34.546   9.150
 3897POPC   GL110849  20.629  34.545   8.850
 3897POPC   GL210850  20.659  34.732   8.850
 3897POPC   C1A10851  20.612  34.582   8.550
 3897POPC   D2A10852  20.606  34.549   8.250
 3897POPC   C3A10853  20.610  34.577   7.950
 3897POPC   C4A10854  20.619  34.538   7.650
 3897POPC   C1B10855  20.673  34.835   8.550
 3897POPC   C2B10856  20.674  34.842   8.250
 3897POPC   C3B10857  20.634  34.789   7.950
 3897POPC   C4B10858  20.704  34.820   7.650
 3898POPC   NC310859  22.202  27.626   9.450
 3898POPC   PO410860  22.180  27.621   9.150
 3898POPC   GL110861  22.138  27.574   8.850
 3898POPC   GL210862  22.179  27.746   8.850
 3898POPC   C1A10863  22.203  27.577   8.550
 3898POPC   D2A10864  22.149  27.610   8.250
 3898POPC   C3A10865  22.149  27.586   7.950
 3898POPC   C4A10866  22.203  27.593   7.650
 3898POPC   C1B10867  22.234  27.884   8.550
 3898POPC   C2B10868  22.242  27.790   8.250
 3898POPC   C3B10869  22.192  27.831   7.950
 3898POPC   C4B10870  22.272  27.859   7.650
 3899POPC   NC310871  26.091  19.863   9.450
 3899POPC   PO410872  26.045  19.869   9.150
 3899POPC   GL110873  26.027  19.841   8.850
 3899POPC   GL210874  26.145  19.811   8.850
 3899POPC   C1A10875  26.055  19.789   8.550
 3899POPC   D2A10876  26.073  19.865   8.250
 3899POPC   C3A10877  26.054  19.864   7.950
 3899POPC   C4A10878  25.996  19.827   7.650
 3899POPC   C1B10879  26.339  19.809   8.550
 3899POPC   C2B10880  26.338  19.863   8.250
 3899POPC   C3B10881  26.298  19.785   7.950
 3899POPC   C4B10882  26.293  19.836   7.650
 3900POPC   NC310883  29.960   2.746   9.450
 3900POPC   PO410884  29.947   2.730   9.150
 3900POPC   GL110885  29.913   2.773   8.850
 3900POPC   GL210886  29.985   2.904   8.850
 3900POPC   C1A10887  29.943   2.727   8.550
 3900POPC   D2A10888  29.898   2.747   8.250
 3900POPC   C3A10889  29.918   2.772   7.950
 3900POPC   C4A10890  29.918   2.744   7.650
 3900POPC   C1B10891  30.051   2.973   8.550
 3900POPC   C2B10892  30.046   2.986   8.250
 3900POPC   C3B10893  30.029   2.926   7.950
 3900POPC   C4B10894  30.102   3.006   7.650
 3901POPC   NC310895  22.923  12.049   9.450
 3901POPC   PO410896  22.933  12.057   9.150
 3901POPC   GL110897  22.901  12.078   8.850
 3901POPC   GL210898  22.782  11.978   8.850
 3901POPC   C1A10899  22.910  12.061   8.550
 3901POPC   D2A10900  22.889  12.116   8.250
 3901POPC   C3A10901  22.985  12.029   7.950
 3901POPC   C4A10902  22.984  12.106   7.650
 3901POPC   C1B10903  22.696  11.940   8.550
 3901POPC   C2B10904  22.705  11.976   8.250
 3901POPC   C3B10905  22.674  11.965   7.950
 3901POPC   C4B10906  22.712  12.006   7.650
 3902POPC   NC310907  15.160  36.875   9.450
 3902POPC   PO410908  15.193  36.950   9.150
 3902POPC   GL110909  15.208  36.870   8.850
 3902POPC   GL210910  15.236  37.036   8.850
 3902POPC   C1A10911  15.139  36.896   8.550
 3902POPC   D2A10912  15.203  36.932   8.250
 3902POPC   C3A10913  15.191  36.855   7.950
 3902POPC   C4A10914  15.151  36.875   7.650
 3902POPC   C1B10915  15.231  37.157   8.550
 3902POPC   C2B10916  15.276  37.176   8.250
 3902POPC   C3B10917  15.306  37.129   7.950
 3902POPC   C4B10918  15.315  37.184   7.650
 3903POPC   NC310919   5.060  19.882   9.450
 3903POPC   PO410920   5.104  19.874   9.150
 3903POPC   GL110921   5.068  19.841   8.850
 3903POPC   GL210922   5.149  19.863   8.850
 3903POPC   C1A10923   5.063  19.866   8.550
 3903POPC   D2A10924   5.080  19.857   8.250
 3903POPC   C3A10925   5.077  19.869   7.950
 3903POPC   C4A10926   5.046  19.868   7.650
 3903POPC   C1B10927   5.247  20.017   8.550
 3903POPC   C2B10928   5.316  19.954   8.250
 3903POPC   C3B10929   5.312  19.955   7.950
 3903POPC   C4B10930   5.337  20.011   7.650
 3904POPC   NC310931   2.752   5.141   9.450
 3904POPC   PO410932   2.802   5.055   9.150
 3904POPC   GL110933   2.748   5.122   8.850
 3904POPC   GL210934   2.647   4.970   8.850
 3904POPC   C1A10935   2.770   5.103   8.550
 3904POPC   D2A10936   2.807   5.052   8.250
 3904POPC   C3A10937   2.742   5.127   7.950
 3904POPC   C4A10938   2.779   5.117   7.650
 3904POPC   C1B10939   2.550   4.918   8.550
 3904POPC   C2B10940   2.623   4.947   8.250
 3904POPC   C3B10941   2.574   4.945   7.950
 3904POPC   C4B10942   2.599   4.884   7.650
 3905POPC   NC310943   6.655  17.463   9.450
 3905POPC   PO410944   6.687  17.536   9.150
 3905POPC   GL110945   6.682  17.527   8.850
 3905POPC   GL210946   6.474  17.482   8.850
 3905POPC   C1A10947   6.615  17.467   8.550
 3905POPC   D2A10948   6.612  17.509   8.250
 3905POPC   C3A10949   6.597  17.482   7.950
 3905POPC   C4A10950   6.688  17.534   7.650
 3905POPC   C1B10951   6.353  17.520   8.550
 3905POPC   C2B10952   6.416  17.546   8.250
 3905POPC   C3B10953   6.411  17.528   7.950
 3905POPC   C4B10954   6.415  17.514   7.650
 3906POPC   NC310955  24.519  33.799   9.450
 3906POPC   PO410956  24.510  33.800   9.150
 3906POPC   GL110957  24.450  33.782   8.850
 3906POPC   GL210958  24.396  33.726   8.850
 3906POPC   C1A10959  24.474  33.813   8.550
 3906POPC   D2A10960  24.533  33.810   8.250
 3906POPC   C3A10961  24.511  33.754   7.950
 3906POPC   C4A10962  24.484  33.835   7.650
 3906POPC   C1B10963  24.307  33.643   8.550
 3906POPC   C2B10964  24.288  33.636   8.250
 3906POPC   C3B10965  24.273  33.639   7.950
 3906POPC   C4B10966  24.300  33.610   7.650
 3907POPC   NC310967  12.057  12.034   9.450
 3907POPC   PO410968  12.108  12.118   9.150
 3907POPC   GL110969  12.065  12.103   8.850
 3907POPC   GL210970  11.925  12.115   8.850
 3907POPC   C1A10971  12.097  12.098   8.550
 3907POPC   D2A10972  12.067  12.094   8.250
 3907POPC   C3A10973  12.074  12.067   7.950
 3907POPC   C4A10974  12.028  12.084   7.650
 3907POPC   C1B10975  11.859  12.249   8.550
 3907POPC   C2B10976  11.860  12.259   8.250
 3907POPC   C3B10977  11.879  12.229   7.950
 3907POPC   C4B10978  11.854  12.195   7.650
 3908POPC   NC310979  42.329   7.446   9.450
 3908POPC   PO410980  42.342   7.456   9.150
 3908POPC   GL110981  42.307   7.401   8.850
 3908POPC   GL210982  42.361   7.354   8.850
 3908POPC   C1A10983  42.379   7.435   8.550
 3908POPC   D2A10984  42.303   7.450   8.250
 3908POPC   C3A10985  42.367   7.386   7.950
 3908POPC   C4A10986  42.361   7.461   7.650
 3908POPC   C1B10987  42.503   7.214   8.550
 3908POPC   C2B10988  42.430   7.239   8.250
 3908POPC   C3B10989  42.514   7.247   7.950
 3908POPC   C4B10990  42.444   7.185   7.650
 3909POPC   NC310991  36.124  37.718   9.450
 3909POPC   PO410992  36.137  37.703   9.150
 3909POPC   GL110993  36.111  37.668   8.850
 3909POPC   GL210994  36.237  37.551   8.850
 3909POPC   C1A10995  36.175  37.657   8.550
 3909POPC   D2A10996  36.139  37.637   8.250
 3909POPC   C3A10997  36.094  37.717   7.950
 3909POPC   C4A10998  36.093  37.670   7.650
 3909POPC   C1B10999  36.366  37.513   8.550
 3909POPC   C2B11000  36.301  37.497   8.250
 3909POPC   C3B11001  36.330  37.558   7.950
 3909POPC   C4B11002  36.318  37.528   7.650
 3910POPC   NC311003  40.751  26.085   9.450
 3910POPC   PO411004  40.772  26.090   9.150
 3910POPC   GL111005  40.818  26.075   8.850
 3910POPC   GL211006  40.787  25.957   8.850
 3910POPC   C1A11007  40.769  25.999   8.550
 3910POPC   D2A11008  40.772  26.063   8.250
 3910POPC   C3A11009  40.743  26.051   7.950
 3910POPC   C4A11010  40.758  26.063   7.650
 3910POPC   C1B11011  40.734  25.802   8.550
 3910POPC   C2B11012  40.732  25.782   8.250
 3910POPC   C3B11013  40.774  25.788   7.950
 3910POPC   C4B11014  40.783  25.810   7.650
 3911POPC   NC311015  35.303  14.397   9.450
 3911POPC   PO411016  35.325  14.369   9.150
 3911POPC   GL111017  35.306  14.442   8.850
 3911POPC   GL211018  35.462  14.428   8.850
 3911POPC   C1A11019  35.371  14.426   8.550
 3911POPC   D2A11020  35.345  14.360   8.250
 3911POPC   C3A11021  35.371  14.395   7.950
 3911POPC   C4A11022  35.308  14.377   7.650
 3911POPC   C1B11023  35.549  14.532   8.550
 3911POPC   C2B11024  35.597  14.502   8.250
 3911POPC   C3B11025  35.541  14.517   7.950
 3911POPC   C4B11026  35.551  14.456   7.650
 3912POPC   NC311027  43.839  13.672   9.450
 3912POPC   PO411028  43.900  13.595   9.150
 3912POPC   GL111029  43.928  13.634   8.850
 3912POPC   GL211030  43.977  13.755   8.850
 3912POPC   C1A11031  43.924  13.599   8.550
 3912POPC   D2A11032  43.930  13.611   8.250
 3912POPC   C3A11033  43.836  13.594   7.950
 3912POPC   C4A11034  43.900  13.591   7.650
 3912POPC   C1B11035  44.037  13.802   8.550
 3912POPC   C2B11036  44.068  13.760   8.250
 3912POPC   C3B11037  44.036  13.843   7.950
 3912POPC   C4B11038  44.108  13.756   7.650
 3913POPC   NC311039  15.159  12.047   9.450
 3913POPC   PO411040  15.165  12.075   9.150
 3913POPC   GL111041  15.211  12.032   8.850
 3913POPC   GL211042  15.259  12.199   8.850
 3913POPC   C1A11043  15.204  12.066   8.550
 3913POPC   D2A11044  15.227  12.040   8.250
 3913POPC   C3A11045  15.213  12.076   7.950
 3913POPC   C4A11046  15.223  12.099   7.650
 3913POPC   C1B11047  15.337  12.240   8.550
 3913POPC   C2B11048  15.375  12.307   8.250
 3913POPC   C3B11049  15.334  12.251   7.950
 3913POPC   C4B11050  15.370  12.289   7.650
 3914POPC   NC311051  37.702  21.364   9.450
 3914POPC   PO411052  37.663  21.347   9.150
 3914POPC   GL111053  37.653  21.381   8.850
 3914POPC   GL211054  37.516  21.426   8.850
 3914POPC   C1A11055  37.652  21.345   8.550
 3914POPC   D2A11056  37.639  21.405   8.250
 3914POPC   C3A11057  37.699  21.380   7.950
 3914POPC   C4A11058  37.705  21.431   7.650
 3914POPC   C1B11059  37.461  21.440   8.550
 3914POPC   C2B11060  37.426  21.421   8.250
 3914POPC   C3B11061  37.456  21.443   7.950
 3914POPC   C4B11062  37.443  21.434   7.650
 3915POPC   NC311063  12.027   8.996   9.450
 3915POPC   PO411064  12.065   8.978   9.150
 3915POPC   GL111065  12.058   8.929   8.850
 3915POPC   GL211066  12.127   9.126   8.850
 3915POPC   C1A11067  12.109   8.981   8.550
 3915POPC   D2A11068  12.117   9.020   8.250
 3915POPC   C3A11069  12.078   8.991   7.950
 3915POPC   C4A11070  12.102   8.956   7.650
 3915POPC   C1B11071  12.153   9.160   8.550
 3915POPC   C2B11072  12.143   9.242   8.250
 3915POPC   C3B11073  12.181   9.237   7.950
 3915POPC   C4B11074  12.122   9.176   7.650
 3916POPC   NC311075  23.685  19.841   9.450
 3916POPC   PO411076  23.757  19.835   9.150
 3916POPC   GL111077  23.752  19.840   8.850
 3916POPC   GL211078  23.793  19.826   8.850
 3916POPC   C1A11079  23.672  19.879   8.550
 3916POPC   D2A11080  23.734  19.820   8.250
 3916POPC   C3A11081  23.697  19.787   7.950
 3916POPC   C4A11082  23.728  19.787   7.650
 3916POPC   C1B11083  23.938  19.867   8.550
 3916POPC   C2B11084  23.928  19.846   8.250
 3916POPC   C3B11085  23.986  19.851   7.950
 3916POPC   C4B11086  23.958  19.806   7.650
 3917POPC   NC311087  33.043  43.921   9.450
 3917POPC   PO411088  33.061  43.872   9.150
 3917POPC   GL111089  33.072  43.881   8.850
 3917POPC   GL211090  33.135  43.939   8.850
 3917POPC   C1A11091  32.998  43.863   8.550
 3917POPC   D2A11092  32.990  43.853   8.250
 3917POPC   C3A11093  33.072  43.878   7.950
 3917POPC   C4A11094  32.995  43.896   7.650
 3917POPC   C1B11095  33.250  43.996   8.550
 3917POPC   C2B11096  33.233  43.974   8.250
 3917POPC   C3B11097  33.284  43.931   7.950
 3917POPC   C4B11098  33.263  43.979   7.650
 3918POPC   NC311099  13.610  22.970   9.450
 3918POPC   PO411100  13.656  22.948   9.150
 3918POPC   GL111101  13.608  22.913   8.850
 3918POPC   GL211102  13.727  22.944   8.850
 3918POPC   C1A11103  13.632  22.964   8.550
 3918POPC   D2A11104  13.658  22.922   8.250
 3918POPC   C3A11105  13.593  22.983   7.950
 3918POPC   C4A11106  13.655  22.969   7.650
 3918POPC   C1B11107  13.905  23.052   8.550
 3918POPC   C2B11108  13.901  23.021   8.250
 3918POPC   C3B11109  13.814  23.061   7.950
 3918POPC   C4B11110  13.819  23.062   7.650
 3919POPC   NC311111  32.991   7.409   9.450
 3919POPC   PO411112  33.042   7.452   9.150
 3919POPC   GL111113  32.974   7.392   8.850
 3919POPC   GL211114  32.973   7.367   8.850
 3919POPC   C1A11115  32.996   7.412   8.550
 3919POPC   D2A11116  33.053   7.463   8.250
 3919POPC   C3A11117  33.036   7.380   7.950
 3919POPC   C4A11118  32.978   7.407   7.650
 3919POPC   C1B11119  32.863   7.281   8.550
 3919POPC   C2B11120  32.813   7.311   8.250
 3919POPC   C3B11121  32.852   7.288   7.950
 3919POPC   C4B11122  32.835   7.221   7.650
 3920POPC   NC311123   1.260  15.208   9.450
 3920POPC   PO411124   1.193  15.141   9.150
 3920POPC   GL111125   1.181  15.166   8.850
 3920POPC   GL211126   1.164  15.307   8.850
 3920POPC   C1A11127   1.212  15.160   8.550
 3920POPC   D2A11128   1.166  15.184   8.250
 3920POPC   C3A11129   1.197  15.177   7.950
 3920POPC   C4A11130   1.205  15.193   7.650
 3920POPC   C1B11131   1.038  15.353   8.550
 3920POPC   C2B11132   1.021  15.371   8.250
 3920POPC   C3B11133   1.109  15.335   7.950
 3920POPC   C4B11134   1.026  15.404   7.650
 3921POPC   NC311135  33.782  34.598   9.450
 3921POPC   PO411136  33.836  34.595   9.150
 3921POPC   GL111137  33.790  34.625   8.850
 3921POPC   GL211138  33.876  34.724   8.850
 3921POPC   C1A11139  33.843  34.612   8.550
 3921POPC   D2A11140  33.842  34.566   8.250
 3921POPC   C3A11141  33.845  34.538   7.950
 3921POPC   C4A11142  33.839  34.535   7.650
 3921POPC   C1B11143  33.889  34.748   8.550
 3921POPC   C2B11144  33.879  34.801   8.250
 3921POPC   C3B11145  33.919  34.743   7.950
 3921POPC   C4B11146  33.881  34.765   7.650
 3922POPC   NC311147  19.841  13.628   9.450
 3922POPC   PO411148  19.823  13.642   9.150
 3922POPC   GL111149  19.875  13.667   8.850
 3922POPC   GL211150  19.960  13.661   8.850
 3922POPC   C1A11151  19.822  13.664   8.550
 3922POPC   D2A11152  19.884  13.648   8.250
 3922POPC   C3A11153  19.854  13.645   7.950
 3922POPC   C4A11154  19.801  13.657   7.650
 3922POPC   C1B11155  20.076  13.648   8.550
 3922POPC   C2B11156  20.095  13.618   8.250
 3922POPC   C3B11157  20.105  13.625   7.950
 3922POPC   C4B11158  20.126  13.625   7.650
 3923POPC   NC311159   0.423   9.791   9.450
 3923POPC   PO411160   0.402   9.722   9.150
 3923POPC   GL111161   0.422   9.729   8.850
 3923POPC   GL211162   0.335   9.762   8.850
 3923POPC   C1A11163   0.453   9.729   8.550
 3923POPC   D2A11164   0.415   9.766   8.250
 3923POPC   C3A11165   0.453   9.736   7.950
 3923POPC   C4A11166   0.420   9.778   7.650
 3923POPC   C1B11167   0.196   9.735   8.550
 3923POPC   C2B11168   0.232   9.786   8.250
 3923POPC   C3B11169   0.238   9.806   7.950
 3923POPC   C4B11170   0.205   9.787   7.650
 3924POPC   NC311171  35.341   8.237   9.450
 3924POPC   PO411172  35.343   8.173   9.150
 3924POPC   GL111173  35.375   8.166   8.850
 3924POPC   GL211174  35.492   8.233   8.850
 3924POPC   C1A11175  35.380   8.245   8.550
 3924POPC   D2A11176  35.364   8.215   8.250
 3924POPC   C3A11177  35.314   8.201   7.950
 3924POPC   C4A11178  35.378   8.187   7.650
 3924POPC   C1B11179  35.630   8.261   8.550
 3924POPC   C2B11180  35.596   8.266   8.250
 3924POPC   C3B11181  35.562   8.270   7.950
 3924POPC   C4B11182  35.587   8.324   7.650
 3925POPC   NC311183  10.564  22.132   9.450
 3925POPC   PO411184  10.533  22.123   9.150
 3925POPC   GL111185  10.548  22.188   8.850
 3925POPC   GL211186  10.543  22.305   8.850
 3925POPC   C1A11187  10.507  22.144   8.550
 3925POPC   D2A11188  10.537  22.124   8.250
 3925POPC   C3A11189  10.531  22.200   7.950
 3925POPC   C4A11190  10.496  22.171   7.650
 3925POPC   C1B11191  10.514  22.371   8.550
 3925POPC   C2B11192  10.516  22.365   8.250
 3925POPC   C3B11193  10.460  22.411   7.950
 3925POPC   C4B11194  10.482  22.381   7.650
 3926POPC   NC311195  35.361   6.689   9.450
 3926POPC   PO411196  35.347   6.616   9.150
 3926POPC   GL111197  35.340   6.608   8.850
 3926POPC   GL211198  35.276   6.791   8.850
 3926POPC   C1A11199  35.353   6.626   8.550
 3926POPC   D2A11200  35.351   6.644   8.250
 3926POPC   C3A11201  35.328   6.637   7.950
 3926POPC   C4A11202  35.316   6.689   7.650
 3926POPC   C1B11203  35.326   6.934   8.550
 3926POPC   C2B11204  35.273   6.917   8.250
 3926POPC   C3B11205  35.311   6.873   7.950
 3926POPC   C4B11206  35.253   6.902   7.650
 3927POPC   NC311207  35.305  31.511   9.450
 3927POPC   PO411208  35.386  31.454   9.150
 3927POPC   GL111209  35.348  31.491   8.850
 3927POPC   GL211210  35.440  31.556   8.850
 3927POPC   C1A11211  35.344  31.426   8.550
 3927POPC   D2A11212  35.384  31.484   8.250
 3927POPC   C3A11213  35.340  31.431   7.950
 3927POPC   C4A11214  35.327  31.513   7.650
 3927POPC   C1B11215  35.487  31.722   8.550
 3927POPC   C2B11216  35.470  31.662   8.250
 3927POPC   C3B11217  35.514  31.698   7.950
 3927POPC   C4B11218  35.473  31.709   7.650
 3928POPC   NC311219  43.873  31.497   9.450
 3928POPC   PO411220  43.838  31.461   9.150
 3928POPC   GL111221  43.881  31.425   8.850
 3928POPC   GL211222  43.971  31.333   8.850
 3928POPC   C1A11223  43.924  31.497   8.550
 3928POPC   D2A11224  43.838  31.481   8.250
 3928POPC   C3A11225  43.897  31.473   7.950
 3928POPC   C4A11226  43.864  31.504   7.650
 3928POPC   C1B11227  44.017  31.245   8.550
 3928POPC   C2B11228  44.057  31.220   8.250
 3928POPC   C3B11229  44.030  31.312   7.950
 3928POPC   C4B11230  44.032  31.265   7.650
 3929POPC   NC311231   0.438  20.657   9.450
 3929POPC   PO411232   0.406  20.597   9.150
 3929POPC   GL111233   0.445  20.647   8.850
 3929POPC   GL211234   0.473  20.698   8.850
 3929POPC   C1A11235   0.430  20.595   8.550
 3929POPC   D2A11236   0.444  20.628   8.250
 3929POPC   C3A11237   0.450  20.563   7.950
 3929POPC   C4A11238   0.488  20.572   7.650
 3929POPC   C1B11239   0.544  20.881   8.550
 3929POPC   C2B11240   0.509  20.895   8.250
 3929POPC   C3B11241   0.514  20.802   7.950
 3929POPC   C4B11242   0.547  20.828   7.650
 3930POPC   NC311243  15.198   1.998   9.450
 3930POPC   PO411244  15.157   1.979   9.150
 3930POPC   GL111245  15.220   1.980   8.850
 3930POPC   GL211246  15.290   1.963   8.850
 3930POPC   C1A11247  15.131   2.002   8.550
 3930POPC   D2A11248  15.164   2.024   8.250
 3930POPC   C3A11249  15.156   2.034   7.950
 3930POPC   C4A11250  15.200   1.995   7.650
 3930POPC   C1B11251  15.440   1.907   8.550
 3930POPC   C2B11252  15.450   1.926   8.250
 3930POPC   C3B11253  15.381   1.948   7.950
 3930POPC   C4B11254  15.415   1.929   7.650
 3931POPC   NC311255  42.335  28.414   9.450
 3931POPC   PO411256  42.357  28.366   9.150
 3931POPC   GL111257  42.356  28.327   8.850
 3931POPC   GL211258  42.347  28.218   8.850
 3931POPC   C1A11259  42.365  28.385   8.550
 3931POPC   D2A11260  42.341  28.375   8.250
 3931POPC   C3A11261  42.325  28.378   7.950
 3931POPC   C4A11262  42.369  28.323   7.650
 3931POPC   C1B11263  42.406  28.089   8.550
 3931POPC   C2B11264  42.340  28.092   8.250
 3931POPC   C3B11265  42.343  28.156   7.950
 3931POPC   C4B11266  42.388  28.142   7.650
 3932POPC   NC311267  14.445  13.605   9.450
 3932POPC   PO411268  14.363  13.596   9.150
 3932POPC   GL111269  14.388  13.644   8.850
 3932POPC   GL211270  14.288  13.515   8.850
 3932POPC   C1A11271  14.438  13.671   8.550
 3932POPC   D2A11272  14.439  13.594   8.250
 3932POPC   C3A11273  14.401  13.654   7.950
 3932POPC   C4A11274  14.354  13.591   7.650
 3932POPC   C1B11275  14.209  13.433   8.550
 3932POPC   C2B11276  14.251  13.440   8.250
 3932POPC   C3B11277  14.181  13.482   7.950
 3932POPC   C4B11278  14.185  13.492   7.650
 3933POPC   NC311279  14.401   2.003   9.450
 3933POPC   PO411280  14.355   1.954   9.150
 3933POPC   GL111281  14.417   1.993   8.850
 3933POPC   GL211282  14.373   2.078   8.850
 3933POPC   C1A11283  14.379   1.962   8.550
 3933POPC   D2A11284  14.395   1.992   8.250
 3933POPC   C3A11285  14.395   1.942   7.950
 3933POPC   C4A11286  14.430   1.943   7.650
 3933POPC   C1B11287  14.368   2.203   8.550
 3933POPC   C2B11288  14.331   2.191   8.250
 3933POPC   C3B11289  14.362   2.229   7.950
 3933POPC   C4B11290  14.388   2.223   7.650
 3934POPC   NC311291  28.412  29.170   9.450
 3934POPC   PO411292  28.321  29.142   9.150
 3934POPC   GL111293  28.330  29.131   8.850
 3934POPC   GL211294  28.331  28.998   8.850
 3934POPC   C1A11295  28.353  29.143   8.550
 3934POPC   D2A11296  28.399  29.184   8.250
 3934POPC   C3A11297  28.351  29.186   7.950
 3934POPC   C4A11298  28.332  29.173   7.650
 3934POPC   C1B11299  28.185  28.957   8.550
 3934POPC   C2B11300  28.175  28.934   8.250
 3934POPC   C3B11301  28.241  28.940   7.950
 3934POPC   C4B11302  28.212  28.939   7.650
 3935POPC   NC311303  36.164  41.548   9.450
 3935POPC   PO411304  36.125  41.543   9.150
 3935POPC   GL111305  36.123  41.525   8.850
 3935POPC   GL211306  36.281  41.652   8.850
 3935POPC   C1A11307  36.101  41.555   8.550
 3935POPC   D2A11308  36.109  41.605   8.250
 3935POPC   C3A11309  36.097  41.532   7.950
 3935POPC   C4A11310  36.149  41.574   7.650
 3935POPC   C1B11311  36.315  41.691   8.550
 3935POPC   C2B11312  36.357  41.712   8.250
 3935POPC   C3B11313  36.351  41.677   7.950
 3935POPC   C4B11314  36.336  41.629   7.650
 3936POPC   NC311315   4.314  14.453   9.450
 3936POPC   PO411316   4.305  14.404   9.150
 3936POPC   GL111317   4.331  14.422   8.850
 3936POPC   GL211318   4.434  14.428   8.850
 3936POPC   C1A11319   4.340  14.395   8.550
 3936POPC   D2A11320   4.348  14.360   8.250
 3936POPC   C3A11321   4.320  14.441   7.950
 3936POPC   C4A11322   4.299  14.390   7.650
 3936POPC   C1B11323   4.518  14.476   8.550
 3936POPC   C2B11324   4.524  14.448   8.250
 3936POPC   C3B11325   4.528  14.408   7.950
 3936POPC   C4B11326   4.586  14.444   7.650
 3937POPC   NC311327  38.436  31.488   9.450
 3937POPC   PO411328  38.427  31.479   9.150
 3937POPC   GL111329  38.417  31.450   8.850
 3937POPC   GL211330  38.609  31.507   8.850
 3937POPC   C1A11331  38.445  31.508   8.550
 3937POPC   D2A11332  38.466  31.488   8.250
 3937POPC   C3A11333  38.501  31.522   7.950
 3937POPC   C4A11334  38.429  31.486   7.650
 3937POPC   C1B11335  38.749  31.424   8.550
 3937POPC   C2B11336  38.700  31.483   8.250
 3937POPC   C3B11337  38.710  31.448   7.950
 3937POPC   C4B11338  38.660  31.417   7.650
 3938POPC   NC311339   2.797  17.512   9.450
 3938POPC   PO411340   2.749  17.520   9.150
 3938POPC   GL111341   2.767  17.469   8.850
 3938POPC   GL211342   2.684  17.496   8.850
 3938POPC   C1A11343   2.718  17.531   8.550
 3938POPC   D2A11344   2.793  17.472   8.250
 3938POPC   C3A11345   2.791  17.492   7.950
 3938POPC   C4A11346   2.746  17.517   7.650
 3938POPC   C1B11347   2.521  17.542   8.550
 3938POPC   C2B11348   2.494  17.558   8.250
 3938POPC   C3B11349   2.515  17.534   7.950
 3938POPC   C4B11350   2.536  17.476   7.650
 3939POPC   NC311351  28.323   3.541   9.450
 3939POPC   PO411352  28.326   3.590   9.150
 3939POPC   GL111353  28.353   3.532   8.850
 3939POPC   GL211354  28.235   3.456   8.850
 3939POPC   C1A11355  28.405   3.512   8.550
 3939POPC   D2A11356  28.344   3.582   8.250
 3939POPC   C3A11357  28.372   3.510   7.950
 3939POPC   C4A11358  28.374   3.499   7.650
 3939POPC   C1B11359  28.120   3.382   8.550
 3939POPC   C2B11360  28.131   3.359   8.250
 3939POPC   C3B11361  28.205   3.447   7.950
 3939POPC   C4B11362  28.210   3.434   7.650
 3940POPC   NC311363  29.893   5.060   9.450
 3940POPC   PO411364  29.941   5.069   9.150
 3940POPC   GL111365  29.902   5.139   8.850
 3940POPC   GL211366  29.803   5.019   8.850
 3940POPC   C1A11367  29.916   5.122   8.550
 3940POPC   D2A11368  29.898   5.064   8.250
 3940POPC   C3A11369  29.896   5.126   7.950
 3940POPC   C4A11370  29.913   5.107   7.650
 3940POPC   C1B11371  29.638   4.992   8.550
 3940POPC   C2B11372  29.658   4.994   8.250
 3940POPC   C3B11373  29.642   4.985   7.950
 3940POPC   C4B11374  29.643   5.058   7.650
 3941POPC   NC311375  22.961  11.254   9.450
 3941POPC   PO411376  22.920  11.304   9.150
 3941POPC   GL111377  22.918  11.316   8.850
 3941POPC   GL211378  22.841  11.364   8.850
 3941POPC   C1A11379  22.972  11.331   8.550
 3941POPC   D2A11380  22.898  11.345   8.250
 3941POPC   C3A11381  22.969  11.309   7.950
 3941POPC   C4A11382  22.941  11.294   7.650
 3941POPC   C1B11383  22.792  11.537   8.550
 3941POPC   C2B11384  22.765  11.458   8.250
 3941POPC   C3B11385  22.818  11.460   7.950
 3941POPC   C4B11386  22.773  11.442   7.650
 3942POPC   NC311387  20.626   1.239   9.450
 3942POPC   PO411388  20.638   1.208   9.150
 3942POPC   GL111389  20.613   1.226   8.850
 3942POPC   GL211390  20.604   1.086   8.850
 3942POPC   C1A11391  20.581   1.230   8.550
 3942POPC   D2A11392  20.649   1.209   8.250
 3942POPC   C3A11393  20.659   1.234   7.950
 3942POPC   C4A11394  20.565   1.225   7.650
 3942POPC   C1B11395  20.629   0.974   8.550
 3942POPC   C2B11396  20.547   0.968   8.250
 3942POPC   C3B11397  20.624   0.958   7.950
 3942POPC   C4B11398  20.608   0.931   7.650
 3943POPC   NC311399  11.335   4.353   9.450
 3943POPC   PO411400  11.343   4.318   9.150
 3943POPC   GL111401  11.295   4.351   8.850
 3943POPC   GL211402  11.183   4.335   8.850
 3943POPC   C1A11403  11.272   4.307   8.550
 3943POPC   D2A11404  11.340   4.286   8.250
 3943POPC   C3A11405  11.267   4.365   7.950
 3943POPC   C4A11406  11.278   4.349   7.650
 3943POPC   C1B11407  11.081   4.333   8.550
 3943POPC   C2B11408  11.046   4.276   8.250
 3943POPC   C3B11409  11.054   4.288   7.950
 3943POPC   C4B11410  11.056   4.279   7.650
 3944POPC   NC311411   6.629  43.919   9.450
 3944POPC   PO411412   6.658  43.911   9.150
 3944POPC   GL111413   6.619  43.935   8.850
 3944POPC   GL211414   6.580  43.788   8.850
 3944POPC   C1A11415   6.635  43.843   8.550
 3944POPC   D2A11416   6.690  43.922   8.250
 3944POPC   C3A11417   6.611  43.917   7.950
 3944POPC   C4A11418   6.667  43.900   7.650
 3944POPC   C1B11419   6.425  43.770   8.550
 3944POPC   C2B11420   6.407  43.736   8.250
 3944POPC   C3B11421   6.430  43.681   7.950
 3944POPC   C4B11422   6.456  43.746   7.650
 3945POPC   NC311423  11.281  12.054   9.450
 3945POPC   PO411424  11.292  12.124   9.150
 3945POPC   GL111425  11.279  12.112   8.850
 3945POPC   GL211426  11.258  11.979   8.850
 3945POPC   C1A11427  11.311  12.104   8.550
 3945POPC   D2A11428  11.336  12.059   8.250
 3945POPC   C3A11429  11.269  12.086   7.950
 3945POPC   C4A11430  11.323  12.116   7.650
 3945POPC   C1B11431  11.262  11.794   8.550
 3945POPC   C2B11432  11.225  11.823   8.250
 3945POPC   C3B11433  11.194  11.844   7.950
 3945POPC   C4B11434  11.274  11.834   7.650
 3946POPC   NC311435  43.921  37.709   9.450
 3946POPC   PO411436  43.903  37.676   9.150
 3946POPC   GL111437  43.871  37.678   8.850
 3946POPC   GL211438  43.819  37.549   8.850
 3946POPC   C1A11439  43.864  37.706   8.550
 3946POPC   D2A11440  43.853  37.648   8.250
 3946POPC   C3A11441  43.916  37.668   7.950
 3946POPC   C4A11442  43.917  37.712   7.650
 3946POPC   C1B11443  43.666  37.547   8.550
 3946POPC   C2B11444  43.723  37.530   8.250
 3946POPC   C3B11445  43.665  37.482   7.950
 3946POPC   C4B11446  43.665  37.533   7.650
 3947POPC   NC311447  13.673  28.410   9.450
 3947POPC   PO411448  13.675  28.410   9.150
 3947POPC   GL111449  13.591  28.404   8.850
 3947POPC   GL211450  13.593  28.245   8.850
 3947POPC   C1A11451  13.627  28.389   8.550
 3947POPC   D2A11452  13.664  28.387   8.250
 3947POPC   C3A11453  13.657  28.350   7.950
 3947POPC   C4A11454  13.601  28.394   7.650
 3947POPC   C1B11455  13.417  28.225   8.550
 3947POPC   C2B11456  13.507  28.203   8.250
 3947POPC   C3B11457  13.449  28.231   7.950
 3947POPC   C4B11458  13.494  28.175   7.650
 3948POPC   NC311459  12.107   7.418   9.450
 3948POPC   PO411460  12.032   7.429   9.150
 3948POPC   GL111461  12.082   7.396   8.850
 3948POPC   GL211462  12.216   7.345   8.850
 3948POPC   C1A11463  12.090   7.462   8.550
 3948POPC   D2A11464  12.080   7.418   8.250
 3948POPC   C3A11465  12.057   7.389   7.950
 3948POPC   C4A11466  12.077   7.407   7.650
 3948POPC   C1B11467  12.350   7.326   8.550
 3948POPC   C2B11468  12.314   7.366   8.250
 3948POPC   C3B11469  12.334   7.321   7.950
 3948POPC   C4B11470  12.290   7.344   7.650
 3949POPC   NC311471  31.462  29.951   9.450
 3949POPC   PO411472  31.479  29.892   9.150
 3949POPC   GL111473  31.479  29.907   8.850
 3949POPC   GL211474  31.520  29.797   8.850
 3949POPC   C1A11475  31.479  29.958   8.550
 3949POPC   D2A11476  31.472  29.929   8.250
 3949POPC   C3A11477  31.423  29.956   7.950
 3949POPC   C4A11478  31.445  29.926   7.650
 3949POPC   C1B11479  31.502  29.679   8.550
 3949POPC   C2B11480  31.513  29.652   8.250
 3949POPC   C3B11481  31.585  29.676   7.950
 3949POPC   C4B11482  31.515  29.653   7.650
 3950POPC   NC311483  33.817  19.837   9.450
 3950POPC   PO411484  33.765  19.824   9.150
 3950POPC   GL111485  33.846  19.808   8.850
 3950POPC   GL211486  33.650  19.872   8.850
 3950POPC   C1A11487  33.778  19.809   8.550
 3950POPC   D2A11488  33.751  19.810   8.250
 3950POPC   C3A11489  33.816  19.838   7.950
 3950POPC   C4A11490  33.815  19.832   7.650
 3950POPC   C1B11491  33.560  19.857   8.550
 3950POPC   C2B11492  33.555  19.859   8.250
 3950POPC   C3B11493  33.593  19.808   7.950
 3950POPC   C4B11494  33.527  19.850   7.650
 3951POPC   NC311495  39.250   5.865   9.450
 3951POPC   PO411496  39.237   5.917   9.150
 3951POPC   GL111497  39.237   5.908   8.850
 3951POPC   GL211498  39.149   5.772   8.850
 3951POPC   C1A11499  39.224   5.845   8.550
 3951POPC   D2A11500  39.255   5.871   8.250
 3951POPC   C3A11501  39.216   5.904   7.950
 3951POPC   C4A11502  39.229   5.877   7.650
 3951POPC   C1B11503  39.144   5.661   8.550
 3951POPC   C2B11504  39.084   5.664   8.250
 3951POPC   C3B11505  39.130   5.642   7.950
 3951POPC   C4B11506  39.179   5.627   7.650
 3952POPC   NC311507  39.987  40.813   9.450
 3952POPC   PO411508  39.991  40.821   9.150
 3952POPC   GL111509  40.041  40.819   8.850
 3952POPC   GL211510  40.119  40.814   8.850
 3952POPC   C1A11511  40.032  40.809   8.550
 3952POPC   D2A11512  40.035  40.790   8.250
 3952POPC   C3A11513  39.998  40.780   7.950
 3952POPC   C4A11514  39.984  40.791   7.650
 3952POPC   C1B11515  40.288  40.826   8.550
 3952POPC   C2B11516  40.202  40.835   8.250
 3952POPC   C3B11517  40.256  40.856   7.950
 3952POPC   C4B11518  40.211  40.844   7.650
 3953POPC   NC311519  42.350  33.012   9.450
 3953POPC   PO411520  42.316  33.061   9.150
 3953POPC   GL111521  42.292  33.020   8.850
 3953POPC   GL211522  42.359  32.921   8.850
 3953POPC   C1A11523  42.285  33.001   8.550
 3953POPC   D2A11524  42.343  33.062   8.250
 3953POPC   C3A11525  42.363  33.066   7.950
 3953POPC   C4A11526  42.292  32.994   7.650
 3953POPC   C1B11527  42.493  32.790   8.550
 3953POPC   C2B11528  42.429  32.773   8.250
 3953POPC   C3B11529  42.430  32.795   7.950
 3953POPC   C4B11530  42.467  32.824   7.650
 3954POPC   NC311531  40.810  24.524   9.450
 3954POPC   PO411532  40.757  24.493   9.150
 3954POPC   GL111533  40.767  24.533   8.850
 3954POPC   GL211534  40.764  24.650   8.850
 3954POPC   C1A11535  40.797  24.474   8.550
 3954POPC   D2A11536  40.830  24.502   8.250
 3954POPC   C3A11537  40.775  24.524   7.950
 3954POPC   C4A11538  40.735  24.496   7.650
 3954POPC   C1B11539  40.828  24.772   8.550
 3954POPC   C2B11540  40.859  24.710   8.250
 3954POPC   C3B11541  40.812  24.761   7.950
 3954POPC   C4B11542  40.803  24.711   7.650
 3955POPC   NC311543  39.273   4.274   9.450
 3955POPC   PO411544  39.272   4.272   9.150
 3955POPC   GL111545  39.239   4.349   8.850
 3955POPC   GL211546  39.229   4.426   8.850
 3955POPC   C1A11547  39.266   4.339   8.550
 3955POPC   D2A11548  39.272   4.293   8.250
 3955POPC   C3A11549  39.221   4.361   7.950
 3955POPC   C4A11550  39.276   4.311   7.650
 3955POPC   C1B11551  39.285   4.549   8.550
 3955POPC   C2B11552  39.230   4.569   8.250
 3955POPC   C3B11553  39.246   4.583   7.950
 3955POPC   C4B11554  39.193   4.583   7.650
 3956POPC   NC311555  26.079  12.849   9.450
 3956POPC   PO411556  26.027  12.814   9.150
 3956POPC   GL111557  26.030  12.830   8.850
 3956POPC   GL211558  26.041  12.733   8.850
 3956POPC   C1A11559  26.079  12.827   8.550
 3956POPC   D2A11560  26.035  12.803   8.250
 3956POPC   C3A11561  26.000  12.835   7.950
 3956POPC   C4A11562  26.029  12.856   7.650
 3956POPC   C1B11563  25.955  12.584   8.550
 3956POPC   C2B11564  25.917  12.662   8.250
 3956POPC   C3B11565  25.932  12.623   7.950
 3956POPC   C4B11566  25.992  12.657   7.650
 3957POPC   NC311567  29.116   1.250   9.450
 3957POPC   PO411568  29.149   1.232   9.150
 3957POPC   GL111569  29.113   1.256   8.850
 3957POPC   GL211570  29.106   1.314   8.850
 3957POPC   C1A11571  29.146   1.255   8.550
 3957POPC   D2A11572  29.163   1.228   8.250
 3957POPC   C3A11573  29.095   1.242   7.950
 3957POPC   C4A11574  29.170   1.247   7.650
 3957POPC   C1B11575  29.063   1.410   8.550
 3957POPC   C2B11576  29.059   1.422   8.250
 3957POPC   C3B11577  29.073   1.501   7.950
 3957POPC   C4B11578  29.048   1.418   7.650
 3958POPC   NC311579  19.023  43.876   9.450
 3958POPC   PO411580  19.018  43.892   9.150
 3958POPC   GL111581  19.022  43.887   8.850
 3958POPC   GL211582  18.994  43.759   8.850
 3958POPC   C1A11583  19.070  43.867   8.550
 3958POPC   D2A11584  19.071  43.864   8.250
 3958POPC   C3A11585  19.053  43.857   7.950
 3958POPC   C4A11586  19.096  43.913   7.650
 3958POPC   C1B11587  18.930  43.678   8.550
 3958POPC   C2B11588  18.948  43.699   8.250
 3958POPC   C3B11589  18.973  43.620   7.950
 3958POPC   C4B11590  18.898  43.665   7.650
 3959POPC   NC311591  35.381  36.877   9.450
 3959POPC   PO411592  35.395  36.864   9.150
 3959POPC   GL111593  35.336  36.914   8.850
 3959POPC   GL211594  35.479  36.979   8.850
 3959POPC   C1A11595  35.312  36.918   8.550
 3959POPC   D2A11596  35.366  36.887   8.250
 3959POPC   C3A11597  35.383  36.952   7.950
 3959POPC   C4A11598  35.347  36.886   7.650
 3959POPC   C1B11599  35.519  37.018   8.550
 3959POPC   C2B11600  35.554  37.042   8.250
 3959POPC   C3B11601  35.611  37.062   7.950
 3959POPC   C4B11602  35.608  36.996   7.650
 3960POPC   NC311603  36.930  22.172   9.450
 3960POPC   PO411604  36.874  22.184   9.150
 3960POPC   GL111605  36.877  22.168   8.850
 3960POPC   GL211606  36.813  22.285   8.850
 3960POPC   C1A11607  36.859  22.114   8.550
 3960POPC   D2A11608  36.880  22.114   8.250
 3960POPC   C3A11609  36.888  22.195   7.950
 3960POPC   C4A11610  36.900  22.202   7.650
 3960POPC   C1B11611  36.692  22.294   8.550
 3960POPC   C2B11612  36.738  22.297   8.250
 3960POPC   C3B11613  36.699  22.324   7.950
 3960POPC   C4B11614  36.685  22.352   7.650
 3961POPC   NC311615  13.588  36.086   9.450
 3961POPC   PO411616  13.600  36.114   9.150
 3961POPC   GL111617  13.581  36.151   8.850
 3961POPC   GL211618  13.705  36.059   8.850
 3961POPC   C1A11619  13.650  36.114   8.550
 3961POPC   D2A11620  13.589  36.117   8.250
 3961POPC   C3A11621  13.644  36.161   7.950
 3961POPC   C4A11622  13.632  36.127   7.650
 3961POPC   C1B11623  13.712  35.851   8.550
 3961POPC   C2B11624  13.680  35.934   8.250
 3961POPC   C3B11625  13.684  35.859   7.950
 3961POPC   C4B11626  13.700  35.904   7.650
 3962POPC   NC311627  32.202  18.271   9.450
 3962POPC   PO411628  32.235  18.252   9.150
 3962POPC   GL111629  32.277  18.300   8.850
 3962POPC   GL211630  32.281  18.154   8.850
 3962POPC   C1A11631  32.283  18.318   8.550
 3962POPC   D2A11632  32.245  18.271   8.250
 3962POPC   C3A11633  32.224  18.322   7.950
 3962POPC   C4A11634  32.276  18.285   7.650
 3962POPC   C1B11635  32.329  18.092   8.550
 3962POPC   C2B11636  32.383  18.083   8.250
 3962POPC   C3B11637  32.355  18.051   7.950
 3962POPC   C4B11638  32.373  18.038   7.650
 3963POPC   NC311639  42.304  29.952   9.450
 3963POPC   PO411640  42.295  29.907   9.150
 3963POPC   GL111641  42.373  29.910   8.850
 3963POPC   GL211642  42.370  30.030   8.850
 3963POPC   C1A11643  42.348  29.937   8.550
 3963POPC   D2A11644  42.339  29.935   8.250
 3963POPC   C3A11645  42.339  29.901   7.950
 3963POPC   C4A11646  42.318  29.928   7.650
 3963POPC   C1B11647  42.538  30.119   8.550
 3963POPC   C2B11648  42.516  30.069   8.250
 3963POPC   C3B11649  42.497  30.099   7.950
 3963POPC   C4B11650  42.543  30.125   7.650
 3964POPC   NC311651  20.580  19.069   9.450
 3964POPC   PO411652  20.631  19.063   9.150
 3964POPC   GL111653  20.574  19.048   8.850
 3964POPC   GL211654  20.739  19.099   8.850
 3964POPC   C1A11655  20.633  19.039   8.550
 3964POPC   D2A11656  20.589  19.046   8.250
 3964POPC   C3A11657  20.615  19.034   7.950
 3964POPC   C4A11658  20.618  19.034   7.650
 3964POPC   C1B11659  20.824  19.152   8.550
 3964POPC   C2B11660  20.879  19.176   8.250
 3964POPC   C3B11661  20.857  19.215   7.950
 3964POPC   C4B11662  20.825  19.180   7.650
 3965POPC   NC311663   1.202  43.916   9.450
 3965POPC   PO411664   1.183  43.880   9.150
 3965POPC   GL111665   1.186  43.880   8.850
 3965POPC   GL211666   1.128  44.009   8.850
 3965POPC   C1A11667   1.238  43.841   8.550
 3965POPC   D2A11668   1.240  43.886   8.250
 3965POPC   C3A11669   1.182  43.926   7.950
 3965POPC   C4A11670   1.244  43.872   7.650
 3965POPC   C1B11671   1.076  44.084   8.550
 3965POPC   C2B11672   1.122  44.074   8.250
 3965POPC   C3B11673   1.096  44.062   7.950
 3965POPC   C4B11674   1.078  44.098   7.650
 3966POPC   NC311675  31.428   1.264   9.450
 3966POPC   PO411676  31.455   1.236   9.150
 3966POPC   GL111677  31.432   1.200   8.850
 3966POPC   GL211678  31.436   1.066   8.850
 3966POPC   C1A11679  31.510   1.223   8.550
 3966POPC   D2A11680  31.521   1.198   8.250
 3966POPC   C3A11681  31.510   1.213   7.950
 3966POPC   C4A11682  31.439   1.173   7.650
 3966POPC   C1B11683  31.392   0.972   8.550
 3966POPC   C2B11684  31.383   0.999   8.250
 3966POPC   C3B11685  31.430   0.953   7.950
 3966POPC   C4B11686  31.372   0.947   7.650
 3967POPC   NC311687  28.350  13.668   9.450
 3967POPC   PO411688  28.339  13.625   9.150
 3967POPC   GL111689  28.384  13.637   8.850
 3967POPC   GL211690  28.303  13.782   8.850
 3967POPC   C1A11691  28.351  13.588   8.550
 3967POPC   D2A11692  28.343  13.618   8.250
 3967POPC   C3A11693  28.358  13.672   7.950
 3967POPC   C4A11694  28.391  13.676   7.650
 3967POPC   C1B11695  28.203  13.808   8.550
 3967POPC   C2B11696  28.214  13.797   8.250
 3967POPC   C3B11697  28.237  13.841   7.950
 3967POPC   C4B11698  28.261  13.814   7.650
 3968POPC   NC311699   2.035  19.849   9.450
 3968POPC   PO411700   2.021  19.874   9.150
 3968POPC   GL111701   2.027  19.872   8.850
 3968POPC   GL211702   1.854  19.787   8.850
 3968POPC   C1A11703   2.022  19.787   8.550
 3968POPC   D2A11704   2.039  19.812   8.250
 3968POPC   C3A11705   1.961  19.841   7.950
 3968POPC   C4A11706   2.025  19.812   7.650
 3968POPC   C1B11707   1.817  19.664   8.550
 3968POPC   C2B11708   1.772  19.721   8.250
 3968POPC   C3B11709   1.743  19.751   7.950
 3968POPC   C4B11710   1.806  19.686   7.650
 3969POPC   NC311711  41.595  33.014   9.450
 3969POPC   PO411712  41.523  32.977   9.150
 3969POPC   GL111713  41.601  32.978   8.850
 3969POPC   GL211714  41.623  33.150   8.850
 3969POPC   C1A11715  41.551  33.068   8.550
 3969POPC   D2A11716  41.606  33.000   8.250
 3969POPC   C3A11717  41.568  33.018   7.950
 3969POPC   C4A11718  41.549  33.071   7.650
 3969POPC   C1B11719  41.743  33.228   8.550
 3969POPC   C2B11720  41.741  33.160   8.250
 3969POPC   C3B11721  41.729  33.211   7.950
 3969POPC   C4B11722  41.750  33.162   7.650
 3970POPC   NC311723   1.241  36.155   9.450
 3970POPC   PO411724   1.256  36.166   9.150
 3970POPC   GL111725   1.231  36.170   8.850
 3970POPC   GL211726   1.048  36.101   8.850
 3970POPC   C1A11727   1.237  36.137   8.550
 3970POPC   D2A11728   1.248  36.111   8.250
 3970POPC   C3A11729   1.203  36.169   7.950
 3970POPC   C4A11730   1.234  36.100   7.650
 3970POPC   C1B11731   0.946  36.037   8.550
 3970POPC   C2B11732   0.978  36.065   8.250
 3970POPC   C3B11733   0.959  36.062   7.950
 3970POPC   C4B11734   0.947  36.060   7.650
 3971POPC   NC311735  43.917  41.513   9.450
 3971POPC   PO411736  43.851  41.536   9.150
 3971POPC   GL111737  43.904  41.528   8.850
 3971POPC   GL211738  43.782  41.501   8.850
 3971POPC   C1A11739  43.840  41.566   8.550
 3971POPC   D2A11740  43.842  41.527   8.250
 3971POPC   C3A11741  43.905  41.511   7.950
 3971POPC   C4A11742  43.919  41.577   7.650
 3971POPC   C1B11743  43.606  41.484   8.550
 3971POPC   C2B11744  43.600  41.493   8.250
 3971POPC   C3B11745  43.634  41.516   7.950
 3971POPC   C4B11746  43.600  41.497   7.650
 3972POPC   NC311747  25.234  43.931   9.450
 3972POPC   PO411748  25.303  43.868   9.150
 3972POPC   GL111749  25.225  43.893   8.850
 3972POPC   GL211750  25.329  43.988   8.850
 3972POPC   C1A11751  25.306  43.926   8.550
 3972POPC   D2A11752  25.290  43.881   8.250
 3972POPC   C3A11753  25.244  43.891   7.950
 3972POPC   C4A11754  25.273  43.925   7.650
 3972POPC   C1B11755  25.466  44.073   8.550
 3972POPC   C2B11756  25.397  44.109   8.250
 3972POPC   C3B11757  25.418  44.073   7.950
 3972POPC   C4B11758  25.396  44.084   7.650
 3973POPC   NC311759  38.409  28.417   9.450
 3973POPC   PO411760  38.483  28.404   9.150
 3973POPC   GL111761  38.488  28.352   8.850
 3973POPC   GL211762  38.381  28.455   8.850
 3973POPC   C1A11763  38.440  28.409   8.550
 3973POPC   D2A11764  38.462  28.361   8.250
 3973POPC   C3A11765  38.500  28.399   7.950
 3973POPC   C4A11766  38.418  28.366   7.650
 3973POPC   C1B11767  38.220  28.468   8.550
 3973POPC   C2B11768  38.266  28.472   8.250
 3973POPC   C3B11769  38.206  28.464   7.950
 3973POPC   C4B11770  38.190  28.487   7.650
 3974POPC   NC311771  22.980   8.963   9.450
 3974POPC   PO411772  22.918   8.940   9.150
 3974POPC   GL111773  22.932   8.968   8.850
 3974POPC   GL211774  22.933   8.825   8.850
 3974POPC   C1A11775  22.977   8.961   8.550
 3974POPC   D2A11776  22.967   8.954   8.250
 3974POPC   C3A11777  22.925   8.924   7.950
 3974POPC   C4A11778  22.909   8.965   7.650
 3974POPC   C1B11779  22.882   8.757   8.550
 3974POPC   C2B11780  22.881   8.761   8.250
 3974POPC   C3B11781  22.851   8.722   7.950
 3974POPC   C4B11782  22.847   8.758   7.650
 3975POPC   NC311783  42.295  11.287   9.450
 3975POPC   PO411784  42.352  11.256   9.150
 3975POPC   GL111785  42.382  11.344   8.850
 3975POPC   GL211786  42.311  11.404   8.850
 3975POPC   C1A11787  42.341  11.324   8.550
 3975POPC   D2A11788  42.369  11.318   8.250
 3975POPC   C3A11789  42.328  11.291   7.950
 3975POPC   C4A11790  42.288  11.329   7.650
 3975POPC   C1B11791  42.216  11.513   8.550
 3975POPC   C2B11792  42.206  11.558   8.250
 3975POPC   C3B11793  42.263  11.567   7.950
 3975POPC   C4B11794  42.283  11.492   7.650
 3976POPC   NC311795   1.195  14.378   9.450
 3976POPC   PO411796   1.195  14.434   9.150
 3976POPC   GL111797   1.233  14.365   8.850
 3976POPC   GL211798   1.140  14.411   8.850
 3976POPC   C1A11799   1.229  14.354   8.550
 3976POPC   D2A11800   1.261  14.362   8.250
 3976POPC   C3A11801   1.197  14.410   7.950
 3976POPC   C4A11802   1.212  14.429   7.650
 3976POPC   C1B11803   0.984  14.291   8.550
 3976POPC   C2B11804   1.006  14.371   8.250
 3976POPC   C3B11805   0.955  14.360   7.950
 3976POPC   C4B11806   0.961  14.343   7.650
 3977POPC   NC311807   4.292   8.183   9.450
 3977POPC   PO411808   4.350   8.223   9.150
 3977POPC   GL111809   4.363   8.150   8.850
 3977POPC   GL211810   4.362   8.136   8.850
 3977POPC   C1A11811   4.280   8.198   8.550
 3977POPC   D2A11812   4.286   8.154   8.250
 3977POPC   C3A11813   4.312   8.221   7.950
 3977POPC   C4A11814   4.352   8.189   7.650
 3977POPC   C1B11815   4.466   8.001   8.550
 3977POPC   C2B11816   4.447   8.010   8.250
 3977POPC   C3B11817   4.484   8.001   7.950
 3977POPC   C4B11818   4.448   8.008   7.650
 3978POPC   NC311819  36.899  32.264   9.450
 3978POPC   PO411820  36.863  32.289   9.150
 3978POPC   GL111821  36.930  32.232   8.850
 3978POPC   GL211822  36.978  32.203   8.850
 3978POPC   C1A11823  36.869  32.274   8.550
 3978POPC   D2A11824  36.943  32.257   8.250
 3978POPC   C3A11825  36.882  32.218   7.950
 3978POPC   C4A11826  36.889  32.237   7.650
 3978POPC   C1B11827  37.150  32.191   8.550
 3978POPC   C2B11828  37.136  32.237   8.250
 3978POPC   C3B11829  37.200  32.232   7.950
 3978POPC   C4B11830  37.184  32.185   7.650
 3979POPC   NC311831  27.549  35.322   9.450
 3979POPC   PO411832  27.569  35.381   9.150
 3979POPC   GL111833  27.601  35.323   8.850
 3979POPC   GL211834  27.520  35.282   8.850
 3979POPC   C1A11835  27.556  35.376   8.550
 3979POPC   D2A11836  27.607  35.399   8.250
 3979POPC   C3A11837  27.578  35.349   7.950
 3979POPC   C4A11838  27.628  35.329   7.650
 3979POPC   C1B11839  27.496  35.172   8.550
 3979POPC   C2B11840  27.499  35.152   8.250
 3979POPC   C3B11841  27.473  35.092   7.950
 3979POPC   C4B11842  27.500  35.147   7.650
 3980POPC   NC311843  32.244  22.123   9.450
 3980POPC   PO411844  32.283  22.141   9.150
 3980POPC   GL111845  32.242  22.199   8.850
 3980POPC   GL211846  32.205  22.096   8.850
 3980POPC   C1A11847  32.288  22.191   8.550
 3980POPC   D2A11848  32.230  22.212   8.250
 3980POPC   C3A11849  32.284  22.133   7.950
 3980POPC   C4A11850  32.246  22.200   7.650
 3980POPC   C1B11851  32.173  21.900   8.550
 3980POPC   C2B11852  32.175  21.960   8.250
 3980POPC   C3B11853  32.127  21.937   7.950
 3980POPC   C4B11854  32.161  21.934   7.650
 3981POPC   NC311855  43.885   1.207   9.450
 3981POPC   PO411856  43.914   1.256   9.150
 3981POPC   GL111857  43.909   1.204   8.850
 3981POPC   GL211858  43.948   1.136   8.850
 3981POPC   C1A11859  43.846   1.181   8.550
 3981POPC   D2A11860  43.878   1.219   8.250
 3981POPC   C3A11861  43.910   1.194   7.950
 3981POPC   C4A11862  43.856   1.177   7.650
 3981POPC   C1B11863  44.033   1.000   8.550
 3981POPC   C2B11864  44.003   0.955   8.250
 3981POPC   C3B11865  43.969   1.000   7.950
 3981POPC   C4B11866  44.002   0.957   7.650
 3982POPC   NC311867   3.555  31.442   9.450
 3982POPC   PO411868   3.537  31.458   9.150
 3982POPC   GL111869   3.537  31.472   8.850
 3982POPC   GL211870   3.633  31.483   8.850
 3982POPC   C1A11871   3.527  31.483   8.550
 3982POPC   D2A11872   3.560  31.461   8.250
 3982POPC   C3A11873   3.543  31.472   7.950
 3982POPC   C4A11874   3.570  31.499   7.650
 3982POPC   C1B11875   3.832  31.534   8.550
 3982POPC   C2B11876   3.818  31.535   8.250
 3982POPC   C3B11877   3.818  31.500   7.950
 3982POPC   C4B11878   3.754  31.495   7.650
 3983POPC   NC311879  21.350  21.366   9.450
 3983POPC   PO411880  21.341  21.364   9.150
 3983POPC   GL111881  21.358  21.374   8.850
 3983POPC   GL211882  21.294  21.297   8.850
 3983POPC   C1A11883  21.375  21.342   8.550
 3983POPC   D2A11884  21.364  21.399   8.250
 3983POPC   C3A11885  21.337  21.414   7.950
 3983POPC   C4A11886  21.352  21.342   7.650
 3983POPC   C1B11887  21.284  21.172   8.550
 3983POPC   C2B11888  21.262  21.202   8.250
 3983POPC   C3B11889  21.290  21.159   7.950
 3983POPC   C4B11890  21.194  21.226   7.650
 3984POPC   NC311891  12.845  36.111   9.450
 3984POPC   PO411892  12.814  36.108   9.150
 3984POPC   GL111893  12.901  36.177   8.850
 3984POPC   GL211894  12.813  36.036   8.850
 3984POPC   C1A11895  12.823  36.101   8.550
 3984POPC   D2A11896  12.826  36.146   8.250
 3984POPC   C3A11897  12.882  36.101   7.950
 3984POPC   C4A11898  12.805  36.152   7.650
 3984POPC   C1B11899  12.775  35.871   8.550
 3984POPC   C2B11900  12.835  35.842   8.250
 3984POPC   C3B11901  12.844  35.837   7.950
 3984POPC   C4B11902  12.775  35.889   7.650
 3985POPC   NC311903   0.425  29.918   9.450
 3985POPC   PO411904   0.416  29.930   9.150
 3985POPC   GL111905   0.416  29.924   8.850
 3985POPC   GL211906   0.423  30.005   8.850
 3985POPC   C1A11907   0.412  29.942   8.550
 3985POPC   D2A11908   0.412  29.905   8.250
 3985POPC   C3A11909   0.424  29.949   7.950
 3985POPC   C4A11910   0.436  29.962   7.650
 3985POPC   C1B11911   0.424  30.147   8.550
 3985POPC   C2B11912   0.447  30.182   8.250
 3985POPC   C3B11913   0.418  30.209   7.950
 3985POPC   C4B11914   0.389  30.179   7.650
 3986POPC   NC311915  28.383  41.551   9.450
 3986POPC   PO411916  28.374  41.525   9.150
 3986POPC   GL111917  28.417  41.580   8.850
 3986POPC   GL211918  28.236  41.623   8.850
 3986POPC   C1A11919  28.332  41.600   8.550
 3986POPC   D2A11920  28.331  41.606   8.250
 3986POPC   C3A11921  28.394  41.524   7.950
 3986POPC   C4A11922  28.341  41.607   7.650
 3986POPC   C1B11923  28.137  41.686   8.550
 3986POPC   C2B11924  28.208  41.723   8.250
 3986POPC   C3B11925  28.215  41.679   7.950
 3986POPC   C4B11926  28.132  41.679   7.650
 3987POPC   NC311927   1.245  44.704   9.450
 3987POPC   PO411928   1.246  44.678   9.150
 3987POPC   GL111929   1.239  44.692   8.850
 3987POPC   GL211930   1.289  44.537   8.850
 3987POPC   C1A11931   1.166  44.657   8.550
 3987POPC   D2A11932   1.260  44.705   8.250
 3987POPC   C3A11933   1.226  44.693   7.950
 3987POPC   C4A11934   1.226  44.673   7.650
 3987POPC   C1B11935   1.413  44.484   8.550
 3987POPC   C2B11936   1.426  44.511   8.250
 3987POPC   C3B11937   1.394  44.535   7.950
 3987POPC   C4B11938   1.437  44.509   7.650
 3988POPC   NC311939  33.796  26.859   9.450
 3988POPC   PO411940  33.834  26.853   9.150
 3988POPC   GL111941  33.766  26.816   8.850
 3988POPC   GL211942  33.795  26.667   8.850
 3988POPC   C1A11943  33.760  26.817   8.550
 3988POPC   D2A11944  33.786  26.841   8.250
 3988POPC   C3A11945  33.820  26.859   7.950
 3988POPC   C4A11946  33.839  26.808   7.650
 3988POPC   C1B11947  33.902  26.583   8.550
 3988POPC   C2B11948  33.867  26.553   8.250
 3988POPC   C3B11949  33.926  26.593   7.950
 3988POPC   C4B11950  33.918  26.534   7.650
 3989POPC   NC311951  44.624   5.876   9.450
 3989POPC   PO411952  44.680   5.875   9.150
 3989POPC   GL111953  44.693   5.826   8.850
 3989POPC   GL211954  44.529   5.840   8.850
 3989POPC   C1A11955  44.692   5.910   8.550
 3989POPC   D2A11956  44.672   5.901   8.250
 3989POPC   C3A11957  44.624   5.820   7.950
 3989POPC   C4A11958  44.649   5.826   7.650
 3989POPC   C1B11959  44.419   5.810   8.550
 3989POPC   C2B11960  44.398   5.788   8.250
 3989POPC   C3B11961  44.370   5.817   7.950
 3989POPC   C4B11962  44.370   5.858   7.650
 3990POPC   NC311963  19.869  29.113   9.450
 3990POPC   PO411964  19.822  29.125   9.150
 3990POPC   GL111965  19.802  29.158   8.850
 3990POPC   GL211966  19.735  29.096   8.850
 3990POPC   C1A11967  19.864  29.136   8.550
 3990POPC   D2A11968  19.853  29.136   8.250
 3990POPC   C3A11969  19.838  29.177   7.950
 3990POPC   C4A11970  19.827  29.184   7.650
 3990POPC   C1B11971  19.662  29.077   8.550
 3990POPC   C2B11972  19.639  29.016   8.250
 3990POPC   C3B11973  19.572  29.012   7.950
 3990POPC   C4B11974  19.646  29.046   7.650
 3991POPC   NC311975  24.466  41.562   9.450
 3991POPC   PO411976  24.538  41.559   9.150
 3991POPC   GL111977  24.490  41.555   8.850
 3991POPC   GL211978  24.560  41.473   8.850
 3991POPC   C1A11979  24.446  41.581   8.550
 3991POPC   D2A11980  24.491  41.533   8.250
 3991POPC   C3A11981  24.508  41.533   7.950
 3991POPC   C4A11982  24.472  41.528   7.650
 3991POPC   C1B11983  24.717  41.463   8.550
 3991POPC   C2B11984  24.721  41.443   8.250
 3991POPC   C3B11985  24.685  41.471   7.950
 3991POPC   C4B11986  24.714  41.450   7.650
 3992POPC   NC311987  18.324   0.427   9.450
 3992POPC   PO411988  18.300   0.401   9.150
 3992POPC   GL111989  18.244   0.418   8.850
 3992POPC   GL211990  18.387   0.561   8.850
 3992POPC   C1A11991  18.253   0.446   8.550
 3992POPC   D2A11992  18.280   0.455   8.250
 3992POPC   C3A11993  18.242   0.450   7.950
 3992POPC   C4A11994  18.275   0.443   7.650
 3992POPC   C1B11995  18.379   0.616   8.550
 3992POPC   C2B11996  18.392   0.676   8.250
 3992POPC   C3B11997  18.441   0.635   7.950
 3992POPC   C4B11998  18.400   0.607   7.650
 3993POPC   NC311999  15.941   5.896   9.450
 3993POPC   PO412000  15.941   5.912   9.150
 3993POPC   GL112001  15.976   5.884   8.850
 3993POPC   GL212002  16.034   5.817   8.850
 3993POPC   C1A12003  15.910   5.884   8.550
 3993POPC   D2A12004  15.972   5.902   8.250
 3993POPC   C3A12005  15.968   5.822   7.950
 3993POPC   C4A12006  15.990   5.878   7.650
 3993POPC   C1B12007  16.228   5.797   8.550
 3993POPC   C2B12008  16.211   5.820   8.250
 3993POPC   C3B12009  16.195   5.755   7.950
 3993POPC   C4B12010  16.180   5.797   7.650
 3994POPC   NC312011  30.723   8.972   9.450
 3994POPC   PO412012  30.739   9.017   9.150
 3994POPC   GL112013  30.676   8.973   8.850
 3994POPC   GL212014  30.741   9.071   8.850
 3994POPC   C1A12015  30.745   8.944   8.550
 3994POPC   D2A12016  30.658   8.928   8.250
 3994POPC   C3A12017  30.719   8.929   7.950
 3994POPC   C4A12018  30.668   8.996   7.650
 3994POPC   C1B12019  30.781   9.252   8.550
 3994POPC   C2B12020  30.809   9.209   8.250
 3994POPC   C3B12021  30.775   9.197   7.950
 3994POPC   C4B12022  30.779   9.170   7.650
 3995POPC   NC312023  12.838  34.557   9.450
 3995POPC   PO412024  12.809  34.573   9.150
 3995POPC   GL112025  12.849  34.547   8.850
 3995POPC   GL212026  12.804  34.693   8.850
 3995POPC   C1A12027  12.901  34.555   8.550
 3995POPC   D2A12028  12.897  34.588   8.250
 3995POPC   C3A12029  12.868  34.622   7.950
 3995POPC   C4A12030  12.895  34.541   7.650
 3995POPC   C1B12031  12.694  34.751   8.550
 3995POPC   C2B12032  12.721  34.789   8.250
 3995POPC   C3B12033  12.704  34.784   7.950
 3995POPC   C4B12034  12.755  34.824   7.650
 3996POPC   NC312035  39.226  19.107   9.450
 3996POPC   PO412036  39.205  19.009   9.150
 3996POPC   GL112037  39.206  19.077   8.850
 3996POPC   GL212038  39.143  18.919   8.850
 3996POPC   C1A12039  39.233  19.027   8.550
 3996POPC   D2A12040  39.203  19.046   8.250
 3996POPC   C3A12041  39.202  19.041   7.950
 3996POPC   C4A12042  39.272  19.092   7.650
 3996POPC   C1B12043  39.060  18.824   8.550
 3996POPC   C2B12044  39.024  18.834   8.250
 3996POPC   C3B12045  39.097  18.905   7.950
 3996POPC   C4B12046  39.032  18.874   7.650
 3997POPC   NC312047  19.060  17.539   9.450
 3997POPC   PO412048  19.099  17.517   9.150
 3997POPC   GL112049  19.102  17.474   8.850
 3997POPC   GL212050  19.044  17.364   8.850
 3997POPC   C1A12051  19.030  17.545   8.550
 3997POPC   D2A12052  19.044  17.515   8.250
 3997POPC   C3A12053  19.057  17.549   7.950
 3997POPC   C4A12054  19.039  17.509   7.650
 3997POPC   C1B12055  18.897  17.271   8.550
 3997POPC   C2B12056  18.976  17.263   8.250
 3997POPC   C3B12057  18.937  17.276   7.950
 3997POPC   C4B12058  18.939  17.312   7.650
 3998POPC   NC312059  36.120  44.619   9.450
 3998POPC   PO412060  36.100  44.675   9.150
 3998POPC   GL112061  36.154  44.692   8.850
 3998POPC   GL212062  36.186  44.809   8.850
 3998POPC   C1A12063  36.105  44.637   8.550
 3998POPC   D2A12064  36.104  44.712   8.250
 3998POPC   C3A12065  36.175  44.655   7.950
 3998POPC   C4A12066  36.139  44.668   7.650
 3998POPC   C1B12067  36.281  44.852   8.550
 3998POPC   C2B12068  36.295  44.848   8.250
 3998POPC   C3B12069  36.292  44.897   7.950
 3998POPC   C4B12070  36.219  44.840   7.650
 3999POPC   NC312071  43.875  29.174   9.450
 3999POPC   PO412072  43.924  29.188   9.150
 3999POPC   GL112073  43.891  29.142   8.850
 3999POPC   GL212074  43.857  29.252   8.850
 3999POPC   C1A12075  43.924  29.099   8.550
 3999POPC   D2A12076  43.867  29.151   8.250
 3999POPC   C3A12077  43.861  29.127   7.950
 3999POPC   C4A12078  43.922  29.193   7.650
 3999POPC   C1B12079  43.815  29.378   8.550
 3999POPC   C2B12080  43.847  29.406   8.250
 3999POPC   C3B12081  43.865  29.407   7.950
 3999POPC   C4B12082  43.868  29.399   7.650
 4000POPC   NC312083   9.705   5.128   9.450
 4000POPC   PO412084   9.794   5.065   9.150
 4000POPC   GL112085   9.700   5.078   8.850
 4000POPC   GL212086   9.631   5.115   8.850
 4000POPC   C1A12087   9.761   5.046   8.550
 4000POPC   D2A12088   9.769   5.079   8.250
 4000POPC   C3A12089   9.753   5.061   7.950
 4000POPC   C4A12090   9.708   5.052   7.650
 4000POPC   C1B12091   9.544   5.071   8.550
 4000POPC   C2B12092   9.452   5.076   8.250
 4000POPC   C3B12093   9.504   5.114   7.950
 4000POPC   C4B12094   9.500   5.082   7.650
 4001POPC   NC312095  34.582   2.791   9.450
 4001POPC   PO412096  34.526   2.762   9.150
 4001POPC   GL112097  34.578   2.775   8.850
 4001POPC   GL212098  34.493   2.854   8.850
 4001POPC   C1A12099  34.608   2.735   8.550
 4001POPC   D2A12100  34.616   2.795   8.250
 4001POPC   C3A12101  34.534   2.752   7.950
 4001POPC   C4A12102  34.596   2.743   7.650
 4001POPC   C1B12103  34.380   2.880   8.550
 4001POPC   C2B12104  34.331   2.919   8.250
 4001POPC   C3B12105  34.376   2.915   7.950
 4001POPC   C4B12106  34.384   2.958   7.650
 4002POPC   NC312107  38.426  10.502   9.450
 4002POPC   PO412108  38.406  10.495   9.150
 4002POPC   GL112109  38.427  10.494   8.850
 4002POPC   GL212110  38.442  10.592   8.850
 4002POPC   C1A12111  38.477  10.481   8.550
 4002POPC   D2A12112  38.485  10.487   8.250
 4002POPC   C3A12113  38.502  10.500   7.950
 4002POPC   C4A12114  38.406  10.482   7.650
 4002POPC   C1B12115  38.333  10.801   8.550
 4002POPC   C2B12116  38.414  10.794   8.250
 4002POPC   C3B12117  38.361  10.780   7.950
 4002POPC   C4B12118  38.347  10.727   7.650
 4003POPC   NC312119  24.510  21.354   9.450
 4003POPC   PO412120  24.521  21.427   9.150
 4003POPC   GL112121  24.487  21.362   8.850
 4003POPC   GL212122  24.512  21.490   8.850
 4003POPC   C1A12123  24.511  21.386   8.550
 4003POPC   D2A12124  24.535  21.432   8.250
 4003POPC   C3A12125  24.499  21.410   7.950
 4003POPC   C4A12126  24.490  21.372   7.650
 4003POPC   C1B12127  24.580  21.582   8.550
 4003POPC   C2B12128  24.611  21.648   8.250
 4003POPC   C3B12129  24.632  21.571   7.950
 4003POPC   C4B12130  24.656  21.581   7.650
 4004POPC   NC312131  37.695  35.393   9.450
 4004POPC   PO412132  37.688  35.371   9.150
 4004POPC   GL112133  37.660  35.388   8.850
 4004POPC   GL212134  37.791  35.402   8.850
 4004POPC   C1A12135  37.710  35.372   8.550
 4004POPC   D2A12136  37.715  35.397   8.250
 4004POPC   C3A12137  37.657  35.392   7.950
 4004POPC   C4A12138  37.680  35.332   7.650
 4004POPC   C1B12139  37.823  35.563   8.550
 4004POPC   C2B12140  37.837  35.592   8.250
 4004POPC   C3B12141  37.842  35.600   7.950
 4004POPC   C4B12142  37.830  35.532   7.650
 4005POPC   NC312143  18.315  15.189   9.450
 4005POPC   PO412144  18.314  15.228   9.150
 4005POPC   GL112145  18.273  15.195   8.850
 4005POPC   GL212146  18.275  15.076   8.850
 4005POPC   C1A12147  18.292  15.187   8.550
 4005POPC   D2A12148  18.246  15.187   8.250
 4005POPC   C3A12149  18.301  15.217   7.950
 4005POPC   C4A12150  18.261  15.206   7.650
 4005POPC   C1B12151  18.181  14.991   8.550
 4005POPC   C2B12152  18.196  14.919   8.250
 4005POPC   C3B12153  18.169  14.987   7.950
 4005POPC   C4B12154  18.127  14.952   7.650
 4006POPC   NC312155  12.076  34.626   9.450
 4006POPC   PO412156  12.098  34.596   9.150
 4006POPC   GL112157  12.039  34.527   8.850
 4006POPC   GL212158  12.165  34.479   8.850
 4006POPC   C1A12159  12.059  34.534   8.550
 4006POPC   D2A12160  12.103  34.537   8.250
 4006POPC   C3A12161  12.060  34.569   7.950
 4006POPC   C4A12162  12.053  34.578   7.650
 4006POPC   C1B12163  12.234  34.434   8.550
 4006POPC   C2B12164  12.257  34.380   8.250
 4006POPC   C3B12165  12.234  34.381   7.950
 4006POPC   C4B12166  12.323  34.385   7.650
 4007POPC   NC312167  41.548  35.369   9.450
 4007POPC   PO412168  41.556  35.315   9.150
 4007POPC   GL112169  41.525  35.382   8.850
 4007POPC   GL212170  41.645  35.264   8.850
 4007POPC   C1A12171  41.564  35.313   8.550
 4007POPC   D2A12172  41.530  35.318   8.250
 4007POPC   C3A12173  41.571  35.330   7.950
 4007POPC   C4A12174  41.536  35.349   7.650
 4007POPC   C1B12175  41.692  35.097   8.550
 4007POPC   C2B12176  41.708  35.132   8.250
 4007POPC   C3B12177  41.636  35.127   7.950
 4007POPC   C4B12178  41.668  35.140   7.650
 4008POPC   NC312179  29.933  22.113   9.450
 4008POPC   PO412180  29.937  22.114   9.150
 4008POPC   GL112181  29.943  22.180   8.850
 4008POPC   GL212182  29.899  22.048   8.850
 4008POPC   C1A12183  29.956  22.128   8.550
 4008POPC   D2A12184  29.962  22.203   8.250
 4008POPC   C3A12185  29.879  22.171   7.950
 4008POPC   C4A12186  29.915  22.173   7.650
 4008POPC   C1B12187  29.826  21.918   8.550
 4008POPC   C2B12188  29.846  21.928   8.250
 4008POPC   C3B12189  29.823  21.949   7.950
 4008POPC   C4B12190  29.834  21.957   7.650
 4009POPC   NC312191  41.580  27.546   9.450
 4009POPC   PO412192  41.588  27.636   9.150
 4009POPC   GL112193  41.537  27.580   8.850
 4009POPC   GL212194  41.422  27.635   8.850
 4009POPC   C1A12195  41.517  27.625   8.550
 4009POPC   D2A12196  41.603  27.563   8.250
 4009POPC   C3A12197  41.602  27.613   7.950
 4009POPC   C4A12198  41.591  27.598   7.650
 4009POPC   C1B12199  41.284  27.676   8.550
 4009POPC   C2B12200  41.343  27.674   8.250
 4009POPC   C3B12201  41.300  27.698   7.950
 4009POPC   C4B12202  41.369  27.666   7.650
 4010POPC   NC312203   0.472  27.548   9.450
 4010POPC   PO412204   0.403  27.586   9.150
 4010POPC   GL112205   0.397  27.606   8.850
 4010POPC   GL212206   0.604  27.642   8.850
 4010POPC   C1A12207   0.456  27.594   8.550
 4010POPC   D2A12208   0.485  27.584   8.250
 4010POPC   C3A12209   0.422  27.567   7.950
 4010POPC   C4A12210   0.482  27.617   7.650
 4010POPC   C1B12211   0.720  27.630   8.550
 4010POPC   C2B12212   0.677  27.593   8.250
 4010POPC   C3B12213   0.670  27.655   7.950
 4010POPC   C4B12214   0.726  27.626   7.650
 4011POPC   NC312215  11.339   8.218   9.450
 4011POPC   PO412216  11.276   8.211   9.150
 4011POPC   GL112217  11.321   8.205   8.850
 4011POPC   GL212218  11.229   8.265   8.850
 4011POPC   C1A12219  11.287   8.181   8.550
 4011POPC   D2A12220  11.337   8.200   8.250
 4011POPC   C3A12221  11.341   8.208   7.950
 4011POPC   C4A12222  11.292   8.195   7.650
 4011POPC   C1B12223  11.179   8.359   8.550
 4011POPC   C2B12224  11.109   8.415   8.250
 4011POPC   C3B12225  11.199   8.422   7.950
 4011POPC   C4B12226  11.163   8.384   7.650
 4012POPC   NC312227  14.386   0.393   9.450
 4012POPC   PO412228  14.421   0.411   9.150
 4012POPC   GL112229  14.356   0.443   8.850
 4012POPC   GL212230  14.481   0.448   8.850
 4012POPC   C1A12231  14.431   0.442   8.550
 4012POPC   D2A12232  14.387   0.402   8.250
 4012POPC   C3A12233  14.429   0.412   7.950
 4012POPC   C4A12234  14.365   0.448   7.650
 4012POPC   C1B12235  14.666   0.509   8.550
 4012POPC   C2B12236  14.606   0.455   8.250
 4012POPC   C3B12237  14.606   0.429   7.950
 4012POPC   C4B12238  14.674   0.419   7.650
 4013POPC   NC312239  43.862  27.612   9.450
 4013POPC   PO412240  43.857  27.589   9.150
 4013POPC   GL112241  43.920  27.588   8.850
 4013POPC   GL212242  43.815  27.748   8.850
 4013POPC   C1A12243  43.877  27.548   8.550
 4013POPC   D2A12244  43.915  27.634   8.250
 4013POPC   C3A12245  43.918  27.642   7.950
 4013POPC   C4A12246  43.904  27.569   7.650
 4013POPC   C1B12247  43.847  27.861   8.550
 4013POPC   C2B12248  43.852  27.804   8.250
 4013POPC   C3B12249  43.813  27.805   7.950
 4013POPC   C4B12250  43.850  27.852   7.650
 4014POPC   NC312251  41.567  18.242   9.450
 4014POPC   PO412252  41.536  18.257   9.150
 4014POPC   GL112253  41.605  18.275   8.850
 4014POPC   GL212254  41.723  18.302   8.850
 4014POPC   C1A12255  41.559  18.291   8.550
 4014POPC   D2A12256  41.545  18.250   8.250
 4014POPC   C3A12257  41.607  18.288   7.950
 4014POPC   C4A12258  41.596  18.318   7.650
 4014POPC   C1B12259  41.827  18.346   8.550
 4014POPC   C2B12260  41.771  18.333   8.250
 4014POPC   C3B12261  41.842  18.298   7.950
 4014POPC   C4B12262  41.805  18.291   7.650
 4015POPC   NC312263  28.325  16.765   9.450
 4015POPC   PO412264  28.387  16.776   9.150
 4015POPC   GL112265  28.332  16.725   8.850
 4015POPC   GL212266  28.254  16.703   8.850
 4015POPC   C1A12267  28.363  16.719   8.550
 4015POPC   D2A12268  28.363  16.732   8.250
 4015POPC   C3A12269  28.385  16.699   7.950
 4015POPC   C4A12270  28.329  16.767   7.650
 4015POPC   C1B12271  28.113  16.694   8.550
 4015POPC   C2B12272  28.075  16.755   8.250
 4015POPC   C3B12273  28.110  16.737   7.950
 4015POPC   C4B12274  28.154  16.701   7.650
 4016POPC   NC312275  19.790   7.414   9.450
 4016POPC   PO412276  19.826   7.459   9.150
 4016POPC   GL112277  19.855   7.391   8.850
 4016POPC   GL212278  19.746   7.282   8.850
 4016POPC   C1A12279  19.807   7.459   8.550
 4016POPC   D2A12280  19.877   7.462   8.250
 4016POPC   C3A12281  19.845   7.458   7.950
 4016POPC   C4A12282  19.869   7.390   7.650
 4016POPC   C1B12283  19.676   7.197   8.550
 4016POPC   C2B12284  19.702   7.202   8.250
 4016POPC   C3B12285  19.731   7.253   7.950
 4016POPC   C4B12286  19.696   7.180   7.650
 4017POPC   NC312287  29.934   0.455   9.450
 4017POPC   PO412288  29.878   0.470   9.150
 4017POPC   GL112289  29.907   0.452   8.850
 4017POPC   GL212290  30.052   0.413   8.850
 4017POPC   C1A12291  29.946   0.426   8.550
 4017POPC   D2A12292  29.930   0.427   8.250
 4017POPC   C3A12293  29.958   0.446   7.950
 4017POPC   C4A12294  29.947   0.430   7.650
 4017POPC   C1B12295  30.204   0.320   8.550
 4017POPC   C2B12296  30.186   0.347   8.250
 4017POPC   C3B12297  30.136   0.393   7.950
 4017POPC   C4B12298  30.208   0.353   7.650
 4018POPC   NC312299  17.530   8.217   9.450
 4018POPC   PO412300  17.462   8.148   9.150
 4018POPC   GL112301  17.513   8.163   8.850
 4018POPC   GL212302  17.481   8.047   8.850
 4018POPC   C1A12303  17.551   8.204   8.550
 4018POPC   D2A12304  17.515   8.237   8.250
 4018POPC   C3A12305  17.534   8.232   7.950
 4018POPC   C4A12306  17.487   8.213   7.650
 4018POPC   C1B12307  17.385   7.960   8.550
 4018POPC   C2B12308  17.361   7.934   8.250
 4018POPC   C3B12309  17.360   7.983   7.950
 4018POPC   C4B12310  17.433   7.992   7.650
 4019POPC   NC312311  40.779  36.874   9.450
 4019POPC   PO412312  40.778  36.922   9.150
 4019POPC   GL112313  40.781  36.913   8.850
 4019POPC   GL212314  40.698  37.059   8.850
 4019POPC   C1A12315  40.755  36.914   8.550
 4019POPC   D2A12316  40.735  36.862   8.250
 4019POPC   C3A12317  40.802  36.893   7.950
 4019POPC   C4A12318  40.820  36.860   7.650
 4019POPC   C1B12319  40.752  37.105   8.550
 4019POPC   C2B12320  40.668  37.104   8.250
 4019POPC   C3B12321  40.736  37.170   7.950
 4019POPC   C4B12322  40.685  37.113   7.650
 4020POPC   NC312323   9.731  22.147   9.450
 4020POPC   PO412324   9.723  22.184   9.150
 4020POPC   GL112325   9.710  22.119   8.850
 4020POPC   GL212326   9.732  22.036   8.850
 4020POPC   C1A12327   9.735  22.172   8.550
 4020POPC   D2A12328   9.729  22.149   8.250
 4020POPC   C3A12329   9.789  22.193   7.950
 4020POPC   C4A12330   9.776  22.180   7.650
 4020POPC   C1B12331   9.719  21.903   8.550
 4020POPC   C2B12332   9.778  21.885   8.250
 4020POPC   C3B12333   9.764  21.866   7.950
 4020POPC   C4B12334   9.711  21.906   7.650
 4021POPC   NC312335  19.093  11.330   9.450
 4021POPC   PO412336  19.036  11.271   9.150
 4021POPC   GL112337  19.094  11.253   8.850
 4021POPC   GL212338  19.137  11.381   8.850
 4021POPC   C1A12339  19.094  11.285   8.550
 4021POPC   D2A12340  19.010  11.264   8.250
 4021POPC   C3A12341  19.062  11.268   7.950
 4021POPC   C4A12342  19.009  11.347   7.650
 4021POPC   C1B12343  19.317  11.418   8.550
 4021POPC   C2B12344  19.314  11.387   8.250
 4021POPC   C3B12345  19.265  11.432   7.950
 4021POPC   C4B12346  19.258  11.401   7.650
 4022POPC   NC312347  21.427   2.032   9.450
 4022POPC   PO412348  21.404   2.022   9.150
 4022POPC   GL112349  21.427   1.998   8.850
 4022POPC   GL212350  21.527   1.937   8.850
 4022POPC   C1A12351  21.370   1.974   8.550
 4022POPC   D2A12352  21.372   1.972   8.250
 4022POPC   C3A12353  21.398   2.027   7.950
 4022POPC   C4A12354  21.379   2.017   7.650
 4022POPC   C1B12355  21.629   1.892   8.550
 4022POPC   C2B12356  21.653   1.892   8.250
 4022POPC   C3B12357  21.629   1.847   7.950
 4022POPC   C4B12358  21.575   1.874   7.650
 4023POPC   NC312359  27.632  29.144   9.450
 4023POPC   PO412360  27.610  29.116   9.150
 4023POPC   GL112361  27.557  29.163   8.850
 4023POPC   GL212362  27.504  29.278   8.850
 4023POPC   C1A12363  27.560  29.126   8.550
 4023POPC   D2A12364  27.631  29.102   8.250
 4023POPC   C3A12365  27.579  29.175   7.950
 4023POPC   C4A12366  27.615  29.104   7.650
 4023POPC   C1B12367  27.393  29.329   8.550
 4023POPC   C2B12368  27.457  29.353   8.250
 4023POPC   C3B12369  27.401  29.280   7.950
 4023POPC   C4B12370  27.455  29.311   7.650
 4024POPC   NC312371  30.731  31.470   9.450
 4024POPC   PO412372  30.656  31.490   9.150
 4024POPC   GL112373  30.681  31.432   8.850
 4024POPC   GL212374  30.592  31.462   8.850
 4024POPC   C1A12375  30.737  31.474   8.550
 4024POPC   D2A12376  30.742  31.503   8.250
 4024POPC   C3A12377  30.673  31.498   7.950
 4024POPC   C4A12378  30.743  31.485   7.650
 4024POPC   C1B12379  30.417  31.450   8.550
 4024POPC   C2B12380  30.402  31.419   8.250
 4024POPC   C3B12381  30.455  31.427   7.950
 4024POPC   C4B12382  30.424  31.411   7.650
 4025POPC   NC312383  16.692  26.077   9.450
 4025POPC   PO412384  16.715  26.061   9.150
 4025POPC   GL112385  16.781  26.058   8.850
 4025POPC   GL212386  16.693  26.147   8.850
 4025POPC   C1A12387  16.770  26.074   8.550
 4025POPC   D2A12388  16.715  26.001   8.250
 4025POPC   C3A12389  16.776  26.020   7.950
 4025POPC   C4A12390  16.761  26.020   7.650
 4025POPC   C1B12391  16.597  26.259   8.550
 4025POPC   C2B12392  16.653  26.227   8.250
 4025POPC   C3B12393  16.599  26.247   7.950
 4025POPC   C4B12394  16.608  26.286   7.650
 4026POPC   NC312395   5.879   8.202   9.450
 4026POPC   PO412396   5.845   8.178   9.150
 4026POPC   GL112397   5.840   8.208   8.850
 4026POPC   GL212398   5.751   8.250   8.850
 4026POPC   C1A12399   5.886   8.238   8.550
 4026POPC   D2A12400   5.873   8.167   8.250
 4026POPC   C3A12401   5.847   8.200   7.950
 4026POPC   C4A12402   5.864   8.216   7.650
 4026POPC   C1B12403   5.667   8.306   8.550
 4026POPC   C2B12404   5.667   8.344   8.250
 4026POPC   C3B12405   5.660   8.356   7.950
 4026POPC   C4B12406   5.703   8.282   7.650
 4027POPC   NC312407  39.996  17.471   9.450
 4027POPC   PO412408  40.026  17.503   9.150
 4027POPC   GL112409  40.046  17.556   8.850
 4027POPC   GL212410  39.863  17.381   8.850
 4027POPC   C1A12411  40.022  17.539   8.550
 4027POPC   D2A12412  39.990  17.481   8.250
 4027POPC   C3A12413  39.959  17.476   7.950
 4027POPC   C4A12414  39.963  17.548   7.650
 4027POPC   C1B12415  39.778  17.383   8.550
 4027POPC   C2B12416  39.767  17.320   8.250
 4027POPC   C3B12417  39.778  17.306   7.950
 4027POPC   C4B12418  39.853  17.341   7.650
 4028POPC   NC312419  43.065  44.692   9.450
 4028POPC   PO412420  43.154  44.691   9.150
 4028POPC   GL112421  43.116  44.632   8.850
 4028POPC   GL212422  43.146  44.795   8.850
 4028POPC   C1A12423  43.115  44.628   8.550
 4028POPC   D2A12424  43.156  44.638   8.250
 4028POPC   C3A12425  43.120  44.668   7.950
 4028POPC   C4A12426  43.141  44.671   7.650
 4028POPC   C1B12427  43.264  44.875   8.550
 4028POPC   C2B12428  43.273  44.883   8.250
 4028POPC   C3B12429  43.274  44.893   7.950
 4028POPC   C4B12430  43.239  44.869   7.650
 4029POPC   NC312431  30.698  35.311   9.450
 4029POPC   PO412432  30.678  35.348   9.150
 4029POPC   GL112433  30.650  35.375   8.850
 4029POPC   GL212434  30.543  35.296   8.850
 4029POPC   C1A12435  30.667  35.397   8.550
 4029POPC   D2A12436  30.700  35.370   8.250
 4029POPC   C3A12437  30.653  35.370   7.950
 4029POPC   C4A12438  30.675  35.375   7.650
 4029POPC   C1B12439  30.481  35.195   8.550
 4029POPC   C2B12440  30.466  35.199   8.250
 4029POPC   C3B12441  30.451  35.207   7.950
 4029POPC   C4B12442  30.444  35.240   7.650
 4030POPC   NC312443  36.100   4.278   9.450
 4030POPC   PO412444  36.157   4.361   9.150
 4030POPC   GL112445  36.139   4.321   8.850
 4030POPC   GL212446  36.267   4.283   8.850
 4030POPC   C1A12447  36.115   4.276   8.550
 4030POPC   D2A12448  36.122   4.341   8.250
 4030POPC   C3A12449  36.141   4.318   7.950
 4030POPC   C4A12450  36.117   4.332   7.650
 4030POPC   C1B12451  36.352   4.221   8.550
 4030POPC   C2B12452  36.324   4.234   8.250
 4030POPC   C3B12453  36.354   4.169   7.950
 4030POPC   C4B12454  36.367   4.168   7.650
 4031POPC   NC312455  26.017  22.910   9.450
 4031POPC   PO412456  26.008  22.914   9.150
 4031POPC   GL112457  26.050  22.888   8.850
 4031POPC   GL212458  25.993  23.043   8.850
 4031POPC   C1A12459  26.083  22.889   8.550
 4031POPC   D2A12460  26.091  22.921   8.250
 4031POPC   C3A12461  26.071  22.964   7.950
 4031POPC   C4A12462  25.992  22.906   7.650
 4031POPC   C1B12463  25.900  23.162   8.550
 4031POPC   C2B12464  25.891  23.194   8.250
 4031POPC   C3B12465  25.944  23.160   7.950
 4031POPC   C4B12466  25.870  23.121   7.650
 4032POPC   NC312467   5.871  41.544   9.450
 4032POPC   PO412468   5.918  41.569   9.150
 4032POPC   GL112469   5.911  41.568   8.850
 4032POPC   GL212470   5.814  41.643   8.850
 4032POPC   C1A12471   5.844  41.585   8.550
 4032POPC   D2A12472   5.911  41.514   8.250
 4032POPC   C3A12473   5.875  41.542   7.950
 4032POPC   C4A12474   5.882  41.605   7.650
 4032POPC   C1B12475   5.640  41.694   8.550
 4032POPC   C2B12476   5.723  41.717   8.250
 4032POPC   C3B12477   5.648  41.763   7.950
 4032POPC   C4B12478   5.720  41.767   7.650
 4033POPC   NC312479  40.014   2.000   9.450
 4033POPC   PO412480  39.963   2.002   9.150
 4033POPC   GL112481  40.050   2.027   8.850
 4033POPC   GL212482  40.126   1.972   8.850
 4033POPC   C1A12483  39.989   2.026   8.550
 4033POPC   D2A12484  39.971   1.968   8.250
 4033POPC   C3A12485  39.981   1.972   7.950
 4033POPC   C4A12486  39.999   2.020   7.650
 4033POPC   C1B12487  40.255   2.010   8.550
 4033POPC   C2B12488  40.258   2.010   8.250
 4033POPC   C3B12489  40.236   1.947   7.950
 4033POPC   C4B12490  40.286   1.952   7.650
 4034POPC   NC312491  40.749  18.241   9.450
 4034POPC   PO412492  40.833  18.321   9.150
 4034POPC   GL112493  40.766  18.289   8.850
 4034POPC   GL212494  40.630  18.251   8.850
 4034POPC   C1A12495  40.741  18.239   8.550
 4034POPC   D2A12496  40.789  18.330   8.250
 4034POPC   C3A12497  40.820  18.317   7.950
 4034POPC   C4A12498  40.820  18.295   7.650
 4034POPC   C1B12499  40.571  18.180   8.550
 4034POPC   C2B12500  40.554  18.205   8.250
 4034POPC   C3B12501  40.573  18.207   7.950
 4034POPC   C4B12502  40.542  18.205   7.650
 4035POPC   NC312503  19.843  42.365   9.450
 4035POPC   PO412504  19.858  42.320   9.150
 4035POPC   GL112505  19.849  42.372   8.850
 4035POPC   GL212506  19.729  42.336   8.850
 4035POPC   C1A12507  19.822  42.297   8.550
 4035POPC   D2A12508  19.822  42.338   8.250
 4035POPC   C3A12509  19.840  42.382   7.950
 4035POPC   C4A12510  19.864  42.346   7.650
 4035POPC   C1B12511  19.576  42.305   8.550
 4035POPC   C2B12512  19.570  42.268   8.250
 4035POPC   C3B12513  19.601  42.284   7.950
 4035POPC   C4B12514  19.629  42.308   7.650
 4036POPC   NC312515  40.019  13.592   9.450
 4036POPC   PO412516  40.053  13.600   9.150
 4036POPC   GL112517  40.008  13.634   8.850
 4036POPC   GL212518  39.990  13.548   8.850
 4036POPC   C1A12519  39.988  13.664   8.550
 4036POPC   D2A12520  40.046  13.595   8.250
 4036POPC   C3A12521  39.998  13.599   7.950
 4036POPC   C4A12522  39.992  13.677   7.650
 4036POPC   C1B12523  40.012  13.395   8.550
 4036POPC   C2B12524  40.057  13.390   8.250
 4036POPC   C3B12525  40.047  13.410   7.950
 4036POPC   C4B12526  39.968  13.340   7.650
 4037POPC   NC312527  42.322   5.910   9.450
 4037POPC   PO412528  42.327   5.822   9.150
 4037POPC   GL112529  42.285   5.821   8.850
 4037POPC   GL212530  42.287   5.959   8.850
 4037POPC   C1A12531  42.344   5.862   8.550
 4037POPC   D2A12532  42.363   5.825   8.250
 4037POPC   C3A12533  42.320   5.908   7.950
 4037POPC   C4A12534  42.312   5.910   7.650
 4037POPC   C1B12535  42.243   6.062   8.550
 4037POPC   C2B12536  42.224   6.073   8.250
 4037POPC   C3B12537  42.226   6.103   7.950
 4037POPC   C4B12538  42.241   6.113   7.650
 4038POPC   NC312539  16.759   3.536   9.450
 4038POPC   PO412540  16.730   3.587   9.150
 4038POPC   GL112541  16.745   3.507   8.850
 4038POPC   GL212542  16.626   3.434   8.850
 4038POPC   C1A12543  16.704   3.586   8.550
 4038POPC   D2A12544  16.762   3.530   8.250
 4038POPC   C3A12545  16.768   3.553   7.950
 4038POPC   C4A12546  16.700   3.578   7.650
 4038POPC   C1B12547  16.637   3.301   8.550
 4038POPC   C2B12548  16.622   3.376   8.250
 4038POPC   C3B12549  16.553   3.371   7.950
 4038POPC   C4B12550  16.592   3.306   7.650
 4039POPC   NC312551  22.171   3.547   9.450
 4039POPC   PO412552  22.144   3.515   9.150
 4039POPC   GL112553  22.202   3.565   8.850
 4039POPC   GL212554  22.080   3.467   8.850
 4039POPC   C1A12555  22.162   3.499   8.550
 4039POPC   D2A12556  22.122   3.496   8.250
 4039POPC   C3A12557  22.128   3.572   7.950
 4039POPC   C4A12558  22.134   3.580   7.650
 4039POPC   C1B12559  22.055   3.299   8.550
 4039POPC   C2B12560  21.997   3.338   8.250
 4039POPC   C3B12561  21.995   3.353   7.950
 4039POPC   C4B12562  22.012   3.317   7.650
 4040POPC   NC312563  36.099  27.643   9.450
 4040POPC   PO412564  36.123  27.611   9.150
 4040POPC   GL112565  36.152  27.624   8.850
 4040POPC   GL212566  36.035  27.627   8.850
 4040POPC   C1A12567  36.116  27.554   8.550
 4040POPC   D2A12568  36.138  27.621   8.250
 4040POPC   C3A12569  36.134  27.608   7.950
 4040POPC   C4A12570  36.156  27.599   7.650
 4040POPC   C1B12571  35.931  27.622   8.550
 4040POPC   C2B12572  35.862  27.658   8.250
 4040POPC   C3B12573  35.879  27.630   7.950
 4040POPC   C4B12574  35.893  27.666   7.650
 4041POPC   NC312575  19.054   7.466   9.450
 4041POPC   PO412576  19.062   7.413   9.150
 4041POPC   GL112577  19.025   7.395   8.850
 4041POPC   GL212578  19.213   7.426   8.850
 4041POPC   C1A12579  19.025   7.432   8.550
 4041POPC   D2A12580  19.047   7.381   8.250
 4041POPC   C3A12581  19.085   7.428   7.950
 4041POPC   C4A12582  19.033   7.468   7.650
 4041POPC   C1B12583  19.349   7.497   8.550
 4041POPC   C2B12584  19.267   7.505   8.250
 4041POPC   C3B12585  19.333   7.498   7.950
 4041POPC   C4B12586  19.315   7.481   7.650
 4042POPC   NC312587  44.635  36.100   9.450
 4042POPC   PO412588  44.709  36.082   9.150
 4042POPC   GL112589  44.698  36.168   8.850
 4042POPC   GL212590  44.753  35.979   8.850
 4042POPC   C1A12591  44.671  36.091   8.550
 4042POPC   D2A12592  44.708  36.126   8.250
 4042POPC   C3A12593  44.622  36.131   7.950
 4042POPC   C4A12594  44.664  36.176   7.650
 4042POPC   C1B12595  44.763  35.935   8.550
 4042POPC   C2B12596  44.798  35.938   8.250
 4042POPC   C3B12597  44.802  35.950   7.950
 4042POPC   C4B12598  44.770  35.880   7.650
 4043POPC   NC312599  39.243   2.021   9.450
 4043POPC   PO412600  39.257   2.022   9.150
 4043POPC   GL112601  39.224   1.985   8.850
 4043POPC   GL212602  39.311   2.069   8.850
 4043POPC   C1A12603  39.275   1.945   8.550
 4043POPC   D2A12604  39.271   2.008   8.250
 4043POPC   C3A12605  39.266   1.965   7.950
 4043POPC   C4A12606  39.280   1.997   7.650
 4043POPC   C1B12607  39.439   2.063   8.550
 4043POPC   C2B12608  39.473   2.105   8.250
 4043POPC   C3B12609  39.458   2.137   7.950
 4043POPC   C4B12610  39.489   2.127   7.650
 4044POPC   NC312611  32.238  43.086   9.450
 4044POPC   PO412612  32.284  43.151   9.150
 4044POPC   GL112613  32.221  43.120   8.850
 4044POPC   GL212614  32.173  43.066   8.850
 4044POPC   C1A12615  32.276  43.119   8.550
 4044POPC   D2A12616  32.255  43.089   8.250
 4044POPC   C3A12617  32.200  43.112   7.950
 4044POPC   C4A12618  32.290  43.141   7.650
 4044POPC   C1B12619  31.989  43.012   8.550
 4044POPC   C2B12620  31.987  43.053   8.250
 4044POPC   C3B12621  32.019  42.989   7.950
 4044POPC   C4B12622  32.010  42.983   7.650
 4045POPC   NC312623  18.276  25.294   9.450
 4045POPC   PO412624  18.276  25.231   9.150
 4045POPC   GL112625  18.279  25.307   8.850
 4045POPC   GL212626  18.285  25.147   8.850
 4045POPC   C1A12627  18.255  25.291   8.550
 4045POPC   D2A12628  18.318  25.308   8.250
 4045POPC   C3A12629  18.286  25.311   7.950
 4045POPC   C4A12630  18.313  25.225   7.650
 4045POPC   C1B12631  18.187  24.982   8.550
 4045POPC   C2B12632  18.230  25.002   8.250
 4045POPC   C3B12633  18.173  25.031   7.950
 4045POPC   C4B12634  18.233  25.027   7.650
 4046POPC   NC312635  36.893  37.652   9.450
 4046POPC   PO412636  36.861  37.670   9.150
 4046POPC   GL112637  36.893  37.679   8.850
 4046POPC   GL212638  37.007  37.585   8.850
 4046POPC   C1A12639  36.877  37.719   8.550
 4046POPC   D2A12640  36.904  37.677   8.250
 4046POPC   C3A12641  36.921  37.712   7.950
 4046POPC   C4A12642  36.934  37.661   7.650
 4046POPC   C1B12643  37.109  37.536   8.550
 4046POPC   C2B12644  37.048  37.530   8.250
 4046POPC   C3B12645  37.078  37.484   7.950
 4046POPC   C4B12646  37.107  37.496   7.650
 4047POPC   NC312647   0.477  22.932   9.450
 4047POPC   PO412648   0.432  22.898   9.150
 4047POPC   GL112649   0.474  22.920   8.850
 4047POPC   GL212650   0.610  22.966   8.850
 4047POPC   C1A12651   0.451  22.910   8.550
 4047POPC   D2A12652   0.420  22.902   8.250
 4047POPC   C3A12653   0.418  22.900   7.950
 4047POPC   C4A12654   0.462  22.919   7.650
 4047POPC   C1B12655   0.712  23.007   8.550
 4047POPC   C2B12656   0.708  22.952   8.250
 4047POPC   C3B12657   0.734  23.016   7.950
 4047POPC   C4B12658   0.732  23.008   7.650
 4048POPC   NC312659   3.578  29.118   9.450
 4048POPC   PO412660   3.498  29.186   9.150
 4048POPC   GL112661   3.564  29.096   8.850
 4048POPC   GL212662   3.562  28.981   8.850
 4048POPC   C1A12663   3.504  29.190   8.550
 4048POPC   D2A12664   3.542  29.179   8.250
 4048POPC   C3A12665   3.512  29.113   7.950
 4048POPC   C4A12666   3.582  29.171   7.650
 4048POPC   C1B12667   3.627  28.903   8.550
 4048POPC   C2B12668   3.561  28.910   8.250
 4048POPC   C3B12669   3.620  28.929   7.950
 4048POPC   C4B12670   3.639  28.926   7.650
 4049POPC   NC312671   1.991   5.134   9.450
 4049POPC   PO412672   1.991   5.100   9.150
 4049POPC   GL112673   2.013   5.083   8.850
 4049POPC   GL212674   1.888   5.082   8.850
 4049POPC   C1A12675   1.950   5.109   8.550
 4049POPC   D2A12676   1.979   5.120   8.250
 4049POPC   C3A12677   1.974   5.100   7.950
 4049POPC   C4A12678   2.014   5.077   7.650
 4049POPC   C1B12679   1.736   5.120   8.550
 4049POPC   C2B12680   1.749   5.110   8.250
 4049POPC   C3B12681   1.727   5.190   7.950
 4049POPC   C4B12682   1.792   5.167   7.650
 4050POPC   NC312683  25.999   4.285   9.450
 4050POPC   PO412684  26.029   4.275   9.150
 4050POPC   GL112685  26.020   4.293   8.850
 4050POPC   GL212686  26.112   4.369   8.850
 4050POPC   C1A12687  26.048   4.274   8.550
 4050POPC   D2A12688  26.010   4.316   8.250
 4050POPC   C3A12689  26.015   4.282   7.950
 4050POPC   C4A12690  26.021   4.297   7.650
 4050POPC   C1B12691  26.239   4.507   8.550
 4050POPC   C2B12692  26.180   4.517   8.250
 4050POPC   C3B12693  26.223   4.481   7.950
 4050POPC   C4B12694  26.238   4.483   7.650
 4051POPC   NC312695   1.191  35.354   9.450
 4051POPC   PO412696   1.244  35.317   9.150
 4051POPC   GL112697   1.257  35.341   8.850
 4051POPC   GL212698   1.105  35.345   8.850
 4051POPC   C1A12699   1.240  35.334   8.550
 4051POPC   D2A12700   1.225  35.382   8.250
 4051POPC   C3A12701   1.263  35.396   7.950
 4051POPC   C4A12702   1.247  35.311   7.650
 4051POPC   C1B12703   0.997  35.434   8.550
 4051POPC   C2B12704   0.953  35.435   8.250
 4051POPC   C3B12705   0.956  35.387   7.950
 4051POPC   C4B12706   0.997  35.419   7.650
 4052POPC   NC312707  18.234   8.235   9.450
 4052POPC   PO412708  18.315   8.193   9.150
 4052POPC   GL112709  18.295   8.220   8.850
 4052POPC   GL212710  18.245   8.028   8.850
 4052POPC   C1A12711  18.311   8.224   8.550
 4052POPC   D2A12712  18.283   8.208   8.250
 4052POPC   C3A12713  18.322   8.202   7.950
 4052POPC   C4A12714  18.332   8.237   7.650
 4052POPC   C1B12715  18.293   7.933   8.550
 4052POPC   C2B12716  18.279   7.995   8.250
 4052POPC   C3B12717  18.262   7.989   7.950
 4052POPC   C4B12718  18.268   7.959   7.650
 4053POPC   NC312719  30.668  15.925   9.450
 4053POPC   PO412720  30.711  15.920   9.150
 4053POPC   GL112721  30.707  15.968   8.850
 4053POPC   GL212722  30.639  15.877   8.850
 4053POPC   C1A12723  30.702  15.915   8.550
 4053POPC   D2A12724  30.712  15.918   8.250
 4053POPC   C3A12725  30.730  15.967   7.950
 4053POPC   C4A12726  30.704  15.917   7.650
 4053POPC   C1B12727  30.446  15.826   8.550
 4053POPC   C2B12728  30.477  15.780   8.250
 4053POPC   C3B12729  30.501  15.786   7.950
 4053POPC   C4B12730  30.438  15.794   7.650
 4054POPC   NC312731  13.661   5.860   9.450
 4054POPC   PO412732  13.659   5.851   9.150
 4054POPC   GL112733  13.625   5.849   8.850
 4054POPC   GL212734  13.707   5.799   8.850
 4054POPC   C1A12735  13.660   5.831   8.550
 4054POPC   D2A12736  13.620   5.827   8.250
 4054POPC   C3A12737  13.585   5.858   7.950
 4054POPC   C4A12738  13.650   5.858   7.650
 4054POPC   C1B12739  13.688   5.664   8.550
 4054POPC   C2B12740  13.679   5.674   8.250
 4054POPC   C3B12741  13.692   5.590   7.950
 4054POPC   C4B12742  13.746   5.656   7.650
 4055POPC   NC312743  43.127   2.726   9.450
 4055POPC   PO412744  43.133   2.809   9.150
 4055POPC   GL112745  43.088   2.801   8.850
 4055POPC   GL212746  43.063   2.679   8.850
 4055POPC   C1A12747  43.078   2.746   8.550
 4055POPC   D2A12748  43.101   2.731   8.250
 4055POPC   C3A12749  43.066   2.766   7.950
 4055POPC   C4A12750  43.136   2.805   7.650
 4055POPC   C1B12751  43.035   2.474   8.550
 4055POPC   C2B12752  43.073   2.482   8.250
 4055POPC   C3B12753  43.022   2.505   7.950
 4055POPC   C4B12754  43.017   2.562   7.650
 4056POPC   NC312755  31.500  18.250   9.450
 4056POPC   PO412756  31.512  18.234   9.150
 4056POPC   GL112757  31.503  18.261   8.850
 4056POPC   GL212758  31.305  18.320   8.850
 4056POPC   C1A12759  31.423  18.283   8.550
 4056POPC   D2A12760  31.457  18.256   8.250
 4056POPC   C3A12761  31.505  18.250   7.950
 4056POPC   C4A12762  31.486  18.283   7.650
 4056POPC   C1B12763  31.281  18.324   8.550
 4056POPC   C2B12764  31.223  18.371   8.250
 4056POPC   C3B12765  31.238  18.320   7.950
 4056POPC   C4B12766  31.277  18.311   7.650
 4057POPC   NC312767  14.380  32.999   9.450
 4057POPC   PO412768  14.445  33.049   9.150
 4057POPC   GL112769  14.417  33.058   8.850
 4057POPC   GL212770  14.360  32.915   8.850
 4057POPC   C1A12771  14.404  33.063   8.550
 4057POPC   D2A12772  14.369  32.988   8.250
 4057POPC   C3A12773  14.427  33.023   7.950
 4057POPC   C4A12774  14.360  33.017   7.650
 4057POPC   C1B12775  14.225  32.820   8.550
 4057POPC   C2B12776  14.190  32.868   8.250
 4057POPC   C3B12777  14.214  32.860   7.950
 4057POPC   C4B12778  14.281  32.843   7.650
 4058POPC   NC312779  36.949  29.878   9.450
 4058POPC   PO412780  36.908  29.965   9.150
 4058POPC   GL112781  36.896  29.941   8.850
 4058POPC   GL212782  37.013  29.854   8.850
 4058POPC   C1A12783  36.862  29.932   8.550
 4058POPC   D2A12784  36.947  29.937   8.250
 4058POPC   C3A12785  36.908  29.913   7.950
 4058POPC   C4A12786  36.904  29.899   7.650
 4058POPC   C1B12787  37.104  29.774   8.550
 4058POPC   C2B12788  37.093  29.720   8.250
 4058POPC   C3B12789  37.126  29.780   7.950
 4058POPC   C4B12790  37.044  29.791   7.650
 4059POPC   NC312791   2.754  35.391   9.450
 4059POPC   PO412792   2.764  35.397   9.150
 4059POPC   GL112793   2.733  35.400   8.850
 4059POPC   GL212794   2.824  35.496   8.850
 4059POPC   C1A12795   2.760  35.329   8.550
 4059POPC   D2A12796   2.719  35.355   8.250
 4059POPC   C3A12797   2.741  35.342   7.950
 4059POPC   C4A12798   2.784  35.331   7.650
 4059POPC   C1B12799   2.890  35.582   8.550
 4059POPC   C2B12800   2.925  35.601   8.250
 4059POPC   C3B12801   2.911  35.539   7.950
 4059POPC   C4B12802   2.890  35.613   7.650
 4060POPC   NC312803  18.291  30.697   9.450
 4060POPC   PO412804  18.284  30.670   9.150
 4060POPC   GL112805  18.281  30.689   8.850
 4060POPC   GL212806  18.205  30.744   8.850
 4060POPC   C1A12807  18.284  30.699   8.550
 4060POPC   D2A12808  18.281  30.675   8.250
 4060POPC   C3A12809  18.245  30.657   7.950
 4060POPC   C4A12810  18.250  30.648   7.650
 4060POPC   C1B12811  18.048  30.721   8.550
 4060POPC   C2B12812  18.039  30.788   8.250
 4060POPC   C3B12813  18.043  30.730   7.950
 4060POPC   C4B12814  17.996  30.696   7.650
 4061POPC   NC312815  16.746  39.269   9.450
 4061POPC   PO412816  16.692  39.182   9.150
 4061POPC   GL112817  16.714  39.266   8.850
 4061POPC   GL212818  16.663  39.353   8.850
 4061POPC   C1A12819  16.777  39.265   8.550
 4061POPC   D2A12820  16.699  39.201   8.250
 4061POPC   C3A12821  16.702  39.215   7.950
 4061POPC   C4A12822  16.695  39.233   7.650
 4061POPC   C1B12823  16.522  39.457   8.550
 4061POPC   C2B12824  16.560  39.445   8.250
 4061POPC   C3B12825  16.557  39.463   7.950
 4061POPC   C4B12826  16.582  39.452   7.650
 4062POPC   NC312827   4.269  22.115   9.450
 4062POPC   PO412828   4.353  22.174   9.150
 4062POPC   GL112829   4.288  22.158   8.850
 4062POPC   GL212830   4.215  22.219   8.850
 4062POPC   C1A12831   4.280  22.127   8.550
 4062POPC   D2A12832   4.357  22.136   8.250
 4062POPC   C3A12833   4.303  22.135   7.950
 4062POPC   C4A12834   4.355  22.207   7.650
 4062POPC   C1B12835   4.072  22.320   8.550
 4062POPC   C2B12836   4.123  22.302   8.250
 4062POPC   C3B12837   4.151  22.319   7.950
 4062POPC   C4B12838   4.087  22.339   7.650
 4063POPC   NC312839  15.206   1.182   9.450
 4063POPC   PO412840  15.134   1.222   9.150
 4063POPC   GL112841  15.228   1.188   8.850
 4063POPC   GL212842  15.139   1.142   8.850
 4063POPC   C1A12843  15.189   1.235   8.550
 4063POPC   D2A12844  15.187   1.192   8.250
 4063POPC   C3A12845  15.194   1.214   7.950
 4063POPC   C4A12846  15.207   1.244   7.650
 4063POPC   C1B12847  15.080   1.000   8.550
 4063POPC   C2B12848  15.089   0.943   8.250
 4063POPC   C3B12849  15.061   0.944   7.950
 4063POPC   C4B12850  15.093   0.980   7.650
 4064POPC   NC312851  22.979   4.276   9.450
 4064POPC   PO412852  22.973   4.333   9.150
 4064POPC   GL112853  22.955   4.361   8.850
 4064POPC   GL212854  23.023   4.241   8.850
 4064POPC   C1A12855  22.986   4.366   8.550
 4064POPC   D2A12856  22.920   4.290   8.250
 4064POPC   C3A12857  22.920   4.334   7.950
 4064POPC   C4A12858  22.983   4.298   7.650
 4064POPC   C1B12859  22.994   4.102   8.550
 4064POPC   C2B12860  23.044   4.046   8.250
 4064POPC   C3B12861  23.049   4.066   7.950
 4064POPC   C4B12862  22.990   4.070   7.650
 4065POPC   NC312863   7.448  37.640   9.450
 4065POPC   PO412864   7.372  37.658   9.150
 4065POPC   GL112865   7.458  37.664   8.850
 4065POPC   GL212866   7.289  37.676   8.850
 4065POPC   C1A12867   7.443  37.717   8.550
 4065POPC   D2A12868   7.430  37.701   8.250
 4065POPC   C3A12869   7.407  37.681   7.950
 4065POPC   C4A12870   7.437  37.677   7.650
 4065POPC   C1B12871   7.170  37.706   8.550
 4065POPC   C2B12872   7.147  37.681   8.250
 4065POPC   C3B12873   7.209  37.694   7.950
 4065POPC   C4B12874   7.155  37.711   7.650
 4066POPC   NC312875  25.251  14.384   9.450
 4066POPC   PO412876  25.268  14.372   9.150
 4066POPC   GL112877  25.238  14.376   8.850
 4066POPC   GL212878  25.403  14.462   8.850
 4066POPC   C1A12879  25.303  14.450   8.550
 4066POPC   D2A12880  25.271  14.445   8.250
 4066POPC   C3A12881  25.252  14.355   7.950
 4066POPC   C4A12882  25.271  14.444   7.650
 4066POPC   C1B12883  25.515  14.547   8.550
 4066POPC   C2B12884  25.444  14.519   8.250
 4066POPC   C3B12885  25.512  14.521   7.950
 4066POPC   C4B12886  25.484  14.556   7.650
 4067POPC   NC312887  43.102  37.704   9.450
 4067POPC   PO412888  43.103  37.728   9.150
 4067POPC   GL112889  43.092  37.662   8.850
 4067POPC   GL212890  43.185  37.711   8.850
 4067POPC   C1A12891  43.093  37.642   8.550
 4067POPC   D2A12892  43.062  37.688   8.250
 4067POPC   C3A12893  43.133  37.650   7.950
 4067POPC   C4A12894  43.151  37.716   7.650
 4067POPC   C1B12895  43.350  37.764   8.550
 4067POPC   C2B12896  43.309  37.804   8.250
 4067POPC   C3B12897  43.303  37.770   7.950
 4067POPC   C4B12898  43.362  37.773   7.650
 4068POPC   NC312899  26.018   1.172   9.450
 4068POPC   PO412900  26.026   1.209   9.150
 4068POPC   GL112901  26.003   1.246   8.850
 4068POPC   GL212902  26.148   1.077   8.850
 4068POPC   C1A12903  25.996   1.230   8.550
 4068POPC   D2A12904  26.046   1.209   8.250
 4068POPC   C3A12905  26.003   1.251   7.950
 4068POPC   C4A12906  26.084   1.232   7.650
 4068POPC   C1B12907  26.254   1.045   8.550
 4068POPC   C2B12908  26.241   1.076   8.250
 4068POPC   C3B12909  26.171   1.074   7.950
 4068POPC   C4B12910  26.172   1.026   7.650
 4069POPC   NC312911  36.172  36.860   9.450
 4069POPC   PO412912  36.122  36.908   9.150
 4069POPC   GL112913  36.116  36.926   8.850
 4069POPC   GL212914  36.034  36.765   8.850
 4069POPC   C1A12915  36.135  36.928   8.550
 4069POPC   D2A12916  36.129  36.864   8.250
 4069POPC   C3A12917  36.172  36.928   7.950
 4069POPC   C4A12918  36.171  36.911   7.650
 4069POPC   C1B12919  35.997  36.730   8.550
 4069POPC   C2B12920  35.930  36.667   8.250
 4069POPC   C3B12921  35.991  36.707   7.950
 4069POPC   C4B12922  35.945  36.696   7.650
 4070POPC   NC312923   1.171  30.659   9.450
 4070POPC   PO412924   1.206  30.653   9.150
 4070POPC   GL112925   1.247  30.733   8.850
 4070POPC   GL212926   1.314  30.591   8.850
 4070POPC   C1A12927   1.213  30.706   8.550
 4070POPC   D2A12928   1.178  30.733   8.250
 4070POPC   C3A12929   1.244  30.664   7.950
 4070POPC   C4A12930   1.198  30.693   7.650
 4070POPC   C1B12931   1.285  30.514   8.550
 4070POPC   C2B12932   1.295  30.474   8.250
 4070POPC   C3B12933   1.326  30.429   7.950
 4070POPC   C4B12934   1.325  30.457   7.650
 4071POPC   NC312935   2.791  38.484   9.450
 4071POPC   PO412936   2.812  38.428   9.150
 4071POPC   GL112937   2.748  38.418   8.850
 4071POPC   GL212938   2.795  38.362   8.850
 4071POPC   C1A12939   2.759  38.473   8.550
 4071POPC   D2A12940   2.815  38.461   8.250
 4071POPC   C3A12941   2.722  38.457   7.950
 4071POPC   C4A12942   2.763  38.410   7.650
 4071POPC   C1B12943   2.865  38.212   8.550
 4071POPC   C2B12944   2.848  38.194   8.250
 4071POPC   C3B12945   2.864  38.196   7.950
 4071POPC   C4B12946   2.825  38.233   7.650
 4072POPC   NC312947   6.644  40.761   9.450
 4072POPC   PO412948   6.685  40.828   9.150
 4072POPC   GL112949   6.674  40.744   8.850
 4072POPC   GL212950   6.688  40.923   8.850
 4072POPC   C1A12951   6.631  40.751   8.550
 4072POPC   D2A12952   6.609  40.773   8.250
 4072POPC   C3A12953   6.618  40.762   7.950
 4072POPC   C4A12954   6.647  40.775   7.650
 4072POPC   C1B12955   6.729  40.983   8.550
 4072POPC   C2B12956   6.801  41.026   8.250
 4072POPC   C3B12957   6.730  41.058   7.950
 4072POPC   C4B12958   6.747  40.973   7.650
 4073POPC   NC312959  32.221  44.690   9.450
 4073POPC   PO412960  32.289  44.641   9.150
 4073POPC   GL112961  32.295  44.645   8.850
 4073POPC   GL212962  32.416  44.676   8.850
 4073POPC   C1A12963  32.287  44.685   8.550
 4073POPC   D2A12964  32.224  44.709   8.250
 4073POPC   C3A12965  32.222  44.638   7.950
 4073POPC   C4A12966  32.280  44.641   7.650
 4073POPC   C1B12967  32.514  44.663   8.550
 4073POPC   C2B12968  32.463  44.666   8.250
 4073POPC   C3B12969  32.534  44.657   7.950
 4073POPC   C4B12970  32.500  44.722   7.650
 4074POPC   NC312971  22.931  36.118   9.450
 4074POPC   PO412972  22.923  36.085   9.150
 4074POPC   GL112973  22.964  36.090   8.850
 4074POPC   GL212974  23.092  36.077   8.850
 4074POPC   C1A12975  22.967  36.162   8.550
 4074POPC   D2A12976  22.889  36.129   8.250
 4074POPC   C3A12977  22.952  36.097   7.950
 4074POPC   C4A12978  22.914  36.128   7.650
 4074POPC   C1B12979  23.202  36.032   8.550
 4074POPC   C2B12980  23.194  36.012   8.250
 4074POPC   C3B12981  23.201  36.059   7.950
 4074POPC   C4B12982  23.187  36.065   7.650
 4075POPC   NC312983  26.867  22.195   9.450
 4075POPC   PO412984  26.784  22.166   9.150
 4075POPC   GL112985  26.831  22.161   8.850
 4075POPC   GL212986  26.655  22.202   8.850
 4075POPC   C1A12987  26.780  22.206   8.550
 4075POPC   D2A12988  26.849  22.156   8.250
 4075POPC   C3A12989  26.780  22.198   7.950
 4075POPC   C4A12990  26.828  22.138   7.650
 4075POPC   C1B12991  26.532  22.120   8.550
 4075POPC   C2B12992  26.596  22.151   8.250
 4075POPC   C3B12993  26.554  22.200   7.950
 4075POPC   C4B12994  26.563  22.169   7.650
 4076POPC   NC312995  12.894  35.335   9.450
 4076POPC   PO412996  12.859  35.386   9.150
 4076POPC   GL112997  12.840  35.357   8.850
 4076POPC   GL212998  12.785  35.225   8.850
 4076POPC   C1A12999  12.858  35.360   8.550
 4076POPC   D2A13000  12.862  35.333   8.250
 4076POPC   C3A13001  12.824  35.335   7.950
 4076POPC   C4A13002  12.832  35.375   7.650
 4076POPC   C1B13003  12.748  35.184   8.550
 4076POPC   C2B13004  12.740  35.145   8.250
 4076POPC   C3B13005  12.696  35.166   7.950
 4076POPC   C4B13006  12.753  35.145   7.650
 4077POPC   NC313007   7.391  10.564   9.450
 4077POPC   PO413008   7.459  10.520   9.150
 4077POPC   GL113009   7.455  10.548   8.850
 4077POPC   GL213010   7.301  10.569   8.850
 4077POPC   C1A13011   7.417  10.503   8.550
 4077POPC   D2A13012   7.465  10.547   8.250
 4077POPC   C3A13013   7.427  10.496   7.950
 4077POPC   C4A13014   7.413  10.520   7.650
 4077POPC   C1B13015   7.197  10.646   8.550
 4077POPC   C2B13016   7.148  10.628   8.250
 4077POPC   C3B13017   7.191  10.626   7.950
 4077POPC   C4B13018   7.201  10.601   7.650
 4078POPC   NC313019  23.746  35.317   9.450
 4078POPC   PO413020  23.734  35.355   9.150
 4078POPC   GL113021  23.748  35.369   8.850
 4078POPC   GL213022  23.731  35.491   8.850
 4078POPC   C1A13023  23.706  35.322   8.550
 4078POPC   D2A13024  23.751  35.343   8.250
 4078POPC   C3A13025  23.675  35.346   7.950
 4078POPC   C4A13026  23.678  35.351   7.650
 4078POPC   C1B13027  23.731  35.628   8.550
 4078POPC   C2B13028  23.671  35.612   8.250
 4078POPC   C3B13029  23.713  35.636   7.950
 4078POPC   C4B13030  23.720  35.637   7.650
 4079POPC   NC313031   4.362  29.911   9.450
 4079POPC   PO413032   4.355  29.948   9.150
 4079POPC   GL113033   4.333  29.907   8.850
 4079POPC   GL213034   4.405  29.935   8.850
 4079POPC   C1A13035   4.288  29.954   8.550
 4079POPC   D2A13036   4.309  29.876   8.250
 4079POPC   C3A13037   4.329  29.873   7.950
 4079POPC   C4A13038   4.312  29.894   7.650
 4079POPC   C1B13039   4.570  29.939   8.550
 4079POPC   C2B13040   4.579  29.956   8.250
 4079POPC   C3B13041   4.544  29.950   7.950
 4079POPC   C4B13042   4.581  29.891   7.650
 4080POPC   NC313043  34.606  42.287   9.450
 4080POPC   PO413044  34.548  42.318   9.150
 4080POPC   GL113045  34.615  42.333   8.850
 4080POPC   GL213046  34.709  42.400   8.850
 4080POPC   C1A13047  34.583  42.328   8.550
 4080POPC   D2A13048  34.537  42.319   8.250
 4080POPC   C3A13049  34.544  42.303   7.950
 4080POPC   C4A13050  34.569  42.353   7.650
 4080POPC   C1B13051  34.780  42.346   8.550
 4080POPC   C2B13052  34.797  42.363   8.250
 4080POPC   C3B13053  34.862  42.419   7.950
 4080POPC   C4B13054  34.783  42.395   7.650
 4081POPC   NC313055  17.466  21.415   9.450
 4081POPC   PO413056  17.510  21.383   9.150
 4081POPC   GL113057  17.501  21.420   8.850
 4081POPC   GL213058  17.567  21.290   8.850
 4081POPC   C1A13059  17.479  21.400   8.550
 4081POPC   D2A13060  17.509  21.435   8.250
 4081POPC   C3A13061  17.474  21.395   7.950
 4081POPC   C4A13062  17.497  21.382   7.650
 4081POPC   C1B13063  17.634  21.150   8.550
 4081POPC   C2B13064  17.599  21.177   8.250
 4081POPC   C3B13065  17.667  21.183   7.950
 4081POPC   C4B13066  17.623  21.138   7.650
 4082POPC   NC313067  30.728   1.993   9.450
 4082POPC   PO413068  30.648   1.986   9.150
 4082POPC   GL113069  30.657   2.008   8.850
 4082POPC   GL213070  30.692   1.848   8.850
 4082POPC   C1A13071  30.746   1.971   8.550
 4082POPC   D2A13072  30.721   1.944   8.250
 4082POPC   C3A13073  30.722   2.013   7.950
 4082POPC   C4A13074  30.694   1.978   7.650
 4082POPC   C1B13075  30.732   1.697   8.550
 4082POPC   C2B13076  30.678   1.727   8.250
 4082POPC   C3B13077  30.732   1.693   7.950
 4082POPC   C4B13078  30.650   1.765   7.650
 4083POPC   NC313079  41.593  26.810   9.450
 4083POPC   PO413080  41.587  26.858   9.150
 4083POPC   GL113081  41.518  26.786   8.850
 4083POPC   GL213082  41.531  26.717   8.850
 4083POPC   C1A13083  41.532  26.797   8.550
 4083POPC   D2A13084  41.606  26.837   8.250
 4083POPC   C3A13085  41.548  26.833   7.950
 4083POPC   C4A13086  41.550  26.837   7.650
 4083POPC   C1B13087  41.470  26.592   8.550
 4083POPC   C2B13088  41.444  26.567   8.250
 4083POPC   C3B13089  41.424  26.558   7.950
 4083POPC   C4B13090  41.407  26.635   7.650
 4084POPC   NC313091  27.625  37.653   9.450
 4084POPC   PO413092  27.560  37.701   9.150
 4084POPC   GL113093  27.566  37.653   8.850
 4084POPC   GL213094  27.469  37.573   8.850
 4084POPC   C1A13095  27.558  37.701   8.550
 4084POPC   D2A13096  27.574  37.670   8.250
 4084POPC   C3A13097  27.620  37.634   7.950
 4084POPC   C4A13098  27.638  37.669   7.650
 4084POPC   C1B13099  27.371  37.496   8.550
 4084POPC   C2B13100  27.373  37.547   8.250
 4084POPC   C3B13101  27.424  37.478   7.950
 4084POPC   C4B13102  27.426  37.534   7.650
 4085POPC   NC313103  35.332  43.100   9.450
 4085POPC   PO413104  35.399  43.072   9.150
 4085POPC   GL113105  35.352  43.113   8.850
 4085POPC   GL213106  35.287  43.204   8.850
 4085POPC   C1A13107  35.312  43.061   8.550
 4085POPC   D2A13108  35.302  43.152   8.250
 4085POPC   C3A13109  35.393  43.079   7.950
 4085POPC   C4A13110  35.379  43.066   7.650
 4085POPC   C1B13111  35.219  43.336   8.550
 4085POPC   C2B13112  35.205  43.273   8.250
 4085POPC   C3B13113  35.171  43.340   7.950
 4085POPC   C4B13114  35.166  43.323   7.650
 4086POPC   NC313115  22.969  35.336   9.450
 4086POPC   PO413116  22.965  35.311   9.150
 4086POPC   GL113117  22.898  35.322   8.850
 4086POPC   GL213118  22.891  35.264   8.850
 4086POPC   C1A13119  22.916  35.381   8.550
 4086POPC   D2A13120  22.960  35.331   8.250
 4086POPC   C3A13121  22.972  35.363   7.950
 4086POPC   C4A13122  22.986  35.315   7.650
 4086POPC   C1B13123  22.865  35.103   8.550
 4086POPC   C2B13124  22.916  35.141   8.250
 4086POPC   C3B13125  22.891  35.059   7.950
 4086POPC   C4B13126  22.894  35.118   7.650
 4087POPC   NC313127  36.114  15.955   9.450
 4087POPC   PO413128  36.152  15.983   9.150
 4087POPC   GL113129  36.139  15.944   8.850
 4087POPC   GL213130  36.032  16.034   8.850
 4087POPC   C1A13131  36.158  15.927   8.550
 4087POPC   D2A13132  36.172  15.944   8.250
 4087POPC   C3A13133  36.099  15.991   7.950
 4087POPC   C4A13134  36.159  15.913   7.650
 4087POPC   C1B13135  35.906  16.109   8.550
 4087POPC   C2B13136  35.880  16.100   8.250
 4087POPC   C3B13137  35.889  16.095   7.950
 4087POPC   C4B13138  35.911  16.039   7.650
 4088POPC   NC313139  43.898  23.756   9.450
 4088POPC   PO413140  43.882  23.724   9.150
 4088POPC   GL113141  43.923  23.744   8.850
 4088POPC   GL213142  43.824  23.839   8.850
 4088POPC   C1A13143  43.920  23.722   8.550
 4088POPC   D2A13144  43.930  23.727   8.250
 4088POPC   C3A13145  43.854  23.723   7.950
 4088POPC   C4A13146  43.856  23.748   7.650
 4088POPC   C1B13147  43.689  23.905   8.550
 4088POPC   C2B13148  43.762  23.868   8.250
 4088POPC   C3B13149  43.702  23.919   7.950
 4088POPC   C4B13150  43.712  23.928   7.650
 4089POPC   NC313151  17.460  10.513   9.450
 4089POPC   PO413152  17.472  10.518   9.150
 4089POPC   GL113153  17.504  10.557   8.850
 4089POPC   GL213154  17.615  10.507   8.850
 4089POPC   C1A13155  17.480  10.568   8.550
 4089POPC   D2A13156  17.511  10.564   8.250
 4089POPC   C3A13157  17.486  10.538   7.950
 4089POPC   C4A13158  17.471  10.535   7.650
 4089POPC   C1B13159  17.713  10.533   8.550
 4089POPC   C2B13160  17.764  10.451   8.250
 4089POPC   C3B13161  17.782  10.456   7.950
 4089POPC   C4B13162  17.768  10.452   7.650
 4090POPC   NC313163  41.580  37.644   9.450
 4090POPC   PO413164  41.585  37.652   9.150
 4090POPC   GL113165  41.588  37.712   8.850
 4090POPC   GL213166  41.486  37.643   8.850
 4090POPC   C1A13167  41.561  37.705   8.550
 4090POPC   D2A13168  41.592  37.664   8.250
 4090POPC   C3A13169  41.548  37.685   7.950
 4090POPC   C4A13170  41.509  37.640   7.650
 4090POPC   C1B13171  41.270  37.667   8.550
 4090POPC   C2B13172  41.306  37.616   8.250
 4090POPC   C3B13173  41.358  37.646   7.950
 4090POPC   C4B13174  41.305  37.613   7.650
 4091POPC   NC313175  16.717  40.044   9.450
 4091POPC   PO413176  16.768  40.025   9.150
 4091POPC   GL113177  16.760  39.967   8.850
 4091POPC   GL213178  16.664  40.117   8.850
 4091POPC   C1A13179  16.695  39.976   8.550
 4091POPC   D2A13180  16.747  40.018   8.250
 4091POPC   C3A13181  16.693  40.007   7.950
 4091POPC   C4A13182  16.696  39.988   7.650
 4091POPC   C1B13183  16.632  40.224   8.550
 4091POPC   C2B13184  16.606  40.240   8.250
 4091POPC   C3B13185  16.585  40.188   7.950
 4091POPC   C4B13186  16.562  40.167   7.650
 4092POPC   NC313187  33.846  32.235   9.450
 4092POPC   PO413188  33.753  32.272   9.150
 4092POPC   GL113189  33.758  32.249   8.850
 4092POPC   GL213190  33.755  32.321   8.850
 4092POPC   C1A13191  33.766  32.202   8.550
 4092POPC   D2A13192  33.827  32.227   8.250
 4092POPC   C3A13193  33.800  32.257   7.950
 4092POPC   C4A13194  33.794  32.218   7.650
 4092POPC   C1B13195  33.738  32.518   8.550
 4092POPC   C2B13196  33.706  32.469   8.250
 4092POPC   C3B13197  33.790  32.474   7.950
 4092POPC   C4B13198  33.802  32.526   7.650
 4093POPC   NC313199  15.985  36.938   9.450
 4093POPC   PO413200  15.987  36.896   9.150
 4093POPC   GL113201  15.922  36.856   8.850
 4093POPC   GL213202  16.067  36.809   8.850
 4093POPC   C1A13203  15.933  36.934   8.550
 4093POPC   D2A13204  15.972  36.903   8.250
 4093POPC   C3A13205  15.964  36.857   7.950
 4093POPC   C4A13206  15.980  36.863   7.650
 4093POPC   C1B13207  16.172  36.757   8.550
 4093POPC   C2B13208  16.203  36.774   8.250
 4093POPC   C3B13209  16.126  36.749   7.950
 4093POPC   C4B13210  16.135  36.777   7.650
 4094POPC   NC313211  20.633  11.296   9.450
 4094POPC   PO413212  20.625  11.280   9.150
 4094POPC   GL113213  20.605  11.306   8.850
 4094POPC   GL213214  20.545  11.390   8.850
 4094POPC   C1A13215  20.597  11.303   8.550
 4094POPC   D2A13216  20.646  11.258   8.250
 4094POPC   C3A13217  20.657  11.270   7.950
 4094POPC   C4A13218  20.650  11.296   7.650
 4094POPC   C1B13219  20.566  11.565   8.550
 4094POPC   C2B13220  20.601  11.572   8.250
 4094POPC   C3B13221  20.556  11.547   7.950
 4094POPC   C4B13222  20.599  11.593   7.650
 4095POPC   NC313223  40.009  11.270   9.450
 4095POPC   PO413224  40.008  11.285   9.150
 4095POPC   GL113225  39.965  11.255   8.850
 4095POPC   GL213226  40.102  11.176   8.850
 4095POPC   C1A13227  40.051  11.326   8.550
 4095POPC   D2A13228  39.963  11.314   8.250
 4095POPC   C3A13229  40.009  11.319   7.950
 4095POPC   C4A13230  40.053  11.308   7.650
 4095POPC   C1B13231  40.163  11.051   8.550
 4095POPC   C2B13232  40.096  11.043   8.250
 4095POPC   C3B13233  40.147  11.048   7.950
 4095POPC   C4B13234  40.109  11.054   7.650
 4096POPC   NC313235  21.361  20.615   9.450
 4096POPC   PO413236  21.356  20.604   9.150
 4096POPC   GL113237  21.390  20.565   8.850
 4096POPC   GL213238  21.352  20.768   8.850
 4096POPC   C1A13239  21.401  20.657   8.550
 4096POPC   D2A13240  21.376  20.595   8.250
 4096POPC   C3A13241  21.410  20.613   7.950
 4096POPC   C4A13242  21.338  20.634   7.650
 4096POPC   C1B13243  21.346  20.890   8.550
 4096POPC   C2B13244  21.350  20.863   8.250
 4096POPC   C3B13245  21.328  20.832   7.950
 4096POPC   C4B13246  21.295  20.852   7.650
 4097POPC   NC313247   1.224  40.755   9.450
 4097POPC   PO413248   1.192  40.829   9.150
 4097POPC   GL113249   1.248  40.745   8.850
 4097POPC   GL213250   1.256  40.882   8.850
 4097POPC   C1A13251   1.246  40.825   8.550
 4097POPC   D2A13252   1.211  40.830   8.250
 4097POPC   C3A13253   1.234  40.741   7.950
 4097POPC   C4A13254   1.237  40.773   7.650
 4097POPC   C1B13255   1.328  40.931   8.550
 4097POPC   C2B13256   1.339  41.023   8.250
 4097POPC   C3B13257   1.410  40.966   7.950
 4097POPC   C4B13258   1.331  41.019   7.650
 4098POPC   NC313259  17.502  20.624   9.450
 4098POPC   PO413260  17.458  20.586   9.150
 4098POPC   GL113261  17.548  20.623   8.850
 4098POPC   GL213262  17.587  20.546   8.850
 4098POPC   C1A13263  17.506  20.650   8.550
 4098POPC   D2A13264  17.466  20.573   8.250
 4098POPC   C3A13265  17.532  20.617   7.950
 4098POPC   C4A13266  17.501  20.624   7.650
 4098POPC   C1B13267  17.708  20.565   8.550
 4098POPC   C2B13268  17.787  20.478   8.250
 4098POPC   C3B13269  17.741  20.482   7.950
 4098POPC   C4B13270  17.693  20.473   7.650
 4099POPC   NC313271  18.241  36.880   9.450
 4099POPC   PO413272  18.282  36.868   9.150
 4099POPC   GL113273  18.241  36.928   8.850
 4099POPC   GL213274  18.213  36.804   8.850
 4099POPC   C1A13275  18.307  36.894   8.550
 4099POPC   D2A13276  18.268  36.931   8.250
 4099POPC   C3A13277  18.243  36.913   7.950
 4099POPC   C4A13278  18.313  36.914   7.650
 4099POPC   C1B13279  18.094  36.797   8.550
 4099POPC   C2B13280  18.040  36.746   8.250
 4099POPC   C3B13281  18.081  36.796   7.950
 4099POPC   C4B13282  18.065  36.771   7.650
 4100POPC   NC313283  33.001  34.604   9.450
 4100POPC   PO413284  33.002  34.541   9.150
 4100POPC   GL113285  33.046  34.602   8.850
 4100POPC   GL213286  32.979  34.713   8.850
 4100POPC   C1A13287  33.064  34.594   8.550
 4100POPC   D2A13288  33.057  34.592   8.250
 4100POPC   C3A13289  32.993  34.570   7.950
 4100POPC   C4A13290  33.015  34.540   7.650
 4100POPC   C1B13291  32.867  34.737   8.550
 4100POPC   C2B13292  32.868  34.726   8.250
 4100POPC   C3B13293  32.872  34.728   7.950
 4100POPC   C4B13294  32.917  34.736   7.650
 4101POPC   NC313295   1.242  13.647   9.450
 4101POPC   PO413296   1.210  13.643   9.150
 4101POPC   GL113297   1.188  13.664   8.850
 4101POPC   GL213298   1.222  13.785   8.850
 4101POPC   C1A13299   1.245  13.645   8.550
 4101POPC   D2A13300   1.260  13.597   8.250
 4101POPC   C3A13301   1.218  13.595   7.950
 4101POPC   C4A13302   1.244  13.651   7.650
 4101POPC   C1B13303   1.155  13.901   8.550
 4101POPC   C2B13304   1.137  13.831   8.250
 4101POPC   C3B13305   1.158  13.906   7.950
 4101POPC   C4B13306   1.173  13.874   7.650
 4102POPC   NC313307  20.593  23.747   9.450
 4102POPC   PO413308  20.658  23.735   9.150
 4102POPC   GL113309  20.613  23.690   8.850
 4102POPC   GL213310  20.636  23.796   8.850
 4102POPC   C1A13311  20.641  23.673   8.550
 4102POPC   D2A13312  20.614  23.672   8.250
 4102POPC   C3A13313  20.575  23.700   7.950
 4102POPC   C4A13314  20.594  23.717   7.650
 4102POPC   C1B13315  20.767  23.953   8.550
 4102POPC   C2B13316  20.756  23.971   8.250
 4102POPC   C3B13317  20.703  23.961   7.950
 4102POPC   C4B13318  20.703  23.904   7.650
 4103POPC   NC313319  32.273   5.879   9.450
 4103POPC   PO413320  32.227   5.917   9.150
 4103POPC   GL113321  32.244   5.823   8.850
 4103POPC   GL213322  32.234   5.937   8.850
 4103POPC   C1A13323  32.283   5.831   8.550
 4103POPC   D2A13324  32.244   5.821   8.250
 4103POPC   C3A13325  32.214   5.866   7.950
 4103POPC   C4A13326  32.252   5.855   7.650
 4103POPC   C1B13327  32.111   6.116   8.550
 4103POPC   C2B13328  32.178   6.095   8.250
 4103POPC   C3B13329  32.098   6.073   7.950
 4103POPC   C4B13330  32.111   6.050   7.650
 4104POPC   NC313331  43.116  31.522   9.450
 4104POPC   PO413332  43.077  31.486   9.150
 4104POPC   GL113333  43.062  31.426   8.850
 4104POPC   GL213334  43.147  31.609   8.850
 4104POPC   C1A13335  43.113  31.447   8.550
 4104POPC   D2A13336  43.092  31.466   8.250
 4104POPC   C3A13337  43.061  31.463   7.950
 4104POPC   C4A13338  43.159  31.474   7.650
 4104POPC   C1B13339  43.205  31.695   8.550
 4104POPC   C2B13340  43.279  31.703   8.250
 4104POPC   C3B13341  43.238  31.636   7.950
 4104POPC   C4B13342  43.250  31.727   7.650
 4105POPC   NC313343  10.495  34.613   9.450
 4105POPC   PO413344  10.507  34.606   9.150
 4105POPC   GL113345  10.481  34.578   8.850
 4105POPC   GL213346  10.472  34.737   8.850
 4105POPC   C1A13347  10.506  34.550   8.550
 4105POPC   D2A13348  10.569  34.604   8.250
 4105POPC   C3A13349  10.558  34.533   7.950
 4105POPC   C4A13350  10.477  34.561   7.650
 4105POPC   C1B13351  10.526  34.841   8.550
 4105POPC   C2B13352  10.514  34.831   8.250
 4105POPC   C3B13353  10.486  34.857   7.950
 4105POPC   C4B13354  10.443  34.778   7.650
 4106POPC   NC313355   8.183  43.912   9.450
 4106POPC   PO413356   8.162  43.905   9.150
 4106POPC   GL113357   8.175  43.913   8.850
 4106POPC   GL213358   8.308  43.788   8.850
 4106POPC   C1A13359   8.206  43.843   8.550
 4106POPC   D2A13360   8.192  43.904   8.250
 4106POPC   C3A13361   8.210  43.845   7.950
 4106POPC   C4A13362   8.183  43.840   7.650
 4106POPC   C1B13363   8.382  43.823   8.550
 4106POPC   C2B13364   8.471  43.821   8.250
 4106POPC   C3B13365   8.381  43.824   7.950
 4106POPC   C4B13366   8.390  43.799   7.650
 4107POPC   NC313367  27.583  21.371   9.450
 4107POPC   PO413368  27.613  21.355   9.150
 4107POPC   GL113369  27.610  21.359   8.850
 4107POPC   GL213370  27.718  21.372   8.850
 4107POPC   C1A13371  27.583  21.430   8.550
 4107POPC   D2A13372  27.588  21.342   8.250
 4107POPC   C3A13373  27.633  21.399   7.950
 4107POPC   C4A13374  27.565  21.419   7.650
 4107POPC   C1B13375  27.821  21.443   8.550
 4107POPC   C2B13376  27.799  21.414   8.250
 4107POPC   C3B13377  27.846  21.434   7.950
 4107POPC   C4B13378  27.855  21.451   7.650
 4108POPC   NC313379  15.204  42.356   9.450
 4108POPC   PO413380  15.181  42.310   9.150
 4108POPC   GL113381  15.135  42.378   8.850
 4108POPC   GL213382  15.037  42.370   8.850
 4108POPC   C1A13383  15.214  42.353   8.550
 4108POPC   D2A13384  15.221  42.334   8.250
 4108POPC   C3A13385  15.177  42.378   7.950
 4108POPC   C4A13386  15.227  42.347   7.650
 4108POPC   C1B13387  14.894  42.383   8.550
 4108POPC   C2B13388  14.946  42.381   8.250
 4108POPC   C3B13389  14.943  42.381   7.950
 4108POPC   C4B13390  14.941  42.315   7.650
 4109POPC   NC313391  43.842  26.006   9.450
 4109POPC   PO413392  43.888  25.993   9.150
 4109POPC   GL113393  43.888  26.089   8.850
 4109POPC   GL213394  43.854  25.930   8.850
 4109POPC   C1A13395  43.895  26.082   8.550
 4109POPC   D2A13396  43.897  26.075   8.250
 4109POPC   C3A13397  43.914  26.050   7.950
 4109POPC   C4A13398  43.932  26.056   7.650
 4109POPC   C1B13399  43.906  25.830   8.550
 4109POPC   C2B13400  43.867  25.748   8.250
 4109POPC   C3B13401  43.895  25.809   7.950
 4109POPC   C4B13402  43.903  25.829   7.650
 4110POPC   NC313403  34.536  12.103   9.450
 4110POPC   PO413404  34.544  12.125   9.150
 4110POPC   GL113405  34.608  12.088   8.850
 4110POPC   GL213406  34.424  12.049   8.850
 4110POPC   C1A13407  34.590  12.038   8.550
 4110POPC   D2A13408  34.530  12.125   8.250
 4110POPC   C3A13409  34.619  12.073   7.950
 4110POPC   C4A13410  34.578  12.080   7.650
 4110POPC   C1B13411  34.295  12.071   8.550
 4110POPC   C2B13412  34.340  12.091   8.250
 4110POPC   C3B13413  34.290  12.030   7.950
 4110POPC   C4B13414  34.333  12.022   7.650
 4111POPC   NC313415  40.829  12.090   9.450
 4111POPC   PO413416  40.792  12.079   9.150
 4111POPC   GL113417  40.810  12.068   8.850
 4111POPC   GL213418  40.788  11.942   8.850
 4111POPC   C1A13419  40.777  12.099   8.550
 4111POPC   D2A13420  40.813  12.096   8.250
 4111POPC   C3A13421  40.823  12.034   7.950
 4111POPC   C4A13422  40.749  12.044   7.650
 4111POPC   C1B13423  40.753  11.829   8.550
 4111POPC   C2B13424  40.796  11.815   8.250
 4111POPC   C3B13425  40.807  11.830   7.950
 4111POPC   C4B13426  40.839  11.786   7.650
 4112POPC   NC313427  32.280  19.018   9.450
 4112POPC   PO413428  32.252  19.056   9.150
 4112POPC   GL113429  32.209  19.093   8.850
 4112POPC   GL213430  32.214  19.165   8.850
 4112POPC   C1A13431  32.281  19.092   8.550
 4112POPC   D2A13432  32.220  19.074   8.250
 4112POPC   C3A13433  32.275  19.029   7.950
 4112POPC   C4A13434  32.207  19.022   7.650
 4112POPC   C1B13435  32.088  19.294   8.550
 4112POPC   C2B13436  32.139  19.225   8.250
 4112POPC   C3B13437  32.108  19.248   7.950
 4112POPC   C4B13438  32.082  19.230   7.650
 4113POPC   NC313439  32.975  29.896   9.450
 4113POPC   PO413440  33.045  29.939   9.150
 4113POPC   GL113441  33.015  29.890   8.850
 4113POPC   GL213442  33.110  29.978   8.850
 4113POPC   C1A13443  33.026  29.927   8.550
 4113POPC   D2A13444  33.035  29.917   8.250
 4113POPC   C3A13445  32.993  29.886   7.950
 4113POPC   C4A13446  33.043  29.933   7.650
 4113POPC   C1B13447  33.213  30.082   8.550
 4113POPC   C2B13448  33.214  30.084   8.250
 4113POPC   C3B13449  33.272  30.061   7.950
 4113POPC   C4B13450  33.247  30.039   7.650
 4114POPC   NC313451  22.147  22.187   9.450
 4114POPC   PO413452  22.197  22.207   9.150
 4114POPC   GL113453  22.210  22.155   8.850
 4114POPC   GL213454  22.090  22.270   8.850
 4114POPC   C1A13455  22.170  22.151   8.550
 4114POPC   D2A13456  22.115  22.177   8.250
 4114POPC   C3A13457  22.135  22.155   7.950
 4114POPC   C4A13458  22.180  22.154   7.650
 4114POPC   C1B13459  22.069  22.438   8.550
 4114POPC   C2B13460  22.111  22.439   8.250
 4114POPC   C3B13461  22.142  22.371   7.950
 4114POPC   C4B13462  22.101  22.357   7.650
 4115POPC   NC313463  40.754  32.271   9.450
 4115POPC   PO413464  40.787  32.271   9.150
 4115POPC   GL113465  40.746  32.201   8.850
 4115POPC   GL213466  40.681  32.111   8.850
 4115POPC   C1A13467  40.776  32.293   8.550
 4115POPC   D2A13468  40.738  32.231   8.250
 4115POPC   C3A13469  40.764  32.208   7.950
 4115POPC   C4A13470  40.786  32.223   7.650
 4115POPC   C1B13471  40.619  32.022   8.550
 4115POPC   C2B13472  40.624  32.031   8.250
 4115POPC   C3B13473  40.661  32.044   7.950
 4115POPC   C4B13474  40.697  32.019   7.650
 4116POPC   NC313475  18.256  10.529   9.450
 4116POPC   PO413476  18.237  10.494   9.150
 4116POPC   GL113477  18.323  10.489   8.850
 4116POPC   GL213478  18.178  10.580   8.850
 4116POPC   C1A13479  18.284  10.532   8.550
 4116POPC   D2A13480  18.255  10.474   8.250
 4116POPC   C3A13481  18.274  10.555   7.950
 4116POPC   C4A13482  18.291  10.541   7.650
 4116POPC   C1B13483  18.083  10.639   8.550
 4116POPC   C2B13484  18.030  10.658   8.250
 4116POPC   C3B13485  18.087  10.648   7.950
 4116POPC   C4B13486  18.008  10.603   7.650
 4117POPC   NC313487  28.389   8.199   9.450
 4117POPC   PO413488  28.362   8.182   9.150
 4117POPC   GL113489  28.384   8.227   8.850
 4117POPC   GL213490  28.464   8.258   8.850
 4117POPC   C1A13491  28.355   8.195   8.550
 4117POPC   D2A13492  28.320   8.239   8.250
 4117POPC   C3A13493  28.387   8.172   7.950
 4117POPC   C4A13494  28.362   8.204   7.650
 4117POPC   C1B13495  28.541   8.378   8.550
 4117POPC   C2B13496  28.578   8.358   8.250
 4117POPC   C3B13497  28.578   8.365   7.950
 4117POPC   C4B13498  28.556   8.383   7.650
 4118POPC   NC313499  19.853  28.327   9.450
 4118POPC   PO413500  19.819  28.350   9.150
 4118POPC   GL113501  19.870  28.394   8.850
 4118POPC   GL213502  19.676  28.324   8.850
 4118POPC   C1A13503  19.879  28.381   8.550
 4118POPC   D2A13504  19.857  28.333   8.250
 4118POPC   C3A13505  19.788  28.399   7.950
 4118POPC   C4A13506  19.792  28.347   7.650
 4118POPC   C1B13507  19.596  28.338   8.550
 4118POPC   C2B13508  19.596  28.299   8.250
 4118POPC   C3B13509  19.635  28.377   7.950
 4118POPC   C4B13510  19.548  28.370   7.650
 4119POPC   NC313511  43.118  40.040   9.450
 4119POPC   PO413512  43.113  39.965   9.150
 4119POPC   GL113513  43.140  39.975   8.850
 4119POPC   GL213514  42.947  39.972   8.850
 4119POPC   C1A13515  43.141  40.042   8.550
 4119POPC   D2A13516  43.105  39.965   8.250
 4119POPC   C3A13517  43.150  39.973   7.950
 4119POPC   C4A13518  43.119  39.967   7.650
 4119POPC   C1B13519  42.850  39.996   8.550
 4119POPC   C2B13520  42.823  39.959   8.250
 4119POPC   C3B13521  42.842  39.955   7.950
 4119POPC   C4B13522  42.817  39.938   7.650
 4120POPC   NC313523   4.357  34.597   9.450
 4120POPC   PO413524   4.359  34.607   9.150
 4120POPC   GL113525   4.284  34.561   8.850
 4120POPC   GL213526   4.279  34.415   8.850
 4120POPC   C1A13527   4.309  34.558   8.550
 4120POPC   D2A13528   4.281  34.576   8.250
 4120POPC   C3A13529   4.300  34.600   7.950
 4120POPC   C4A13530   4.280  34.561   7.650
 4120POPC   C1B13531   4.198  34.402   8.550
 4120POPC   C2B13532   4.195  34.374   8.250
 4120POPC   C3B13533   4.194  34.396   7.950
 4120POPC   C4B13534   4.228  34.376   7.650
 4121POPC   NC313535  35.387  26.022   9.450
 4121POPC   PO413536  35.310  26.003   9.150
 4121POPC   GL113537  35.366  25.992   8.850
 4121POPC   GL213538  35.277  26.002   8.850
 4121POPC   C1A13539  35.373  26.016   8.550
 4121POPC   D2A13540  35.349  26.050   8.250
 4121POPC   C3A13541  35.334  26.036   7.950
 4121POPC   C4A13542  35.332  26.035   7.650
 4121POPC   C1B13543  35.150  25.968   8.550
 4121POPC   C2B13544  35.111  25.933   8.250
 4121POPC   C3B13545  35.098  25.954   7.950
 4121POPC   C4B13546  35.123  25.888   7.650
 4122POPC   NC313547  22.164  24.502   9.450
 4122POPC   PO413548  22.136  24.472   9.150
 4122POPC   GL113549  22.204  24.516   8.850
 4122POPC   GL213550  22.040  24.556   8.850
 4122POPC   C1A13551  22.138  24.465   8.550
 4122POPC   D2A13552  22.150  24.492   8.250
 4122POPC   C3A13553  22.191  24.513   7.950
 4122POPC   C4A13554  22.194  24.452   7.650
 4122POPC   C1B13555  21.912  24.601   8.550
 4122POPC   C2B13556  21.899  24.519   8.250
 4122POPC   C3B13557  21.898  24.602   7.950
 4122POPC   C4B13558  21.899  24.552   7.650
 4123POPC   NC313559  23.691  13.647   9.450
 4123POPC   PO413560  23.742  13.667   9.150
 4123POPC   GL113561  23.739  13.664   8.850
 4123POPC   GL213562  23.791  13.613   8.850
 4123POPC   C1A13563  23.752  13.632   8.550
 4123POPC   D2A13564  23.679  13.598   8.250
 4123POPC   C3A13565  23.673  13.622   7.950
 4123POPC   C4A13566  23.666  13.661   7.650
 4123POPC   C1B13567  23.960  13.579   8.550
 4123POPC   C2B13568  23.968  13.508   8.250
 4123POPC   C3B13569  23.898  13.543   7.950
 4123POPC   C4B13570  23.961  13.521   7.650
 4124POPC   NC313571  38.490  24.496   9.450
 4124POPC   PO413572  38.463  24.490   9.150
 4124POPC   GL113573  38.446  24.521   8.850
 4124POPC   GL213574  38.567  24.507   8.850
 4124POPC   C1A13575  38.423  24.480   8.550
 4124POPC   D2A13576  38.456  24.493   8.250
 4124POPC   C3A13577  38.478  24.460   7.950
 4124POPC   C4A13578  38.485  24.525   7.650
 4124POPC   C1B13579  38.708  24.531   8.550
 4124POPC   C2B13580  38.723  24.482   8.250
 4124POPC   C3B13581  38.740  24.565   7.950
 4124POPC   C4B13582  38.702  24.508   7.650
 4125POPC   NC313583  13.592  25.235   9.450
 4125POPC   PO413584  13.582  25.280   9.150
 4125POPC   GL113585  13.628  25.315   8.850
 4125POPC   GL213586  13.548  25.334   8.850
 4125POPC   C1A13587  13.627  25.278   8.550
 4125POPC   D2A13588  13.668  25.293   8.250
 4125POPC   C3A13589  13.583  25.252   7.950
 4125POPC   C4A13590  13.607  25.232   7.650
 4125POPC   C1B13591  13.385  25.396   8.550
 4125POPC   C2B13592  13.436  25.431   8.250
 4125POPC   C3B13593  13.457  25.432   7.950
 4125POPC   C4B13594  13.425  25.381   7.650
 4126POPC   NC313595  31.503  16.752   9.450
 4126POPC   PO413596  31.460  16.681   9.150
 4126POPC   GL113597  31.464  16.686   8.850
 4126POPC   GL213598  31.612  16.650   8.850
 4126POPC   C1A13599  31.495  16.756   8.550
 4126POPC   D2A13600  31.450  16.691   8.250
 4126POPC   C3A13601  31.516  16.777   7.950
 4126POPC   C4A13602  31.439  16.779   7.650
 4126POPC   C1B13603  31.626  16.609   8.550
 4126POPC   C2B13604  31.629  16.563   8.250
 4126POPC   C3B13605  31.643  16.557   7.950
 4126POPC   C4B13606  31.707  16.600   7.650
 4127POPC   NC313607  38.480  39.203   9.450
 4127POPC   PO413608  38.463  39.224   9.150
 4127POPC   GL113609  38.417  39.214   8.850
 4127POPC   GL213610  38.536  39.296   8.850
 4127POPC   C1A13611  38.459  39.207   8.550
 4127POPC   D2A13612  38.473  39.272   8.250
 4127POPC   C3A13613  38.406  39.270   7.950
 4127POPC   C4A13614  38.422  39.186   7.650
 4127POPC   C1B13615  38.634  39.350   8.550
 4127POPC   C2B13616  38.627  39.376   8.250
 4127POPC   C3B13617  38.639  39.379   7.950
 4127POPC   C4B13618  38.635  39.391   7.650
 4128POPC   NC313619  42.362   8.166   9.450
 4128POPC   PO413620  42.325   8.216   9.150
 4128POPC   GL113621  42.370   8.216   8.850
 4128POPC   GL213622  42.207   8.233   8.850
 4128POPC   C1A13623  42.285   8.155   8.550
 4128POPC   D2A13624  42.313   8.150   8.250
 4128POPC   C3A13625  42.313   8.167   7.950
 4128POPC   C4A13626  42.288   8.149   7.650
 4128POPC   C1B13627  42.070   8.279   8.550
 4128POPC   C2B13628  42.109   8.256   8.250
 4128POPC   C3B13629  42.067   8.231   7.950
 4128POPC   C4B13630  42.041   8.274   7.650
 4129POPC   NC313631   8.200  36.855   9.450
 4129POPC   PO413632   8.192  36.899   9.150
 4129POPC   GL113633   8.200  36.886   8.850
 4129POPC   GL213634   8.297  36.843   8.850
 4129POPC   C1A13635   8.216  36.895   8.550
 4129POPC   D2A13636   8.179  36.882   8.250
 4129POPC   C3A13637   8.189  36.897   7.950
 4129POPC   C4A13638   8.163  36.951   7.650
 4129POPC   C1B13639   8.400  36.827   8.550
 4129POPC   C2B13640   8.424  36.860   8.250
 4129POPC   C3B13641   8.394  36.856   7.950
 4129POPC   C4B13642   8.483  36.816   7.650
 4130POPC   NC313643  19.022   1.222   9.450
 4130POPC   PO413644  19.067   1.170   9.150
 4130POPC   GL113645  19.021   1.230   8.850
 4130POPC   GL213646  19.208   1.194   8.850
 4130POPC   C1A13647  19.026   1.166   8.550
 4130POPC   D2A13648  19.052   1.202   8.250
 4130POPC   C3A13649  19.028   1.213   7.950
 4130POPC   C4A13650  19.040   1.197   7.650
 4130POPC   C1B13651  19.283   1.159   8.550
 4130POPC   C2B13652  19.351   1.129   8.250
 4130POPC   C3B13653  19.295   1.133   7.950
 4130POPC   C4B13654  19.305   1.191   7.650
 4131POPC   NC313655  27.578   9.773   9.450
 4131POPC   PO413656  27.624   9.742   9.150
 4131POPC   GL113657  27.543   9.797   8.850
 4131POPC   GL213658  27.559   9.889   8.850
 4131POPC   C1A13659  27.623   9.793   8.550
 4131POPC   D2A13660  27.617   9.764   8.250
 4131POPC   C3A13661  27.630   9.778   7.950
 4131POPC   C4A13662  27.568   9.715   7.650
 4131POPC   C1B13663  27.463   9.959   8.550
 4131POPC   C2B13664  27.501   9.996   8.250
 4131POPC   C3B13665  27.454   9.994   7.950
 4131POPC   C4B13666  27.470   9.937   7.650
 4132POPC   NC313667  37.630   5.045   9.450
 4132POPC   PO413668  37.688   5.115   9.150
 4132POPC   GL113669  37.660   5.050   8.850
 4132POPC   GL213670  37.578   5.174   8.850
 4132POPC   C1A13671  37.637   5.072   8.550
 4132POPC   D2A13672  37.653   5.082   8.250
 4132POPC   C3A13673  37.723   5.100   7.950
 4132POPC   C4A13674  37.704   5.117   7.650
 4132POPC   C1B13675  37.585   5.289   8.550
 4132POPC   C2B13676  37.545   5.350   8.250
 4132POPC   C3B13677  37.556   5.352   7.950
 4132POPC   C4B13678  37.583   5.300   7.650
 4133POPC   NC313679  43.109  34.545   9.450
 4133POPC   PO413680  43.083  34.550   9.150
 4133POPC   GL113681  43.094  34.575   8.850
 4133POPC   GL213682  43.117  34.416   8.850
 4133POPC   C1A13683  43.109  34.549   8.550
 4133POPC   D2A13684  43.133  34.591   8.250
 4133POPC   C3A13685  43.144  34.608   7.950
 4133POPC   C4A13686  43.126  34.574   7.650
 4133POPC   C1B13687  43.063  34.343   8.550
 4133POPC   C2B13688  43.079  34.310   8.250
 4133POPC   C3B13689  43.107  34.345   7.950
 4133POPC   C4B13690  43.045  34.326   7.650
 4134POPC   NC313691  26.083  41.590   9.450
 4134POPC   PO413692  26.072  41.568   9.150
 4134POPC   GL113693  26.079  41.580   8.850
 4134POPC   GL213694  25.927  41.535   8.850
 4134POPC   C1A13695  26.062  41.521   8.550
 4134POPC   D2A13696  26.028  41.558   8.250
 4134POPC   C3A13697  26.032  41.573   7.950
 4134POPC   C4A13698  26.081  41.587   7.650
 4134POPC   C1B13699  25.803  41.571   8.550
 4134POPC   C2B13700  25.812  41.486   8.250
 4134POPC   C3B13701  25.765  41.491   7.950
 4134POPC   C4B13702  25.834  41.539   7.650
 4135POPC   NC313703   7.459  44.636   9.450
 4135POPC   PO413704   7.448  44.656   9.150
 4135POPC   GL113705   7.439  44.686   8.850
 4135POPC   GL213706   7.338  44.688   8.850
 4135POPC   C1A13707   7.383  44.649   8.550
 4135POPC   D2A13708   7.383  44.683   8.250
 4135POPC   C3A13709   7.430  44.621   7.950
 4135POPC   C4A13710   7.468  44.671   7.650
 4135POPC   C1B13711   7.211  44.782   8.550
 4135POPC   C2B13712   7.253  44.834   8.250
 4135POPC   C3B13713   7.205  44.835   7.950
 4135POPC   C4B13714   7.168  44.759   7.650
 4136POPC   NC313715  14.432  24.446   9.450
 4136POPC   PO413716  14.395  24.442   9.150
 4136POPC   GL113717  14.369  24.527   8.850
 4136POPC   GL213718  14.256  24.413   8.850
 4136POPC   C1A13719  14.375  24.473   8.550
 4136POPC   D2A13720  14.427  24.475   8.250
 4136POPC   C3A13721  14.380  24.508   7.950
 4136POPC   C4A13722  14.417  24.520   7.650
 4136POPC   C1B13723  14.234  24.399   8.550
 4136POPC   C2B13724  14.205  24.405   8.250
 4136POPC   C3B13725  14.224  24.393   7.950
 4136POPC   C4B13726  14.204  24.358   7.650
 4137POPC   NC313727  36.151   1.965   9.450
 4137POPC   PO413728  36.167   1.983   9.150
 4137POPC   GL113729  36.127   1.977   8.850
 4137POPC   GL213730  36.124   2.135   8.850
 4137POPC   C1A13731  36.146   1.976   8.550
 4137POPC   D2A13732  36.148   1.964   8.250
 4137POPC   C3A13733  36.101   2.017   7.950
 4137POPC   C4A13734  36.157   2.030   7.650
 4137POPC   C1B13735  36.145   2.249   8.550
 4137POPC   C2B13736  36.066   2.238   8.250
 4137POPC   C3B13737  36.156   2.199   7.950
 4137POPC   C4B13738  36.128   2.267   7.650
 4138POPC   NC313739  32.988  35.369   9.450
 4138POPC   PO413740  33.073  35.385   9.150
 4138POPC   GL113741  32.981  35.394   8.850
 4138POPC   GL213742  32.932  35.481   8.850
 4138POPC   C1A13743  32.995  35.307   8.550
 4138POPC   D2A13744  33.028  35.333   8.250
 4138POPC   C3A13745  33.019  35.327   7.950
 4138POPC   C4A13746  32.977  35.305   7.650
 4138POPC   C1B13747  32.844  35.535   8.550
 4138POPC   C2B13748  32.830  35.472   8.250
 4138POPC   C3B13749  32.861  35.549   7.950
 4138POPC   C4B13750  32.847  35.541   7.650
 4139POPC   NC313751  44.668  22.925   9.450
 4139POPC   PO413752  44.695  22.948   9.150
 4139POPC   GL113753  44.621  22.966   8.850
 4139POPC   GL213754  44.589  22.844   8.850
 4139POPC   C1A13755  44.651  22.890   8.550
 4139POPC   D2A13756  44.683  22.914   8.250
 4139POPC   C3A13757  44.633  22.934   7.950
 4139POPC   C4A13758  44.663  22.909   7.650
 4139POPC   C1B13759  44.535  22.721   8.550
 4139POPC   C2B13760  44.527  22.729   8.250
 4139POPC   C3B13761  44.525  22.783   7.950
 4139POPC   C4B13762  44.525  22.758   7.650
 4140POPC   NC313763  27.611  23.689   9.450
 4140POPC   PO413764  27.627  23.669   9.150
 4140POPC   GL113765  27.608  23.691   8.850
 4140POPC   GL213766  27.658  23.848   8.850
 4140POPC   C1A13767  27.589  23.732   8.550
 4140POPC   D2A13768  27.570  23.684   8.250
 4140POPC   C3A13769  27.567  23.671   7.950
 4140POPC   C4A13770  27.572  23.695   7.650
 4140POPC   C1B13771  27.693  23.920   8.550
 4140POPC   C2B13772  27.698  23.945   8.250
 4140POPC   C3B13773  27.746  23.937   7.950
 4140POPC   C4B13774  27.699  23.902   7.650
 4141POPC   NC313775  44.659   3.558   9.450
 4141POPC   PO413776  44.673   3.540   9.150
 4141POPC   GL113777  44.673   3.542   8.850
 4141POPC   GL213778  44.516   3.590   8.850
 4141POPC   C1A13779  44.672   3.513   8.550
 4141POPC   D2A13780  44.683   3.572   8.250
 4141POPC   C3A13781  44.668   3.583   7.950
 4141POPC   C4A13782  44.701   3.492   7.650
 4141POPC   C1B13783  44.395   3.658   8.550
 4141POPC   C2B13784  44.415   3.655   8.250
 4141POPC   C3B13785  44.382   3.631   7.950
 4141POPC   C4B13786  44.473   3.648   7.650
 4142POPC   NC313787  19.056  21.401   9.450
 4142POPC   PO413788  19.051  21.423   9.150
 4142POPC   GL113789  19.072  21.374   8.850
 4142POPC   GL213790  19.177  21.446   8.850
 4142POPC   C1A13791  19.053  21.406   8.550
 4142POPC   D2A13792  19.046  21.428   8.250
 4142POPC   C3A13793  19.064  21.396   7.950
 4142POPC   C4A13794  19.033  21.416   7.650
 4142POPC   C1B13795  19.278  21.550   8.550
 4142POPC   C2B13796  19.252  21.485   8.250
 4142POPC   C3B13797  19.287  21.482   7.950
 4142POPC   C4B13798  19.270  21.541   7.650
 4143POPC   NC313799   7.404  33.022   9.450
 4143POPC   PO413800   7.445  32.997   9.150
 4143POPC   GL113801   7.470  32.985   8.850
 4143POPC   GL213802   7.340  33.113   8.850
 4143POPC   C1A13803   7.448  33.058   8.550
 4143POPC   D2A13804   7.431  33.068   8.250
 4143POPC   C3A13805   7.449  33.033   7.950
 4143POPC   C4A13806   7.412  32.976   7.650
 4143POPC   C1B13807   7.203  33.135   8.550
 4143POPC   C2B13808   7.140  33.074   8.250
 4143POPC   C3B13809   7.228  33.060   7.950
 4143POPC   C4B13810   7.194  33.116   7.650
 4144POPC   NC313811  29.929  28.382   9.450
 4144POPC   PO413812  29.894  28.401   9.150
 4144POPC   GL113813  29.962  28.348   8.850
 4144POPC   GL213814  29.980  28.288   8.850
 4144POPC   C1A13815  29.871  28.379   8.550
 4144POPC   D2A13816  29.933  28.383   8.250
 4144POPC   C3A13817  29.929  28.347   7.950
 4144POPC   C4A13818  29.883  28.402   7.650
 4144POPC   C1B13819  30.057  28.144   8.550
 4144POPC   C2B13820  30.056  28.111   8.250
 4144POPC   C3B13821  30.052  28.145   7.950
 4144POPC   C4B13822  30.019  28.181   7.650
 4145POPC   NC313823  38.481  40.035   9.450
 4145POPC   PO413824  38.421  39.987   9.150
 4145POPC   GL113825  38.498  40.016   8.850
 4145POPC   GL213826  38.565  40.098   8.850
 4145POPC   C1A13827  38.472  40.019   8.550
 4145POPC   D2A13828  38.409  40.009   8.250
 4145POPC   C3A13829  38.431  39.978   7.950
 4145POPC   C4A13830  38.414  39.958   7.650
 4145POPC   C1B13831  38.653  40.107   8.550
 4145POPC   C2B13832  38.689  40.158   8.250
 4145POPC   C3B13833  38.651  40.184   7.950
 4145POPC   C4B13834  38.641  40.124   7.650
 4146POPC   NC313835  43.087  14.410   9.450
 4146POPC   PO413836  43.085  14.386   9.150
 4146POPC   GL113837  43.133  14.435   8.850
 4146POPC   GL213838  43.063  14.334   8.850
 4146POPC   C1A13839  43.084  14.364   8.550
 4146POPC   D2A13840  43.115  14.448   8.250
 4146POPC   C3A13841  43.135  14.406   7.950
 4146POPC   C4A13842  43.153  14.394   7.650
 4146POPC   C1B13843  43.009  14.213   8.550
 4146POPC   C2B13844  42.967  14.215   8.250
 4146POPC   C3B13845  42.964  14.239   7.950
 4146POPC   C4B13846  42.996  14.154   7.650
 4147POPC   NC313847  16.697  11.280   9.450
 4147POPC   PO413848  16.725  11.264   9.150
 4147POPC   GL113849  16.701  11.269   8.850
 4147POPC   GL213850  16.775  11.192   8.850
 4147POPC   C1A13851  16.753  11.296   8.550
 4147POPC   D2A13852  16.747  11.342   8.250
 4147POPC   C3A13853  16.690  11.318   7.950
 4147POPC   C4A13854  16.702  11.315   7.650
 4147POPC   C1B13855  16.777  11.071   8.550
 4147POPC   C2B13856  16.759  11.106   8.250
 4147POPC   C3B13857  16.802  11.078   7.950
 4147POPC   C4B13858  16.827  11.020   7.650
 4148POPC   NC313859  21.338  23.679   9.450
 4148POPC   PO413860  21.347  23.676   9.150
 4148POPC   GL113861  21.409  23.746   8.850
 4148POPC   GL213862  21.472  23.794   8.850
 4148POPC   C1A13863  21.414  23.694   8.550
 4148POPC   D2A13864  21.411  23.742   8.250
 4148POPC   C3A13865  21.357  23.744   7.950
 4148POPC   C4A13866  21.363  23.750   7.650
 4148POPC   C1B13867  21.671  23.739   8.550
 4148POPC   C2B13868  21.658  23.832   8.250
 4148POPC   C3B13869  21.649  23.759   7.950
 4148POPC   C4B13870  21.596  23.745   7.650
 4149POPC   NC313871  33.823  23.704   9.450
 4149POPC   PO413872  33.821  23.728   9.150
 4149POPC   GL113873  33.825  23.721   8.850
 4149POPC   GL213874  33.893  23.784   8.850
 4149POPC   C1A13875  33.769  23.703   8.550
 4149POPC   D2A13876  33.821  23.683   8.250
 4149POPC   C3A13877  33.765  23.728   7.950
 4149POPC   C4A13878  33.775  23.743   7.650
 4149POPC   C1B13879  33.998  23.740   8.550
 4149POPC   C2B13880  34.053  23.783   8.250
 4149POPC   C3B13881  34.008  23.814   7.950
 4149POPC   C4B13882  33.994  23.771   7.650
 4150POPC   NC313883  32.219   8.178   9.450
 4150POPC   PO413884  32.277   8.162   9.150
 4150POPC   GL113885  32.254   8.152   8.850
 4150POPC   GL213886  32.288   8.356   8.850
 4150POPC   C1A13887  32.220   8.153   8.550
 4150POPC   D2A13888  32.229   8.152   8.250
 4150POPC   C3A13889  32.290   8.213   7.950
 4150POPC   C4A13890  32.235   8.163   7.650
 4150POPC   C1B13891  32.282   8.396   8.550
 4150POPC   C2B13892  32.290   8.464   8.250
 4150POPC   C3B13893  32.307   8.454   7.950
 4150POPC   C4B13894  32.334   8.426   7.650
 4151POPC   NC313895  29.138  16.736   9.450
 4151POPC   PO413896  29.099  16.728   9.150
 4151POPC   GL113897  29.144  16.699   8.850
 4151POPC   GL213898  29.204  16.861   8.850
 4151POPC   C1A13899  29.143  16.741   8.550
 4151POPC   D2A13900  29.114  16.747   8.250
 4151POPC   C3A13901  29.157  16.751   7.950
 4151POPC   C4A13902  29.177  16.721   7.650
 4151POPC   C1B13903  29.234  16.960   8.550
 4151POPC   C2B13904  29.300  16.945   8.250
 4151POPC   C3B13905  29.238  16.975   7.950
 4151POPC   C4B13906  29.242  16.986   7.650
 4152POPC   NC313907  31.481   0.437   9.450
 4152POPC   PO413908  31.437   0.479   9.150
 4152POPC   GL113909  31.442   0.444   8.850
 4152POPC   GL213910  31.560   0.512   8.850
 4152POPC   C1A13911  31.496   0.412   8.550
 4152POPC   D2A13912  31.431   0.431   8.250
 4152POPC   C3A13913  31.494   0.475   7.950
 4152POPC   C4A13914  31.454   0.433   7.650
 4152POPC   C1B13915  31.636   0.673   8.550
 4152POPC   C2B13916  31.608   0.645   8.250
 4152POPC   C3B13917  31.574   0.626   7.950
 4152POPC   C4B13918  31.622   0.687   7.650
 4153POPC   NC313919   1.190  11.323   9.450
 4153POPC   PO413920   1.188  11.340   9.150
 4153POPC   GL113921   1.226  11.278   8.850
 4153POPC   GL213922   1.298  11.394   8.850
 4153POPC   C1A13923   1.246  11.332   8.550
 4153POPC   D2A13924   1.170  11.303   8.250
 4153POPC   C3A13925   1.189  11.344   7.950
 4153POPC   C4A13926   1.181  11.277   7.650
 4153POPC   C1B13927   1.293  11.537   8.550
 4153POPC   C2B13928   1.385  11.527   8.250
 4153POPC   C3B13929   1.335  11.554   7.950
 4153POPC   C4B13930   1.319  11.557   7.650
 4154POPC   NC313931   1.979  16.747   9.450
 4154POPC   PO413932   1.980  16.741   9.150
 4154POPC   GL113933   1.947  16.720   8.850
 4154POPC   GL213934   1.995  16.850   8.850
 4154POPC   C1A13935   1.949  16.681   8.550
 4154POPC   D2A13936   1.944  16.764   8.250
 4154POPC   C3A13937   1.979  16.752   7.950
 4154POPC   C4A13938   1.972  16.775   7.650
 4154POPC   C1B13939   2.024  16.972   8.550
 4154POPC   C2B13940   2.068  17.012   8.250
 4154POPC   C3B13941   2.069  17.017   7.950
 4154POPC   C4B13942   1.998  16.976   7.650
 4155POPC   NC313943   7.384  35.311   9.450
 4155POPC   PO413944   7.446  35.317   9.150
 4155POPC   GL113945   7.405  35.318   8.850
 4155POPC   GL213946   7.541  35.354   8.850
 4155POPC   C1A13947   7.423  35.363   8.550
 4155POPC   D2A13948   7.379  35.350   8.250
 4155POPC   C3A13949   7.407  35.389   7.950
 4155POPC   C4A13950   7.383  35.371   7.650
 4155POPC   C1B13951   7.639  35.390   8.550
 4155POPC   C2B13952   7.639  35.326   8.250
 4155POPC   C3B13953   7.642  35.408   7.950
 4155POPC   C4B13954   7.621  35.357   7.650
 4156POPC   NC313955  30.656  28.406   9.450
 4156POPC   PO413956  30.679  28.366   9.150
 4156POPC   GL113957  30.650  28.375   8.850
 4156POPC   GL213958  30.529  28.420   8.850
 4156POPC   C1A13959  30.729  28.366   8.550
 4156POPC   D2A13960  30.728  28.350   8.250
 4156POPC   C3A13961  30.716  28.343   7.950
 4156POPC   C4A13962  30.728  28.358   7.650
 4156POPC   C1B13963  30.432  28.464   8.550
 4156POPC   C2B13964  30.432  28.398   8.250
 4156POPC   C3B13965  30.483  28.482   7.950
 4156POPC   C4B13966  30.479  28.402   7.650
 4157POPC   NC313967  29.878  24.531   9.450
 4157POPC   PO413968  29.918  24.478   9.150
 4157POPC   GL113969  29.954  24.508   8.850
 4157POPC   GL213970  29.822  24.417   8.850
 4157POPC   C1A13971  29.966  24.449   8.550
 4157POPC   D2A13972  29.916  24.503   8.250
 4157POPC   C3A13973  29.872  24.496   7.950
 4157POPC   C4A13974  29.904  24.482   7.650
 4157POPC   C1B13975  29.743  24.303   8.550
 4157POPC   C2B13976  29.683  24.337   8.250
 4157POPC   C3B13977  29.676  24.306   7.950
 4157POPC   C4B13978  29.726  24.376   7.650
 4158POPC   NC313979   5.133  13.601   9.450
 4158POPC   PO413980   5.086  13.634   9.150
 4158POPC   GL113981   5.055  13.588   8.850
 4158POPC   GL213982   5.222  13.638   8.850
 4158POPC   C1A13983   5.092  13.666   8.550
 4158POPC   D2A13984   5.141  13.673   8.250
 4158POPC   C3A13985   5.068  13.603   7.950
 4158POPC   C4A13986   5.089  13.647   7.650
 4158POPC   C1B13987   5.308  13.686   8.550
 4158POPC   C2B13988   5.339  13.655   8.250
 4158POPC   C3B13989   5.383  13.666   7.950
 4158POPC   C4B13990   5.295  13.726   7.650
 4159POPC   NC313991  12.083   6.659   9.450
 4159POPC   PO413992  12.051   6.606   9.150
 4159POPC   GL113993  12.053   6.621   8.850
 4159POPC   GL213994  12.212   6.709   8.850
 4159POPC   C1A13995  12.069   6.598   8.550
 4159POPC   D2A13996  12.035   6.654   8.250
 4159POPC   C3A13997  12.090   6.606   7.950
 4159POPC   C4A13998  12.065   6.694   7.650
 4159POPC   C1B13999  12.313   6.737   8.550
 4159POPC   C2B14000  12.239   6.746   8.250
 4159POPC   C3B14001  12.266   6.792   7.950
 4159POPC   C4B14002  12.288   6.773   7.650
 4160POPC   NC314003  18.326  13.611   9.450
 4160POPC   PO414004  18.259  13.665   9.150
 4160POPC   GL114005  18.299  13.589   8.850
 4160POPC   GL214006  18.387  13.757   8.850
 4160POPC   C1A14007  18.236  13.666   8.550
 4160POPC   D2A14008  18.328  13.635   8.250
 4160POPC   C3A14009  18.310  13.669   7.950
 4160POPC   C4A14010  18.297  13.602   7.650
 4160POPC   C1B14011  18.446  13.849   8.550
 4160POPC   C2B14012  18.477  13.765   8.250
 4160POPC   C3B14013  18.422  13.793   7.950
 4160POPC   C4B14014  18.448  13.841   7.650
 4161POPC   NC314015   1.219  36.869   9.450
 4161POPC   PO414016   1.249  36.927   9.150
 4161POPC   GL114017   1.225  36.890   8.850
 4161POPC   GL214018   1.267  36.977   8.850
 4161POPC   C1A14019   1.262  36.902   8.550
 4161POPC   D2A14020   1.173  36.926   8.250
 4161POPC   C3A14021   1.252  36.922   7.950
 4161POPC   C4A14022   1.185  36.905   7.650
 4161POPC   C1B14023   1.338  37.131   8.550
 4161POPC   C2B14024   1.398  37.096   8.250
 4161POPC   C3B14025   1.377  37.066   7.950
 4161POPC   C4B14026   1.325  37.103   7.650
 4162POPC   NC314027  27.563   7.449   9.450
 4162POPC   PO414028  27.625   7.431   9.150
 4162POPC   GL114029  27.598   7.457   8.850
 4162POPC   GL214030  27.455   7.326   8.850
 4162POPC   C1A14031  27.556   7.383   8.550
 4162POPC   D2A14032  27.615   7.406   8.250
 4162POPC   C3A14033  27.599   7.389   7.950
 4162POPC   C4A14034  27.590   7.382   7.650
 4162POPC   C1B14035  27.416   7.252   8.550
 4162POPC   C2B14036  27.369   7.230   8.250
 4162POPC   C3B14037  27.444   7.239   7.950
 4162POPC   C4B14038  27.440   7.293   7.650
 4163POPC   NC314039  26.078  36.109   9.450
 4163POPC   PO414040  26.005  36.137   9.150
 4163POPC   GL114041  26.022  36.111   8.850
 4163POPC   GL214042  26.168  36.127   8.850
 4163POPC   C1A14043  26.069  36.135   8.550
 4163POPC   D2A14044  26.039  36.082   8.250
 4163POPC   C3A14045  26.079  36.080   7.950
 4163POPC   C4A14046  25.995  36.121   7.650
 4163POPC   C1B14047  26.273  36.085   8.550
 4163POPC   C2B14048  26.333  36.078   8.250
 4163POPC   C3B14049  26.289  36.139   7.950
 4163POPC   C4B14050  26.263  36.072   7.650
 4164POPC   NC314051  39.234  29.139   9.450
 4164POPC   PO414052  39.261  29.117   9.150
 4164POPC   GL114053  39.251  29.155   8.850
 4164POPC   GL214054  39.240  29.032   8.850
 4164POPC   C1A14055  39.273  29.145   8.550
 4164POPC   D2A14056  39.272  29.168   8.250
 4164POPC   C3A14057  39.206  29.174   7.950
 4164POPC   C4A14058  39.267  29.151   7.650
 4164POPC   C1B14059  39.300  28.937   8.550
 4164POPC   C2B14060  39.350  28.957   8.250
 4164POPC   C3B14061  39.375  28.937   7.950
 4164POPC   C4B14062  39.306  28.893   7.650
 4165POPC   NC314063   6.635   7.374   9.450
 4165POPC   PO414064   6.650   7.378   9.150
 4165POPC   GL114065   6.599   7.408   8.850
 4165POPC   GL214066   6.750   7.339   8.850
 4165POPC   C1A14067   6.614   7.470   8.550
 4165POPC   D2A14068   6.616   7.452   8.250
 4165POPC   C3A14069   6.668   7.396   7.950
 4165POPC   C4A14070   6.602   7.373   7.650
 4165POPC   C1B14071   6.893   7.339   8.550
 4165POPC   C2B14072   6.859   7.300   8.250
 4165POPC   C3B14073   6.904   7.305   7.950
 4165POPC   C4B14074   6.875   7.349   7.650
 4166POPC   NC314075  44.626   7.465   9.450
 4166POPC   PO414076  44.680   7.451   9.150
 4166POPC   GL114077  44.673   7.431   8.850
 4166POPC   GL214078  44.776   7.400   8.850
 4166POPC   C1A14079  44.632   7.454   8.550
 4166POPC   D2A14080  44.627   7.435   8.250
 4166POPC   C3A14081  44.658   7.403   7.950
 4166POPC   C4A14082  44.675   7.462   7.650
 4166POPC   C1B14083  44.908   7.358   8.550
 4166POPC   C2B14084  44.918   7.421   8.250
 4166POPC   C3B14085  44.958   7.388   7.950
 4166POPC   C4B14086  44.899   7.408   7.650
 4167POPC   NC314087  12.807  26.084   9.450
 4167POPC   PO414088  12.838  26.047   9.150
 4167POPC   GL114089  12.841  26.053   8.850
 4167POPC   GL214090  12.960  26.022   8.850
 4167POPC   C1A14091  12.806  26.074   8.550
 4167POPC   D2A14092  12.861  26.089   8.250
 4167POPC   C3A14093  12.821  26.040   7.950
 4167POPC   C4A14094  12.834  26.036   7.650
 4167POPC   C1B14095  13.077  26.038   8.550
 4167POPC   C2B14096  13.118  26.026   8.250
 4167POPC   C3B14097  13.073  26.051   7.950
 4167POPC   C4B14098  13.145  26.074   7.650
 4168POPC   NC314099  35.328  40.007   9.450
 4168POPC   PO414100  35.364  39.978   9.150
 4168POPC   GL114101  35.354  39.957   8.850
 4168POPC   GL214102  35.294  40.120   8.850
 4168POPC   C1A14103  35.317  40.017   8.550
 4168POPC   D2A14104  35.333  40.020   8.250
 4168POPC   C3A14105  35.345  39.974   7.950
 4168POPC   C4A14106  35.364  39.968   7.650
 4168POPC   C1B14107  35.288  40.292   8.550
 4168POPC   C2B14108  35.356  40.256   8.250
 4168POPC   C3B14109  35.375  40.267   7.950
 4168POPC   C4B14110  35.371  40.301   7.650
 4169POPC   NC314111  12.104  10.534   9.450
 4169POPC   PO414112  12.088  10.524   9.150
 4169POPC   GL114113  12.057  10.531   8.850
 4169POPC   GL214114  12.100  10.690   8.850
 4169POPC   C1A14115  12.072  10.493   8.550
 4169POPC   D2A14116  12.099  10.554   8.250
 4169POPC   C3A14117  12.047  10.514   7.950
 4169POPC   C4A14118  12.075  10.563   7.650
 4169POPC   C1B14119  12.090  10.768   8.550
 4169POPC   C2B14120  12.135  10.745   8.250
 4169POPC   C3B14121  12.101  10.809   7.950
 4169POPC   C4B14122  12.102  10.770   7.650
 4170POPC   NC314123   8.235   9.723   9.450
 4170POPC   PO414124   8.162   9.790   9.150
 4170POPC   GL114125   8.228   9.753   8.850
 4170POPC   GL214126   8.318   9.743   8.850
 4170POPC   C1A14127   8.233   9.742   8.550
 4170POPC   D2A14128   8.226   9.779   8.250
 4170POPC   C3A14129   8.202   9.704   7.950
 4170POPC   C4A14130   8.225   9.743   7.650
 4170POPC   C1B14131   8.453   9.828   8.550
 4170POPC   C2B14132   8.439   9.778   8.250
 4170POPC   C3B14133   8.407   9.856   7.950
 4170POPC   C4B14134   8.417   9.867   7.650
 4171POPC   NC314135  23.674   6.664   9.450
 4171POPC   PO414136  23.672   6.662   9.150
 4171POPC   GL114137  23.680   6.669   8.850
 4171POPC   GL214138  23.795   6.596   8.850
 4171POPC   C1A14139  23.735   6.619   8.550
 4171POPC   D2A14140  23.697   6.654   8.250
 4171POPC   C3A14141  23.681   6.689   7.950
 4171POPC   C4A14142  23.711   6.617   7.650
 4171POPC   C1B14143  23.970   6.577   8.550
 4171POPC   C2B14144  23.905   6.537   8.250
 4171POPC   C3B14145  23.972   6.549   7.950
 4171POPC   C4B14146  23.922   6.558   7.650
 4172POPC   NC314147   3.557  36.111   9.450
 4172POPC   PO414148   3.556  36.118   9.150
 4172POPC   GL114149   3.548  36.078   8.850
 4172POPC   GL214150   3.481  36.270   8.850
 4172POPC   C1A14151   3.580  36.158   8.550
 4172POPC   D2A14152   3.581  36.102   8.250
 4172POPC   C3A14153   3.563  36.092   7.950
 4172POPC   C4A14154   3.564  36.122   7.650
 4172POPC   C1B14155   3.398  36.358   8.550
 4172POPC   C2B14156   3.327  36.292   8.250
 4172POPC   C3B14157   3.412  36.347   7.950
 4172POPC   C4B14158   3.365  36.327   7.650
 4173POPC   NC314159  15.172   0.432   9.450
 4173POPC   PO414160  15.137   0.478   9.150
 4173POPC   GL114161  15.172   0.441   8.850
 4173POPC   GL214162  15.169   0.282   8.850
 4173POPC   C1A14163  15.193   0.460   8.550
 4173POPC   D2A14164  15.186   0.472   8.250
 4173POPC   C3A14165  15.192   0.445   7.950
 4173POPC   C4A14166  15.174   0.395   7.650
 4173POPC   C1B14167  15.092   0.158   8.550
 4173POPC   C2B14168  15.069   0.156   8.250
 4173POPC   C3B14169  15.097   0.230   7.950
 4173POPC   C4B14170  15.126   0.154   7.650
 4174POPC   NC314171  40.031  28.347   9.450
 4174POPC   PO414172  40.040  28.418   9.150
 4174POPC   GL114173  40.021  28.367   8.850
 4174POPC   GL214174  40.108  28.253   8.850
 4174POPC   C1A14175  40.017  28.355   8.550
 4174POPC   D2A14176  40.031  28.408   8.250
 4174POPC   C3A14177  40.046  28.360   7.950
 4174POPC   C4A14178  40.048  28.410   7.650
 4174POPC   C1B14179  40.222  28.230   8.550
 4174POPC   C2B14180  40.250  28.276   8.250
 4174POPC   C3B14181  40.181  28.274   7.950
 4174POPC   C4B14182  40.213  28.231   7.650
 4175POPC   NC314183  26.053  14.453   9.450
 4175POPC   PO414184  26.028  14.408   9.150
 4175POPC   GL114185  26.040  14.442   8.850
 4175POPC   GL214186  26.003  14.510   8.850
 4175POPC   C1A14187  25.995  14.442   8.550
 4175POPC   D2A14188  26.051  14.407   8.250
 4175POPC   C3A14189  26.007  14.447   7.950
 4175POPC   C4A14190  26.019  14.363   7.650
 4175POPC   C1B14191  25.978  14.612   8.550
 4175POPC   C2B14192  25.961  14.648   8.250
 4175POPC   C3B14193  25.961  14.646   7.950
 4175POPC   C4B14194  26.011  14.663   7.650
 4176POPC   NC314195  40.003  26.780   9.450
 4176POPC   PO414196  39.965  26.846   9.150
 4176POPC   GL114197  40.025  26.832   8.850
 4176POPC   GL214198  39.965  26.930   8.850
 4176POPC   C1A14199  40.002  26.797   8.550
 4176POPC   D2A14200  39.982  26.804   8.250
 4176POPC   C3A14201  39.972  26.846   7.950
 4176POPC   C4A14202  40.030  26.820   7.650
 4176POPC   C1B14203  39.862  27.002   8.550
 4176POPC   C2B14204  39.807  26.976   8.250
 4176POPC   C3B14205  39.820  27.003   7.950
 4176POPC   C4B14206  39.885  27.008   7.650
 4177POPC   NC314207  12.850   4.320   9.450
 4177POPC   PO414208  12.824   4.333   9.150
 4177POPC   GL114209  12.851   4.355   8.850
 4177POPC   GL214210  12.892   4.404   8.850
 4177POPC   C1A14211  12.805   4.330   8.550
 4177POPC   D2A14212  12.819   4.321   8.250
 4177POPC   C3A14213  12.851   4.304   7.950
 4177POPC   C4A14214  12.881   4.276   7.650
 4177POPC   C1B14215  13.003   4.543   8.550
 4177POPC   C2B14216  13.024   4.578   8.250
 4177POPC   C3B14217  13.020   4.515   7.950
 4177POPC   C4B14218  12.953   4.528   7.650
 4178POPC   NC314219  15.227  15.160   9.450
 4178POPC   PO414220  15.206  15.229   9.150
 4178POPC   GL114221  15.164  15.140   8.850
 4178POPC   GL214222  15.145  15.299   8.850
 4178POPC   C1A14223  15.172  15.160   8.550
 4178POPC   D2A14224  15.189  15.164   8.250
 4178POPC   C3A14225  15.140  15.131   7.950
 4178POPC   C4A14226  15.218  15.191   7.650
 4178POPC   C1B14227  15.189  15.447   8.550
 4178POPC   C2B14228  15.131  15.431   8.250
 4178POPC   C3B14229  15.166  15.420   7.950
 4178POPC   C4B14230  15.181  15.384   7.650
 4179POPC   NC314231  10.520  11.344   9.450
 4179POPC   PO414232  10.555  11.266   9.150
 4179POPC   GL114233  10.505  11.312   8.850
 4179POPC   GL214234  10.607  11.216   8.850
 4179POPC   C1A14235  10.475  11.340   8.550
 4179POPC   D2A14236  10.528  11.337   8.250
 4179POPC   C3A14237  10.496  11.323   7.950
 4179POPC   C4A14238  10.489  11.267   7.650
 4179POPC   C1B14239  10.738  11.164   8.550
 4179POPC   C2B14240  10.704  11.187   8.250
 4179POPC   C3B14241  10.761  11.180   7.950
 4179POPC   C4B14242  10.682  11.123   7.650
 4180POPC   NC314243  29.909  19.840   9.450
 4180POPC   PO414244  29.935  19.869   9.150
 4180POPC   GL114245  29.910  19.840   8.850
 4180POPC   GL214246  30.018  19.810   8.850
 4180POPC   C1A14247  29.970  19.798   8.550
 4180POPC   D2A14248  29.904  19.877   8.250
 4180POPC   C3A14249  29.950  19.879   7.950
 4180POPC   C4A14250  29.880  19.833   7.650
 4180POPC   C1B14251  30.110  19.766   8.550
 4180POPC   C2B14252  30.143  19.733   8.250
 4180POPC   C3B14253  30.198  19.757   7.950
 4180POPC   C4B14254  30.159  19.734   7.650
 4181POPC   NC314255   5.903  16.697   9.450
 4181POPC   PO414256   5.886  16.738   9.150
 4181POPC   GL114257   5.912  16.703   8.850
 4181POPC   GL214258   5.936  16.902   8.850
 4181POPC   C1A14259   5.880  16.769   8.550
 4181POPC   D2A14260   5.918  16.761   8.250
 4181POPC   C3A14261   5.823  16.745   7.950
 4181POPC   C4A14262   5.863  16.740   7.650
 4181POPC   C1B14263   5.957  16.990   8.550
 4181POPC   C2B14264   5.927  16.978   8.250
 4181POPC   C3B14265   5.945  16.981   7.950
 4181POPC   C4B14266   5.895  17.020   7.650
 4182POPC   NC314267   9.011   0.438   9.450
 4182POPC   PO414268   8.984   0.411   9.150
 4182POPC   GL114269   8.946   0.404   8.850
 4182POPC   GL214270   8.963   0.358   8.850
 4182POPC   C1A14271   8.939   0.452   8.550
 4182POPC   D2A14272   8.925   0.418   8.250
 4182POPC   C3A14273   8.958   0.406   7.950
 4182POPC   C4A14274   8.974   0.459   7.650
 4182POPC   C1B14275   8.983   0.232   8.550
 4182POPC   C2B14276   8.945   0.208   8.250
 4182POPC   C3B14277   8.932   0.230   7.950
 4182POPC   C4B14278   8.969   0.160   7.650
 4183POPC   NC314279  31.517  39.267   9.450
 4183POPC   PO414280  31.491  39.211   9.150
 4183POPC   GL114281  31.441  39.277   8.850
 4183POPC   GL214282  31.359  39.324   8.850
 4183POPC   C1A14283  31.431  39.227   8.550
 4183POPC   D2A14284  31.491  39.205   8.250
 4183POPC   C3A14285  31.454  39.228   7.950
 4183POPC   C4A14286  31.513  39.222   7.650
 4183POPC   C1B14287  31.294  39.428   8.550
 4183POPC   C2B14288  31.294  39.364   8.250
 4183POPC   C3B14289  31.273  39.357   7.950
 4183POPC   C4B14290  31.266  39.392   7.650
 4184POPC   NC314291  36.146  11.335   9.450
 4184POPC   PO414292  36.123  11.271   9.150
 4184POPC   GL114293  36.144  11.263   8.850
 4184POPC   GL214294  36.029  11.255   8.850
 4184POPC   C1A14295  36.166  11.285   8.550
 4184POPC   D2A14296  36.085  11.308   8.250
 4184POPC   C3A14297  36.138  11.332   7.950
 4184POPC   C4A14298  36.157  11.291   7.650
 4184POPC   C1B14299  35.954  11.162   8.550
 4184POPC   C2B14300  35.923  11.155   8.250
 4184POPC   C3B14301  35.911  11.195   7.950
 4184POPC   C4B14302  35.943  11.141   7.650
 4185POPC   NC314303  29.177  29.914   9.450
 4185POPC   PO414304  29.157  29.888   9.150
 4185POPC   GL114305  29.134  29.892   8.850
 4185POPC   GL214306  29.135  29.816   8.850
 4185POPC   C1A14307  29.122  29.951   8.550
 4185POPC   D2A14308  29.157  29.937   8.250
 4185POPC   C3A14309  29.098  29.876   7.950
 4185POPC   C4A14310  29.132  29.888   7.650
 4185POPC   C1B14311  29.129  29.701   8.550
 4185POPC   C2B14312  29.131  29.622   8.250
 4185POPC   C3B14313  29.102  29.672   7.950
 4185POPC   C4B14314  29.118  29.705   7.650
 4186POPC   NC314315  19.806   0.475   9.450
 4186POPC   PO414316  19.842   0.441   9.150
 4186POPC   GL114317  19.785   0.476   8.850
 4186POPC   GL214318  19.776   0.512   8.850
 4186POPC   C1A14319  19.853   0.451   8.550
 4186POPC   D2A14320  19.883   0.440   8.250
 4186POPC   C3A14321  19.799   0.453   7.950
 4186POPC   C4A14322  19.861   0.456   7.650
 4186POPC   C1B14323  19.633   0.641   8.550
 4186POPC   C2B14324  19.660   0.590   8.250
 4186POPC   C3B14325  19.708   0.616   7.950
 4186POPC   C4B14326  19.651   0.614   7.650
 4187POPC   NC314327   1.207  31.482   9.450
 4187POPC   PO414328   1.182  31.423   9.150
 4187POPC   GL114329   1.179  31.488   8.850
 4187POPC   GL214330   1.257  31.591   8.850
 4187POPC   C1A14331   1.253  31.508   8.550
 4187POPC   D2A14332   1.250  31.485   8.250
 4187POPC   C3A14333   1.207  31.453   7.950
 4187POPC   C4A14334   1.254  31.476   7.650
 4187POPC   C1B14335   1.348  31.642   8.550
 4187POPC   C2B14336   1.335  31.691   8.250
 4187POPC   C3B14337   1.366  31.646   7.950
 4187POPC   C4B14338   1.393  31.658   7.650
 4188POPC   NC314339   5.089  39.256   9.450
 4188POPC   PO414340   5.091  39.274   9.150
 4188POPC   GL114341   5.045  39.210   8.850
 4188POPC   GL214342   5.079  39.117   8.850
 4188POPC   C1A14343   5.090  39.280   8.550
 4188POPC   D2A14344   5.075  39.248   8.250
 4188POPC   C3A14345   5.065  39.227   7.950
 4188POPC   C4A14346   5.106  39.254   7.650
 4188POPC   C1B14347   5.105  38.971   8.550
 4188POPC   C2B14348   5.024  38.938   8.250
 4188POPC   C3B14349   5.105  38.937   7.950
 4188POPC   C4B14350   5.039  38.939   7.650
 4189POPC   NC314351  29.970  26.835   9.450
 4189POPC   PO414352  29.906  26.866   9.150
 4189POPC   GL114353  29.929  26.845   8.850
 4189POPC   GL214354  29.785  26.711   8.850
 4189POPC   C1A14355  29.909  26.825   8.550
 4189POPC   D2A14356  29.915  26.833   8.250
 4189POPC   C3A14357  29.923  26.827   7.950
 4189POPC   C4A14358  29.951  26.768   7.650
 4189POPC   C1B14359  29.713  26.663   8.550
 4189POPC   C2B14360  29.731  26.648   8.250
 4189POPC   C3B14361  29.695  26.665   7.950
 4189POPC   C4B14362  29.772  26.660   7.650
 4190POPC   NC314363  34.610  15.995   9.450
 4190POPC   PO414364  34.555  15.945   9.150
 4190POPC   GL114365  34.572  15.985   8.850
 4190POPC   GL214366  34.521  15.846   8.850
 4190POPC   C1A14367  34.570  15.947   8.550
 4190POPC   D2A14368  34.539  15.989   8.250
 4190POPC   C3A14369  34.584  16.005   7.950
 4190POPC   C4A14370  34.616  15.990   7.650
 4190POPC   C1B14371  34.494  15.764   8.550
 4190POPC   C2B14372  34.496  15.677   8.250
 4190POPC   C3B14373  34.490  15.769   7.950
 4190POPC   C4B14374  34.542  15.713   7.650
 4191POPC   NC314375  36.946  28.418   9.450
 4191POPC   PO414376  36.886  28.375   9.150
 4191POPC   GL114377  36.882  28.320   8.850
 4191POPC   GL214378  36.977  28.476   8.850
 4191POPC   C1A14379  36.872  28.390   8.550
 4191POPC   D2A14380  36.879  28.389   8.250
 4191POPC   C3A14381  36.915  28.355   7.950
 4191POPC   C4A14382  36.926  28.390   7.650
 4191POPC   C1B14383  37.074  28.522   8.550
 4191POPC   C2B14384  37.047  28.510   8.250
 4191POPC   C3B14385  37.049  28.550   7.950
 4191POPC   C4B14386  37.045  28.495   7.650
 4192POPC   NC314387  21.396  14.365   9.450
 4192POPC   PO414388  21.345  14.412   9.150
 4192POPC   GL114389  21.420  14.418   8.850
 4192POPC   GL214390  21.495  14.371   8.850
 4192POPC   C1A14391  21.393  14.371   8.550
 4192POPC   D2A14392  21.346  14.382   8.250
 4192POPC   C3A14393  21.351  14.356   7.950
 4192POPC   C4A14394  21.399  14.391   7.650
 4192POPC   C1B14395  21.614  14.328   8.550
 4192POPC   C2B14396  21.583  14.332   8.250
 4192POPC   C3B14397  21.614  14.302   7.950
 4192POPC   C4B14398  21.609  14.248   7.650
 4193POPC   NC314399  12.080  32.218   9.450
 4193POPC   PO414400  12.126  32.210   9.150
 4193POPC   GL114401  12.071  32.273   8.850
 4193POPC   GL214402  11.991  32.360   8.850
 4193POPC   C1A14403  12.091  32.223   8.550
 4193POPC   D2A14404  12.085  32.214   8.250
 4193POPC   C3A14405  12.036  32.296   7.950
 4193POPC   C4A14406  12.044  32.279   7.650
 4193POPC   C1B14407  12.017  32.497   8.550
 4193POPC   C2B14408  11.925  32.502   8.250
 4193POPC   C3B14409  11.992  32.492   7.950
 4193POPC   C4B14410  12.001  32.496   7.650
 4194POPC   NC314411   2.721  30.710   9.450
 4194POPC   PO414412   2.762  30.669   9.150
 4194POPC   GL114413   2.752  30.743   8.850
 4194POPC   GL214414   2.811  30.565   8.850
 4194POPC   C1A14415   2.811  30.692   8.550
 4194POPC   D2A14416   2.779  30.680   8.250
 4194POPC   C3A14417   2.777  30.700   7.950
 4194POPC   C4A14418   2.740  30.659   7.650
 4194POPC   C1B14419   2.984  30.573   8.550
 4194POPC   C2B14420   2.976  30.549   8.250
 4194POPC   C3B14421   2.907  30.484   7.950
 4194POPC   C4B14422   2.919  30.536   7.650
 4195POPC   NC314423  38.431  29.907   9.450
 4195POPC   PO414424  38.489  29.939   9.150
 4195POPC   GL114425  38.493  29.916   8.850
 4195POPC   GL214426  38.344  29.992   8.850
 4195POPC   C1A14427  38.490  29.885   8.550
 4195POPC   D2A14428  38.461  29.904   8.250
 4195POPC   C3A14429  38.490  29.912   7.950
 4195POPC   C4A14430  38.466  29.917   7.650
 4195POPC   C1B14431  38.326  30.137   8.550
 4195POPC   C2B14432  38.305  30.086   8.250
 4195POPC   C3B14433  38.276  30.117   7.950
 4195POPC   C4B14434  38.281  30.125   7.650
 4196POPC   NC314435  38.445  33.753   9.450
 4196POPC   PO414436  38.430  33.783   9.150
 4196POPC   GL114437  38.432  33.827   8.850
 4196POPC   GL214438  38.570  33.819   8.850
 4196POPC   C1A14439  38.407  33.824   8.550
 4196POPC   D2A14440  38.453  33.816   8.250
 4196POPC   C3A14441  38.423  33.789   7.950
 4196POPC   C4A14442  38.504  33.754   7.650
 4196POPC   C1B14443  38.669  33.790   8.550
 4196POPC   C2B14444  38.671  33.841   8.250
 4196POPC   C3B14445  38.732  33.777   7.950
 4196POPC   C4B14446  38.710  33.777   7.650
 4197POPC   NC314447  38.457  30.731   9.450
 4197POPC   PO414448  38.498  30.731   9.150
 4197POPC   GL114449  38.462  30.663   8.850
 4197POPC   GL214450  38.377  30.684   8.850
 4197POPC   C1A14451  38.486  30.661   8.550
 4197POPC   D2A14452  38.497  30.718   8.250
 4197POPC   C3A14453  38.449  30.731   7.950
 4197POPC   C4A14454  38.492  30.707   7.650
 4197POPC   C1B14455  38.230  30.653   8.550
 4197POPC   C2B14456  38.252  30.625   8.250
 4197POPC   C3B14457  38.163  30.707   7.950
 4197POPC   C4B14458  38.251  30.630   7.650
 4198POPC   NC314459  37.652  24.440   9.450
 4198POPC   PO414460  37.656  24.454   9.150
 4198POPC   GL114461  37.655  24.523   8.850
 4198POPC   GL214462  37.766  24.442   8.850
 4198POPC   C1A14463  37.705  24.501   8.550
 4198POPC   D2A14464  37.727  24.497   8.250
 4198POPC   C3A14465  37.667  24.498   7.950
 4198POPC   C4A14466  37.654  24.512   7.650
 4198POPC   C1B14467  37.915  24.454   8.550
 4198POPC   C2B14468  37.879  24.457   8.250
 4198POPC   C3B14469  37.908  24.486   7.950
 4198POPC   C4B14470  37.969  24.408   7.650
 4199POPC   NC314471  39.237  15.928   9.450
 4199POPC   PO414472  39.217  15.981   9.150
 4199POPC   GL114473  39.235  15.905   8.850
 4199POPC   GL214474  39.300  15.891   8.850
 4199POPC   C1A14475  39.188  15.991   8.550
 4199POPC   D2A14476  39.206  15.985   8.250
 4199POPC   C3A14477  39.271  15.964   7.950
 4199POPC   C4A14478  39.267  15.949   7.650
 4199POPC   C1B14479  39.434  15.860   8.550
 4199POPC   C2B14480  39.451  15.833   8.250
 4199POPC   C3B14481  39.476  15.858   7.950
 4199POPC   C4B14482  39.412  15.823   7.650
 4200POPC   NC314483   3.520  23.676   9.450
 4200POPC   PO414484   3.575  23.666   9.150
 4200POPC   GL114485   3.509  23.749   8.850
 4200POPC   GL214486   3.641  23.762   8.850
 4200POPC   C1A14487   3.531  23.725   8.550
 4200POPC   D2A14488   3.513  23.709   8.250
 4200POPC   C3A14489   3.549  23.680   7.950
 4200POPC   C4A14490   3.525  23.716   7.650
 4200POPC   C1B14491   3.690  23.927   8.550
 4200POPC   C2B14492   3.705  23.939   8.250
 4200POPC   C3B14493   3.720  23.855   7.950
 4200POPC   C4B14494   3.707  23.903   7.650
 4201POPC   NC314495   8.238  44.632   9.450
 4201POPC   PO414496   8.199  44.652   9.150
 4201POPC   GL114497   8.216  44.699   8.850
 4201POPC   GL214498   8.084  44.583   8.850
 4201POPC   C1A14499   8.237  44.686   8.550
 4201POPC   D2A14500   8.162  44.661   8.250
 4201POPC   C3A14501   8.171  44.664   7.950
 4201POPC   C4A14502   8.172  44.677   7.650
 4201POPC   C1B14503   7.947  44.499   8.550
 4201POPC   C2B14504   7.997  44.539   8.250
 4201POPC   C3B14505   8.000  44.512   7.950
 4201POPC   C4B14506   7.938  44.497   7.650
 4202POPC   NC314507  12.074  26.033   9.450
 4202POPC   PO414508  12.047  26.090   9.150
 4202POPC   GL114509  12.123  26.011   8.850
 4202POPC   GL214510  12.155  26.125   8.850
 4202POPC   C1A14511  12.087  26.086   8.550
 4202POPC   D2A14512  12.049  26.028   8.250
 4202POPC   C3A14513  12.100  26.078   7.950
 4202POPC   C4A14514  12.046  26.006   7.650
 4202POPC   C1B14515  12.193  26.258   8.550
 4202POPC   C2B14516  12.208  26.271   8.250
 4202POPC   C3B14517  12.127  26.252   7.950
 4202POPC   C4B14518  12.141  26.280   7.650
 4203POPC   NC314519  23.691  44.674   9.450
 4203POPC   PO414520  23.718  44.686   9.150
 4203POPC   GL114521  23.701  44.702   8.850
 4203POPC   GL214522  23.674  44.757   8.850
 4203POPC   C1A14523  23.689  44.665   8.550
 4203POPC   D2A14524  23.683  44.675   8.250
 4203POPC   C3A14525  23.675  44.630   7.950
 4203POPC   C4A14526  23.678  44.644   7.650
 4203POPC   C1B14527  23.730  44.958   8.550
 4203POPC   C2B14528  23.757  44.923   8.250
 4203POPC   C3B14529  23.692  44.941   7.950
 4203POPC   C4B14530  23.772  44.898   7.650
 4204POPC   NC314531  18.250  33.848   9.450
 4204POPC   PO414532  18.237  33.811   9.150
 4204POPC   GL114533  18.310  33.847   8.850
 4204POPC   GL214534  18.426  33.855   8.850
 4204POPC   C1A14535  18.333  33.776   8.550
 4204POPC   D2A14536  18.256  33.770   8.250
 4204POPC   C3A14537  18.316  33.771   7.950
 4204POPC   C4A14538  18.262  33.793   7.650
 4204POPC   C1B14539  18.446  33.888   8.550
 4204POPC   C2B14540  18.511  33.966   8.250
 4204POPC   C3B14541  18.469  33.944   7.950
 4204POPC   C4B14542  18.490  33.920   7.650
 4205POPC   NC314543  29.131  21.407   9.450
 4205POPC   PO414544  29.122  21.345   9.150
 4205POPC   GL114545  29.165  21.429   8.850
 4205POPC   GL214546  29.305  21.394   8.850
 4205POPC   C1A14547  29.125  21.384   8.550
 4205POPC   D2A14548  29.174  21.370   8.250
 4205POPC   C3A14549  29.137  21.361   7.950
 4205POPC   C4A14550  29.141  21.410   7.650
 4205POPC   C1B14551  29.408  21.282   8.550
 4205POPC   C2B14552  29.382  21.336   8.250
 4205POPC   C3B14553  29.410  21.261   7.950
 4205POPC   C4B14554  29.358  21.339   7.650
 4206POPC   NC314555  44.693   5.082   9.450
 4206POPC   PO414556  44.680   5.079   9.150
 4206POPC   GL114557  44.637   5.117   8.850
 4206POPC   GL214558  44.754   5.055   8.850
 4206POPC   C1A14559  44.624   5.049   8.550
 4206POPC   D2A14560  44.685   5.073   8.250
 4206POPC   C3A14561  44.659   5.078   7.950
 4206POPC   C4A14562  44.677   5.096   7.650
 4206POPC   C1B14563  44.892   4.935   8.550
 4206POPC   C2B14564  44.868   4.918   8.250
 4206POPC   C3B14565  44.853   4.948   7.950
 4206POPC   C4B14566  44.814   4.884   7.650
 4207POPC   NC314567  38.495  25.270   9.450
 4207POPC   PO414568  38.446  25.275   9.150
 4207POPC   GL114569  38.488  25.229   8.850
 4207POPC   GL214570  38.391  25.194   8.850
 4207POPC   C1A14571  38.492  25.299   8.550
 4207POPC   D2A14572  38.431  25.258   8.250
 4207POPC   C3A14573  38.488  25.231   7.950
 4207POPC   C4A14574  38.468  25.281   7.650
 4207POPC   C1B14575  38.404  25.083   8.550
 4207POPC   C2B14576  38.374  25.028   8.250
 4207POPC   C3B14577  38.407  25.012   7.950
 4207POPC   C4B14578  38.358  25.081   7.650
 4208POPC   NC314579  34.592  30.721   9.450
 4208POPC   PO414580  34.549  30.650   9.150
 4208POPC   GL114581  34.564  30.674   8.850
 4208POPC   GL214582  34.715  30.763   8.850
 4208POPC   C1A14583  34.563  30.721   8.550
 4208POPC   D2A14584  34.546  30.665   8.250
 4208POPC   C3A14585  34.622  30.719   7.950
 4208POPC   C4A14586  34.581  30.657   7.650
 4208POPC   C1B14587  34.799  30.797   8.550
 4208POPC   C2B14588  34.825  30.783   8.250
 4208POPC   C3B14589  34.864  30.742   7.950
 4208POPC   C4B14590  34.776  30.788   7.650
 4209POPC   NC314591   1.218   9.003   9.450
 4209POPC   PO414592   1.189   8.972   9.150
 4209POPC   GL114593   1.238   8.933   8.850
 4209POPC   GL214594   1.094   8.883   8.850
 4209POPC   C1A14595   1.178   8.970   8.550
 4209POPC   D2A14596   1.182   8.960   8.250
 4209POPC   C3A14597   1.224   9.015   7.950
 4209POPC   C4A14598   1.254   8.929   7.650
 4209POPC   C1B14599   1.047   8.836   8.550
 4209POPC   C2B14600   0.956   8.872   8.250
 4209POPC   C3B14601   1.021   8.851   7.950
 4209POPC   C4B14602   0.985   8.851   7.650
 4210POPC   NC314603   9.723   8.230   9.450
 4210POPC   PO414604   9.771   8.186   9.150
 4210POPC   GL114605   9.713   8.217   8.850
 4210POPC   GL214606   9.763   8.084   8.850
 4210POPC   C1A14607   9.710   8.240   8.550
 4210POPC   D2A14608   9.745   8.189   8.250
 4210POPC   C3A14609   9.746   8.234   7.950
 4210POPC   C4A14610   9.720   8.166   7.650
 4210POPC   C1B14611   9.861   7.994   8.550
 4210POPC   C2B14612   9.830   7.959   8.250
 4210POPC   C3B14613   9.882   7.918   7.950
 4210POPC   C4B14614   9.883   7.961   7.650
 4211POPC   NC314615   4.287  18.236   9.450
 4211POPC   PO414616   4.271  18.285   9.150
 4211POPC   GL114617   4.316  18.266   8.850
 4211POPC   GL214618   4.356  18.168   8.850
 4211POPC   C1A14619   4.356  18.291   8.550
 4211POPC   D2A14620   4.309  18.244   8.250
 4211POPC   C3A14621   4.300  18.303   7.950
 4211POPC   C4A14622   4.352  18.331   7.650
 4211POPC   C1B14623   4.404  18.089   8.550
 4211POPC   C2B14624   4.453  18.021   8.250
 4211POPC   C3B14625   4.401  18.101   7.950
 4211POPC   C4B14626   4.443  18.085   7.650
 4212POPC   NC314627  19.811  15.936   9.450
 4212POPC   PO414628  19.863  15.968   9.150
 4212POPC   GL114629  19.841  15.989   8.850
 4212POPC   GL214630  19.852  16.024   8.850
 4212POPC   C1A14631  19.858  15.917   8.550
 4212POPC   D2A14632  19.852  15.959   8.250
 4212POPC   C3A14633  19.863  15.908   7.950
 4212POPC   C4A14634  19.796  15.946   7.650
 4212POPC   C1B14635  19.977  16.154   8.550
 4212POPC   C2B14636  19.987  16.208   8.250
 4212POPC   C3B14637  19.946  16.146   7.950
 4212POPC   C4B14638  19.994  16.169   7.650
 4213POPC   NC314639   1.202  29.188   9.450
 4213POPC   PO414640   1.220  29.169   9.150
 4213POPC   GL114641   1.238  29.099   8.850
 4213POPC   GL214642   1.073  29.193   8.850
 4213POPC   C1A14643   1.260  29.164   8.550
 4213POPC   D2A14644   1.228  29.140   8.250
 4213POPC   C3A14645   1.170  29.131   7.950
 4213POPC   C4A14646   1.250  29.172   7.650
 4213POPC   C1B14647   1.048  29.294   8.550
 4213POPC   C2B14648   0.988  29.262   8.250
 4213POPC   C3B14649   1.053  29.299   7.950
 4213POPC   C4B14650   0.999  29.297   7.650
 4214POPC   NC314651  19.081  28.372   9.450
 4214POPC   PO414652  19.032  28.352   9.150
 4214POPC   GL114653  19.101  28.396   8.850
 4214POPC   GL214654  19.009  28.289   8.850
 4214POPC   C1A14655  19.074  28.409   8.550
 4214POPC   D2A14656  19.027  28.330   8.250
 4214POPC   C3A14657  19.100  28.378   7.950
 4214POPC   C4A14658  19.020  28.356   7.650
 4214POPC   C1B14659  18.972  28.140   8.550
 4214POPC   C2B14660  18.949  28.113   8.250
 4214POPC   C3B14661  18.953  28.178   7.950
 4214POPC   C4B14662  18.955  28.087   7.650
 4215POPC   NC314663  42.362  39.225   9.450
 4215POPC   PO414664  42.323  39.223   9.150
 4215POPC   GL114665  42.377  39.202   8.850
 4215POPC   GL214666  42.356  39.117   8.850
 4215POPC   C1A14667  42.294  39.185   8.550
 4215POPC   D2A14668  42.376  39.278   8.250
 4215POPC   C3A14669  42.377  39.236   7.950
 4215POPC   C4A14670  42.368  39.230   7.650
 4215POPC   C1B14671  42.469  39.059   8.550
 4215POPC   C2B14672  42.450  39.019   8.250
 4215POPC   C3B14673  42.496  39.018   7.950
 4215POPC   C4B14674  42.500  38.975   7.650
 4216POPC   NC314675  28.380  12.817   9.450
 4216POPC   PO414676  28.384  12.877   9.150
 4216POPC   GL114677  28.322  12.834   8.850
 4216POPC   GL214678  28.485  12.761   8.850
 4216POPC   C1A14679  28.336  12.892   8.550
 4216POPC   D2A14680  28.363  12.854   8.250
 4216POPC   C3A14681  28.408  12.843   7.950
 4216POPC   C4A14682  28.344  12.802   7.650
 4216POPC   C1B14683  28.572  12.699   8.550
 4216POPC   C2B14684  28.492  12.699   8.250
 4216POPC   C3B14685  28.548  12.673   7.950
 4216POPC   C4B14686  28.566  12.623   7.650
 4217POPC   NC314687  37.685  25.244   9.450
 4217POPC   PO414688  37.716  25.301   9.150
 4217POPC   GL114689  37.721  25.247   8.850
 4217POPC   GL214690  37.730  25.171   8.850
 4217POPC   C1A14691  37.652  25.295   8.550
 4217POPC   D2A14692  37.699  25.228   8.250
 4217POPC   C3A14693  37.638  25.218   7.950
 4217POPC   C4A14694  37.678  25.285   7.650
 4217POPC   C1B14695  37.800  25.088   8.550
 4217POPC   C2B14696  37.839  25.006   8.250
 4217POPC   C3B14697  37.843  25.095   7.950
 4217POPC   C4B14698  37.821  25.046   7.650
 4218POPC   NC314699  16.715  14.368   9.450
 4218POPC   PO414700  16.689  14.384   9.150
 4218POPC   GL114701  16.713  14.382   8.850
 4218POPC   GL214702  16.613  14.450   8.850
 4218POPC   C1A14703  16.772  14.395   8.550
 4218POPC   D2A14704  16.740  14.358   8.250
 4218POPC   C3A14705  16.703  14.354   7.950
 4218POPC   C4A14706  16.750  14.368   7.650
 4218POPC   C1B14707  16.527  14.519   8.550
 4218POPC   C2B14708  16.476  14.509   8.250
 4218POPC   C3B14709  16.496  14.501   7.950
 4218POPC   C4B14710  16.543  14.543   7.650
 4219POPC   NC314711  20.656  41.601   9.450
 4219POPC   PO414712  20.590  41.547   9.150
 4219POPC   GL114713  20.611  41.527   8.850
 4219POPC   GL214714  20.661  41.647   8.850
 4219POPC   C1A14715  20.654  41.538   8.550
 4219POPC   D2A14716  20.578  41.571   8.250
 4219POPC   C3A14717  20.563  41.510   7.950
 4219POPC   C4A14718  20.617  41.536   7.650
 4219POPC   C1B14719  20.757  41.734   8.550
 4219POPC   C2B14720  20.803  41.781   8.250
 4219POPC   C3B14721  20.778  41.732   7.950
 4219POPC   C4B14722  20.778  41.774   7.650
 4220POPC   NC314723  41.596  38.473   9.450
 4220POPC   PO414724  41.529  38.503   9.150
 4220POPC   GL114725  41.523  38.411   8.850
 4220POPC   GL214726  41.525  38.609   8.850
 4220POPC   C1A14727  41.596  38.422   8.550
 4220POPC   D2A14728  41.565  38.472   8.250
 4220POPC   C3A14729  41.595  38.480   7.950
 4220POPC   C4A14730  41.520  38.424   7.650
 4220POPC   C1B14731  41.463  38.652   8.550
 4220POPC   C2B14732  41.470  38.704   8.250
 4220POPC   C3B14733  41.418  38.703   7.950
 4220POPC   C4B14734  41.471  38.680   7.650
 4221POPC   NC314735  29.960  10.568   9.450
 4221POPC   PO414736  29.898  10.475   9.150
 4221POPC   GL114737  29.918  10.507   8.850
 4221POPC   GL214738  29.908  10.395   8.850
 4221POPC   C1A14739  29.908  10.571   8.550
 4221POPC   D2A14740  29.933  10.505   8.250
 4221POPC   C3A14741  29.930  10.528   7.950
 4221POPC   C4A14742  29.897  10.493   7.650
 4221POPC   C1B14743  29.863  10.332   8.550
 4221POPC   C2B14744  29.846  10.308   8.250
 4221POPC   C3B14745  29.841  10.320   7.950
 4221POPC   C4B14746  29.882  10.264   7.650
 4222POPC   NC314747   5.109  28.345   9.450
 4222POPC   PO414748   5.051  28.336   9.150
 4222POPC   GL114749   5.096  28.336   8.850
 4222POPC   GL214750   5.053  28.236   8.850
 4222POPC   C1A14751   5.078  28.352   8.550
 4222POPC   D2A14752   5.048  28.394   8.250
 4222POPC   C3A14753   5.106  28.330   7.950
 4222POPC   C4A14754   5.104  28.391   7.650
 4222POPC   C1B14755   5.009  28.097   8.550
 4222POPC   C2B14756   5.028  28.116   8.250
 4222POPC   C3B14757   4.973  28.115   7.950
 4222POPC   C4B14758   4.986  28.111   7.650
 4223POPC   NC314759  19.816  22.115   9.450
 4223POPC   PO414760  19.879  22.131   9.150
 4223POPC   GL114761  19.829  22.137   8.850
 4223POPC   GL214762  19.992  22.156   8.850
 4223POPC   C1A14763  19.872  22.191   8.550
 4223POPC   D2A14764  19.808  22.144   8.250
 4223POPC   C3A14765  19.851  22.194   7.950
 4223POPC   C4A14766  19.794  22.120   7.650
 4223POPC   C1B14767  20.050  22.064   8.550
 4223POPC   C2B14768  20.079  22.117   8.250
 4223POPC   C3B14769  20.079  22.092   7.950
 4223POPC   C4B14770  20.089  22.135   7.650
 4224POPC   NC314771  23.687  22.961   9.450
 4224POPC   PO414772  23.762  22.900   9.150
 4224POPC   GL114773  23.752  22.978   8.850
 4224POPC   GL214774  23.625  22.816   8.850
 4224POPC   C1A14775  23.705  22.972   8.550
 4224POPC   D2A14776  23.687  22.987   8.250
 4224POPC   C3A14777  23.758  22.962   7.950
 4224POPC   C4A14778  23.695  22.983   7.650
 4224POPC   C1B14779  23.506  22.755   8.550
 4224POPC   C2B14780  23.547  22.777   8.250
 4224POPC   C3B14781  23.545  22.728   7.950
 4224POPC   C4B14782  23.565  22.732   7.650
 4225POPC   NC314783   6.649  13.672   9.450
 4225POPC   PO414784   6.628  13.596   9.150
 4225POPC   GL114785   6.691  13.657   8.850
 4225POPC   GL214786   6.541  13.501   8.850
 4225POPC   C1A14787   6.602  13.630   8.550
 4225POPC   D2A14788   6.669  13.652   8.250
 4225POPC   C3A14789   6.677  13.642   7.950
 4225POPC   C4A14790   6.673  13.596   7.650
 4225POPC   C1B14791   6.564  13.376   8.550
 4225POPC   C2B14792   6.501  13.400   8.250
 4225POPC   C3B14793   6.530  13.431   7.950
 4225POPC   C4B14794   6.543  13.366   7.650
 4226POPC   NC314795  22.962  33.047   9.450
 4226POPC   PO414796  22.948  33.055   9.150
 4226POPC   GL114797  22.898  33.031   8.850
 4226POPC   GL214798  22.836  32.910   8.850
 4226POPC   C1A14799  22.952  33.001   8.550
 4226POPC   D2A14800  22.928  33.039   8.250
 4226POPC   C3A14801  22.926  32.990   7.950
 4226POPC   C4A14802  22.983  32.990   7.650
 4226POPC   C1B14803  22.775  32.873   8.550
 4226POPC   C2B14804  22.733  32.925   8.250
 4226POPC   C3B14805  22.743  32.854   7.950
 4226POPC   C4B14806  22.707  32.901   7.650
 4227POPC   NC314807   8.935  25.268   9.450
 4227POPC   PO414808   9.001  25.287   9.150
 4227POPC   GL114809   9.012  25.286   8.850
 4227POPC   GL214810   8.850  25.378   8.850
 4227POPC   C1A14811   9.000  25.287   8.550
 4227POPC   D2A14812   9.004  25.234   8.250
 4227POPC   C3A14813   8.972  25.292   7.950
 4227POPC   C4A14814   8.995  25.218   7.650
 4227POPC   C1B14815   8.774  25.371   8.550
 4227POPC   C2B14816   8.740  25.381   8.250
 4227POPC   C3B14817   8.741  25.405   7.950
 4227POPC   C4B14818   8.793  25.351   7.650
 4228POPC   NC314819  22.969   0.459   9.450
 4228POPC   PO414820  22.949   0.487   9.150
 4228POPC   GL114821  22.937   0.433   8.850
 4228POPC   GL214822  22.982   0.373   8.850
 4228POPC   C1A14823  22.965   0.476   8.550
 4228POPC   D2A14824  22.924   0.452   8.250
 4228POPC   C3A14825  22.970   0.405   7.950
 4228POPC   C4A14826  22.946   0.464   7.650
 4228POPC   C1B14827  23.095   0.209   8.550
 4228POPC   C2B14828  23.076   0.187   8.250
 4228POPC   C3B14829  23.066   0.182   7.950
 4228POPC   C4B14830  23.112   0.237   7.650
 4229POPC   NC314831   1.167  17.483   9.450
 4229POPC   PO414832   1.175  17.461   9.150
 4229POPC   GL114833   1.223  17.472   8.850
 4229POPC   GL214834   1.197  17.373   8.850
 4229POPC   C1A14835   1.178  17.538   8.550
 4229POPC   D2A14836   1.210  17.479   8.250
 4229POPC   C3A14837   1.201  17.460   7.950
 4229POPC   C4A14838   1.209  17.527   7.650
 4229POPC   C1B14839   1.247  17.304   8.550
 4229POPC   C2B14840   1.264  17.285   8.250
 4229POPC   C3B14841   1.223  17.221   7.950
 4229POPC   C4B14842   1.312  17.258   7.650
 4230POPC   NC314843   4.307  25.297   9.450
 4230POPC   PO414844   4.276  25.279   9.150
 4230POPC   GL114845   4.278  25.306   8.850
 4230POPC   GL214846   4.353  25.113   8.850
 4230POPC   C1A14847   4.283  25.245   8.550
 4230POPC   D2A14848   4.364  25.231   8.250
 4230POPC   C3A14849   4.335  25.282   7.950
 4230POPC   C4A14850   4.363  25.301   7.650
 4230POPC   C1B14851   4.460  24.998   8.550
 4230POPC   C2B14852   4.456  25.022   8.250
 4230POPC   C3B14853   4.440  25.066   7.950
 4230POPC   C4B14854   4.457  25.023   7.650
 4231POPC   NC314855  36.939  12.039   9.450
 4231POPC   PO414856  36.856  12.109   9.150
 4231POPC   GL114857  36.922  12.122   8.850
 4231POPC   GL214858  36.891  12.000   8.850
 4231POPC   C1A14859  36.876  12.104   8.550
 4231POPC   D2A14860  36.942  12.044   8.250
 4231POPC   C3A14861  36.913  12.060   7.950
 4231POPC   C4A14862  36.896  12.058   7.650
 4231POPC   C1B14863  36.862  11.863   8.550
 4231POPC   C2B14864  36.794  11.797   8.250
 4231POPC   C3B14865  36.874  11.852   7.950
 4231POPC   C4B14866  36.862  11.787   7.650
 4232POPC   NC314867  39.230   0.428   9.450
 4232POPC   PO414868  39.201   0.439   9.150
 4232POPC   GL114869  39.202   0.420   8.850
 4232POPC   GL214870  39.152   0.349   8.850
 4232POPC   C1A14871  39.241   0.391   8.550
 4232POPC   D2A14872  39.254   0.416   8.250
 4232POPC   C3A14873  39.279   0.475   7.950
 4232POPC   C4A14874  39.264   0.448   7.650
 4232POPC   C1B14875  38.979   0.280   8.550
 4232POPC   C2B14876  39.049   0.324   8.250
 4232POPC   C3B14877  39.037   0.359   7.950
 4232POPC   C4B14878  39.060   0.360   7.650
 4233POPC   NC314879  32.281  40.780   9.450
 4233POPC   PO414880  32.246  40.771   9.150
 4233POPC   GL114881  32.295  40.781   8.850
 4233POPC   GL214882  32.168  40.729   8.850
 4233POPC   C1A14883  32.247  40.750   8.550
 4233POPC   D2A14884  32.202  40.765   8.250
 4233POPC   C3A14885  32.201  40.763   7.950
 4233POPC   C4A14886  32.247  40.777   7.650
 4233POPC   C1B14887  32.089  40.598   8.550
 4233POPC   C2B14888  32.041  40.641   8.250
 4233POPC   C3B14889  32.080  40.622   7.950
 4233POPC   C4B14890  32.052  40.636   7.650
 4234POPC   NC314891   7.468  32.214   9.450
 4234POPC   PO414892   7.408  32.284   9.150
 4234POPC   GL114893   7.381  32.208   8.850
 4234POPC   GL214894   7.390  32.381   8.850
 4234POPC   C1A14895   7.386  32.279   8.550
 4234POPC   D2A14896   7.442  32.233   8.250
 4234POPC   C3A14897   7.394  32.215   7.950
 4234POPC   C4A14898   7.459  32.281   7.650
 4234POPC   C1B14899   7.336  32.493   8.550
 4234POPC   C2B14900   7.336  32.484   8.250
 4234POPC   C3B14901   7.373  32.507   7.950
 4234POPC   C4B14902   7.307  32.482   7.650
 4235POPC   NC314903  12.895  22.938   9.450
 4235POPC   PO414904  12.887  22.947   9.150
 4235POPC   GL114905  12.818  22.952   8.850
 4235POPC   GL214906  12.780  22.891   8.850
 4235POPC   C1A14907  12.810  22.935   8.550
 4235POPC   D2A14908  12.821  22.916   8.250
 4235POPC   C3A14909  12.852  22.913   7.950
 4235POPC   C4A14910  12.846  22.955   7.650
 4235POPC   C1B14911  12.626  22.819   8.550
 4235POPC   C2B14912  12.666  22.812   8.250
 4235POPC   C3B14913  12.638  22.829   7.950
 4235POPC   C4B14914  12.705  22.739   7.650
 4236POPC   NC314915   8.204   1.963   9.450
 4236POPC   PO414916   8.151   1.977   9.150
 4236POPC   GL114917   8.182   1.943   8.850
 4236POPC   GL214918   8.244   2.055   8.850
 4236POPC   C1A14919   8.164   1.977   8.550
 4236POPC   D2A14920   8.218   2.029   8.250
 4236POPC   C3A14921   8.168   1.953   7.950
 4236POPC   C4A14922   8.182   2.011   7.650
 4236POPC   C1B14923   8.320   2.156   8.550
 4236POPC   C2B14924   8.312   2.204   8.250
 4236POPC   C3B14925   8.308   2.149   7.950
 4236POPC   C4B14926   8.328   2.211   7.650
 4237POPC   NC314927  44.676  13.596   9.450
 4237POPC   PO414928  44.625  13.661   9.150
 4237POPC   GL114929  44.707  13.620   8.850
 4237POPC   GL214930  44.672  13.544   8.850
 4237POPC   C1A14931  44.651  13.624   8.550
 4237POPC   D2A14932  44.612  13.594   8.250
 4237POPC   C3A14933  44.612  13.615   7.950
 4237POPC   C4A14934  44.663  13.649   7.650
 4237POPC   C1B14935  44.734  13.422   8.550
 4237POPC   C2B14936  44.745  13.435   8.250
 4237POPC   C3B14937  44.735  13.405   7.950
 4237POPC   C4B14938  44.801  13.438   7.650
 4238POPC   NC314939  22.150  17.537   9.450
 4238POPC   PO414940  22.199  17.479   9.150
 4238POPC   GL114941  22.201  17.497   8.850
 4238POPC   GL214942  22.245  17.501   8.850
 4238POPC   C1A14943  22.160  17.508   8.550
 4238POPC   D2A14944  22.179  17.485   8.250
 4238POPC   C3A14945  22.115  17.504   7.950
 4238POPC   C4A14946  22.133  17.483   7.650
 4238POPC   C1B14947  22.345  17.406   8.550
 4238POPC   C2B14948  22.362  17.412   8.250
 4238POPC   C3B14949  22.392  17.409   7.950
 4238POPC   C4B14950  22.423  17.439   7.650
 4239POPC   NC314951  36.941  42.377   9.450
 4239POPC   PO414952  36.891  42.295   9.150
 4239POPC   GL114953  36.920  42.352   8.850
 4239POPC   GL214954  36.768  42.410   8.850
 4239POPC   C1A14955  36.893  42.331   8.550
 4239POPC   D2A14956  36.949  42.315   8.250
 4239POPC   C3A14957  36.900  42.315   7.950
 4239POPC   C4A14958  36.871  42.366   7.650
 4239POPC   C1B14959  36.676  42.494   8.550
 4239POPC   C2B14960  36.738  42.466   8.250
 4239POPC   C3B14961  36.696  42.453   7.950
 4239POPC   C4B14962  36.673  42.458   7.650
 4240POPC   NC314963  39.240  18.270   9.450
 4240POPC   PO414964  39.225  18.304   9.150
 4240POPC   GL114965  39.181  18.249   8.850
 4240POPC   GL214966  39.205  18.142   8.850
 4240POPC   C1A14967  39.209  18.322   8.550
 4240POPC   D2A14968  39.200  18.284   8.250
 4240POPC   C3A14969  39.192  18.254   7.950
 4240POPC   C4A14970  39.247  18.296   7.650
 4240POPC   C1B14971  39.138  18.038   8.550
 4240POPC   C2B14972  39.167  18.025   8.250
 4240POPC   C3B14973  39.136  18.086   7.950
 4240POPC   C4B14974  39.140  18.052   7.650
 4241POPC   NC314975  22.902   5.857   9.450
 4241POPC   PO414976  22.929   5.900   9.150
 4241POPC   GL114977  22.943   5.907   8.850
 4241POPC   GL214978  23.078   5.833   8.850
 4241POPC   C1A14979  22.978   5.824   8.550
 4241POPC   D2A14980  22.974   5.846   8.250
 4241POPC   C3A14981  22.922   5.826   7.950
 4241POPC   C4A14982  22.899   5.835   7.650
 4241POPC   C1B14983  23.198   5.773   8.550
 4241POPC   C2B14984  23.149   5.754   8.250
 4241POPC   C3B14985  23.209   5.732   7.950
 4241POPC   C4B14986  23.207   5.757   7.650
 4242POPC   NC314987  15.148  43.097   9.450
 4242POPC   PO414988  15.226  43.077   9.150
 4242POPC   GL114989  15.157  43.085   8.850
 4242POPC   GL214990  15.254  43.240   8.850
 4242POPC   C1A14991  15.199  43.125   8.550
 4242POPC   D2A14992  15.189  43.071   8.250
 4242POPC   C3A14993  15.206  43.127   7.950
 4242POPC   C4A14994  15.200  43.080   7.650
 4242POPC   C1B14995  15.196  43.345   8.550
 4242POPC   C2B14996  15.223  43.310   8.250
 4242POPC   C3B14997  15.269  43.395   7.950
 4242POPC   C4B14998  15.236  43.335   7.650
 4243POPC   NC314999  15.995  13.632   9.450
 4243POPC   PO415000  15.922  13.644   9.150
 4243POPC   GL115001  15.982  13.651   8.850
 4243POPC   GL215002  16.080  13.641   8.850
 4243POPC   C1A15003  15.935  13.581   8.550
 4243POPC   D2A15004  15.961  13.673   8.250
 4243POPC   C3A15005  15.910  13.613   7.950
 4243POPC   C4A15006  16.003  13.590   7.650
 4243POPC   C1B15007  16.228  13.555   8.550
 4243POPC   C2B15008  16.237  13.634   8.250
 4243POPC   C3B15009  16.206  13.603   7.950
 4243POPC   C4B15010  16.222  13.634   7.650
 4244POPC   NC315011  41.544  15.195   9.450
 4244POPC   PO415012  41.584  15.228   9.150
 4244POPC   GL115013  41.585  15.227   8.850
 4244POPC   GL215014  41.458  15.269   8.850
 4244POPC   C1A15015  41.574  15.205   8.550
 4244POPC   D2A15016  41.517  15.173   8.250
 4244POPC   C3A15017  41.509  15.199   7.950
 4244POPC   C4A15018  41.575  15.207   7.650
 4244POPC   C1B15019  41.343  15.311   8.550
 4244POPC   C2B15020  41.374  15.312   8.250
 4244POPC   C3B15021  41.358  15.348   7.950
 4244POPC   C4B15022  41.325  15.286   7.650
 4245POPC   NC315023  34.558  44.697   9.450
 4245POPC   PO415024  34.602  44.658   9.150
 4245POPC   GL115025  34.588  44.653   8.850
 4245POPC   GL215026  34.447  44.589   8.850
 4245POPC   C1A15027  34.531  44.709   8.550
 4245POPC   D2A15028  34.545  44.705   8.250
 4245POPC   C3A15029  34.603  44.697   7.950
 4245POPC   C4A15030  34.567  44.682   7.650
 4245POPC   C1B15031  34.334  44.538   8.550
 4245POPC   C2B15032  34.405  44.556   8.250
 4245POPC   C3B15033  34.361  44.500   7.950
 4245POPC   C4B15034  34.399  44.512   7.650
 4246POPC   NC315035  13.657  18.322   9.450
 4246POPC   PO415036  13.600  18.234   9.150
 4246POPC   GL115037  13.588  18.257   8.850
 4246POPC   GL215038  13.548  18.367   8.850
 4246POPC   C1A15039  13.614  18.246   8.550
 4246POPC   D2A15040  13.584  18.248   8.250
 4246POPC   C3A15041  13.619  18.250   7.950
 4246POPC   C4A15042  13.580  18.259   7.650
 4246POPC   C1B15043  13.443  18.445   8.550
 4246POPC   C2B15044  13.431  18.505   8.250
 4246POPC   C3B15045  13.511  18.469   7.950
 4246POPC   C4B15046  13.463  18.459   7.650
 4247POPC   NC315047  33.024   8.970   9.450
 4247POPC   PO415048  32.999   8.974   9.150
 4247POPC   GL115049  33.040   8.924   8.850
 4247POPC   GL215050  32.872   8.944   8.850
 4247POPC   C1A15051  33.044   8.991   8.550
 4247POPC   D2A15052  33.063   9.006   8.250
 4247POPC   C3A15053  33.050   8.970   7.950
 4247POPC   C4A15054  33.046   8.980   7.650
 4247POPC   C1B15055  32.821   8.955   8.550
 4247POPC   C2B15056  32.807   8.927   8.250
 4247POPC   C3B15057  32.738   8.929   7.950
 4247POPC   C4B15058  32.749   8.990   7.650
 4248POPC   NC315059  39.249  37.667   9.450
 4248POPC   PO415060  39.192  37.672   9.150
 4248POPC   GL115061  39.196  37.704   8.850
 4248POPC   GL215062  39.172  37.768   8.850
 4248POPC   C1A15063  39.218  37.673   8.550
 4248POPC   D2A15064  39.213  37.724   8.250
 4248POPC   C3A15065  39.261  37.667   7.950
 4248POPC   C4A15066  39.224  37.639   7.650
 4248POPC   C1B15067  39.102  37.825   8.550
 4248POPC   C2B15068  39.021  37.876   8.250
 4248POPC   C3B15069  39.031  37.868   7.950
 4248POPC   C4B15070  39.072  37.815   7.650
 4249POPC   NC315071  41.569  44.621   9.450
 4249POPC   PO415072  41.518  44.646   9.150
 4249POPC   GL115073  41.514  44.705   8.850
 4249POPC   GL215074  41.429  44.685   8.850
 4249POPC   C1A15075  41.582  44.676   8.550
 4249POPC   D2A15076  41.556  44.655   8.250
 4249POPC   C3A15077  41.578  44.700   7.950
 4249POPC   C4A15078  41.590  44.711   7.650
 4249POPC   C1B15079  41.354  44.689   8.550
 4249POPC   C2B15080  41.329  44.645   8.250
 4249POPC   C3B15081  41.326  44.644   7.950
 4249POPC   C4B15082  41.323  44.694   7.650
 4250POPC   NC315083   6.614  12.049   9.450
 4250POPC   PO415084   6.598  12.034   9.150
 4250POPC   GL115085   6.691  12.050   8.850
 4250POPC   GL215086   6.547  12.056   8.850
 4250POPC   C1A15087   6.685  12.083   8.550
 4250POPC   D2A15088   6.617  12.096   8.250
 4250POPC   C3A15089   6.607  12.119   7.950
 4250POPC   C4A15090   6.674  12.034   7.650
 4250POPC   C1B15091   6.402  12.141   8.550
 4250POPC   C2B15092   6.434  12.169   8.250
 4250POPC   C3B15093   6.415  12.098   7.950
 4250POPC   C4B15094   6.395  12.122   7.650
 4251POPC   NC315095  15.999  42.384   9.450
 4251POPC   PO415096  15.928  42.323   9.150
 4251POPC   GL115097  15.940  42.318   8.850
 4251POPC   GL215098  16.062  42.338   8.850
 4251POPC   C1A15099  15.924  42.363   8.550
 4251POPC   D2A15100  15.947  42.309   8.250
 4251POPC   C3A15101  15.945  42.353   7.950
 4251POPC   C4A15102  15.919  42.297   7.650
 4251POPC   C1B15103  16.228  42.350   8.550
 4251POPC   C2B15104  16.242  42.276   8.250
 4251POPC   C3B15105  16.201  42.365   7.950
 4251POPC   C4B15106  16.217  42.345   7.650
 4252POPC   NC315107  21.382   0.482   9.450
 4252POPC   PO415108  21.340   0.395   9.150
 4252POPC   GL115109  21.346   0.412   8.850
 4252POPC   GL215110  21.269   0.371   8.850
 4252POPC   C1A15111  21.432   0.454   8.550
 4252POPC   D2A15112  21.403   0.471   8.250
 4252POPC   C3A15113  21.409   0.425   7.950
 4252POPC   C4A15114  21.372   0.454   7.650
 4252POPC   C1B15115  21.161   0.369   8.550
 4252POPC   C2B15116  21.122   0.379   8.250
 4252POPC   C3B15117  21.160   0.336   7.950
 4252POPC   C4B15118  21.180   0.412   7.650
 4253POPC   NC315119   6.673  15.134   9.450
 4253POPC   PO415120   6.633  15.155   9.150
 4253POPC   GL115121   6.613  15.161   8.850
 4253POPC   GL215122   6.715  15.301   8.850
 4253POPC   C1A15123   6.663  15.146   8.550
 4253POPC   D2A15124   6.653  15.164   8.250
 4253POPC   C3A15125   6.677  15.210   7.950
 4253POPC   C4A15126   6.685  15.180   7.650
 4253POPC   C1B15127   6.864  15.331   8.550
 4253POPC   C2B15128   6.871  15.358   8.250
 4253POPC   C3B15129   6.880  15.327   7.950
 4253POPC   C4B15130   6.832  15.351   7.650
 4254POPC   NC315131  33.004   5.846   9.450
 4254POPC   PO415132  33.057   5.841   9.150
 4254POPC   GL115133  33.012   5.868   8.850
 4254POPC   GL215134  32.937   5.813   8.850
 4254POPC   C1A15135  32.997   5.895   8.550
 4254POPC   D2A15136  33.057   5.888   8.250
 4254POPC   C3A15137  33.048   5.839   7.950
 4254POPC   C4A15138  32.991   5.854   7.650
 4254POPC   C1B15139  32.896   5.694   8.550
 4254POPC   C2B15140  32.892   5.681   8.250
 4254POPC   C3B15141  32.882   5.724   7.950
 4254POPC   C4B15142  32.825   5.668   7.650
 4255POPC   NC315143   2.759  19.011   9.450
 4255POPC   PO415144   2.810  19.090   9.150
 4255POPC   GL115145   2.732  19.104   8.850
 4255POPC   GL215146   2.859  19.187   8.850
 4255POPC   C1A15147   2.770  19.039   8.550
 4255POPC   D2A15148   2.756  19.042   8.250
 4255POPC   C3A15149   2.790  19.098   7.950
 4255POPC   C4A15150   2.775  19.024   7.650
 4255POPC   C1B15151   2.892  19.258   8.550
 4255POPC   C2B15152   2.883  19.226   8.250
 4255POPC   C3B15153   2.951  19.210   7.950
 4255POPC   C4B15154   2.876  19.218   7.650
 4256POPC   NC315155  15.165  37.680   9.450
 4256POPC   PO415156  15.146  37.695   9.150
 4256POPC   GL115157  15.161  37.657   8.850
 4256POPC   GL215158  15.169  37.757   8.850
 4256POPC   C1A15159  15.180  37.639   8.550
 4256POPC   D2A15160  15.187  37.691   8.250
 4256POPC   C3A15161  15.226  37.689   7.950
 4256POPC   C4A15162  15.180  37.692   7.650
 4256POPC   C1B15163  15.278  37.914   8.550
 4256POPC   C2B15164  15.215  37.877   8.250
 4256POPC   C3B15165  15.262  37.897   7.950
 4256POPC   C4B15166  15.283  37.932   7.650
 4257POPC   NC315167   2.758   3.513   9.450
 4257POPC   PO415168   2.808   3.558   9.150
 4257POPC   GL115169   2.810   3.538   8.850
 4257POPC   GL215170   2.889   3.574   8.850
 4257POPC   C1A15171   2.723   3.495   8.550
 4257POPC   D2A15172   2.738   3.536   8.250
 4257POPC   C3A15173   2.790   3.498   7.950
 4257POPC   C4A15174   2.805   3.525   7.650
 4257POPC   C1B15175   2.996   3.602   8.550
 4257POPC   C2B15176   3.008   3.541   8.250
 4257POPC   C3B15177   3.004   3.531   7.950
 4257POPC   C4B15178   3.004   3.505   7.650
 4258POPC   NC315179  36.153  29.885   9.450
 4258POPC   PO415180  36.147  29.926   9.150
 4258POPC   GL115181  36.141  29.947   8.850
 4258POPC   GL215182  36.199  29.997   8.850
 4258POPC   C1A15183  36.099  29.930   8.550
 4258POPC   D2A15184  36.078  29.935   8.250
 4258POPC   C3A15185  36.142  29.893   7.950
 4258POPC   C4A15186  36.160  29.896   7.650
 4258POPC   C1B15187  36.391  30.089   8.550
 4258POPC   C2B15188  36.372  30.011   8.250
 4258POPC   C3B15189  36.355  30.006   7.950
 4258POPC   C4B15190  36.350  30.064   7.650
 4259POPC   NC315191  38.461  43.110   9.450
 4259POPC   PO415192  38.498  43.067   9.150
 4259POPC   GL115193  38.434  43.117   8.850
 4259POPC   GL215194  38.543  42.953   8.850
 4259POPC   C1A15195  38.431  43.097   8.550
 4259POPC   D2A15196  38.440  43.101   8.250
 4259POPC   C3A15197  38.460  43.088   7.950
 4259POPC   C4A15198  38.491  43.148   7.650
 4259POPC   C1B15199  38.547  42.881   8.550
 4259POPC   C2B15200  38.533  42.880   8.250
 4259POPC   C3B15201  38.582  42.840   7.950
 4259POPC   C4B15202  38.554  42.928   7.650
 4260POPC   NC315203  21.372   4.295   9.450
 4260POPC   PO415204  21.396   4.324   9.150
 4260POPC   GL115205  21.342   4.333   8.850
 4260POPC   GL215206  21.496   4.430   8.850
 4260POPC   C1A15207  21.418   4.298   8.550
 4260POPC   D2A15208  21.429   4.295   8.250
 4260POPC   C3A15209  21.379   4.314   7.950
 4260POPC   C4A15210  21.383   4.299   7.650
 4260POPC   C1B15211  21.633   4.450   8.550
 4260POPC   C2B15212  21.638   4.444   8.250
 4260POPC   C3B15213  21.590   4.425   7.950
 4260POPC   C4B15214  21.551   4.475   7.650
 4261POPC   NC315215  17.475   5.136   9.450
 4261POPC   PO415216  17.474   5.082   9.150
 4261POPC   GL115217  17.506   5.139   8.850
 4261POPC   GL215218  17.487   5.010   8.850
 4261POPC   C1A15219  17.475   5.125   8.550
 4261POPC   D2A15220  17.481   5.092   8.250
 4261POPC   C3A15221  17.464   5.093   7.950
 4261POPC   C4A15222  17.533   5.049   7.650
 4261POPC   C1B15223  17.406   4.861   8.550
 4261POPC   C2B15224  17.417   4.854   8.250
 4261POPC   C3B15225  17.358   4.818   7.950
 4261POPC   C4B15226  17.395   4.835   7.650
 4262POPC   NC315227  36.146  22.132   9.450
 4262POPC   PO415228  36.100  22.142   9.150
 4262POPC   GL115229  36.148  22.208   8.850
 4262POPC   GL215230  36.226  22.051   8.850
 4262POPC   C1A15231  36.095  22.156   8.550
 4262POPC   D2A15232  36.151  22.134   8.250
 4262POPC   C3A15233  36.118  22.131   7.950
 4262POPC   C4A15234  36.110  22.185   7.650
 4262POPC   C1B15235  36.248  21.934   8.550
 4262POPC   C2B15236  36.313  21.996   8.250
 4262POPC   C3B15237  36.241  21.954   7.950
 4262POPC   C4B15238  36.239  21.927   7.650
 4263POPC   NC315239  44.704  24.478   9.450
 4263POPC   PO415240  44.669  24.470   9.150
 4263POPC   GL115241  44.638  24.522   8.850
 4263POPC   GL215242  44.738  24.542   8.850
 4263POPC   C1A15243  44.612  24.522   8.550
 4263POPC   D2A15244  44.709  24.523   8.250
 4263POPC   C3A15245  44.662  24.538   7.950
 4263POPC   C4A15246  44.658  24.512   7.650
 4263POPC   C1B15247  44.818  24.691   8.550
 4263POPC   C2B15248  44.806  24.622   8.250
 4263POPC   C3B15249  44.886  24.608   7.950
 4263POPC   C4B15250  44.821  24.640   7.650
 4264POPC   NC315251   1.220   4.313   9.450
 4264POPC   PO415252   1.221   4.344   9.150
 4264POPC   GL115253   1.216   4.294   8.850
 4264POPC   GL215254   1.241   4.235   8.850
 4264POPC   C1A15255   1.172   4.304   8.550
 4264POPC   D2A15256   1.234   4.344   8.250
 4264POPC   C3A15257   1.243   4.302   7.950
 4264POPC   C4A15258   1.175   4.339   7.650
 4264POPC   C1B15259   1.260   4.072   8.550
 4264POPC   C2B15260   1.237   4.046   8.250
 4264POPC   C3B15261   1.284   4.028   7.950
 4264POPC   C4B15262   1.223   4.050   7.650
 4265POPC   NC315263   5.070  29.965   9.450
 4265POPC   PO415264   5.121  29.921   9.150
 4265POPC   GL115265   5.069  29.905   8.850
 4265POPC   GL215266   5.191  29.964   8.850
 4265POPC   C1A15267   5.095  29.939   8.550
 4265POPC   D2A15268   5.076  29.916   8.250
 4265POPC   C3A15269   5.129  29.959   7.950
 4265POPC   C4A15270   5.141  29.941   7.650
 4265POPC   C1B15271   5.329  30.012   8.550
 4265POPC   C2B15272   5.315  30.030   8.250
 4265POPC   C3B15273   5.331  29.935   7.950
 4265POPC   C4B15274   5.319  29.941   7.650
 4266POPC   NC315275  35.379  12.081   9.450
 4266POPC   PO415276  35.377  12.032   9.150
 4266POPC   GL115277  35.321  12.098   8.850
 4266POPC   GL215278  35.438  11.961   8.850
 4266POPC   C1A15279  35.375  12.105   8.550
 4266POPC   D2A15280  35.374  12.112   8.250
 4266POPC   C3A15281  35.369  12.101   7.950
 4266POPC   C4A15282  35.342  12.043   7.650
 4266POPC   C1B15283  35.427  11.896   8.550
 4266POPC   C2B15284  35.519  11.831   8.250
 4266POPC   C3B15285  35.430  11.820   7.950
 4266POPC   C4B15286  35.442  11.818   7.650
 4267POPC   NC315287   7.376   7.398   9.450
 4267POPC   PO415288   7.373   7.393   9.150
 4267POPC   GL115289   7.469   7.449   8.850
 4267POPC   GL215290   7.495   7.351   8.850
 4267POPC   C1A15291   7.443   7.391   8.550
 4267POPC   D2A15292   7.451   7.413   8.250
 4267POPC   C3A15293   7.376   7.430   7.950
 4267POPC   C4A15294   7.402   7.431   7.650
 4267POPC   C1B15295   7.604   7.330   8.550
 4267POPC   C2B15296   7.615   7.301   8.250
 4267POPC   C3B15297   7.675   7.282   7.950
 4267POPC   C4B15298   7.587   7.269   7.650
 4268POPC   NC315299   2.764  44.618   9.450
 4268POPC   PO415300   2.720  44.633   9.150
 4268POPC   GL115301   2.763  44.613   8.850
 4268POPC   GL215302   2.870  44.630   8.850
 4268POPC   C1A15303   2.721  44.625   8.550
 4268POPC   D2A15304   2.799  44.622   8.250
 4268POPC   C3A15305   2.724  44.660   7.950
 4268POPC   C4A15306   2.742  44.676   7.650
 4268POPC   C1B15307   3.048  44.626   8.550
 4268POPC   C2B15308   3.028  44.658   8.250
 4268POPC   C3B15309   2.985  44.704   7.950
 4268POPC   C4B15310   3.002  44.660   7.650
 4269POPC   NC315311  10.568  25.255   9.450
 4269POPC   PO415312  10.499  25.238   9.150
 4269POPC   GL115313  10.494  25.262   8.850
 4269POPC   GL215314  10.650  25.280   8.850
 4269POPC   C1A15315  10.511  25.250   8.550
 4269POPC   D2A15316  10.528  25.217   8.250
 4269POPC   C3A15317  10.539  25.299   7.950
 4269POPC   C4A15318  10.524  25.247   7.650
 4269POPC   C1B15319  10.763  25.367   8.550
 4269POPC   C2B15320  10.716  25.302   8.250
 4269POPC   C3B15321  10.725  25.351   7.950
 4269POPC   C4B15322  10.756  25.375   7.650
 4270POPC   NC315323   5.897   0.483   9.450
 4270POPC   PO415324   5.884   0.393   9.150
 4270POPC   GL115325   5.871   0.397   8.850
 4270POPC   GL215326   5.981   0.467   8.850
 4270POPC   C1A15327   5.865   0.468   8.550
 4270POPC   D2A15328   5.868   0.400   8.250
 4270POPC   C3A15329   5.834   0.440   7.950
 4270POPC   C4A15330   5.879   0.482   7.650
 4270POPC   C1B15331   6.097   0.544   8.550
 4270POPC   C2B15332   6.107   0.493   8.250
 4270POPC   C3B15333   6.122   0.564   7.950
 4270POPC   C4B15334   6.056   0.500   7.650
 4271POPC   NC315335  21.337   6.671   9.450
 4271POPC   PO415336  21.433   6.597   9.150
 4271POPC   GL115337  21.372   6.615   8.850
 4271POPC   GL215338  21.528   6.696   8.850
 4271POPC   C1A15339  21.373   6.608   8.550
 4271POPC   D2A15340  21.338   6.672   8.250
 4271POPC   C3A15341  21.422   6.694   7.950
 4271POPC   C4A15342  21.382   6.604   7.650
 4271POPC   C1B15343  21.620   6.707   8.550
 4271POPC   C2B15344  21.592   6.735   8.250
 4271POPC   C3B15345  21.662   6.725   7.950
 4271POPC   C4B15346  21.584   6.712   7.650
 4272POPC   NC315347  23.680  36.906   9.450
 4272POPC   PO415348  23.735  36.904   9.150
 4272POPC   GL115349  23.729  36.913   8.850
 4272POPC   GL215350  23.597  36.869   8.850
 4272POPC   C1A15351  23.724  36.875   8.550
 4272POPC   D2A15352  23.696  36.870   8.250
 4272POPC   C3A15353  23.717  36.931   7.950
 4272POPC   C4A15354  23.690  36.891   7.650
 4272POPC   C1B15355  23.490  36.850   8.550
 4272POPC   C2B15356  23.471  36.899   8.250
 4272POPC   C3B15357  23.473  36.891   7.950
 4272POPC   C4B15358  23.451  36.853   7.650
 4273POPC   NC315359  11.265  19.817   9.450
 4273POPC   PO415360  11.331  19.785   9.150
 4273POPC   GL115361  11.313  19.842   8.850
 4273POPC   GL215362  11.297  19.993   8.850
 4273POPC   C1A15363  11.272  19.848   8.550
 4273POPC   D2A15364  11.334  19.793   8.250
 4273POPC   C3A15365  11.275  19.879   7.950
 4273POPC   C4A15366  11.348  19.831   7.650
 4273POPC   C1B15367  11.314  20.042   8.550
 4273POPC   C2B15368  11.306  20.049   8.250
 4273POPC   C3B15369  11.288  20.126   7.950
 4273POPC   C4B15370  11.377  20.092   7.650
 4274POPC   NC315371   3.544   5.070   9.450
 4274POPC   PO415372   3.502   5.070   9.150
 4274POPC   GL115373   3.538   5.137   8.850
 4274POPC   GL215374   3.465   5.002   8.850
 4274POPC   C1A15375   3.556   5.070   8.550
 4274POPC   D2A15376   3.546   5.058   8.250
 4274POPC   C3A15377   3.568   5.113   7.950
 4274POPC   C4A15378   3.578   5.094   7.650
 4274POPC   C1B15379   3.323   4.908   8.550
 4274POPC   C2B15380   3.397   4.979   8.250
 4274POPC   C3B15381   3.321   4.937   7.950
 4274POPC   C4B15382   3.342   4.964   7.650
 4275POPC   NC315383  40.741  30.699   9.450
 4275POPC   PO415384  40.751  30.650   9.150
 4275POPC   GL115385  40.765  30.724   8.850
 4275POPC   GL215386  40.865  30.633   8.850
 4275POPC   C1A15387  40.790  30.712   8.550
 4275POPC   D2A15388  40.754  30.680   8.250
 4275POPC   C3A15389  40.811  30.663   7.950
 4275POPC   C4A15390  40.789  30.695   7.650
 4275POPC   C1B15391  40.971  30.570   8.550
 4275POPC   C2B15392  41.001  30.571   8.250
 4275POPC   C3B15393  41.023  30.607   7.950
 4275POPC   C4B15394  40.987  30.597   7.650
 4276POPC   NC315395  42.372  18.294   9.450
 4276POPC   PO415396  42.350  18.255   9.150
 4276POPC   GL115397  42.345  18.288   8.850
 4276POPC   GL215398  42.413  18.346   8.850
 4276POPC   C1A15399  42.286  18.263   8.550
 4276POPC   D2A15400  42.313  18.287   8.250
 4276POPC   C3A15401  42.369  18.331   7.950
 4276POPC   C4A15402  42.317  18.297   7.650
 4276POPC   C1B15403  42.410  18.548   8.550
 4276POPC   C2B15404  42.436  18.480   8.250
 4276POPC   C3B15405  42.418  18.548   7.950
 4276POPC   C4B15406  42.432  18.503   7.650
 4277POPC   NC315407  23.723  37.691   9.450
 4277POPC   PO415408  23.707  37.647   9.150
 4277POPC   GL115409  23.752  37.670   8.850
 4277POPC   GL215410  23.640  37.645   8.850
 4277POPC   C1A15411  23.718  37.631   8.550
 4277POPC   D2A15412  23.732  37.698   8.250
 4277POPC   C3A15413  23.688  37.679   7.950
 4277POPC   C4A15414  23.687  37.693   7.650
 4277POPC   C1B15415  23.450  37.617   8.550
 4277POPC   C2B15416  23.510  37.616   8.250
 4277POPC   C3B15417  23.470  37.655   7.950
 4277POPC   C4B15418  23.422  37.641   7.650
 4278POPC   NC315419  44.699  42.334   9.450
 4278POPC   PO415420  44.688  42.359   9.150
 4278POPC   GL115421  44.694  42.365   8.850
 4278POPC   GL215422  44.587  42.334   8.850
 4278POPC   C1A15423  44.646  42.375   8.550
 4278POPC   D2A15424  44.652  42.350   8.250
 4278POPC   C3A15425  44.621  42.346   7.950
 4278POPC   C4A15426  44.649  42.380   7.650
 4278POPC   C1B15427  44.412  42.394   8.550
 4278POPC   C2B15428  44.385  42.399   8.250
 4278POPC   C3B15429  44.386  42.351   7.950
 4278POPC   C4B15430  44.433  42.434   7.650
 4279POPC   NC315431   5.135   1.195   9.450
 4279POPC   PO415432   5.093   1.257   9.150
 4279POPC   GL115433   5.045   1.203   8.850
 4279POPC   GL215434   5.020   1.300   8.850
 4279POPC   C1A15435   5.047   1.231   8.550
 4279POPC   D2A15436   5.110   1.189   8.250
 4279POPC   C3A15437   5.046   1.234   7.950
 4279POPC   C4A15438   5.120   1.181   7.650
 4279POPC   C1B15439   4.842   1.386   8.550
 4279POPC   C2B15440   4.842   1.357   8.250
 4279POPC   C3B15441   4.863   1.313   7.950
 4279POPC   C4B15442   4.829   1.290   7.650
 4280POPC   NC315443  15.223  31.484   9.450
 4280POPC   PO415444  15.137  31.501   9.150
 4280POPC   GL115445  15.155  31.461   8.850
 4280POPC   GL215446  15.216  31.400   8.850
 4280POPC   C1A15447  15.211  31.494   8.550
 4280POPC   D2A15448  15.140  31.433   8.250
 4280POPC   C3A15449  15.176  31.475   7.950
 4280POPC   C4A15450  15.186  31.469   7.650
 4280POPC   C1B15451  15.356  31.271   8.550
 4280POPC   C2B15452  15.350  31.255   8.250
 4280POPC   C3B15453  15.288  31.224   7.950
 4280POPC   C4B15454  15.346  31.250   7.650
 4281POPC   NC315455  33.757   0.391   9.450
 4281POPC   PO415456  33.781   0.414   9.150
 4281POPC   GL115457  33.764   0.409   8.850
 4281POPC   GL215458  33.919   0.310   8.850
 4281POPC   C1A15459  33.783   0.444   8.550
 4281POPC   D2A15460  33.767   0.403   8.250
 4281POPC   C3A15461  33.817   0.430   7.950
 4281POPC   C4A15462  33.783   0.481   7.650
 4281POPC   C1B15463  33.978   0.209   8.550
 4281POPC   C2B15464  33.941   0.294   8.250
 4281POPC   C3B15465  33.921   0.244   7.950
 4281POPC   C4B15466  33.950   0.275   7.650
 4282POPC   NC315467   0.474   2.765   9.450
 4282POPC   PO415468   0.449   2.731   9.150
 4282POPC   GL115469   0.434   2.769   8.850
 4282POPC   GL215470   0.309   2.736   8.850
 4282POPC   C1A15471   0.449   2.732   8.550
 4282POPC   D2A15472   0.481   2.793   8.250
 4282POPC   C3A15473   0.440   2.736   7.950
 4282POPC   C4A15474   0.440   2.788   7.650
 4282POPC   C1B15475   0.234   2.689   8.550
 4282POPC   C2B15476   0.232   2.752   8.250
 4282POPC   C3B15477   0.161   2.737   7.950
 4282POPC   C4B15478   0.150   2.718   7.650
 4283POPC   NC315479  26.782  16.693   9.450
 4283POPC   PO415480  26.827  16.717   9.150
 4283POPC   GL115481  26.809  16.754   8.850
 4283POPC   GL215482  26.860  16.904   8.850
 4283POPC   C1A15483  26.846  16.682   8.550
 4283POPC   D2A15484  26.799  16.727   8.250
 4283POPC   C3A15485  26.777  16.779   7.950
 4283POPC   C4A15486  26.798  16.689   7.650
 4283POPC   C1B15487  26.775  16.989   8.550
 4283POPC   C2B15488  26.782  16.941   8.250
 4283POPC   C3B15489  26.850  16.998   7.950
 4283POPC   C4B15490  26.794  16.991   7.650
 4284POPC   NC315491  28.323  35.381   9.450
 4284POPC   PO415492  28.399  35.349   9.150
 4284POPC   GL115493  28.380  35.379   8.850
 4284POPC   GL215494  28.281  35.369   8.850
 4284POPC   C1A15495  28.411  35.353   8.550
 4284POPC   D2A15496  28.380  35.365   8.250
 4284POPC   C3A15497  28.413  35.308   7.950
 4284POPC   C4A15498  28.321  35.383   7.650
 4284POPC   C1B15499  28.145  35.429   8.550
 4284POPC   C2B15500  28.163  35.485   8.250
 4284POPC   C3B15501  28.140  35.469   7.950
 4284POPC   C4B15502  28.170  35.460   7.650
 4285POPC   NC315503  34.568  24.526   9.450
 4285POPC   PO415504  34.567  24.503   9.150
 4285POPC   GL115505  34.583  24.466   8.850
 4285POPC   GL215506  34.487  24.411   8.850
 4285POPC   C1A15507  34.602  24.461   8.550
 4285POPC   D2A15508  34.574  24.473   8.250
 4285POPC   C3A15509  34.550  24.456   7.950
 4285POPC   C4A15510  34.545  24.460   7.650
 4285POPC   C1B15511  34.423  24.366   8.550
 4285POPC   C2B15512  34.346  24.353   8.250
 4285POPC   C3B15513  34.429  24.318   7.950
 4285POPC   C4B15514  34.390  24.294   7.650
 4286POPC   NC315515  15.182  40.018   9.450
 4286POPC   PO415516  15.141  39.985   9.150
 4286POPC   GL115517  15.166  39.966   8.850
 4286POPC   GL215518  15.204  40.102   8.850
 4286POPC   C1A15519  15.162  40.005   8.550
 4286POPC   D2A15520  15.203  40.054   8.250
 4286POPC   C3A15521  15.164  40.016   7.950
 4286POPC   C4A15522  15.225  40.046   7.650
 4286POPC   C1B15523  15.315  40.248   8.550
 4286POPC   C2B15524  15.247  40.205   8.250
 4286POPC   C3B15525  15.282  40.278   7.950
 4286POPC   C4B15526  15.257  40.278   7.650
 4287POPC   NC315527  38.480  16.707   9.450
 4287POPC   PO415528  38.420  16.771   9.150
 4287POPC   GL115529  38.408  16.773   8.850
 4287POPC   GL215530  38.504  16.814   8.850
 4287POPC   C1A15531  38.480  16.749   8.550
 4287POPC   D2A15532  38.406  16.738   8.250
 4287POPC   C3A15533  38.449  16.686   7.950
 4287POPC   C4A15534  38.484  16.684   7.650
 4287POPC   C1B15535  38.526  16.935   8.550
 4287POPC   C2B15536  38.517  16.989   8.250
 4287POPC   C3B15537  38.562  16.948   7.950
 4287POPC   C4B15538  38.528  16.915   7.650
 4288POPC   NC315539  20.614  26.770   9.450
 4288POPC   PO415540  20.615  26.789   9.150
 4288POPC   GL115541  20.656  26.774   8.850
 4288POPC   GL215542  20.593  26.748   8.850
 4288POPC   C1A15543  20.583  26.778   8.550
 4288POPC   D2A15544  20.656  26.807   8.250
 4288POPC   C3A15545  20.576  26.831   7.950
 4288POPC   C4A15546  20.571  26.792   7.650
 4288POPC   C1B15547  20.554  26.549   8.550
 4288POPC   C2B15548  20.505  26.545   8.250
 4288POPC   C3B15549  20.529  26.592   7.950
 4288POPC   C4B15550  20.472  26.558   7.650
 4289POPC   NC315551  16.722   6.675   9.450
 4289POPC   PO415552  16.702   6.694   9.150
 4289POPC   GL115553  16.773   6.694   8.850
 4289POPC   GL215554  16.705   6.761   8.850
 4289POPC   C1A15555  16.741   6.615   8.550
 4289POPC   D2A15556  16.703   6.621   8.250
 4289POPC   C3A15557  16.748   6.667   7.950
 4289POPC   C4A15558  16.777   6.627   7.650
 4289POPC   C1B15559  16.644   6.901   8.550
 4289POPC   C2B15560  16.612   6.865   8.250
 4289POPC   C3B15561  16.583   6.891   7.950
 4289POPC   C4B15562  16.616   6.898   7.650
 4290POPC   NC315563  13.582   2.783   9.450
 4290POPC   PO415564  13.588   2.751   9.150
 4290POPC   GL115565  13.612   2.799   8.850
 4290POPC   GL215566  13.728   2.747   8.850
 4290POPC   C1A15567  13.591   2.729   8.550
 4290POPC   D2A15568  13.621   2.767   8.250
 4290POPC   C3A15569  13.655   2.807   7.950
 4290POPC   C4A15570  13.624   2.797   7.650
 4290POPC   C1B15571  13.881   2.779   8.550
 4290POPC   C2B15572  13.898   2.813   8.250
 4290POPC   C3B15573  13.843   2.809   7.950
 4290POPC   C4B15574  13.828   2.800   7.650
 4291POPC   NC315575   8.224  14.368   9.450
 4291POPC   PO415576   8.223  14.367   9.150
 4291POPC   GL115577   8.215  14.437   8.850
 4291POPC   GL215578   8.119  14.430   8.850
 4291POPC   C1A15579   8.169  14.368   8.550
 4291POPC   D2A15580   8.174  14.422   8.250
 4291POPC   C3A15581   8.168  14.363   7.950
 4291POPC   C4A15582   8.216  14.385   7.650
 4291POPC   C1B15583   7.934  14.410   8.550
 4291POPC   C2B15584   7.928  14.412   8.250
 4291POPC   C3B15585   7.941  14.397   7.950
 4291POPC   C4B15586   7.957  14.393   7.650
 4292POPC   NC315587  28.333   4.354   9.450
 4292POPC   PO415588  28.346   4.355   9.150
 4292POPC   GL115589  28.372   4.302   8.850
 4292POPC   GL215590  28.359   4.201   8.850
 4292POPC   C1A15591  28.320   4.367   8.550
 4292POPC   D2A15592  28.357   4.319   8.250
 4292POPC   C3A15593  28.346   4.326   7.950
 4292POPC   C4A15594  28.400   4.274   7.650
 4292POPC   C1B15595  28.284   4.087   8.550
 4292POPC   C2B15596  28.273   4.076   8.250
 4292POPC   C3B15597  28.297   4.049   7.950
 4292POPC   C4B15598  28.296   4.060   7.650
 4293POPC   NC315599   6.694  14.361   9.450
 4293POPC   PO415600   6.662  14.421   9.150
 4293POPC   GL115601   6.639  14.369   8.850
 4293POPC   GL215602   6.506  14.407   8.850
 4293POPC   C1A15603   6.605  14.397   8.550
 4293POPC   D2A15604   6.628  14.373   8.250
 4293POPC   C3A15605   6.687  14.399   7.950
 4293POPC   C4A15606   6.595  14.429   7.650
 4293POPC   C1B15607   6.389  14.427   8.550
 4293POPC   C2B15608   6.414  14.450   8.250
 4293POPC   C3B15609   6.418  14.463   7.950
 4293POPC   C4B15610   6.356  14.455   7.650
 4294POPC   NC315611  20.606  26.045   9.450
 4294POPC   PO415612  20.595  26.032   9.150
 4294POPC   GL115613  20.585  26.002   8.850
 4294POPC   GL215614  20.600  26.148   8.850
 4294POPC   C1A15615  20.597  26.016   8.550
 4294POPC   D2A15616  20.621  25.997   8.250
 4294POPC   C3A15617  20.592  26.070   7.950
 4294POPC   C4A15618  20.644  26.061   7.650
 4294POPC   C1B15619  20.505  26.250   8.550
 4294POPC   C2B15620  20.465  26.307   8.250
 4294POPC   C3B15621  20.475  26.257   7.950
 4294POPC   C4B15622  20.486  26.227   7.650
 4295POPC   NC315623  36.175  31.449   9.450
 4295POPC   PO415624  36.139  31.442   9.150
 4295POPC   GL115625  36.139  31.482   8.850
 4295POPC   GL215626  36.060  31.401   8.850
 4295POPC   C1A15627  36.087  31.493   8.550
 4295POPC   D2A15628  36.140  31.449   8.250
 4295POPC   C3A15629  36.137  31.518   7.950
 4295POPC   C4A15630  36.162  31.520   7.650
 4295POPC   C1B15631  35.906  31.372   8.550
 4295POPC   C2B15632  35.911  31.325   8.250
 4295POPC   C3B15633  35.921  31.358   7.950
 4295POPC   C4B15634  35.920  31.360   7.650
 4296POPC   NC315635   1.981   5.917   9.450
 4296POPC   PO415636   2.004   5.884   9.150
 4296POPC   GL115637   2.038   5.875   8.850
 4296POPC   GL215638   1.938   5.778   8.850
 4296POPC   C1A15639   1.958   5.905   8.550
 4296POPC   D2A15640   1.972   5.846   8.250
 4296POPC   C3A15641   1.965   5.836   7.950
 4296POPC   C4A15642   1.982   5.875   7.650
 4296POPC   C1B15643   1.947   5.658   8.550
 4296POPC   C2B15644   1.971   5.623   8.250
 4296POPC   C3B15645   1.908   5.583   7.950
 4296POPC   C4B15646   1.951   5.587   7.650
 4297POPC   NC315647  15.224  26.018   9.450
 4297POPC   PO415648  15.152  26.015   9.150
 4297POPC   GL115649  15.185  26.008   8.850
 4297POPC   GL215650  15.044  25.970   8.850
 4297POPC   C1A15651  15.145  26.070   8.550
 4297POPC   D2A15652  15.223  26.045   8.250
 4297POPC   C3A15653  15.193  26.040   7.950
 4297POPC   C4A15654  15.227  26.048   7.650
 4297POPC   C1B15655  14.913  25.944   8.550
 4297POPC   C2B15656  14.920  25.966   8.250
 4297POPC   C3B15657  15.009  25.922   7.950
 4297POPC   C4B15658  14.960  25.919   7.650
 4298POPC   NC315659   4.312  37.632   9.450
 4298POPC   PO415660   4.307  37.663   9.150
 4298POPC   GL115661   4.282  37.696   8.850
 4298POPC   GL215662   4.384  37.776   8.850
 4298POPC   C1A15663   4.351  37.630   8.550
 4298POPC   D2A15664   4.358  37.701   8.250
 4298POPC   C3A15665   4.285  37.720   7.950
 4298POPC   C4A15666   4.287  37.679   7.650
 4298POPC   C1B15667   4.558  37.833   8.550
 4298POPC   C2B15668   4.564  37.782   8.250
 4298POPC   C3B15669   4.504  37.811   7.950
 4298POPC   C4B15670   4.554  37.798   7.650
 4299POPC   NC315671   5.910  37.704   9.450
 4299POPC   PO415672   5.893  37.656   9.150
 4299POPC   GL115673   5.894  37.641   8.850
 4299POPC   GL215674   5.795  37.566   8.850
 4299POPC   C1A15675   5.856  37.665   8.550
 4299POPC   D2A15676   5.832  37.682   8.250
 4299POPC   C3A15677   5.911  37.659   7.950
 4299POPC   C4A15678   5.834  37.729   7.650
 4299POPC   C1B15679   5.724  37.516   8.550
 4299POPC   C2B15680   5.653  37.558   8.250
 4299POPC   C3B15681   5.636  37.502   7.950
 4299POPC   C4B15682   5.690  37.519   7.650
 4300POPC   NC315683  36.893  10.480   9.450
 4300POPC   PO415684  36.900  10.501   9.150
 4300POPC   GL115685  36.880  10.567   8.850
 4300POPC   GL215686  36.864  10.426   8.850
 4300POPC   C1A15687  36.882  10.507   8.550
 4300POPC   D2A15688  36.893  10.532   8.250
 4300POPC   C3A15689  36.861  10.519   7.950
 4300POPC   C4A15690  36.953  10.514   7.650
 4300POPC   C1B15691  36.784  10.324   8.550
 4300POPC   C2B15692  36.855  10.324   8.250
 4300POPC   C3B15693  36.804  10.263   7.950
 4300POPC   C4B15694  36.816  10.313   7.650
 4301POPC   NC315695  24.486  43.903   9.450
 4301POPC   PO415696  24.529  43.935   9.150
 4301POPC   GL115697  24.472  43.935   8.850
 4301POPC   GL215698  24.321  43.922   8.850
 4301POPC   C1A15699  24.465  43.848   8.550
 4301POPC   D2A15700  24.442  43.896   8.250
 4301POPC   C3A15701  24.501  43.906   7.950
 4301POPC   C4A15702  24.461  43.882   7.650
 4301POPC   C1B15703  24.234  43.919   8.550
 4301POPC   C2B15704  24.288  43.881   8.250
 4301POPC   C3B15705  24.233  43.833   7.950
 4301POPC   C4B15706  24.234  43.889   7.650
 4302POPC   NC315707  33.777  22.892   9.450
 4302POPC   PO415708  33.839  22.925   9.150
 4302POPC   GL115709  33.754  22.955   8.850
 4302POPC   GL215710  33.923  22.961   8.850
 4302POPC   C1A15711  33.847  22.901   8.550
 4302POPC   D2A15712  33.810  22.941   8.250
 4302POPC   C3A15713  33.821  22.957   7.950
 4302POPC   C4A15714  33.791  22.931   7.650
 4302POPC   C1B15715  34.048  22.970   8.550
 4302POPC   C2B15716  34.089  22.957   8.250
 4302POPC   C3B15717  34.075  22.961   7.950
 4302POPC   C4B15718  34.045  22.953   7.650
 4303POPC   NC315719  20.588   5.912   9.450
 4303POPC   PO415720  20.619   5.879   9.150
 4303POPC   GL115721  20.598   5.832   8.850
 4303POPC   GL215722  20.737   5.837   8.850
 4303POPC   C1A15723  20.616   5.898   8.550
 4303POPC   D2A15724  20.632   5.905   8.250
 4303POPC   C3A15725  20.580   5.865   7.950
 4303POPC   C4A15726  20.653   5.915   7.650
 4303POPC   C1B15727  20.856   5.782   8.550
 4303POPC   C2B15728  20.856   5.715   8.250
 4303POPC   C3B15729  20.861   5.728   7.950
 4303POPC   C4B15730  20.788   5.759   7.650
 4304POPC   NC315731  29.958  42.315   9.450
 4304POPC   PO415732  29.889  42.312   9.150
 4304POPC   GL115733  29.912  42.309   8.850
 4304POPC   GL215734  30.019  42.382   8.850
 4304POPC   C1A15735  29.894  42.351   8.550
 4304POPC   D2A15736  29.892  42.330   8.250
 4304POPC   C3A15737  29.921  42.335   7.950
 4304POPC   C4A15738  29.953  42.294   7.650
 4304POPC   C1B15739  30.096  42.429   8.550
 4304POPC   C2B15740  30.162  42.429   8.250
 4304POPC   C3B15741  30.169  42.491   7.950
 4304POPC   C4B15742  30.089  42.460   7.650
 4305POPC   NC315743  36.941   2.022   9.450
 4305POPC   PO415744  36.893   2.013   9.150
 4305POPC   GL115745  36.866   1.977   8.850
 4305POPC   GL215746  36.803   2.002   8.850
 4305POPC   C1A15747  36.944   2.025   8.550
 4305POPC   D2A15748  36.860   2.011   8.250
 4305POPC   C3A15749  36.924   1.988   7.950
 4305POPC   C4A15750  36.856   1.941   7.650
 4305POPC   C1B15751  36.703   2.074   8.550
 4305POPC   C2B15752  36.611   2.071   8.250
 4305POPC   C3B15753  36.658   2.023   7.950
 4305POPC   C4B15754  36.634   2.088   7.650
 4306POPC   NC315755  40.009   3.511   9.450
 4306POPC   PO415756  39.965   3.560   9.150
 4306POPC   GL115757  40.008   3.571   8.850
 4306POPC   GL215758  39.858   3.497   8.850
 4306POPC   C1A15759  39.986   3.519   8.550
 4306POPC   D2A15760  39.965   3.585   8.250
 4306POPC   C3A15761  40.038   3.553   7.950
 4306POPC   C4A15762  39.996   3.515   7.650
 4306POPC   C1B15763  39.814   3.406   8.550
 4306POPC   C2B15764  39.828   3.368   8.250
 4306POPC   C3B15765  39.810   3.461   7.950
 4306POPC   C4B15766  39.757   3.387   7.650
 4307POPC   NC315767  34.532  20.571   9.450
 4307POPC   PO415768  34.541  20.586   9.150
 4307POPC   GL115769  34.538  20.641   8.850
 4307POPC   GL215770  34.583  20.776   8.850
 4307POPC   C1A15771  34.569  20.640   8.550
 4307POPC   D2A15772  34.553  20.621   8.250
 4307POPC   C3A15773  34.585  20.574   7.950
 4307POPC   C4A15774  34.618  20.651   7.650
 4307POPC   C1B15775  34.488  20.898   8.550
 4307POPC   C2B15776  34.573  20.820   8.250
 4307POPC   C3B15777  34.560  20.847   7.950
 4307POPC   C4B15778  34.494  20.852   7.650
 4308POPC   NC315779  40.050  33.053   9.450
 4308POPC   PO415780  39.995  33.064   9.150
 4308POPC   GL115781  40.052  32.996   8.850
 4308POPC   GL215782  39.963  32.888   8.850
 4308POPC   C1A15783  39.987  33.013   8.550
 4308POPC   D2A15784  39.984  33.026   8.250
 4308POPC   C3A15785  39.968  33.017   7.950
 4308POPC   C4A15786  40.051  32.978   7.650
 4308POPC   C1B15787  39.834  32.808   8.550
 4308POPC   C2B15788  39.876  32.802   8.250
 4308POPC   C3B15789  39.844  32.801   7.950
 4308POPC   C4B15790  39.817  32.806   7.650
 4309POPC   NC315791  14.419  38.434   9.450
 4309POPC   PO415792  14.402  38.413   9.150
 4309POPC   GL115793  14.358  38.455   8.850
 4309POPC   GL215794  14.291  38.440   8.850
 4309POPC   C1A15795  14.409  38.445   8.550
 4309POPC   D2A15796  14.432  38.431   8.250
 4309POPC   C3A15797  14.444  38.426   7.950
 4309POPC   C4A15798  14.354  38.474   7.650
 4309POPC   C1B15799  14.146  38.482   8.550
 4309POPC   C2B15800  14.120  38.443   8.250
 4309POPC   C3B15801  14.173  38.482   7.950
 4309POPC   C4B15802  14.188  38.411   7.650
 4310POPC   NC315803  36.864  21.339   9.450
 4310POPC   PO415804  36.861  21.340   9.150
 4310POPC   GL115805  36.936  21.411   8.850
 4310POPC   GL215806  36.802  21.446   8.850
 4310POPC   C1A15807  36.916  21.419   8.550
 4310POPC   D2A15808  36.873  21.391   8.250
 4310POPC   C3A15809  36.923  21.359   7.950
 4310POPC   C4A15810  36.895  21.429   7.650
 4310POPC   C1B15811  36.651  21.419   8.550
 4310POPC   C2B15812  36.644  21.502   8.250
 4310POPC   C3B15813  36.639  21.501   7.950
 4310POPC   C4B15814  36.713  21.453   7.650
 4311POPC   NC315815  43.079  26.085   9.450
 4311POPC   PO415816  43.114  26.029   9.150
 4311POPC   GL115817  43.063  26.007   8.850
 4311POPC   GL215818  43.213  26.127   8.850
 4311POPC   C1A15819  43.146  26.081   8.550
 4311POPC   D2A15820  43.102  26.088   8.250
 4311POPC   C3A15821  43.143  26.075   7.950
 4311POPC   C4A15822  43.150  26.060   7.650
 4311POPC   C1B15823  43.180  26.316   8.550
 4311POPC   C2B15824  43.246  26.317   8.250
 4311POPC   C3B15825  43.186  26.231   7.950
 4311POPC   C4B15826  43.249  26.306   7.650
 4312POPC   NC315827  41.584   5.829   9.450
 4312POPC   PO415828  41.595   5.870   9.150
 4312POPC   GL115829  41.607   5.877   8.850
 4312POPC   GL215830  41.648   6.011   8.850
 4312POPC   C1A15831  41.599   5.904   8.550
 4312POPC   D2A15832  41.540   5.893   8.250
 4312POPC   C3A15833  41.526   5.865   7.950
 4312POPC   C4A15834  41.540   5.825   7.650
 4312POPC   C1B15835  41.631   6.112   8.550
 4312POPC   C2B15836  41.716   6.087   8.250
 4312POPC   C3B15837  41.704   6.107   7.950
 4312POPC   C4B15838  41.639   6.101   7.650
 4313POPC   NC315839  12.870  37.718   9.450
 4313POPC   PO415840  12.817  37.678   9.150
 4313POPC   GL115841  12.839  37.709   8.850
 4313POPC   GL215842  12.910  37.826   8.850
 4313POPC   C1A15843  12.886  37.649   8.550
 4313POPC   D2A15844  12.880  37.674   8.250
 4313POPC   C3A15845  12.864  37.713   7.950
 4313POPC   C4A15846  12.863  37.667   7.650
 4313POPC   C1B15847  12.974  37.880   8.550
 4313POPC   C2B15848  12.987  37.925   8.250
 4313POPC   C3B15849  12.944  37.903   7.950
 4313POPC   C4B15850  12.982  37.889   7.650
 4314POPC   NC315851   8.241   7.427   9.450
 4314POPC   PO415852   8.163   7.372   9.150
 4314POPC   GL115853   8.192   7.449   8.850
 4314POPC   GL215854   8.074   7.379   8.850
 4314POPC   C1A15855   8.206   7.450   8.550
 4314POPC   D2A15856   8.207   7.376   8.250
 4314POPC   C3A15857   8.193   7.459   7.950
 4314POPC   C4A15858   8.203   7.390   7.650
 4314POPC   C1B15859   7.949   7.410   8.550
 4314POPC   C2B15860   7.901   7.381   8.250
 4314POPC   C3B15861   7.959   7.444   7.950
 4314POPC   C4B15862   7.902   7.401   7.650
 4315POPC   NC315863  42.340   6.634   9.450
 4315POPC   PO415864  42.328   6.652   9.150
 4315POPC   GL115865  42.297   6.610   8.850
 4315POPC   GL215866  42.357   6.513   8.850
 4315POPC   C1A15867  42.364   6.634   8.550
 4315POPC   D2A15868  42.351   6.602   8.250
 4315POPC   C3A15869  42.352   6.633   7.950
 4315POPC   C4A15870  42.322   6.626   7.650
 4315POPC   C1B15871  42.432   6.374   8.550
 4315POPC   C2B15872  42.381   6.386   8.250
 4315POPC   C3B15873  42.375   6.434   7.950
 4315POPC   C4B15874  42.429   6.383   7.650
 4316POPC   NC315875  17.524  19.859   9.450
 4316POPC   PO415876  17.511  19.814   9.150
 4316POPC   GL115877  17.498  19.883   8.850
 4316POPC   GL215878  17.498  19.732   8.850
 4316POPC   C1A15879  17.502  19.825   8.550
 4316POPC   D2A15880  17.541  19.816   8.250
 4316POPC   C3A15881  17.466  19.843   7.950
 4316POPC   C4A15882  17.534  19.863   7.650
 4316POPC   C1B15883  17.563  19.574   8.550
 4316POPC   C2B15884  17.598  19.597   8.250
 4316POPC   C3B15885  17.596  19.566   7.950
 4316POPC   C4B15886  17.533  19.584   7.650
 4317POPC   NC315887   9.005  42.359   9.450
 4317POPC   PO415888   9.014  42.302   9.150
 4317POPC   GL115889   8.934  42.339   8.850
 4317POPC   GL215890   9.012  42.444   8.850
 4317POPC   C1A15891   8.941  42.290   8.550
 4317POPC   D2A15892   8.956  42.305   8.250
 4317POPC   C3A15893   8.925  42.315   7.950
 4317POPC   C4A15894   9.012  42.286   7.650
 4317POPC   C1B15895   8.987  42.563   8.550
 4317POPC   C2B15896   9.022  42.537   8.250
 4317POPC   C3B15897   9.014  42.544   7.950
 4317POPC   C4B15898   9.031  42.613   7.650
 4318POPC   NC315899   9.727  34.592   9.450
 4318POPC   PO415900   9.746  34.607   9.150
 4318POPC   GL115901   9.751  34.570   8.850
 4318POPC   GL215902   9.737  34.481   8.850
 4318POPC   C1A15903   9.797  34.568   8.550
 4318POPC   D2A15904   9.774  34.537   8.250
 4318POPC   C3A15905   9.705  34.569   7.950
 4318POPC   C4A15906   9.732  34.559   7.650
 4318POPC   C1B15907   9.704  34.325   8.550
 4318POPC   C2B15908   9.662  34.344   8.250
 4318POPC   C3B15909   9.631  34.293   7.950
 4318POPC   C4B15910   9.704  34.338   7.650
 4319POPC   NC315911   0.420  36.908   9.450
 4319POPC   PO415912   0.440  36.910   9.150
 4319POPC   GL115913   0.407  36.910   8.850
 4319POPC   GL215914   0.390  36.788   8.850
 4319POPC   C1A15915   0.412  36.948   8.550
 4319POPC   D2A15916   0.434  36.861   8.250
 4319POPC   C3A15917   0.482  36.872   7.950
 4319POPC   C4A15918   0.477  36.887   7.650
 4319POPC   C1B15919   0.309  36.724   8.550
 4319POPC   C2B15920   0.219  36.772   8.250
 4319POPC   C3B15921   0.262  36.733   7.950
 4319POPC   C4B15922   0.268  36.768   7.650
 4320POPC   NC315923  33.059  26.074   9.450
 4320POPC   PO415924  33.029  26.070   9.150
 4320POPC   GL115925  33.028  26.075   8.850
 4320POPC   GL215926  32.956  26.140   8.850
 4320POPC   C1A15927  33.034  25.995   8.550
 4320POPC   D2A15928  33.007  26.067   8.250
 4320POPC   C3A15929  33.017  26.039   7.950
 4320POPC   C4A15930  33.069  26.003   7.650
 4320POPC   C1B15931  32.835  26.195   8.550
 4320POPC   C2B15932  32.802  26.190   8.250
 4320POPC   C3B15933  32.819  26.217   7.950
 4320POPC   C4B15934  32.874  26.255   7.650
 4321POPC   NC315935  35.364  23.696   9.450
 4321POPC   PO415936  35.401  23.762   9.150
 4321POPC   GL115937  35.359  23.672   8.850
 4321POPC   GL215938  35.353  23.814   8.850
 4321POPC   C1A15939  35.358  23.703   8.550
 4321POPC   D2A15940  35.338  23.696   8.250
 4321POPC   C3A15941  35.391  23.727   7.950
 4321POPC   C4A15942  35.327  23.714   7.650
 4321POPC   C1B15943  35.454  23.996   8.550
 4321POPC   C2B15944  35.413  23.909   8.250
 4321POPC   C3B15945  35.380  23.991   7.950
 4321POPC   C4B15946  35.366  24.004   7.650
 4322POPC   NC315947  18.299  26.071   9.450
 4322POPC   PO415948  18.306  26.067   9.150
 4322POPC   GL115949  18.315  26.089   8.850
 4322POPC   GL215950  18.270  25.963   8.850
 4322POPC   C1A15951  18.300  26.041   8.550
 4322POPC   D2A15952  18.301  26.050   8.250
 4322POPC   C3A15953  18.274  26.074   7.950
 4322POPC   C4A15954  18.296  26.060   7.650
 4322POPC   C1B15955  18.373  25.754   8.550
 4322POPC   C2B15956  18.342  25.805   8.250
 4322POPC   C3B15957  18.321  25.760   7.950
 4322POPC   C4B15958  18.385  25.776   7.650
 4323POPC   NC315959  27.597  40.773   9.450
 4323POPC   PO415960  27.572  40.824   9.150
 4323POPC   GL115961  27.587  40.779   8.850
 4323POPC   GL215962  27.553  40.700   8.850
 4323POPC   C1A15963  27.641  40.818   8.550
 4323POPC   D2A15964  27.598  40.818   8.250
 4323POPC   C3A15965  27.607  40.741   7.950
 4323POPC   C4A15966  27.621  40.768   7.650
 4323POPC   C1B15967  27.557  40.553   8.550
 4323POPC   C2B15968  27.512  40.536   8.250
 4323POPC   C3B15969  27.568  40.522   7.950
 4323POPC   C4B15970  27.518  40.507   7.650
 4324POPC   NC315971   1.985  33.035   9.450
 4324POPC   PO415972   1.980  32.998   9.150
 4324POPC   GL115973   2.010  33.045   8.850
 4324POPC   GL215974   2.086  33.081   8.850
 4324POPC   C1A15975   1.948  33.005   8.550
 4324POPC   D2A15976   2.017  33.039   8.250
 4324POPC   C3A15977   1.970  33.012   7.950
 4324POPC   C4A15978   1.943  33.065   7.650
 4324POPC   C1B15979   2.279  33.104   8.550
 4324POPC   C2B15980   2.188  33.071   8.250
 4324POPC   C3B15981   2.213  33.121   7.950
 4324POPC   C4B15982   2.200  33.072   7.650
 4325POPC   NC315983  40.751  13.596   9.450
 4325POPC   PO415984  40.819  13.667   9.150
 4325POPC   GL115985  40.754  13.660   8.850
 4325POPC   GL215986  40.833  13.525   8.850
 4325POPC   C1A15987  40.805  13.634   8.550
 4325POPC   D2A15988  40.790  13.669   8.250
 4325POPC   C3A15989  40.775  13.621   7.950
 4325POPC   C4A15990  40.831  13.637   7.650
 4325POPC   C1B15991  41.000  13.442   8.550
 4325POPC   C2B15992  40.963  13.440   8.250
 4325POPC   C3B15993  40.951  13.465   7.950
 4325POPC   C4B15994  41.017  13.470   7.650
 4326POPC   NC315995  13.613  20.590   9.450
 4326POPC   PO415996  13.593  20.571   9.150
 4326POPC   GL115997  13.591  20.572   8.850
 4326POPC   GL215998  13.789  20.647   8.850
 4326POPC   C1A15999  13.666  20.641   8.550
 4326POPC   D2A16000  13.593  20.581   8.250
 4326POPC   C3A16001  13.600  20.615   7.950
 4326POPC   C4A16002  13.642  20.597   7.650
 4326POPC   C1B16003  13.866  20.546   8.550
 4326POPC   C2B16004  13.860  20.619   8.250
 4326POPC   C3B16005  13.927  20.573   7.950
 4326POPC   C4B16006  13.860  20.640   7.650
 4327POPC   NC316007   4.365  44.654   9.450
 4327POPC   PO416008   4.285  44.662   9.150
 4327POPC   GL116009   4.358  44.712   8.850
 4327POPC   GL216010   4.352  44.760   8.850
 4327POPC   C1A16011   4.367  44.705   8.550
 4327POPC   D2A16012   4.286  44.658   8.250
 4327POPC   C3A16013   4.339  44.711   7.950
 4327POPC   C4A16014   4.275  44.661   7.650
 4327POPC   C1B16015   4.421  44.866   8.550
 4327POPC   C2B16016   4.420  44.943   8.250
 4327POPC   C3B16017   4.383  44.863   7.950
 4327POPC   C4B16018   4.359  44.873   7.650
 4328POPC   NC316019  36.148  23.755   9.450
 4328POPC   PO416020  36.102  23.702   9.150
 4328POPC   GL116021  36.137  23.687   8.850
 4328POPC   GL216022  36.189  23.617   8.850
 4328POPC   C1A16023  36.163  23.746   8.550
 4328POPC   D2A16024  36.164  23.742   8.250
 4328POPC   C3A16025  36.148  23.744   7.950
 4328POPC   C4A16026  36.166  23.738   7.650
 4328POPC   C1B16027  36.194  23.440   8.550
 4328POPC   C2B16028  36.277  23.530   8.250
 4328POPC   C3B16029  36.232  23.521   7.950
 4328POPC   C4B16030  36.249  23.478   7.650
 4329POPC   NC316031  36.145   5.862   9.450
 4329POPC   PO416032  36.173   5.822   9.150
 4329POPC   GL116033  36.143   5.847   8.850
 4329POPC   GL216034  36.211   5.859   8.850
 4329POPC   C1A16035  36.111   5.830   8.550
 4329POPC   D2A16036  36.154   5.879   8.250
 4329POPC   C3A16037  36.123   5.858   7.950
 4329POPC   C4A16038  36.131   5.886   7.650
 4329POPC   C1B16039  36.335   5.970   8.550
 4329POPC   C2B16040  36.349   5.930   8.250
 4329POPC   C3B16041  36.364   5.974   7.950
 4329POPC   C4B16042  36.401   5.954   7.650
 4330POPC   NC316043  12.808  24.506   9.450
 4330POPC   PO416044  12.888  24.528   9.150
 4330POPC   GL116045  12.818  24.459   8.850
 4330POPC   GL216046  12.946  24.556   8.850
 4330POPC   C1A16047  12.868  24.493   8.550
 4330POPC   D2A16048  12.861  24.447   8.250
 4330POPC   C3A16049  12.857  24.476   7.950
 4330POPC   C4A16050  12.820  24.515   7.650
 4330POPC   C1B16051  12.984  24.689   8.550
 4330POPC   C2B16052  13.009  24.701   8.250
 4330POPC   C3B16053  12.977  24.679   7.950
 4330POPC   C4B16054  12.950  24.671   7.650
 4331POPC   NC316055  34.625  13.608   9.450
 4331POPC   PO416056  34.595  13.637   9.150
 4331POPC   GL116057  34.601  13.603   8.850
 4331POPC   GL216058  34.574  13.758   8.850
 4331POPC   C1A16059  34.539  13.615   8.550
 4331POPC   D2A16060  34.624  13.611   8.250
 4331POPC   C3A16061  34.624  13.655   7.950
 4331POPC   C4A16062  34.552  13.626   7.650
 4331POPC   C1B16063  34.579  13.854   8.550
 4331POPC   C2B16064  34.532  13.890   8.250
 4331POPC   C3B16065  34.521  13.882   7.950
 4331POPC   C4B16066  34.566  13.916   7.650
 4332POPC   NC316067  20.584  32.244   9.450
 4332POPC   PO416068  20.618  32.234   9.150
 4332POPC   GL116069  20.634  32.268   8.850
 4332POPC   GL216070  20.571  32.088   8.850
 4332POPC   C1A16071  20.564  32.257   8.550
 4332POPC   D2A16072  20.567  32.236   8.250
 4332POPC   C3A16073  20.578  32.217   7.950
 4332POPC   C4A16074  20.582  32.202   7.650
 4332POPC   C1B16075  20.667  31.988   8.550
 4332POPC   C2B16076  20.590  32.003   8.250
 4332POPC   C3B16077  20.597  31.962   7.950
 4332POPC   C4B16078  20.633  31.969   7.650
 4333POPC   NC316079   8.209  42.297   9.450
 4333POPC   PO416080   8.213  42.353   9.150
 4333POPC   GL116081   8.151  42.305   8.850
 4333POPC   GL216082   8.228  42.419   8.850
 4333POPC   C1A16083   8.222  42.298   8.550
 4333POPC   D2A16084   8.160  42.345   8.250
 4333POPC   C3A16085   8.220  42.383   7.950
 4333POPC   C4A16086   8.178  42.349   7.650
 4333POPC   C1B16087   8.191  42.543   8.550
 4333POPC   C2B16088   8.189  42.600   8.250
 4333POPC   C3B16089   8.164  42.579   7.950
 4333POPC   C4B16090   8.197  42.591   7.650
 4334POPC   NC316091   1.942   9.792   9.450
 4334POPC   PO416092   2.025   9.783   9.150
 4334POPC   GL116093   1.947   9.758   8.850
 4334POPC   GL216094   2.018   9.669   8.850
 4334POPC   C1A16095   1.942   9.710   8.550
 4334POPC   D2A16096   1.976   9.710   8.250
 4334POPC   C3A16097   2.026   9.790   7.950
 4334POPC   C4A16098   1.977   9.784   7.650
 4334POPC   C1B16099   2.015   9.514   8.550
 4334POPC   C2B16100   1.968   9.519   8.250
 4334POPC   C3B16101   1.991   9.493   7.950
 4334POPC   C4B16102   1.934   9.466   7.650
 4335POPC   NC316103   5.103  19.094   9.450
 4335POPC   PO416104   5.123  19.033   9.150
 4335POPC   GL116105   5.072  19.062   8.850
 4335POPC   GL216106   5.070  18.920   8.850
 4335POPC   C1A16107   5.054  19.063   8.550
 4335POPC   D2A16108   5.110  19.062   8.250
 4335POPC   C3A16109   5.082  19.019   7.950
 4335POPC   C4A16110   5.081  19.101   7.650
 4335POPC   C1B16111   4.969  18.802   8.550
 4335POPC   C2B16112   5.047  18.826   8.250
 4335POPC   C3B16113   5.049  18.800   7.950
 4335POPC   C4B16114   4.995  18.853   7.650
 4336POPC   NC316115  38.442  38.461   9.450
 4336POPC   PO416116  38.464  38.468   9.150
 4336POPC   GL116117  38.480  38.470   8.850
 4336POPC   GL216118  38.482  38.374   8.850
 4336POPC   C1A16119  38.436  38.469   8.550
 4336POPC   D2A16120  38.479  38.462   8.250
 4336POPC   C3A16121  38.466  38.493   7.950
 4336POPC   C4A16122  38.493  38.423   7.650
 4336POPC   C1B16123  38.483  38.166   8.550
 4336POPC   C2B16124  38.497  38.212   8.250
 4336POPC   C3B16125  38.525  38.185   7.950
 4336POPC   C4B16126  38.471  38.200   7.650
 4337POPC   NC316127  13.676  14.391   9.450
 4337POPC   PO416128  13.638  14.432   9.150
 4337POPC   GL116129  13.625  14.394   8.850
 4337POPC   GL216130  13.492  14.310   8.850
 4337POPC   C1A16131  13.675  14.390   8.550
 4337POPC   D2A16132  13.648  14.412   8.250
 4337POPC   C3A16133  13.624  14.442   7.950
 4337POPC   C4A16134  13.645  14.366   7.650
 4337POPC   C1B16135  13.426  14.272   8.550
 4337POPC   C2B16136  13.446  14.320   8.250
 4337POPC   C3B16137  13.453  14.252   7.950
 4337POPC   C4B16138  13.408  14.319   7.650
 4338POPC   NC316139  19.078  40.735   9.450
 4338POPC   PO416140  19.104  40.832   9.150
 4338POPC   GL116141  19.044  40.747   8.850
 4338POPC   GL216142  19.022  40.888   8.850
 4338POPC   C1A16143  19.047  40.821   8.550
 4338POPC   D2A16144  19.062  40.744   8.250
 4338POPC   C3A16145  19.080  40.813   7.950
 4338POPC   C4A16146  19.077  40.774   7.650
 4338POPC   C1B16147  19.055  41.025   8.550
 4338POPC   C2B16148  19.069  41.065   8.250
 4338POPC   C3B16149  19.034  41.066   7.950
 4338POPC   C4B16150  19.006  41.035   7.650
 4339POPC   NC316151  13.625  27.547   9.450
 4339POPC   PO416152  13.597  27.628   9.150
 4339POPC   GL116153  13.639  27.631   8.850
 4339POPC   GL216154  13.562  27.509   8.850
 4339POPC   C1A16155  13.650  27.576   8.550
 4339POPC   D2A16156  13.666  27.579   8.250
 4339POPC   C3A16157  13.582  27.556   7.950
 4339POPC   C4A16158  13.669  27.609   7.650
 4339POPC   C1B16159  13.564  27.360   8.550
 4339POPC   C2B16160  13.562  27.318   8.250
 4339POPC   C3B16161  13.586  27.302   7.950
 4339POPC   C4B16162  13.603  27.365   7.650
 4340POPC   NC316163  11.291  33.018   9.450
 4340POPC   PO416164  11.333  32.982   9.150
 4340POPC   GL116165  11.339  33.055   8.850
 4340POPC   GL216166  11.233  33.130   8.850
 4340POPC   C1A16167  11.324  32.982   8.550
 4340POPC   D2A16168  11.331  33.031   8.250
 4340POPC   C3A16169  11.266  33.064   7.950
 4340POPC   C4A16170  11.331  33.035   7.650
 4340POPC   C1B16171  11.125  33.168   8.550
 4340POPC   C2B16172  11.166  33.175   8.250
 4340POPC   C3B16173  11.154  33.224   7.950
 4340POPC   C4B16174  11.114  33.253   7.650
 4341POPC   NC316175  29.919  34.550   9.450
 4341POPC   PO416176  29.894  34.586   9.150
 4341POPC   GL116177  29.900  34.601   8.850
 4341POPC   GL216178  29.870  34.692   8.850
 4341POPC   C1A16179  29.921  34.623   8.550
 4341POPC   D2A16180  29.960  34.548   8.250
 4341POPC   C3A16181  29.944  34.602   7.950
 4341POPC   C4A16182  29.907  34.586   7.650
 4341POPC   C1B16183  29.784  34.756   8.550
 4341POPC   C2B16184  29.788  34.783   8.250
 4341POPC   C3B16185  29.775  34.771   7.950
 4341POPC   C4B16186  29.765  34.744   7.650
 4342POPC   NC316187  17.483  36.926   9.450
 4342POPC   PO416188  17.466  36.914   9.150
 4342POPC   GL116189  17.459  36.935   8.850
 4342POPC   GL216190  17.563  36.754   8.850
 4342POPC   C1A16191  17.529  36.878   8.550
 4342POPC   D2A16192  17.555  36.952   8.250
 4342POPC   C3A16193  17.507  36.882   7.950
 4342POPC   C4A16194  17.508  36.866   7.650
 4342POPC   C1B16195  17.642  36.695   8.550
 4342POPC   C2B16196  17.622  36.648   8.250
 4342POPC   C3B16197  17.655  36.657   7.950
 4342POPC   C4B16198  17.626  36.663   7.650
 4343POPC   NC316199   7.382  39.231   9.450
 4343POPC   PO416200   7.405  39.238   9.150
 4343POPC   GL116201   7.385  39.251   8.850
 4343POPC   GL216202   7.486  39.155   8.850
 4343POPC   C1A16203   7.443  39.257   8.550
 4343POPC   D2A16204   7.379  39.221   8.250
 4343POPC   C3A16205   7.410  39.193   7.950
 4343POPC   C4A16206   7.461  39.235   7.650
 4343POPC   C1B16207   7.599  39.100   8.550
 4343POPC   C2B16208   7.606  39.118   8.250
 4343POPC   C3B16209   7.665  39.162   7.950
 4343POPC   C4B16210   7.658  39.142   7.650
 4344POPC   NC316211  19.016  33.031   9.450
 4344POPC   PO416212  19.042  32.979   9.150
 4344POPC   GL116213  19.035  32.982   8.850
 4344POPC   GL216214  19.057  33.174   8.850
 4344POPC   C1A16215  19.104  33.023   8.550
 4344POPC   D2A16216  19.073  32.989   8.250
 4344POPC   C3A16217  19.041  33.024   7.950
 4344POPC   C4A16218  19.037  33.049   7.650
 4344POPC   C1B16219  19.107  33.248   8.550
 4344POPC   C2B16220  19.149  33.254   8.250
 4344POPC   C3B16221  19.136  33.240   7.950
 4344POPC   C4B16222  19.149  33.299   7.650
 4345POPC   NC316223  12.117  21.415   9.450
 4345POPC   PO416224  12.085  21.431   9.150
 4345POPC   GL116225  12.111  21.342   8.850
 4345POPC   GL216226  12.075  21.264   8.850
 4345POPC   C1A16227  12.111  21.412   8.550
 4345POPC   D2A16228  12.046  21.412   8.250
 4345POPC   C3A16229  12.046  21.431   7.950
 4345POPC   C4A16230  12.040  21.399   7.650
 4345POPC   C1B16231  12.100  21.171   8.550
 4345POPC   C2B16232  12.151  21.102   8.250
 4345POPC   C3B16233  12.092  21.162   7.950
 4345POPC   C4B16234  12.177  21.109   7.650
 4346POPC   NC316235  10.478  32.266   9.450
 4346POPC   PO416236  10.491  32.244   9.150
 4346POPC   GL116237  10.552  32.217   8.850
 4346POPC   GL216238  10.602  32.178   8.850
 4346POPC   C1A16239  10.507  32.294   8.550
 4346POPC   D2A16240  10.548  32.232   8.250
 4346POPC   C3A16241  10.554  32.220   7.950
 4346POPC   C4A16242  10.490  32.238   7.650
 4346POPC   C1B16243  10.752  32.231   8.550
 4346POPC   C2B16244  10.787  32.149   8.250
 4346POPC   C3B16245  10.721  32.227   7.950
 4346POPC   C4B16246  10.760  32.194   7.650
 4347POPC   NC316247  30.669  36.082   9.450
 4347POPC   PO416248  30.655  36.116   9.150
 4347POPC   GL116249  30.671  36.115   8.850
 4347POPC   GL216250  30.771  36.072   8.850
 4347POPC   C1A16251  30.680  36.157   8.550
 4347POPC   D2A16252  30.648  36.091   8.250
 4347POPC   C3A16253  30.720  36.096   7.950
 4347POPC   C4A16254  30.735  36.171   7.650
 4347POPC   C1B16255  30.869  35.890   8.550
 4347POPC   C2B16256  30.829  35.887   8.250
 4347POPC   C3B16257  30.843  35.889   7.950
 4347POPC   C4B16258  30.876  35.982   7.650
 4348POPC   NC316259  31.447  23.718   9.450
 4348POPC   PO416260  31.439  23.716   9.150
 4348POPC   GL116261  31.511  23.667   8.850
 4348POPC   GL216262  31.345  23.630   8.850
 4348POPC   C1A16263  31.423  23.698   8.550
 4348POPC   D2A16264  31.429  23.695   8.250
 4348POPC   C3A16265  31.512  23.730   7.950
 4348POPC   C4A16266  31.447  23.726   7.650
 4348POPC   C1B16267  31.252  23.597   8.550
 4348POPC   C2B16268  31.221  23.612   8.250
 4348POPC   C3B16269  31.246  23.608   7.950
 4348POPC   C4B16270  31.219  23.638   7.650
 4349POPC   NC316271   5.085   9.783   9.450
 4349POPC   PO416272   5.087   9.722   9.150
 4349POPC   GL116273   5.078   9.726   8.850
 4349POPC   GL216274   5.070   9.819   8.850
 4349POPC   C1A16275   5.129   9.705   8.550
 4349POPC   D2A16276   5.082   9.703   8.250
 4349POPC   C3A16277   5.044   9.758   7.950
 4349POPC   C4A16278   5.119   9.735   7.650
 4349POPC   C1B16279   5.008   9.968   8.550
 4349POPC   C2B16280   5.008   9.976   8.250
 4349POPC   C3B16281   4.949   9.926   7.950
 4349POPC   C4B16282   4.993   9.975   7.650
 4350POPC   NC316283  15.926  29.932   9.450
 4350POPC   PO416284  15.963  29.901   9.150
 4350POPC   GL116285  15.969  29.886   8.850
 4350POPC   GL216286  16.092  29.932   8.850
 4350POPC   C1A16287  15.960  29.943   8.550
 4350POPC   D2A16288  15.940  29.959   8.250
 4350POPC   C3A16289  15.939  29.917   7.950
 4350POPC   C4A16290  15.918  29.919   7.650
 4350POPC   C1B16291  16.206  29.878   8.550
 4350POPC   C2B16292  16.203  29.940   8.250
 4350POPC   C3B16293  16.170  29.964   7.950
 4350POPC   C4B16294  16.186  29.892   7.650
 4351POPC   NC316295  23.706   4.326   9.450
 4351POPC   PO416296  23.675   4.354   9.150
 4351POPC   GL116297  23.696   4.308   8.850
 4351POPC   GL216298  23.787   4.297   8.850
 4351POPC   C1A16299  23.667   4.269   8.550
 4351POPC   D2A16300  23.667   4.311   8.250
 4351POPC   C3A16301  23.694   4.310   7.950
 4351POPC   C4A16302  23.751   4.289   7.650
 4351POPC   C1B16303  23.942   4.294   8.550
 4351POPC   C2B16304  23.972   4.301   8.250
 4351POPC   C3B16305  23.966   4.297   7.950
 4351POPC   C4B16306  23.993   4.280   7.650
 4352POPC   NC316307   2.786  36.135   9.450
 4352POPC   PO416308   2.739  36.120   9.150
 4352POPC   GL116309   2.794  36.158   8.850
 4352POPC   GL216310   2.630  36.187   8.850
 4352POPC   C1A16311   2.762  36.168   8.550
 4352POPC   D2A16312   2.789  36.104   8.250
 4352POPC   C3A16313   2.735  36.134   7.950
 4352POPC   C4A16314   2.815  36.087   7.650
 4352POPC   C1B16315   2.574  36.247   8.550
 4352POPC   C2B16316   2.535  36.291   8.250
 4352POPC   C3B16317   2.543  36.297   7.950
 4352POPC   C4B16318   2.550  36.291   7.650
 4353POPC   NC316319  34.583  43.119   9.450
 4353POPC   PO416320  34.622  43.084   9.150
 4353POPC   GL116321  34.548  43.150   8.850
 4353POPC   GL216322  34.455  43.010   8.850
 4353POPC   C1A16323  34.606  43.098   8.550
 4353POPC   D2A16324  34.612  43.129   8.250
 4353POPC   C3A16325  34.580  43.115   7.950
 4353POPC   C4A16326  34.575  43.123   7.650
 4353POPC   C1B16327  34.350  43.003   8.550
 4353POPC   C2B16328  34.316  42.967   8.250
 4353POPC   C3B16329  34.350  43.052   7.950
 4353POPC   C4B16330  34.338  42.971   7.650
 4354POPC   NC316331   4.345  31.513   9.450
 4354POPC   PO416332   4.351  31.479   9.150
 4354POPC   GL116333   4.314  31.446   8.850
 4354POPC   GL216334   4.313  31.588   8.850
 4354POPC   C1A16335   4.363  31.481   8.550
 4354POPC   D2A16336   4.304  31.504   8.250
 4354POPC   C3A16337   4.361  31.490   7.950
 4354POPC   C4A16338   4.313  31.466   7.650
 4354POPC   C1B16339   4.206  31.677   8.550
 4354POPC   C2B16340   4.217  31.744   8.250
 4354POPC   C3B16341   4.179  31.727   7.950
 4354POPC   C4B16342   4.263  31.674   7.650
 4355POPC   NC316343  37.677  39.191   9.450
 4355POPC   PO416344  37.660  39.235   9.150
 4355POPC   GL116345  37.691  39.280   8.850
 4355POPC   GL216346  37.661  39.358   8.850
 4355POPC   C1A16347  37.653  39.193   8.550
 4355POPC   D2A16348  37.657  39.191   8.250
 4355POPC   C3A16349  37.718  39.216   7.950
 4355POPC   C4A16350  37.640  39.215   7.650
 4355POPC   C1B16351  37.676  39.486   8.550
 4355POPC   C2B16352  37.680  39.479   8.250
 4355POPC   C3B16353  37.686  39.485   7.950
 4355POPC   C4B16354  37.606  39.478   7.650
 4356POPC   NC316355  39.238  35.306   9.450
 4356POPC   PO416356  39.246  35.320   9.150
 4356POPC   GL116357  39.279  35.346   8.850
 4356POPC   GL216358  39.233  35.215   8.850
 4356POPC   C1A16359  39.185  35.325   8.550
 4356POPC   D2A16360  39.236  35.386   8.250
 4356POPC   C3A16361  39.233  35.345   7.950
 4356POPC   C4A16362  39.255  35.313   7.650
 4356POPC   C1B16363  39.213  35.104   8.550
 4356POPC   C2B16364  39.194  35.068   8.250
 4356POPC   C3B16365  39.252  35.098   7.950
 4356POPC   C4B16366  39.218  35.063   7.650
 4357POPC   NC316367  19.017  43.072   9.450
 4357POPC   PO416368  19.075  43.065   9.150
 4357POPC   GL116369  19.012  43.124   8.850
 4357POPC   GL216370  18.889  43.102   8.850
 4357POPC   C1A16371  19.087  43.145   8.550
 4357POPC   D2A16372  19.095  43.122   8.250
 4357POPC   C3A16373  19.054  43.111   7.950
 4357POPC   C4A16374  19.047  43.152   7.650
 4357POPC   C1B16375  18.855  43.108   8.550
 4357POPC   C2B16376  18.847  43.106   8.250
 4357POPC   C3B16377  18.777  43.156   7.950
 4357POPC   C4B16378  18.789  43.146   7.650
 4358POPC   NC316379  43.067  32.220   9.450
 4358POPC   PO416380  43.143  32.199   9.150
 4358POPC   GL116381  43.088  32.225   8.850
 4358POPC   GL216382  43.082  32.105   8.850
 4358POPC   C1A16383  43.135  32.207   8.550
 4358POPC   D2A16384  43.129  32.213   8.250
 4358POPC   C3A16385  43.061  32.220   7.950
 4358POPC   C4A16386  43.122  32.204   7.650
 4358POPC   C1B16387  42.944  32.010   8.550
 4358POPC   C2B16388  42.955  32.063   8.250
 4358POPC   C3B16389  43.033  32.008   7.950
 4358POPC   C4B16390  42.981  32.020   7.650
 4359POPC   NC316391  26.071  25.281   9.450
 4359POPC   PO416392  26.014  25.312   9.150
 4359POPC   GL116393  25.996  25.216   8.850
 4359POPC   GL216394  26.179  25.222   8.850
 4359POPC   C1A16395  26.016  25.307   8.550
 4359POPC   D2A16396  26.040  25.294   8.250
 4359POPC   C3A16397  26.059  25.286   7.950
 4359POPC   C4A16398  26.081  25.220   7.650
 4359POPC   C1B16399  26.255  25.276   8.550
 4359POPC   C2B16400  26.293  25.251   8.250
 4359POPC   C3B16401  26.302  25.235   7.950
 4359POPC   C4B16402  26.270  25.295   7.650
 4360POPC   NC316403  33.775  43.874   9.450
 4360POPC   PO416404  33.786  43.887   9.150
 4360POPC   GL116405  33.831  43.852   8.850
 4360POPC   GL216406  33.710  43.935   8.850
 4360POPC   C1A16407  33.775  43.865   8.550
 4360POPC   D2A16408  33.818  43.838   8.250
 4360POPC   C3A16409  33.821  43.837   7.950
 4360POPC   C4A16410  33.804  43.925   7.650
 4360POPC   C1B16411  33.588  43.934   8.550
 4360POPC   C2B16412  33.591  44.004   8.250
 4360POPC   C3B16413  33.536  43.947   7.950
 4360POPC   C4B16414  33.565  43.939   7.650
 4361POPC   NC316415   3.556  15.909   9.450
 4361POPC   PO416416   3.553  15.921   9.150
 4361POPC   GL116417   3.523  15.974   8.850
 4361POPC   GL216418   3.409  15.979   8.850
 4361POPC   C1A16419   3.574  15.938   8.550
 4361POPC   D2A16420   3.547  15.953   8.250
 4361POPC   C3A16421   3.584  15.912   7.950
 4361POPC   C4A16422   3.513  15.926   7.650
 4361POPC   C1B16423   3.340  15.953   8.550
 4361POPC   C2B16424   3.317  15.996   8.250
 4361POPC   C3B16425   3.329  15.912   7.950
 4361POPC   C4B16426   3.308  15.965   7.650
 4362POPC   NC316427  32.272   8.963   9.450
 4362POPC   PO416428  32.219   8.940   9.150
 4362POPC   GL116429  32.286   9.020   8.850
 4362POPC   GL216430  32.271   8.839   8.850
 4362POPC   C1A16431  32.207   8.990   8.550
 4362POPC   D2A16432  32.283   8.988   8.250
 4362POPC   C3A16433  32.241   8.985   7.950
 4362POPC   C4A16434  32.230   9.007   7.650
 4362POPC   C1B16435  32.399   8.783   8.550
 4362POPC   C2B16436  32.360   8.792   8.250
 4362POPC   C3B16437  32.353   8.733   7.950
 4362POPC   C4B16438  32.408   8.775   7.650
 4363POPC   NC316439   2.032  29.177   9.450
 4363POPC   PO416440   2.012  29.144   9.150
 4363POPC   GL116441   1.950  29.167   8.850
 4363POPC   GL216442   1.902  29.280   8.850
 4363POPC   C1A16443   1.954  29.157   8.550
 4363POPC   D2A16444   1.963  29.189   8.250
 4363POPC   C3A16445   1.960  29.165   7.950
 4363POPC   C4A16446   1.946  29.162   7.650
 4363POPC   C1B16447   1.943  29.413   8.550
 4363POPC   C2B16448   1.857  29.417   8.250
 4363POPC   C3B16449   1.926  29.331   7.950
 4363POPC   C4B16450   1.908  29.358   7.650
 4364POPC   NC316451   8.924  43.918   9.450
 4364POPC   PO416452   8.949  43.899   9.150
 4364POPC   GL116453   8.988  43.877   8.850
 4364POPC   GL216454   9.004  43.787   8.850
 4364POPC   C1A16455   9.018  43.932   8.550
 4364POPC   D2A16456   9.012  43.838   8.250
 4364POPC   C3A16457   8.936  43.907   7.950
 4364POPC   C4A16458   9.013  43.886   7.650
 4364POPC   C1B16459   9.051  43.673   8.550
 4364POPC   C2B16460   9.140  43.658   8.250
 4364POPC   C3B16461   9.143  43.648   7.950
 4364POPC   C4B16462   9.118  43.634   7.650
 4365POPC   NC316463  25.305  43.096   9.450
 4365POPC   PO416464  25.257  43.102   9.150
 4365POPC   GL116465  25.261  43.066   8.850
 4365POPC   GL216466  25.175  43.089   8.850
 4365POPC   C1A16467  25.297  43.086   8.550
 4365POPC   D2A16468  25.223  43.109   8.250
 4365POPC   C3A16469  25.234  43.126   7.950
 4365POPC   C4A16470  25.225  43.129   7.650
 4365POPC   C1B16471  25.070  42.983   8.550
 4365POPC   C2B16472  25.064  42.977   8.250
 4365POPC   C3B16473  25.088  43.035   7.950
 4365POPC   C4B16474  25.013  43.031   7.650
 4366POPC   NC316475  30.714   5.098   9.450
 4366POPC   PO416476  30.684   5.076   9.150
 4366POPC   GL116477  30.659   5.076   8.850
 4366POPC   GL216478  30.740   5.175   8.850
 4366POPC   C1A16479  30.653   5.061   8.550
 4366POPC   D2A16480  30.746   5.119   8.250
 4366POPC   C3A16481  30.699   5.122   7.950
 4366POPC   C4A16482  30.738   5.122   7.650
 4366POPC   C1B16483  30.797   5.294   8.550
 4366POPC   C2B16484  30.837   5.268   8.250
 4366POPC   C3B16485  30.844   5.279   7.950
 4366POPC   C4B16486  30.790   5.329   7.650
 4367POPC   NC316487   6.623   0.472   9.450
 4367POPC   PO416488   6.691   0.425   9.150
 4367POPC   GL116489   6.650   0.422   8.850
 4367POPC   GL216490   6.618   0.287   8.850
 4367POPC   C1A16491   6.693   0.440   8.550
 4367POPC   D2A16492   6.680   0.400   8.250
 4367POPC   C3A16493   6.660   0.457   7.950
 4367POPC   C4A16494   6.599   0.393   7.650
 4367POPC   C1B16495   6.540   0.233   8.550
 4367POPC   C2B16496   6.577   0.176   8.250
 4367POPC   C3B16497   6.571   0.212   7.950
 4367POPC   C4B16498   6.608   0.154   7.650
 4368POPC   NC316499  25.255   2.752   9.450
 4368POPC   PO416500  25.280   2.787   9.150
 4368POPC   GL116501  25.226   2.757   8.850
 4368POPC   GL216502  25.196   2.778   8.850
 4368POPC   C1A16503  25.230   2.762   8.550
 4368POPC   D2A16504  25.234   2.761   8.250
 4368POPC   C3A16505  25.293   2.738   7.950
 4368POPC   C4A16506  25.289   2.750   7.650
 4368POPC   C1B16507  25.057   2.872   8.550
 4368POPC   C2B16508  25.029   2.898   8.250
 4368POPC   C3B16509  25.072   2.896   7.950
 4368POPC   C4B16510  25.054   2.871   7.650
 4369POPC   NC316511  29.170  32.283   9.450
 4369POPC   PO416512  29.155  32.260   9.150
 4369POPC   GL116513  29.177  32.264   8.850
 4369POPC   GL216514  29.037  32.313   8.850
 4369POPC   C1A16515  29.168  32.281   8.550
 4369POPC   D2A16516  29.183  32.269   8.250
 4369POPC   C3A16517  29.135  32.278   7.950
 4369POPC   C4A16518  29.165  32.200   7.650
 4369POPC   C1B16519  28.951  32.465   8.550
 4369POPC   C2B16520  28.966  32.389   8.250
 4369POPC   C3B16521  29.022  32.463   7.950
 4369POPC   C4B16522  29.023  32.447   7.650
 4370POPC   NC316523  36.942  44.689   9.450
 4370POPC   PO416524  36.929  44.614   9.150
 4370POPC   GL116525  36.927  44.666   8.850
 4370POPC   GL216526  36.908  44.835   8.850
 4370POPC   C1A16527  36.915  44.677   8.550
 4370POPC   D2A16528  36.948  44.667   8.250
 4370POPC   C3A16529  36.930  44.679   7.950
 4370POPC   C4A16530  36.898  44.630   7.650
 4370POPC   C1B16531  36.885  44.948   8.550
 4370POPC   C2B16532  36.936  44.895   8.250
 4370POPC   C3B16533  36.957  44.872   7.950
 4370POPC   C4B16534  36.966  44.890   7.650
 4371POPC   NC316535  16.687  33.820   9.450
 4371POPC   PO416536  16.779  33.788   9.150
 4371POPC   GL116537  16.746  33.843   8.850
 4371POPC   GL216538  16.749  33.645   8.850
 4371POPC   C1A16539  16.767  33.842   8.550
 4371POPC   D2A16540  16.772  33.815   8.250
 4371POPC   C3A16541  16.751  33.768   7.950
 4371POPC   C4A16542  16.709  33.787   7.650
 4371POPC   C1B16543  16.802  33.573   8.550
 4371POPC   C2B16544  16.718  33.540   8.250
 4371POPC   C3B16545  16.735  33.541   7.950
 4371POPC   C4B16546  16.791  33.522   7.650
 4372POPC   NC316547  30.715  25.236   9.450
 4372POPC   PO416548  30.711  25.315   9.150
 4372POPC   GL116549  30.653  25.257   8.850
 4372POPC   GL216550  30.766  25.284   8.850
 4372POPC   C1A16551  30.661  25.307   8.550
 4372POPC   D2A16552  30.698  25.280   8.250
 4372POPC   C3A16553  30.669  25.242   7.950
 4372POPC   C4A16554  30.650  25.303   7.650
 4372POPC   C1B16555  30.871  25.358   8.550
 4372POPC   C2B16556  30.914  25.414   8.250
 4372POPC   C3B16557  30.874  25.344   7.950
 4372POPC   C4B16558  30.896  25.370   7.650
 4373POPC   NC316559  41.541  29.916   9.450
 4373POPC   PO416560  41.578  29.920   9.150
 4373POPC   GL116561  41.560  29.938   8.850
 4373POPC   GL216562  41.643  29.769   8.850
 4373POPC   C1A16563  41.582  29.914   8.550
 4373POPC   D2A16564  41.563  29.954   8.250
 4373POPC   C3A16565  41.532  29.908   7.950
 4373POPC   C4A16566  41.517  29.900   7.650
 4373POPC   C1B16567  41.669  29.714   8.550
 4373POPC   C2B16568  41.638  29.735   8.250
 4373POPC   C3B16569  41.676  29.725   7.950
 4373POPC   C4B16570  41.670  29.730   7.650
 4374POPC   NC316571  15.227  16.001   9.450
 4374POPC   PO416572  15.145  15.968   9.150
 4374POPC   GL116573  15.160  15.946   8.850
 4374POPC   GL216574  15.109  15.861   8.850
 4374POPC   C1A16575  15.132  15.909   8.550
 4374POPC   D2A16576  15.175  15.909   8.250
 4374POPC   C3A16577  15.176  15.950   7.950
 4374POPC   C4A16578  15.221  15.963   7.650
 4374POPC   C1B16579  15.069  15.730   8.550
 4374POPC   C2B16580  15.146  15.685   8.250
 4374POPC   C3B16581  15.139  15.741   7.950
 4374POPC   C4B16582  15.071  15.763   7.650
 4375POPC   NC316583  29.122  39.229   9.450
 4375POPC   PO416584  29.157  39.181   9.150
 4375POPC   GL116585  29.187  39.246   8.850
 4375POPC   GL216586  29.032  39.165   8.850
 4375POPC   C1A16587  29.175  39.269   8.550
 4375POPC   D2A16588  29.162  39.181   8.250
 4375POPC   C3A16589  29.182  39.190   7.950
 4375POPC   C4A16590  29.120  39.197   7.650
 4375POPC   C1B16591  28.903  39.072   8.550
 4375POPC   C2B16592  28.951  39.114   8.250
 4375POPC   C3B16593  28.979  39.044   7.950
 4375POPC   C4B16594  28.984  39.109   7.650
 4376POPC   NC316595  15.993  22.961   9.450
 4376POPC   PO416596  15.984  22.930   9.150
 4376POPC   GL116597  15.916  22.952   8.850
 4376POPC   GL216598  15.871  22.899   8.850
 4376POPC   C1A16599  15.909  22.927   8.550
 4376POPC   D2A16600  15.970  22.907   8.250
 4376POPC   C3A16601  15.940  22.950   7.950
 4376POPC   C4A16602  15.960  22.917   7.650
 4376POPC   C1B16603  15.672  22.872   8.550
 4376POPC   C2B16604  15.674  22.932   8.250
 4376POPC   C3B16605  15.684  22.848   7.950
 4376POPC   C4B16606  15.750  22.855   7.650
 4377POPC   NC316607  27.599  36.901   9.450
 4377POPC   PO416608  27.549  36.870   9.150
 4377POPC   GL116609  27.637  36.865   8.850
 4377POPC   GL216610  27.544  37.008   8.850
 4377POPC   C1A16611  27.594  36.941   8.550
 4377POPC   D2A16612  27.629  36.916   8.250
 4377POPC   C3A16613  27.550  36.868   7.950
 4377POPC   C4A16614  27.601  36.884   7.650
 4377POPC   C1B16615  27.504  37.181   8.550
 4377POPC   C2B16616  27.477  37.184   8.250
 4377POPC   C3B16617  27.457  37.111   7.950
 4377POPC   C4B16618  27.539  37.117   7.650
 4378POPC   NC316619   2.733  28.324   9.450
 4378POPC   PO416620   2.752  28.410   9.150
 4378POPC   GL116621   2.814  28.406   8.850
 4378POPC   GL216622   2.833  28.399   8.850
 4378POPC   C1A16623   2.723  28.381   8.550
 4378POPC   D2A16624   2.745  28.347   8.250
 4378POPC   C3A16625   2.760  28.347   7.950
 4378POPC   C4A16626   2.757  28.371   7.650
 4378POPC   C1B16627   3.045  28.408   8.550
 4378POPC   C2B16628   3.039  28.416   8.250
 4378POPC   C3B16629   3.001  28.420   7.950
 4378POPC   C4B16630   2.964  28.425   7.650
 4379POPC   NC316631  21.344   9.780   9.450
 4379POPC   PO416632  21.431   9.797   9.150
 4379POPC   GL116633  21.406   9.781   8.850
 4379POPC   GL216634  21.317   9.598   8.850
 4379POPC   C1A16635  21.343   9.714   8.550
 4379POPC   D2A16636  21.337   9.718   8.250
 4379POPC   C3A16637  21.385   9.761   7.950
 4379POPC   C4A16638  21.391   9.728   7.650
 4379POPC   C1B16639  21.291   9.506   8.550
 4379POPC   C2B16640  21.326   9.538   8.250
 4379POPC   C3B16641  21.320   9.496   7.950
 4379POPC   C4B16642  21.290   9.502   7.650
 4380POPC   NC316643  15.988   7.464   9.450
 4380POPC   PO416644  15.939   7.445   9.150
 4380POPC   GL116645  15.985   7.457   8.850
 4380POPC   GL216646  15.887   7.557   8.850
 4380POPC   C1A16647  15.987   7.427   8.550
 4380POPC   D2A16648  15.911   7.446   8.250
 4380POPC   C3A16649  15.964   7.397   7.950
 4380POPC   C4A16650  16.004   7.405   7.650
 4380POPC   C1B16651  15.809   7.669   8.550
 4380POPC   C2B16652  15.804   7.618   8.250
 4380POPC   C3B16653  15.849   7.623   7.950
 4380POPC   C4B16654  15.792   7.669   7.650
 4381POPC   NC316655  34.567  12.824   9.450
 4381POPC   PO416656  34.549  12.849   9.150
 4381POPC   GL116657  34.534  12.846   8.850
 4381POPC   GL216658  34.548  12.986   8.850
 4381POPC   C1A16659  34.552  12.810   8.550
 4381POPC   D2A16660  34.560  12.825   8.250
 4381POPC   C3A16661  34.531  12.838   7.950
 4381POPC   C4A16662  34.586  12.850   7.650
 4381POPC   C1B16663  34.444  13.066   8.550
 4381POPC   C2B16664  34.470  13.045   8.250
 4381POPC   C3B16665  34.483  13.098   7.950
 4381POPC   C4B16666  34.419  13.075   7.650
 4382POPC   NC316667  33.826  27.625   9.450
 4382POPC   PO416668  33.774  27.641   9.150
 4382POPC   GL116669  33.807  27.611   8.850
 4382POPC   GL216670  33.906  27.500   8.850
 4382POPC   C1A16671  33.840  27.576   8.550
 4382POPC   D2A16672  33.818  27.634   8.250
 4382POPC   C3A16673  33.763  27.563   7.950
 4382POPC   C4A16674  33.800  27.558   7.650
 4382POPC   C1B16675  33.902  27.375   8.550
 4382POPC   C2B16676  33.971  27.409   8.250
 4382POPC   C3B16677  33.926  27.383   7.950
 4382POPC   C4B16678  33.920  27.381   7.650
 4383POPC   NC316679  33.011  24.448   9.450
 4383POPC   PO416680  33.056  24.482   9.150
 4383POPC   GL116681  32.982  24.470   8.850
 4383POPC   GL216682  32.941  24.349   8.850
 4383POPC   C1A16683  33.056  24.481   8.550
 4383POPC   D2A16684  33.004  24.530   8.250
 4383POPC   C3A16685  33.052  24.464   7.950
 4383POPC   C4A16686  33.026  24.509   7.650
 4383POPC   C1B16687  32.931  24.233   8.550
 4383POPC   C2B16688  32.924  24.247   8.250
 4383POPC   C3B16689  32.949  24.278   7.950
 4383POPC   C4B16690  32.900  24.292   7.650
 4384POPC   NC316691  44.712  26.862   9.450
 4384POPC   PO416692  44.671  26.802   9.150
 4384POPC   GL116693  44.710  26.846   8.850
 4384POPC   GL216694  44.675  26.956   8.850
 4384POPC   C1A16695  44.680  26.850   8.550
 4384POPC   D2A16696  44.614  26.807   8.250
 4384POPC   C3A16697  44.666  26.784   7.950
 4384POPC   C4A16698  44.707  26.836   7.650
 4384POPC   C1B16699  44.686  27.050   8.550
 4384POPC   C2B16700  44.690  27.071   8.250
 4384POPC   C3B16701  44.683  27.016   7.950
 4384POPC   C4B16702  44.724  27.087   7.650
 4385POPC   NC316703  24.499   8.948   9.450
 4385POPC   PO416704  24.519   9.002   9.150
 4385POPC   GL116705  24.529   8.981   8.850
 4385POPC   GL216706  24.405   8.847   8.850
 4385POPC   C1A16707  24.511   8.945   8.550
 4385POPC   D2A16708  24.499   9.022   8.250
 4385POPC   C3A16709  24.475   8.976   7.950
 4385POPC   C4A16710  24.477   8.961   7.650
 4385POPC   C1B16711  24.382   8.798   8.550
 4385POPC   C2B16712  24.359   8.715   8.250
 4385POPC   C3B16713  24.389   8.791   7.950
 4385POPC   C4B16714  24.374   8.724   7.650
 4386POPC   NC316715  19.849  12.859   9.450
 4386POPC   PO416716  19.823  12.893   9.150
 4386POPC   GL116717  19.821  12.839   8.850
 4386POPC   GL216718  19.898  12.929   8.850
 4386POPC   C1A16719  19.863  12.887   8.550
 4386POPC   D2A16720  19.829  12.819   8.250
 4386POPC   C3A16721  19.867  12.869   7.950
 4386POPC   C4A16722  19.849  12.833   7.650
 4386POPC   C1B16723  19.939  13.110   8.550
 4386POPC   C2B16724  19.902  13.060   8.250
 4386POPC   C3B16725  19.900  13.110   7.950
 4386POPC   C4B16726  19.877  13.059   7.650
 4387POPC   NC316727  38.498  20.578   9.450
 4387POPC   PO416728  38.479  20.582   9.150
 4387POPC   GL116729  38.495  20.626   8.850
 4387POPC   GL216730  38.374  20.464   8.850
 4387POPC   C1A16731  38.488  20.634   8.550
 4387POPC   D2A16732  38.450  20.653   8.250
 4387POPC   C3A16733  38.504  20.639   7.950
 4387POPC   C4A16734  38.417  20.646   7.650
 4387POPC   C1B16735  38.395  20.395   8.550
 4387POPC   C2B16736  38.392  20.372   8.250
 4387POPC   C3B16737  38.381  20.391   7.950
 4387POPC   C4B16738  38.405  20.363   7.650
 4388POPC   NC316739  39.260  26.815   9.450
 4388POPC   PO416740  39.185  26.786   9.150
 4388POPC   GL116741  39.257  26.779   8.850
 4388POPC   GL216742  39.161  26.758   8.850
 4388POPC   C1A16743  39.264  26.864   8.550
 4388POPC   D2A16744  39.197  26.834   8.250
 4388POPC   C3A16745  39.201  26.807   7.950
 4388POPC   C4A16746  39.200  26.835   7.650
 4388POPC   C1B16747  39.061  26.685   8.550
 4388POPC   C2B16748  39.073  26.664   8.250
 4388POPC   C3B16749  39.029  26.683   7.950
 4388POPC   C4B16750  39.020  26.669   7.650
 4389POPC   NC316751  41.551   5.049   9.450
 4389POPC   PO416752  41.543   5.112   9.150
 4389POPC   GL116753  41.539   5.088   8.850
 4389POPC   GL216754  41.539   5.204   8.850
 4389POPC   C1A16755  41.550   5.131   8.550
 4389POPC   D2A16756  41.573   5.059   8.250
 4389POPC   C3A16757  41.595   5.116   7.950
 4389POPC   C4A16758  41.579   5.064   7.650
 4389POPC   C1B16759  41.502   5.304   8.550
 4389POPC   C2B16760  41.479   5.292   8.250
 4389POPC   C3B16761  41.526   5.380   7.950
 4389POPC   C4B16762  41.469   5.338   7.650
 4390POPC   NC316763  11.321   0.417   9.450
 4390POPC   PO416764  11.342   0.469   9.150
 4390POPC   GL116765  11.260   0.402   8.850
 4390POPC   GL216766  11.172   0.335   8.850
 4390POPC   C1A16767  11.275   0.455   8.550
 4390POPC   D2A16768  11.347   0.396   8.250
 4390POPC   C3A16769  11.276   0.405   7.950
 4390POPC   C4A16770  11.251   0.411   7.650
 4390POPC   C1B16771  11.107   0.238   8.550
 4390POPC   C2B16772  11.125   0.315   8.250
 4390POPC   C3B16773  11.131   0.266   7.950
 4390POPC   C4B16774  11.148   0.281   7.650
 4391POPC   NC316775   8.212   5.877   9.450
 4391POPC   PO416776   8.238   5.901   9.150
 4391POPC   GL116777   8.229   5.844   8.850
 4391POPC   GL216778   8.302   5.832   8.850
 4391POPC   C1A16779   8.240   5.858   8.550
 4391POPC   D2A16780   8.169   5.907   8.250
 4391POPC   C3A16781   8.227   5.859   7.950
 4391POPC   C4A16782   8.185   5.821   7.650
 4391POPC   C1B16783   8.488   5.853   8.550
 4391POPC   C2B16784   8.465   5.929   8.250
 4391POPC   C3B16785   8.445   5.879   7.950
 4391POPC   C4B16786   8.437   5.929   7.650
 4392POPC   NC316787  43.926  33.055   9.450
 4392POPC   PO416788  43.930  33.061   9.150
 4392POPC   GL116789  43.921  33.057   8.850
 4392POPC   GL216790  43.811  33.074   8.850
 4392POPC   C1A16791  43.888  33.062   8.550
 4392POPC   D2A16792  43.913  33.015   8.250
 4392POPC   C3A16793  43.901  33.035   7.950
 4392POPC   C4A16794  43.907  33.053   7.650
 4392POPC   C1B16795  43.616  33.089   8.550
 4392POPC   C2B16796  43.589  33.055   8.250
 4392POPC   C3B16797  43.662  33.031   7.950
 4392POPC   C4B16798  43.629  33.026   7.650
 4393POPC   NC316799   7.419   1.247   9.450
 4393POPC   PO416800   7.436   1.222   9.150
 4393POPC   GL116801   7.437   1.229   8.850
 4393POPC   GL216802   7.313   1.213   8.850
 4393POPC   C1A16803   7.388   1.188   8.550
 4393POPC   D2A16804   7.393   1.183   8.250
 4393POPC   C3A16805   7.460   1.216   7.950
 4393POPC   C4A16806   7.392   1.178   7.650
 4393POPC   C1B16807   7.218   1.164   8.550
 4393POPC   C2B16808   7.136   1.113   8.250
 4393POPC   C3B16809   7.174   1.175   7.950
 4393POPC   C4B16810   7.154   1.167   7.650
 4394POPC   NC316811  32.284  32.984   9.450
 4394POPC   PO416812  32.273  33.073   9.150
 4394POPC   GL116813  32.286  33.047   8.850
 4394POPC   GL216814  32.161  33.014   8.850
 4394POPC   C1A16815  32.235  33.053   8.550
 4394POPC   D2A16816  32.222  33.009   8.250
 4394POPC   C3A16817  32.233  32.984   7.950
 4394POPC   C4A16818  32.240  33.047   7.650
 4394POPC   C1B16819  32.055  33.104   8.550
 4394POPC   C2B16820  32.035  33.142   8.250
 4394POPC   C3B16821  32.055  33.074   7.950
 4394POPC   C4B16822  31.975  33.120   7.650
 4395POPC   NC316823  37.656  36.890   9.450
 4395POPC   PO416824  37.709  36.861   9.150
 4395POPC   GL116825  37.705  36.935   8.850
 4395POPC   GL216826  37.799  36.795   8.850
 4395POPC   C1A16827  37.685  36.947   8.550
 4395POPC   D2A16828  37.681  36.944   8.250
 4395POPC   C3A16829  37.719  36.908   7.950
 4395POPC   C4A16830  37.723  36.887   7.650
 4395POPC   C1B16831  37.809  36.687   8.550
 4395POPC   C2B16832  37.806  36.713   8.250
 4395POPC   C3B16833  37.832  36.723   7.950
 4395POPC   C4B16834  37.862  36.719   7.650
 4396POPC   NC316835   0.451  15.975   9.450
 4396POPC   PO416836   0.462  15.958   9.150
 4396POPC   GL116837   0.419  15.919   8.850
 4396POPC   GL216838   0.349  15.844   8.850
 4396POPC   C1A16839   0.425  15.994   8.550
 4396POPC   D2A16840   0.477  15.926   8.250
 4396POPC   C3A16841   0.397  15.928   7.950
 4396POPC   C4A16842   0.464  15.913   7.650
 4396POPC   C1B16843   0.338  15.718   8.550
 4396POPC   C2B16844   0.320  15.741   8.250
 4396POPC   C3B16845   0.346  15.768   7.950
 4396POPC   C4B16846   0.288  15.701   7.650
 4397POPC   NC316847   3.559  39.245   9.450
 4397POPC   PO416848   3.533  39.219   9.150
 4397POPC   GL116849   3.587  39.258   8.850
 4397POPC   GL216850   3.617  39.174   8.850
 4397POPC   C1A16851   3.564  39.194   8.550
 4397POPC   D2A16852   3.537  39.226   8.250
 4397POPC   C3A16853   3.576  39.266   7.950
 4397POPC   C4A16854   3.591  39.215   7.650
 4397POPC   C1B16855   3.751  39.020   8.550
 4397POPC   C2B16856   3.717  39.088   8.250
 4397POPC   C3B16857   3.680  39.090   7.950
 4397POPC   C4B16858   3.746  39.022   7.650
 4398POPC   NC316859   1.976  15.990   9.450
 4398POPC   PO416860   1.991  15.970   9.150
 4398POPC   GL116861   2.011  15.966   8.850
 4398POPC   GL216862   2.130  16.027   8.850
 4398POPC   C1A16863   2.000  15.957   8.550
 4398POPC   D2A16864   1.956  15.974   8.250
 4398POPC   C3A16865   1.982  15.929   7.950
 4398POPC   C4A16866   1.988  15.915   7.650
 4398POPC   C1B16867   2.228  16.006   8.550
 4398POPC   C2B16868   2.204  15.990   8.250
 4398POPC   C3B16869   2.239  15.997   7.950
 4398POPC   C4B16870   2.190  16.026   7.650
 4399POPC   NC316871  43.106  26.828   9.450
 4399POPC   PO416872  43.071  26.836   9.150
 4399POPC   GL116873  43.137  26.806   8.850
 4399POPC   GL216874  43.235  26.813   8.850
 4399POPC   C1A16875  43.131  26.780   8.550
 4399POPC   D2A16876  43.091  26.856   8.250
 4399POPC   C3A16877  43.145  26.837   7.950
 4399POPC   C4A16878  43.158  26.831   7.650
 4399POPC   C1B16879  43.347  26.747   8.550
 4399POPC   C2B16880  43.381  26.690   8.250
 4399POPC   C3B16881  43.380  26.732   7.950
 4399POPC   C4B16882  43.341  26.729   7.650
 4400POPC   NC316883  36.893  27.639   9.450
 4400POPC   PO416884  36.859  27.580   9.150
 4400POPC   GL116885  36.909  27.604   8.850
 4400POPC   GL216886  36.826  27.553   8.850
 4400POPC   C1A16887  36.935  27.638   8.550
 4400POPC   D2A16888  36.868  27.556   8.250
 4400POPC   C3A16889  36.907  27.569   7.950
 4400POPC   C4A16890  36.934  27.624   7.650
 4400POPC   C1B16891  36.703  27.519   8.550
 4400POPC   C2B16892  36.632  27.506   8.250
 4400POPC   C3B16893  36.671  27.478   7.950
 4400POPC   C4B16894  36.654  27.515   7.650
 4401POPC   NC316895   9.754   1.177   9.450
 4401POPC   PO416896   9.736   1.190   9.150
 4401POPC   GL116897   9.778   1.213   8.850
 4401POPC   GL216898   9.619   1.156   8.850
 4401POPC   C1A16899   9.789   1.168   8.550
 4401POPC   D2A16900   9.792   1.208   8.250
 4401POPC   C3A16901   9.738   1.239   7.950
 4401POPC   C4A16902   9.730   1.208   7.650
 4401POPC   C1B16903   9.606   1.021   8.550
 4401POPC   C2B16904   9.567   1.071   8.250
 4401POPC   C3B16905   9.548   1.026   7.950
 4401POPC   C4B16906   9.542   0.994   7.650
 4402POPC   NC316907  34.601  40.812   9.450
 4402POPC   PO416908  34.536  40.759   9.150
 4402POPC   GL116909  34.565  40.760   8.850
 4402POPC   GL216910  34.604  40.936   8.850
 4402POPC   C1A16911  34.573  40.820   8.550
 4402POPC   D2A16912  34.610  40.752   8.250
 4402POPC   C3A16913  34.593  40.789   7.950
 4402POPC   C4A16914  34.542  40.733   7.650
 4402POPC   C1B16915  34.675  41.043   8.550
 4402POPC   C2B16916  34.655  41.020   8.250
 4402POPC   C3B16917  34.673  41.029   7.950
 4402POPC   C4B16918  34.738  40.999   7.650
 4403POPC   NC316919  39.267  24.484   9.450
 4403POPC   PO416920  39.202  24.527   9.150
 4403POPC   GL116921  39.187  24.461   8.850
 4403POPC   GL216922  39.354  24.410   8.850
 4403POPC   C1A16923  39.225  24.463   8.550
 4403POPC   D2A16924  39.220  24.534   8.250
 4403POPC   C3A16925  39.278  24.447   7.950
 4403POPC   C4A16926  39.239  24.520   7.650
 4403POPC   C1B16927  39.413  24.310   8.550
 4403POPC   C2B16928  39.424  24.312   8.250
 4403POPC   C3B16929  39.420  24.375   7.950
 4403POPC   C4B16930  39.472  24.321   7.650
 4404POPC   NC316931  18.304  27.548   9.450
 4404POPC   PO416932  18.255  27.633   9.150
 4404POPC   GL116933  18.244  27.640   8.850
 4404POPC   GL216934  18.377  27.487   8.850
 4404POPC   C1A16935  18.290  27.570   8.550
 4404POPC   D2A16936  18.326  27.603   8.250
 4404POPC   C3A16937  18.265  27.552   7.950
 4404POPC   C4A16938  18.309  27.603   7.650
 4404POPC   C1B16939  18.377  27.343   8.550
 4404POPC   C2B16940  18.435  27.339   8.250
 4404POPC   C3B16941  18.390  27.374   7.950
 4404POPC   C4B16942  18.384  27.387   7.650
 4405POPC   NC316943  33.000  16.684   9.450
 4405POPC   PO416944  33.013  16.719   9.150
 4405POPC   GL116945  33.059  16.781   8.850
 4405POPC   GL216946  33.113  16.792   8.850
 4405POPC   C1A16947  33.058  16.777   8.550
 4405POPC   D2A16948  33.046  16.742   8.250
 4405POPC   C3A16949  32.980  16.766   7.950
 4405POPC   C4A16950  33.029  16.718   7.650
 4405POPC   C1B16951  33.255  16.752   8.550
 4405POPC   C2B16952  33.300  16.773   8.250
 4405POPC   C3B16953  33.303  16.796   7.950
 4405POPC   C4B16954  33.286  16.764   7.650
 4406POPC   NC316955  33.754  28.399   9.450
 4406POPC   PO416956  33.822  28.362   9.150
 4406POPC   GL116957  33.840  28.349   8.850
 4406POPC   GL216958  33.667  28.431   8.850
 4406POPC   C1A16959  33.837  28.417   8.550
 4406POPC   D2A16960  33.814  28.381   8.250
 4406POPC   C3A16961  33.751  28.319   7.950
 4406POPC   C4A16962  33.770  28.385   7.650
 4406POPC   C1B16963  33.585  28.550   8.550
 4406POPC   C2B16964  33.603  28.494   8.250
 4406POPC   C3B16965  33.555  28.484   7.950
 4406POPC   C4B16966  33.617  28.477   7.650
 4407POPC   NC316967  28.379  31.473   9.450
 4407POPC   PO416968  28.327  31.449   9.150
 4407POPC   GL116969  28.352  31.474   8.850
 4407POPC   GL216970  28.442  31.526   8.850
 4407POPC   C1A16971  28.343  31.451   8.550
 4407POPC   D2A16972  28.411  31.505   8.250
 4407POPC   C3A16973  28.331  31.499   7.950
 4407POPC   C4A16974  28.324  31.425   7.650
 4407POPC   C1B16975  28.598  31.640   8.550
 4407POPC   C2B16976  28.585  31.589   8.250
 4407POPC   C3B16977  28.608  31.676   7.950
 4407POPC   C4B16978  28.523  31.673   7.650
 4408POPC   NC316979   9.718  35.383   9.450
 4408POPC   PO416980   9.703  35.332   9.150
 4408POPC   GL116981   9.703  35.333   8.850
 4408POPC   GL216982   9.780  35.490   8.850
 4408POPC   C1A16983   9.723  35.343   8.550
 4408POPC   D2A16984   9.751  35.330   8.250
 4408POPC   C3A16985   9.753  35.316   7.950
 4408POPC   C4A16986   9.718  35.382   7.650
 4408POPC   C1B16987   9.879  35.577   8.550
 4408POPC   C2B16988   9.825  35.581   8.250
 4408POPC   C3B16989   9.792  35.628   7.950
 4408POPC   C4B16990   9.868  35.595   7.650
 4409POPC   NC316991  29.137  11.277   9.450
 4409POPC   PO416992  29.169  11.311   9.150
 4409POPC   GL116993  29.162  11.336   8.850
 4409POPC   GL216994  29.015  11.287   8.850
 4409POPC   C1A16995  29.151  11.297   8.550
 4409POPC   D2A16996  29.100  11.343   8.250
 4409POPC   C3A16997  29.183  11.341   7.950
 4409POPC   C4A16998  29.105  11.296   7.650
 4409POPC   C1B16999  28.905  11.238   8.550
 4409POPC   C2B17000  28.875  11.261   8.250
 4409POPC   C3B17001  28.894  11.261   7.950
 4409POPC   C4B17002  28.867  11.266   7.650
 4410POPC   NC317003  11.345  14.394   9.450
 4410POPC   PO417004  11.272  14.452   9.150
 4410POPC   GL117005  11.320  14.427   8.850
 4410POPC   GL217006  11.298  14.263   8.850
 4410POPC   C1A17007  11.251  14.441   8.550
 4410POPC   D2A17008  11.272  14.436   8.250
 4410POPC   C3A17009  11.295  14.364   7.950
 4410POPC   C4A17010  11.350  14.435   7.650
 4410POPC   C1B17011  11.186  14.218   8.550
 4410POPC   C2B17012  11.214  14.176   8.250
 4410POPC   C3B17013  11.241  14.164   7.950
 4410POPC   C4B17014  11.162  14.161   7.650
 4411POPC   NC317015  26.049  33.027   9.450
 4411POPC   PO417016  26.031  33.046   9.150
 4411POPC   GL117017  26.003  33.007   8.850
 4411POPC   GL217018  26.168  33.070   8.850
 4411POPC   C1A17019  26.008  33.056   8.550
 4411POPC   D2A17020  26.064  33.041   8.250
 4411POPC   C3A17021  26.010  32.977   7.950
 4411POPC   C4A17022  26.008  33.071   7.650
 4411POPC   C1B17023  26.230  33.074   8.550
 4411POPC   C2B17024  26.317  33.130   8.250
 4411POPC   C3B17025  26.226  33.143   7.950
 4411POPC   C4B17026  26.283  33.143   7.650
 4412POPC   NC317027  13.591  12.114   9.450
 4412POPC   PO417028  13.602  12.079   9.150
 4412POPC   GL117029  13.616  12.069   8.850
 4412POPC   GL217030  13.509  12.101   8.850
 4412POPC   C1A17031  13.587  12.050   8.550
 4412POPC   D2A17032  13.625  12.086   8.250
 4412POPC   C3A17033  13.636  12.103   7.950
 4412POPC   C4A17034  13.675  12.111   7.650
 4412POPC   C1B17035  13.395  12.108   8.550
 4412POPC   C2B17036  13.356  12.138   8.250
 4412POPC   C3B17037  13.390  12.105   7.950
 4412POPC   C4B17038  13.349  12.109   7.650
 4413POPC   NC317039  20.610  15.225   9.450
 4413POPC   PO417040  20.633  15.225   9.150
 4413POPC   GL117041  20.568  15.137   8.850
 4413POPC   GL217042  20.481  15.227   8.850
 4413POPC   C1A17043  20.606  15.213   8.550
 4413POPC   D2A17044  20.631  15.179   8.250
 4413POPC   C3A17045  20.595  15.185   7.950
 4413POPC   C4A17046  20.596  15.204   7.650
 4413POPC   C1B17047  20.384  15.233   8.550
 4413POPC   C2B17048  20.345  15.297   8.250
 4413POPC   C3B17049  20.417  15.239   7.950
 4413POPC   C4B17050  20.339  15.278   7.650
 4414POPC   NC317051  32.286  12.845   9.450
 4414POPC   PO417052  32.279  12.862   9.150
 4414POPC   GL117053  32.287  12.805   8.850
 4414POPC   GL217054  32.351  12.846   8.850
 4414POPC   C1A17055  32.256  12.823   8.550
 4414POPC   D2A17056  32.297  12.895   8.250
 4414POPC   C3A17057  32.222  12.845   7.950
 4414POPC   C4A17058  32.292  12.826   7.650
 4414POPC   C1B17059  32.520  12.869   8.550
 4414POPC   C2B17060  32.523  12.894   8.250
 4414POPC   C3B17061  32.539  12.901   7.950
 4414POPC   C4B17062  32.476  12.862   7.650
 4415POPC   NC317063  29.911  40.737   9.450
 4415POPC   PO417064  29.877  40.780   9.150
 4415POPC   GL117065  29.961  40.782   8.850
 4415POPC   GL217066  29.845  40.656   8.850
 4415POPC   C1A17067  29.933  40.744   8.550
 4415POPC   D2A17068  29.893  40.733   8.250
 4415POPC   C3A17069  29.888  40.734   7.950
 4415POPC   C4A17070  29.889  40.812   7.650
 4415POPC   C1B17071  29.799  40.601   8.550
 4415POPC   C2B17072  29.747  40.553   8.250
 4415POPC   C3B17073  29.738  40.611   7.950
 4415POPC   C4B17074  29.808  40.567   7.650
 4416POPC   NC317075  30.667  10.543   9.450
 4416POPC   PO417076  30.676  10.503   9.150
 4416POPC   GL117077  30.699  10.484   8.850
 4416POPC   GL217078  30.733  10.400   8.850
 4416POPC   C1A17079  30.682  10.554   8.550
 4416POPC   D2A17080  30.650  10.542   8.250
 4416POPC   C3A17081  30.710  10.498   7.950
 4416POPC   C4A17082  30.688  10.560   7.650
 4416POPC   C1B17083  30.681  10.265   8.550
 4416POPC   C2B17084  30.634  10.287   8.250
 4416POPC   C3B17085  30.701  10.271   7.950
 4416POPC   C4B17086  30.631  10.230   7.650
 4417POPC   NC317087  25.285  39.227   9.450
 4417POPC   PO417088  25.279  39.196   9.150
 4417POPC   GL117089  25.293  39.246   8.850
 4417POPC   GL217090  25.151  39.181   8.850
 4417POPC   C1A17091  25.315  39.215   8.550
 4417POPC   D2A17092  25.299  39.225   8.250
 4417POPC   C3A17093  25.238  39.277   7.950
 4417POPC   C4A17094  25.221  39.260   7.650
 4417POPC   C1B17095  25.103  39.093   8.550
 4417POPC   C2B17096  25.078  39.090   8.250
 4417POPC   C3B17097  25.035  39.073   7.950
 4417POPC   C4B17098  25.088  39.032   7.650
 4418POPC   NC317099   0.418  12.031   9.450
 4418POPC   PO417100   0.474  12.087   9.150
 4418POPC   GL117101   0.414  12.082   8.850
 4418POPC   GL217102   0.426  11.921   8.850
 4418POPC   C1A17103   0.393  12.092   8.550
 4418POPC   D2A17104   0.389  12.098   8.250
 4418POPC   C3A17105   0.448  12.059   7.950
 4418POPC   C4A17106   0.455  12.061   7.650
 4418POPC   C1B17107   0.435  11.829   8.550
 4418POPC   C2B17108   0.521  11.800   8.250
 4418POPC   C3B17109   0.460  11.820   7.950
 4418POPC   C4B17110   0.463  11.794   7.650
 4419POPC   NC317111  35.332   7.438   9.450
 4419POPC   PO417112  35.323   7.426   9.150
 4419POPC   GL117113  35.397   7.466   8.850
 4419POPC   GL217114  35.364   7.535   8.850
 4419POPC   C1A17115  35.401   7.444   8.550
 4419POPC   D2A17116  35.381   7.441   8.250
 4419POPC   C3A17117  35.358   7.431   7.950
 4419POPC   C4A17118  35.303   7.437   7.650
 4419POPC   C1B17119  35.330   7.639   8.550
 4419POPC   C2B17120  35.288   7.675   8.250
 4419POPC   C3B17121  35.269   7.692   7.950
 4419POPC   C4B17122  35.288   7.638   7.650
 4420POPC   NC317123  11.288  20.594   9.450
 4420POPC   PO417124  11.297  20.656   9.150
 4420POPC   GL117125  11.261  20.638   8.850
 4420POPC   GL217126  11.450  20.696   8.850
 4420POPC   C1A17127  11.307  20.606   8.550
 4420POPC   D2A17128  11.282  20.589   8.250
 4420POPC   C3A17129  11.324  20.605   7.950
 4420POPC   C4A17130  11.294  20.642   7.650
 4420POPC   C1B17131  11.507  20.705   8.550
 4420POPC   C2B17132  11.464  20.748   8.250
 4420POPC   C3B17133  11.559  20.760   7.950
 4420POPC   C4B17134  11.467  20.732   7.650
 4421POPC   NC317135  17.528   2.780   9.450
 4421POPC   PO417136  17.499   2.768   9.150
 4421POPC   GL117137  17.498   2.808   8.850
 4421POPC   GL217138  17.550   2.674   8.850
 4421POPC   C1A17139  17.480   2.719   8.550
 4421POPC   D2A17140  17.522   2.755   8.250
 4421POPC   C3A17141  17.489   2.774   7.950
 4421POPC   C4A17142  17.487   2.728   7.650
 4421POPC   C1B17143  17.539   2.526   8.550
 4421POPC   C2B17144  17.601   2.550   8.250
 4421POPC   C3B17145  17.596   2.545   7.950
 4421POPC   C4B17146  17.551   2.511   7.650
 4422POPC   NC317147  30.736  24.514   9.450
 4422POPC   PO417148  30.689  24.464   9.150
 4422POPC   GL117149  30.736  24.470   8.850
 4422POPC   GL217150  30.679  24.566   8.850
 4422POPC   C1A17151  30.686  24.465   8.550
 4422POPC   D2A17152  30.656  24.481   8.250
 4422POPC   C3A17153  30.670  24.516   7.950
 4422POPC   C4A17154  30.673  24.447   7.650
 4422POPC   C1B17155  30.637  24.755   8.550
 4422POPC   C2B17156  30.599  24.717   8.250
 4422POPC   C3B17157  30.656  24.712   7.950
 4422POPC   C4B17158  30.636  24.688   7.650
 4423POPC   NC317159  31.460  19.808   9.450
 4423POPC   PO417160  31.495  19.804   9.150
 4423POPC   GL117161  31.467  19.799   8.850
 4423POPC   GL217162  31.339  19.873   8.850
 4423POPC   C1A17163  31.440  19.836   8.550
 4423POPC   D2A17164  31.519  19.859   8.250
 4423POPC   C3A17165  31.515  19.867   7.950
 4423POPC   C4A17166  31.502  19.810   7.650
 4423POPC   C1B17167  31.219  19.831   8.550
 4423POPC   C2B17168  31.181  19.878   8.250
 4423POPC   C3B17169  31.228  19.891   7.950
 4423POPC   C4B17170  31.179  19.812   7.650
 4424POPC   NC317171  33.778  43.093   9.450
 4424POPC   PO417172  33.808  43.082   9.150
 4424POPC   GL117173  33.818  43.096   8.850
 4424POPC   GL217174  33.735  43.219   8.850
 4424POPC   C1A17175  33.787  43.100   8.550
 4424POPC   D2A17176  33.849  43.120   8.250
 4424POPC   C3A17177  33.818  43.120   7.950
 4424POPC   C4A17178  33.827  43.103   7.650
 4424POPC   C1B17179  33.601  43.219   8.550
 4424POPC   C2B17180  33.596  43.223   8.250
 4424POPC   C3B17181  33.636  43.245   7.950
 4424POPC   C4B17182  33.573  43.256   7.650
 4425POPC   NC317183  29.098  26.865   9.450
 4425POPC   PO417184  29.192  26.781   9.150
 4425POPC   GL117185  29.146  26.863   8.850
 4425POPC   GL217186  29.113  26.743   8.850
 4425POPC   C1A17187  29.169  26.839   8.550
 4425POPC   D2A17188  29.101  26.841   8.250
 4425POPC   C3A17189  29.157  26.804   7.950
 4425POPC   C4A17190  29.120  26.837   7.650
 4425POPC   C1B17191  29.047  26.626   8.550
 4425POPC   C2B17192  28.989  26.579   8.250
 4425POPC   C3B17193  28.972  26.569   7.950
 4425POPC   C4B17194  28.990  26.609   7.650
 4426POPC   NC317195  24.455  26.047   9.450
 4426POPC   PO417196  24.509  26.063   9.150
 4426POPC   GL117197  24.530  25.994   8.850
 4426POPC   GL217198  24.568  26.091   8.850
 4426POPC   C1A17199  24.516  26.010   8.550
 4426POPC   D2A17200  24.496  26.051   8.250
 4426POPC   C3A17201  24.537  25.995   7.950
 4426POPC   C4A17202  24.480  26.043   7.650
 4426POPC   C1B17203  24.696  26.145   8.550
 4426POPC   C2B17204  24.733  26.117   8.250
 4426POPC   C3B17205  24.694  26.143   7.950
 4426POPC   C4B17206  24.711  26.113   7.650
 4427POPC   NC317207  42.292  21.432   9.450
 4427POPC   PO417208  42.289  21.415   9.150
 4427POPC   GL117209  42.300  21.374   8.850
 4427POPC   GL217210  42.197  21.364   8.850
 4427POPC   C1A17211  42.351  21.354   8.550
 4427POPC   D2A17212  42.367  21.376   8.250
 4427POPC   C3A17213  42.310  21.359   7.950
 4427POPC   C4A17214  42.360  21.364   7.650
 4427POPC   C1B17215  42.158  21.288   8.550
 4427POPC   C2B17216  42.103  21.288   8.250
 4427POPC   C3B17217  42.170  21.210   7.950
 4427POPC   C4B17218  42.105  21.243   7.650
 4428POPC   NC317219   5.835  21.336   9.450
 4428POPC   PO417220   5.899  21.366   9.150
 4428POPC   GL117221   5.839  21.386   8.850
 4428POPC   GL217222   5.841  21.484   8.850
 4428POPC   C1A17223   5.833  21.381   8.550
 4428POPC   D2A17224   5.852  21.418   8.250
 4428POPC   C3A17225   5.894  21.354   7.950
 4428POPC   C4A17226   5.821  21.398   7.650
 4428POPC   C1B17227   5.680  21.584   8.550
 4428POPC   C2B17228   5.694  21.593   8.250
 4428POPC   C3B17229   5.701  21.621   7.950
 4428POPC   C4B17230   5.691  21.620   7.650
 4429POPC   NC317231   1.247  20.631   9.450
 4429POPC   PO417232   1.196  20.655   9.150
 4429POPC   GL117233   1.240  20.613   8.850
 4429POPC   GL217234   1.097  20.550   8.850
 4429POPC   C1A17235   1.198  20.581   8.550
 4429POPC   D2A17236   1.233  20.598   8.250
 4429POPC   C3A17237   1.194  20.601   7.950
 4429POPC   C4A17238   1.226  20.641   7.650
 4429POPC   C1B17239   0.942  20.533   8.550
 4429POPC   C2B17240   1.001  20.532   8.250
 4429POPC   C3B17241   0.958  20.595   7.950
 4429POPC   C4B17242   0.927  20.586   7.650
 4430POPC   NC317243   2.793  25.264   9.450
 4430POPC   PO417244   2.727  25.293   9.150
 4430POPC   GL117245   2.811  25.248   8.850
 4430POPC   GL217246   2.771  25.350   8.850
 4430POPC   C1A17247   2.795  25.251   8.550
 4430POPC   D2A17248   2.796  25.248   8.250
 4430POPC   C3A17249   2.735  25.241   7.950
 4430POPC   C4A17250   2.795  25.306   7.650
 4430POPC   C1B17251   2.913  25.476   8.550
 4430POPC   C2B17252   2.835  25.453   8.250
 4430POPC   C3B17253   2.907  25.534   7.950
 4430POPC   C4B17254   2.830  25.539   7.650
 4431POPC   NC317255  19.847   5.823   9.450
 4431POPC   PO417256  19.850   5.843   9.150
 4431POPC   GL117257  19.837   5.832   8.850
 4431POPC   GL217258  19.809   5.716   8.850
 4431POPC   C1A17259  19.875   5.867   8.550
 4431POPC   D2A17260  19.827   5.831   8.250
 4431POPC   C3A17261  19.837   5.868   7.950
 4431POPC   C4A17262  19.844   5.863   7.650
 4431POPC   C1B17263  19.898   5.616   8.550
 4431POPC   C2B17264  19.902   5.632   8.250
 4431POPC   C3B17265  19.899   5.659   7.950
 4431POPC   C4B17266  19.876   5.667   7.650
 4432POPC   NC317267  43.878  32.295   9.450
 4432POPC   PO417268  43.842  32.276   9.150
 4432POPC   GL117269  43.837  32.269   8.850
 4432POPC   GL217270  43.948  32.163   8.850
 4432POPC   C1A17271  43.870  32.249   8.550
 4432POPC   D2A17272  43.855  32.282   8.250
 4432POPC   C3A17273  43.851  32.245   7.950
 4432POPC   C4A17274  43.929  32.274   7.650
 4432POPC   C1B17275  44.069  32.109   8.550
 4432POPC   C2B17276  44.088  32.055   8.250
 4432POPC   C3B17277  44.077  32.038   7.950
 4432POPC   C4B17278  44.026  32.107   7.650
 4433POPC   NC317279  38.451  36.082   9.450
 4433POPC   PO417280  38.502  36.163   9.150
 4433POPC   GL117281  38.416  36.140   8.850
 4433POPC   GL217282  38.588  36.251   8.850
 4433POPC   C1A17283  38.422  36.104   8.550
 4433POPC   D2A17284  38.406  36.147   8.250
 4433POPC   C3A17285  38.497  36.171   7.950
 4433POPC   C4A17286  38.430  36.118   7.650
 4433POPC   C1B17287  38.631  36.257   8.550
 4433POPC   C2B17288  38.649  36.274   8.250
 4433POPC   C3B17289  38.607  36.328   7.950
 4433POPC   C4B17290  38.659  36.265   7.650
 4434POPC   NC317291  19.809  32.275   9.450
 4434POPC   PO417292  19.853  32.232   9.150
 4434POPC   GL117293  19.787  32.212   8.850
 4434POPC   GL217294  19.918  32.122   8.850
 4434POPC   C1A17295  19.818  32.258   8.550
 4434POPC   D2A17296  19.792  32.271   8.250
 4434POPC   C3A17297  19.807  32.263   7.950
 4434POPC   C4A17298  19.879  32.255   7.650
 4434POPC   C1B17299  19.982  32.054   8.550
 4434POPC   C2B17300  19.976  32.103   8.250
 4434POPC   C3B17301  20.043  32.094   7.950
 4434POPC   C4B17302  19.971  32.051   7.650
 4435POPC   NC317303  24.512  43.073   9.450
 4435POPC   PO417304  24.497  43.130   9.150
 4435POPC   GL117305  24.528  43.133   8.850
 4435POPC   GL217306  24.410  43.166   8.850
 4435POPC   C1A17307  24.531  43.123   8.550
 4435POPC   D2A17308  24.530  43.062   8.250
 4435POPC   C3A17309  24.455  43.077   7.950
 4435POPC   C4A17310  24.497  43.062   7.650
 4435POPC   C1B17311  24.253  43.282   8.550
 4435POPC   C2B17312  24.294  43.213   8.250
 4435POPC   C3B17313  24.306  43.256   7.950
 4435POPC   C4B17314  24.270  43.209   7.650
 4436POPC   NC317315  35.346  10.502   9.450
 4436POPC   PO417316  35.348  10.497   9.150
 4436POPC   GL117317  35.382  10.488   8.850
 4436POPC   GL217318  35.374  10.437   8.850
 4436POPC   C1A17319  35.393  10.495   8.550
 4436POPC   D2A17320  35.333  10.483   8.250
 4436POPC   C3A17321  35.345  10.485   7.950
 4436POPC   C4A17322  35.331  10.491   7.650
 4436POPC   C1B17323  35.430  10.246   8.550
 4436POPC   C2B17324  35.432  10.305   8.250
 4436POPC   C3B17325  35.411  10.277   7.950
 4436POPC   C4B17326  35.490  10.267   7.650
 4437POPC   NC317327  41.515  34.608   9.450
 4437POPC   PO417328  41.605  34.552   9.150
 4437POPC   GL117329  41.598  34.534   8.850
 4437POPC   GL217330  41.506  34.503   8.850
 4437POPC   C1A17331  41.551  34.577   8.550
 4437POPC   D2A17332  41.542  34.595   8.250
 4437POPC   C3A17333  41.531  34.576   7.950
 4437POPC   C4A17334  41.560  34.605   7.650
 4437POPC   C1B17335  41.314  34.415   8.550
 4437POPC   C2B17336  41.365  34.444   8.250
 4437POPC   C3B17337  41.325  34.395   7.950
 4437POPC   C4B17338  41.312  34.380   7.650
 4438POPC   NC317339  42.312  13.641   9.450
 4438POPC   PO417340  42.292  13.658   9.150
 4438POPC   GL117341  42.326  13.588   8.850
 4438POPC   GL217342  42.335  13.706   8.850
 4438POPC   C1A17343  42.316  13.589   8.550
 4438POPC   D2A17344  42.367  13.664   8.250
 4438POPC   C3A17345  42.308  13.631   7.950
 4438POPC   C4A17346  42.304  13.595   7.650
 4438POPC   C1B17347  42.265  13.842   8.550
 4438POPC   C2B17348  42.286  13.827   8.250
 4438POPC   C3B17349  42.261  13.908   7.950
 4438POPC   C4B17350  42.269  13.822   7.650
 4439POPC   NC317351  43.152  33.828   9.450
 4439POPC   PO417352  43.138  33.755   9.150
 4439POPC   GL117353  43.146  33.839   8.850
 4439POPC   GL217354  43.253  33.715   8.850
 4439POPC   C1A17355  43.112  33.768   8.550
 4439POPC   D2A17356  43.107  33.764   8.250
 4439POPC   C3A17357  43.100  33.797   7.950
 4439POPC   C4A17358  43.076  33.823   7.650
 4439POPC   C1B17359  43.255  33.621   8.550
 4439POPC   C2B17360  43.273  33.678   8.250
 4439POPC   C3B17361  43.273  33.599   7.950
 4439POPC   C4B17362  43.254  33.621   7.650
 4440POPC   NC317363  40.789   2.003   9.450
 4440POPC   PO417364  40.815   1.942   9.150
 4440POPC   GL117365  40.812   2.026   8.850
 4440POPC   GL217366  40.869   2.036   8.850
 4440POPC   C1A17367  40.820   2.017   8.550
 4440POPC   D2A17368  40.828   1.959   8.250
 4440POPC   C3A17369  40.799   2.036   7.950
 4440POPC   C4A17370  40.827   1.966   7.650
 4440POPC   C1B17371  41.015   2.021   8.550
 4440POPC   C2B17372  40.985   2.016   8.250
 4440POPC   C3B17373  41.016   2.030   7.950
 4440POPC   C4B17374  41.014   1.984   7.650
 4441POPC   NC317375  27.576  17.496   9.450
 4441POPC   PO417376  27.621  17.517   9.150
 4441POPC   GL117377  27.570  17.499   8.850
 4441POPC   GL217378  27.589  17.652   8.850
 4441POPC   C1A17379  27.628  17.523   8.550
 4441POPC   D2A17380  27.571  17.530   8.250
 4441POPC   C3A17381  27.579  17.529   7.950
 4441POPC   C4A17382  27.580  17.483   7.650
 4441POPC   C1B17383  27.621  17.774   8.550
 4441POPC   C2B17384  27.577  17.761   8.250
 4441POPC   C3B17385  27.584  17.720   7.950
 4441POPC   C4B17386  27.568  17.788   7.650
 4442POPC   NC317387  43.854  36.902   9.450
 4442POPC   PO417388  43.910  36.920   9.150
 4442POPC   GL117389  43.892  36.916   8.850
 4442POPC   GL217390  43.900  37.070   8.850
 4442POPC   C1A17391  43.909  36.900   8.550
 4442POPC   D2A17392  43.870  36.945   8.250
 4442POPC   C3A17393  43.879  36.934   7.950
 4442POPC   C4A17394  43.874  36.858   7.650
 4442POPC   C1B17395  43.892  37.145   8.550
 4442POPC   C2B17396  43.860  37.110   8.250
 4442POPC   C3B17397  43.837  37.169   7.950
 4442POPC   C4B17398  43.905  37.160   7.650
 4443POPC   NC317399  32.994  44.672   9.450
 4443POPC   PO417400  33.043  44.628   9.150
 4443POPC   GL117401  33.008  44.676   8.850
 4443POPC   GL217402  32.885  44.619   8.850
 4443POPC   C1A17403  33.059  44.634   8.550
 4443POPC   D2A17404  33.032  44.696   8.250
 4443POPC   C3A17405  32.999  44.667   7.950
 4443POPC   C4A17406  32.987  44.634   7.650
 4443POPC   C1B17407  32.727  44.680   8.550
 4443POPC   C2B17408  32.820  44.601   8.250
 4443POPC   C3B17409  32.785  44.615   7.950
 4443POPC   C4B17410  32.793  44.609   7.650
 4444POPC   NC317411  43.070  13.638   9.450
 4444POPC   PO417412  43.096  13.610   9.150
 4444POPC   GL117413  43.108  13.582   8.850
 4444POPC   GL217414  42.939  13.671   8.850
 4444POPC   C1A17415  43.142  13.609   8.550
 4444POPC   D2A17416  43.099  13.637   8.250
 4444POPC   C3A17417  43.139  13.650   7.950
 4444POPC   C4A17418  43.071  13.578   7.650
 4444POPC   C1B17419  42.845  13.617   8.550
 4444POPC   C2B17420  42.826  13.656   8.250
 4444POPC   C3B17421  42.869  13.682   7.950
 4444POPC   C4B17422  42.862  13.679   7.650
 4445POPC   NC317423  20.598  29.874   9.450
 4445POPC   PO417424  20.590  29.898   9.150
 4445POPC   GL117425  20.606  29.931   8.850
 4445POPC   GL217426  20.541  29.993   8.850
 4445POPC   C1A17427  20.589  29.915   8.550
 4445POPC   D2A17428  20.621  29.880   8.250
 4445POPC   C3A17429  20.583  29.873   7.950
 4445POPC   C4A17430  20.635  29.878   7.650
 4445POPC   C1B17431  20.350  30.015   8.550
 4445POPC   C2B17432  20.373  30.029   8.250
 4445POPC   C3B17433  20.332  30.013   7.950
 4445POPC   C4B17434  20.370  29.979   7.650
 4446POPC   NC317435  30.701  26.004   9.450
 4446POPC   PO417436  30.695  26.068   9.150
 4446POPC   GL117437  30.669  26.072   8.850
 4446POPC   GL217438  30.614  26.135   8.850
 4446POPC   C1A17439  30.661  26.015   8.550
 4446POPC   D2A17440  30.700  26.017   8.250
 4446POPC   C3A17441  30.660  26.026   7.950
 4446POPC   C4A17442  30.745  26.027   7.650
 4446POPC   C1B17443  30.528  26.180   8.550
 4446POPC   C2B17444  30.501  26.139   8.250
 4446POPC   C3B17445  30.498  26.224   7.950
 4446POPC   C4B17446  30.473  26.153   7.650
 4447POPC   NC317447  24.505  19.092   9.450
 4447POPC   PO417448  24.530  19.039   9.150
 4447POPC   GL117449  24.446  19.071   8.850
 4447POPC   GL217450  24.577  19.131   8.850
 4447POPC   C1A17451  24.517  19.021   8.550
 4447POPC   D2A17452  24.519  19.100   8.250
 4447POPC   C3A17453  24.447  19.094   7.950
 4447POPC   C4A17454  24.493  19.055   7.650
 4447POPC   C1B17455  24.761  19.125   8.550
 4447POPC   C2B17456  24.694  19.091   8.250
 4447POPC   C3B17457  24.755  19.092   7.950
 4447POPC   C4B17458  24.724  19.164   7.650
 4448POPC   NC317459   8.202  34.560   9.450
 4448POPC   PO417460   8.213  34.574   9.150
 4448POPC   GL117461   8.244  34.598   8.850
 4448POPC   GL217462   8.165  34.662   8.850
 4448POPC   C1A17463   8.154  34.540   8.550
 4448POPC   D2A17464   8.237  34.536   8.250
 4448POPC   C3A17465   8.170  34.537   7.950
 4448POPC   C4A17466   8.203  34.570   7.650
 4448POPC   C1B17467   8.176  34.872   8.550
 4448POPC   C2B17468   8.203  34.819   8.250
 4448POPC   C3B17469   8.141  34.869   7.950
 4448POPC   C4B17470   8.160  34.821   7.650
 4449POPC   NC317471  15.159  36.151   9.450
 4449POPC   PO417472  15.217  36.119   9.150
 4449POPC   GL117473  15.189  36.097   8.850
 4449POPC   GL217474  15.101  36.116   8.850
 4449POPC   C1A17475  15.205  36.090   8.550
 4449POPC   D2A17476  15.130  36.143   8.250
 4449POPC   C3A17477  15.181  36.098   7.950
 4449POPC   C4A17478  15.175  36.169   7.650
 4449POPC   C1B17479  14.988  36.171   8.550
 4449POPC   C2B17480  14.949  36.171   8.250
 4449POPC   C3B17481  14.919  36.223   7.950
 4449POPC   C4B17482  14.921  36.201   7.650
 4450POPC   NC317483   0.480   3.502   9.450
 4450POPC   PO417484   0.391   3.494   9.150
 4450POPC   GL117485   0.395   3.543   8.850
 4450POPC   GL217486   0.510   3.417   8.850
 4450POPC   C1A17487   0.451   3.568   8.550
 4450POPC   D2A17488   0.447   3.551   8.250
 4450POPC   C3A17489   0.430   3.496   7.950
 4450POPC   C4A17490   0.389   3.578   7.650
 4450POPC   C1B17491   0.571   3.397   8.550
 4450POPC   C2B17492   0.625   3.330   8.250
 4450POPC   C3B17493   0.608   3.316   7.950
 4450POPC   C4B17494   0.621   3.402   7.650
 4451POPC   NC317495  27.623  29.877   9.450
 4451POPC   PO417496  27.641  29.933   9.150
 4451POPC   GL117497  27.597  29.942   8.850
 4451POPC   GL217498  27.600  29.988   8.850
 4451POPC   C1A17499  27.553  29.964   8.550
 4451POPC   D2A17500  27.548  29.872   8.250
 4451POPC   C3A17501  27.571  29.919   7.950
 4451POPC   C4A17502  27.577  29.970   7.650
 4451POPC   C1B17503  27.715  30.152   8.550
 4451POPC   C2B17504  27.714  30.171   8.250
 4451POPC   C3B17505  27.726  30.133   7.950
 4451POPC   C4B17506  27.736  30.109   7.650
 4452POPC   NC317507   1.984  29.964   9.450
 4452POPC   PO417508   2.030  29.905   9.150
 4452POPC   GL117509   1.972  29.889   8.850
 4452POPC   GL217510   2.098  29.905   8.850
 4452POPC   C1A17511   2.000  29.912   8.550
 4452POPC   D2A17512   2.000  29.922   8.250
 4452POPC   C3A17513   2.021  29.937   7.950
 4452POPC   C4A17514   2.010  29.892   7.650
 4452POPC   C1B17515   2.243  30.019   8.550
 4452POPC   C2B17516   2.237  29.951   8.250
 4452POPC   C3B17517   2.189  29.933   7.950
 4452POPC   C4B17518   2.268  29.947   7.650
 4453POPC   NC317519  42.357  17.508   9.450
 4453POPC   PO417520  42.322  17.473   9.150
 4453POPC   GL117521  42.333  17.518   8.850
 4453POPC   GL217522  42.379  17.448   8.850
 4453POPC   C1A17523  42.368  17.490   8.550
 4453POPC   D2A17524  42.326  17.525   8.250
 4453POPC   C3A17525  42.318  17.520   7.950
 4453POPC   C4A17526  42.343  17.463   7.650
 4453POPC   C1B17527  42.441  17.321   8.550
 4453POPC   C2B17528  42.432  17.264   8.250
 4453POPC   C3B17529  42.517  17.302   7.950
 4453POPC   C4B17530  42.454  17.300   7.650
 4454POPC   NC317531  30.741   4.280   9.450
 4454POPC   PO417532  30.709   4.275   9.150
 4454POPC   GL117533  30.700   4.295   8.850
 4454POPC   GL217534  30.758   4.404   8.850
 4454POPC   C1A17535  30.663   4.348   8.550
 4454POPC   D2A17536  30.745   4.316   8.250
 4454POPC   C3A17537  30.653   4.331   7.950
 4454POPC   C4A17538  30.680   4.329   7.650
 4454POPC   C1B17539  30.942   4.458   8.550
 4454POPC   C2B17540  30.907   4.453   8.250
 4454POPC   C3B17541  30.872   4.435   7.950
 4454POPC   C4B17542  30.848   4.499   7.650
 4455POPC   NC317543  26.845   1.165   9.450
 4455POPC   PO417544  26.801   1.250   9.150
 4455POPC   GL117545  26.819   1.210   8.850
 4455POPC   GL217546  26.712   1.168   8.850
 4455POPC   C1A17547  26.789   1.211   8.550
 4455POPC   D2A17548  26.775   1.168   8.250
 4455POPC   C3A17549  26.779   1.255   7.950
 4455POPC   C4A17550  26.775   1.188   7.650
 4455POPC   C1B17551  26.588   1.227   8.550
 4455POPC   C2B17552  26.578   1.254   8.250
 4455POPC   C3B17553  26.581   1.164   7.950
 4455POPC   C4B17554  26.554   1.247   7.650
 4456POPC   NC317555  43.128  12.076   9.450
 4456POPC   PO417556  43.064  12.067   9.150
 4456POPC   GL117557  43.078  12.123   8.850
 4456POPC   GL217558  42.980  12.040   8.850
 4456POPC   C1A17559  43.133  12.055   8.550
 4456POPC   D2A17560  43.111  12.079   8.250
 4456POPC   C3A17561  43.079  12.056   7.950
 4456POPC   C4A17562  43.122  12.045   7.650
 4456POPC   C1B17563  42.896  11.962   8.550
 4456POPC   C2B17564  42.914  11.945   8.250
 4456POPC   C3B17565  42.880  11.946   7.950
 4456POPC   C4B17566  42.925  11.900   7.650
 4457POPC   NC317567   0.457  28.377   9.450
 4457POPC   PO417568   0.429  28.335   9.150
 4457POPC   GL117569   0.423  28.346   8.850
 4457POPC   GL217570   0.277  28.436   8.850
 4457POPC   C1A17571   0.468  28.347   8.550
 4457POPC   D2A17572   0.482  28.326   8.250
 4457POPC   C3A17573   0.397  28.341   7.950
 4457POPC   C4A17574   0.416  28.334   7.650
 4457POPC   C1B17575   0.238  28.452   8.550
 4457POPC   C2B17576   0.232  28.465   8.250
 4457POPC   C3B17577   0.205  28.416   7.950
 4457POPC   C4B17578   0.222  28.460   7.650
 4458POPC   NC317579  33.001   6.654   9.450
 4458POPC   PO417580  33.020   6.613   9.150
 4458POPC   GL117581  32.987   6.632   8.850
 4458POPC   GL217582  33.159   6.577   8.850
 4458POPC   C1A17583  32.975   6.677   8.550
 4458POPC   D2A17584  32.998   6.641   8.250
 4458POPC   C3A17585  33.069   6.682   7.950
 4458POPC   C4A17586  33.024   6.613   7.650
 4458POPC   C1B17587  33.236   6.452   8.550
 4458POPC   C2B17588  33.220   6.458   8.250
 4458POPC   C3B17589  33.219   6.510   7.950
 4458POPC   C4B17590  33.251   6.503   7.650
 4459POPC   NC317591  19.040  23.671   9.450
 4459POPC   PO417592  19.052  23.752   9.150
 4459POPC   GL117593  19.049  23.697   8.850
 4459POPC   GL217594  19.212  23.759   8.850
 4459POPC   C1A17595  19.076  23.749   8.550
 4459POPC   D2A17596  19.102  23.754   8.250
 4459POPC   C3A17597  19.024  23.671   7.950
 4459POPC   C4A17598  19.034  23.747   7.650
 4459POPC   C1B17599  19.225  23.873   8.550
 4459POPC   C2B17600  19.278  23.817   8.250
 4459POPC   C3B17601  19.275  23.828   7.950
 4459POPC   C4B17602  19.282  23.875   7.650
 4460POPC   NC317603  17.460  32.217   9.450
 4460POPC   PO417604  17.474  32.215   9.150
 4460POPC   GL117605  17.475  32.211   8.850
 4460POPC   GL217606  17.532  32.380   8.850
 4460POPC   C1A17607  17.459  32.215   8.550
 4460POPC   D2A17608  17.536  32.245   8.250
 4460POPC   C3A17609  17.487  32.217   7.950
 4460POPC   C4A17610  17.535  32.234   7.650
 4460POPC   C1B17611  17.613  32.514   8.550
 4460POPC   C2B17612  17.613  32.454   8.250
 4460POPC   C3B17613  17.592  32.440   7.950
 4460POPC   C4B17614  17.593  32.439   7.650
 4461POPC   NC317615   8.944  13.658   9.450
 4461POPC   PO417616   9.003  13.593   9.150
 4461POPC   GL117617   8.931  13.623   8.850
 4461POPC   GL217618   9.024  13.743   8.850
 4461POPC   C1A17619   8.926  13.646   8.550
 4461POPC   D2A17620   8.965  13.594   8.250
 4461POPC   C3A17621   8.935  13.578   7.950
 4461POPC   C4A17622   8.939  13.648   7.650
 4461POPC   C1B17623   9.177  13.806   8.550
 4461POPC   C2B17624   9.162  13.827   8.250
 4461POPC   C3B17625   9.170  13.814   7.950
 4461POPC   C4B17626   9.116  13.801   7.650
 4462POPC   NC317627  25.287  25.287   9.450
 4462POPC   PO417628  25.233  25.279   9.150
 4462POPC   GL117629  25.298  25.295   8.850
 4462POPC   GL217630  25.408  25.331   8.850
 4462POPC   C1A17631  25.274  25.221   8.550
 4462POPC   D2A17632  25.224  25.243   8.250
 4462POPC   C3A17633  25.248  25.301   7.950
 4462POPC   C4A17634  25.240  25.245   7.650
 4462POPC   C1B17635  25.516  25.327   8.550
 4462POPC   C2B17636  25.520  25.337   8.250
 4462POPC   C3B17637  25.453  25.356   7.950
 4462POPC   C4B17638  25.497  25.406   7.650
 4463POPC   NC317639  29.135   7.426   9.450
 4463POPC   PO417640  29.097   7.437   9.150
 4463POPC   GL117641  29.123   7.374   8.850
 4463POPC   GL217642  29.231   7.417   8.850
 4463POPC   C1A17643  29.117   7.426   8.550
 4463POPC   D2A17644  29.150   7.373   8.250
 4463POPC   C3A17645  29.192   7.377   7.950
 4463POPC   C4A17646  29.164   7.391   7.650
 4463POPC   C1B17647  29.347   7.557   8.550
 4463POPC   C2B17648  29.384   7.552   8.250
 4463POPC   C3B17649  29.333   7.553   7.950
 4463POPC   C4B17650  29.365   7.550   7.650
 4464POPC   NC317651   2.735  12.067   9.450
 4464POPC   PO417652   2.761  12.089   9.150
 4464POPC   GL117653   2.798  12.110   8.850
 4464POPC   GL217654   2.866  11.967   8.850
 4464POPC   C1A17655   2.736  12.125   8.550
 4464POPC   D2A17656   2.765  12.109   8.250
 4464POPC   C3A17657   2.753  12.049   7.950
 4464POPC   C4A17658   2.725  12.073   7.650
 4464POPC   C1B17659   2.963  11.890   8.550
 4464POPC   C2B17660   2.966  11.915   8.250
 4464POPC   C3B17661   2.948  11.894   7.950
 4464POPC   C4B17662   3.008  11.958   7.650
 4465POPC   NC317663  11.318  32.262   9.450
 4465POPC   PO417664  11.251  32.260   9.150
 4465POPC   GL117665  11.279  32.200   8.850
 4465POPC   GL217666  11.339  32.142   8.850
 4465POPC   C1A17667  11.332  32.247   8.550
 4465POPC   D2A17668  11.330  32.233   8.250
 4465POPC   C3A17669  11.258  32.278   7.950
 4465POPC   C4A17670  11.275  32.269   7.650
 4465POPC   C1B17671  11.334  32.005   8.550
 4465POPC   C2B17672  11.361  32.007   8.250
 4465POPC   C3B17673  11.336  31.989   7.950
 4465POPC   C4B17674  11.394  32.030   7.650
 4466POPC   NC317675  17.542  29.928   9.450
 4466POPC   PO417676  17.507  29.928   9.150
 4466POPC   GL117677  17.551  29.881   8.850
 4466POPC   GL217678  17.381  29.970   8.850
 4466POPC   C1A17679  17.486  29.963   8.550
 4466POPC   D2A17680  17.546  29.905   8.250
 4466POPC   C3A17681  17.553  29.937   7.950
 4466POPC   C4A17682  17.514  29.903   7.650
 4466POPC   C1B17683  17.220  29.947   8.550
 4466POPC   C2B17684  17.235  29.952   8.250
 4466POPC   C3B17685  17.253  29.945   7.950
 4466POPC   C4B17686  17.271  29.975   7.650
 4467POPC   NC317687  17.509  13.590   9.450
 4467POPC   PO417688  17.512  13.662   9.150
 4467POPC   GL117689  17.507  13.593   8.850
 4467POPC   GL217690  17.355  13.623   8.850
 4467POPC   C1A17691  17.529  13.624   8.550
 4467POPC   D2A17692  17.511  13.677   8.250
 4467POPC   C3A17693  17.504  13.660   7.950
 4467POPC   C4A17694  17.501  13.644   7.650
 4467POPC   C1B17695  17.238  13.707   8.550
 4467POPC   C2B17696  17.297  13.724   8.250
 4467POPC   C3B17697  17.307  13.691   7.950
 4467POPC   C4B17698  17.271  13.716   7.650
 4468POPC   NC317699  20.604  22.207   9.450
 4468POPC   PO417700  20.584  22.124   9.150
 4468POPC   GL117701  20.596  22.169   8.850
 4468POPC   GL217702  20.656  22.041   8.850
 4468POPC   C1A17703  20.624  22.180   8.550
 4468POPC   D2A17704  20.572  22.151   8.250
 4468POPC   C3A17705  20.623  22.139   7.950
 4468POPC   C4A17706  20.582  22.129   7.650
 4468POPC   C1B17707  20.788  21.952   8.550
 4468POPC   C2B17708  20.824  22.021   8.250
 4468POPC   C3B17709  20.845  21.954   7.950
 4468POPC   C4B17710  20.814  22.016   7.650
 4469POPC   NC317711  35.349  18.301   9.450
 4469POPC   PO417712  35.333  18.311   9.150
 4469POPC   GL117713  35.381  18.289   8.850
 4469POPC   GL217714  35.273  18.421   8.850
 4469POPC   C1A17715  35.383  18.310   8.550
 4469POPC   D2A17716  35.315  18.262   8.250
 4469POPC   C3A17717  35.349  18.301   7.950
 4469POPC   C4A17718  35.353  18.262   7.650
 4469POPC   C1B17719  35.235  18.448   8.550
 4469POPC   C2B17720  35.168  18.526   8.250
 4469POPC   C3B17721  35.158  18.473   7.950
 4469POPC   C4B17722  35.216  18.531   7.650
 4470POPC   NC317723  25.998  12.089   9.450
 4470POPC   PO417724  26.010  12.048   9.150
 4470POPC   GL117725  26.030  12.042   8.850
 4470POPC   GL217726  26.146  11.970   8.850
 4470POPC   C1A17727  26.000  12.122   8.550
 4470POPC   D2A17728  26.046  12.103   8.250
 4470POPC   C3A17729  26.045  12.097   7.950
 4470POPC   C4A17730  26.004  12.028   7.650
 4470POPC   C1B17731  26.122  11.894   8.550
 4470POPC   C2B17732  26.187  11.903   8.250
 4470POPC   C3B17733  26.220  11.820   7.950
 4470POPC   C4B17734  26.211  11.824   7.650
 4471POPC   NC317735  11.305  10.523   9.450
 4471POPC   PO417736  11.298  10.520   9.150
 4471POPC   GL117737  11.301  10.487   8.850
 4471POPC   GL217738  11.312  10.595   8.850
 4471POPC   C1A17739  11.326  10.549   8.550
 4471POPC   D2A17740  11.281  10.502   8.250
 4471POPC   C3A17741  11.267  10.491   7.950
 4471POPC   C4A17742  11.325  10.512   7.650
 4471POPC   C1B17743  11.212  10.718   8.550
 4471POPC   C2B17744  11.206  10.789   8.250
 4471POPC   C3B17745  11.250  10.724   7.950
 4471POPC   C4B17746  11.218  10.774   7.650
 4472POPC   NC317747  35.324  19.058   9.450
 4472POPC   PO417748  35.347  19.060   9.150
 4472POPC   GL117749  35.326  19.080   8.850
 4472POPC   GL217750  35.397  18.941   8.850
 4472POPC   C1A17751  35.304  19.072   8.550
 4472POPC   D2A17752  35.340  19.070   8.250
 4472POPC   C3A17753  35.344  19.065   7.950
 4472POPC   C4A17754  35.340  19.024   7.650
 4472POPC   C1B17755  35.564  18.917   8.550
 4472POPC   C2B17756  35.548  18.851   8.250
 4472POPC   C3B17757  35.516  18.914   7.950
 4472POPC   C4B17758  35.488  18.925   7.650
 4473POPC   NC317759   5.091  21.420   9.450
 4473POPC   PO417760   5.138  21.409   9.150
 4473POPC   GL117761   5.095  21.339   8.850
 4473POPC   GL217762   5.021  21.379   8.850
 4473POPC   C1A17763   5.044  21.341   8.550
 4473POPC   D2A17764   5.053  21.359   8.250
 4473POPC   C3A17765   5.045  21.429   7.950
 4473POPC   C4A17766   5.067  21.352   7.650
 4473POPC   C1B17767   4.898  21.345   8.550
 4473POPC   C2B17768   4.876  21.350   8.250
 4473POPC   C3B17769   4.805  21.280   7.950
 4473POPC   C4B17770   4.870  21.364   7.650
 4474POPC   NC317771   6.644  42.346   9.450
 4474POPC   PO417772   6.636  42.318   9.150
 4474POPC   GL117773   6.611  42.319   8.850
 4474POPC   GL217774   6.750  42.259   8.850
 4474POPC   C1A17775   6.633  42.370   8.550
 4474POPC   D2A17776   6.596  42.373   8.250
 4474POPC   C3A17777   6.595  42.382   7.950
 4474POPC   C4A17778   6.608  42.297   7.650
 4474POPC   C1B17779   6.800  42.161   8.550
 4474POPC   C2B17780   6.835  42.146   8.250
 4474POPC   C3B17781   6.834  42.129   7.950
 4474POPC   C4B17782   6.802  42.189   7.650
 4475POPC   NC317783  39.963   9.747   9.450
 4475POPC   PO417784  39.995   9.759   9.150
 4475POPC   GL117785  40.020   9.740   8.850
 4475POPC   GL217786  40.113   9.841   8.850
 4475POPC   C1A17787  39.961   9.702   8.550
 4475POPC   D2A17788  39.971   9.714   8.250
 4475POPC   C3A17789  39.984   9.725   7.950
 4475POPC   C4A17790  40.019   9.729   7.650
 4475POPC   C1B17791  40.133   9.955   8.550
 4475POPC   C2B17792  40.162   9.910   8.250
 4475POPC   C3B17793  40.103   9.955   7.950
 4475POPC   C4B17794  40.156   9.911   7.650
 4476POPC   NC317795  44.656  17.554   9.450
 4476POPC   PO417796  44.638  17.475   9.150
 4476POPC   GL117797  44.627  17.498   8.850
 4476POPC   GL217798  44.585  17.456   8.850
 4476POPC   C1A17799  44.662  17.510   8.550
 4476POPC   D2A17800  44.689  17.487   8.250
 4476POPC   C3A17801  44.641  17.489   7.950
 4476POPC   C4A17802  44.683  17.480   7.650
 4476POPC   C1B17803  44.426  17.366   8.550
 4476POPC   C2B17804  44.456  17.389   8.250
 4476POPC   C3B17805  44.456  17.389   7.950
 4476POPC   C4B17806  44.420  17.359   7.650
 4477POPC   NC317807   5.054   0.421   9.450
 4477POPC   PO417808   5.053   0.390   9.150
 4477POPC   GL117809   5.073   0.455   8.850
 4477POPC   GL217810   5.180   0.302   8.850
 4477POPC   C1A17811   5.056   0.484   8.550
 4477POPC   D2A17812   5.121   0.418   8.250
 4477POPC   C3A17813   5.074   0.451   7.950
 4477POPC   C4A17814   5.056   0.480   7.650
 4477POPC   C1B17815   5.253   0.266   8.550
 4477POPC   C2B17816   5.269   0.194   8.250
 4477POPC   C3B17817   5.273   0.235   7.950
 4477POPC   C4B17818   5.242   0.208   7.650
 4478POPC   NC317819   7.468   8.939   9.450
 4478POPC   PO417820   7.462   8.996   9.150
 4478POPC   GL117821   7.461   9.019   8.850
 4478POPC   GL217822   7.484   9.079   8.850
 4478POPC   C1A17823   7.463   9.006   8.550
 4478POPC   D2A17824   7.396   8.950   8.250
 4478POPC   C3A17825   7.428   8.969   7.950
 4478POPC   C4A17826   7.388   8.991   7.650
 4478POPC   C1B17827   7.492   9.161   8.550
 4478POPC   C2B17828   7.497   9.206   8.250
 4478POPC   C3B17829   7.508   9.214   7.950
 4478POPC   C4B17830   7.517   9.209   7.650
 4479POPC   NC317831  12.104   1.229   9.450
 4479POPC   PO417832  12.043   1.199   9.150
 4479POPC   GL117833  12.051   1.231   8.850
 4479POPC   GL217834  11.939   1.273   8.850
 4479POPC   C1A17835  12.088   1.252   8.550
 4479POPC   D2A17836  12.073   1.164   8.250
 4479POPC   C3A17837  12.099   1.233   7.950
 4479POPC   C4A17838  12.049   1.216   7.650
 4479POPC   C1B17839  11.840   1.335   8.550
 4479POPC   C2B17840  11.813   1.372   8.250
 4479POPC   C3B17841  11.856   1.376   7.950
 4479POPC   C4B17842  11.859   1.297   7.650
 4480POPC   NC317843  14.427  43.130   9.450
 4480POPC   PO417844  14.439  43.082   9.150
 4480POPC   GL117845  14.407  43.075   8.850
 4480POPC   GL217846  14.556  43.160   8.850
 4480POPC   C1A17847  14.365  43.061   8.550
 4480POPC   D2A17848  14.356  43.141   8.250
 4480POPC   C3A17849  14.379  43.066   7.950
 4480POPC   C4A17850  14.357  43.127   7.650
 4480POPC   C1B17851  14.666  43.225   8.550
 4480POPC   C2B17852  14.616  43.237   8.250
 4480POPC   C3B17853  14.642  43.240   7.950
 4480POPC   C4B17854  14.679  43.155   7.650
 4481POPC   NC317855   5.891  39.273   9.450
 4481POPC   PO417856   5.902  39.203   9.150
 4481POPC   GL117857   5.872  39.272   8.850
 4481POPC   GL217858   5.861  39.124   8.850
 4481POPC   C1A17859   5.867  39.201   8.550
 4481POPC   D2A17860   5.903  39.262   8.250
 4481POPC   C3A17861   5.891  39.181   7.950
 4481POPC   C4A17862   5.903  39.257   7.650
 4481POPC   C1B17863   5.854  38.981   8.550
 4481POPC   C2B17864   5.880  38.935   8.250
 4481POPC   C3B17865   5.864  39.024   7.950
 4481POPC   C4B17866   5.832  38.971   7.650
 4482POPC   NC317867   3.551  26.823   9.450
 4482POPC   PO417868   3.495  26.801   9.150
 4482POPC   GL117869   3.504  26.847   8.850
 4482POPC   GL217870   3.616  26.911   8.850
 4482POPC   C1A17871   3.581  26.812   8.550
 4482POPC   D2A17872   3.526  26.827   8.250
 4482POPC   C3A17873   3.568  26.841   7.950
 4482POPC   C4A17874   3.521  26.836   7.650
 4482POPC   C1B17875   3.734  26.890   8.550
 4482POPC   C2B17876   3.793  26.959   8.250
 4482POPC   C3B17877   3.800  26.905   7.950
 4482POPC   C4B17878   3.734  26.932   7.650
 4483POPC   NC317879   8.180   6.614   9.450
 4483POPC   PO417880   8.218   6.600   9.150
 4483POPC   GL117881   8.239   6.671   8.850
 4483POPC   GL217882   8.250   6.709   8.850
 4483POPC   C1A17883   8.218   6.667   8.550
 4483POPC   D2A17884   8.153   6.621   8.250
 4483POPC   C3A17885   8.175   6.637   7.950
 4483POPC   C4A17886   8.163   6.637   7.650
 4483POPC   C1B17887   8.368   6.777   8.550
 4483POPC   C2B17888   8.404   6.835   8.250
 4483POPC   C3B17889   8.329   6.854   7.950
 4483POPC   C4B17890   8.398   6.785   7.650
 4484POPC   NC317891  18.322  29.192   9.450
 4484POPC   PO417892  18.330  29.180   9.150
 4484POPC   GL117893  18.324  29.120   8.850
 4484POPC   GL217894  18.434  29.101   8.850
 4484POPC   C1A17895  18.242  29.126   8.550
 4484POPC   D2A17896  18.311  29.140   8.250
 4484POPC   C3A17897  18.322  29.148   7.950
 4484POPC   C4A17898  18.313  29.126   7.650
 4484POPC   C1B17899  18.566  29.112   8.550
 4484POPC   C2B17900  18.509  29.119   8.250
 4484POPC   C3B17901  18.506  29.060   7.950
 4484POPC   C4B17902  18.530  29.046   7.650
 4485POPC   NC317903  11.308  29.189   9.450
 4485POPC   PO417904  11.340  29.117   9.150
 4485POPC   GL117905  11.304  29.138   8.850
 4485POPC   GL217906  11.216  29.169   8.850
 4485POPC   C1A17907  11.267  29.186   8.550
 4485POPC   D2A17908  11.286  29.193   8.250
 4485POPC   C3A17909  11.304  29.174   7.950
 4485POPC   C4A17910  11.340  29.143   7.650
 4485POPC   C1B17911  11.049  29.198   8.550
 4485POPC   C2B17912  11.040  29.183   8.250
 4485POPC   C3B17913  11.011  29.113   7.950
 4485POPC   C4B17914  11.053  29.133   7.650
 4486POPC   NC317915   5.125  43.852   9.450
 4486POPC   PO417916   5.082  43.850   9.150
 4486POPC   GL117917   5.062  43.875   8.850
 4486POPC   GL217918   4.989  43.973   8.850
 4486POPC   C1A17919   5.083  43.868   8.550
 4486POPC   D2A17920   5.052  43.855   8.250
 4486POPC   C3A17921   5.047  43.892   7.950
 4486POPC   C4A17922   5.119  43.897   7.650
 4486POPC   C1B17923   4.966  44.064   8.550
 4486POPC   C2B17924   5.002  44.098   8.250
 4486POPC   C3B17925   4.945  44.129   7.950
 4486POPC   C4B17926   5.032  44.066   7.650
 4487POPC   NC317927  12.081  36.083   9.450
 4487POPC   PO417928  12.058  36.110   9.150
 4487POPC   GL117929  12.065  36.100   8.850
 4487POPC   GL217930  12.070  36.192   8.850
 4487POPC   C1A17931  12.120  36.128   8.550
 4487POPC   D2A17932  12.082  36.133   8.250
 4487POPC   C3A17933  12.083  36.157   7.950
 4487POPC   C4A17934  12.124  36.092   7.650
 4487POPC   C1B17935  11.945  36.322   8.550
 4487POPC   C2B17936  11.990  36.373   8.250
 4487POPC   C3B17937  11.992  36.342   7.950
 4487POPC   C4B17938  11.925  36.319   7.650
 4488POPC   NC317939  22.116  36.125   9.450
 4488POPC   PO417940  22.173  36.136   9.150
 4488POPC   GL117941  22.200  36.090   8.850
 4488POPC   GL217942  22.259  36.168   8.850
 4488POPC   C1A17943  22.139  36.148   8.550
 4488POPC   D2A17944  22.178  36.112   8.250
 4488POPC   C3A17945  22.163  36.086   7.950
 4488POPC   C4A17946  22.209  36.079   7.650
 4488POPC   C1B17947  22.361  36.248   8.550
 4488POPC   C2B17948  22.377  36.223   8.250
 4488POPC   C3B17949  22.377  36.256   7.950
 4488POPC   C4B17950  22.374  36.279   7.650
 4489POPC   NC317951   9.788   6.649   9.450
 4489POPC   PO417952   9.720   6.622   9.150
 4489POPC   GL117953   9.795   6.668   8.850
 4489POPC   GL217954   9.585   6.708   8.850
 4489POPC   C1A17955   9.797   6.659   8.550
 4489POPC   D2A17956   9.763   6.603   8.250
 4489POPC   C3A17957   9.782   6.628   7.950
 4489POPC   C4A17958   9.753   6.621   7.650
 4489POPC   C1B17959   9.476   6.766   8.550
 4489POPC   C2B17960   9.475   6.738   8.250
 4489POPC   C3B17961   9.488   6.735   7.950
 4489POPC   C4B17962   9.486   6.782   7.650
 4490POPC   NC317963  17.500  41.600   9.450
 4490POPC   PO417964  17.481  41.557   9.150
 4490POPC   GL117965  17.491  41.566   8.850
 4490POPC   GL217966  17.427  41.691   8.850
 4490POPC   C1A17967  17.511  41.544   8.550
 4490POPC   D2A17968  17.497  41.549   8.250
 4490POPC   C3A17969  17.531  41.516   7.950
 4490POPC   C4A17970  17.478  41.580   7.650
 4490POPC   C1B17971  17.405  41.813   8.550
 4490POPC   C2B17972  17.446  41.823   8.250
 4490POPC   C3B17973  17.385  41.847   7.950
 4490POPC   C4B17974  17.424  41.812   7.650
 4491POPC   NC317975  26.786   2.793   9.450
 4491POPC   PO417976  26.834   2.778   9.150
 4491POPC   GL117977  26.810   2.745   8.850
 4491POPC   GL217978  26.733   2.646   8.850
 4491POPC   C1A17979  26.772   2.800   8.550
 4491POPC   D2A17980  26.785   2.720   8.250
 4491POPC   C3A17981  26.800   2.780   7.950
 4491POPC   C4A17982  26.771   2.743   7.650
 4491POPC   C1B17983  26.709   2.551   8.550
 4491POPC   C2B17984  26.683   2.542   8.250
 4491POPC   C3B17985  26.653   2.602   7.950
 4491POPC   C4B17986  26.701   2.537   7.650
 4492POPC   NC317987   5.899  12.046   9.450
 4492POPC   PO417988   5.882  12.113   9.150
 4492POPC   GL117989   5.906  12.032   8.850
 4492POPC   GL217990   5.840  11.962   8.850
 4492POPC   C1A17991   5.916  12.035   8.550
 4492POPC   D2A17992   5.852  12.093   8.250
 4492POPC   C3A17993   5.848  12.112   7.950
 4492POPC   C4A17994   5.835  12.046   7.650
 4492POPC   C1B17995   5.776  11.814   8.550
 4492POPC   C2B17996   5.825  11.888   8.250
 4492POPC   C3B17997   5.747  11.867   7.950
 4492POPC   C4B17998   5.810  11.797   7.650
 4493POPC   NC317999  44.614  31.436   9.450
 4493POPC   PO418000  44.665  31.505   9.150
 4493POPC   GL118001  44.711  31.443   8.850
 4493POPC   GL218002  44.584  31.565   8.850
 4493POPC   C1A18003  44.699  31.437   8.550
 4493POPC   D2A18004  44.685  31.469   8.250
 4493POPC   C3A18005  44.710  31.433   7.950
 4493POPC   C4A18006  44.671  31.445   7.650
 4493POPC   C1B18007  44.538  31.685   8.550
 4493POPC   C2B18008  44.530  31.624   8.250
 4493POPC   C3B18009  44.502  31.667   7.950
 4493POPC   C4B18010  44.538  31.657   7.650
 4494POPC   NC318011  13.612   5.052   9.450
 4494POPC   PO418012  13.631   5.067   9.150
 4494POPC   GL118013  13.642   5.051   8.850
 4494POPC   GL218014  13.505   4.997   8.850
 4494POPC   C1A18015  13.615   5.087   8.550
 4494POPC   D2A18016  13.634   5.074   8.250
 4494POPC   C3A18017  13.642   5.085   7.950
 4494POPC   C4A18018  13.668   5.117   7.650
 4494POPC   C1B18019  13.374   5.018   8.550
 4494POPC   C2B18020  13.404   4.995   8.250
 4494POPC   C3B18021  13.447   5.000   7.950
 4494POPC   C4B18022  13.408   5.005   7.650
 4495POPC   NC318023   0.444   1.192   9.450
 4495POPC   PO418024   0.485   1.174   9.150
 4495POPC   GL118025   0.394   1.226   8.850
 4495POPC   GL218026   0.553   1.149   8.850
 4495POPC   C1A18027   0.389   1.183   8.550
 4495POPC   D2A18028   0.404   1.212   8.250
 4495POPC   C3A18029   0.479   1.233   7.950
 4495POPC   C4A18030   0.447   1.243   7.650
 4495POPC   C1B18031   0.622   1.099   8.550
 4495POPC   C2B18032   0.625   1.087   8.250
 4495POPC   C3B18033   0.618   1.075   7.950
 4495POPC   C4B18034   0.656   1.122   7.650
 4496POPC   NC318035  19.876  11.325   9.450
 4496POPC   PO418036  19.869  11.301   9.150
 4496POPC   GL118037  19.810  11.344   8.850
 4496POPC   GL218038  19.766  11.348   8.850
 4496POPC   C1A18039  19.797  11.280   8.550
 4496POPC   D2A18040  19.870  11.294   8.250
 4496POPC   C3A18041  19.815  11.307   7.950
 4496POPC   C4A18042  19.831  11.287   7.650
 4496POPC   C1B18043  19.701  11.506   8.550
 4496POPC   C2B18044  19.675  11.465   8.250
 4496POPC   C3B18045  19.684  11.524   7.950
 4496POPC   C4B18046  19.709  11.451   7.650
 4497POPC   NC318047  25.266  34.543   9.450
 4497POPC   PO418048  25.286  34.543   9.150
 4497POPC   GL118049  25.301  34.599   8.850
 4497POPC   GL218050  25.181  34.507   8.850
 4497POPC   C1A18051  25.286  34.614   8.550
 4497POPC   D2A18052  25.306  34.557   8.250
 4497POPC   C3A18053  25.252  34.567   7.950
 4497POPC   C4A18054  25.220  34.578   7.650
 4497POPC   C1B18055  25.066  34.536   8.550
 4497POPC   C2B18056  24.985  34.516   8.250
 4497POPC   C3B18057  25.072  34.470   7.950
 4497POPC   C4B18058  25.044  34.484   7.650
 4498POPC   NC318059   7.462  43.850   9.450
 4498POPC   PO418060   7.428  43.876   9.150
 4498POPC   GL118061   7.421  43.926   8.850
 4498POPC   GL218062   7.262  43.933   8.850
 4498POPC   C1A18063   7.397  43.894   8.550
 4498POPC   D2A18064   7.393  43.926   8.250
 4498POPC   C3A18065   7.448  43.890   7.950
 4498POPC   C4A18066   7.456  43.928   7.650
 4498POPC   C1B18067   7.217  43.939   8.550
 4498POPC   C2B18068   7.160  43.931   8.250
 4498POPC   C3B18069   7.183  43.996   7.950
 4498POPC   C4B18070   7.154  43.934   7.650
 4499POPC   NC318071  25.303  36.916   9.450
 4499POPC   PO418072  25.233  36.951   9.150
 4499POPC   GL118073  25.245  36.864   8.850
 4499POPC   GL218074  25.206  36.998   8.850
 4499POPC   C1A18075  25.254  36.891   8.550
 4499POPC   D2A18076  25.274  36.905   8.250
 4499POPC   C3A18077  25.274  36.911   7.950
 4499POPC   C4A18078  25.306  36.930   7.650
 4499POPC   C1B18079  25.088  37.114   8.550
 4499POPC   C2B18080  25.069  37.069   8.250
 4499POPC   C3B18081  25.106  37.094   7.950
 4499POPC   C4B18082  25.094  37.079   7.650
 4500POPC   NC318083  43.916  17.463   9.450
 4500POPC   PO418084  43.935  17.474   9.150
 4500POPC   GL118085  43.878  17.477   8.850
 4500POPC   GL218086  43.850  17.395   8.850
 4500POPC   C1A18087  43.887  17.516   8.550
 4500POPC   D2A18088  43.936  17.491   8.250
 4500POPC   C3A18089  43.925  17.551   7.950
 4500POPC   C4A18090  43.892  17.532   7.650
 4500POPC   C1B18091  43.705  17.263   8.550
 4500POPC   C2B18092  43.732  17.261   8.250
 4500POPC   C3B18093  43.715  17.288   7.950
 4500POPC   C4B18094  43.773  17.287   7.650
 4501POPC   NC318095  35.363  42.348   9.450
 4501POPC   PO418096  35.396  42.334   9.150
 4501POPC   GL118097  35.307  42.330   8.850
 4501POPC   GL218098  35.470  42.418   8.850
 4501POPC   C1A18099  35.376  42.368   8.550
 4501POPC   D2A18100  35.369  42.317   8.250
 4501POPC   C3A18101  35.359  42.288   7.950
 4501POPC   C4A18102  35.324  42.287   7.650
 4501POPC   C1B18103  35.532  42.499   8.550
 4501POPC   C2B18104  35.533  42.523   8.250
 4501POPC   C3B18105  35.496  42.492   7.950
 4501POPC   C4B18106  35.547  42.520   7.650
 4502POPC   NC318107  29.114  22.963   9.450
 4502POPC   PO418108  29.099  22.941   9.150
 4502POPC   GL118109  29.122  22.913   8.850
 4502POPC   GL218110  29.020  22.823   8.850
 4502POPC   C1A18111  29.184  22.919   8.550
 4502POPC   D2A18112  29.110  22.912   8.250
 4502POPC   C3A18113  29.106  22.927   7.950
 4502POPC   C4A18114  29.173  22.899   7.650
 4502POPC   C1B18115  28.994  22.808   8.550
 4502POPC   C2B18116  28.928  22.806   8.250
 4502POPC   C3B18117  29.009  22.723   7.950
 4502POPC   C4B18118  28.989  22.759   7.650
 4503POPC   NC318119  12.860  14.453   9.450
 4503POPC   PO418120  12.814  14.385   9.150
 4503POPC   GL118121  12.830  14.390   8.850
 4503POPC   GL218122  12.928  14.504   8.850
 4503POPC   C1A18123  12.881  14.435   8.550
 4503POPC   D2A18124  12.861  14.452   8.250
 4503POPC   C3A18125  12.886  14.420   7.950
 4503POPC   C4A18126  12.843  14.374   7.650
 4503POPC   C1B18127  12.933  14.650   8.550
 4503POPC   C2B18128  12.901  14.644   8.250
 4503POPC   C3B18129  12.953  14.598   7.950
 4503POPC   C4B18130  12.931  14.625   7.650
 4504POPC   NC318131   1.180   6.625   9.450
 4504POPC   PO418132   1.177   6.643   9.150
 4504POPC   GL118133   1.196   6.682   8.850
 4504POPC   GL218134   1.375   6.619   8.850
 4504POPC   C1A18135   1.219   6.609   8.550
 4504POPC   D2A18136   1.180   6.646   8.250
 4504POPC   C3A18137   1.216   6.693   7.950
 4504POPC   C4A18138   1.187   6.609   7.650
 4504POPC   C1B18139   1.479   6.656   8.550
 4504POPC   C2B18140   1.419   6.667   8.250
 4504POPC   C3B18141   1.470   6.647   7.950
 4504POPC   C4B18142   1.450   6.660   7.650
 4505POPC   NC318143   0.456  12.872   9.450
 4505POPC   PO418144   0.456  12.865   9.150
 4505POPC   GL118145   0.444  12.805   8.850
 4505POPC   GL218146   0.448  13.017   8.850
 4505POPC   C1A18147   0.401  12.856   8.550
 4505POPC   D2A18148   0.438  12.846   8.250
 4505POPC   C3A18149   0.401  12.832   7.950
 4505POPC   C4A18150   0.403  12.862   7.650
 4505POPC   C1B18151   0.448  13.088   8.550
 4505POPC   C2B18152   0.463  13.146   8.250
 4505POPC   C3B18153   0.442  13.103   7.950
 4505POPC   C4B18154   0.480  13.105   7.650
 4506POPC   NC318155  36.889  19.107   9.450
 4506POPC   PO418156  36.863  19.048   9.150
 4506POPC   GL118157  36.857  19.034   8.850
 4506POPC   GL218158  36.989  19.027   8.850
 4506POPC   C1A18159  36.953  19.090   8.550
 4506POPC   D2A18160  36.887  19.060   8.250
 4506POPC   C3A18161  36.893  19.092   7.950
 4506POPC   C4A18162  36.870  19.094   7.650
 4506POPC   C1B18163  37.130  18.986   8.550
 4506POPC   C2B18164  37.118  18.980   8.250
 4506POPC   C3B18165  37.179  18.974   7.950
 4506POPC   C4B18166  37.185  19.012   7.650
 4507POPC   NC318167  31.444  20.653   9.450
 4507POPC   PO418168  31.502  20.603   9.150
 4507POPC   GL118169  31.513  20.574   8.850
 4507POPC   GL218170  31.577  20.611   8.850
 4507POPC   C1A18171  31.444  20.642   8.550
 4507POPC   D2A18172  31.519  20.632   8.250
 4507POPC   C3A18173  31.506  20.628   7.950
 4507POPC   C4A18174  31.425  20.640   7.650
 4507POPC   C1B18175  31.684  20.577   8.550
 4507POPC   C2B18176  31.694  20.583   8.250
 4507POPC   C3B18177  31.733  20.531   7.950
 4507POPC   C4B18178  31.755  20.553   7.650
 4508POPC   NC318179  26.063  30.647   9.450
 4508POPC   PO418180  26.068  30.700   9.150
 4508POPC   GL118181  26.069  30.681   8.850
 4508POPC   GL218182  25.930  30.688   8.850
 4508POPC   C1A18183  26.053  30.725   8.550
 4508POPC   D2A18184  26.001  30.735   8.250
 4508POPC   C3A18185  26.023  30.664   7.950
 4508POPC   C4A18186  26.025  30.726   7.650
 4508POPC   C1B18187  25.760  30.764   8.550
 4508POPC   C2B18188  25.780  30.737   8.250
 4508POPC   C3B18189  25.768  30.760   7.950
 4508POPC   C4B18190  25.829  30.812   7.650
 4509POPC   NC318191  32.255  15.919   9.450
 4509POPC   PO418192  32.273  15.952   9.150
 4509POPC   GL118193  32.266  15.967   8.850
 4509POPC   GL218194  32.139  15.848   8.850
 4509POPC   C1A18195  32.237  15.915   8.550
 4509POPC   D2A18196  32.285  15.909   8.250
 4509POPC   C3A18197  32.263  15.955   7.950
 4509POPC   C4A18198  32.261  15.994   7.650
 4509POPC   C1B18199  32.114  15.770   8.550
 4509POPC   C2B18200  32.077  15.780   8.250
 4509POPC   C3B18201  32.088  15.755   7.950
 4509POPC   C4B18202  32.085  15.778   7.650
 4510POPC   NC318203  15.203  29.097   9.450
 4510POPC   PO418204  15.222  29.122   9.150
 4510POPC   GL118205  15.206  29.099   8.850
 4510POPC   GL218206  15.097  29.230   8.850
 4510POPC   C1A18207  15.203  29.161   8.550
 4510POPC   D2A18208  15.167  29.165   8.250
 4510POPC   C3A18209  15.223  29.140   7.950
 4510POPC   C4A18210  15.150  29.125   7.650
 4510POPC   C1B18211  15.137  29.377   8.550
 4510POPC   C2B18212  15.074  29.373   8.250
 4510POPC   C3B18213  15.049  29.355   7.950
 4510POPC   C4B18214  15.073  29.371   7.650
 4511POPC   NC318215   1.967   2.752   9.450
 4511POPC   PO418216   1.971   2.759   9.150
 4511POPC   GL118217   1.993   2.784   8.850
 4511POPC   GL218218   2.128   2.767   8.850
 4511POPC   C1A18219   1.980   2.753   8.550
 4511POPC   D2A18220   2.018   2.791   8.250
 4511POPC   C3A18221   2.020   2.732   7.950
 4511POPC   C4A18222   1.969   2.797   7.650
 4511POPC   C1B18223   2.204   2.853   8.550
 4511POPC   C2B18224   2.215   2.831   8.250
 4511POPC   C3B18225   2.185   2.898   7.950
 4511POPC   C4B18226   2.201   2.859   7.650
 4512POPC   NC318227  16.772  40.810   9.450
 4512POPC   PO418228  16.761  40.752   9.150
 4512POPC   GL118229  16.735  40.759   8.850
 4512POPC   GL218230  16.702  40.914   8.850
 4512POPC   C1A18231  16.709  40.762   8.550
 4512POPC   D2A18232  16.742  40.791   8.250
 4512POPC   C3A18233  16.747  40.797   7.950
 4512POPC   C4A18234  16.715  40.812   7.650
 4512POPC   C1B18235  16.752  41.069   8.550
 4512POPC   C2B18236  16.718  41.022   8.250
 4512POPC   C3B18237  16.734  41.037   7.950
 4512POPC   C4B18238  16.719  41.074   7.650
 4513POPC   NC318239  18.282  29.959   9.450
 4513POPC   PO418240  18.330  29.929   9.150
 4513POPC   GL118241  18.272  29.895   8.850
 4513POPC   GL218242  18.112  29.970   8.850
 4513POPC   C1A18243  18.313  29.893   8.550
 4513POPC   D2A18244  18.247  29.884   8.250
 4513POPC   C3A18245  18.270  29.958   7.950
 4513POPC   C4A18246  18.272  29.920   7.650
 4513POPC   C1B18247  18.025  29.985   8.550
 4513POPC   C2B18248  18.052  29.927   8.250
 4513POPC   C3B18249  18.014  29.974   7.950
 4513POPC   C4B18250  18.038  29.932   7.650
 4514POPC   NC318251  12.861  30.734   9.450
 4514POPC   PO418252  12.812  30.746   9.150
 4514POPC   GL118253  12.870  30.717   8.850
 4514POPC   GL218254  12.833  30.818   8.850
 4514POPC   C1A18255  12.858  30.686   8.550
 4514POPC   D2A18256  12.888  30.689   8.250
 4514POPC   C3A18257  12.835  30.730   7.950
 4514POPC   C4A18258  12.866  30.736   7.650
 4514POPC   C1B18259  12.838  30.992   8.550
 4514POPC   C2B18260  12.885  30.899   8.250
 4514POPC   C3B18261  12.879  30.989   7.950
 4514POPC   C4B18262  12.904  30.931   7.650
 4515POPC   NC318263   4.273  19.828   9.450
 4515POPC   PO418264   4.350  19.860   9.150
 4515POPC   GL118265   4.320  19.874   8.850
 4515POPC   GL218266   4.363  19.732   8.850
 4515POPC   C1A18267   4.347  19.794   8.550
 4515POPC   D2A18268   4.352  19.824   8.250
 4515POPC   C3A18269   4.349  19.804   7.950
 4515POPC   C4A18270   4.317  19.789   7.650
 4515POPC   C1B18271   4.314  19.607   8.550
 4515POPC   C2B18272   4.382  19.552   8.250
 4515POPC   C3B18273   4.303  19.545   7.950
 4515POPC   C4B18274   4.391  19.584   7.650
 4516POPC   NC318275  43.932  11.253   9.450
 4516POPC   PO418276  43.892  11.335   9.150
 4516POPC   GL118277  43.854  11.297   8.850
 4516POPC   GL218278  43.837  11.399   8.850
 4516POPC   C1A18279  43.913  11.298   8.550
 4516POPC   D2A18280  43.847  11.287   8.250
 4516POPC   C3A18281  43.864  11.283   7.950
 4516POPC   C4A18282  43.853  11.291   7.650
 4516POPC   C1B18283  43.895  11.574   8.550
 4516POPC   C2B18284  43.908  11.581   8.250
 4516POPC   C3B18285  43.916  11.538   7.950
 4516POPC   C4B18286  43.890  11.566   7.650
 4517POPC   NC318287  13.584  16.001   9.450
 4517POPC   PO418288  13.667  15.986   9.150
 4517POPC   GL118289  13.670  15.957   8.850
 4517POPC   GL218290  13.730  15.887   8.850
 4517POPC   C1A18291  13.619  15.940   8.550
 4517POPC   D2A18292  13.595  15.969   8.250
 4517POPC   C3A18293  13.606  15.952   7.950
 4517POPC   C4A18294  13.593  15.908   7.650
 4517POPC   C1B18295  13.810  15.744   8.550
 4517POPC   C2B18296  13.835  15.810   8.250
 4517POPC   C3B18297  13.818  15.836   7.950
 4517POPC   C4B18298  13.802  15.834   7.650
 4518POPC   NC318299  15.947  26.051   9.450
 4518POPC   PO418300  15.995  26.007   9.150
 4518POPC   GL118301  15.918  26.005   8.850
 4518POPC   GL218302  16.076  26.070   8.850
 4518POPC   C1A18303  15.952  26.023   8.550
 4518POPC   D2A18304  15.986  25.994   8.250
 4518POPC   C3A18305  15.937  25.995   7.950
 4518POPC   C4A18306  15.908  25.994   7.650
 4518POPC   C1B18307  16.165  26.027   8.550
 4518POPC   C2B18308  16.176  26.031   8.250
 4518POPC   C3B18309  16.184  25.985   7.950
 4518POPC   C4B18310  16.181  26.016   7.650
 4519POPC   NC318311  44.631  14.434   9.450
 4519POPC   PO418312  44.686  14.404   9.150
 4519POPC   GL118313  44.619  14.388   8.850
 4519POPC   GL218314  44.552  14.355   8.850
 4519POPC   C1A18315  44.637  14.450   8.550
 4519POPC   D2A18316  44.693  14.361   8.250
 4519POPC   C3A18317  44.702  14.394   7.950
 4519POPC   C4A18318  44.689  14.374   7.650
 4519POPC   C1B18319  44.454  14.358   8.550
 4519POPC   C2B18320  44.384  14.448   8.250
 4519POPC   C3B18321  44.451  14.356   7.950
 4519POPC   C4B18322  44.390  14.403   7.650
 4520POPC   NC318323  36.874  20.566   9.450
 4520POPC   PO418324  36.952  20.610   9.150
 4520POPC   GL118325  36.935  20.629   8.850
 4520POPC   GL218326  36.830  20.712   8.850
 4520POPC   C1A18327  36.892  20.632   8.550
 4520POPC   D2A18328  36.858  20.612   8.250
 4520POPC   C3A18329  36.870  20.615   7.950
 4520POPC   C4A18330  36.933  20.563   7.650
 4520POPC   C1B18331  36.733  20.843   8.550
 4520POPC   C2B18332  36.800  20.782   8.250
 4520POPC   C3B18333  36.758  20.771   7.950
 4520POPC   C4B18334  36.754  20.838   7.650
 4521POPC   NC318335  31.494   7.406   9.450
 4521POPC   PO418336  31.470   7.459   9.150
 4521POPC   GL118337  31.498   7.444   8.850
 4521POPC   GL218338  31.541   7.520   8.850
 4521POPC   C1A18339  31.505   7.398   8.550
 4521POPC   D2A18340  31.431   7.387   8.250
 4521POPC   C3A18341  31.458   7.385   7.950
 4521POPC   C4A18342  31.437   7.426   7.650
 4521POPC   C1B18343  31.693   7.576   8.550
 4521POPC   C2B18344  31.721   7.534   8.250
 4521POPC   C3B18345  31.719   7.584   7.950
 4521POPC   C4B18346  31.702   7.572   7.650
 4522POPC   NC318347  36.943  22.948   9.450
 4522POPC   PO418348  36.905  22.895   9.150
 4522POPC   GL118349  36.867  22.917   8.850
 4522POPC   GL218350  36.929  22.819   8.850
 4522POPC   C1A18351  36.881  22.951   8.550
 4522POPC   D2A18352  36.930  22.985   8.250
 4522POPC   C3A18353  36.925  22.971   7.950
 4522POPC   C4A18354  36.903  22.926   7.650
 4522POPC   C1B18355  36.864  22.669   8.550
 4522POPC   C2B18356  36.881  22.680   8.250
 4522POPC   C3B18357  36.890  22.677   7.950
 4522POPC   C4B18358  36.829  22.711   7.650
 4523POPC   NC318359  18.234   5.829   9.450
 4523POPC   PO418360  18.263   5.841   9.150
 4523POPC   GL118361  18.286   5.826   8.850
 4523POPC   GL218362  18.242   6.006   8.850
 4523POPC   C1A18363  18.327   5.820   8.550
 4523POPC   D2A18364  18.327   5.860   8.250
 4523POPC   C3A18365  18.236   5.867   7.950
 4523POPC   C4A18366  18.312   5.830   7.650
 4523POPC   C1B18367  18.280   6.120   8.550
 4523POPC   C2B18368  18.262   6.080   8.250
 4523POPC   C3B18369  18.316   6.158   7.950
 4523POPC   C4B18370  18.340   6.070   7.650
 4524POPC   NC318371  38.476  21.395   9.450
 4524POPC   PO418372  38.425  21.350   9.150
 4524POPC   GL118373  38.427  21.404   8.850
 4524POPC   GL218374  38.376  21.328   8.850
 4524POPC   C1A18375  38.476  21.395   8.550
 4524POPC   D2A18376  38.498  21.364   8.250
 4524POPC   C3A18377  38.503  21.357   7.950
 4524POPC   C4A18378  38.463  21.360   7.650
 4524POPC   C1B18379  38.197  21.234   8.550
 4524POPC   C2B18380  38.221  21.216   8.250
 4524POPC   C3B18381  38.211  21.234   7.950
 4524POPC   C4B18382  38.189  21.260   7.650
 4525POPC   NC318383  26.812  28.412   9.450
 4525POPC   PO418384  26.773  28.322   9.150
 4525POPC   GL118385  26.784  28.372   8.850
 4525POPC   GL218386  26.804  28.269   8.850
 4525POPC   C1A18387  26.787  28.352   8.550
 4525POPC   D2A18388  26.802  28.373   8.250
 4525POPC   C3A18389  26.836  28.380   7.950
 4525POPC   C4A18390  26.774  28.404   7.650
 4525POPC   C1B18391  26.768  28.094   8.550
 4525POPC   C2B18392  26.808  28.111   8.250
 4525POPC   C3B18393  26.719  28.153   7.950
 4525POPC   C4B18394  26.736  28.098   7.650
 4526POPC   NC318395   6.661  36.917   9.450
 4526POPC   PO418396   6.635  36.885   9.150
 4526POPC   GL118397   6.650  36.926   8.850
 4526POPC   GL218398   6.496  36.961   8.850
 4526POPC   C1A18399   6.631  36.892   8.550
 4526POPC   D2A18400   6.597  36.911   8.250
 4526POPC   C3A18401   6.629  36.882   7.950
 4526POPC   C4A18402   6.603  36.886   7.650
 4526POPC   C1B18403   6.407  36.950   8.550
 4526POPC   C2B18404   6.415  37.017   8.250
 4526POPC   C3B18405   6.407  36.932   7.950
 4526POPC   C4B18406   6.388  36.973   7.650
 4527POPC   NC318407   8.930  23.736   9.450
 4527POPC   PO418408   8.980  23.729   9.150
 4527POPC   GL118409   8.998  23.743   8.850
 4527POPC   GL218410   9.056  23.685   8.850
 4527POPC   C1A18411   8.991  23.701   8.550
 4527POPC   D2A18412   9.013  23.747   8.250
 4527POPC   C3A18413   9.017  23.755   7.950
 4527POPC   C4A18414   8.943  23.688   7.650
 4527POPC   C1B18415   9.205  23.720   8.550
 4527POPC   C2B18416   9.195  23.705   8.250
 4527POPC   C3B18417   9.242  23.737   7.950
 4527POPC   C4B18418   9.257  23.660   7.650
 4528POPC   NC318419  38.445  19.029   9.450
 4528POPC   PO418420  38.427  19.046   9.150
 4528POPC   GL118421  38.454  19.083   8.850
 4528POPC   GL218422  38.438  19.145   8.850
 4528POPC   C1A18423  38.424  19.102   8.550
 4528POPC   D2A18424  38.435  19.065   8.250
 4528POPC   C3A18425  38.408  19.033   7.950
 4528POPC   C4A18426  38.412  19.084   7.650
 4528POPC   C1B18427  38.409  19.339   8.550
 4528POPC   C2B18428  38.458  19.279   8.250
 4528POPC   C3B18429  38.439  19.342   7.950
 4528POPC   C4B18430  38.392  19.291   7.650
 4529POPC   NC318431  19.076  38.487   9.450
 4529POPC   PO418432  19.093  38.469   9.150
 4529POPC   GL118433  19.018  38.449   8.850
 4529POPC   GL218434  18.904  38.484   8.850
 4529POPC   C1A18435  19.083  38.412   8.550
 4529POPC   D2A18436  19.044  38.418   8.250
 4529POPC   C3A18437  19.098  38.500   7.950
 4529POPC   C4A18438  19.095  38.475   7.650
 4529POPC   C1B18439  18.822  38.491   8.550
 4529POPC   C2B18440  18.839  38.464   8.250
 4529POPC   C3B18441  18.767  38.441   7.950
 4529POPC   C4B18442  18.852  38.494   7.650
 4530POPC   NC318443  15.136  23.722   9.450
 4530POPC   PO418444  15.208  23.711   9.150
 4530POPC   GL118445  15.199  23.746   8.850
 4530POPC   GL218446  15.253  23.601   8.850
 4530POPC   C1A18447  15.203  23.676   8.550
 4530POPC   D2A18448  15.153  23.729   8.250
 4530POPC   C3A18449  15.218  23.675   7.950
 4530POPC   C4A18450  15.142  23.757   7.650
 4530POPC   C1B18451  15.347  23.512   8.550
 4530POPC   C2B18452  15.316  23.499   8.250
 4530POPC   C3B18453  15.378  23.537   7.950
 4530POPC   C4B18454  15.339  23.512   7.650
 4531POPC   NC318455  10.494  16.737   9.450
 4531POPC   PO418456  10.536  16.759   9.150
 4531POPC   GL118457  10.530  16.767   8.850
 4531POPC   GL218458  10.536  16.897   8.850
 4531POPC   C1A18459  10.499  16.685   8.550
 4531POPC   D2A18460  10.479  16.767   8.250
 4531POPC   C3A18461  10.511  16.692   7.950
 4531POPC   C4A18462  10.483  16.761   7.650
 4531POPC   C1B18463  10.457  16.947   8.550
 4531POPC   C2B18464  10.470  17.000   8.250
 4531POPC   C3B18465  10.495  17.021   7.950
 4531POPC   C4B18466  10.528  17.002   7.650
 4532POPC   NC318467   2.780  29.128   9.450
 4532POPC   PO418468   2.779  29.174   9.150
 4532POPC   GL118469   2.732  29.194   8.850
 4532POPC   GL218470   2.777  29.281   8.850
 4532POPC   C1A18471   2.776  29.174   8.550
 4532POPC   D2A18472   2.732  29.110   8.250
 4532POPC   C3A18473   2.727  29.153   7.950
 4532POPC   C4A18474   2.763  29.115   7.650
 4532POPC   C1B18475   2.701  29.390   8.550
 4532POPC   C2B18476   2.740  29.402   8.250
 4532POPC   C3B18477   2.713  29.392   7.950
 4532POPC   C4B18478   2.706  29.409   7.650
 4533POPC   NC318479  23.682  18.238   9.450
 4533POPC   PO418480  23.695  18.268   9.150
 4533POPC   GL118481  23.671  18.284   8.850
 4533POPC   GL218482  23.654  18.345   8.850
 4533POPC   C1A18483  23.687  18.235   8.550
 4533POPC   D2A18484  23.669  18.242   8.250
 4533POPC   C3A18485  23.737  18.251   7.950
 4533POPC   C4A18486  23.725  18.295   7.650
 4533POPC   C1B18487  23.528  18.400   8.550
 4533POPC   C2B18488  23.490  18.443   8.250
 4533POPC   C3B18489  23.530  18.422   7.950
 4533POPC   C4B18490  23.552  18.427   7.650
 4534POPC   NC318491   3.552  26.042   9.450
 4534POPC   PO418492   3.513  26.003   9.150
 4534POPC   GL118493   3.567  26.055   8.850
 4534POPC   GL218494   3.585  25.902   8.850
 4534POPC   C1A18495   3.551  26.060   8.550
 4534POPC   D2A18496   3.528  26.046   8.250
 4534POPC   C3A18497   3.535  26.021   7.950
 4534POPC   C4A18498   3.552  26.011   7.650
 4534POPC   C1B18499   3.646  25.873   8.550
 4534POPC   C2B18500   3.698  25.839   8.250
 4534POPC   C3B18501   3.670  25.853   7.950
 4534POPC   C4B18502   3.710  25.787   7.650
 4535POPC   NC318503   1.989  32.278   9.450
 4535POPC   PO418504   2.013  32.212   9.150
 4535POPC   GL118505   1.988  32.282   8.850
 4535POPC   GL218506   2.082  32.108   8.850
 4535POPC   C1A18507   1.999  32.250   8.550
 4535POPC   D2A18508   2.021  32.220   8.250
 4535POPC   C3A18509   1.982  32.201   7.950
 4535POPC   C4A18510   2.015  32.250   7.650
 4535POPC   C1B18511   2.120  32.000   8.550
 4535POPC   C2B18512   2.081  32.013   8.250
 4535POPC   C3B18513   2.120  32.057   7.950
 4535POPC   C4B18514   2.069  32.052   7.650
 4536POPC   NC318515  28.346  21.381   9.450
 4536POPC   PO418516  28.374  21.356   9.150
 4536POPC   GL118517  28.401  21.393   8.850
 4536POPC   GL218518  28.244  21.364   8.850
 4536POPC   C1A18519  28.386  21.370   8.550
 4536POPC   D2A18520  28.341  21.411   8.250
 4536POPC   C3A18521  28.416  21.424   7.950
 4536POPC   C4A18522  28.404  21.343   7.650
 4536POPC   C1B18523  28.079  21.339   8.550
 4536POPC   C2B18524  28.122  21.343   8.250
 4536POPC   C3B18525  28.159  21.333   7.950
 4536POPC   C4B18526  28.079  21.322   7.650
 4537POPC   NC318527  33.791  40.784   9.450
 4537POPC   PO418528  33.824  40.824   9.150
 4537POPC   GL118529  33.793  40.817   8.850
 4537POPC   GL218530  33.745  40.686   8.850
 4537POPC   C1A18531  33.801  40.735   8.550
 4537POPC   D2A18532  33.757  40.804   8.250
 4537POPC   C3A18533  33.791  40.757   7.950
 4537POPC   C4A18534  33.825  40.772   7.650
 4537POPC   C1B18535  33.599  40.658   8.550
 4537POPC   C2B18536  33.553  40.677   8.250
 4537POPC   C3B18537  33.603  40.631   7.950
 4537POPC   C4B18538  33.567  40.648   7.650
 4538POPC   NC318539  43.913  33.764   9.450
 4538POPC   PO418540  43.875  33.811   9.150
 4538POPC   GL118541  43.844  33.774   8.850
 4538POPC   GL218542  43.749  33.894   8.850
 4538POPC   C1A18543  43.883  33.803   8.550
 4538POPC   D2A18544  43.861  33.799   8.250
 4538POPC   C3A18545  43.889  33.751   7.950
 4538POPC   C4A18546  43.913  33.760   7.650
 4538POPC   C1B18547  43.651  33.894   8.550
 4538POPC   C2B18548  43.693  33.894   8.250
 4538POPC   C3B18549  43.649  33.915   7.950
 4538POPC   C4B18550  43.664  33.861   7.650
 4539POPC   NC318551  37.654  16.765   9.450
 4539POPC   PO418552  37.652  16.722   9.150
 4539POPC   GL118553  37.728  16.776   8.850
 4539POPC   GL218554  37.716  16.806   8.850
 4539POPC   C1A18555  37.664  16.729   8.550
 4539POPC   D2A18556  37.644  16.744   8.250
 4539POPC   C3A18557  37.715  16.738   7.950
 4539POPC   C4A18558  37.716  16.766   7.650
 4539POPC   C1B18559  37.831  16.931   8.550
 4539POPC   C2B18560  37.827  16.931   8.250
 4539POPC   C3B18561  37.811  16.909   7.950
 4539POPC   C4B18562  37.879  16.864   7.650
 4540POPC   NC318563   5.113  34.594   9.450
 4540POPC   PO418564   5.065  34.606   9.150
 4540POPC   GL118565   5.067  34.534   8.850
 4540POPC   GL218566   5.080  34.498   8.850
 4540POPC   C1A18567   5.126  34.562   8.550
 4540POPC   D2A18568   5.070  34.532   8.250
 4540POPC   C3A18569   5.097  34.590   7.950
 4540POPC   C4A18570   5.118  34.575   7.650
 4540POPC   C1B18571   5.090  34.341   8.550
 4540POPC   C2B18572   5.123  34.365   8.250
 4540POPC   C3B18573   5.090  34.343   7.950
 4540POPC   C4B18574   5.105  34.294   7.650
 4541POPC   NC318575  32.275   0.447   9.450
 4541POPC   PO418576  32.275   0.470   9.150
 4541POPC   GL118577  32.248   0.406   8.850
 4541POPC   GL218578  32.140   0.328   8.850
 4541POPC   C1A18579  32.220   0.429   8.550
 4541POPC   D2A18580  32.280   0.465   8.250
 4541POPC   C3A18581  32.200   0.484   7.950
 4541POPC   C4A18582  32.203   0.468   7.650
 4541POPC   C1B18583  32.028   0.266   8.550
 4541POPC   C2B18584  32.095   0.251   8.250
 4541POPC   C3B18585  32.043   0.255   7.950
 4541POPC   C4B18586  32.028   0.247   7.650
 4542POPC   NC318587  12.879  41.510   9.450
 4542POPC   PO418588  12.803  41.572   9.150
 4542POPC   GL118589  12.831  41.589   8.850
 4542POPC   GL218590  12.682  41.555   8.850
 4542POPC   C1A18591  12.893  41.536   8.550
 4542POPC   D2A18592  12.875  41.583   8.250
 4542POPC   C3A18593  12.844  41.553   7.950
 4542POPC   C4A18594  12.874  41.536   7.650
 4542POPC   C1B18595  12.600  41.466   8.550
 4542POPC   C2B18596  12.565  41.456   8.250
 4542POPC   C3B18597  12.580  41.538   7.950
 4542POPC   C4B18598  12.656  41.484   7.650
 4543POPC   NC318599  33.807  29.097   9.450
 4543POPC   PO418600  33.811  29.099   9.150
 4543POPC   GL118601  33.798  29.143   8.850
 4543POPC   GL218602  33.897  29.084   8.850
 4543POPC   C1A18603  33.794  29.136   8.550
 4543POPC   D2A18604  33.822  29.165   8.250
 4543POPC   C3A18605  33.806  29.183   7.950
 4543POPC   C4A18606  33.817  29.132   7.650
 4543POPC   C1B18607  33.966  28.929   8.550
 4543POPC   C2B18608  33.958  28.961   8.250
 4543POPC   C3B18609  33.885  28.907   7.950
 4543POPC   C4B18610  33.926  28.902   7.650
 4544POPC   NC318611   9.793  30.700   9.450
 4544POPC   PO418612   9.757  30.717   9.150
 4544POPC   GL118613   9.780  30.665   8.850
 4544POPC   GL218614   9.874  30.667   8.850
 4544POPC   C1A18615   9.707  30.668   8.550
 4544POPC   D2A18616   9.713  30.746   8.250
 4544POPC   C3A18617   9.792  30.708   7.950
 4544POPC   C4A18618   9.768  30.713   7.650
 4544POPC   C1B18619  10.015  30.653   8.550
 4544POPC   C2B18620  10.029  30.629   8.250
 4544POPC   C3B18621  10.038  30.642   7.950
 4544POPC   C4B18622   9.960  30.673   7.650
 4545POPC   NC318623  31.469  19.010   9.450
 4545POPC   PO418624  31.486  19.097   9.150
 4545POPC   GL118625  31.520  19.045   8.850
 4545POPC   GL218626  31.424  18.901   8.850
 4545POPC   C1A18627  31.489  19.104   8.550
 4545POPC   D2A18628  31.442  19.009   8.250
 4545POPC   C3A18629  31.515  19.106   7.950
 4545POPC   C4A18630  31.518  19.086   7.650
 4545POPC   C1B18631  31.468  18.846   8.550
 4545POPC   C2B18632  31.495  18.800   8.250
 4545POPC   C3B18633  31.434  18.800   7.950
 4545POPC   C4B18634  31.433  18.813   7.650
 4546POPC   NC318635  12.030  29.900   9.450
 4546POPC   PO418636  12.027  29.959   9.150
 4546POPC   GL118637  12.051  29.927   8.850
 4546POPC   GL218638  11.974  29.930   8.850
 4546POPC   C1A18639  12.106  29.915   8.550
 4546POPC   D2A18640  12.101  29.919   8.250
 4546POPC   C3A18641  12.090  29.920   7.950
 4546POPC   C4A18642  12.055  29.906   7.650
 4546POPC   C1B18643  11.796  29.936   8.550
 4546POPC   C2B18644  11.848  29.864   8.250
 4546POPC   C3B18645  11.812  29.949   7.950
 4546POPC   C4B18646  11.818  29.951   7.650
 4547POPC   NC318647  25.300   5.068   9.450
 4547POPC   PO418648  25.272   5.088   9.150
 4547POPC   GL118649  25.264   5.088   8.850
 4547POPC   GL218650  25.403   4.966   8.850
 4547POPC   C1A18651  25.291   5.091   8.550
 4547POPC   D2A18652  25.309   5.101   8.250
 4547POPC   C3A18653  25.259   5.080   7.950
 4547POPC   C4A18654  25.308   5.044   7.650
 4547POPC   C1B18655  25.471   4.915   8.550
 4547POPC   C2B18656  25.424   4.871   8.250
 4547POPC   C3B18657  25.433   4.950   7.950
 4547POPC   C4B18658  25.463   4.875   7.650
 4548POPC   NC318659   6.624   8.217   9.450
 4548POPC   PO418660   6.645   8.182   9.150
 4548POPC   GL118661   6.648   8.183   8.850
 4548POPC   GL218662   6.595   8.363   8.850
 4548POPC   C1A18663   6.653   8.191   8.550
 4548POPC   D2A18664   6.605   8.233   8.250
 4548POPC   C3A18665   6.654   8.242   7.950
 4548POPC   C4A18666   6.628   8.246   7.650
 4548POPC   C1B18667   6.636   8.450   8.550
 4548POPC   C2B18668   6.605   8.438   8.250
 4548POPC   C3B18669   6.625   8.443   7.950
 4548POPC   C4B18670   6.656   8.488   7.650
 4549POPC   NC318671   5.060  40.050   9.450
 4549POPC   PO418672   5.055  40.028   9.150
 4549POPC   GL118673   5.136  40.017   8.850
 4549POPC   GL218674   5.002  40.113   8.850
 4549POPC   C1A18675   5.127  39.966   8.550
 4549POPC   D2A18676   5.049  40.051   8.250
 4549POPC   C3A18677   5.077  39.992   7.950
 4549POPC   C4A18678   5.120  40.036   7.650
 4549POPC   C1B18679   4.967  40.224   8.550
 4549POPC   C2B18680   4.920  40.217   8.250
 4549POPC   C3B18681   4.885  40.180   7.950
 4549POPC   C4B18682   4.973  40.162   7.650
 4550POPC   NC318683  37.726  13.639   9.450
 4550POPC   PO418684  37.655  13.673   9.150
 4550POPC   GL118685  37.700  13.613   8.850
 4550POPC   GL218686  37.784  13.621   8.850
 4550POPC   C1A18687  37.704  13.579   8.550
 4550POPC   D2A18688  37.696  13.590   8.250
 4550POPC   C3A18689  37.712  13.626   7.950
 4550POPC   C4A18690  37.633  13.643   7.650
 4550POPC   C1B18691  37.886  13.638   8.550
 4550POPC   C2B18692  37.974  13.574   8.250
 4550POPC   C3B18693  37.889  13.648   7.950
 4550POPC   C4B18694  37.958  13.650   7.650
 4551POPC   NC318695  43.841   8.938   9.450
 4551POPC   PO418696  43.888   8.964   9.150
 4551POPC   GL118697  43.911   8.982   8.850
 4551POPC   GL218698  43.809   9.021   8.850
 4551POPC   C1A18699  43.902   8.956   8.550
 4551POPC   D2A18700  43.892   8.952   8.250
 4551POPC   C3A18701  43.862   8.972   7.950
 4551POPC   C4A18702  43.935   9.014   7.650
 4551POPC   C1B18703  43.628   8.978   8.550
 4551POPC   C2B18704  43.681   9.038   8.250
 4551POPC   C3B18705  43.677   9.007   7.950
 4551POPC   C4B18706  43.643   9.038   7.650
 4552POPC   NC318707  18.242  41.531   9.450
 4552POPC   PO418708  18.249  41.559   9.150
 4552POPC   GL118709  18.239  41.604   8.850
 4552POPC   GL218710  18.123  41.554   8.850
 4552POPC   C1A18711  18.241  41.590   8.550
 4552POPC   D2A18712  18.265  41.529   8.250
 4552POPC   C3A18713  18.311  41.560   7.950
 4552POPC   C4A18714  18.300  41.570   7.650
 4552POPC   C1B18715  18.002  41.581   8.550
 4552POPC   C2B18716  18.067  41.551   8.250
 4552POPC   C3B18717  18.043  41.552   7.950
 4552POPC   C4B18718  18.064  41.551   7.650
 4553POPC   NC318719   9.699   2.778   9.450
 4553POPC   PO418720   9.725   2.801   9.150
 4553POPC   GL118721   9.766   2.723   8.850
 4553POPC   GL218722   9.822   2.691   8.850
 4553POPC   C1A18723   9.770   2.722   8.550
 4553POPC   D2A18724   9.708   2.803   8.250
 4553POPC   C3A18725   9.721   2.748   7.950
 4553POPC   C4A18726   9.749   2.718   7.650
 4553POPC   C1B18727   9.935   2.576   8.550
 4553POPC   C2B18728   9.976   2.562   8.250
 4553POPC   C3B18729   9.987   2.653   7.950
 4553POPC   C4B18730   9.986   2.602   7.650
 4554POPC   NC318731  17.499  33.782   9.450
 4554POPC   PO418732  17.546  33.769   9.150
 4554POPC   GL118733  17.532  33.772   8.850
 4554POPC   GL218734  17.369  33.762   8.850
 4554POPC   C1A18735  17.545  33.826   8.550
 4554POPC   D2A18736  17.528  33.776   8.250
 4554POPC   C3A18737  17.501  33.777   7.950
 4554POPC   C4A18738  17.487  33.795   7.650
 4554POPC   C1B18739  17.266  33.702   8.550
 4554POPC   C2B18740  17.305  33.679   8.250
 4554POPC   C3B18741  17.265  33.693   7.950
 4554POPC   C4B18742  17.283  33.696   7.650
 4555POPC   NC318743  26.805  30.666   9.450
 4555POPC   PO418744  26.769  30.680   9.150
 4555POPC   GL118745  26.810  30.707   8.850
 4555POPC   GL218746  26.899  30.552   8.850
 4555POPC   C1A18747  26.814  30.686   8.550
 4555POPC   D2A18748  26.857  30.732   8.250
 4555POPC   C3A18749  26.780  30.730   7.950
 4555POPC   C4A18750  26.821  30.742   7.650
 4555POPC   C1B18751  26.887  30.412   8.550
 4555POPC   C2B18752  26.932  30.490   8.250
 4555POPC   C3B18753  26.913  30.414   7.950
 4555POPC   C4B18754  26.914  30.491   7.650
 4556POPC   NC318755  43.892  36.122   9.450
 4556POPC   PO418756  43.886  36.122   9.150
 4556POPC   GL118757  43.851  36.105   8.850
 4556POPC   GL218758  43.790  36.024   8.850
 4556POPC   C1A18759  43.926  36.159   8.550
 4556POPC   D2A18760  43.882  36.161   8.250
 4556POPC   C3A18761  43.884  36.174   7.950
 4556POPC   C4A18762  43.931  36.156   7.650
 4556POPC   C1B18763  43.674  36.019   8.550
 4556POPC   C2B18764  43.683  36.012   8.250
 4556POPC   C3B18765  43.707  35.965   7.950
 4556POPC   C4B18766  43.646  36.013   7.650
 4557POPC   NC318767  22.113   8.168   9.450
 4557POPC   PO418768  22.123   8.210   9.150
 4557POPC   GL118769  22.172   8.225   8.850
 4557POPC   GL218770  22.184   8.348   8.850
 4557POPC   C1A18771  22.143   8.216   8.550
 4557POPC   D2A18772  22.192   8.232   8.250
 4557POPC   C3A18773  22.117   8.163   7.950
 4557POPC   C4A18774  22.116   8.179   7.650
 4557POPC   C1B18775  22.196   8.404   8.550
 4557POPC   C2B18776  22.205   8.487   8.250
 4557POPC   C3B18777  22.237   8.474   7.950
 4557POPC   C4B18778  22.222   8.474   7.650
 4558POPC   NC318779  40.800  41.582   9.450
 4558POPC   PO418780  40.832  41.540   9.150
 4558POPC   GL118781  40.752  41.555   8.850
 4558POPC   GL218782  40.717  41.620   8.850
 4558POPC   C1A18783  40.820  41.588   8.550
 4558POPC   D2A18784  40.817  41.587   8.250
 4558POPC   C3A18785  40.736  41.578   7.950
 4558POPC   C4A18786  40.752  41.510   7.650
 4558POPC   C1B18787  40.622  41.729   8.550
 4558POPC   C2B18788  40.616  41.708   8.250
 4558POPC   C3B18789  40.642  41.708   7.950
 4558POPC   C4B18790  40.553  41.685   7.650
 4559POPC   NC318791   5.857  32.984   9.450
 4559POPC   PO418792   5.823  33.062   9.150
 4559POPC   GL118793   5.870  33.012   8.850
 4559POPC   GL218794   5.719  32.995   8.850
 4559POPC   C1A18795   5.905  32.982   8.550
 4559POPC   D2A18796   5.851  33.008   8.250
 4559POPC   C3A18797   5.897  33.000   7.950
 4559POPC   C4A18798   5.856  33.066   7.650
 4559POPC   C1B18799   5.585  32.929   8.550
 4559POPC   C2B18800   5.682  32.976   8.250
 4559POPC   C3B18801   5.638  32.938   7.950
 4559POPC   C4B18802   5.656  32.969   7.650
 4560POPC   NC318803  33.074  29.195   9.450
 4560POPC   PO418804  33.066  29.154   9.150
 4560POPC   GL118805  33.042  29.103   8.850
 4560POPC   GL218806  33.018  28.991   8.850
 4560POPC   C1A18807  33.048  29.186   8.550
 4560POPC   D2A18808  33.030  29.163   8.250
 4560POPC   C3A18809  33.039  29.145   7.950
 4560POPC   C4A18810  33.065  29.119   7.650
 4560POPC   C1B18811  32.947  28.952   8.550
 4560POPC   C2B18812  32.957  28.895   8.250
 4560POPC   C3B18813  32.948  28.908   7.950
 4560POPC   C4B18814  32.963  28.909   7.650
 4561POPC   NC318815  32.269  43.877   9.450
 4561POPC   PO418816  32.214  43.871   9.150
 4561POPC   GL118817  32.211  43.847   8.850
 4561POPC   GL218818  32.288  43.996   8.850
 4561POPC   C1A18819  32.297  43.868   8.550
 4561POPC   D2A18820  32.203  43.927   8.250
 4561POPC   C3A18821  32.208  43.901   7.950
 4561POPC   C4A18822  32.267  43.858   7.650
 4561POPC   C1B18823  32.219  44.168   8.550
 4561POPC   C2B18824  32.268  44.126   8.250
 4561POPC   C3B18825  32.284  44.116   7.950
 4561POPC   C4B18826  32.268  44.138   7.650
 4562POPC   NC318827  15.164  26.804   9.450
 4562POPC   PO418828  15.228  26.783   9.150
 4562POPC   GL118829  15.196  26.787   8.850
 4562POPC   GL218830  15.298  26.874   8.850
 4562POPC   C1A18831  15.163  26.771   8.550
 4562POPC   D2A18832  15.167  26.773   8.250
 4562POPC   C3A18833  15.221  26.857   7.950
 4562POPC   C4A18834  15.156  26.847   7.650
 4562POPC   C1B18835  15.372  27.008   8.550
 4562POPC   C2B18836  15.391  26.924   8.250
 4562POPC   C3B18837  15.367  27.001   7.950
 4562POPC   C4B18838  15.415  26.928   7.650
 4563POPC   NC318839  42.310  31.486   9.450
 4563POPC   PO418840  42.287  31.449   9.150
 4563POPC   GL118841  42.305  31.469   8.850
 4563POPC   GL218842  42.437  31.468   8.850
 4563POPC   C1A18843  42.313  31.435   8.550
 4563POPC   D2A18844  42.301  31.484   8.250
 4563POPC   C3A18845  42.341  31.515   7.950
 4563POPC   C4A18846  42.333  31.490   7.650
 4563POPC   C1B18847  42.598  31.477   8.550
 4563POPC   C2B18848  42.584  31.472   8.250
 4563POPC   C3B18849  42.554  31.446   7.950
 4563POPC   C4B18850  42.621  31.437   7.650
 4564POPC   NC318851  17.531  39.997   9.450
 4564POPC   PO418852  17.539  40.029   9.150
 4564POPC   GL118853  17.465  40.012   8.850
 4564POPC   GL218854  17.509  40.161   8.850
 4564POPC   C1A18855  17.525  40.044   8.550
 4564POPC   D2A18856  17.480  39.971   8.250
 4564POPC   C3A18857  17.527  40.006   7.950
 4564POPC   C4A18858  17.460  40.036   7.650
 4564POPC   C1B18859  17.425  40.228   8.550
 4564POPC   C2B18860  17.507  40.241   8.250
 4564POPC   C3B18861  17.435  40.255   7.950
 4564POPC   C4B18862  17.421  40.216   7.650
 4565POPC   NC318863   0.473  22.205   9.450
 4565POPC   PO418864   0.462  22.183   9.150
 4565POPC   GL118865   0.451  22.137   8.850
 4565POPC   GL218866   0.432  22.039   8.850
 4565POPC   C1A18867   0.474  22.132   8.550
 4565POPC   D2A18868   0.479  22.157   8.250
 4565POPC   C3A18869   0.477  22.148   7.950
 4565POPC   C4A18870   0.406  22.174   7.650
 4565POPC   C1B18871   0.399  21.938   8.550
 4565POPC   C2B18872   0.335  21.968   8.250
 4565POPC   C3B18873   0.343  21.948   7.950
 4565POPC   C4B18874   0.336  21.879   7.650
 4566POPC   NC318875  17.471   0.394   9.450
 4566POPC   PO418876  17.502   0.476   9.150
 4566POPC   GL118877  17.540   0.450   8.850
 4566POPC   GL218878  17.388   0.445   8.850
 4566POPC   C1A18879  17.545   0.392   8.550
 4566POPC   D2A18880  17.531   0.487   8.250
 4566POPC   C3A18881  17.557   0.445   7.950
 4566POPC   C4A18882  17.553   0.456   7.650
 4566POPC   C1B18883  17.278   0.552   8.550
 4566POPC   C2B18884  17.228   0.553   8.250
 4566POPC   C3B18885  17.249   0.513   7.950
 4566POPC   C4B18886  17.286   0.490   7.650
 4567POPC   NC318887   9.750  21.358   9.450
 4567POPC   PO418888   9.778  21.418   9.150
 4567POPC   GL118889   9.794  21.362   8.850
 4567POPC   GL218890   9.606  21.462   8.850
 4567POPC   C1A18891   9.742  21.393   8.550
 4567POPC   D2A18892   9.707  21.354   8.250
 4567POPC   C3A18893   9.776  21.424   7.950
 4567POPC   C4A18894   9.710  21.380   7.650
 4567POPC   C1B18895   9.534  21.515   8.550
 4567POPC   C2B18896   9.503  21.478   8.250
 4567POPC   C3B18897   9.526  21.545   7.950
 4567POPC   C4B18898   9.483  21.458   7.650
 4568POPC   NC318899  17.482  28.416   9.450
 4568POPC   PO418900  17.539  28.348   9.150
 4568POPC   GL118901  17.523  28.367   8.850
 4568POPC   GL218902  17.488  28.485   8.850
 4568POPC   C1A18903  17.472  28.370   8.550
 4568POPC   D2A18904  17.556  28.347   8.250
 4568POPC   C3A18905  17.502  28.370   7.950
 4568POPC   C4A18906  17.503  28.385   7.650
 4568POPC   C1B18907  17.553  28.663   8.550
 4568POPC   C2B18908  17.585  28.568   8.250
 4568POPC   C3B18909  17.592  28.603   7.950
 4568POPC   C4B18910  17.508  28.624   7.650
 4569POPC   NC318911   0.469  26.863   9.450
 4569POPC   PO418912   0.451  26.856   9.150
 4569POPC   GL118913   0.428  26.850   8.850
 4569POPC   GL218914   0.470  26.766   8.850
 4569POPC   C1A18915   0.443  26.818   8.550
 4569POPC   D2A18916   0.445  26.849   8.250
 4569POPC   C3A18917   0.453  26.798   7.950
 4569POPC   C4A18918   0.486  26.768   7.650
 4569POPC   C1B18919   0.592  26.620   8.550
 4569POPC   C2B18920   0.601  26.575   8.250
 4569POPC   C3B18921   0.594  26.655   7.950
 4569POPC   C4B18922   0.577  26.593   7.650
 4570POPC   NC318923  22.137  44.700   9.450
 4570POPC   PO418924  22.189  44.676   9.150
 4570POPC   GL118925  22.190  44.700   8.850
 4570POPC   GL218926  22.078  44.773   8.850
 4570POPC   C1A18927  22.128  44.688   8.550
 4570POPC   D2A18928  22.147  44.647   8.250
 4570POPC   C3A18929  22.146  44.625   7.950
 4570POPC   C4A18930  22.138  44.648   7.650
 4570POPC   C1B18931  22.017  44.889   8.550
 4570POPC   C2B18932  21.972  44.869   8.250
 4570POPC   C3B18933  22.002  44.823   7.950
 4570POPC   C4B18934  22.048  44.848   7.650
 4571POPC   NC318935  39.973  26.033   9.450
 4571POPC   PO418936  40.045  26.047   9.150
 4571POPC   GL118937  39.967  26.078   8.850
 4571POPC   GL218938  40.031  26.115   8.850
 4571POPC   C1A18939  39.964  26.014   8.550
 4571POPC   D2A18940  39.989  26.054   8.250
 4571POPC   C3A18941  39.995  26.079   7.950
 4571POPC   C4A18942  39.978  25.999   7.650
 4571POPC   C1B18943  39.942  26.275   8.550
 4571POPC   C2B18944  39.983  26.256   8.250
 4571POPC   C3B18945  39.952  26.314   7.950
 4571POPC   C4B18946  39.924  26.327   7.650
 4572POPC   NC318947  22.983   2.020   9.450
 4572POPC   PO418948  22.972   1.986   9.150
 4572POPC   GL118949  22.980   1.997   8.850
 4572POPC   GL218950  22.812   2.094   8.850
 4572POPC   C1A18951  22.908   2.036   8.550
 4572POPC   D2A18952  22.947   1.954   8.250
 4572POPC   C3A18953  22.952   2.020   7.950
 4572POPC   C4A18954  22.920   1.944   7.650
 4572POPC   C1B18955  22.802   2.162   8.550
 4572POPC   C2B18956  22.793   2.188   8.250
 4572POPC   C3B18957  22.757   2.221   7.950
 4572POPC   C4B18958  22.814   2.187   7.650
 4573POPC   NC318959  21.392   1.261   9.450
 4573POPC   PO418960  21.410   1.172   9.150
 4573POPC   GL118961  21.426   1.229   8.850
 4573POPC   GL218962  21.290   1.148   8.850
 4573POPC   C1A18963  21.344   1.223   8.550
 4573POPC   D2A18964  21.373   1.212   8.250
 4573POPC   C3A18965  21.353   1.209   7.950
 4573POPC   C4A18966  21.400   1.255   7.650
 4573POPC   C1B18967  21.262   1.061   8.550
 4573POPC   C2B18968  21.229   1.079   8.250
 4573POPC   C3B18969  21.174   1.017   7.950
 4573POPC   C4B18970  21.263   0.985   7.650
 4574POPC   NC318971  23.734  25.269   9.450
 4574POPC   PO418972  23.705  25.313   9.150
 4574POPC   GL118973  23.701  25.303   8.850
 4574POPC   GL218974  23.666  25.417   8.850
 4574POPC   C1A18975  23.668  25.216   8.550
 4574POPC   D2A18976  23.749  25.230   8.250
 4574POPC   C3A18977  23.675  25.290   7.950
 4574POPC   C4A18978  23.665  25.276   7.650
 4574POPC   C1B18979  23.550  25.521   8.550
 4574POPC   C2B18980  23.576  25.436   8.250
 4574POPC   C3B18981  23.563  25.437   7.950
 4574POPC   C4B18982  23.572  25.443   7.650
 4575POPC   NC318983   3.558  15.160   9.450
 4575POPC   PO418984   3.539  15.164   9.150
 4575POPC   GL118985   3.564  15.155   8.850
 4575POPC   GL218986   3.653  15.191   8.850
 4575POPC   C1A18987   3.588  15.221   8.550
 4575POPC   D2A18988   3.577  15.131   8.250
 4575POPC   C3A18989   3.587  15.202   7.950
 4575POPC   C4A18990   3.511  15.154   7.650
 4575POPC   C1B18991   3.836  15.186   8.550
 4575POPC   C2B18992   3.752  15.150   8.250
 4575POPC   C3B18993   3.787  15.125   7.950
 4575POPC   C4B18994   3.750  15.169   7.650
 4576POPC   NC318995   8.167  39.240   9.450
 4576POPC   PO418996   8.200  39.183   9.150
 4576POPC   GL118997   8.187  39.203   8.850
 4576POPC   GL218998   8.112  39.304   8.850
 4576POPC   C1A18999   8.196  39.278   8.550
 4576POPC   D2A19000   8.227  39.192   8.250
 4576POPC   C3A19001   8.184  39.271   7.950
 4576POPC   C4A19002   8.164  39.186   7.650
 4576POPC   C1B19003   8.073  39.479   8.550
 4576POPC   C2B19004   8.051  39.425   8.250
 4576POPC   C3B19005   8.080  39.444   7.950
 4576POPC   C4B19006   8.029  39.478   7.650
 4577POPC   NC319007  34.544  35.376   9.450
 4577POPC   PO419008  34.613  35.306   9.150
 4577POPC   GL119009  34.550  35.338   8.850
 4577POPC   GL219010  34.693  35.260   8.850
 4577POPC   C1A19011  34.585  35.333   8.550
 4577POPC   D2A19012  34.569  35.368   8.250
 4577POPC   C3A19013  34.553  35.306   7.950
 4577POPC   C4A19014  34.598  35.367   7.650
 4577POPC   C1B19015  34.741  35.174   8.550
 4577POPC   C2B19016  34.776  35.150   8.250
 4577POPC   C3B19017  34.760  35.201   7.950
 4577POPC   C4B19018  34.745  35.151   7.650
 4578POPC   NC319019   5.897  32.268   9.450
 4578POPC   PO419020   5.855  32.230   9.150
 4578POPC   GL119021   5.891  32.223   8.850
 4578POPC   GL219022   5.978  32.138   8.850
 4578POPC   C1A19023   5.851  32.208   8.550
 4578POPC   D2A19024   5.885  32.208   8.250
 4578POPC   C3A19025   5.821  32.275   7.950
 4578POPC   C4A19026   5.879  32.274   7.650
 4578POPC   C1B19027   6.094  32.115   8.550
 4578POPC   C2B19028   6.042  32.102   8.250
 4578POPC   C3B19029   6.040  32.028   7.950
 4578POPC   C4B19030   6.074  32.104   7.650
 4579POPC   NC319031   5.854  33.827   9.450
 4579POPC   PO419032   5.904  33.771   9.150
 4579POPC   GL119033   5.870  33.778   8.850
 4579POPC   GL219034   5.979  33.854   8.850
 4579POPC   C1A19035   5.886  33.780   8.550
 4579POPC   D2A19036   5.841  33.759   8.250
 4579POPC   C3A19037   5.824  33.837   7.950
 4579POPC   C4A19038   5.824  33.796   7.650
 4579POPC   C1B19039   6.128  33.871   8.550
 4579POPC   C2B19040   6.090  33.811   8.250
 4579POPC   C3B19041   6.110  33.842   7.950
 4579POPC   C4B19042   6.139  33.828   7.650
 4580POPC   NC319043  25.998  11.325   9.450
 4580POPC   PO419044  26.070  11.281   9.150
 4580POPC   GL119045  26.040  11.260   8.850
 4580POPC   GL219046  25.934  11.360   8.850
 4580POPC   C1A19047  26.047  11.289   8.550
 4580POPC   D2A19048  25.999  11.287   8.250
 4580POPC   C3A19049  26.089  11.281   7.950
 4580POPC   C4A19050  26.046  11.268   7.650
 4580POPC   C1B19051  25.805  11.363   8.550
 4580POPC   C2B19052  25.834  11.394   8.250
 4580POPC   C3B19053  25.782  11.440   7.950
 4580POPC   C4B19054  25.822  11.414   7.650
 4581POPC   NC319055   5.137   8.964   9.450
 4581POPC   PO419056   5.091   8.976   9.150
 4581POPC   GL119057   5.102   9.017   8.850
 4581POPC   GL219058   4.998   9.032   8.850
 4581POPC   C1A19059   5.086   8.996   8.550
 4581POPC   D2A19060   5.045   9.013   8.250
 4581POPC   C3A19061   5.109   9.010   7.950
 4581POPC   C4A19062   5.108   8.964   7.650
 4581POPC   C1B19063   4.855   8.962   8.550
 4581POPC   C2B19064   4.808   8.993   8.250
 4581POPC   C3B19065   4.842   8.951   7.950
 4581POPC   C4B19066   4.874   9.014   7.650
 4582POPC   NC319067  26.831  25.253   9.450
 4582POPC   PO419068  26.785  25.254   9.150
 4582POPC   GL119069  26.774  25.261   8.850
 4582POPC   GL219070  26.747  25.408   8.850
 4582POPC   C1A19071  26.803  25.297   8.550
 4582POPC   D2A19072  26.866  25.298   8.250
 4582POPC   C3A19073  26.857  25.302   7.950
 4582POPC   C4A19074  26.848  25.221   7.650
 4582POPC   C1B19075  26.708  25.530   8.550
 4582POPC   C2B19076  26.733  25.482   8.250
 4582POPC   C3B19077  26.798  25.527   7.950
 4582POPC   C4B19078  26.714  25.498   7.650
 4583POPC   NC319079  17.495  43.120   9.450
 4583POPC   PO419080  17.502  43.096   9.150
 4583POPC   GL119081  17.508  43.104   8.850
 4583POPC   GL219082  17.503  43.038   8.850
 4583POPC   C1A19083  17.487  43.091   8.550
 4583POPC   D2A19084  17.502  43.129   8.250
 4583POPC   C3A19085  17.500  43.137   7.950
 4583POPC   C4A19086  17.541  43.153   7.650
 4583POPC   C1B19087  17.408  42.841   8.550
 4583POPC   C2B19088  17.453  42.874   8.250
 4583POPC   C3B19089  17.407  42.897   7.950
 4583POPC   C4B19090  17.387  42.887   7.650
 4584POPC   NC319091  31.502  25.296   9.450
 4584POPC   PO419092  31.465  25.301   9.150
 4584POPC   GL119093  31.463  25.253   8.850
 4584POPC   GL219094  31.389  25.218   8.850
 4584POPC   C1A19095  31.451  25.288   8.550
 4584POPC   D2A19096  31.462  25.218   8.250
 4584POPC   C3A19097  31.428  25.289   7.950
 4584POPC   C4A19098  31.456  25.315   7.650
 4584POPC   C1B19099  31.181  25.276   8.550
 4584POPC   C2B19100  31.209  25.228   8.250
 4584POPC   C3B19101  31.253  25.258   7.950
 4584POPC   C4B19102  31.199  25.230   7.650
 4585POPC   NC319103  44.665  37.677   9.450
 4585POPC   PO419104  44.667  37.683   9.150
 4585POPC   GL119105  44.683  37.637   8.850
 4585POPC   GL219106  44.543  37.592   8.850
 4585POPC   C1A19107  44.662  37.666   8.550
 4585POPC   D2A19108  44.654  37.641   8.250
 4585POPC   C3A19109  44.625  37.633   7.950
 4585POPC   C4A19110  44.622  37.712   7.650
 4585POPC   C1B19111  44.507  37.528   8.550
 4585POPC   C2B19112  44.511  37.491   8.250
 4585POPC   C3B19113  44.456  37.468   7.950
 4585POPC   C4B19114  44.474  37.506   7.650
 4586POPC   NC319115  34.560  34.580   9.450
 4586POPC   PO419116  34.557  34.612   9.150
 4586POPC   GL119117  34.577  34.614   8.850
 4586POPC   GL219118  34.641  34.468   8.850
 4586POPC   C1A19119  34.593  34.583   8.550
 4586POPC   D2A19120  34.584  34.607   8.250
 4586POPC   C3A19121  34.614  34.599   7.950
 4586POPC   C4A19122  34.526  34.597   7.650
 4586POPC   C1B19123  34.709  34.350   8.550
 4586POPC   C2B19124  34.697  34.403   8.250
 4586POPC   C3B19125  34.711  34.342   7.950
 4586POPC   C4B19126  34.722  34.378   7.650
 4587POPC   NC319127  41.519   8.998   9.450
 4587POPC   PO419128  41.516   8.995   9.150
 4587POPC   GL119129  41.509   8.994   8.850
 4587POPC   GL219130  41.464   9.080   8.850
 4587POPC   C1A19131  41.537   9.005   8.550
 4587POPC   D2A19132  41.542   9.002   8.250
 4587POPC   C3A19133  41.566   9.002   7.950
 4587POPC   C4A19134  41.601   8.923   7.650
 4587POPC   C1B19135  41.420   9.119   8.550
 4587POPC   C2B19136  41.381   9.103   8.250
 4587POPC   C3B19137  41.388   9.149   7.950
 4587POPC   C4B19138  41.430   9.106   7.650
 4588POPC   NC319139  18.257  28.370   9.450
 4588POPC   PO419140  18.305  28.342   9.150
 4588POPC   GL119141  18.251  28.363   8.850
 4588POPC   GL219142  18.310  28.293   8.850
 4588POPC   C1A19143  18.260  28.335   8.550
 4588POPC   D2A19144  18.322  28.337   8.250
 4588POPC   C3A19145  18.294  28.342   7.950
 4588POPC   C4A19146  18.240  28.406   7.650
 4588POPC   C1B19147  18.403  28.172   8.550
 4588POPC   C2B19148  18.445  28.131   8.250
 4588POPC   C3B19149  18.457  28.162   7.950
 4588POPC   C4B19150  18.401  28.142   7.650
 4589POPC   NC319151  30.652  13.664   9.450
 4589POPC   PO419152  30.668  13.674   9.150
 4589POPC   GL119153  30.678  13.667   8.850
 4589POPC   GL219154  30.650  13.767   8.850
 4589POPC   C1A19155  30.733  13.584   8.550
 4589POPC   D2A19156  30.692  13.666   8.250
 4589POPC   C3A19157  30.681  13.602   7.950
 4589POPC   C4A19158  30.692  13.579   7.650
 4589POPC   C1B19159  30.582  13.836   8.550
 4589POPC   C2B19160  30.553  13.826   8.250
 4589POPC   C3B19161  30.560  13.882   7.950
 4589POPC   C4B19162  30.587  13.897   7.650
 4590POPC   NC319163  26.832  36.111   9.450
 4590POPC   PO419164  26.805  36.146   9.150
 4590POPC   GL119165  26.802  36.080   8.850
 4590POPC   GL219166  26.918  36.171   8.850
 4590POPC   C1A19167  26.810  36.124   8.550
 4590POPC   D2A19168  26.811  36.145   8.250
 4590POPC   C3A19169  26.823  36.144   7.950
 4590POPC   C4A19170  26.809  36.145   7.650
 4590POPC   C1B19171  27.058  36.192   8.550
 4590POPC   C2B19172  27.083  36.232   8.250
 4590POPC   C3B19173  27.039  36.217   7.950
 4590POPC   C4B19174  27.015  36.163   7.650
 4591POPC   NC319175   5.891  19.880   9.450
 4591POPC   PO419176   5.871  19.825   9.150
 4591POPC   GL119177   5.861  19.846   8.850
 4591POPC   GL219178   5.931  19.916   8.850
 4591POPC   C1A19179   5.864  19.805   8.550
 4591POPC   D2A19180   5.910  19.842   8.250
 4591POPC   C3A19181   5.841  19.837   7.950
 4591POPC   C4A19182   5.918  19.792   7.650
 4591POPC   C1B19183   6.088  19.992   8.550
 4591POPC   C2B19184   6.037  19.976   8.250
 4591POPC   C3B19185   6.026  19.981   7.950
 4591POPC   C4B19186   6.028  19.997   7.650
 4592POPC   NC319187  14.355  19.059   9.450
 4592POPC   PO419188  14.431  19.035   9.150
 4592POPC   GL119189  14.438  19.020   8.850
 4592POPC   GL219190  14.510  19.049   8.850
 4592POPC   C1A19191  14.435  19.017   8.550
 4592POPC   D2A19192  14.386  19.039   8.250
 4592POPC   C3A19193  14.402  19.055   7.950
 4592POPC   C4A19194  14.434  19.035   7.650
 4592POPC   C1B19195  14.678  18.969   8.550
 4592POPC   C2B19196  14.658  19.013   8.250
 4592POPC   C3B19197  14.596  18.984   7.950
 4592POPC   C4B19198  14.614  19.011   7.650
 4593POPC   NC319199  38.467  36.920   9.450
 4593POPC   PO419200  38.471  36.887   9.150
 4593POPC   GL119201  38.481  36.881   8.850
 4593POPC   GL219202  38.621  36.854   8.850
 4593POPC   C1A19203  38.504  36.912   8.550
 4593POPC   D2A19204  38.420  36.905   8.250
 4593POPC   C3A19205  38.485  36.917   7.950
 4593POPC   C4A19206  38.495  36.936   7.650
 4593POPC   C1B19207  38.735  36.879   8.550
 4593POPC   C2B19208  38.706  36.908   8.250
 4593POPC   C3B19209  38.702  36.861   7.950
 4593POPC   C4B19210  38.746  36.911   7.650
 4594POPC   NC319211  33.803  36.097   9.450
 4594POPC   PO419212  33.830  36.177   9.150
 4594POPC   GL119213  33.776  36.123   8.850
 4594POPC   GL219214  33.855  36.059   8.850
 4594POPC   C1A19215  33.776  36.103   8.550
 4594POPC   D2A19216  33.755  36.101   8.250
 4594POPC   C3A19217  33.849  36.151   7.950
 4594POPC   C4A19218  33.781  36.127   7.650
 4594POPC   C1B19219  33.949  35.928   8.550
 4594POPC   C2B19220  33.957  35.871   8.250
 4594POPC   C3B19221  33.979  35.887   7.950
 4594POPC   C4B19222  33.907  35.937   7.650
 4595POPC   NC319223   0.445   8.959   9.450
 4595POPC   PO419224   0.481   8.983   9.150
 4595POPC   GL119225   0.393   9.018   8.850
 4595POPC   GL219226   0.428   8.828   8.850
 4595POPC   C1A19227   0.481   9.017   8.550
 4595POPC   D2A19228   0.439   9.020   8.250
 4595POPC   C3A19229   0.476   8.992   7.950
 4595POPC   C4A19230   0.410   8.978   7.650
 4595POPC   C1B19231   0.448   8.717   8.550
 4595POPC   C2B19232   0.376   8.693   8.250
 4595POPC   C3B19233   0.439   8.697   7.950
 4595POPC   C4B19234   0.394   8.681   7.650
 4596POPC   NC319235  44.686  11.320   9.450
 4596POPC   PO419236  44.641  11.308   9.150
 4596POPC   GL119237  44.661  11.309   8.850
 4596POPC   GL219238  44.731  11.422   8.850
 4596POPC   C1A19239  44.705  11.342   8.550
 4596POPC   D2A19240  44.641  11.269   8.250
 4596POPC   C3A19241  44.618  11.277   7.950
 4596POPC   C4A19242  44.624  11.268   7.650
 4596POPC   C1B19243  44.720  11.586   8.550
 4596POPC   C2B19244  44.760  11.581   8.250
 4596POPC   C3B19245  44.765  11.562   7.950
 4596POPC   C4B19246  44.707  11.515   7.650
 4597POPC   NC319247  19.094  12.048   9.450
 4597POPC   PO419248  19.035  12.115   9.150
 4597POPC   GL119249  19.010  12.034   8.850
 4597POPC   GL219250  18.992  12.192   8.850
 4597POPC   C1A19251  19.065  12.106   8.550
 4597POPC   D2A19252  19.053  12.117   8.250
 4597POPC   C3A19253  19.107  12.092   7.950
 4597POPC   C4A19254  19.024  12.091   7.650
 4597POPC   C1B19255  18.990  12.321   8.550
 4597POPC   C2B19256  18.997  12.355   8.250
 4597POPC   C3B19257  19.050  12.319   7.950
 4597POPC   C4B19258  19.064  12.317   7.650
 4598POPC   NC319259  35.344  26.792   9.450
 4598POPC   PO419260  35.324  26.839   9.150
 4598POPC   GL119261  35.342  26.767   8.850
 4598POPC   GL219262  35.219  26.752   8.850
 4598POPC   C1A19263  35.393  26.861   8.550
 4598POPC   D2A19264  35.332  26.859   8.250
 4598POPC   C3A19265  35.373  26.782   7.950
 4598POPC   C4A19266  35.377  26.845   7.650
 4598POPC   C1B19267  35.136  26.789   8.550
 4598POPC   C2B19268  35.133  26.770   8.250
 4598POPC   C3B19269  35.109  26.761   7.950
 4598POPC   C4B19270  35.129  26.751   7.650
 4599POPC   NC319271  15.169  13.629   9.450
 4599POPC   PO419272  15.133  13.640   9.150
 4599POPC   GL119273  15.130  13.645   8.850
 4599POPC   GL219274  15.204  13.702   8.850
 4599POPC   C1A19275  15.176  13.661   8.550
 4599POPC   D2A19276  15.183  13.623   8.250
 4599POPC   C3A19277  15.159  13.619   7.950
 4599POPC   C4A19278  15.193  13.593   7.650
 4599POPC   C1B19279  15.253  13.837   8.550
 4599POPC   C2B19280  15.271  13.871   8.250
 4599POPC   C3B19281  15.324  13.865   7.950
 4599POPC   C4B19282  15.240  13.873   7.650
 4600POPC   NC319283  22.915   1.233   9.450
 4600POPC   PO419284  22.957   1.172   9.150
 4600POPC   GL119285  22.894   1.188   8.850
 4600POPC   GL219286  22.808   1.138   8.850
 4600POPC   C1A19287  22.979   1.229   8.550
 4600POPC   D2A19288  22.910   1.178   8.250
 4600POPC   C3A19289  22.938   1.231   7.950
 4600POPC   C4A19290  22.890   1.167   7.650
 4600POPC   C1B19291  22.713   1.048   8.550
 4600POPC   C2B19292  22.772   1.038   8.250
 4600POPC   C3B19293  22.751   1.039   7.950
 4600POPC   C4B19294  22.792   1.079   7.650
 4601POPC   NC319295   6.678  40.016   9.450
 4601POPC   PO419296   6.633  40.000   9.150
 4601POPC   GL119297   6.616  39.959   8.850
 4601POPC   GL219298   6.698  40.105   8.850
 4601POPC   C1A19299   6.652  40.018   8.550
 4601POPC   D2A19300   6.649  40.018   8.250
 4601POPC   C3A19301   6.654  39.985   7.950
 4601POPC   C4A19302   6.679  39.961   7.650
 4601POPC   C1B19303   6.717  40.245   8.550
 4601POPC   C2B19304   6.666  40.255   8.250
 4601POPC   C3B19305   6.731  40.285   7.950
 4601POPC   C4B19306   6.677  40.293   7.650
 4602POPC   NC319307  23.733   0.440   9.450
 4602POPC   PO419308  23.702   0.413   9.150
 4602POPC   GL119309  23.723   0.419   8.850
 4602POPC   GL219310  23.713   0.563   8.850
 4602POPC   C1A19311  23.666   0.438   8.550
 4602POPC   D2A19312  23.694   0.400   8.250
 4602POPC   C3A19313  23.728   0.478   7.950
 4602POPC   C4A19314  23.724   0.483   7.650
 4602POPC   C1B19315  23.747   0.727   8.550
 4602POPC   C2B19316  23.649   0.721   8.250
 4602POPC   C3B19317  23.740   0.659   7.950
 4602POPC   C4B19318  23.692   0.679   7.650
 4603POPC   NC319319  17.493  29.141   9.450
 4603POPC   PO419320  17.556  29.175   9.150
 4603POPC   GL119321  17.555  29.146   8.850
 4603POPC   GL219322  17.646  29.203   8.850
 4603POPC   C1A19323  17.489  29.097   8.550
 4603POPC   D2A19324  17.466  29.124   8.250
 4603POPC   C3A19325  17.503  29.169   7.950
 4603POPC   C4A19326  17.546  29.137   7.650
 4603POPC   C1B19327  17.688  29.262   8.550
 4603POPC   C2B19328  17.765  29.229   8.250
 4603POPC   C3B19329  17.735  29.280   7.950
 4603POPC   C4B19330  17.686  29.226   7.650
 4604POPC   NC319331  29.968  21.358   9.450
 4604POPC   PO419332  29.876  21.400   9.150
 4604POPC   GL119333  29.952  21.339   8.850
 4604POPC   GL219334  29.892  21.541   8.850
 4604POPC   C1A19335  29.965  21.388   8.550
 4604POPC   D2A19336  29.875  21.350   8.250
 4604POPC   C3A19337  29.888  21.389   7.950
 4604POPC   C4A19338  29.918  21.368   7.650
 4604POPC   C1B19339  29.931  21.604   8.550
 4604POPC   C2B19340  29.902  21.661   8.250
 4604POPC   C3B19341  29.878  21.651   7.950
 4604POPC   C4B19342  29.870  21.661   7.650
 4605POPC   NC319343  17.520  22.145   9.450
 4605POPC   PO419344  17.487  22.197   9.150
 4605POPC   GL119345  17.554  22.170   8.850
 4605POPC   GL219346  17.531  22.319   8.850
 4605POPC   C1A19347  17.521  22.184   8.550
 4605POPC   D2A19348  17.474  22.211   8.250
 4605POPC   C3A19349  17.524  22.117   7.950
 4605POPC   C4A19350  17.505  22.153   7.650
 4605POPC   C1B19351  17.442  22.404   8.550
 4605POPC   C2B19352  17.484  22.375   8.250
 4605POPC   C3B19353  17.496  22.362   7.950
 4605POPC   C4B19354  17.457  22.454   7.650
 4606POPC   NC319355  12.843   7.393   9.450
 4606POPC   PO419356  12.805   7.441   9.150
 4606POPC   GL119357  12.851   7.440   8.850
 4606POPC   GL219358  12.899   7.581   8.850
 4606POPC   C1A19359  12.843   7.458   8.550
 4606POPC   D2A19360  12.845   7.441   8.250
 4606POPC   C3A19361  12.824   7.468   7.950
 4606POPC   C4A19362  12.813   7.375   7.650
 4606POPC   C1B19363  12.940   7.689   8.550
 4606POPC   C2B19364  12.874   7.653   8.250
 4606POPC   C3B19365  12.929   7.644   7.950
 4606POPC   C4B19366  12.945   7.640   7.650
 4607POPC   NC319367   6.691  44.683   9.450
 4607POPC   PO419368   6.671  44.703   9.150
 4607POPC   GL119369   6.619  44.617   8.850
 4607POPC   GL219370   6.540  44.761   8.850
 4607POPC   C1A19371   6.623  44.639   8.550
 4607POPC   D2A19372   6.605  44.673   8.250
 4607POPC   C3A19373   6.688  44.674   7.950
 4607POPC   C4A19374   6.635  44.699   7.650
 4607POPC   C1B19375   6.443  44.759   8.550
 4607POPC   C2B19376   6.386  44.801   8.250
 4607POPC   C3B19377   6.400  44.815   7.950
 4607POPC   C4B19378   6.473  44.797   7.650
 4608POPC   NC319379  28.393  20.590   9.450
 4608POPC   PO419380  28.396  20.597   9.150
 4608POPC   GL119381  28.402  20.659   8.850
 4608POPC   GL219382  28.335  20.479   8.850
 4608POPC   C1A19383  28.402  20.577   8.550
 4608POPC   D2A19384  28.354  20.618   8.250
 4608POPC   C3A19385  28.411  20.579   7.950
 4608POPC   C4A19386  28.353  20.610   7.650
 4608POPC   C1B19387  28.382  20.403   8.550
 4608POPC   C2B19388  28.390  20.312   8.250
 4608POPC   C3B19389  28.344  20.328   7.950
 4608POPC   C4B19390  28.379  20.314   7.650
 4609POPC   NC319391  26.821  26.026   9.450
 4609POPC   PO419392  26.859  26.054   9.150
 4609POPC   GL119393  26.810  26.074   8.850
 4609POPC   GL219394  26.907  26.118   8.850
 4609POPC   C1A19395  26.818  26.053   8.550
 4609POPC   D2A19396  26.787  26.065   8.250
 4609POPC   C3A19397  26.858  26.007   7.950
 4609POPC   C4A19398  26.795  26.050   7.650
 4609POPC   C1B19399  26.990  26.128   8.550
 4609POPC   C2B19400  27.075  26.175   8.250
 4609POPC   C3B19401  27.050  26.155   7.950
 4609POPC   C4B19402  27.052  26.132   7.650
 4610POPC   NC319403  43.078   6.651   9.450
 4610POPC   PO419404  43.151   6.626   9.150
 4610POPC   GL119405  43.099   6.606   8.850
 4610POPC   GL219406  43.147   6.770   8.850
 4610POPC   C1A19407  43.074   6.617   8.550
 4610POPC   D2A19408  43.146   6.691   8.250
 4610POPC   C3A19409  43.072   6.648   7.950
 4610POPC   C4A19410  43.105   6.690   7.650
 4610POPC   C1B19411  43.157   6.937   8.550
 4610POPC   C2B19412  43.104   6.919   8.250
 4610POPC   C3B19413  43.106   6.929   7.950
 4610POPC   C4B19414  43.073   6.881   7.650
 4611POPC   NC319415  37.716  41.565   9.450
 4611POPC   PO419416  37.634  41.524   9.150
 4611POPC   GL119417  37.638  41.516   8.850
 4611POPC   GL219418  37.709  41.416   8.850
 4611POPC   C1A19419  37.630  41.572   8.550
 4611POPC   D2A19420  37.701  41.570   8.250
 4611POPC   C3A19421  37.687  41.587   7.950
 4611POPC   C4A19422  37.679  41.533   7.650
 4611POPC   C1B19423  37.810  41.356   8.550
 4611POPC   C2B19424  37.766  41.356   8.250
 4611POPC   C3B19425  37.799  41.349   7.950
 4611POPC   C4B19426  37.785  41.331   7.650
 4612POPC   NC319427  33.053  13.598   9.450
 4612POPC   PO419428  33.019  13.621   9.150
 4612POPC   GL119429  33.032  13.651   8.850
 4612POPC   GL219430  32.944  13.587   8.850
 4612POPC   C1A19431  33.035  13.639   8.550
 4612POPC   D2A19432  32.993  13.625   8.250
 4612POPC   C3A19433  33.017  13.644   7.950
 4612POPC   C4A19434  33.039  13.582   7.650
 4612POPC   C1B19435  32.811  13.515   8.550
 4612POPC   C2B19436  32.818  13.520   8.250
 4612POPC   C3B19437  32.756  13.493   7.950
 4612POPC   C4B19438  32.812  13.523   7.650
 4613POPC   NC319439  26.076  43.063   9.450
 4613POPC   PO419440  26.046  43.106   9.150
 4613POPC   GL119441  26.083  43.127   8.850
 4613POPC   GL219442  26.189  43.089   8.850
 4613POPC   C1A19443  26.070  43.154   8.550
 4613POPC   D2A19444  26.082  43.100   8.250
 4613POPC   C3A19445  26.055  43.160   7.950
 4613POPC   C4A19446  26.074  43.072   7.650
 4613POPC   C1B19447  26.273  43.214   8.550
 4613POPC   C2B19448  26.285  43.155   8.250
 4613POPC   C3B19449  26.272  43.202   7.950
 4613POPC   C4B19450  26.255  43.143   7.650
 4614POPC   NC319451  10.521   2.002   9.450
 4614POPC   PO419452  10.486   1.958   9.150
 4614POPC   GL119453  10.489   2.008   8.850
 4614POPC   GL219454  10.463   1.868   8.850
 4614POPC   C1A19455  10.531   1.994   8.550
 4614POPC   D2A19456  10.551   1.949   8.250
 4614POPC   C3A19457  10.537   1.955   7.950
 4614POPC   C4A19458  10.487   1.996   7.650
 4614POPC   C1B19459  10.446   1.730   8.550
 4614POPC   C2B19460  10.393   1.744   8.250
 4614POPC   C3B19461  10.367   1.740   7.950
 4614POPC   C4B19462  10.419   1.746   7.650
 4615POPC   NC319463  35.360  38.501   9.450
 4615POPC   PO419464  35.382  38.442   9.150
 4615POPC   GL119465  35.316  38.429   8.850
 4615POPC   GL219466  35.344  38.583   8.850
 4615POPC   C1A19467  35.356  38.485   8.550
 4615POPC   D2A19468  35.384  38.456   8.250
 4615POPC   C3A19469  35.396  38.479   7.950
 4615POPC   C4A19470  35.345  38.453   7.650
 4615POPC   C1B19471  35.292  38.695   8.550
 4615POPC   C2B19472  35.282  38.694   8.250
 4615POPC   C3B19473  35.315  38.668   7.950
 4615POPC   C4B19474  35.312  38.719   7.650
 4616POPC   NC319475   4.326  28.393   9.450
 4616POPC   PO419476   4.351  28.376   9.150
 4616POPC   GL119477   4.279  28.411   8.850
 4616POPC   GL219478   4.222  28.285   8.850
 4616POPC   C1A19479   4.334  28.372   8.550
 4616POPC   D2A19480   4.301  28.384   8.250
 4616POPC   C3A19481   4.268  28.406   7.950
 4616POPC   C4A19482   4.281  28.328   7.650
 4616POPC   C1B19483   4.088  28.226   8.550
 4616POPC   C2B19484   4.137  28.238   8.250
 4616POPC   C3B19485   4.122  28.272   7.950
 4616POPC   C4B19486   4.069  28.270   7.650
 4617POPC   NC319487   3.564   1.963   9.450
 4617POPC   PO419488   3.492   1.989   9.150
 4617POPC   GL119489   3.502   1.969   8.850
 4617POPC   GL219490   3.413   1.981   8.850
 4617POPC   C1A19491   3.511   1.955   8.550
 4617POPC   D2A19492   3.554   1.941   8.250
 4617POPC   C3A19493   3.587   2.018   7.950
 4617POPC   C4A19494   3.517   1.985   7.650
 4617POPC   C1B19495   3.314   2.022   8.550
 4617POPC   C2B19496   3.264   2.046   8.250
 4617POPC   C3B19497   3.299   2.000   7.950
 4617POPC   C4B19498   3.320   2.056   7.650
 4618POPC   NC319499   3.532  17.509   9.450
 4618POPC   PO419500   3.500  17.497   9.150
 4618POPC   GL119501   3.505  17.484   8.850
 4618POPC   GL219502   3.677  17.459   8.850
 4618POPC   C1A19503   3.533  17.544   8.550
 4618POPC   D2A19504   3.557  17.550   8.250
 4618POPC   C3A19505   3.576  17.516   7.950
 4618POPC   C4A19506   3.511  17.503   7.650
 4618POPC   C1B19507   3.831  17.450   8.550
 4618POPC   C2B19508   3.788  17.489   8.250
 4618POPC   C3B19509   3.784  17.447   7.950
 4618POPC   C4B19510   3.779  17.459   7.650
 4619POPC   NC319511   4.320  26.052   9.450
 4619POPC   PO419512   4.311  26.030   9.150
 4619POPC   GL119513   4.278  25.999   8.850
 4619POPC   GL219514   4.277  26.163   8.850
 4619POPC   C1A19515   4.302  26.074   8.550
 4619POPC   D2A19516   4.330  26.054   8.250
 4619POPC   C3A19517   4.313  26.068   7.950
 4619POPC   C4A19518   4.270  26.071   7.650
 4619POPC   C1B19519   4.238  26.274   8.550
 4619POPC   C2B19520   4.243  26.323   8.250
 4619POPC   C3B19521   4.268  26.325   7.950
 4619POPC   C4B19522   4.251  26.336   7.650
 4620POPC   NC319523  37.692  42.361   9.450
 4620POPC   PO419524  37.630  42.366   9.150
 4620POPC   GL119525  37.692  42.317   8.850
 4620POPC   GL219526  37.724  42.500   8.850
 4620POPC   C1A19527  37.702  42.372   8.550
 4620POPC   D2A19528  37.690  42.338   8.250
 4620POPC   C3A19529  37.658  42.370   7.950
 4620POPC   C4A19530  37.698  42.298   7.650
 4620POPC   C1B19531  37.777  42.617   8.550
 4620POPC   C2B19532  37.749  42.571   8.250
 4620POPC   C3B19533  37.726  42.575   7.950
 4620POPC   C4B19534  37.749  42.556   7.650
 4621POPC   NC319535   0.442  40.030   9.450
 4621POPC   PO419536   0.487  40.033   9.150
 4621POPC   GL119537   0.429  40.041   8.850
 4621POPC   GL219538   0.393  39.917   8.850
 4621POPC   C1A19539   0.438  39.983   8.550
 4621POPC   D2A19540   0.448  39.968   8.250
 4621POPC   C3A19541   0.420  40.017   7.950
 4621POPC   C4A19542   0.454  39.979   7.650
 4621POPC   C1B19543   0.402  39.754   8.550
 4621POPC   C2B19544   0.392  39.721   8.250
 4621POPC   C3B19545   0.389  39.715   7.950
 4621POPC   C4B19546   0.430  39.763   7.650
 4622POPC   NC319547  30.650  16.719   9.450
 4622POPC   PO419548  30.686  16.717   9.150
 4622POPC   GL119549  30.729  16.692   8.850
 4622POPC   GL219550  30.654  16.651   8.850
 4622POPC   C1A19551  30.680  16.712   8.550
 4622POPC   D2A19552  30.682  16.744   8.250
 4622POPC   C3A19553  30.647  16.775   7.950
 4622POPC   C4A19554  30.719  16.712   7.650
 4622POPC   C1B19555  30.604  16.475   8.550
 4622POPC   C2B19556  30.601  16.480   8.250
 4622POPC   C3B19557  30.618  16.517   7.950
 4622POPC   C4B19558  30.573  16.499   7.650
 4623POPC   NC319559  37.660  20.627   9.450
 4623POPC   PO419560  37.667  20.601   9.150
 4623POPC   GL119561  37.667  20.648   8.850
 4623POPC   GL219562  37.594  20.533   8.850
 4623POPC   C1A19563  37.645  20.635   8.550
 4623POPC   D2A19564  37.690  20.649   8.250
 4623POPC   C3A19565  37.687  20.605   7.950
 4623POPC   C4A19566  37.725  20.614   7.650
 4623POPC   C1B19567  37.546  20.381   8.550
 4623POPC   C2B19568  37.591  20.406   8.250
 4623POPC   C3B19569  37.592  20.349   7.950
 4623POPC   C4B19570  37.539  20.377   7.650
 4624POPC   NC319571  40.770  29.970   9.450
 4624POPC   PO419572  40.814  29.874   9.150
 4624POPC   GL119573  40.743  29.942   8.850
 4624POPC   GL219574  40.883  29.948   8.850
 4624POPC   C1A19575  40.832  29.895   8.550
 4624POPC   D2A19576  40.817  29.910   8.250
 4624POPC   C3A19577  40.748  29.930   7.950
 4624POPC   C4A19578  40.743  29.882   7.650
 4624POPC   C1B19579  41.031  29.951   8.550
 4624POPC   C2B19580  41.037  29.974   8.250
 4624POPC   C3B19581  41.034  30.010   7.950
 4624POPC   C4B19582  41.034  29.962   7.650
 4625POPC   NC319583  15.160  44.621   9.450
 4625POPC   PO419584  15.218  44.674   9.150
 4625POPC   GL119585  15.161  44.632   8.850
 4625POPC   GL219586  15.261  44.724   8.850
 4625POPC   C1A19587  15.219  44.645   8.550
 4625POPC   D2A19588  15.202  44.675   8.250
 4625POPC   C3A19589  15.216  44.621   7.950
 4625POPC   C4A19590  15.136  44.616   7.650
 4625POPC   C1B19591  15.280  44.920   8.550
 4625POPC   C2B19592  15.337  44.828   8.250
 4625POPC   C3B19593  15.258  44.835   7.950
 4625POPC   C4B19594  15.296  44.869   7.650
 4626POPC   NC319595  29.167  33.008   9.450
 4626POPC   PO419596  29.193  32.995   9.150
 4626POPC   GL119597  29.170  32.976   8.850
 4626POPC   GL219598  29.191  33.101   8.850
 4626POPC   C1A19599  29.159  32.987   8.550
 4626POPC   D2A19600  29.147  33.003   8.250
 4626POPC   C3A19601  29.182  33.015   7.950
 4626POPC   C4A19602  29.178  33.023   7.650
 4626POPC   C1B19603  29.312  33.209   8.550
 4626POPC   C2B19604  29.374  33.175   8.250
 4626POPC   C3B19605  29.336  33.208   7.950
 4626POPC   C4B19606  29.314  33.175   7.650
 4627POPC   NC319607   8.927   2.024   9.450
 4627POPC   PO419608   8.935   1.992   9.150
 4627POPC   GL119609   9.014   1.955   8.850
 4627POPC   GL219610   8.915   1.825   8.850
 4627POPC   C1A19611   8.941   1.970   8.550
 4627POPC   D2A19612   8.972   1.974   8.250
 4627POPC   C3A19613   8.933   1.997   7.950
 4627POPC   C4A19614   8.992   2.025   7.650
 4627POPC   C1B19615   8.888   1.697   8.550
 4627POPC   C2B19616   8.972   1.768   8.250
 4627POPC   C3B19617   8.965   1.787   7.950
 4627POPC   C4B19618   8.967   1.791   7.650
 4628POPC   NC319619  26.857  35.359   9.450
 4628POPC   PO419620  26.833  35.401   9.150
 4628POPC   GL119621  26.863  35.400   8.850
 4628POPC   GL219622  26.815  35.481   8.850
 4628POPC   C1A19623  26.855  35.335   8.550
 4628POPC   D2A19624  26.835  35.373   8.250
 4628POPC   C3A19625  26.781  35.311   7.950
 4628POPC   C4A19626  26.791  35.318   7.650
 4628POPC   C1B19627  26.747  35.600   8.550
 4628POPC   C2B19628  26.801  35.547   8.250
 4628POPC   C3B19629  26.729  35.592   7.950
 4628POPC   C4B19630  26.746  35.638   7.650
 4629POPC   NC319631  28.333  33.788   9.450
 4629POPC   PO419632  28.394  33.828   9.150
 4629POPC   GL119633  28.321  33.795   8.850
 4629POPC   GL219634  28.499  33.812   8.850
 4629POPC   C1A19635  28.320  33.828   8.550
 4629POPC   D2A19636  28.380  33.756   8.250
 4629POPC   C3A19637  28.380  33.774   7.950
 4629POPC   C4A19638  28.397  33.845   7.650
 4629POPC   C1B19639  28.619  33.892   8.550
 4629POPC   C2B19640  28.588  33.847   8.250
 4629POPC   C3B19641  28.598  33.844   7.950
 4629POPC   C4B19642  28.638  33.893   7.650
 4630POPC   NC319643  39.258  32.252   9.450
 4630POPC   PO419644  39.273  32.228   9.150
 4630POPC   GL119645  39.202  32.217   8.850
 4630POPC   GL219646  39.358  32.110   8.850
 4630POPC   C1A19647  39.235  32.271   8.550
 4630POPC   D2A19648  39.225  32.268   8.250
 4630POPC   C3A19649  39.238  32.256   7.950
 4630POPC   C4A19650  39.204  32.240   7.650
 4630POPC   C1B19651  39.385  32.084   8.550
 4630POPC   C2B19652  39.373  32.060   8.250
 4630POPC   C3B19653  39.379  32.028   7.950
 4630POPC   C4B19654  39.364  32.068   7.650
 4631POPC   NC319655  10.529  43.113   9.450
 4631POPC   PO419656  10.542  43.143   9.150
 4631POPC   GL119657  10.560  43.073   8.850
 4631POPC   GL219658  10.588  43.041   8.850
 4631POPC   C1A19659  10.513  43.114   8.550
 4631POPC   D2A19660  10.546  43.153   8.250
 4631POPC   C3A19661  10.476  43.105   7.950
 4631POPC   C4A19662  10.519  43.098   7.650
 4631POPC   C1B19663  10.560  42.828   8.550
 4631POPC   C2B19664  10.554  42.906   8.250
 4631POPC   C3B19665  10.568  42.886   7.950
 4631POPC   C4B19666  10.625  42.856   7.650
 4632POPC   NC319667  19.026  16.720   9.450
 4632POPC   PO419668  19.023  16.761   9.150
 4632POPC   GL119669  19.084  16.753   8.850
 4632POPC   GL219670  19.143  16.603   8.850
 4632POPC   C1A19671  19.049  16.716   8.550
 4632POPC   D2A19672  19.031  16.725   8.250
 4632POPC   C3A19673  19.084  16.692   7.950
 4632POPC   C4A19674  19.046  16.687   7.650
 4632POPC   C1B19675  19.161  16.540   8.550
 4632POPC   C2B19676  19.137  16.491   8.250
 4632POPC   C3B19677  19.132  16.544   7.950
 4632POPC   C4B19678  19.155  16.486   7.650
 4633POPC   NC319679  36.866  38.435   9.450
 4633POPC   PO419680  36.881  38.422   9.150
 4633POPC   GL119681  36.918  38.463   8.850
 4633POPC   GL219682  36.817  38.514   8.850
 4633POPC   C1A19683  36.864  38.494   8.550
 4633POPC   D2A19684  36.909  38.433   8.250
 4633POPC   C3A19685  36.897  38.481   7.950
 4633POPC   C4A19686  36.856  38.504   7.650
 4633POPC   C1B19687  36.774  38.655   8.550
 4633POPC   C2B19688  36.777  38.680   8.250
 4633POPC   C3B19689  36.714  38.646   7.950
 4633POPC   C4B19690  36.781  38.681   7.650
 4634POPC   NC319691  24.460  10.549   9.450
 4634POPC   PO419692  24.524  10.544   9.150
 4634POPC   GL119693  24.462  10.567   8.850
 4634POPC   GL219694  24.384  10.603   8.850
 4634POPC   C1A19695  24.453  10.548   8.550
 4634POPC   D2A19696  24.509  10.530   8.250
 4634POPC   C3A19697  24.461  10.514   7.950
 4634POPC   C4A19698  24.497  10.494   7.650
 4634POPC   C1B19699  24.267  10.595   8.550
 4634POPC   C2B19700  24.259  10.638   8.250
 4634POPC   C3B19701  24.283  10.639   7.950
 4634POPC   C4B19702  24.289  10.617   7.650
 4635POPC   NC319703  32.238  33.756   9.450
 4635POPC   PO419704  32.263  33.782   9.150
 4635POPC   GL119705  32.233  33.836   8.850
 4635POPC   GL219706  32.407  33.901   8.850
 4635POPC   C1A19707  32.296  33.803   8.550
 4635POPC   D2A19708  32.238  33.834   8.250
 4635POPC   C3A19709  32.213  33.753   7.950
 4635POPC   C4A19710  32.297  33.771   7.650
 4635POPC   C1B19711  32.439  33.914   8.550
 4635POPC   C2B19712  32.491  33.896   8.250
 4635POPC   C3B19713  32.507  33.934   7.950
 4635POPC   C4B19714  32.429  33.925   7.650
 4636POPC   NC319715  34.573  33.787   9.450
 4636POPC   PO419716  34.586  33.807   9.150
 4636POPC   GL119717  34.548  33.835   8.850
 4636POPC   GL219718  34.738  33.781   8.850
 4636POPC   C1A19719  34.564  33.767   8.550
 4636POPC   D2A19720  34.578  33.801   8.250
 4636POPC   C3A19721  34.531  33.767   7.950
 4636POPC   C4A19722  34.608  33.828   7.650
 4636POPC   C1B19723  34.864  33.797   8.550
 4636POPC   C2B19724  34.834  33.826   8.250
 4636POPC   C3B19725  34.833  33.789   7.950
 4636POPC   C4B19726  34.813  33.825   7.650
 4637POPC   NC319727  20.611  14.435   9.450
 4637POPC   PO419728  20.566  14.382   9.150
 4637POPC   GL119729  20.590  14.412   8.850
 4637POPC   GL219730  20.547  14.456   8.850
 4637POPC   C1A19731  20.585  14.426   8.550
 4637POPC   D2A19732  20.611  14.404   8.250
 4637POPC   C3A19733  20.641  14.436   7.950
 4637POPC   C4A19734  20.619  14.443   7.650
 4637POPC   C1B19735  20.380  14.533   8.550
 4637POPC   C2B19736  20.411  14.591   8.250
 4637POPC   C3B19737  20.424  14.597   7.950
 4637POPC   C4B19738  20.417  14.580   7.650
 4638POPC   NC319739   9.715  33.818   9.450
 4638POPC   PO419740   9.759  33.805   9.150
 4638POPC   GL119741   9.784  33.758   8.850
 4638POPC   GL219742   9.905  33.728   8.850
 4638POPC   C1A19743   9.785  33.818   8.550
 4638POPC   D2A19744   9.758  33.752   8.250
 4638POPC   C3A19745   9.747  33.803   7.950
 4638POPC   C4A19746   9.721  33.793   7.650
 4638POPC   C1B19747   9.944  33.706   8.550
 4638POPC   C2B19748   9.954  33.727   8.250
 4638POPC   C3B19749   9.964  33.740   7.950
 4638POPC   C4B19750   9.937  33.696   7.650
 4639POPC   NC319751  36.087  38.461   9.450
 4639POPC   PO419752  36.165  38.417   9.150
 4639POPC   GL119753  36.111  38.431   8.850
 4639POPC   GL219754  36.090  38.548   8.850
 4639POPC   C1A19755  36.093  38.501   8.550
 4639POPC   D2A19756  36.134  38.434   8.250
 4639POPC   C3A19757  36.122  38.483   7.950
 4639POPC   C4A19758  36.165  38.408   7.650
 4639POPC   C1B19759  36.072  38.716   8.550
 4639POPC   C2B19760  36.069  38.680   8.250
 4639POPC   C3B19761  36.110  38.744   7.950
 4639POPC   C4B19762  36.122  38.744   7.650
 4640POPC   NC319763  29.899  22.986   9.450
 4640POPC   PO419764  29.931  22.896   9.150
 4640POPC   GL119765  29.918  22.984   8.850
 4640POPC   GL219766  29.940  22.808   8.850
 4640POPC   C1A19767  29.945  22.937   8.550
 4640POPC   D2A19768  29.968  22.971   8.250
 4640POPC   C3A19769  29.934  22.938   7.950
 4640POPC   C4A19770  29.913  22.956   7.650
 4640POPC   C1B19771  29.996  22.655   8.550
 4640POPC   C2B19772  29.965  22.693   8.250
 4640POPC   C3B19773  29.996  22.712   7.950
 4640POPC   C4B19774  30.002  22.721   7.650
 4641POPC   NC319775  21.432  26.863   9.450
 4641POPC   PO419776  21.393  26.778   9.150
 4641POPC   GL119777  21.359  26.813   8.850
 4641POPC   GL219778  21.337  26.946   8.850
 4641POPC   C1A19779  21.394  26.861   8.550
 4641POPC   D2A19780  21.401  26.782   8.250
 4641POPC   C3A19781  21.428  26.786   7.950
 4641POPC   C4A19782  21.416  26.809   7.650
 4641POPC   C1B19783  21.294  27.069   8.550
 4641POPC   C2B19784  21.337  27.013   8.250
 4641POPC   C3B19785  21.336  27.064   7.950
 4641POPC   C4B19786  21.301  27.033   7.650
 4642POPC   NC319787   0.449  25.277   9.450
 4642POPC   PO419788   0.394  25.314   9.150
 4642POPC   GL119789   0.400  25.224   8.850
 4642POPC   GL219790   0.526  25.255   8.850
 4642POPC   C1A19791   0.482  25.305   8.550
 4642POPC   D2A19792   0.399  25.229   8.250
 4642POPC   C3A19793   0.460  25.280   7.950
 4642POPC   C4A19794   0.456  25.246   7.650
 4642POPC   C1B19795   0.661  25.241   8.550
 4642POPC   C2B19796   0.677  25.261   8.250
 4642POPC   C3B19797   0.645  25.248   7.950
 4642POPC   C4B19798   0.686  25.272   7.650
 4643POPC   NC319799  33.785  38.492   9.450
 4643POPC   PO419800  33.752  38.451   9.150
 4643POPC   GL119801  33.822  38.418   8.850
 4643POPC   GL219802  33.735  38.355   8.850
 4643POPC   C1A19803  33.759  38.434   8.550
 4643POPC   D2A19804  33.761  38.466   8.250
 4643POPC   C3A19805  33.798  38.430   7.950
 4643POPC   C4A19806  33.805  38.428   7.650
 4643POPC   C1B19807  33.557  38.281   8.550
 4643POPC   C2B19808  33.615  38.361   8.250
 4643POPC   C3B19809  33.624  38.288   7.950
 4643POPC   C4B19810  33.613  38.288   7.650
 4644POPC   NC319811  11.318   5.069   9.450
 4644POPC   PO419812  11.325   5.088   9.150
 4644POPC   GL119813  11.284   5.059   8.850
 4644POPC   GL219814  11.384   5.081   8.850
 4644POPC   C1A19815  11.291   5.072   8.550
 4644POPC   D2A19816  11.258   5.131   8.250
 4644POPC   C3A19817  11.320   5.103   7.950
 4644POPC   C4A19818  11.349   5.124   7.650
 4644POPC   C1B19819  11.511   5.121   8.550
 4644POPC   C2B19820  11.596   5.084   8.250
 4644POPC   C3B19821  11.532   5.136   7.950
 4644POPC   C4B19822  11.568   5.134   7.650
 4645POPC   NC319823  11.255  26.821   9.450
 4645POPC   PO419824  11.287  26.844   9.150
 4645POPC   GL119825  11.264  26.794   8.850
 4645POPC   GL219826  11.368  26.691   8.850
 4645POPC   C1A19827  11.262  26.840   8.550
 4645POPC   D2A19828  11.257  26.863   8.250
 4645POPC   C3A19829  11.345  26.800   7.950
 4645POPC   C4A19830  11.318  26.863   7.650
 4645POPC   C1B19831  11.442  26.602   8.550
 4645POPC   C2B19832  11.438  26.594   8.250
 4645POPC   C3B19833  11.424  26.585   7.950
 4645POPC   C4B19834  11.456  26.631   7.650
 4646POPC   NC319835  12.062  20.571   9.450
 4646POPC   PO419836  12.086  20.588   9.150
 4646POPC   GL119837  12.089  20.609   8.850
 4646POPC   GL219838  12.088  20.782   8.850
 4646POPC   C1A19839  12.060  20.630   8.550
 4646POPC   D2A19840  12.119  20.612   8.250
 4646POPC   C3A19841  12.077  20.565   7.950
 4646POPC   C4A19842  12.124  20.646   7.650
 4646POPC   C1B19843  11.975  20.848   8.550
 4646POPC   C2B19844  11.998  20.881   8.250
 4646POPC   C3B19845  12.007  20.846   7.950
 4646POPC   C4B19846  12.006  20.887   7.650
 4647POPC   NC319847  19.821   8.198   9.450
 4647POPC   PO419848  19.873   8.180   9.150
 4647POPC   GL119849  19.794   8.162   8.850
 4647POPC   GL219850  19.856   8.315   8.850
 4647POPC   C1A19851  19.868   8.156   8.550
 4647POPC   D2A19852  19.857   8.148   8.250
 4647POPC   C3A19853  19.872   8.204   7.950
 4647POPC   C4A19854  19.824   8.197   7.650
 4647POPC   C1B19855  19.881   8.472   8.550
 4647POPC   C2B19856  19.833   8.491   8.250
 4647POPC   C3B19857  19.846   8.422   7.950
 4647POPC   C4B19858  19.868   8.422   7.650
 4648POPC   NC319859  29.875  37.701   9.450
 4648POPC   PO419860  29.930  37.714   9.150
 4648POPC   GL119861  29.891  37.670   8.850
 4648POPC   GL219862  29.968  37.748   8.850
 4648POPC   C1A19863  29.902  37.701   8.550
 4648POPC   D2A19864  29.951  37.704   8.250
 4648POPC   C3A19865  29.895  37.671   7.950
 4648POPC   C4A19866  29.925  37.637   7.650
 4648POPC   C1B19867  30.111  37.887   8.550
 4648POPC   C2B19868  30.114  37.877   8.250
 4648POPC   C3B19869  30.106  37.885   7.950
 4648POPC   C4B19870  30.068  37.873   7.650
 4649POPC   NC319871  19.795  29.892   9.450
 4649POPC   PO419872  19.791  29.921   9.150
 4649POPC   GL119873  19.857  29.956   8.850
 4649POPC   GL219874  19.866  30.044   8.850
 4649POPC   C1A19875  19.807  29.916   8.550
 4649POPC   D2A19876  19.807  29.905   8.250
 4649POPC   C3A19877  19.849  29.953   7.950
 4649POPC   C4A19878  19.827  29.894   7.650
 4649POPC   C1B19879  19.989  30.104   8.550
 4649POPC   C2B19880  19.977  30.113   8.250
 4649POPC   C3B19881  19.927  30.186   7.950
 4649POPC   C4B19882  19.943  30.171   7.650
 4650POPC   NC319883   5.872  40.049   9.450
 4650POPC   PO419884   5.906  40.023   9.150
 4650POPC   GL119885   5.838  40.051   8.850
 4650POPC   GL219886   5.870  40.112   8.850
 4650POPC   C1A19887   5.851  39.981   8.550
 4650POPC   D2A19888   5.852  40.056   8.250
 4650POPC   C3A19889   5.882  40.032   7.950
 4650POPC   C4A19890   5.875  39.968   7.650
 4650POPC   C1B19891   5.885  40.264   8.550
 4650POPC   C2B19892   5.873  40.276   8.250
 4650POPC   C3B19893   5.899  40.242   7.950
 4650POPC   C4B19894   5.918  40.251   7.650
 4651POPC   NC319895  16.770  22.973   9.450
 4651POPC   PO419896  16.750  22.920   9.150
 4651POPC   GL119897  16.747  22.985   8.850
 4651POPC   GL219898  16.772  23.045   8.850
 4651POPC   C1A19899  16.765  22.906   8.550
 4651POPC   D2A19900  16.722  22.967   8.250
 4651POPC   C3A19901  16.777  22.898   7.950
 4651POPC   C4A19902  16.707  22.983   7.650
 4651POPC   C1B19903  16.861  23.194   8.550
 4651POPC   C2B19904  16.829  23.149   8.250
 4651POPC   C3B19905  16.800  23.150   7.950
 4651POPC   C4B19906  16.790  23.139   7.650
 4652POPC   NC319907  33.046   4.334   9.450
 4652POPC   PO419908  33.042   4.305   9.150
 4652POPC   GL119909  33.003   4.321   8.850
 4652POPC   GL219910  32.987   4.253   8.850
 4652POPC   C1A19911  33.040   4.321   8.550
 4652POPC   D2A19912  33.015   4.342   8.250
 4652POPC   C3A19913  33.069   4.326   7.950
 4652POPC   C4A19914  33.024   4.325   7.650
 4652POPC   C1B19915  32.876   4.082   8.550
 4652POPC   C2B19916  32.835   4.110   8.250
 4652POPC   C3B19917  32.863   4.125   7.950
 4652POPC   C4B19918  32.829   4.109   7.650
 4653POPC   NC319919  39.253  29.962   9.450
 4653POPC   PO419920  39.248  29.878   9.150
 4653POPC   GL119921  39.192  29.937   8.850
 4653POPC   GL219922  39.152  30.009   8.850
 4653POPC   C1A19923  39.241  29.907   8.550
 4653POPC   D2A19924  39.265  29.872   8.250
 4653POPC   C3A19925  39.192  29.908   7.950
 4653POPC   C4A19926  39.231  29.970   7.650
 4653POPC   C1B19927  39.010  30.069   8.550
 4653POPC   C2B19928  39.065  30.040   8.250
 4653POPC   C3B19929  38.990  30.027   7.950
 4653POPC   C4B19930  39.035  30.100   7.650
 4654POPC   NC319931   0.445   0.395   9.450
 4654POPC   PO419932   0.439   0.453   9.150
 4654POPC   GL119933   0.393   0.464   8.850
 4654POPC   GL219934   0.511   0.524   8.850
 4654POPC   C1A19935   0.399   0.481   8.550
 4654POPC   D2A19936   0.392   0.427   8.250
 4654POPC   C3A19937   0.440   0.424   7.950
 4654POPC   C4A19938   0.463   0.426   7.650
 4654POPC   C1B19939   0.695   0.502   8.550
 4654POPC   C2B19940   0.710   0.513   8.250
 4654POPC   C3B19941   0.691   0.503   7.950
 4654POPC   C4B19942   0.657   0.528   7.650
 4655POPC   NC319943  28.340  36.889   9.450
 4655POPC   PO419944  28.379  36.924   9.150
 4655POPC   GL119945  28.393  36.945   8.850
 4655POPC   GL219946  28.351  37.017   8.850
 4655POPC   C1A19947  28.340  36.914   8.550
 4655POPC   D2A19948  28.405  36.907   8.250
 4655POPC   C3A19949  28.398  36.912   7.950
 4655POPC   C4A19950  28.338  36.909   7.650
 4655POPC   C1B19951  28.245  37.112   8.550
 4655POPC   C2B19952  28.273  37.157   8.250
 4655POPC   C3B19953  28.223  37.133   7.950
 4655POPC   C4B19954  28.274  37.141   7.650
 4656POPC   NC319955  29.962  29.927   9.450
 4656POPC   PO419956  29.957  29.959   9.150
 4656POPC   GL119957  29.916  29.894   8.850
 4656POPC   GL219958  29.865  29.805   8.850
 4656POPC   C1A19959  29.918  29.924   8.550
 4656POPC   D2A19960  29.883  29.873   8.250
 4656POPC   C3A19961  29.964  29.907   7.950
 4656POPC   C4A19962  29.874  29.920   7.650
 4656POPC   C1B19963  29.798  29.749   8.550
 4656POPC   C2B19964  29.795  29.686   8.250
 4656POPC   C3B19965  29.732  29.750   7.950
 4656POPC   C4B19966  29.731  29.754   7.650
 4657POPC   NC319967  27.605  32.989   9.450
 4657POPC   PO419968  27.584  32.991   9.150
 4657POPC   GL119969  27.559  33.009   8.850
 4657POPC   GL219970  27.444  32.994   8.850
 4657POPC   C1A19971  27.545  33.033   8.550
 4657POPC   D2A19972  27.582  33.068   8.250
 4657POPC   C3A19973  27.632  32.995   7.950
 4657POPC   C4A19974  27.557  33.032   7.650
 4657POPC   C1B19975  27.339  32.888   8.550
 4657POPC   C2B19976  27.386  32.890   8.250
 4657POPC   C3B19977  27.389  32.863   7.950
 4657POPC   C4B19978  27.340  32.941   7.650
 4658POPC   NC319979  28.341  17.465   9.450
 4658POPC   PO419980  28.349  17.505   9.150
 4658POPC   GL119981  28.345  17.502   8.850
 4658POPC   GL219982  28.289  17.498   8.850
 4658POPC   C1A19983  28.376  17.543   8.550
 4658POPC   D2A19984  28.350  17.523   8.250
 4658POPC   C3A19985  28.397  17.523   7.950
 4658POPC   C4A19986  28.373  17.530   7.650
 4658POPC   C1B19987  28.181  17.470   8.550
 4658POPC   C2B19988  28.116  17.446   8.250
 4658POPC   C3B19989  28.175  17.451   7.950
 4658POPC   C4B19990  28.110  17.415   7.650
 4659POPC   NC319991  37.723  44.646   9.450
 4659POPC   PO419992  37.720  44.680   9.150
 4659POPC   GL119993  37.708  44.691   8.850
 4659POPC   GL219994  37.743  44.576   8.850
 4659POPC   C1A19995  37.653  44.621   8.550
 4659POPC   D2A19996  37.691  44.677   8.250
 4659POPC   C3A19997  37.729  44.671   7.950
 4659POPC   C4A19998  37.684  44.618   7.650
 4659POPC   C1B19999  37.815  44.502   8.550
 4659POPC   C2B20000  37.811  44.467   8.250
 4659POPC   C3B20001  37.797  44.498   7.950
 4659POPC   C4B20002  37.814  44.486   7.650
 4660POPC   NC320003   9.792   5.900   9.450
 4660POPC   PO420004   9.785   5.898   9.150
 4660POPC   GL120005   9.791   5.865   8.850
 4660POPC   GL220006   9.826   5.959   8.850
 4660POPC   C1A20007   9.727   5.831   8.550
 4660POPC   D2A20008   9.754   5.838   8.250
 4660POPC   C3A20009   9.707   5.906   7.950
 4660POPC   C4A20010   9.768   5.892   7.650
 4660POPC   C1B20011   9.974   5.965   8.550
 4660POPC   C2B20012   9.915   5.977   8.250
 4660POPC   C3B20013   9.918   6.039   7.950
 4660POPC   C4B20014   9.969   6.011   7.650
 4661POPC   NC320015  22.909  20.652   9.450
 4661POPC   PO420016  22.897  20.658   9.150
 4661POPC   GL120017  22.984  20.637   8.850
 4661POPC   GL220018  22.991  20.752   8.850
 4661POPC   C1A20019  22.941  20.595   8.550
 4661POPC   D2A20020  22.940  20.564   8.250
 4661POPC   C3A20021  22.949  20.643   7.950
 4661POPC   C4A20022  22.968  20.624   7.650
 4661POPC   C1B20023  22.964  20.874   8.550
 4661POPC   C2B20024  22.941  20.869   8.250
 4661POPC   C3B20025  22.928  20.852   7.950
 4661POPC   C4B20026  22.941  20.896   7.650
 4662POPC   NC320027  10.477   8.190   9.450
 4662POPC   PO420028  10.567   8.246   9.150
 4662POPC   GL120029  10.511   8.192   8.850
 4662POPC   GL220030  10.408   8.227   8.850
 4662POPC   C1A20031  10.532   8.215   8.550
 4662POPC   D2A20032  10.515   8.239   8.250
 4662POPC   C3A20033  10.528   8.190   7.950
 4662POPC   C4A20034  10.534   8.219   7.650
 4662POPC   C1B20035  10.269   8.152   8.550
 4662POPC   C2B20036  10.267   8.192   8.250
 4662POPC   C3B20037  10.316   8.175   7.950
 4662POPC   C4B20038  10.303   8.149   7.650
 4663POPC   NC320039   8.964  11.287   9.450
 4663POPC   PO420040   8.992  11.257   9.150
 4663POPC   GL120041   9.000  11.315   8.850
 4663POPC   GL220042   8.856  11.280   8.850
 4663POPC   C1A20043   8.973  11.264   8.550
 4663POPC   D2A20044   8.951  11.303   8.250
 4663POPC   C3A20045   8.933  11.332   7.950
 4663POPC   C4A20046   8.955  11.301   7.650
 4663POPC   C1B20047   8.707  11.219   8.550
 4663POPC   C2B20048   8.763  11.220   8.250
 4663POPC   C3B20049   8.750  11.251   7.950
 4663POPC   C4B20050   8.705  11.203   7.650
 4664POPC   NC320051   6.674   1.214   9.450
 4664POPC   PO420052   6.642   1.220   9.150
 4664POPC   GL120053   6.689   1.237   8.850
 4664POPC   GL220054   6.501   1.326   8.850
 4664POPC   C1A20055   6.646   1.180   8.550
 4664POPC   D2A20056   6.636   1.194   8.250
 4664POPC   C3A20057   6.658   1.216   7.950
 4664POPC   C4A20058   6.621   1.189   7.650
 4664POPC   C1B20059   6.423   1.407   8.550
 4664POPC   C2B20060   6.442   1.411   8.250
 4664POPC   C3B20061   6.488   1.357   7.950
 4664POPC   C4B20062   6.494   1.374   7.650
 4665POPC   NC320063  44.679  15.995   9.450
 4665POPC   PO420064  44.638  15.953   9.150
 4665POPC   GL120065  44.682  15.986   8.850
 4665POPC   GL220066  44.775  15.857   8.850
 4665POPC   C1A20067  44.663  15.933   8.550
 4665POPC   D2A20068  44.638  15.946   8.250
 4665POPC   C3A20069  44.666  15.910   7.950
 4665POPC   C4A20070  44.668  15.923   7.650
 4665POPC   C1B20071  44.792  15.777   8.550
 4665POPC   C2B20072  44.822  15.761   8.250
 4665POPC   C3B20073  44.855  15.767   7.950
 4665POPC   C4B20074  44.839  15.752   7.650
 4666POPC   NC320075  20.566   8.942   9.450
 4666POPC   PO420076  20.620   8.976   9.150
 4666POPC   GL120077  20.638   9.012   8.850
 4666POPC   GL220078  20.658   8.892   8.850
 4666POPC   C1A20079  20.561   8.956   8.550
 4666POPC   D2A20080  20.643   8.940   8.250
 4666POPC   C3A20081  20.640   8.941   7.950
 4666POPC   C4A20082  20.645   8.993   7.650
 4666POPC   C1B20083  20.682   8.778   8.550
 4666POPC   C2B20084  20.629   8.777   8.250
 4666POPC   C3B20085  20.636   8.758   7.950
 4666POPC   C4B20086  20.628   8.691   7.650
 4667POPC   NC320087   8.934  12.883   9.450
 4667POPC   PO420088   8.970  12.868   9.150
 4667POPC   GL120089   9.015  12.829   8.850
 4667POPC   GL220090   8.900  12.955   8.850
 4667POPC   C1A20091   8.989  12.900   8.550
 4667POPC   D2A20092   8.977  12.805   8.250
 4667POPC   C3A20093   9.018  12.841   7.950
 4667POPC   C4A20094   9.004  12.895   7.650
 4667POPC   C1B20095   8.768  12.970   8.550
 4667POPC   C2B20096   8.724  13.012   8.250
 4667POPC   C3B20097   8.783  12.986   7.950
 4667POPC   C4B20098   8.784  12.945   7.650
 4668POPC   NC320099   2.774   2.800   9.450
 4668POPC   PO420100   2.721   2.728   9.150
 4668POPC   GL120101   2.808   2.764   8.850
 4668POPC   GL220102   2.695   2.781   8.850
 4668POPC   C1A20103   2.792   2.784   8.550
 4668POPC   D2A20104   2.772   2.772   8.250
 4668POPC   C3A20105   2.815   2.757   7.950
 4668POPC   C4A20106   2.785   2.751   7.650
 4668POPC   C1B20107   2.518   2.861   8.550
 4668POPC   C2B20108   2.503   2.816   8.250
 4668POPC   C3B20109   2.529   2.899   7.950
 4668POPC   C4B20110   2.520   2.869   7.650
 4669POPC   NC320111  19.812  25.276   9.450
 4669POPC   PO420112  19.842  25.307   9.150
 4669POPC   GL120113  19.796  25.230   8.850
 4669POPC   GL220114  19.683  25.207   8.850
 4669POPC   C1A20115  19.795  25.225   8.550
 4669POPC   D2A20116  19.883  25.256   8.250
 4669POPC   C3A20117  19.857  25.267   7.950
 4669POPC   C4A20118  19.785  25.265   7.650
 4669POPC   C1B20119  19.560  25.182   8.550
 4669POPC   C2B20120  19.605  25.229   8.250
 4669POPC   C3B20121  19.630  25.142   7.950
 4669POPC   C4B20122  19.643  25.146   7.650
 4670POPC   NC320123  35.354   0.408   9.450
 4670POPC   PO420124  35.385   0.414   9.150
 4670POPC   GL120125  35.350   0.443   8.850
 4670POPC   GL220126  35.280   0.421   8.850
 4670POPC   C1A20127  35.367   0.405   8.550
 4670POPC   D2A20128  35.349   0.388   8.250
 4670POPC   C3A20129  35.340   0.454   7.950
 4670POPC   C4A20130  35.346   0.452   7.650
 4670POPC   C1B20131  35.143   0.367   8.550
 4670POPC   C2B20132  35.156   0.392   8.250
 4670POPC   C3B20133  35.152   0.393   7.950
 4670POPC   C4B20134  35.114   0.365   7.650
 4671POPC   NC320135  16.719  23.735   9.450
 4671POPC   PO420136  16.703  23.691   9.150
 4671POPC   GL120137  16.721  23.717   8.850
 4671POPC   GL220138  16.703  23.587   8.850
 4671POPC   C1A20139  16.694  23.671   8.550
 4671POPC   D2A20140  16.714  23.677   8.250
 4671POPC   C3A20141  16.729  23.735   7.950
 4671POPC   C4A20142  16.753  23.734   7.650
 4671POPC   C1B20143  16.752  23.485   8.550
 4671POPC   C2B20144  16.739  23.462   8.250
 4671POPC   C3B20145  16.753  23.445   7.950
 4671POPC   C4B20146  16.702  23.419   7.650
 4672POPC   NC320147   9.785  36.144   9.450
 4672POPC   PO420148   9.703  36.125   9.150
 4672POPC   GL120149   9.699  36.080   8.850
 4672POPC   GL220150   9.896  36.119   8.850
 4672POPC   C1A20151   9.721  36.133   8.550
 4672POPC   D2A20152   9.747  36.083   8.250
 4672POPC   C3A20153   9.731  36.119   7.950
 4672POPC   C4A20154   9.727  36.140   7.650
 4672POPC   C1B20155  10.016  36.092   8.550
 4672POPC   C2B20156   9.973  36.137   8.250
 4672POPC   C3B20157   9.997  36.060   7.950
 4672POPC   C4B20158  10.018  36.123   7.650
 4673POPC   NC320159  11.344  36.164   9.450
 4673POPC   PO420160  11.321  36.099   9.150
 4673POPC   GL120161  11.263  36.125   8.850
 4673POPC   GL220162  11.269  36.238   8.850
 4673POPC   C1A20163  11.327  36.138   8.550
 4673POPC   D2A20164  11.254  36.159   8.250
 4673POPC   C3A20165  11.255  36.160   7.950
 4673POPC   C4A20166  11.289  36.152   7.650
 4673POPC   C1B20167  11.156  36.339   8.550
 4673POPC   C2B20168  11.180  36.325   8.250
 4673POPC   C3B20169  11.192  36.337   7.950
 4673POPC   C4B20170  11.216  36.327   7.650
 4674POPC   NC320171  43.066  43.844   9.450
 4674POPC   PO420172  43.100  43.840   9.150
 4674POPC   GL120173  43.145  43.933   8.850
 4674POPC   GL220174  43.120  43.799   8.850
 4674POPC   C1A20175  43.082  43.934   8.550
 4674POPC   D2A20176  43.096  43.935   8.250
 4674POPC   C3A20177  43.090  43.907   7.950
 4674POPC   C4A20178  43.103  43.899   7.650
 4674POPC   C1B20179  43.106  43.614   8.550
 4674POPC   C2B20180  43.137  43.627   8.250
 4674POPC   C3B20181  43.104  43.625   7.950
 4674POPC   C4B20182  43.071  43.673   7.650
 4675POPC   NC320183  31.431  13.637   9.450
 4675POPC   PO420184  31.485  13.668   9.150
 4675POPC   GL120185  31.475  13.671   8.850
 4675POPC   GL220186  31.391  13.687   8.850
 4675POPC   C1A20187  31.508  13.593   8.550
 4675POPC   D2A20188  31.464  13.639   8.250
 4675POPC   C3A20189  31.503  13.600   7.950
 4675POPC   C4A20190  31.459  13.648   7.650
 4675POPC   C1B20191  31.196  13.727   8.550
 4675POPC   C2B20192  31.240  13.751   8.250
 4675POPC   C3B20193  31.264  13.748   7.950
 4675POPC   C4B20194  31.284  13.752   7.650
 4676POPC   NC320195   4.314  35.383   9.450
 4676POPC   PO420196   4.333  35.388   9.150
 4676POPC   GL120197   4.323  35.401   8.850
 4676POPC   GL220198   4.379  35.476   8.850
 4676POPC   C1A20199   4.343  35.378   8.550
 4676POPC   D2A20200   4.348  35.358   8.250
 4676POPC   C3A20201   4.285  35.390   7.950
 4676POPC   C4A20202   4.277  35.346   7.650
 4676POPC   C1B20203   4.374  35.566   8.550
 4676POPC   C2B20204   4.301  35.638   8.250
 4676POPC   C3B20205   4.361  35.649   7.950
 4676POPC   C4B20206   4.392  35.603   7.650
 4677POPC   NC320207  33.795  12.098   9.450
 4677POPC   PO420208  33.759  12.065   9.150
 4677POPC   GL120209  33.823  12.052   8.850
 4677POPC   GL220210  33.751  12.159   8.850
 4677POPC   C1A20211  33.823  12.125   8.550
 4677POPC   D2A20212  33.807  12.106   8.250
 4677POPC   C3A20213  33.763  12.117   7.950
 4677POPC   C4A20214  33.776  12.051   7.650
 4677POPC   C1B20215  33.686  12.332   8.550
 4677POPC   C2B20216  33.635  12.247   8.250
 4677POPC   C3B20217  33.661  12.271   7.950
 4677POPC   C4B20218  33.629  12.302   7.650
 4678POPC   NC320219  42.366  36.166   9.450
 4678POPC   PO420220  42.291  36.164   9.150
 4678POPC   GL120221  42.322  36.135   8.850
 4678POPC   GL220222  42.377  36.064   8.850
 4678POPC   C1A20223  42.341  36.153   8.550
 4678POPC   D2A20224  42.321  36.148   8.250
 4678POPC   C3A20225  42.305  36.149   7.950
 4678POPC   C4A20226  42.324  36.113   7.650
 4678POPC   C1B20227  42.449  35.878   8.550
 4678POPC   C2B20228  42.465  35.881   8.250
 4678POPC   C3B20229  42.496  35.965   7.950
 4678POPC   C4B20230  42.506  35.877   7.650
 4679POPC   NC320231  35.304  20.589   9.450
 4679POPC   PO420232  35.348  20.611   9.150
 4679POPC   GL120233  35.346  20.604   8.850
 4679POPC   GL220234  35.330  20.748   8.850
 4679POPC   C1A20235  35.318  20.572   8.550
 4679POPC   D2A20236  35.354  20.650   8.250
 4679POPC   C3A20237  35.348  20.612   7.950
 4679POPC   C4A20238  35.330  20.607   7.650
 4679POPC   C1B20239  35.253  20.779   8.550
 4679POPC   C2B20240  35.164  20.775   8.250
 4679POPC   C3B20241  35.186  20.804   7.950
 4679POPC   C4B20242  35.190  20.841   7.650
 4680POPC   NC320243  21.393  17.552   9.450
 4680POPC   PO420244  21.337  17.468   9.150
 4680POPC   GL120245  21.381  17.542   8.850
 4680POPC   GL220246  21.364  17.345   8.850
 4680POPC   C1A20247  21.390  17.500   8.550
 4680POPC   D2A20248  21.394  17.490   8.250
 4680POPC   C3A20249  21.384  17.516   7.950
 4680POPC   C4A20250  21.366  17.508   7.650
 4680POPC   C1B20251  21.336  17.255   8.550
 4680POPC   C2B20252  21.348  17.270   8.250
 4680POPC   C3B20253  21.316  17.283   7.950
 4680POPC   C4B20254  21.319  17.233   7.650
 4681POPC   NC320255  31.479  26.058   9.450
 4681POPC   PO420256  31.515  26.070   9.150
 4681POPC   GL120257  31.455  26.056   8.850
 4681POPC   GL220258  31.528  25.875   8.850
 4681POPC   C1A20259  31.445  26.016   8.550
 4681POPC   D2A20260  31.506  26.042   8.250
 4681POPC   C3A20261  31.481  26.036   7.950
 4681POPC   C4A20262  31.495  26.010   7.650
 4681POPC   C1B20263  31.444  25.827   8.550
 4681POPC   C2B20264  31.458  25.797   8.250
 4681POPC   C3B20265  31.472  25.768   7.950
 4681POPC   C4B20266  31.531  25.791   7.650
 4682POPC   NC320267  17.484  11.310   9.450
 4682POPC   PO420268  17.554  11.319   9.150
 4682POPC   GL120269  17.557  11.317   8.850
 4682POPC   GL220270  17.600  11.356   8.850
 4682POPC   C1A20271  17.485  11.349   8.550
 4682POPC   D2A20272  17.463  11.304   8.250
 4682POPC   C3A20273  17.525  11.292   7.950
 4682POPC   C4A20274  17.544  11.305   7.650
 4682POPC   C1B20275  17.652  11.441   8.550
 4682POPC   C2B20276  17.723  11.474   8.250
 4682POPC   C3B20277  17.637  11.477   7.950
 4682POPC   C4B20278  17.666  11.517   7.650
 4683POPC   NC320279  26.051  18.263   9.450
 4683POPC   PO420280  26.053  18.243   9.150
 4683POPC   GL120281  26.054  18.273   8.850
 4683POPC   GL220282  25.912  18.293   8.850
 4683POPC   C1A20283  25.992  18.259   8.550
 4683POPC   D2A20284  26.027  18.249   8.250
 4683POPC   C3A20285  26.010  18.332   7.950
 4683POPC   C4A20286  26.004  18.262   7.650
 4683POPC   C1B20287  25.842  18.232   8.550
 4683POPC   C2B20288  25.827  18.301   8.250
 4683POPC   C3B20289  25.807  18.224   7.950
 4683POPC   C4B20290  25.758  18.301   7.650
 4684POPC   NC320291   8.244  40.776   9.450
 4684POPC   PO420292   8.236  40.740   9.150
 4684POPC   GL120293   8.164  40.792   8.850
 4684POPC   GL220294   8.121  40.640   8.850
 4684POPC   C1A20295   8.209  40.759   8.550
 4684POPC   D2A20296   8.230  40.769   8.250
 4684POPC   C3A20297   8.225  40.740   7.950
 4684POPC   C4A20298   8.151  40.790   7.650
 4684POPC   C1B20299   8.092  40.518   8.550
 4684POPC   C2B20300   8.137  40.561   8.250
 4684POPC   C3B20301   8.121  40.512   7.950
 4684POPC   C4B20302   8.093  40.560   7.650
 4685POPC   NC320303  20.621  28.375   9.450
 4685POPC   PO420304  20.629  28.382   9.150
 4685POPC   GL120305  20.589  28.342   8.850
 4685POPC   GL220306  20.695  28.428   8.850
 4685POPC   C1A20307  20.605  28.335   8.550
 4685POPC   D2A20308  20.590  28.379   8.250
 4685POPC   C3A20309  20.583  28.330   7.950
 4685POPC   C4A20310  20.628  28.352   7.650
 4685POPC   C1B20311  20.786  28.483   8.550
 4685POPC   C2B20312  20.823  28.532   8.250
 4685POPC   C3B20313  20.795  28.560   7.950
 4685POPC   C4B20314  20.839  28.494   7.650
 4686POPC   NC320315   8.952  33.839   9.450
 4686POPC   PO420316   8.966  33.807   9.150
 4686POPC   GL120317   9.015  33.757   8.850
 4686POPC   GL220318   8.899  33.759   8.850
 4686POPC   C1A20319   8.994  33.848   8.550
 4686POPC   D2A20320   8.986  33.795   8.250
 4686POPC   C3A20321   8.923  33.768   7.950
 4686POPC   C4A20322   8.985  33.770   7.650
 4686POPC   C1B20323   8.749  33.624   8.550
 4686POPC   C2B20324   8.746  33.692   8.250
 4686POPC   C3B20325   8.721  33.668   7.950
 4686POPC   C4B20326   8.781  33.624   7.650
 4687POPC   NC320327  24.454  35.350   9.450
 4687POPC   PO420328  24.489  35.340   9.150
 4687POPC   GL120329  24.447  35.341   8.850
 4687POPC   GL220330  24.623  35.276   8.850
 4687POPC   C1A20331  24.526  35.372   8.550
 4687POPC   D2A20332  24.497  35.316   8.250
 4687POPC   C3A20333  24.480  35.362   7.950
 4687POPC   C4A20334  24.474  35.362   7.650
 4687POPC   C1B20335  24.673  35.185   8.550
 4687POPC   C2B20336  24.724  35.262   8.250
 4687POPC   C3B20337  24.661  35.214   7.950
 4687POPC   C4B20338  24.711  35.220   7.650
 4688POPC   NC320339   0.389  37.668   9.450
 4688POPC   PO420340   0.407  37.687   9.150
 4688POPC   GL120341   0.455  37.695   8.850
 4688POPC   GL220342   0.320  37.744   8.850
 4688POPC   C1A20343   0.409  37.689   8.550
 4688POPC   D2A20344   0.440  37.632   8.250
 4688POPC   C3A20345   0.486  37.671   7.950
 4688POPC   C4A20346   0.456  37.688   7.650
 4688POPC   C1B20347   0.193  37.708   8.550
 4688POPC   C2B20348   0.231  37.748   8.250
 4688POPC   C3B20349   0.203  37.759   7.950
 4688POPC   C4B20350   0.146  37.755   7.650
 4689POPC   NC320351  30.670  40.745   9.450
 4689POPC   PO420352  30.685  40.822   9.150
 4689POPC   GL120353  30.714  40.828   8.850
 4689POPC   GL220354  30.580  40.694   8.850
 4689POPC   C1A20355  30.661  40.798   8.550
 4689POPC   D2A20356  30.675  40.765   8.250
 4689POPC   C3A20357  30.672  40.832   7.950
 4689POPC   C4A20358  30.672  40.783   7.650
 4689POPC   C1B20359  30.528  40.638   8.550
 4689POPC   C2B20360  30.536  40.676   8.250
 4689POPC   C3B20361  30.514  40.587   7.950
 4689POPC   C4B20362  30.514  40.660   7.650
 4690POPC   NC320363  36.135  33.827   9.450
 4690POPC   PO420364  36.135  33.798   9.150
 4690POPC   GL120365  36.107  33.782   8.850
 4690POPC   GL220366  36.026  33.685   8.850
 4690POPC   C1A20367  36.124  33.768   8.550
 4690POPC   D2A20368  36.132  33.844   8.250
 4690POPC   C3A20369  36.107  33.810   7.950
 4690POPC   C4A20370  36.148  33.790   7.650
 4690POPC   C1B20371  35.983  33.622   8.550
 4690POPC   C2B20372  36.064  33.594   8.250
 4690POPC   C3B20373  35.979  33.530   7.950
 4690POPC   C4B20374  36.070  33.611   7.650
 4691POPC   NC320375  12.099   4.311   9.450
 4691POPC   PO420376  12.028   4.268   9.150
 4691POPC   GL120377  12.054   4.319   8.850
 4691POPC   GL220378  11.956   4.219   8.850
 4691POPC   C1A20379  12.064   4.283   8.550
 4691POPC   D2A20380  12.108   4.270   8.250
 4691POPC   C3A20381  12.105   4.354   7.950
 4691POPC   C4A20382  12.072   4.317   7.650
 4691POPC   C1B20383  11.879   4.173   8.550
 4691POPC   C2B20384  11.892   4.175   8.250
 4691POPC   C3B20385  11.888   4.206   7.950
 4691POPC   C4B20386  11.896   4.203   7.650
 4692POPC   NC320387   6.609  38.501   9.450
 4692POPC   PO420388   6.614  38.496   9.150
 4692POPC   GL120389   6.693  38.492   8.850
 4692POPC   GL220390   6.563  38.473   8.850
 4692POPC   C1A20391   6.688  38.409   8.550
 4692POPC   D2A20392   6.636  38.470   8.250
 4692POPC   C3A20393   6.606  38.493   7.950
 4692POPC   C4A20394   6.595  38.449   7.650
 4692POPC   C1B20395   6.360  38.543   8.550
 4692POPC   C2B20396   6.356  38.562   8.250
 4692POPC   C3B20397   6.372  38.507   7.950
 4692POPC   C4B20398   6.367  38.564   7.650
 4693POPC   NC320399   8.226  10.515   9.450
 4693POPC   PO420400   8.245  10.571   9.150
 4693POPC   GL120401   8.201  10.517   8.850
 4693POPC   GL220402   8.129  10.672   8.850
 4693POPC   C1A20403   8.220  10.523   8.550
 4693POPC   D2A20404   8.152  10.541   8.250
 4693POPC   C3A20405   8.227  10.571   7.950
 4693POPC   C4A20406   8.181  10.566   7.650
 4693POPC   C1B20407   8.139  10.735   8.550
 4693POPC   C2B20408   8.137  10.802   8.250
 4693POPC   C3B20409   8.118  10.784   7.950
 4693POPC   C4B20410   8.154  10.727   7.650
 4694POPC   NC320411  35.390  37.691   9.450
 4694POPC   PO420412  35.383  37.649   9.150
 4694POPC   GL120413  35.388  37.727   8.850
 4694POPC   GL220414  35.312  37.760   8.850
 4694POPC   C1A20415  35.318  37.655   8.550
 4694POPC   D2A20416  35.343  37.669   8.250
 4694POPC   C3A20417  35.393  37.672   7.950
 4694POPC   C4A20418  35.322  37.680   7.650
 4694POPC   C1B20419  35.341  37.912   8.550
 4694POPC   C2B20420  35.318  37.885   8.250
 4694POPC   C3B20421  35.323  37.962   7.950
 4694POPC   C4B20422  35.348  37.973   7.650
 4695POPC   NC320423  40.017  43.098   9.450
 4695POPC   PO420424  39.988  43.140   9.150
 4695POPC   GL120425  40.033  43.102   8.850
 4695POPC   GL220426  39.997  42.998   8.850
 4695POPC   C1A20427  40.014  43.085   8.550
 4695POPC   D2A20428  40.004  43.147   8.250
 4695POPC   C3A20429  40.031  43.075   7.950
 4695POPC   C4A20430  40.015  43.095   7.650
 4695POPC   C1B20431  40.056  42.893   8.550
 4695POPC   C2B20432  40.055  42.834   8.250
 4695POPC   C3B20433  39.990  42.893   7.950
 4695POPC   C4B20434  40.036  42.864   7.650
 4696POPC   NC320435  39.229  34.548   9.450
 4696POPC   PO420436  39.205  34.558   9.150
 4696POPC   GL120437  39.262  34.572   8.850
 4696POPC   GL220438  39.060  34.562   8.850
 4696POPC   C1A20439  39.251  34.562   8.550
 4696POPC   D2A20440  39.241  34.564   8.250
 4696POPC   C3A20441  39.221  34.564   7.950
 4696POPC   C4A20442  39.205  34.609   7.650
 4696POPC   C1B20443  38.954  34.482   8.550
 4696POPC   C2B20444  38.983  34.526   8.250
 4696POPC   C3B20445  39.015  34.521   7.950
 4696POPC   C4B20446  38.942  34.549   7.650
 4697POPC   NC320447  20.586  10.522   9.450
 4697POPC   PO420448  20.627  10.489   9.150
 4697POPC   GL120449  20.584  10.499   8.850
 4697POPC   GL220450  20.493  10.486   8.850
 4697POPC   C1A20451  20.616  10.521   8.550
 4697POPC   D2A20452  20.598  10.475   8.250
 4697POPC   C3A20453  20.582  10.538   7.950
 4697POPC   C4A20454  20.625  10.550   7.650
 4697POPC   C1B20455  20.357  10.435   8.550
 4697POPC   C2B20456  20.393  10.391   8.250
 4697POPC   C3B20457  20.327  10.408   7.950
 4697POPC   C4B20458  20.326  10.399   7.650
 4698POPC   NC320459  13.631  13.604   9.450
 4698POPC   PO420460  13.591  13.599   9.150
 4698POPC   GL120461  13.674  13.638   8.850
 4698POPC   GL220462  13.498  13.555   8.850
 4698POPC   C1A20463  13.579  13.615   8.550
 4698POPC   D2A20464  13.635  13.595   8.250
 4698POPC   C3A20465  13.671  13.624   7.950
 4698POPC   C4A20466  13.627  13.598   7.650
 4698POPC   C1B20467  13.378  13.537   8.550
 4698POPC   C2B20468  13.432  13.596   8.250
 4698POPC   C3B20469  13.342  13.600   7.950
 4698POPC   C4B20470  13.364  13.612   7.650
 4699POPC   NC320471  43.101   0.443   9.450
 4699POPC   PO420472  43.136   0.446   9.150
 4699POPC   GL120473  43.108   0.436   8.850
 4699POPC   GL220474  42.955   0.391   8.850
 4699POPC   C1A20475  43.084   0.427   8.550
 4699POPC   D2A20476  43.079   0.465   8.250
 4699POPC   C3A20477  43.122   0.476   7.950
 4699POPC   C4A20478  43.065   0.474   7.650
 4699POPC   C1B20479  42.890   0.351   8.550
 4699POPC   C2B20480  42.902   0.392   8.250
 4699POPC   C3B20481  42.914   0.380   7.950
 4699POPC   C4B20482  42.849   0.415   7.650
 4700POPC   NC320483  21.411  35.355   9.450
 4700POPC   PO420484  21.351  35.353   9.150
 4700POPC   GL120485  21.428  35.332   8.850
 4700POPC   GL220486  21.515  35.386   8.850
 4700POPC   C1A20487  21.407  35.348   8.550
 4700POPC   D2A20488  21.417  35.398   8.250
 4700POPC   C3A20489  21.381  35.389   7.950
 4700POPC   C4A20490  21.407  35.337   7.650
 4700POPC   C1B20491  21.626  35.378   8.550
 4700POPC   C2B20492  21.601  35.456   8.250
 4700POPC   C3B20493  21.619  35.425   7.950
 4700POPC   C4B20494  21.656  35.453   7.650
 4701POPC   NC320495  44.677   0.391   9.450
 4701POPC   PO420496  44.708   0.405   9.150
 4701POPC   GL120497  44.661   0.421   8.850
 4701POPC   GL220498  44.599   0.533   8.850
 4701POPC   C1A20499  44.657   0.456   8.550
 4701POPC   D2A20500  44.628   0.445   8.250
 4701POPC   C3A20501  44.630   0.477   7.950
 4701POPC   C4A20502  44.656   0.397   7.650
 4701POPC   C1B20503  44.513   0.700   8.550
 4701POPC   C2B20504  44.507   0.673   8.250
 4701POPC   C3B20505  44.529   0.705   7.950
 4701POPC   C4B20506  44.575   0.674   7.650
 4702POPC   NC320507   5.058  26.838   9.450
 4702POPC   PO420508   5.047  26.845   9.150
 4702POPC   GL120509   5.143  26.804   8.850
 4702POPC   GL220510   5.151  26.874   8.850
 4702POPC   C1A20511   5.095  26.799   8.550
 4702POPC   D2A20512   5.112  26.849   8.250
 4702POPC   C3A20513   5.082  26.784   7.950
 4702POPC   C4A20514   5.081  26.782   7.650
 4702POPC   C1B20515   5.184  27.001   8.550
 4702POPC   C2B20516   5.199  26.980   8.250
 4702POPC   C3B20517   5.255  27.063   7.950
 4702POPC   C4B20518   5.191  27.022   7.650
 4703POPC   NC320519   6.626  20.608   9.450
 4703POPC   PO420520   6.658  20.563   9.150
 4703POPC   GL120521   6.661  20.561   8.850
 4703POPC   GL220522   6.597  20.721   8.850
 4703POPC   C1A20523   6.642  20.584   8.550
 4703POPC   D2A20524   6.615  20.586   8.250
 4703POPC   C3A20525   6.667  20.589   7.950
 4703POPC   C4A20526   6.607  20.636   7.650
 4703POPC   C1B20527   6.562  20.872   8.550
 4703POPC   C2B20528   6.522  20.828   8.250
 4703POPC   C3B20529   6.579  20.885   7.950
 4703POPC   C4B20530   6.515  20.875   7.650
 4704POPC   NC320531  16.744  42.331   9.450
 4704POPC   PO420532  16.699  42.316   9.150
 4704POPC   GL120533  16.700  42.286   8.850
 4704POPC   GL220534  16.882  42.293   8.850
 4704POPC   C1A20535  16.685  42.300   8.550
 4704POPC   D2A20536  16.770  42.296   8.250
 4704POPC   C3A20537  16.748  42.288   7.950
 4704POPC   C4A20538  16.681  42.330   7.650
 4704POPC   C1B20539  16.928  42.314   8.550
 4704POPC   C2B20540  17.002  42.307   8.250
 4704POPC   C3B20541  17.020  42.282   7.950
 4704POPC   C4B20542  16.949  42.264   7.650
 4705POPC   NC320543  10.565  22.945   9.450
 4705POPC   PO420544  10.520  22.958   9.150
 4705POPC   GL120545  10.506  22.913   8.850
 4705POPC   GL220546  10.652  22.953   8.850
 4705POPC   C1A20547  10.558  22.902   8.550
 4705POPC   D2A20548  10.492  22.928   8.250
 4705POPC   C3A20549  10.532  22.973   7.950
 4705POPC   C4A20550  10.545  22.962   7.650
 4705POPC   C1B20551  10.796  22.967   8.550
 4705POPC   C2B20552  10.737  22.922   8.250
 4705POPC   C3B20553  10.809  22.964   7.950
 4705POPC   C4B20554  10.809  22.967   7.650
 4706POPC   NC320555  29.148   3.525   9.450
 4706POPC   PO420556  29.166   3.588   9.150
 4706POPC   GL120557  29.114   3.549   8.850
 4706POPC   GL220558  29.110   3.373   8.850
 4706POPC   C1A20559  29.126   3.590   8.550
 4706POPC   D2A20560  29.176   3.505   8.250
 4706POPC   C3A20561  29.107   3.522   7.950
 4706POPC   C4A20562  29.139   3.502   7.650
 4706POPC   C1B20563  29.176   3.340   8.550
 4706POPC   C2B20564  29.133   3.336   8.250
 4706POPC   C3B20565  29.184   3.276   7.950
 4706POPC   C4B20566  29.132   3.278   7.650
 4707POPC   NC320567  43.858  34.579   9.450
 4707POPC   PO420568  43.869  34.606   9.150
 4707POPC   GL120569  43.838  34.542   8.850
 4707POPC   GL220570  43.999  34.456   8.850
 4707POPC   C1A20571  43.891  34.532   8.550
 4707POPC   D2A20572  43.915  34.565   8.250
 4707POPC   C3A20573  43.857  34.595   7.950
 4707POPC   C4A20574  43.840  34.552   7.650
 4707POPC   C1B20575  44.090  34.369   8.550
 4707POPC   C2B20576  44.070  34.406   8.250
 4707POPC   C3B20577  44.093  34.419   7.950
 4707POPC   C4B20578  44.078  34.424   7.650
 4708POPC   NC320579   9.007  27.554   9.450
 4708POPC   PO420580   8.983  27.581   9.150
 4708POPC   GL120581   8.961  27.578   8.850
 4708POPC   GL220582   8.852  27.592   8.850
 4708POPC   C1A20583   8.943  27.590   8.550
 4708POPC   D2A20584   8.930  27.562   8.250
 4708POPC   C3A20585   8.972  27.583   7.950
 4708POPC   C4A20586   8.923  27.636   7.650
 4708POPC   C1B20587   8.728  27.678   8.550
 4708POPC   C2B20588   8.738  27.701   8.250
 4708POPC   C3B20589   8.737  27.669   7.950
 4708POPC   C4B20590   8.747  27.614   7.650
 4709POPC   NC320591  31.467  15.936   9.450
 4709POPC   PO420592  31.460  15.980   9.150
 4709POPC   GL120593  31.501  15.966   8.850
 4709POPC   GL220594  31.476  16.050   8.850
 4709POPC   C1A20595  31.454  15.943   8.550
 4709POPC   D2A20596  31.510  15.969   8.250
 4709POPC   C3A20597  31.473  15.950   7.950
 4709POPC   C4A20598  31.492  15.916   7.650
 4709POPC   C1B20599  31.452  16.181   8.550
 4709POPC   C2B20600  31.387  16.165   8.250
 4709POPC   C3B20601  31.413  16.227   7.950
 4709POPC   C4B20602  31.424  16.171   7.650
 4710POPC   NC320603  13.644  24.474   9.450
 4710POPC   PO420604  13.649  24.508   9.150
 4710POPC   GL120605  13.625  24.517   8.850
 4710POPC   GL220606  13.736  24.552   8.850
 4710POPC   C1A20607  13.590  24.515   8.550
 4710POPC   D2A20608  13.620  24.519   8.250
 4710POPC   C3A20609  13.665  24.539   7.950
 4710POPC   C4A20610  13.621  24.453   7.650
 4710POPC   C1B20611  13.752  24.681   8.550
 4710POPC   C2B20612  13.758  24.657   8.250
 4710POPC   C3B20613  13.804  24.682   7.950
 4710POPC   C4B20614  13.795  24.663   7.650
 4711POPC   NC320615  11.263  26.001   9.450
 4711POPC   PO420616  11.282  26.066   9.150
 4711POPC   GL120617  11.267  26.059   8.850
 4711POPC   GL220618  11.264  26.153   8.850
 4711POPC   C1A20619  11.322  26.002   8.550
 4711POPC   D2A20620  11.265  26.072   8.250
 4711POPC   C3A20621  11.279  26.016   7.950
 4711POPC   C4A20622  11.324  25.993   7.650
 4711POPC   C1B20623  11.258  26.333   8.550
 4711POPC   C2B20624  11.199  26.259   8.250
 4711POPC   C3B20625  11.199  26.240   7.950
 4711POPC   C4B20626  11.258  26.259   7.650
 4712POPC   NC320627  22.162  15.958   9.450
 4712POPC   PO420628  22.140  15.983   9.150
 4712POPC   GL120629  22.196  15.970   8.850
 4712POPC   GL220630  22.119  16.018   8.850
 4712POPC   C1A20631  22.156  15.969   8.550
 4712POPC   D2A20632  22.194  15.952   8.250
 4712POPC   C3A20633  22.165  15.994   7.950
 4712POPC   C4A20634  22.133  15.966   7.650
 4712POPC   C1B20635  22.013  16.203   8.550
 4712POPC   C2B20636  21.971  16.190   8.250
 4712POPC   C3B20637  22.003  16.110   7.950
 4712POPC   C4B20638  22.044  16.126   7.650
 4713POPC   NC320639  41.515  24.492   9.450
 4713POPC   PO420640  41.535  24.497   9.150
 4713POPC   GL120641  41.607  24.448   8.850
 4713POPC   GL220642  41.465  24.528   8.850
 4713POPC   C1A20643  41.541  24.473   8.550
 4713POPC   D2A20644  41.538  24.507   8.250
 4713POPC   C3A20645  41.550  24.462   7.950
 4713POPC   C4A20646  41.583  24.469   7.650
 4713POPC   C1B20647  41.395  24.653   8.550
 4713POPC   C2B20648  41.303  24.662   8.250
 4713POPC   C3B20649  41.355  24.664   7.950
 4713POPC   C4B20650  41.324  24.572   7.650
 4714POPC   NC320651  10.571  15.208   9.450
 4714POPC   PO420652  10.548  15.185   9.150
 4714POPC   GL120653  10.486  15.226   8.850
 4714POPC   GL220654  10.487  15.320   8.850
 4714POPC   C1A20655  10.489  15.132   8.550
 4714POPC   D2A20656  10.504  15.187   8.250
 4714POPC   C3A20657  10.551  15.227   7.950
 4714POPC   C4A20658  10.525  15.228   7.650
 4714POPC   C1B20659  10.467  15.391   8.550
 4714POPC   C2B20660  10.428  15.425   8.250
 4714POPC   C3B20661  10.466  15.454   7.950
 4714POPC   C4B20662  10.419  15.401   7.650
 4715POPC   NC320663  33.049  23.667   9.450
 4715POPC   PO420664  33.060  23.688   9.150
 4715POPC   GL120665  33.033  23.714   8.850
 4715POPC   GL220666  33.009  23.638   8.850
 4715POPC   C1A20667  33.033  23.680   8.550
 4715POPC   D2A20668  33.044  23.711   8.250
 4715POPC   C3A20669  33.010  23.750   7.950
 4715POPC   C4A20670  33.052  23.731   7.650
 4715POPC   C1B20671  32.937  23.501   8.550
 4715POPC   C2B20672  32.985  23.490   8.250
 4715POPC   C3B20673  32.976  23.465   7.950
 4715POPC   C4B20674  32.901  23.442   7.650
 4716POPC   NC320675  32.263  41.588   9.450
 4716POPC   PO420676  32.252  41.550   9.150
 4716POPC   GL120677  32.281  41.560   8.850
 4716POPC   GL220678  32.310  41.523   8.850
 4716POPC   C1A20679  32.293  41.525   8.550
 4716POPC   D2A20680  32.260  41.543   8.250
 4716POPC   C3A20681  32.222  41.557   7.950
 4716POPC   C4A20682  32.256  41.571   7.650
 4716POPC   C1B20683  32.490  41.369   8.550
 4716POPC   C2B20684  32.469  41.365   8.250
 4716POPC   C3B20685  32.438  41.353   7.950
 4716POPC   C4B20686  32.469  41.436   7.650
 4717POPC   NC320687   4.339  40.809   9.450
 4717POPC   PO420688   4.365  40.756   9.150
 4717POPC   GL120689   4.307  40.758   8.850
 4717POPC   GL220690   4.368  40.704   8.850
 4717POPC   C1A20691   4.355  40.817   8.550
 4717POPC   D2A20692   4.276  40.785   8.250
 4717POPC   C3A20693   4.287  40.784   7.950
 4717POPC   C4A20694   4.268  40.824   7.650
 4717POPC   C1B20695   4.458  40.636   8.550
 4717POPC   C2B20696   4.466  40.613   8.250
 4717POPC   C3B20697   4.445  40.575   7.950
 4717POPC   C4B20698   4.466  40.558   7.650
 4718POPC   NC320699  33.762  22.122   9.450
 4718POPC   PO420700  33.785  22.192   9.150
 4718POPC   GL120701  33.787  22.150   8.850
 4718POPC   GL220702  33.660  22.158   8.850
 4718POPC   C1A20703  33.850  22.208   8.550
 4718POPC   D2A20704  33.804  22.206   8.250
 4718POPC   C3A20705  33.784  22.160   7.950
 4718POPC   C4A20706  33.775  22.122   7.650
 4718POPC   C1B20707  33.586  22.170   8.550
 4718POPC   C2B20708  33.551  22.159   8.250
 4718POPC   C3B20709  33.593  22.171   7.950
 4718POPC   C4B20710  33.577  22.167   7.650
 4719POPC   NC320711  35.366  32.992   9.450
 4719POPC   PO420712  35.341  33.051   9.150
 4719POPC   GL120713  35.331  33.009   8.850
 4719POPC   GL220714  35.246  33.073   8.850
 4719POPC   C1A20715  35.358  32.975   8.550
 4719POPC   D2A20716  35.331  33.070   8.250
 4719POPC   C3A20717  35.338  33.037   7.950
 4719POPC   C4A20718  35.363  33.051   7.650
 4719POPC   C1B20719  35.173  33.152   8.550
 4719POPC   C2B20720  35.121  33.144   8.250
 4719POPC   C3B20721  35.099  33.135   7.950
 4719POPC   C4B20722  35.116  33.166   7.650
 4720POPC   NC320723  41.563  40.041   9.450
 4720POPC   PO420724  41.517  40.056   9.150
 4720POPC   GL120725  41.514  39.968   8.850
 4720POPC   GL220726  41.638  39.961   8.850
 4720POPC   C1A20727  41.604  39.979   8.550
 4720POPC   D2A20728  41.553  39.969   8.250
 4720POPC   C3A20729  41.515  40.032   7.950
 4720POPC   C4A20730  41.522  40.027   7.650
 4720POPC   C1B20731  41.826  40.000   8.550
 4720POPC   C2B20732  41.811  39.999   8.250
 4720POPC   C3B20733  41.818  39.965   7.950
 4720POPC   C4B20734  41.846  39.991   7.650
 4721POPC   NC320735  40.756   5.882   9.450
 4721POPC   PO420736  40.819   5.912   9.150
 4721POPC   GL120737  40.803   5.826   8.850
 4721POPC   GL220738  40.788   6.034   8.850
 4721POPC   C1A20739  40.773   5.914   8.550
 4721POPC   D2A20740  40.738   5.822   8.250
 4721POPC   C3A20741  40.778   5.849   7.950
 4721POPC   C4A20742  40.787   5.833   7.650
 4721POPC   C1B20743  40.739   6.093   8.550
 4721POPC   C2B20744  40.805   6.136   8.250
 4721POPC   C3B20745  40.789   6.080   7.950
 4721POPC   C4B20746  40.770   6.123   7.650
 4722POPC   NC320747  26.019  33.768   9.450
 4722POPC   PO420748  26.010  33.796   9.150
 4722POPC   GL120749  26.069  33.813   8.850
 4722POPC   GL220750  26.124  33.728   8.850
 4722POPC   C1A20751  26.022  33.821   8.550
 4722POPC   D2A20752  26.028  33.781   8.250
 4722POPC   C3A20753  26.084  33.784   7.950
 4722POPC   C4A20754  26.058  33.846   7.650
 4722POPC   C1B20755  26.148  33.632   8.550
 4722POPC   C2B20756  26.140  33.578   8.250
 4722POPC   C3B20757  26.209  33.622   7.950
 4722POPC   C4B20758  26.160  33.613   7.650
 4723POPC   NC320759   5.069  29.095   9.450
 4723POPC   PO420760   5.072  29.116   9.150
 4723POPC   GL120761   5.043  29.151   8.850
 4723POPC   GL220762   5.204  29.213   8.850
 4723POPC   C1A20763   5.141  29.146   8.550
 4723POPC   D2A20764   5.077  29.181   8.250
 4723POPC   C3A20765   5.048  29.187   7.950
 4723POPC   C4A20766   5.131  29.135   7.650
 4723POPC   C1B20767   5.167  29.396   8.550
 4723POPC   C2B20768   5.172  29.318   8.250
 4723POPC   C3B20769   5.198  29.345   7.950
 4723POPC   C4B20770   5.247  29.328   7.650
 4724POPC   NC320771  12.811  22.162   9.450
 4724POPC   PO420772  12.871  22.183   9.150
 4724POPC   GL120773  12.902  22.120   8.850
 4724POPC   GL220774  12.903  22.282   8.850
 4724POPC   C1A20775  12.851  22.174   8.550
 4724POPC   D2A20776  12.829  22.136   8.250
 4724POPC   C3A20777  12.834  22.175   7.950
 4724POPC   C4A20778  12.885  22.165   7.650
 4724POPC   C1B20779  12.892  22.419   8.550
 4724POPC   C2B20780  12.866  22.414   8.250
 4724POPC   C3B20781  12.888  22.378   7.950
 4724POPC   C4B20782  12.921  22.424   7.650
 4725POPC   NC320783   1.182  16.781   9.450
 4725POPC   PO420784   1.204  16.700   9.150
 4725POPC   GL120785   1.262  16.711   8.850
 4725POPC   GL220786   1.106  16.845   8.850
 4725POPC   C1A20787   1.206  16.723   8.550
 4725POPC   D2A20788   1.179  16.720   8.250
 4725POPC   C3A20789   1.182  16.719   7.950
 4725POPC   C4A20790   1.195  16.715   7.650
 4725POPC   C1B20791   1.037  16.996   8.550
 4725POPC   C2B20792   1.112  16.962   8.250
 4725POPC   C3B20793   1.043  16.991   7.950
 4725POPC   C4B20794   1.124  16.953   7.650
 4726POPC   NC320795  29.929  25.276   9.450
 4726POPC   PO420796  29.971  25.299   9.150
 4726POPC   GL120797  29.955  25.266   8.850
 4726POPC   GL220798  29.927  25.099   8.850
 4726POPC   C1A20799  29.904  25.225   8.550
 4726POPC   D2A20800  29.964  25.314   8.250
 4726POPC   C3A20801  29.908  25.282   7.950
 4726POPC   C4A20802  29.968  25.293   7.650
 4726POPC   C1B20803  29.982  25.051   8.550
 4726POPC   C2B20804  29.996  24.973   8.250
 4726POPC   C3B20805  30.005  25.019   7.950
 4726POPC   C4B20806  30.020  25.031   7.650
 4727POPC   NC320807  33.043   5.048   9.450
 4727POPC   PO420808  33.044   5.046   9.150
 4727POPC   GL120809  33.048   5.058   8.850
 4727POPC   GL220810  33.018   5.236   8.850
 4727POPC   C1A20811  33.057   5.143   8.550
 4727POPC   D2A20812  33.003   5.121   8.250
 4727POPC   C3A20813  33.012   5.128   7.950
 4727POPC   C4A20814  33.037   5.135   7.650
 4727POPC   C1B20815  32.977   5.309   8.550
 4727POPC   C2B20816  32.991   5.354   8.250
 4727POPC   C3B20817  32.956   5.363   7.950
 4727POPC   C4B20818  33.021   5.329   7.650
 4728POPC   NC320819   5.046   7.375   9.450
 4728POPC   PO420820   5.111   7.464   9.150
 4728POPC   GL120821   5.070   7.458   8.850
 4728POPC   GL220822   5.017   7.454   8.850
 4728POPC   C1A20823   5.114   7.441   8.550
 4728POPC   D2A20824   5.077   7.433   8.250
 4728POPC   C3A20825   5.107   7.389   7.950
 4728POPC   C4A20826   5.098   7.441   7.650
 4728POPC   C1B20827   4.869   7.533   8.550
 4728POPC   C2B20828   4.865   7.506   8.250
 4728POPC   C3B20829   4.821   7.563   7.950
 4728POPC   C4B20830   4.906   7.474   7.650
 4729POPC   NC320831  39.959  24.488   9.450
 4729POPC   PO420832  40.051  24.485   9.150
 4729POPC   GL120833  40.048  24.471   8.850
 4729POPC   GL220834  40.059  24.410   8.850
 4729POPC   C1A20835  40.018  24.491   8.550
 4729POPC   D2A20836  40.007  24.511   8.250
 4729POPC   C3A20837  40.008  24.453   7.950
 4729POPC   C4A20838  39.965  24.516   7.650
 4729POPC   C1B20839  40.037  24.245   8.550
 4729POPC   C2B20840  40.110  24.252   8.250
 4729POPC   C3B20841  40.054  24.262   7.950
 4729POPC   C4B20842  40.063  24.267   7.650
 4730POPC   NC320843  27.627  26.030   9.450
 4730POPC   PO420844  27.603  26.091   9.150
 4730POPC   GL120845  27.589  26.067   8.850
 4730POPC   GL220846  27.718  26.120   8.850
 4730POPC   C1A20847  27.602  26.050   8.550
 4730POPC   D2A20848  27.555  26.087   8.250
 4730POPC   C3A20849  27.608  26.022   7.950
 4730POPC   C4A20850  27.569  26.024   7.650
 4730POPC   C1B20851  27.779  26.204   8.550
 4730POPC   C2B20852  27.799  26.160   8.250
 4730POPC   C3B20853  27.814  26.234   7.950
 4730POPC   C4B20854  27.794  26.206   7.650
 4731POPC   NC320855  36.139  10.507   9.450
 4731POPC   PO420856  36.123  10.513   9.150
 4731POPC   GL120857  36.085  10.552   8.850
 4731POPC   GL220858  36.067  10.429   8.850
 4731POPC   C1A20859  36.164  10.487   8.550
 4731POPC   D2A20860  36.107  10.571   8.250
 4731POPC   C3A20861  36.149  10.560   7.950
 4731POPC   C4A20862  36.148  10.508   7.650
 4731POPC   C1B20863  36.050  10.326   8.550
 4731POPC   C2B20864  36.030  10.300   8.250
 4731POPC   C3B20865  36.078  10.251   7.950
 4731POPC   C4B20866  36.084  10.332   7.650
 4732POPC   NC320867  15.990  18.303   9.450
 4732POPC   PO420868  15.912  18.248   9.150
 4732POPC   GL120869  15.997  18.265   8.850
 4732POPC   GL220870  16.025  18.377   8.850
 4732POPC   C1A20871  15.906  18.325   8.550
 4732POPC   D2A20872  15.934  18.259   8.250
 4732POPC   C3A20873  15.974  18.251   7.950
 4732POPC   C4A20874  15.952  18.282   7.650
 4732POPC   C1B20875  16.113  18.453   8.550
 4732POPC   C2B20876  16.141  18.414   8.250
 4732POPC   C3B20877  16.188  18.473   7.950
 4732POPC   C4B20878  16.158  18.391   7.650
 4733POPC   NC320879  36.864   4.286   9.450
 4733POPC   PO420880  36.923   4.353   9.150
 4733POPC   GL120881  36.929   4.301   8.850
 4733POPC   GL220882  36.857   4.459   8.850
 4733POPC   C1A20883  36.951   4.310   8.550
 4733POPC   D2A20884  36.857   4.284   8.250
 4733POPC   C3A20885  36.949   4.302   7.950
 4733POPC   C4A20886  36.856   4.337   7.650
 4733POPC   C1B20887  36.875   4.585   8.550
 4733POPC   C2B20888  36.938   4.542   8.250
 4733POPC   C3B20889  36.847   4.534   7.950
 4733POPC   C4B20890  36.905   4.588   7.650
 4734POPC   NC320891  18.256  23.756   9.450
 4734POPC   PO420892  18.255  23.690   9.150
 4734POPC   GL120893  18.296  23.689   8.850
 4734POPC   GL220894  18.396  23.822   8.850
 4734POPC   C1A20895  18.247  23.763   8.550
 4734POPC   D2A20896  18.315  23.672   8.250
 4734POPC   C3A20897  18.291  23.755   7.950
 4734POPC   C4A20898  18.285  23.725   7.650
 4734POPC   C1B20899  18.426  23.845   8.550
 4734POPC   C2B20900  18.495  23.931   8.250
 4734POPC   C3B20901  18.416  23.889   7.950
 4734POPC   C4B20902  18.467  23.917   7.650
 4735POPC   NC320903  13.621  41.565   9.450
 4735POPC   PO420904  13.675  41.544   9.150
 4735POPC   GL120905  13.617  41.545   8.850
 4735POPC   GL220906  13.462  41.554   8.850
 4735POPC   C1A20907  13.605  41.600   8.550
 4735POPC   D2A20908  13.595  41.582   8.250
 4735POPC   C3A20909  13.589  41.606   7.950
 4735POPC   C4A20910  13.603  41.572   7.650
 4735POPC   C1B20911  13.355  41.468   8.550
 4735POPC   C2B20912  13.371  41.505   8.250
 4735POPC   C3B20913  13.378  41.487   7.950
 4735POPC   C4B20914  13.357  41.446   7.650
 4736POPC   NC320915  24.465  27.578   9.450
 4736POPC   PO420916  24.472  27.643   9.150
 4736POPC   GL120917  24.493  27.627   8.850
 4736POPC   GL220918  24.432  27.540   8.850
 4736POPC   C1A20919  24.525  27.578   8.550
 4736POPC   D2A20920  24.534  27.609   8.250
 4736POPC   C3A20921  24.476  27.584   7.950
 4736POPC   C4A20922  24.534  27.568   7.650
 4736POPC   C1B20923  24.323  27.376   8.550
 4736POPC   C2B20924  24.296  27.390   8.250
 4736POPC   C3B20925  24.315  27.439   7.950
 4736POPC   C4B20926  24.327  27.381   7.650
 4737POPC   NC320927   5.866   6.616   9.450
 4737POPC   PO420928   5.881   6.601   9.150
 4737POPC   GL120929   5.916   6.661   8.850
 4737POPC   GL220930   5.842   6.783   8.850
 4737POPC   C1A20931   5.916   6.653   8.550
 4737POPC   D2A20932   5.884   6.604   8.250
 4737POPC   C3A20933   5.908   6.618   7.950
 4737POPC   C4A20934   5.904   6.631   7.650
 4737POPC   C1B20935   5.725   6.820   8.550
 4737POPC   C2B20936   5.688   6.842   8.250
 4737POPC   C3B20937   5.711   6.867   7.950
 4737POPC   C4B20938   5.722   6.884   7.650
 4738POPC   NC320939  23.674  19.040   9.450
 4738POPC   PO420940  23.710  19.062   9.150
 4738POPC   GL120941  23.723  19.099   8.850
 4738POPC   GL220942  23.694  19.206   8.850
 4738POPC   C1A20943  23.697  19.095   8.550
 4738POPC   D2A20944  23.729  19.096   8.250
 4738POPC   C3A20945  23.695  19.031   7.950
 4738POPC   C4A20946  23.705  19.065   7.650
 4738POPC   C1B20947  23.642  19.276   8.550
 4738POPC   C2B20948  23.612  19.327   8.250
 4738POPC   C3B20949  23.631  19.330   7.950
 4738POPC   C4B20950  23.591  19.314   7.650
 4739POPC   NC320951  12.070   5.892   9.450
 4739POPC   PO420952  12.109   5.902   9.150
 4739POPC   GL120953  12.064   5.909   8.850
 4739POPC   GL220954  12.019   6.006   8.850
 4739POPC   C1A20955  12.032   5.882   8.550
 4739POPC   D2A20956  12.077   5.871   8.250
 4739POPC   C3A20957  12.090   5.890   7.950
 4739POPC   C4A20958  12.038   5.846   7.650
 4739POPC   C1B20959  12.005   6.124   8.550
 4739POPC   C2B20960  11.939   6.110   8.250
 4739POPC   C3B20961  11.935   6.129   7.950
 4739POPC   C4B20962  12.016   6.138   7.650
 4740POPC   NC320963  21.382  32.261   9.450
 4740POPC   PO420964  21.403  32.246   9.150
 4740POPC   GL120965  21.373  32.288   8.850
 4740POPC   GL220966  21.284  32.274   8.850
 4740POPC   C1A20967  21.377  32.275   8.550
 4740POPC   D2A20968  21.384  32.245   8.250
 4740POPC   C3A20969  21.338  32.294   7.950
 4740POPC   C4A20970  21.392  32.252   7.650
 4740POPC   C1B20971  21.127  32.352   8.550
 4740POPC   C2B20972  21.111  32.343   8.250
 4740POPC   C3B20973  21.168  32.337   7.950
 4740POPC   C4B20974  21.186  32.317   7.650
 4741POPC   NC320975  38.476  43.870   9.450
 4741POPC   PO420976  38.451  43.908   9.150
 4741POPC   GL120977  38.440  43.839   8.850
 4741POPC   GL220978  38.609  43.795   8.850
 4741POPC   C1A20979  38.492  43.934   8.550
 4741POPC   D2A20980  38.451  43.851   8.250
 4741POPC   C3A20981  38.488  43.915   7.950
 4741POPC   C4A20982  38.416  43.889   7.650
 4741POPC   C1B20983  38.683  43.781   8.550
 4741POPC   C2B20984  38.652  43.801   8.250
 4741POPC   C3B20985  38.651  43.793   7.950
 4741POPC   C4B20986  38.699  43.757   7.650
 4742POPC   NC320987  44.671  35.311   9.450
 4742POPC   PO420988  44.653  35.311   9.150
 4742POPC   GL120989  44.655  35.400   8.850
 4742POPC   GL220990  44.596  35.193   8.850
 4742POPC   C1A20991  44.693  35.386   8.550
 4742POPC   D2A20992  44.707  35.306   8.250
 4742POPC   C3A20993  44.649  35.350   7.950
 4742POPC   C4A20994  44.709  35.324   7.650
 4742POPC   C1B20995  44.506  35.146   8.550
 4742POPC   C2B20996  44.547  35.122   8.250
 4742POPC   C3B20997  44.529  35.159   7.950
 4742POPC   C4B20998  44.602  35.152   7.650
 4743POPC   NC320999  16.725   5.120   9.450
 4743POPC   PO421000  16.698   5.126   9.150
 4743POPC   GL121001  16.736   5.100   8.850
 4743POPC   GL221002  16.740   5.260   8.850
 4743POPC   C1A21003  16.723   5.103   8.550
 4743POPC   D2A21004  16.716   5.111   8.250
 4743POPC   C3A21005  16.684   5.056   7.950
 4743POPC   C4A21006  16.693   5.104   7.650
 4743POPC   C1B21007  16.674   5.370   8.550
 4743POPC   C2B21008  16.693   5.374   8.250
 4743POPC   C3B21009  16.686   5.327   7.950
 4743POPC   C4B21010  16.675   5.366   7.650
 4744POPC   NC321011  14.427  16.708   9.450
 4744POPC   PO421012  14.431  16.696   9.150
 4744POPC   GL121013  14.429  16.767   8.850
 4744POPC   GL221014  14.481  16.646   8.850
 4744POPC   C1A21015  14.450  16.775   8.550
 4744POPC   D2A21016  14.405  16.775   8.250
 4744POPC   C3A21017  14.378  16.729   7.950
 4744POPC   C4A21018  14.383  16.725   7.650
 4744POPC   C1B21019  14.568  16.526   8.550
 4744POPC   C2B21020  14.549  16.578   8.250
 4744POPC   C3B21021  14.626  16.502   7.950
 4744POPC   C4B21022  14.552  16.572   7.650
 4745POPC   NC321023   8.189   8.992   9.450
 4745POPC   PO421024   8.166   9.021   9.150
 4745POPC   GL121025   8.172   8.968   8.850
 4745POPC   GL221026   8.159   9.046   8.850
 4745POPC   C1A21027   8.224   8.924   8.550
 4745POPC   D2A21028   8.195   8.996   8.250
 4745POPC   C3A21029   8.177   8.956   7.950
 4745POPC   C4A21030   8.167   8.966   7.650
 4745POPC   C1B21031   8.084   9.208   8.550
 4745POPC   C2B21032   8.017   9.152   8.250
 4745POPC   C3B21033   8.034   9.163   7.950
 4745POPC   C4B21034   8.073   9.175   7.650
 4746POPC   NC321035   4.273  39.210   9.450
 4746POPC   PO421036   4.295  39.199   9.150
 4746POPC   GL121037   4.322  39.248   8.850
 4746POPC   GL221038   4.292  39.380   8.850
 4746POPC   C1A21039   4.347  39.201   8.550
 4746POPC   D2A21040   4.365  39.235   8.250
 4746POPC   C3A21041   4.361  39.216   7.950
 4746POPC   C4A21042   4.291  39.275   7.650
 4746POPC   C1B21043   4.202  39.470   8.550
 4746POPC   C2B21044   4.186  39.423   8.250
 4746POPC   C3B21045   4.201  39.423   7.950
 4746POPC   C4B21046   4.156  39.413   7.650
 4747POPC   NC321047   9.770  38.419   9.450
 4747POPC   PO421048   9.744  38.489   9.150
 4747POPC   GL121049   9.719  38.468   8.850
 4747POPC   GL221050   9.793  38.543   8.850
 4747POPC   C1A21051   9.730  38.439   8.550
 4747POPC   D2A21052   9.707  38.496   8.250
 4747POPC   C3A21053   9.769  38.407   7.950
 4747POPC   C4A21054   9.758  38.436   7.650
 4747POPC   C1B21055   9.874  38.729   8.550
 4747POPC   C2B21056   9.864  38.733   8.250
 4747POPC   C3B21057   9.849  38.644   7.950
 4747POPC   C4B21058   9.834  38.674   7.650
 4748POPC   NC321059  23.744  10.572   9.450
 4748POPC   PO421060  23.685  10.538   9.150
 4748POPC   GL121061  23.706  10.544   8.850
 4748POPC   GL221062  23.792  10.645   8.850
 4748POPC   C1A21063  23.760  10.572   8.550
 4748POPC   D2A21064  23.754  10.555   8.250
 4748POPC   C3A21065  23.705  10.562   7.950
 4748POPC   C4A21066  23.739  10.482   7.650
 4748POPC   C1B21067  23.911  10.670   8.550
 4748POPC   C2B21068  23.845  10.707   8.250
 4748POPC   C3B21069  23.885  10.678   7.950
 4748POPC   C4B21070  23.916  10.727   7.650
 4749POPC   NC321071  11.332  22.210   9.450
 4749POPC   PO421072  11.272  22.131   9.150
 4749POPC   GL121073  11.258  22.201   8.850
 4749POPC   GL221074  11.256  22.267   8.850
 4749POPC   C1A21075  11.347  22.118   8.550
 4749POPC   D2A21076  11.301  22.211   8.250
 4749POPC   C3A21077  11.300  22.158   7.950
 4749POPC   C4A21078  11.330  22.141   7.650
 4749POPC   C1B21079  11.120  22.416   8.550
 4749POPC   C2B21080  11.191  22.324   8.250
 4749POPC   C3B21081  11.113  22.381   7.950
 4749POPC   C4B21082  11.121  22.328   7.650
 4750POPC   NC321083  31.489  43.131   9.450
 4750POPC   PO421084  31.519  43.089   9.150
 4750POPC   GL121085  31.456  43.152   8.850
 4750POPC   GL221086  31.448  42.957   8.850
 4750POPC   C1A21087  31.424  43.148   8.550
 4750POPC   D2A21088  31.513  43.072   8.250
 4750POPC   C3A21089  31.508  43.152   7.950
 4750POPC   C4A21090  31.503  43.094   7.650
 4750POPC   C1B21091  31.522  42.823   8.550
 4750POPC   C2B21092  31.483  42.887   8.250
 4750POPC   C3B21093  31.511  42.865   7.950
 4750POPC   C4B21094  31.535  42.860   7.650
 4751POPC   NC321095  30.671   5.884   9.450
 4751POPC   PO421096  30.746   5.881   9.150
 4751POPC   GL121097  30.733   5.827   8.850
 4751POPC   GL221098  30.645   6.016   8.850
 4751POPC   C1A21099  30.676   5.863   8.550
 4751POPC   D2A21100  30.692   5.825   8.250
 4751POPC   C3A21101  30.655   5.894   7.950
 4751POPC   C4A21102  30.660   5.886   7.650
 4751POPC   C1B21103  30.642   6.143   8.550
 4751POPC   C2B21104  30.585   6.113   8.250
 4751POPC   C3B21105  30.595   6.068   7.950
 4751POPC   C4B21106  30.592   6.105   7.650
 4752POPC   NC321107  27.584  19.079   9.450
 4752POPC   PO421108  27.571  19.099   9.150
 4752POPC   GL121109  27.639  19.043   8.850
 4752POPC   GL221110  27.594  18.937   8.850
 4752POPC   C1A21111  27.591  19.100   8.550
 4752POPC   D2A21112  27.594  19.063   8.250
 4752POPC   C3A21113  27.635  19.052   7.950
 4752POPC   C4A21114  27.601  19.035   7.650
 4752POPC   C1B21115  27.602  18.830   8.550
 4752POPC   C2B21116  27.667  18.812   8.250
 4752POPC   C3B21117  27.619  18.853   7.950
 4752POPC   C4B21118  27.686  18.788   7.650
 4753POPC   NC321119  38.439   5.062   9.450
 4753POPC   PO421120  38.497   5.108   9.150
 4753POPC   GL121121  38.488   5.090   8.850
 4753POPC   GL221122  38.480   5.240   8.850
 4753POPC   C1A21123  38.475   5.078   8.550
 4753POPC   D2A21124  38.413   5.108   8.250
 4753POPC   C3A21125  38.458   5.055   7.950
 4753POPC   C4A21126  38.489   5.113   7.650
 4753POPC   C1B21127  38.519   5.383   8.550
 4753POPC   C2B21128  38.494   5.328   8.250
 4753POPC   C3B21129  38.458   5.308   7.950
 4753POPC   C4B21130  38.477   5.352   7.650
 4754POPC   NC321131  40.046  14.353   9.450
 4754POPC   PO421132  40.033  14.370   9.150
 4754POPC   GL121133  40.041  14.378   8.850
 4754POPC   GL221134  40.030  14.246   8.850
 4754POPC   C1A21135  39.974  14.367   8.550
 4754POPC   D2A21136  39.974  14.366   8.250
 4754POPC   C3A21137  40.007  14.366   7.950
 4754POPC   C4A21138  39.983  14.365   7.650
 4754POPC   C1B21139  40.163  14.154   8.550
 4754POPC   C2B21140  40.150  14.230   8.250
 4754POPC   C3B21141  40.132  14.154   7.950
 4754POPC   C4B21142  40.184  14.141   7.650
 4755POPC   NC321143   3.537  43.064   9.450
 4755POPC   PO421144   3.494  43.120   9.150
 4755POPC   GL121145   3.493  43.096   8.850
 4755POPC   GL221146   3.583  43.021   8.850
 4755POPC   C1A21147   3.540  43.087   8.550
 4755POPC   D2A21148   3.579  43.127   8.250
 4755POPC   C3A21149   3.561  43.068   7.950
 4755POPC   C4A21150   3.535  43.159   7.650
 4755POPC   C1B21151   3.678  42.864   8.550
 4755POPC   C2B21152   3.709  42.865   8.250
 4755POPC   C3B21153   3.663  42.922   7.950
 4755POPC   C4B21154   3.699  42.863   7.650
 4756POPC   NC321155  12.882  29.958   9.450
 4756POPC   PO421156  12.828  29.917   9.150
 4756POPC   GL121157  12.899  29.888   8.850
 4756POPC   GL221158  12.941  30.037   8.850
 4756POPC   C1A21159  12.893  29.874   8.550
 4756POPC   D2A21160  12.862  29.907   8.250
 4756POPC   C3A21161  12.879  29.958   7.950
 4756POPC   C4A21162  12.865  29.925   7.650
 4756POPC   C1B21163  12.969  30.069   8.550
 4756POPC   C2B21164  13.022  30.144   8.250
 4756POPC   C3B21165  13.025  30.134   7.950
 4756POPC   C4B21166  12.980  30.114   7.650
 4757POPC   NC321167  23.705   3.513   9.450
 4757POPC   PO421168  23.688   3.523   9.150
 4757POPC   GL121169  23.729   3.535   8.850
 4757POPC   GL221170  23.616   3.593   8.850
 4757POPC   C1A21171  23.691   3.570   8.550
 4757POPC   D2A21172  23.740   3.541   8.250
 4757POPC   C3A21173  23.735   3.498   7.950
 4757POPC   C4A21174  23.724   3.500   7.650
 4757POPC   C1B21175  23.496   3.582   8.550
 4757POPC   C2B21176  23.489   3.558   8.250
 4757POPC   C3B21177  23.425   3.568   7.950
 4757POPC   C4B21178  23.513   3.555   7.650
 4758POPC   NC321179  14.386  20.650   9.450
 4758POPC   PO421180  14.440  20.616   9.150
 4758POPC   GL121181  14.438  20.629   8.850
 4758POPC   GL221182  14.446  20.693   8.850
 4758POPC   C1A21183  14.431  20.568   8.550
 4758POPC   D2A21184  14.429  20.604   8.250
 4758POPC   C3A21185  14.392  20.577   7.950
 4758POPC   C4A21186  14.431  20.587   7.650
 4758POPC   C1B21187  14.469  20.863   8.550
 4758POPC   C2B21188  14.432  20.851   8.250
 4758POPC   C3B21189  14.497  20.877   7.950
 4758POPC   C4B21190  14.507  20.855   7.650
 4759POPC   NC321191  31.441  33.826   9.450
 4759POPC   PO421192  31.506  33.802   9.150
 4759POPC   GL121193  31.483  33.792   8.850
 4759POPC   GL221194  31.435  33.659   8.850
 4759POPC   C1A21195  31.432  33.814   8.550
 4759POPC   D2A21196  31.464  33.836   8.250
 4759POPC   C3A21197  31.426  33.788   7.950
 4759POPC   C4A21198  31.457  33.817   7.650
 4759POPC   C1B21199  31.419  33.602   8.550
 4759POPC   C2B21200  31.453  33.566   8.250
 4759POPC   C3B21201  31.479  33.517   7.950
 4759POPC   C4B21202  31.472  33.544   7.650
 4760POPC   NC321203   6.638  22.135   9.450
 4760POPC   PO421204   6.632  22.149   9.150
 4760POPC   GL121205   6.690  22.201   8.850
 4760POPC   GL221206   6.505  22.111   8.850
 4760POPC   C1A21207   6.615  22.172   8.550
 4760POPC   D2A21208   6.603  22.118   8.250
 4760POPC   C3A21209   6.674  22.140   7.950
 4760POPC   C4A21210   6.656  22.140   7.650
 4760POPC   C1B21211   6.469  22.086   8.550
 4760POPC   C2B21212   6.383  22.059   8.250
 4760POPC   C3B21213   6.466  22.047   7.950
 4760POPC   C4B21214   6.384  22.022   7.650
 4761POPC   NC321215  24.539   7.468   9.450
 4761POPC   PO421216  24.533   7.390   9.150
 4761POPC   GL121217  24.488   7.371   8.850
 4761POPC   GL221218  24.337   7.506   8.850
 4761POPC   C1A21219  24.473   7.465   8.550
 4761POPC   D2A21220  24.508   7.422   8.250
 4761POPC   C3A21221  24.503   7.440   7.950
 4761POPC   C4A21222  24.459   7.436   7.650
 4761POPC   C1B21223  24.210   7.466   8.550
 4761POPC   C2B21224  24.222   7.463   8.250
 4761POPC   C3B21225  24.252   7.477   7.950
 4761POPC   C4B21226  24.259   7.494   7.650
 4762POPC   NC321227  36.926   0.396   9.450
 4762POPC   PO421228  36.887   0.483   9.150
 4762POPC   GL121229  36.910   0.444   8.850
 4762POPC   GL221230  36.858   0.547   8.850
 4762POPC   C1A21231  36.943   0.451   8.550
 4762POPC   D2A21232  36.893   0.420   8.250
 4762POPC   C3A21233  36.858   0.416   7.950
 4762POPC   C4A21234  36.907   0.417   7.650
 4762POPC   C1B21235  36.795   0.693   8.550
 4762POPC   C2B21236  36.777   0.666   8.250
 4762POPC   C3B21237  36.771   0.625   7.950
 4762POPC   C4B21238  36.775   0.663   7.650
 4763POPC   NC321239  24.477  40.790   9.450
 4763POPC   PO421240  24.488  40.762   9.150
 4763POPC   GL121241  24.504  40.756   8.850
 4763POPC   GL221242  24.486  40.877   8.850
 4763POPC   C1A21243  24.462  40.833   8.550
 4763POPC   D2A21244  24.458  40.745   8.250
 4763POPC   C3A21245  24.450  40.742   7.950
 4763POPC   C4A21246  24.465  40.775   7.650
 4763POPC   C1B21247  24.410  40.998   8.550
 4763POPC   C2B21248  24.448  41.051   8.250
 4763POPC   C3B21249  24.400  41.007   7.950
 4763POPC   C4B21250  24.490  41.001   7.650
 4764POPC   NC321251   2.720  22.944   9.450
 4764POPC   PO421252   2.724  22.934   9.150
 4764POPC   GL121253   2.773  22.930   8.850
 4764POPC   GL221254   2.861  22.835   8.850
 4764POPC   C1A21255   2.748  22.987   8.550
 4764POPC   D2A21256   2.765  22.967   8.250
 4764POPC   C3A21257   2.737  22.918   7.950
 4764POPC   C4A21258   2.726  22.973   7.650
 4764POPC   C1B21259   3.029  22.815   8.550
 4764POPC   C2B21260   3.019  22.821   8.250
 4764POPC   C3B21261   2.968  22.765   7.950
 4764POPC   C4B21262   3.006  22.784   7.650
 4765POPC   NC321263  34.599   6.645   9.450
 4765POPC   PO421264  34.554   6.639   9.150
 4765POPC   GL121265  34.618   6.617   8.850
 4765POPC   GL221266  34.607   6.479   8.850
 4765POPC   C1A21267  34.545   6.694   8.550
 4765POPC   D2A21268  34.619   6.614   8.250
 4765POPC   C3A21269  34.543   6.689   7.950
 4765POPC   C4A21270  34.559   6.664   7.650
 4765POPC   C1B21271  34.650   6.441   8.550
 4765POPC   C2B21272  34.582   6.356   8.250
 4765POPC   C3B21273  34.608   6.395   7.950
 4765POPC   C4B21274  34.598   6.426   7.650
 4766POPC   NC321275  19.813  31.520   9.450
 4766POPC   PO421276  19.820  31.460   9.150
 4766POPC   GL121277  19.827  31.487   8.850
 4766POPC   GL221278  19.908  31.377   8.850
 4766POPC   C1A21279  19.817  31.492   8.550
 4766POPC   D2A21280  19.793  31.442   8.250
 4766POPC   C3A21281  19.820  31.471   7.950
 4766POPC   C4A21282  19.802  31.434   7.650
 4766POPC   C1B21283  19.898  31.208   8.550
 4766POPC   C2B21284  19.955  31.260   8.250
 4766POPC   C3B21285  19.902  31.210   7.950
 4766POPC   C4B21286  19.906  31.207   7.650
 4767POPC   NC321287  33.013  40.001   9.450
 4767POPC   PO421288  33.039  40.003   9.150
 4767POPC   GL121289  32.986  40.013   8.850
 4767POPC   GL221290  33.145  39.957   8.850
 4767POPC   C1A21291  32.978  40.029   8.550
 4767POPC   D2A21292  33.049  40.052   8.250
 4767POPC   C3A21293  32.989  40.041   7.950
 4767POPC   C4A21294  33.011  40.030   7.650
 4767POPC   C1B21295  33.233  39.873   8.550
 4767POPC   C2B21296  33.251  39.896   8.250
 4767POPC   C3B21297  33.187  39.833   7.950
 4767POPC   C4B21298  33.228  39.868   7.650
 4768POPC   NC321299   6.608   6.656   9.450
 4768POPC   PO421300   6.634   6.659   9.150
 4768POPC   GL121301   6.632   6.669   8.850
 4768POPC   GL221302   6.550   6.676   8.850
 4768POPC   C1A21303   6.659   6.599   8.550
 4768POPC   D2A21304   6.693   6.612   8.250
 4768POPC   C3A21305   6.615   6.689   7.950
 4768POPC   C4A21306   6.681   6.654   7.650
 4768POPC   C1B21307   6.363   6.729   8.550
 4768POPC   C2B21308   6.402   6.761   8.250
 4768POPC   C3B21309   6.442   6.696   7.950
 4768POPC   C4B21310   6.399   6.698   7.650
 4769POPC   NC321311  19.062  37.686   9.450
 4769POPC   PO421312  19.041  37.705   9.150
 4769POPC   GL121313  19.056  37.716   8.850
 4769POPC   GL221314  19.059  37.795   8.850
 4769POPC   C1A21315  19.089  37.675   8.550
 4769POPC   D2A21316  19.019  37.704   8.250
 4769POPC   C3A21317  19.047  37.711   7.950
 4769POPC   C4A21318  19.032  37.664   7.650
 4769POPC   C1B21319  19.025  37.900   8.550
 4769POPC   C2B21320  19.009  37.956   8.250
 4769POPC   C3B21321  18.990  37.892   7.950
 4769POPC   C4B21322  19.055  37.904   7.650
 4770POPC   NC321323  10.529  19.105   9.450
 4770POPC   PO421324  10.572  19.022   9.150
 4770POPC   GL121325  10.545  19.036   8.850
 4770POPC   GL221326  10.521  18.934   8.850
 4770POPC   C1A21327  10.498  19.048   8.550
 4770POPC   D2A21328  10.528  19.081   8.250
 4770POPC   C3A21329  10.525  19.083   7.950
 4770POPC   C4A21330  10.545  19.031   7.650
 4770POPC   C1B21331  10.551  18.821   8.550
 4770POPC   C2B21332  10.520  18.781   8.250
 4770POPC   C3B21333  10.606  18.809   7.950
 4770POPC   C4B21334  10.597  18.849   7.650
 4771POPC   NC321335  43.919  10.511   9.450
 4771POPC   PO421336  43.880  10.512   9.150
 4771POPC   GL121337  43.863  10.511   8.850
 4771POPC   GL221338  43.923  10.650   8.850
 4771POPC   C1A21339  43.898  10.504   8.550
 4771POPC   D2A21340  43.915  10.497   8.250
 4771POPC   C3A21341  43.887  10.567   7.950
 4771POPC   C4A21342  43.928  10.545   7.650
 4771POPC   C1B21343  43.924  10.798   8.550
 4771POPC   C2B21344  43.946  10.790   8.250
 4771POPC   C3B21345  43.891  10.777   7.950
 4771POPC   C4B21346  43.876  10.822   7.650
 4772POPC   NC321347  34.550  16.741   9.450
 4772POPC   PO421348  34.594  16.693   9.150
 4772POPC   GL121349  34.562  16.709   8.850
 4772POPC   GL221350  34.686  16.678   8.850
 4772POPC   C1A21351  34.536  16.701   8.550
 4772POPC   D2A21352  34.530  16.710   8.250
 4772POPC   C3A21353  34.615  16.767   7.950
 4772POPC   C4A21354  34.575  16.752   7.650
 4772POPC   C1B21355  34.742  16.554   8.550
 4772POPC   C2B21356  34.689  16.514   8.250
 4772POPC   C3B21357  34.766  16.489   7.950
 4772POPC   C4B21358  34.708  16.487   7.650
 4773POPC   NC321359  34.599  27.546   9.450
 4773POPC   PO421360  34.563  27.572   9.150
 4773POPC   GL121361  34.600  27.596   8.850
 4773POPC   GL221362  34.677  27.663   8.850
 4773POPC   C1A21363  34.529  27.625   8.550
 4773POPC   D2A21364  34.592  27.576   8.250
 4773POPC   C3A21365  34.611  27.561   7.950
 4773POPC   C4A21366  34.623  27.584   7.650
 4773POPC   C1B21367  34.824  27.752   8.550
 4773POPC   C2B21368  34.787  27.703   8.250
 4773POPC   C3B21369  34.745  27.721   7.950
 4773POPC   C4B21370  34.822  27.712   7.650
 4774POPC   NC321371  30.735  21.347   9.450
 4774POPC   PO421372  30.741  21.401   9.150
 4774POPC   GL121373  30.683  21.398   8.850
 4774POPC   GL221374  30.564  21.298   8.850
 4774POPC   C1A21375  30.719  21.360   8.550
 4774POPC   D2A21376  30.701  21.368   8.250
 4774POPC   C3A21377  30.660  21.359   7.950
 4774POPC   C4A21378  30.729  21.430   7.650
 4774POPC   C1B21379  30.526  21.273   8.550
 4774POPC   C2B21380  30.448  21.262   8.250
 4774POPC   C3B21381  30.433  21.307   7.950
 4774POPC   C4B21382  30.476  21.291   7.650
 4775POPC   NC321383  16.735   2.720   9.450
 4775POPC   PO421384  16.773   2.719   9.150
 4775POPC   GL121385  16.697   2.724   8.850
 4775POPC   GL221386  16.696   2.609   8.850
 4775POPC   C1A21387  16.725   2.762   8.550
 4775POPC   D2A21388  16.741   2.737   8.250
 4775POPC   C3A21389  16.687   2.752   7.950
 4775POPC   C4A21390  16.694   2.776   7.650
 4775POPC   C1B21391  16.675   2.544   8.550
 4775POPC   C2B21392  16.677   2.561   8.250
 4775POPC   C3B21393  16.603   2.564   7.950
 4775POPC   C4B21394  16.640   2.516   7.650
 4776POPC   NC321395  42.308  41.606   9.450
 4776POPC   PO421396  42.353  41.585   9.150
 4776POPC   GL121397  42.314  41.511   8.850
 4776POPC   GL221398  42.413  41.679   8.850
 4776POPC   C1A21399  42.366  41.559   8.550
 4776POPC   D2A21400  42.334  41.600   8.250
 4776POPC   C3A21401  42.330  41.521   7.950
 4776POPC   C4A21402  42.347  41.588   7.650
 4776POPC   C1B21403  42.400  41.825   8.550
 4776POPC   C2B21404  42.440  41.770   8.250
 4776POPC   C3B21405  42.368  41.745   7.950
 4776POPC   C4B21406  42.436  41.759   7.650
 4777POPC   NC321407   5.831  12.806   9.450
 4777POPC   PO421408   5.910  12.812   9.150
 4777POPC   GL121409   5.910  12.813   8.850
 4777POPC   GL221410   5.719  12.815   8.850
 4777POPC   C1A21411   5.895  12.874   8.550
 4777POPC   D2A21412   5.836  12.807   8.250
 4777POPC   C3A21413   5.915  12.841   7.950
 4777POPC   C4A21414   5.894  12.901   7.650
 4777POPC   C1B21415   5.628  12.892   8.550
 4777POPC   C2B21416   5.617  12.862   8.250
 4777POPC   C3B21417   5.589  12.861   7.950
 4777POPC   C4B21418   5.666  12.809   7.650
 4778POPC   NC321419   7.404  40.772   9.450
 4778POPC   PO421420   7.436  40.763   9.150
 4778POPC   GL121421   7.468  40.792   8.850
 4778POPC   GL221422   7.497  40.929   8.850
 4778POPC   C1A21423   7.373  40.792   8.550
 4778POPC   D2A21424   7.410  40.749   8.250
 4778POPC   C3A21425   7.411  40.779   7.950
 4778POPC   C4A21426   7.376  40.799   7.650
 4778POPC   C1B21427   7.477  41.042   8.550
 4778POPC   C2B21428   7.487  41.008   8.250
 4778POPC   C3B21429   7.451  41.038   7.950
 4778POPC   C4B21430   7.535  41.056   7.650
 4779POPC   NC321431  17.554  18.307   9.450
 4779POPC   PO421432  17.493  18.331   9.150
 4779POPC   GL121433  17.499  18.332   8.850
 4779POPC   GL221434  17.667  18.259   8.850
 4779POPC   C1A21435  17.469  18.268   8.550
 4779POPC   D2A21436  17.495  18.314   8.250
 4779POPC   C3A21437  17.510  18.261   7.950
 4779POPC   C4A21438  17.485  18.305   7.650
 4779POPC   C1B21439  17.807  18.245   8.550
 4779POPC   C2B21440  17.737  18.250   8.250
 4779POPC   C3B21441  17.753  18.269   7.950
 4779POPC   C4B21442  17.754  18.313   7.650
 4780POPC   NC321443   3.588  21.353   9.450
 4780POPC   PO421444   3.527  21.408   9.150
 4780POPC   GL121445   3.538  21.432   8.850
 4780POPC   GL221446   3.440  21.361   8.850
 4780POPC   C1A21447   3.585  21.411   8.550
 4780POPC   D2A21448   3.548  21.432   8.250
 4780POPC   C3A21449   3.534  21.395   7.950
 4780POPC   C4A21450   3.588  21.355   7.650
 4780POPC   C1B21451   3.327  21.333   8.550
 4780POPC   C2B21452   3.268  21.299   8.250
 4780POPC   C3B21453   3.344  21.373   7.950
 4780POPC   C4B21454   3.342  21.337   7.650
 4781POPC   NC321455  40.047  33.801   9.450
 4781POPC   PO421456  40.049  33.807   9.150
 4781POPC   GL121457  39.974  33.836   8.850
 4781POPC   GL221458  39.905  33.766   8.850
 4781POPC   C1A21459  40.051  33.760   8.550
 4781POPC   D2A21460  40.054  33.771   8.250
 4781POPC   C3A21461  39.988  33.835   7.950
 4781POPC   C4A21462  40.036  33.805   7.650
 4781POPC   C1B21463  39.822  33.729   8.550
 4781POPC   C2B21464  39.775  33.721   8.250
 4781POPC   C3B21465  39.772  33.672   7.950
 4781POPC   C4B21466  39.772  33.738   7.650
 4782POPC   NC321467  31.455  40.820   9.450
 4782POPC   PO421468  31.508  40.807   9.150
 4782POPC   GL121469  31.490  40.754   8.850
 4782POPC   GL221470  31.518  40.634   8.850
 4782POPC   C1A21471  31.503  40.824   8.550
 4782POPC   D2A21472  31.493  40.739   8.250
 4782POPC   C3A21473  31.456  40.772   7.950
 4782POPC   C4A21474  31.489  40.825   7.650
 4782POPC   C1B21475  31.551  40.540   8.550
 4782POPC   C2B21476  31.524  40.547   8.250
 4782POPC   C3B21477  31.597  40.583   7.950
 4782POPC   C4B21478  31.580  40.573   7.650
 4783POPC   NC321479  38.478  34.577   9.450
 4783POPC   PO421480  38.417  34.582   9.150
 4783POPC   GL121481  38.422  34.532   8.850
 4783POPC   GL221482  38.430  34.696   8.850
 4783POPC   C1A21483  38.424  34.591   8.550
 4783POPC   D2A21484  38.458  34.598   8.250
 4783POPC   C3A21485  38.414  34.565   7.950
 4783POPC   C4A21486  38.454  34.572   7.650
 4783POPC   C1B21487  38.500  34.829   8.550
 4783POPC   C2B21488  38.473  34.787   8.250
 4783POPC   C3B21489  38.422  34.860   7.950
 4783POPC   C4B21490  38.465  34.837   7.650
 4784POPC   NC321491  15.923  34.585   9.450
 4784POPC   PO421492  15.928  34.546   9.150
 4784POPC   GL121493  15.981  34.608   8.850
 4784POPC   GL221494  15.877  34.434   8.850
 4784POPC   C1A21495  15.965  34.585   8.550
 4784POPC   D2A21496  15.908  34.595   8.250
 4784POPC   C3A21497  15.970  34.612   7.950
 4784POPC   C4A21498  15.951  34.599   7.650
 4784POPC   C1B21499  15.746  34.430   8.550
 4784POPC   C2B21500  15.762  34.361   8.250
 4784POPC   C3B21501  15.816  34.370   7.950
 4784POPC   C4B21502  15.833  34.405   7.650
 4785POPC   NC321503  16.707  16.003   9.450
 4785POPC   PO421504  16.711  16.002   9.150
 4785POPC   GL121505  16.719  15.912   8.850
 4785POPC   GL221506  16.627  16.004   8.850
 4785POPC   C1A21507  16.728  15.986   8.550
 4785POPC   D2A21508  16.778  15.961   8.250
 4785POPC   C3A21509  16.765  15.923   7.950
 4785POPC   C4A21510  16.759  15.975   7.650
 4785POPC   C1B21511  16.494  16.017   8.550
 4785POPC   C2B21512  16.488  15.960   8.250
 4785POPC   C3B21513  16.434  16.029   7.950
 4785POPC   C4B21514  16.460  15.958   7.650
 4786POPC   NC321515  12.039  22.203   9.450
 4786POPC   PO421516  12.107  22.191   9.150
 4786POPC   GL121517  12.105  22.113   8.850
 4786POPC   GL221518  11.919  22.209   8.850
 4786POPC   C1A21519  12.068  22.208   8.550
 4786POPC   D2A21520  12.065  22.190   8.250
 4786POPC   C3A21521  12.108  22.204   7.950
 4786POPC   C4A21522  12.118  22.185   7.650
 4786POPC   C1B21523  11.860  22.240   8.550
 4786POPC   C2B21524  11.887  22.313   8.250
 4786POPC   C3B21525  11.887  22.253   7.950
 4786POPC   C4B21526  11.809  22.307   7.650
 4787POPC   NC321527  19.059  26.779   9.450
 4787POPC   PO421528  19.049  26.790   9.150
 4787POPC   GL121529  19.013  26.824   8.850
 4787POPC   GL221530  18.968  26.837   8.850
 4787POPC   C1A21531  19.106  26.832   8.550
 4787POPC   D2A21532  19.063  26.857   8.250
 4787POPC   C3A21533  19.067  26.807   7.950
 4787POPC   C4A21534  19.067  26.834   7.650
 4787POPC   C1B21535  18.824  26.903   8.550
 4787POPC   C2B21536  18.880  26.927   8.250
 4787POPC   C3B21537  18.882  26.942   7.950
 4787POPC   C4B21538  18.876  26.922   7.650
 4788POPC   NC321539  44.671   8.946   9.450
 4788POPC   PO421540  44.661   9.002   9.150
 4788POPC   GL121541  44.667   8.941   8.850
 4788POPC   GL221542  44.791   8.984   8.850
 4788POPC   C1A21543  44.660   8.935   8.550
 4788POPC   D2A21544  44.625   8.980   8.250
 4788POPC   C3A21545  44.697   8.977   7.950
 4788POPC   C4A21546  44.630   8.976   7.650
 4788POPC   C1B21547  44.912   9.043   8.550
 4788POPC   C2B21548  44.899   9.065   8.250
 4788POPC   C3B21549  44.945   9.038   7.950
 4788POPC   C4B21550  44.943   9.012   7.650
 4789POPC   NC321551   5.901  20.643   9.450
 4789POPC   PO421552   5.896  20.561   9.150
 4789POPC   GL121553   5.897  20.632   8.850
 4789POPC   GL221554   5.793  20.553   8.850
 4789POPC   C1A21555   5.890  20.579   8.550
 4789POPC   D2A21556   5.868  20.601   8.250
 4789POPC   C3A21557   5.891  20.580   7.950
 4789POPC   C4A21558   5.866  20.620   7.650
 4789POPC   C1B21559   5.590  20.559   8.550
 4789POPC   C2B21560   5.580  20.541   8.250
 4789POPC   C3B21561   5.644  20.553   7.950
 4789POPC   C4B21562   5.618  20.528   7.650
 4790POPC   NC321563   4.365   7.431   9.450
 4790POPC   PO421564   4.270   7.410   9.150
 4790POPC   GL121565   4.285   7.389   8.850
 4790POPC   GL221566   4.353   7.481   8.850
 4790POPC   C1A21567   4.336   7.418   8.550
 4790POPC   D2A21568   4.360   7.397   8.250
 4790POPC   C3A21569   4.351   7.457   7.950
 4790POPC   C4A21570   4.322   7.441   7.650
 4790POPC   C1B21571   4.490   7.648   8.550
 4790POPC   C2B21572   4.531   7.610   8.250
 4790POPC   C3B21573   4.474   7.573   7.950
 4790POPC   C4B21574   4.490   7.590   7.650
 4791POPC   NC321575  23.747  23.676   9.450
 4791POPC   PO421576  23.759  23.747   9.150
 4791POPC   GL121577  23.722  23.718   8.850
 4791POPC   GL221578  23.785  23.783   8.850
 4791POPC   C1A21579  23.733  23.722   8.550
 4791POPC   D2A21580  23.706  23.702   8.250
 4791POPC   C3A21581  23.731  23.719   7.950
 4791POPC   C4A21582  23.688  23.665   7.650
 4791POPC   C1B21583  23.910  23.849   8.550
 4791POPC   C2B21584  23.921  23.844   8.250
 4791POPC   C3B21585  23.953  23.822   7.950
 4791POPC   C4B21586  23.923  23.854   7.650
 4792POPC   NC321587   5.875  19.041   9.450
 4792POPC   PO421588   5.825  19.012   9.150
 4792POPC   GL121589   5.832  19.096   8.850
 4792POPC   GL221590   5.937  19.115   8.850
 4792POPC   C1A21591   5.919  19.082   8.550
 4792POPC   D2A21592   5.840  19.099   8.250
 4792POPC   C3A21593   5.912  19.051   7.950
 4792POPC   C4A21594   5.918  19.025   7.650
 4792POPC   C1B21595   6.032  19.246   8.550
 4792POPC   C2B21596   6.015  19.235   8.250
 4792POPC   C3B21597   6.034  19.212   7.950
 4792POPC   C4B21598   5.997  19.237   7.650
 4793POPC   NC321599  34.604  25.997   9.450
 4793POPC   PO421600  34.548  26.073   9.150
 4793POPC   GL121601  34.615  26.055   8.850
 4793POPC   GL221602  34.478  25.938   8.850
 4793POPC   C1A21603  34.536  26.038   8.550
 4793POPC   D2A21604  34.550  26.055   8.250
 4793POPC   C3A21605  34.537  26.065   7.950
 4793POPC   C4A21606  34.600  26.070   7.650
 4793POPC   C1B21607  34.375  25.885   8.550
 4793POPC   C2B21608  34.364  25.869   8.250
 4793POPC   C3B21609  34.372  25.884   7.950
 4793POPC   C4B21610  34.369  25.881   7.650
 4794POPC   NC321611  15.227   3.500   9.450
 4794POPC   PO421612  15.192   3.563   9.150
 4794POPC   GL121613  15.221   3.573   8.850
 4794POPC   GL221614  15.290   3.394   8.850
 4794POPC   C1A21615  15.160   3.513   8.550
 4794POPC   D2A21616  15.220   3.539   8.250
 4794POPC   C3A21617  15.178   3.496   7.950
 4794POPC   C4A21618  15.226   3.586   7.650
 4794POPC   C1B21619  15.300   3.322   8.550
 4794POPC   C2B21620  15.274   3.335   8.250
 4794POPC   C3B21621  15.346   3.277   7.950
 4794POPC   C4B21622  15.298   3.324   7.650
 4795POPC   NC321623  29.180  17.521   9.450
 4795POPC   PO421624  29.129  17.549   9.150
 4795POPC   GL121625  29.194  17.524   8.850
 4795POPC   GL221626  29.217  17.388   8.850
 4795POPC   C1A21627  29.124  17.514   8.550
 4795POPC   D2A21628  29.119  17.461   8.250
 4795POPC   C3A21629  29.144  17.545   7.950
 4795POPC   C4A21630  29.185  17.541   7.650
 4795POPC   C1B21631  29.276  17.352   8.550
 4795POPC   C2B21632  29.339  17.292   8.250
 4795POPC   C3B21633  29.329  17.339   7.950
 4795POPC   C4B21634  29.269  17.349   7.650
 4796POPC   NC321635  41.513  30.715   9.450
 4796POPC   PO421636  41.569  30.712   9.150
 4796POPC   GL121637  41.586  30.670   8.850
 4796POPC   GL221638  41.524  30.540   8.850
 4796POPC   C1A21639  41.566  30.655   8.550
 4796POPC   D2A21640  41.510  30.721   8.250
 4796POPC   C3A21641  41.584  30.701   7.950
 4796POPC   C4A21642  41.585  30.746   7.650
 4796POPC   C1B21643  41.448  30.440   8.550
 4796POPC   C2B21644  41.505  30.512   8.250
 4796POPC   C3B21645  41.423  30.496   7.950
 4796POPC   C4B21646  41.499  30.447   7.650
 4797POPC   NC321647   9.788  15.946   9.450
 4797POPC   PO421648   9.765  15.998   9.150
 4797POPC   GL121649   9.737  15.962   8.850
 4797POPC   GL221650   9.707  15.801   8.850
 4797POPC   C1A21651   9.758  15.957   8.550
 4797POPC   D2A21652   9.741  15.994   8.250
 4797POPC   C3A21653   9.770  15.994   7.950
 4797POPC   C4A21654   9.754  15.975   7.650
 4797POPC   C1B21655   9.727  15.666   8.550
 4797POPC   C2B21656   9.763  15.742   8.250
 4797POPC   C3B21657   9.778  15.727   7.950
 4797POPC   C4B21658   9.689  15.675   7.650
 4798POPC   NC321659  43.869  35.305   9.450
 4798POPC   PO421660  43.897  35.312   9.150
 4798POPC   GL121661  43.839  35.310   8.850
 4798POPC   GL221662  43.921  35.207   8.850
 4798POPC   C1A21663  43.856  35.373   8.550
 4798POPC   D2A21664  43.860  35.337   8.250
 4798POPC   C3A21665  43.856  35.388   7.950
 4798POPC   C4A21666  43.899  35.367   7.650
 4798POPC   C1B21667  43.912  35.098   8.550
 4798POPC   C2B21668  43.928  35.117   8.250
 4798POPC   C3B21669  43.898  35.074   7.950
 4798POPC   C4B21670  43.921  35.085   7.650
 4799POPC   NC321671  43.885   0.405   9.450
 4799POPC   PO421672  43.837   0.488   9.150
 4799POPC   GL121673  43.849   0.454   8.850
 4799POPC   GL221674  44.042   0.452   8.850
 4799POPC   C1A21675  43.936   0.460   8.550
 4799POPC   D2A21676  43.883   0.439   8.250
 4799POPC   C3A21677  43.855   0.438   7.950
 4799POPC   C4A21678  43.904   0.392   7.650
 4799POPC   C1B21679  44.105   0.597   8.550
 4799POPC   C2B21680  44.056   0.534   8.250
 4799POPC   C3B21681  44.083   0.514   7.950
 4799POPC   C4B21682  44.135   0.579   7.650
 4800POPC   NC321683  36.148  35.347   9.450
 4800POPC   PO421684  36.107  35.352   9.150
 4800POPC   GL121685  36.081  35.379   8.850
 4800POPC   GL221686  36.208  35.433   8.850
 4800POPC   C1A21687  36.171  35.365   8.550
 4800POPC   D2A21688  36.110  35.317   8.250
 4800POPC   C3A21689  36.171  35.400   7.950
 4800POPC   C4A21690  36.135  35.342   7.650
 4800POPC   C1B21691  36.228  35.595   8.550
 4800POPC   C2B21692  36.270  35.551   8.250
 4800POPC   C3B21693  36.259  35.564   7.950
 4800POPC   C4B21694  36.258  35.597   7.650
 4801POPC   NC321695  26.781   5.138   9.450
 4801POPC   PO421696  26.845   5.131   9.150
 4801POPC   GL121697  26.778   5.077   8.850
 4801POPC   GL221698  26.923   5.048   8.850
 4801POPC   C1A21699  26.834   5.087   8.550
 4801POPC   D2A21700  26.820   5.114   8.250
 4801POPC   C3A21701  26.774   5.112   7.950
 4801POPC   C4A21702  26.863   5.050   7.650
 4801POPC   C1B21703  27.103   4.995   8.550
 4801POPC   C2B21704  27.086   5.074   8.250
 4801POPC   C3B21705  27.096   5.077   7.950
 4801POPC   C4B21706  27.098   5.032   7.650
 4802POPC   NC321707  14.442   5.134   9.450
 4802POPC   PO421708  14.444   5.140   9.150
 4802POPC   GL121709  14.354   5.126   8.850
 4802POPC   GL221710  14.265   5.111   8.850
 4802POPC   C1A21711  14.390   5.103   8.550
 4802POPC   D2A21712  14.426   5.109   8.250
 4802POPC   C3A21713  14.366   5.058   7.950
 4802POPC   C4A21714  14.388   5.094   7.650
 4802POPC   C1B21715  14.107   5.123   8.550
 4802POPC   C2B21716  14.110   5.144   8.250
 4802POPC   C3B21717  14.164   5.113   7.950
 4802POPC   C4B21718  14.141   5.092   7.650
 4803POPC   NC321719  29.124  26.025   9.450
 4803POPC   PO421720  29.188  26.017   9.150
 4803POPC   GL121721  29.176  26.045   8.850
 4803POPC   GL221722  29.298  26.076   8.850
 4803POPC   C1A21723  29.163  26.072   8.550
 4803POPC   D2A21724  29.149  26.059   8.250
 4803POPC   C3A21725  29.191  26.049   7.950
 4803POPC   C4A21726  29.120  26.042   7.650
 4803POPC   C1B21727  29.417  26.110   8.550
 4803POPC   C2B21728  29.339  26.136   8.250
 4803POPC   C3B21729  29.418  26.125   7.950
 4803POPC   C4B21730  29.364  26.142   7.650
 4804POPC   NC321731  12.092  14.387   9.450
 4804POPC   PO421732  12.062  14.380   9.150
 4804POPC   GL121733  12.107  14.356   8.850
 4804POPC   GL221734  12.209  14.330   8.850
 4804POPC   C1A21735  12.116  14.448   8.550
 4804POPC   D2A21736  12.121  14.453   8.250
 4804POPC   C3A21737  12.065  14.444   7.950
 4804POPC   C4A21738  12.093  14.412   7.650
 4804POPC   C1B21739  12.292  14.327   8.550
 4804POPC   C2B21740  12.303  14.316   8.250
 4804POPC   C3B21741  12.287  14.319   7.950
 4804POPC   C4B21742  12.326  14.254   7.650
 4805POPC   NC321743  10.508   9.766   9.450
 4805POPC   PO421744  10.497   9.714   9.150
 4805POPC   GL121745  10.520   9.701   8.850
 4805POPC   GL221746  10.456   9.908   8.850
 4805POPC   C1A21747  10.492   9.731   8.550
 4805POPC   D2A21748  10.565   9.724   8.250
 4805POPC   C3A21749  10.521   9.731   7.950
 4805POPC   C4A21750  10.546   9.735   7.650
 4805POPC   C1B21751  10.508   9.954   8.550
 4805POPC   C2B21752  10.480   9.972   8.250
 4805POPC   C3B21753  10.508   9.963   7.950
 4805POPC   C4B21754  10.473  10.042   7.650
 4806POPC   NC321755  40.047  31.483   9.450
 4806POPC   PO421756  39.965  31.516   9.150
 4806POPC   GL121757  40.018  31.451   8.850
 4806POPC   GL221758  40.126  31.420   8.850
 4806POPC   C1A21759  39.958  31.454   8.550
 4806POPC   D2A21760  40.054  31.518   8.250
 4806POPC   C3A21761  40.021  31.424   7.950
 4806POPC   C4A21762  40.045  31.453   7.650
 4806POPC   C1B21763  40.198  31.431   8.550
 4806POPC   C2B21764  40.220  31.337   8.250
 4806POPC   C3B21765  40.243  31.423   7.950
 4806POPC   C4B21766  40.241  31.335   7.650
 4807POPC   NC321767  33.824  31.478   9.450
 4807POPC   PO421768  33.751  31.453   9.150
 4807POPC   GL121769  33.811  31.486   8.850
 4807POPC   GL221770  33.696  31.448   8.850
 4807POPC   C1A21771  33.784  31.490   8.550
 4807POPC   D2A21772  33.815  31.474   8.250
 4807POPC   C3A21773  33.766  31.492   7.950
 4807POPC   C4A21774  33.845  31.480   7.650
 4807POPC   C1B21775  33.513  31.531   8.550
 4807POPC   C2B21776  33.588  31.486   8.250
 4807POPC   C3B21777  33.536  31.477   7.950
 4807POPC   C4B21778  33.577  31.521   7.650
 4808POPC   NC321779  12.047  12.807   9.450
 4808POPC   PO421780  12.044  12.895   9.150
 4808POPC   GL121781  12.078  12.901   8.850
 4808POPC   GL221782  11.989  12.775   8.850
 4808POPC   C1A21783  12.034  12.862   8.550
 4808POPC   D2A21784  12.095  12.874   8.250
 4808POPC   C3A21785  12.091  12.844   7.950
 4808POPC   C4A21786  12.040  12.896   7.650
 4808POPC   C1B21787  11.970  12.660   8.550
 4808POPC   C2B21788  11.984  12.680   8.250
 4808POPC   C3B21789  11.980  12.627   7.950
 4808POPC   C4B21790  11.910  12.632   7.650
 4809POPC   NC321791  40.008  42.298   9.450
 4809POPC   PO421792  39.991  42.305   9.150
 4809POPC   GL121793  40.010  42.314   8.850
 4809POPC   GL221794  40.164  42.381   8.850
 4809POPC   C1A21795  40.033  42.343   8.550
 4809POPC   D2A21796  40.001  42.297   8.250
 4809POPC   C3A21797  39.987  42.286   7.950
 4809POPC   C4A21798  40.018  42.294   7.650
 4809POPC   C1B21799  40.244  42.430   8.550
 4809POPC   C2B21800  40.294  42.399   8.250
 4809POPC   C3B21801  40.263  42.408   7.950
 4809POPC   C4B21802  40.284  42.434   7.650
 4810POPC   NC321803  22.959  26.775   9.450
 4810POPC   PO421804  22.930  26.820   9.150
 4810POPC   GL121805  22.945  26.843   8.850
 4810POPC   GL221806  22.934  26.645   8.850
 4810POPC   C1A21807  22.929  26.810   8.550
 4810POPC   D2A21808  22.917  26.793   8.250
 4810POPC   C3A21809  22.978  26.799   7.950
 4810POPC   C4A21810  22.930  26.832   7.650
 4810POPC   C1B21811  22.928  26.579   8.550
 4810POPC   C2B21812  23.006  26.545   8.250
 4810POPC   C3B21813  22.969  26.576   7.950
 4810POPC   C4B21814  22.935  26.551   7.650
 4811POPC   NC321815   3.580  22.133   9.450
 4811POPC   PO421816   3.559  22.125   9.150
 4811POPC   GL121817   3.494  22.158   8.850
 4811POPC   GL221818   3.701  22.130   8.850
 4811POPC   C1A21819   3.582  22.134   8.550
 4811POPC   D2A21820   3.526  22.136   8.250
 4811POPC   C3A21821   3.568  22.114   7.950
 4811POPC   C4A21822   3.546  22.211   7.650
 4811POPC   C1B21823   3.790  22.093   8.550
 4811POPC   C2B21824   3.766  22.084   8.250
 4811POPC   C3B21825   3.757  22.092   7.950
 4811POPC   C4B21826   3.748  22.116   7.650
 4812POPC   NC321827  12.031  24.526   9.450
 4812POPC   PO421828  12.027  24.492   9.150
 4812POPC   GL121829  12.063  24.456   8.850
 4812POPC   GL221830  11.947  24.384   8.850
 4812POPC   C1A21831  12.072  24.496   8.550
 4812POPC   D2A21832  12.045  24.478   8.250
 4812POPC   C3A21833  12.049  24.477   7.950
 4812POPC   C4A21834  12.032  24.520   7.650
 4812POPC   C1B21835  11.890  24.283   8.550
 4812POPC   C2B21836  11.902  24.363   8.250
 4812POPC   C3B21837  11.919  24.319   7.950
 4812POPC   C4B21838  11.843  24.327   7.650
 4813POPC   NC321839  19.820   9.793   9.450
 4813POPC   PO421840  19.818   9.740   9.150
 4813POPC   GL121841  19.813   9.735   8.850
 4813POPC   GL221842  19.683   9.776   8.850
 4813POPC   C1A21843  19.836   9.788   8.550
 4813POPC   D2A21844  19.845   9.760   8.250
 4813POPC   C3A21845  19.788   9.737   7.950
 4813POPC   C4A21846  19.870   9.772   7.650
 4813POPC   C1B21847  19.575   9.887   8.550
 4813POPC   C2B21848  19.570   9.867   8.250
 4813POPC   C3B21849  19.570   9.866   7.950
 4813POPC   C4B21850  19.638   9.893   7.650
 4814POPC   NC321851  30.670  12.057   9.450
 4814POPC   PO421852  30.675  12.040   9.150
 4814POPC   GL121853  30.687  12.113   8.850
 4814POPC   GL221854  30.774  12.074   8.850
 4814POPC   C1A21855  30.683  12.066   8.550
 4814POPC   D2A21856  30.679  12.071   8.250
 4814POPC   C3A21857  30.656  12.117   7.950
 4814POPC   C4A21858  30.679  12.071   7.650
 4814POPC   C1B21859  30.944  12.110   8.550
 4814POPC   C2B21860  30.909  12.017   8.250
 4814POPC   C3B21861  30.916  12.055   7.950
 4814POPC   C4B21862  30.928  12.059   7.650
 4815POPC   NC321863  13.591  23.733   9.450
 4815POPC   PO421864  13.665  23.699   9.150
 4815POPC   GL121865  13.606  23.693   8.850
 4815POPC   GL221866  13.705  23.738   8.850
 4815POPC   C1A21867  13.615  23.683   8.550
 4815POPC   D2A21868  13.603  23.684   8.250
 4815POPC   C3A21869  13.618  23.691   7.950
 4815POPC   C4A21870  13.650  23.664   7.650
 4815POPC   C1B21871  13.902  23.733   8.550
 4815POPC   C2B21872  13.888  23.693   8.250
 4815POPC   C3B21873  13.834  23.772   7.950
 4815POPC   C4B21874  13.860  23.680   7.650
 4816POPC   NC321875  39.981  25.308   9.450
 4816POPC   PO421876  40.029  25.237   9.150
 4816POPC   GL121877  40.046  25.244   8.850
 4816POPC   GL221878  40.023  25.203   8.850
 4816POPC   C1A21879  40.013  25.250   8.550
 4816POPC   D2A21880  40.013  25.307   8.250
 4816POPC   C3A21881  40.043  25.281   7.950
 4816POPC   C4A21882  40.017  25.230   7.650
 4816POPC   C1B21883  40.162  25.041   8.550
 4816POPC   C2B21884  40.171  25.085   8.250
 4816POPC   C3B21885  40.182  25.064   7.950
 4816POPC   C4B21886  40.083  25.044   7.650
 4817POPC   NC321887  19.062  22.984   9.450
 4817POPC   PO421888  19.045  22.904   9.150
 4817POPC   GL121889  19.055  22.973   8.850
 4817POPC   GL221890  19.142  22.994   8.850
 4817POPC   C1A21891  19.054  22.918   8.550
 4817POPC   D2A21892  19.043  22.916   8.250
 4817POPC   C3A21893  19.083  22.962   7.950
 4817POPC   C4A21894  19.094  22.918   7.650
 4817POPC   C1B21895  19.305  23.036   8.550
 4817POPC   C2B21896  19.259  23.037   8.250
 4817POPC   C3B21897  19.282  23.057   7.950
 4817POPC   C4B21898  19.315  22.975   7.650
 4818POPC   NC321899  36.863  15.163   9.450
 4818POPC   PO421900  36.890  15.156   9.150
 4818POPC   GL121901  36.895  15.177   8.850
 4818POPC   GL221902  36.922  15.263   8.850
 4818POPC   C1A21903  36.896  15.217   8.550
 4818POPC   D2A21904  36.920  15.141   8.250
 4818POPC   C3A21905  36.912  15.137   7.950
 4818POPC   C4A21906  36.877  15.190   7.650
 4818POPC   C1B21907  36.889  15.376   8.550
 4818POPC   C2B21908  36.841  15.380   8.250
 4818POPC   C3B21909  36.845  15.442   7.950
 4818POPC   C4B21910  36.869  15.474   7.650
 4819POPC   NC321911  19.085  14.373   9.450
 4819POPC   PO421912  19.075  14.367   9.150
 4819POPC   GL121913  19.030  14.402   8.850
 4819POPC   GL221914  18.958  14.360   8.850
 4819POPC   C1A21915  19.096  14.446   8.550
 4819POPC   D2A21916  19.086  14.416   8.250
 4819POPC   C3A21917  19.010  14.358   7.950
 4819POPC   C4A21918  19.106  14.405   7.650
 4819POPC   C1B21919  18.793  14.317   8.550
 4819POPC   C2B21920  18.787  14.299   8.250
 4819POPC   C3B21921  18.787  14.293   7.950
 4819POPC   C4B21922  18.805  14.275   7.650
 4820POPC   NC321923  41.558  12.899   9.450
 4820POPC   PO421924  41.601  12.807   9.150
 4820POPC   GL121925  41.598  12.806   8.850
 4820POPC   GL221926  41.431  12.825   8.850
 4820POPC   C1A21927  41.547  12.868   8.550
 4820POPC   D2A21928  41.588  12.876   8.250
 4820POPC   C3A21929  41.569  12.901   7.950
 4820POPC   C4A21930  41.562  12.837   7.650
 4820POPC   C1B21931  41.296  12.762   8.550
 4820POPC   C2B21932  41.354  12.821   8.250
 4820POPC   C3B21933  41.362  12.773   7.950
 4820POPC   C4B21934  41.276  12.788   7.650
 4821POPC   NC321935  15.997  12.879   9.450
 4821POPC   PO421936  15.974  12.876   9.150
 4821POPC   GL121937  15.994  12.823   8.850
 4821POPC   GL221938  16.009  12.764   8.850
 4821POPC   C1A21939  15.907  12.812   8.550
 4821POPC   D2A21940  15.975  12.874   8.250
 4821POPC   C3A21941  15.910  12.901   7.950
 4821POPC   C4A21942  15.935  12.830   7.650
 4821POPC   C1B21943  15.975  12.625   8.550
 4821POPC   C2B21944  16.024  12.595   8.250
 4821POPC   C3B21945  15.974  12.637   7.950
 4821POPC   C4B21946  15.967  12.562   7.650
 4822POPC   NC321947  24.475  20.607   9.450
 4822POPC   PO421948  24.449  20.607   9.150
 4822POPC   GL121949  24.506  20.636   8.850
 4822POPC   GL221950  24.590  20.532   8.850
 4822POPC   C1A21951  24.458  20.631   8.550
 4822POPC   D2A21952  24.506  20.636   8.250
 4822POPC   C3A21953  24.483  20.562   7.950
 4822POPC   C4A21954  24.445  20.657   7.650
 4822POPC   C1B21955  24.672  20.475   8.550
 4822POPC   C2B21956  24.660  20.428   8.250
 4822POPC   C3B21957  24.726  20.422   7.950
 4822POPC   C4B21958  24.702  20.471   7.650
 4823POPC   NC321959  28.360  19.062   9.450
 4823POPC   PO421960  28.319  19.091   9.150
 4823POPC   GL121961  28.386  19.022   8.850
 4823POPC   GL221962  28.449  18.997   8.850
 4823POPC   C1A21963  28.349  19.046   8.550
 4823POPC   D2A21964  28.415  19.079   8.250
 4823POPC   C3A21965  28.342  19.099   7.950
 4823POPC   C4A21966  28.345  19.043   7.650
 4823POPC   C1B21967  28.582  18.970   8.550
 4823POPC   C2B21968  28.663  19.056   8.250
 4823POPC   C3B21969  28.605  19.064   7.950
 4823POPC   C4B21970  28.643  19.012   7.650
 4824POPC   NC321971  26.837  26.781   9.450
 4824POPC   PO421972  26.821  26.830   9.150
 4824POPC   GL121973  26.850  26.854   8.850
 4824POPC   GL221974  26.716  26.693   8.850
 4824POPC   C1A21975  26.773  26.793   8.550
 4824POPC   D2A21976  26.770  26.822   8.250
 4824POPC   C3A21977  26.848  26.821   7.950
 4824POPC   C4A21978  26.825  26.834   7.650
 4824POPC   C1B21979  26.676  26.674   8.550
 4824POPC   C2B21980  26.629  26.642   8.250
 4824POPC   C3B21981  26.617  26.698   7.950
 4824POPC   C4B21982  26.625  26.633   7.650
 4825POPC   NC321983  30.719   9.714   9.450
 4825POPC   PO421984  30.692   9.732   9.150
 4825POPC   GL121985  30.659   9.780   8.850
 4825POPC   GL221986  30.723   9.839   8.850
 4825POPC   C1A21987  30.727   9.765   8.550
 4825POPC   D2A21988  30.649   9.749   8.250
 4825POPC   C3A21989  30.698   9.765   7.950
 4825POPC   C4A21990  30.655   9.762   7.650
 4825POPC   C1B21991  30.790   9.958   8.550
 4825POPC   C2B21992  30.756  10.023   8.250
 4825POPC   C3B21993  30.759   9.968   7.950
 4825POPC   C4B21994  30.806   9.999   7.650
 4826POPC   NC321995   3.564  36.904   9.450
 4826POPC   PO421996   3.513  36.868   9.150
 4826POPC   GL121997   3.509  36.951   8.850
 4826POPC   GL221998   3.559  37.052   8.850
 4826POPC   C1A21999   3.518  36.864   8.550
 4826POPC   D2A22000   3.521  36.882   8.250
 4826POPC   C3A22001   3.506  36.871   7.950
 4826POPC   C4A22002   3.543  36.892   7.650
 4826POPC   C1B22003   3.506  37.186   8.550
 4826POPC   C2B22004   3.571  37.148   8.250
 4826POPC   C3B22005   3.520  37.151   7.950
 4826POPC   C4B22006   3.508  37.151   7.650
 4827POPC   NC322007  12.045  22.930   9.450
 4827POPC   PO422008  12.085  22.912   9.150
 4827POPC   GL122009  12.088  22.951   8.850
 4827POPC   GL222010  12.111  22.840   8.850
 4827POPC   C1A22011  12.060  22.965   8.550
 4827POPC   D2A22012  12.088  22.902   8.250
 4827POPC   C3A22013  12.097  22.943   7.950
 4827POPC   C4A22014  12.030  22.927   7.650
 4827POPC   C1B22015  12.164  22.758   8.550
 4827POPC   C2B22016  12.202  22.732   8.250
 4827POPC   C3B22017  12.255  22.731   7.950
 4827POPC   C4B22018  12.190  22.721   7.650
 4828POPC   NC322019  27.585  20.597   9.450
 4828POPC   PO422020  27.563  20.615   9.150
 4828POPC   GL122021  27.624  20.640   8.850
 4828POPC   GL222022  27.691  20.466   8.850
 4828POPC   C1A22023  27.552  20.654   8.550
 4828POPC   D2A22024  27.639  20.635   8.250
 4828POPC   C3A22025  27.543  20.659   7.950
 4828POPC   C4A22026  27.595  20.659   7.650
 4828POPC   C1B22027  27.723  20.436   8.550
 4828POPC   C2B22028  27.714  20.343   8.250
 4828POPC   C3B22029  27.735  20.427   7.950
 4828POPC   C4B22030  27.701  20.433   7.650
 4829POPC   NC322031  24.539  36.118   9.450
 4829POPC   PO422032  24.528  36.125   9.150
 4829POPC   GL122033  24.525  36.120   8.850
 4829POPC   GL222034  24.572  36.122   8.850
 4829POPC   C1A22035  24.476  36.119   8.550
 4829POPC   D2A22036  24.492  36.086   8.250
 4829POPC   C3A22037  24.490  36.150   7.950
 4829POPC   C4A22038  24.480  36.084   7.650
 4829POPC   C1B22039  24.712  36.220   8.550
 4829POPC   C2B22040  24.742  36.153   8.250
 4829POPC   C3B22041  24.706  36.156   7.950
 4829POPC   C4B22042  24.734  36.206   7.650
 4830POPC   NC322043  18.297  38.426   9.450
 4830POPC   PO422044  18.322  38.470   9.150
 4830POPC   GL122045  18.247  38.476   8.850
 4830POPC   GL222046  18.413  38.394   8.850
 4830POPC   C1A22047  18.235  38.449   8.550
 4830POPC   D2A22048  18.286  38.430   8.250
 4830POPC   C3A22049  18.269  38.450   7.950
 4830POPC   C4A22050  18.325  38.425   7.650
 4830POPC   C1B22051  18.528  38.374   8.550
 4830POPC   C2B22052  18.550  38.424   8.250
 4830POPC   C3B22053  18.499  38.377   7.950
 4830POPC   C4B22054  18.482  38.371   7.650
 4831POPC   NC322055  25.217  13.617   9.450
 4831POPC   PO422056  25.255  13.599   9.150
 4831POPC   GL122057  25.299  13.610   8.850
 4831POPC   GL222058  25.334  13.549   8.850
 4831POPC   C1A22059  25.228  13.652   8.550
 4831POPC   D2A22060  25.219  13.645   8.250
 4831POPC   C3A22061  25.225  13.631   7.950
 4831POPC   C4A22062  25.235  13.603   7.650
 4831POPC   C1B22063  25.452  13.450   8.550
 4831POPC   C2B22064  25.402  13.492   8.250
 4831POPC   C3B22065  25.455  13.410   7.950
 4831POPC   C4B22066  25.458  13.479   7.650
 4832POPC   NC322067   5.915  28.353   9.450
 4832POPC   PO422068   5.860  28.353   9.150
 4832POPC   GL122069   5.859  28.364   8.850
 4832POPC   GL222070   5.912  28.225   8.850
 4832POPC   C1A22071   5.864  28.343   8.550
 4832POPC   D2A22072   5.888  28.378   8.250
 4832POPC   C3A22073   5.897  28.396   7.950
 4832POPC   C4A22074   5.904  28.323   7.650
 4832POPC   C1B22075   6.018  28.193   8.550
 4832POPC   C2B22076   5.985  28.180   8.250
 4832POPC   C3B22077   5.988  28.168   7.950
 4832POPC   C4B22078   5.987  28.206   7.650
 4833POPC   NC322079   3.529  12.117   9.450
 4833POPC   PO422080   3.565  12.047   9.150
 4833POPC   GL122081   3.581  12.037   8.850
 4833POPC   GL222082   3.507  12.190   8.850
 4833POPC   C1A22083   3.585  12.052   8.550
 4833POPC   D2A22084   3.517  12.031   8.250
 4833POPC   C3A22085   3.529  12.106   7.950
 4833POPC   C4A22086   3.580  12.086   7.650
 4833POPC   C1B22087   3.510  12.330   8.550
 4833POPC   C2B22088   3.540  12.325   8.250
 4833POPC   C3B22089   3.512  12.351   7.950
 4833POPC   C4B22090   3.560  12.364   7.650
 4834POPC   NC322091   2.742  18.325   9.450
 4834POPC   PO422092   2.762  18.324   9.150
 4834POPC   GL122093   2.805  18.271   8.850
 4834POPC   GL222094   2.707  18.442   8.850
 4834POPC   C1A22095   2.757  18.259   8.550
 4834POPC   D2A22096   2.738  18.288   8.250
 4834POPC   C3A22097   2.772  18.285   7.950
 4834POPC   C4A22098   2.769  18.248   7.650
 4834POPC   C1B22099   2.655  18.550   8.550
 4834POPC   C2B22100   2.688  18.539   8.250
 4834POPC   C3B22101   2.666  18.536   7.950
 4834POPC   C4B22102   2.683  18.479   7.650
 4835POPC   NC322103  29.194   6.636   9.450
 4835POPC   PO422104  29.154   6.688   9.150
 4835POPC   GL122105  29.107   6.648   8.850
 4835POPC   GL222106  29.280   6.617   8.850
 4835POPC   C1A22107  29.102   6.648   8.550
 4835POPC   D2A22108  29.165   6.622   8.250
 4835POPC   C3A22109  29.173   6.607   7.950
 4835POPC   C4A22110  29.133   6.627   7.650
 4835POPC   C1B22111  29.354   6.575   8.550
 4835POPC   C2B22112  29.386   6.604   8.250
 4835POPC   C3B22113  29.386   6.564   7.950
 4835POPC   C4B22114  29.385   6.600   7.650
 4836POPC   NC322115  39.266  43.097   9.450
 4836POPC   PO422116  39.244  43.147   9.150
 4836POPC   GL122117  39.236  43.121   8.850
 4836POPC   GL222118  39.286  43.011   8.850
 4836POPC   C1A22119  39.184  43.126   8.550
 4836POPC   D2A22120  39.236  43.115   8.250
 4836POPC   C3A22121  39.195  43.146   7.950
 4836POPC   C4A22122  39.268  43.116   7.650
 4836POPC   C1B22123  39.283  42.859   8.550
 4836POPC   C2B22124  39.297  42.884   8.250
 4836POPC   C3B22125  39.340  42.849   7.950
 4836POPC   C4B22126  39.331  42.860   7.650
 4837POPC   NC322127  31.510  35.368   9.450
 4837POPC   PO422128  31.481  35.384   9.150
 4837POPC   GL122129  31.451  35.389   8.850
 4837POPC   GL222130  31.406  35.266   8.850
 4837POPC   C1A22131  31.433  35.312   8.550
 4837POPC   D2A22132  31.431  35.330   8.250
 4837POPC   C3A22133  31.449  35.358   7.950
 4837POPC   C4A22134  31.427  35.349   7.650
 4837POPC   C1B22135  31.362  35.131   8.550
 4837POPC   C2B22136  31.366  35.153   8.250
 4837POPC   C3B22137  31.354  35.088   7.950
 4837POPC   C4B22138  31.373  35.094   7.650
 4838POPC   NC322139  29.929  36.948   9.450
 4838POPC   PO422140  29.930  36.938   9.150
 4838POPC   GL122141  29.895  36.915   8.850
 4838POPC   GL222142  29.983  36.768   8.850
 4838POPC   C1A22143  29.958  36.858   8.550
 4838POPC   D2A22144  29.892  36.869   8.250
 4838POPC   C3A22145  29.893  36.952   7.950
 4838POPC   C4A22146  29.880  36.952   7.650
 4838POPC   C1B22147  30.004  36.663   8.550
 4838POPC   C2B22148  30.004  36.657   8.250
 4838POPC   C3B22149  30.068  36.659   7.950
 4838POPC   C4B22150  29.977  36.672   7.650
 4839POPC   NC322151   5.074  27.639   9.450
 4839POPC   PO422152   5.059  27.564   9.150
 4839POPC   GL122153   5.097  27.571   8.850
 4839POPC   GL222154   5.245  27.493   8.850
 4839POPC   C1A22155   5.134  27.642   8.550
 4839POPC   D2A22156   5.064  27.549   8.250
 4839POPC   C3A22157   5.137  27.610   7.950
 4839POPC   C4A22158   5.093  27.635   7.650
 4839POPC   C1B22159   5.343  27.499   8.550
 4839POPC   C2B22160   5.361  27.446   8.250
 4839POPC   C3B22161   5.326  27.510   7.950
 4839POPC   C4B22162   5.325  27.516   7.650
 4840POPC   NC322163  23.703   5.908   9.450
 4840POPC   PO422164  23.730   5.838   9.150
 4840POPC   GL122165  23.664   5.846   8.850
 4840POPC   GL222166  23.833   6.003   8.850
 4840POPC   C1A22167  23.701   5.848   8.550
 4840POPC   D2A22168  23.719   5.832   8.250
 4840POPC   C3A22169  23.677   5.869   7.950
 4840POPC   C4A22170  23.678   5.847   7.650
 4840POPC   C1B22171  23.893   6.048   8.550
 4840POPC   C2B22172  23.854   6.053   8.250
 4840POPC   C3B22173  23.885   6.067   7.950
 4840POPC   C4B22174  23.824   6.063   7.650
 4841POPC   NC322175  20.645  29.138   9.450
 4841POPC   PO422176  20.647  29.119   9.150
 4841POPC   GL122177  20.621  29.187   8.850
 4841POPC   GL222178  20.648  29.054   8.850
 4841POPC   C1A22179  20.587  29.191   8.550
 4841POPC   D2A22180  20.573  29.164   8.250
 4841POPC   C3A22181  20.599  29.099   7.950
 4841POPC   C4A22182  20.569  29.116   7.650
 4841POPC   C1B22183  20.773  28.887   8.550
 4841POPC   C2B22184  20.776  28.879   8.250
 4841POPC   C3B22185  20.763  28.877   7.950
 4841POPC   C4B22186  20.739  28.918   7.650
 4842POPC   NC322187   2.746  29.954   9.450
 4842POPC   PO422188   2.801  29.940   9.150
 4842POPC   GL122189   2.716  29.950   8.850
 4842POPC   GL222190   2.715  30.046   8.850
 4842POPC   C1A22191   2.732  29.928   8.550
 4842POPC   D2A22192   2.793  29.940   8.250
 4842POPC   C3A22193   2.773  29.895   7.950
 4842POPC   C4A22194   2.755  29.940   7.650
 4842POPC   C1B22195   2.620  30.076   8.550
 4842POPC   C2B22196   2.540  30.044   8.250
 4842POPC   C3B22197   2.588  30.043   7.950
 4842POPC   C4B22198   2.596  30.127   7.650
 4843POPC   NC322199  43.131  15.141   9.450
 4843POPC   PO422200  43.101  15.185   9.150
 4843POPC   GL122201  43.090  15.148   8.850
 4843POPC   GL222202  43.229  15.288   8.850
 4843POPC   C1A22203  43.070  15.169   8.550
 4843POPC   D2A22204  43.073  15.133   8.250
 4843POPC   C3A22205  43.149  15.149   7.950
 4843POPC   C4A22206  43.145  15.215   7.650
 4843POPC   C1B22207  43.301  15.334   8.550
 4843POPC   C2B22208  43.317  15.383   8.250
 4843POPC   C3B22209  43.317  15.385   7.950
 4843POPC   C4B22210  43.316  15.355   7.650
 4844POPC   NC322211   5.843  22.115   9.450
 4844POPC   PO422212   5.874  22.120   9.150
 4844POPC   GL122213   5.871  22.190   8.850
 4844POPC   GL222214   5.772  22.251   8.850
 4844POPC   C1A22215   5.877  22.142   8.550
 4844POPC   D2A22216   5.851  22.119   8.250
 4844POPC   C3A22217   5.910  22.157   7.950
 4844POPC   C4A22218   5.885  22.137   7.650
 4844POPC   C1B22219   5.716  22.384   8.550
 4844POPC   C2B22220   5.694  22.359   8.250
 4844POPC   C3B22221   5.690  22.355   7.950
 4844POPC   C4B22222   5.679  22.356   7.650
 4845POPC   NC322223  16.732  26.780   9.450
 4845POPC   PO422224  16.753  26.804   9.150
 4845POPC   GL122225  16.732  26.807   8.850
 4845POPC   GL222226  16.817  26.934   8.850
 4845POPC   C1A22227  16.779  26.782   8.550
 4845POPC   D2A22228  16.730  26.861   8.250
 4845POPC   C3A22229  16.753  26.817   7.950
 4845POPC   C4A22230  16.777  26.772   7.650
 4845POPC   C1B22231  16.827  27.050   8.550
 4845POPC   C2B22232  16.875  27.029   8.250
 4845POPC   C3B22233  16.876  27.052   7.950
 4845POPC   C4B22234  16.834  26.976   7.650
 4846POPC   NC322235  38.451  26.841   9.450
 4846POPC   PO422236  38.462  26.819   9.150
 4846POPC   GL122237  38.422  26.775   8.850
 4846POPC   GL222238  38.389  26.877   8.850
 4846POPC   C1A22239  38.474  26.788   8.550
 4846POPC   D2A22240  38.475  26.829   8.250
 4846POPC   C3A22241  38.477  26.811   7.950
 4846POPC   C4A22242  38.468  26.804   7.650
 4846POPC   C1B22243  38.305  27.020   8.550
 4846POPC   C2B22244  38.344  27.075   8.250
 4846POPC   C3B22245  38.327  27.031   7.950
 4846POPC   C4B22246  38.337  27.025   7.650
 4847POPC   NC322247  39.253  13.638   9.450
 4847POPC   PO422248  39.199  13.671   9.150
 4847POPC   GL122249  39.207  13.615   8.850
 4847POPC   GL222250  39.290  13.489   8.850
 4847POPC   C1A22251  39.202  13.617   8.550
 4847POPC   D2A22252  39.185  13.638   8.250
 4847POPC   C3A22253  39.224  13.656   7.950
 4847POPC   C4A22254  39.244  13.609   7.650
 4847POPC   C1B22255  39.403  13.428   8.550
 4847POPC   C2B22256  39.435  13.417   8.250
 4847POPC   C3B22257  39.372  13.411   7.950
 4847POPC   C4B22258  39.451  13.405   7.650
 4848POPC   NC322259   4.320  30.668   9.450
 4848POPC   PO422260   4.309  30.700   9.150
 4848POPC   GL122261   4.363  30.710   8.850
 4848POPC   GL222262   4.211  30.772   8.850
 4848POPC   C1A22263   4.289  30.680   8.550
 4848POPC   D2A22264   4.321  30.688   8.250
 4848POPC   C3A22265   4.300  30.665   7.950
 4848POPC   C4A22266   4.352  30.672   7.650
 4848POPC   C1B22267   4.096  30.809   8.550
 4848POPC   C2B22268   4.102  30.745   8.250
 4848POPC   C3B22269   4.045  30.736   7.950
 4848POPC   C4B22270   4.085  30.749   7.650
 4849POPC   NC322271  37.643  28.360   9.450
 4849POPC   PO422272  37.631  28.396   9.150
 4849POPC   GL122273  37.648  28.377   8.850
 4849POPC   GL222274  37.726  28.454   8.850
 4849POPC   C1A22275  37.699  28.389   8.550
 4849POPC   D2A22276  37.633  28.377   8.250
 4849POPC   C3A22277  37.676  28.415   7.950
 4849POPC   C4A22278  37.689  28.402   7.650
 4849POPC   C1B22279  37.713  28.654   8.550
 4849POPC   C2B22280  37.714  28.577   8.250
 4849POPC   C3B22281  37.754  28.643   7.950
 4849POPC   C4B22282  37.714  28.634   7.650
 4850POPC   NC322283   8.981  15.145   9.450
 4850POPC   PO422284   8.924  15.183   9.150
 4850POPC   GL122285   8.925  15.223   8.850
 4850POPC   GL222286   8.824  15.246   8.850
 4850POPC   C1A22287   8.964  15.154   8.550
 4850POPC   D2A22288   8.968  15.154   8.250
 4850POPC   C3A22289   8.926  15.211   7.950
 4850POPC   C4A22290   8.991  15.136   7.650
 4850POPC   C1B22291   8.694  15.253   8.550
 4850POPC   C2B22292   8.733  15.209   8.250
 4850POPC   C3B22293   8.688  15.249   7.950
 4850POPC   C4B22294   8.752  15.259   7.650
 4851POPC   NC322295  34.613   5.099   9.450
 4851POPC   PO422296  34.587   5.068   9.150
 4851POPC   GL122297  34.536   5.101   8.850
 4851POPC   GL222298  34.560   5.010   8.850
 4851POPC   C1A22299  34.559   5.076   8.550
 4851POPC   D2A22300  34.545   5.117   8.250
 4851POPC   C3A22301  34.580   5.117   7.950
 4851POPC   C4A22302  34.528   5.046   7.650
 4851POPC   C1B22303  34.486   4.880   8.550
 4851POPC   C2B22304  34.464   4.809   8.250
 4851POPC   C3B22305  34.535   4.825   7.950
 4851POPC   C4B22306  34.486   4.857   7.650
 4852POPC   NC322307  43.136  17.465   9.450
 4852POPC   PO422308  43.152  17.483   9.150
 4852POPC   GL122309  43.096  17.536   8.850
 4852POPC   GL222310  43.093  17.375   8.850
 4852POPC   C1A22311  43.099  17.507   8.550
 4852POPC   D2A22312  43.132  17.461   8.250
 4852POPC   C3A22313  43.061  17.524   7.950
 4852POPC   C4A22314  43.073  17.464   7.650
 4852POPC   C1B22315  43.103  17.217   8.550
 4852POPC   C2B22316  43.158  17.236   8.250
 4852POPC   C3B22317  43.097  17.307   7.950
 4852POPC   C4B22318  43.165  17.220   7.650
 4853POPC   NC322319  44.699  43.098   9.450
 4853POPC   PO422320  44.614  43.068   9.150
 4853POPC   GL122321  44.616  43.141   8.850
 4853POPC   GL222322  44.655  42.948   8.850
 4853POPC   C1A22323  44.633  43.114   8.550
 4853POPC   D2A22324  44.656  43.116   8.250
 4853POPC   C3A22325  44.702  43.160   7.950
 4853POPC   C4A22326  44.626  43.143   7.650
 4853POPC   C1B22327  44.673  42.904   8.550
 4853POPC   C2B22328  44.580  42.841   8.250
 4853POPC   C3B22329  44.650  42.849   7.950
 4853POPC   C4B22330  44.606  42.873   7.650
 4854POPC   NC322331  26.013  36.929   9.450
 4854POPC   PO422332  26.030  36.854   9.150
 4854POPC   GL122333  26.086  36.884   8.850
 4854POPC   GL222334  25.888  36.870   8.850
 4854POPC   C1A22335  26.006  36.922   8.550
 4854POPC   D2A22336  26.043  36.940   8.250
 4854POPC   C3A22337  26.073  36.865   7.950
 4854POPC   C4A22338  26.046  36.925   7.650
 4854POPC   C1B22339  25.812  36.776   8.550
 4854POPC   C2B22340  25.803  36.781   8.250
 4854POPC   C3B22341  25.807  36.797   7.950
 4854POPC   C4B22342  25.864  36.766   7.650
 4855POPC   NC322343  12.852  33.018   9.450
 4855POPC   PO422344  12.861  32.989   9.150
 4855POPC   GL122345  12.834  32.991   8.850
 4855POPC   GL222346  12.720  33.137   8.850
 4855POPC   C1A22347  12.812  33.063   8.550
 4855POPC   D2A22348  12.838  33.030   8.250
 4855POPC   C3A22349  12.845  33.072   7.950
 4855POPC   C4A22350  12.840  33.049   7.650
 4855POPC   C1B22351  12.661  33.180   8.550
 4855POPC   C2B22352  12.631  33.147   8.250
 4855POPC   C3B22353  12.636  33.145   7.950
 4855POPC   C4B22354  12.679  33.201   7.650
 4856POPC   NC322355  19.090  35.367   9.450
 4856POPC   PO422356  19.031  35.401   9.150
 4856POPC   GL122357  19.069  35.380   8.850
 4856POPC   GL222358  18.989  35.522   8.850
 4856POPC   C1A22359  19.050  35.399   8.550
 4856POPC   D2A22360  19.011  35.317   8.250
 4856POPC   C3A22361  19.040  35.374   7.950
 4856POPC   C4A22362  19.014  35.350   7.650
 4856POPC   C1B22363  19.011  35.591   8.550
 4856POPC   C2B22364  18.978  35.611   8.250
 4856POPC   C3B22365  19.000  35.617   7.950
 4856POPC   C4B22366  19.033  35.598   7.650
 4857POPC   NC322367  19.104   5.059   9.450
 4857POPC   PO422368  19.045   5.090   9.150
 4857POPC   GL122369  19.035   5.055   8.850
 4857POPC   GL222370  19.028   5.007   8.850
 4857POPC   C1A22371  19.020   5.132   8.550
 4857POPC   D2A22372  19.082   5.054   8.250
 4857POPC   C3A22373  19.040   5.115   7.950
 4857POPC   C4A22374  19.053   5.059   7.650
 4857POPC   C1B22375  19.031   4.823   8.550
 4857POPC   C2B22376  18.953   4.896   8.250
 4857POPC   C3B22377  18.987   4.867   7.950
 4857POPC   C4B22378  18.986   4.872   7.650
 4858POPC   NC322379   1.263  26.011   9.450
 4858POPC   PO422380   1.174  26.045   9.150
 4858POPC   GL122381   1.205  26.005   8.850
 4858POPC   GL222382   1.068  26.080   8.850
 4858POPC   C1A22383   1.213  26.009   8.550
 4858POPC   D2A22384   1.178  26.069   8.250
 4858POPC   C3A22385   1.242  26.058   7.950
 4858POPC   C4A22386   1.208  26.073   7.650
 4858POPC   C1B22387   1.036  26.156   8.550
 4858POPC   C2B22388   0.962  26.187   8.250
 4858POPC   C3B22389   1.013  26.225   7.950
 4858POPC   C4B22390   1.029  26.219   7.650
 4859POPC   NC322391  26.798  34.593   9.450
 4859POPC   PO422392  26.865  34.607   9.150
 4859POPC   GL122393  26.833  34.599   8.850
 4859POPC   GL222394  26.841  34.450   8.850
 4859POPC   C1A22395  26.842  34.592   8.550
 4859POPC   D2A22396  26.846  34.535   8.250
 4859POPC   C3A22397  26.840  34.597   7.950
 4859POPC   C4A22398  26.777  34.608   7.650
 4859POPC   C1B22399  26.868  34.352   8.550
 4859POPC   C2B22400  26.915  34.363   8.250
 4859POPC   C3B22401  26.886  34.295   7.950
 4859POPC   C4B22402  26.842  34.362   7.650
 4860POPC   NC322403  24.475  34.610   9.450
 4860POPC   PO422404  24.446  34.605   9.150
 4860POPC   GL122405  24.503  34.591   8.850
 4860POPC   GL222406  24.457  34.471   8.850
 4860POPC   C1A22407  24.455  34.621   8.550
 4860POPC   D2A22408  24.520  34.586   8.250
 4860POPC   C3A22409  24.503  34.551   7.950
 4860POPC   C4A22410  24.467  34.610   7.650
 4860POPC   C1B22411  24.512  34.313   8.550
 4860POPC   C2B22412  24.514  34.301   8.250
 4860POPC   C3B22413  24.487  34.285   7.950
 4860POPC   C4B22414  24.440  34.357   7.650
 4861POPC   NC322415  20.614  30.678   9.450
 4861POPC   PO422416  20.605  30.694   9.150
 4861POPC   GL122417  20.590  30.657   8.850
 4861POPC   GL222418  20.681  30.590   8.850
 4861POPC   C1A22419  20.612  30.705   8.550
 4861POPC   D2A22420  20.598  30.686   8.250
 4861POPC   C3A22421  20.631  30.723   7.950
 4861POPC   C4A22422  20.600  30.741   7.650
 4861POPC   C1B22423  20.730  30.479   8.550
 4861POPC   C2B22424  20.752  30.481   8.250
 4861POPC   C3B22425  20.729  30.527   7.950
 4861POPC   C4B22426  20.746  30.519   7.650
 4862POPC   NC322427  33.031  12.033   9.450
 4862POPC   PO422428  33.030  12.106   9.150
 4862POPC   GL122429  32.978  12.037   8.850
 4862POPC   GL222430  32.956  12.132   8.850
 4862POPC   C1A22431  33.024  12.124   8.550
 4862POPC   D2A22432  33.072  12.086   8.250
 4862POPC   C3A22433  32.985  12.076   7.950
 4862POPC   C4A22434  33.052  12.061   7.650
 4862POPC   C1B22435  32.795  12.205   8.550
 4862POPC   C2B22436  32.817  12.182   8.250
 4862POPC   C3B22437  32.814  12.161   7.950
 4862POPC   C4B22438  32.827  12.200   7.650
 4863POPC   NC322439  32.201   4.348   9.450
 4863POPC   PO422440  32.271   4.353   9.150
 4863POPC   GL122441  32.236   4.363   8.850
 4863POPC   GL222442  32.419   4.241   8.850
 4863POPC   C1A22443  32.236   4.310   8.550
 4863POPC   D2A22444  32.212   4.282   8.250
 4863POPC   C3A22445  32.281   4.340   7.950
 4863POPC   C4A22446  32.292   4.292   7.650
 4863POPC   C1B22447  32.486   4.219   8.550
 4863POPC   C2B22448  32.482   4.224   8.250
 4863POPC   C3B22449  32.444   4.242   7.950
 4863POPC   C4B22450  32.513   4.271   7.650
 4864POPC   NC322451   0.389  18.282   9.450
 4864POPC   PO422452   0.476  18.306   9.150
 4864POPC   GL122453   0.415  18.270   8.850
 4864POPC   GL222454   0.500  18.308   8.850
 4864POPC   C1A22455   0.394  18.245   8.550
 4864POPC   D2A22456   0.418  18.280   8.250
 4864POPC   C3A22457   0.464  18.317   7.950
 4864POPC   C4A22458   0.408  18.252   7.650
 4864POPC   C1B22459   0.606  18.395   8.550
 4864POPC   C2B22460   0.675  18.461   8.250
 4864POPC   C3B22461   0.602  18.414   7.950
 4864POPC   C4B22462   0.601  18.419   7.650
 4865POPC   NC322463  21.419  15.178   9.450
 4865POPC   PO422464  21.391  15.136   9.150
 4865POPC   GL122465  21.342  15.183   8.850
 4865POPC   GL222466  21.411  15.033   8.850
 4865POPC   C1A22467  21.404  15.144   8.550
 4865POPC   D2A22468  21.339  15.221   8.250
 4865POPC   C3A22469  21.370  15.134   7.950
 4865POPC   C4A22470  21.424  15.189   7.650
 4865POPC   C1B22471  21.480  14.950   8.550
 4865POPC   C2B22472  21.466  14.972   8.250
 4865POPC   C3B22473  21.472  14.942   7.950
 4865POPC   C4B22474  21.461  14.934   7.650
 4866POPC   NC322475   5.138  32.207   9.450
 4866POPC   PO422476   5.106  32.226   9.150
 4866POPC   GL122477   5.108  32.283   8.850
 4866POPC   GL222478   5.112  32.376   8.850
 4866POPC   C1A22479   5.044  32.223   8.550
 4866POPC   D2A22480   5.096  32.290   8.250
 4866POPC   C3A22481   5.070  32.232   7.950
 4866POPC   C4A22482   5.086  32.272   7.650
 4866POPC   C1B22483   5.250  32.445   8.550
 4866POPC   C2B22484   5.181  32.460   8.250
 4866POPC   C3B22485   5.205  32.429   7.950
 4866POPC   C4B22486   5.219  32.470   7.650
 4867POPC   NC322487  42.299   5.083   9.450
 4867POPC   PO422488  42.376   5.111   9.150
 4867POPC   GL122489  42.344   5.118   8.850
 4867POPC   GL222490  42.228   5.026   8.850
 4867POPC   C1A22491  42.299   5.097   8.550
 4867POPC   D2A22492  42.333   5.109   8.250
 4867POPC   C3A22493  42.333   5.063   7.950
 4867POPC   C4A22494  42.287   5.074   7.650
 4867POPC   C1B22495  42.084   4.938   8.550
 4867POPC   C2B22496  42.084   4.976   8.250
 4867POPC   C3B22497  42.154   4.956   7.950
 4867POPC   C4B22498  42.068   4.991   7.650
 4868POPC   NC322499  16.727  37.693   9.450
 4868POPC   PO422500  16.761  37.640   9.150
 4868POPC   GL122501  16.713  37.721   8.850
 4868POPC   GL222502  16.603  37.734   8.850
 4868POPC   C1A22503  16.714  37.706   8.550
 4868POPC   D2A22504  16.706  37.633   8.250
 4868POPC   C3A22505  16.745  37.660   7.950
 4868POPC   C4A22506  16.739  37.721   7.650
 4868POPC   C1B22507  16.499  37.811   8.550
 4868POPC   C2B22508  16.490  37.804   8.250
 4868POPC   C3B22509  16.494  37.813   7.950
 4868POPC   C4B22510  16.512  37.774   7.650
 4869POPC   NC322511   3.551   4.295   9.450
 4869POPC   PO422512   3.571   4.321   9.150
 4869POPC   GL122513   3.532   4.334   8.850
 4869POPC   GL222514   3.484   4.431   8.850
 4869POPC   C1A22515   3.556   4.285   8.550
 4869POPC   D2A22516   3.533   4.271   8.250
 4869POPC   C3A22517   3.591   4.360   7.950
 4869POPC   C4A22518   3.589   4.299   7.650
 4869POPC   C1B22519   3.448   4.530   8.550
 4869POPC   C2B22520   3.458   4.534   8.250
 4869POPC   C3B22521   3.394   4.573   7.950
 4869POPC   C4B22522   3.393   4.536   7.650
 4870POPC   NC322523   5.071  15.924   9.450
 4870POPC   PO422524   5.110  15.906   9.150
 4870POPC   GL122525   5.125  15.944   8.850
 4870POPC   GL222526   5.111  16.106   8.850
 4870POPC   C1A22527   5.076  15.961   8.550
 4870POPC   D2A22528   5.126  15.934   8.250
 4870POPC   C3A22529   5.060  15.982   7.950
 4870POPC   C4A22530   5.052  15.911   7.650
 4870POPC   C1B22531   5.106  16.172   8.550
 4870POPC   C2B22532   5.070  16.168   8.250
 4870POPC   C3B22533   5.024  16.154   7.950
 4870POPC   C4B22534   5.057  16.251   7.650
 4871POPC   NC322535  41.549   4.312   9.450
 4871POPC   PO422536  41.592   4.302   9.150
 4871POPC   GL122537  41.528   4.357   8.850
 4871POPC   GL222538  41.391   4.288   8.850
 4871POPC   C1A22539  41.550   4.296   8.550
 4871POPC   D2A22540  41.511   4.317   8.250
 4871POPC   C3A22541  41.595   4.351   7.950
 4871POPC   C4A22542  41.588   4.307   7.650
 4871POPC   C1B22543  41.265   4.311   8.550
 4871POPC   C2B22544  41.311   4.375   8.250
 4871POPC   C3B22545  41.272   4.295   7.950
 4871POPC   C4B22546  41.332   4.314   7.650
 4872POPC   NC322547  36.890  11.277   9.450
 4872POPC   PO422548  36.876  11.328   9.150
 4872POPC   GL122549  36.869  11.337   8.850
 4872POPC   GL222550  37.052  11.417   8.850
 4872POPC   C1A22551  36.929  11.252   8.550
 4872POPC   D2A22552  36.945  11.334   8.250
 4872POPC   C3A22553  36.929  11.269   7.950
 4872POPC   C4A22554  36.861  11.329   7.650
 4872POPC   C1B22555  37.071  11.477   8.550
 4872POPC   C2B22556  37.089  11.417   8.250
 4872POPC   C3B22557  37.126  11.463   7.950
 4872POPC   C4B22558  37.133  11.405   7.650
 4873POPC   NC322559  30.709  43.880   9.450
 4873POPC   PO422560  30.658  43.878   9.150
 4873POPC   GL122561  30.733  43.919   8.850
 4873POPC   GL222562  30.641  43.991   8.850
 4873POPC   C1A22563  30.699  43.842   8.550
 4873POPC   D2A22564  30.705  43.914   8.250
 4873POPC   C3A22565  30.684  43.893   7.950
 4873POPC   C4A22566  30.725  43.863   7.650
 4873POPC   C1B22567  30.563  44.138   8.550
 4873POPC   C2B22568  30.585  44.092   8.250
 4873POPC   C3B22569  30.592  44.126   7.950
 4873POPC   C4B22570  30.561  44.118   7.650
 4874POPC   NC322571  10.478   1.172   9.450
 4874POPC   PO422572  10.493   1.194   9.150
 4874POPC   GL122573  10.531   1.200   8.850
 4874POPC   GL222574  10.521   1.063   8.850
 4874POPC   C1A22575  10.488   1.225   8.550
 4874POPC   D2A22576  10.475   1.240   8.250
 4874POPC   C3A22577  10.526   1.171   7.950
 4874POPC   C4A22578  10.559   1.190   7.650
 4874POPC   C1B22579  10.539   0.929   8.550
 4874POPC   C2B22580  10.592   0.951   8.250
 4874POPC   C3B22581  10.603   0.939   7.950
 4874POPC   C4B22582  10.609   0.939   7.650
 4875POPC   NC322583   2.789  26.043   9.450
 4875POPC   PO422584   2.774  26.069   9.150
 4875POPC   GL122585   2.808  26.080   8.850
 4875POPC   GL222586   2.696  26.130   8.850
 4875POPC   C1A22587   2.744  26.034   8.550
 4875POPC   D2A22588   2.727  26.042   8.250
 4875POPC   C3A22589   2.726  26.076   7.950
 4875POPC   C4A22590   2.811  26.018   7.650
 4875POPC   C1B22591   2.549  26.258   8.550
 4875POPC   C2B22592   2.632  26.223   8.250
 4875POPC   C3B22593   2.639  26.196   7.950
 4875POPC   C4B22594   2.625  26.205   7.650
 4876POPC   NC322595  31.516  36.103   9.450
 4876POPC   PO422596  31.472  36.079   9.150
 4876POPC   GL122597  31.513  36.108   8.850
 4876POPC   GL222598  31.419  36.163   8.850
 4876POPC   C1A22599  31.460  36.096   8.550
 4876POPC   D2A22600  31.519  36.085   8.250
 4876POPC   C3A22601  31.506  36.085   7.950
 4876POPC   C4A22602  31.425  36.136   7.650
 4876POPC   C1B22603  31.243  36.289   8.550
 4876POPC   C2B22604  31.290  36.307   8.250
 4876POPC   C3B22605  31.302  36.323   7.950
 4876POPC   C4B22606  31.228  36.313   7.650
 4877POPC   NC322607  36.079  34.583   9.450
 4877POPC   PO422608  36.156  34.526   9.150
 4877POPC   GL122609  36.081  34.535   8.850
 4877POPC   GL222610  35.962  34.608   8.850
 4877POPC   C1A22611  36.112  34.543   8.550
 4877POPC   D2A22612  36.170  34.601   8.250
 4877POPC   C3A22613  36.154  34.543   7.950
 4877POPC   C4A22614  36.093  34.539   7.650
 4877POPC   C1B22615  35.930  34.607   8.550
 4877POPC   C2B22616  35.888  34.589   8.250
 4877POPC   C3B22617  35.923  34.575   7.950
 4877POPC   C4B22618  35.846  34.646   7.650
 4878POPC   NC322619   1.987  39.996   9.450
 4878POPC   PO422620   1.958  40.025   9.150
 4878POPC   GL122621   2.037  39.991   8.850
 4878POPC   GL222622   2.101  40.125   8.850
 4878POPC   C1A22623   1.950  40.046   8.550
 4878POPC   D2A22624   1.977  39.971   8.250
 4878POPC   C3A22625   1.986  40.002   7.950
 4878POPC   C4A22626   2.033  40.015   7.650
 4878POPC   C1B22627   2.177  40.156   8.550
 4878POPC   C2B22628   2.141  40.209   8.250
 4878POPC   C3B22629   2.108  40.158   7.950
 4878POPC   C4B22630   2.134  40.206   7.650
 4879POPC   NC322631  29.892  14.453   9.450
 4879POPC   PO422632  29.937  14.416   9.150
 4879POPC   GL122633  29.886  14.391   8.850
 4879POPC   GL222634  29.780  14.505   8.850
 4879POPC   C1A22635  29.924  14.399   8.550
 4879POPC   D2A22636  29.873  14.425   8.250
 4879POPC   C3A22637  29.894  14.419   7.950
 4879POPC   C4A22638  29.897  14.373   7.650
 4879POPC   C1B22639  29.736  14.537   8.550
 4879POPC   C2B22640  29.738  14.548   8.250
 4879POPC   C3B22641  29.721  14.504   7.950
 4879POPC   C4B22642  29.672  14.522   7.650
 4880POPC   NC322643  31.446  14.387   9.450
 4880POPC   PO422644  31.521  14.365   9.150
 4880POPC   GL122645  31.468  14.451   8.850
 4880POPC   GL222646  31.405  14.529   8.850
 4880POPC   C1A22647  31.486  14.373   8.550
 4880POPC   D2A22648  31.453  14.363   8.250
 4880POPC   C3A22649  31.476  14.428   7.950
 4880POPC   C4A22650  31.476  14.435   7.650
 4880POPC   C1B22651  31.397  14.662   8.550
 4880POPC   C2B22652  31.391  14.662   8.250
 4880POPC   C3B22653  31.325  14.671   7.950
 4880POPC   C4B22654  31.343  14.645   7.650
 4881POPC   NC322655  15.914  23.667   9.450
 4881POPC   PO422656  15.910  23.750   9.150
 4881POPC   GL122657  15.942  23.748   8.850
 4881POPC   GL222658  15.798  23.666   8.850
 4881POPC   C1A22659  15.943  23.744   8.550
 4881POPC   D2A22660  15.943  23.685   8.250
 4881POPC   C3A22661  15.911  23.672   7.950
 4881POPC   C4A22662  15.954  23.715   7.650
 4881POPC   C1B22663  15.727  23.648   8.550
 4881POPC   C2B22664  15.709  23.650   8.250
 4881POPC   C3B22665  15.692  23.691   7.950
 4881POPC   C4B22666  15.689  23.715   7.650
 4882POPC   NC322667  25.251   8.173   9.450
 4882POPC   PO422668  25.241   8.174   9.150
 4882POPC   GL122669  25.245   8.202   8.850
 4882POPC   GL222670  25.193   8.169   8.850
 4882POPC   C1A22671  25.307   8.231   8.550
 4882POPC   D2A22672  25.275   8.147   8.250
 4882POPC   C3A22673  25.286   8.213   7.950
 4882POPC   C4A22674  25.294   8.190   7.650
 4882POPC   C1B22675  25.007   8.091   8.550
 4882POPC   C2B22676  25.011   8.139   8.250
 4882POPC   C3B22677  25.044   8.185   7.950
 4882POPC   C4B22678  25.007   8.149   7.650
 4883POPC   NC322679  17.468  25.998   9.450
 4883POPC   PO422680  17.539  26.035   9.150
 4883POPC   GL122681  17.502  25.995   8.850
 4883POPC   GL222682  17.678  25.977   8.850
 4883POPC   C1A22683  17.547  25.996   8.550
 4883POPC   D2A22684  17.491  26.088   8.250
 4883POPC   C3A22685  17.532  26.023   7.950
 4883POPC   C4A22686  17.460  26.045   7.650
 4883POPC   C1B22687  17.706  26.010   8.550
 4883POPC   C2B22688  17.717  25.942   8.250
 4883POPC   C3B22689  17.722  25.941   7.950
 4883POPC   C4B22690  17.709  25.977   7.650
 4884POPC   NC322691   9.761   3.518   9.450
 4884POPC   PO422692   9.726   3.543   9.150
 4884POPC   GL122693   9.736   3.501   8.850
 4884POPC   GL222694   9.807   3.418   8.850
 4884POPC   C1A22695   9.714   3.512   8.550
 4884POPC   D2A22696   9.724   3.591   8.250
 4884POPC   C3A22697   9.782   3.586   7.950
 4884POPC   C4A22698   9.700   3.519   7.650
 4884POPC   C1B22699   9.884   3.300   8.550
 4884POPC   C2B22700   9.871   3.343   8.250
 4884POPC   C3B22701   9.896   3.343   7.950
 4884POPC   C4B22702   9.892   3.355   7.650
 4885POPC   NC322703  12.046  44.703   9.450
 4885POPC   PO422704  12.108  44.697   9.150
 4885POPC   GL122705  12.082  44.633   8.850
 4885POPC   GL222706  12.210  44.598   8.850
 4885POPC   C1A22707  12.125  44.656   8.550
 4885POPC   D2A22708  12.085  44.666   8.250
 4885POPC   C3A22709  12.053  44.649   7.950
 4885POPC   C4A22710  12.110  44.680   7.650
 4885POPC   C1B22711  12.289  44.528   8.550
 4885POPC   C2B22712  12.213  44.512   8.250
 4885POPC   C3B22713  12.237  44.447   7.950
 4885POPC   C4B22714  12.296  44.507   7.650
 4886POPC   NC322715  12.846  18.263   9.450
 4886POPC   PO422716  12.817  18.299   9.150
 4886POPC   GL122717  12.853  18.315   8.850
 4886POPC   GL222718  12.790  18.383   8.850
 4886POPC   C1A22719  12.836  18.330   8.550
 4886POPC   D2A22720  12.864  18.253   8.250
 4886POPC   C3A22721  12.897  18.312   7.950
 4886POPC   C4A22722  12.895  18.329   7.650
 4886POPC   C1B22723  12.794  18.566   8.550
 4886POPC   C2B22724  12.735  18.476   8.250
 4886POPC   C3B22725  12.824  18.555   7.950
 4886POPC   C4B22726  12.818  18.528   7.650
 4887POPC   NC322727  33.839   6.626   9.450
 4887POPC   PO422728  33.799   6.617   9.150
 4887POPC   GL122729  33.781   6.686   8.850
 4887POPC   GL222730  33.904   6.612   8.850
 4887POPC   C1A22731  33.834   6.685   8.550
 4887POPC   D2A22732  33.807   6.637   8.250
 4887POPC   C3A22733  33.785   6.598   7.950
 4887POPC   C4A22734  33.796   6.640   7.650
 4887POPC   C1B22735  34.067   6.490   8.550
 4887POPC   C2B22736  33.986   6.544   8.250
 4887POPC   C3B22737  33.994   6.551   7.950
 4887POPC   C4B22738  34.027   6.523   7.650
 4888POPC   NC322739  29.936  43.068   9.450
 4888POPC   PO422740  29.939  43.155   9.150
 4888POPC   GL122741  29.926  43.156   8.850
 4888POPC   GL222742  30.019  43.082   8.850
 4888POPC   C1A22743  29.879  43.143   8.550
 4888POPC   D2A22744  29.967  43.146   8.250
 4888POPC   C3A22745  29.934  43.148   7.950
 4888POPC   C4A22746  29.954  43.075   7.650
 4888POPC   C1B22747  30.103  42.972   8.550
 4888POPC   C2B22748  30.119  42.979   8.250
 4888POPC   C3B22749  30.134  42.980   7.950
 4888POPC   C4B22750  30.160  43.010   7.650
 4889POPC   NC322751   0.398  34.590   9.450
 4889POPC   PO422752   0.434  34.597   9.150
 4889POPC   GL122753   0.472  34.594   8.850
 4889POPC   GL222754   0.458  34.715   8.850
 4889POPC   C1A22755   0.433  34.617   8.550
 4889POPC   D2A22756   0.469  34.597   8.250
 4889POPC   C3A22757   0.413  34.550   7.950
 4889POPC   C4A22758   0.436  34.592   7.650
 4889POPC   C1B22759   0.588  34.794   8.550
 4889POPC   C2B22760   0.493  34.831   8.250
 4889POPC   C3B22761   0.503  34.834   7.950
 4889POPC   C4B22762   0.542  34.779   7.650
 4890POPC   NC322763   5.868   1.165   9.450
 4890POPC   PO422764   5.842   1.196   9.150
 4890POPC   GL122765   5.837   1.180   8.850
 4890POPC   GL222766   5.776   1.321   8.850
 4890POPC   C1A22767   5.915   1.214   8.550
 4890POPC   D2A22768   5.850   1.249   8.250
 4890POPC   C3A22769   5.860   1.244   7.950
 4890POPC   C4A22770   5.870   1.185   7.650
 4890POPC   C1B22771   5.745   1.433   8.550
 4890POPC   C2B22772   5.752   1.384   8.250
 4890POPC   C3B22773   5.769   1.386   7.950
 4890POPC   C4B22774   5.734   1.421   7.650
 4891POPC   NC322775  22.163   4.309   9.450
 4891POPC   PO422776  22.157   4.302   9.150
 4891POPC   GL122777  22.116   4.291   8.850
 4891POPC   GL222778  22.320   4.263   8.850
 4891POPC   C1A22779  22.194   4.343   8.550
 4891POPC   D2A22780  22.187   4.346   8.250
 4891POPC   C3A22781  22.124   4.322   7.950
 4891POPC   C4A22782  22.190   4.362   7.650
 4891POPC   C1B22783  22.430   4.220   8.550
 4891POPC   C2B22784  22.346   4.232   8.250
 4891POPC   C3B22785  22.395   4.255   7.950
 4891POPC   C4B22786  22.374   4.229   7.650
 4892POPC   NC322787   2.022   8.152   9.450
 4892POPC   PO422788   1.952   8.175   9.150
 4892POPC   GL122789   1.971   8.168   8.850
 4892POPC   GL222790   2.138   8.206   8.850
 4892POPC   C1A22791   1.978   8.237   8.550
 4892POPC   D2A22792   1.999   8.192   8.250
 4892POPC   C3A22793   1.970   8.231   7.950
 4892POPC   C4A22794   1.950   8.182   7.650
 4892POPC   C1B22795   2.260   8.178   8.550
 4892POPC   C2B22796   2.284   8.160   8.250
 4892POPC   C3B22797   2.195   8.152   7.950
 4892POPC   C4B22798   2.212   8.193   7.650
 4893POPC   NC322799  29.128  35.386   9.450
 4893POPC   PO422800  29.190  35.356   9.150
 4893POPC   GL122801  29.165  35.344   8.850
 4893POPC   GL222802  29.072  35.287   8.850
 4893POPC   C1A22803  29.128  35.375   8.550
 4893POPC   D2A22804  29.148  35.368   8.250
 4893POPC   C3A22805  29.146  35.339   7.950
 4893POPC   C4A22806  29.104  35.382   7.650
 4893POPC   C1B22807  28.959  35.170   8.550
 4893POPC   C2B22808  28.942  35.175   8.250
 4893POPC   C3B22809  28.912  35.165   7.950
 4893POPC   C4B22810  28.987  35.234   7.650
 4894POPC   NC322811   2.758  33.018   9.450
 4894POPC   PO422812   2.790  33.055   9.150
 4894POPC   GL122813   2.812  33.030   8.850
 4894POPC   GL222814   2.669  33.069   8.850
 4894POPC   C1A22815   2.772  32.984   8.550
 4894POPC   D2A22816   2.742  33.071   8.250
 4894POPC   C3A22817   2.765  33.018   7.950
 4894POPC   C4A22818   2.794  33.059   7.650
 4894POPC   C1B22819   2.565  33.174   8.550
 4894POPC   C2B22820   2.516  33.162   8.250
 4894POPC   C3B22821   2.567  33.194   7.950
 4894POPC   C4B22822   2.507  33.154   7.650
 4895POPC   NC322823  33.033  18.260   9.450
 4895POPC   PO422824  33.071  18.236   9.150
 4895POPC   GL122825  33.066  18.248   8.850
 4895POPC   GL222826  32.931  18.322   8.850
 4895POPC   C1A22827  32.979  18.318   8.550
 4895POPC   D2A22828  32.989  18.331   8.250
 4895POPC   C3A22829  33.060  18.261   7.950
 4895POPC   C4A22830  33.067  18.302   7.650
 4895POPC   C1B22831  32.888  18.437   8.550
 4895POPC   C2B22832  32.813  18.472   8.250
 4895POPC   C3B22833  32.855  18.406   7.950
 4895POPC   C4B22834  32.820  18.435   7.650
 4896POPC   NC322835  39.261  17.481   9.450
 4896POPC   PO422836  39.183  17.541   9.150
 4896POPC   GL122837  39.191  17.534   8.850
 4896POPC   GL222838  39.335  17.611   8.850
 4896POPC   C1A22839  39.237  17.523   8.550
 4896POPC   D2A22840  39.281  17.498   8.250
 4896POPC   C3A22841  39.192  17.466   7.950
 4896POPC   C4A22842  39.182  17.509   7.650
 4896POPC   C1B22843  39.451  17.689   8.550
 4896POPC   C2B22844  39.436  17.643   8.250
 4896POPC   C3B22845  39.410  17.679   7.950
 4896POPC   C4B22846  39.484  17.619   7.650
 4897POPC   NC322847  32.205  24.523   9.450
 4897POPC   PO422848  32.258  24.503   9.150
 4897POPC   GL122849  32.256  24.447   8.850
 4897POPC   GL222850  32.201  24.653   8.850
 4897POPC   C1A22851  32.266  24.457   8.550
 4897POPC   D2A22852  32.227  24.508   8.250
 4897POPC   C3A22853  32.298  24.495   7.950
 4897POPC   C4A22854  32.220  24.447   7.650
 4897POPC   C1B22855  32.295  24.695   8.550
 4897POPC   C2B22856  32.293  24.764   8.250
 4897POPC   C3B22857  32.227  24.740   7.950
 4897POPC   C4B22858  32.211  24.748   7.650
 4898POPC   NC322859  41.537  13.595   9.450
 4898POPC   PO422860  41.533  13.603   9.150
 4898POPC   GL122861  41.583  13.601   8.850
 4898POPC   GL222862  41.579  13.465   8.850
 4898POPC   C1A22863  41.549  13.628   8.550
 4898POPC   D2A22864  41.529  13.582   8.250
 4898POPC   C3A22865  41.580  13.619   7.950
 4898POPC   C4A22866  41.515  13.671   7.650
 4898POPC   C1B22867  41.607  13.430   8.550
 4898POPC   C2B22868  41.638  13.411   8.250
 4898POPC   C3B22869  41.610  13.368   7.950
 4898POPC   C4B22870  41.602  13.375   7.650
 4899POPC   NC322871  11.261  40.019   9.450
 4899POPC   PO422872  11.270  40.013   9.150
 4899POPC   GL122873  11.348  39.984   8.850
 4899POPC   GL222874  11.397  40.117   8.850
 4899POPC   C1A22875  11.331  40.016   8.550
 4899POPC   D2A22876  11.265  40.042   8.250
 4899POPC   C3A22877  11.258  39.962   7.950
 4899POPC   C4A22878  11.281  40.055   7.650
 4899POPC   C1B22879  11.459  40.237   8.550
 4899POPC   C2B22880  11.439  40.176   8.250
 4899POPC   C3B22881  11.393  40.266   7.950
 4899POPC   C4B22882  11.435  40.222   7.650
 4900POPC   NC322883  30.678   6.631   9.450
 4900POPC   PO422884  30.659   6.607   9.150
 4900POPC   GL122885  30.662   6.669   8.850
 4900POPC   GL222886  30.712   6.556   8.850
 4900POPC   C1A22887  30.686   6.626   8.550
 4900POPC   D2A22888  30.709   6.625   8.250
 4900POPC   C3A22889  30.735   6.652   7.950
 4900POPC   C4A22890  30.737   6.616   7.650
 4900POPC   C1B22891  30.769   6.464   8.550
 4900POPC   C2B22892  30.812   6.453   8.250
 4900POPC   C3B22893  30.777   6.390   7.950
 4900POPC   C4B22894  30.778   6.397   7.650
 4901POPC   NC322895  19.843  36.882   9.450
 4901POPC   PO422896  19.813  36.891   9.150
 4901POPC   GL122897  19.804  36.939   8.850
 4901POPC   GL222898  19.687  36.946   8.850
 4901POPC   C1A22899  19.865  36.858   8.550
 4901POPC   D2A22900  19.870  36.921   8.250
 4901POPC   C3A22901  19.793  36.936   7.950
 4901POPC   C4A22902  19.846  36.911   7.650
 4901POPC   C1B22903  19.580  36.912   8.550
 4901POPC   C2B22904  19.559  36.864   8.250
 4901POPC   C3B22905  19.558  36.875   7.950
 4901POPC   C4B22906  19.573  36.910   7.650
 4902POPC   NC322907  33.066   3.574   9.450
 4902POPC   PO422908  32.979   3.511   9.150
 4902POPC   GL122909  33.062   3.585   8.850
 4902POPC   GL222910  33.090   3.577   8.850
 4902POPC   C1A22911  33.031   3.571   8.550
 4902POPC   D2A22912  33.025   3.537   8.250
 4902POPC   C3A22913  33.032   3.522   7.950
 4902POPC   C4A22914  33.011   3.585   7.650
 4902POPC   C1B22915  33.281   3.642   8.550
 4902POPC   C2B22916  33.186   3.682   8.250
 4902POPC   C3B22917  33.270   3.641   7.950
 4902POPC   C4B22918  33.230   3.638   7.650
 4903POPC   NC322919   1.975  20.651   9.450
 4903POPC   PO422920   1.988  20.606   9.150
 4903POPC   GL122921   2.011  20.576   8.850
 4903POPC   GL222922   1.818  20.539   8.850
 4903POPC   C1A22923   1.960  20.657   8.550
 4903POPC   D2A22924   2.039  20.568   8.250
 4903POPC   C3A22925   1.959  20.652   7.950
 4903POPC   C4A22926   1.976  20.633   7.650
 4903POPC   C1B22927   1.725  20.565   8.550
 4903POPC   C2B22928   1.741  20.566   8.250
 4903POPC   C3B22929   1.769  20.608   7.950
 4903POPC   C4B22930   1.712  20.519   7.650
 4904POPC   NC322931  32.975  37.719   9.450
 4904POPC   PO422932  33.051  37.720   9.150
 4904POPC   GL122933  33.045  37.715   8.850
 4904POPC   GL222934  32.898  37.722   8.850
 4904POPC   C1A22935  32.990  37.699   8.550
 4904POPC   D2A22936  33.039  37.667   8.250
 4904POPC   C3A22937  33.001  37.710   7.950
 4904POPC   C4A22938  33.006  37.677   7.650
 4904POPC   C1B22939  32.765  37.798   8.550
 4904POPC   C2B22940  32.813  37.794   8.250
 4904POPC   C3B22941  32.780  37.800   7.950
 4904POPC   C4B22942  32.766  37.769   7.650
 4905POPC   NC322943  26.012   5.858   9.450
 4905POPC   PO422944  26.056   5.866   9.150
 4905POPC   GL122945  26.044   5.859   8.850
 4905POPC   GL222946  25.900   5.912   8.850
 4905POPC   C1A22947  26.086   5.862   8.550
 4905POPC   D2A22948  26.057   5.832   8.250
 4905POPC   C3A22949  26.091   5.829   7.950
 4905POPC   C4A22950  25.999   5.833   7.650
 4905POPC   C1B22951  25.834   6.032   8.550
 4905POPC   C2B22952  25.799   6.056   8.250
 4905POPC   C3B22953  25.813   5.999   7.950
 4905POPC   C4B22954  25.869   6.068   7.650
 4906POPC   NC322955   4.302  13.601   9.450
 4906POPC   PO422956   4.350  13.645   9.150
 4906POPC   GL122957   4.291  13.633   8.850
 4906POPC   GL222958   4.380  13.760   8.850
 4906POPC   C1A22959   4.287  13.632   8.550
 4906POPC   D2A22960   4.310  13.585   8.250
 4906POPC   C3A22961   4.298  13.676   7.950
 4906POPC   C4A22962   4.274  13.617   7.650
 4906POPC   C1B22963   4.449  13.761   8.550
 4906POPC   C2B22964   4.526  13.833   8.250
 4906POPC   C3B22965   4.493  13.814   7.950
 4906POPC   C4B22966   4.484  13.791   7.650
 4907POPC   NC322967  26.087   5.114   9.450
 4907POPC   PO422968  26.050   5.076   9.150
 4907POPC   GL122969  26.052   5.132   8.850
 4907POPC   GL222970  26.106   5.075   8.850
 4907POPC   C1A22971  26.076   5.092   8.550
 4907POPC   D2A22972  26.054   5.077   8.250
 4907POPC   C3A22973  26.046   5.083   7.950
 4907POPC   C4A22974  26.068   5.102   7.650
 4907POPC   C1B22975  26.223   4.970   8.550
 4907POPC   C2B22976  26.237   4.993   8.250
 4907POPC   C3B22977  26.230   4.996   7.950
 4907POPC   C4B22978  26.208   4.918   7.650
 4908POPC   NC322979  31.455  17.542   9.450
 4908POPC   PO422980  31.471  17.522   9.150
 4908POPC   GL122981  31.470  17.520   8.850
 4908POPC   GL222982  31.322  17.548   8.850
 4908POPC   C1A22983  31.489  17.505   8.550
 4908POPC   D2A22984  31.508  17.507   8.250
 4908POPC   C3A22985  31.502  17.530   7.950
 4908POPC   C4A22986  31.450  17.501   7.650
 4908POPC   C1B22987  31.220  17.506   8.550
 4908POPC   C2B22988  31.238  17.544   8.250
 4908POPC   C3B22989  31.269  17.502   7.950
 4908POPC   C4B22990  31.225  17.532   7.650
 4909POPC   NC322991  33.760  33.777   9.450
 4909POPC   PO422992  33.819  33.765   9.150
 4909POPC   GL122993  33.845  33.771   8.850
 4909POPC   GL222994  33.653  33.818   8.850
 4909POPC   C1A22995  33.782  33.796   8.550
 4909POPC   D2A22996  33.752  33.788   8.250
 4909POPC   C3A22997  33.768  33.789   7.950
 4909POPC   C4A22998  33.827  33.788   7.650
 4909POPC   C1B22999  33.590  33.921   8.550
 4909POPC   C2B23000  33.556  33.847   8.250
 4909POPC   C3B23001  33.564  33.913   7.950
 4909POPC   C4B23002  33.564  33.918   7.650
 4910POPC   NC323003  17.460   4.361   9.450
 4910POPC   PO423004  17.523   4.296   9.150
 4910POPC   GL123005  17.539   4.340   8.850
 4910POPC   GL223006  17.675   4.316   8.850
 4910POPC   C1A23007  17.502   4.363   8.550
 4910POPC   D2A23008  17.526   4.317   8.250
 4910POPC   C3A23009  17.507   4.296   7.950
 4910POPC   C4A23010  17.517   4.323   7.650
 4910POPC   C1B23011  17.760   4.389   8.550
 4910POPC   C2B23012  17.713   4.360   8.250
 4910POPC   C3B23013  17.719   4.330   7.950
 4910POPC   C4B23014  17.786   4.384   7.650
 4911POPC   NC323015  26.820  39.265   9.450
 4911POPC   PO423016  26.792  39.269   9.150
 4911POPC   GL123017  26.828  39.219   8.850
 4911POPC   GL223018  26.925  39.237   8.850
 4911POPC   C1A23019  26.821  39.193   8.550
 4911POPC   D2A23020  26.838  39.197   8.250
 4911POPC   C3A23021  26.856  39.186   7.950
 4911POPC   C4A23022  26.806  39.191   7.650
 4911POPC   C1B23023  27.050  39.301   8.550
 4911POPC   C2B23024  27.099  39.330   8.250
 4911POPC   C3B23025  27.029  39.257   7.950
 4911POPC   C4B23026  27.036  39.323   7.650
 4912POPC   NC323027   5.910  26.811   9.450
 4912POPC   PO423028   5.842  26.777   9.150
 4912POPC   GL123029   5.860  26.839   8.850
 4912POPC   GL223030   5.832  26.919   8.850
 4912POPC   C1A23031   5.873  26.831   8.550
 4912POPC   D2A23032   5.900  26.859   8.250
 4912POPC   C3A23033   5.831  26.843   7.950
 4912POPC   C4A23034   5.833  26.799   7.650
 4912POPC   C1B23035   5.874  27.109   8.550
 4912POPC   C2B23036   5.892  27.053   8.250
 4912POPC   C3B23037   5.916  27.084   7.950
 4912POPC   C4B23038   5.910  27.026   7.650
 4913POPC   NC323039  10.564  36.891   9.450
 4913POPC   PO423040  10.541  36.933   9.150
 4913POPC   GL123041  10.483  36.854   8.850
 4913POPC   GL223042  10.445  36.998   8.850
 4913POPC   C1A23043  10.498  36.935   8.550
 4913POPC   D2A23044  10.545  36.921   8.250
 4913POPC   C3A23045  10.520  36.878   7.950
 4913POPC   C4A23046  10.550  36.929   7.650
 4913POPC   C1B23047  10.405  37.092   8.550
 4913POPC   C2B23048  10.419  37.140   8.250
 4913POPC   C3B23049  10.451  37.167   7.950
 4913POPC   C4B23050  10.381  37.160   7.650
 4914POPC   NC323051  12.042  19.106   9.450
 4914POPC   PO423052  12.075  19.067   9.150
 4914POPC   GL123053  12.083  19.042   8.850
 4914POPC   GL223054  11.985  19.056   8.850
 4914POPC   C1A23055  12.037  19.097   8.550
 4914POPC   D2A23056  12.087  19.049   8.250
 4914POPC   C3A23057  12.111  19.103   7.950
 4914POPC   C4A23058  12.046  19.076   7.650
 4914POPC   C1B23059  11.881  19.133   8.550
 4914POPC   C2B23060  11.873  19.178   8.250
 4914POPC   C3B23061  11.864  19.106   7.950
 4914POPC   C4B23062  11.809  19.192   7.650
 4915POPC   NC323063   5.826  42.359   9.450
 4915POPC   PO423064   5.893  42.380   9.150
 4915POPC   GL123065   5.899  42.364   8.850
 4915POPC   GL223066   5.710  42.367   8.850
 4915POPC   C1A23067   5.876  42.317   8.550
 4915POPC   D2A23068   5.852  42.299   8.250
 4915POPC   C3A23069   5.846  42.375   7.950
 4915POPC   C4A23070   5.856  42.293   7.650
 4915POPC   C1B23071   5.571  42.285   8.550
 4915POPC   C2B23072   5.629  42.301   8.250
 4915POPC   C3B23073   5.581  42.344   7.950
 4915POPC   C4B23074   5.660  42.325   7.650
 4916POPC   NC323075   1.243  28.382   9.450
 4916POPC   PO423076   1.170  28.356   9.150
 4916POPC   GL123077   1.181  28.381   8.850
 4916POPC   GL223078   1.239  28.290   8.850
 4916POPC   C1A23079   1.167  28.404   8.550
 4916POPC   D2A23080   1.248  28.329   8.250
 4916POPC   C3A23081   1.165  28.412   7.950
 4916POPC   C4A23082   1.238  28.392   7.650
 4916POPC   C1B23083   1.142  28.072   8.550
 4916POPC   C2B23084   1.222  28.074   8.250
 4916POPC   C3B23085   1.154  28.125   7.950
 4916POPC   C4B23086   1.161  28.084   7.650
 4917POPC   NC323087  21.406   3.543   9.450
 4917POPC   PO423088  21.386   3.556   9.150
 4917POPC   GL123089  21.375   3.580   8.850
 4917POPC   GL223090  21.434   3.613   8.850
 4917POPC   C1A23091  21.419   3.506   8.550
 4917POPC   D2A23092  21.431   3.552   8.250
 4917POPC   C3A23093  21.407   3.583   7.950
 4917POPC   C4A23094  21.348   3.551   7.650
 4917POPC   C1B23095  21.504   3.787   8.550
 4917POPC   C2B23096  21.447   3.794   8.250
 4917POPC   C3B23097  21.505   3.762   7.950
 4917POPC   C4B23098  21.532   3.737   7.650
 4918POPC   NC323099   0.438  33.004   9.450
 4918POPC   PO423100   0.486  33.043   9.150
 4918POPC   GL123101   0.406  33.028   8.850
 4918POPC   GL223102   0.565  33.082   8.850
 4918POPC   C1A23103   0.413  33.046   8.550
 4918POPC   D2A23104   0.399  33.037   8.250
 4918POPC   C3A23105   0.488  33.049   7.950
 4918POPC   C4A23106   0.478  33.000   7.650
 4918POPC   C1B23107   0.629  33.087   8.550
 4918POPC   C2B23108   0.665  33.084   8.250
 4918POPC   C3B23109   0.654  33.143   7.950
 4918POPC   C4B23110   0.628  33.160   7.650
 4919POPC   NC323111  40.007  21.397   9.450
 4919POPC   PO423112  40.046  21.419   9.150
 4919POPC   GL123113  40.007  21.357   8.850
 4919POPC   GL223114  39.960  21.473   8.850
 4919POPC   C1A23115  40.036  21.337   8.550
 4919POPC   D2A23116  39.960  21.430   8.250
 4919POPC   C3A23117  39.958  21.372   7.950
 4919POPC   C4A23118  39.974  21.397   7.650
 4919POPC   C1B23119  39.844  21.606   8.550
 4919POPC   C2B23120  39.867  21.555   8.250
 4919POPC   C3B23121  39.870  21.620   7.950
 4919POPC   C4B23122  39.833  21.641   7.650
 4920POPC   NC323123  43.925  38.502   9.450
 4920POPC   PO423124  43.863  38.460   9.150
 4920POPC   GL123125  43.880  38.489   8.850
 4920POPC   GL223126  43.848  38.367   8.850
 4920POPC   C1A23127  43.869  38.477   8.550
 4920POPC   D2A23128  43.920  38.437   8.250
 4920POPC   C3A23129  43.878  38.485   7.950
 4920POPC   C4A23130  43.934  38.487   7.650
 4920POPC   C1B23131  43.842  38.194   8.550
 4920POPC   C2B23132  43.843  38.258   8.250
 4920POPC   C3B23133  43.822  38.242   7.950
 4920POPC   C4B23134  43.877  38.217   7.650
 4921POPC   NC323135  33.840   7.396   9.450
 4921POPC   PO423136  33.798   7.382   9.150
 4921POPC   GL123137  33.829   7.465   8.850
 4921POPC   GL223138  33.789   7.511   8.850
 4921POPC   C1A23139  33.807   7.400   8.550
 4921POPC   D2A23140  33.805   7.407   8.250
 4921POPC   C3A23141  33.767   7.419   7.950
 4921POPC   C4A23142  33.805   7.439   7.650
 4921POPC   C1B23143  33.696   7.696   8.550
 4921POPC   C2B23144  33.673   7.672   8.250
 4921POPC   C3B23145  33.719   7.677   7.950
 4921POPC   C4B23146  33.739   7.679   7.650
 4922POPC   NC323147  40.761  34.537   9.450
 4922POPC   PO423148  40.820  34.571   9.150
 4922POPC   GL123149  40.762  34.577   8.850
 4922POPC   GL223150  40.904  34.527   8.850
 4922POPC   C1A23151  40.789  34.618   8.550
 4922POPC   D2A23152  40.758  34.542   8.250
 4922POPC   C3A23153  40.738  34.528   7.950
 4922POPC   C4A23154  40.819  34.573   7.650
 4922POPC   C1B23155  40.946  34.464   8.550
 4922POPC   C2B23156  40.976  34.446   8.250
 4922POPC   C3B23157  40.978  34.411   7.950
 4922POPC   C4B23158  41.001  34.418   7.650
 4923POPC   NC323159  11.274  18.297   9.450
 4923POPC   PO423160  11.266  18.330   9.150
 4923POPC   GL123161  11.265  18.251   8.850
 4923POPC   GL223162  11.175  18.268   8.850
 4923POPC   C1A23163  11.321  18.238   8.550
 4923POPC   D2A23164  11.298  18.238   8.250
 4923POPC   C3A23165  11.337  18.267   7.950
 4923POPC   C4A23166  11.272  18.233   7.650
 4923POPC   C1B23167  11.039  18.251   8.550
 4923POPC   C2B23168  11.098  18.191   8.250
 4923POPC   C3B23169  11.074  18.196   7.950
 4923POPC   C4B23170  11.008  18.201   7.650
 4924POPC   NC323171  29.898   7.436   9.450
 4924POPC   PO423172  29.875   7.433   9.150
 4924POPC   GL123173  29.923   7.396   8.850
 4924POPC   GL223174  30.000   7.330   8.850
 4924POPC   C1A23175  29.899   7.393   8.550
 4924POPC   D2A23176  29.912   7.441   8.250
 4924POPC   C3A23177  29.917   7.397   7.950
 4924POPC   C4A23178  29.968   7.459   7.650
 4924POPC   C1B23179  30.027   7.150   8.550
 4924POPC   C2B23180  30.004   7.188   8.250
 4924POPC   C3B23181  30.024   7.186   7.950
 4924POPC   C4B23182  29.952   7.228   7.650
 4925POPC   NC323183  28.368  24.502   9.450
 4925POPC   PO423184  28.371  24.492   9.150
 4925POPC   GL123185  28.377  24.460   8.850
 4925POPC   GL223186  28.330  24.397   8.850
 4925POPC   C1A23187  28.362  24.491   8.550
 4925POPC   D2A23188  28.380  24.452   8.250
 4925POPC   C3A23189  28.324  24.469   7.950
 4925POPC   C4A23190  28.383  24.475   7.650
 4925POPC   C1B23191  28.292  24.231   8.550
 4925POPC   C2B23192  28.305  24.282   8.250
 4925POPC   C3B23193  28.318  24.252   7.950
 4925POPC   C4B23194  28.320  24.219   7.650
 4926POPC   NC323195  23.678  33.033   9.450
 4926POPC   PO423196  23.684  33.054   9.150
 4926POPC   GL123197  23.690  32.988   8.850
 4926POPC   GL223198  23.749  33.142   8.850
 4926POPC   C1A23199  23.675  33.009   8.550
 4926POPC   D2A23200  23.727  33.037   8.250
 4926POPC   C3A23201  23.732  33.028   7.950
 4926POPC   C4A23202  23.740  33.008   7.650
 4926POPC   C1B23203  23.733  33.311   8.550
 4926POPC   C2B23204  23.688  33.317   8.250
 4926POPC   C3B23205  23.778  33.228   7.950
 4926POPC   C4B23206  23.755  33.297   7.650
 4927POPC   NC323207  26.792  23.710   9.450
 4927POPC   PO423208  26.834  23.672   9.150
 4927POPC   GL123209  26.854  23.754   8.850
 4927POPC   GL223210  26.722  23.796   8.850
 4927POPC   C1A23211  26.820  23.758   8.550
 4927POPC   D2A23212  26.806  23.674   8.250
 4927POPC   C3A23213  26.862  23.729   7.950
 4927POPC   C4A23214  26.775  23.667   7.650
 4927POPC   C1B23215  26.603  23.776   8.550
 4927POPC   C2B23216  26.529  23.802   8.250
 4927POPC   C3B23217  26.556  23.758   7.950
 4927POPC   C4B23218  26.594  23.829   7.650
 4928POPC   NC323219  14.451  34.569   9.450
 4928POPC   PO423220  14.370  34.586   9.150
 4928POPC   GL123221  14.425  34.546   8.850
 4928POPC   GL223222  14.372  34.696   8.850
 4928POPC   C1A23223  14.358  34.569   8.550
 4928POPC   D2A23224  14.369  34.559   8.250
 4928POPC   C3A23225  14.385  34.604   7.950
 4928POPC   C4A23226  14.448  34.606   7.650
 4928POPC   C1B23227  14.306  34.804   8.550
 4928POPC   C2B23228  14.259  34.768   8.250
 4928POPC   C3B23229  14.274  34.842   7.950
 4928POPC   C4B23230  14.297  34.812   7.650
 4929POPC   NC323231   6.607  10.491   9.450
 4929POPC   PO423232   6.616  10.543   9.150
 4929POPC   GL123233   6.607  10.480   8.850
 4929POPC   GL223234   6.558  10.550   8.850
 4929POPC   C1A23235   6.602  10.503   8.550
 4929POPC   D2A23236   6.686  10.519   8.250
 4929POPC   C3A23237   6.601  10.524   7.950
 4929POPC   C4A23238   6.635  10.510   7.650
 4929POPC   C1B23239   6.421  10.495   8.550
 4929POPC   C2B23240   6.376  10.509   8.250
 4929POPC   C3B23241   6.354  10.503   7.950
 4929POPC   C4B23242   6.372  10.538   7.650
 4930POPC   NC323243  32.220  13.604   9.450
 4930POPC   PO423244  32.232  13.625   9.150
 4930POPC   GL123245  32.280  13.641   8.850
 4930POPC   GL223246  32.136  13.596   8.850
 4930POPC   C1A23247  32.238  13.626   8.550
 4930POPC   D2A23248  32.232  13.638   8.250
 4930POPC   C3A23249  32.234  13.650   7.950
 4930POPC   C4A23250  32.214  13.653   7.650
 4930POPC   C1B23251  32.043  13.537   8.550
 4930POPC   C2B23252  32.035  13.555   8.250
 4930POPC   C3B23253  31.983  13.550   7.950
 4930POPC   C4B23254  31.981  13.546   7.650
 4931POPC   NC323255  34.572  37.671   9.450
 4931POPC   PO423256  34.595  37.690   9.150
 4931POPC   GL123257  34.526  37.724   8.850
 4931POPC   GL223258  34.652  37.727   8.850
 4931POPC   C1A23259  34.594  37.674   8.550
 4931POPC   D2A23260  34.595  37.676   8.250
 4931POPC   C3A23261  34.599  37.652   7.950
 4931POPC   C4A23262  34.526  37.720   7.650
 4931POPC   C1B23263  34.751  37.868   8.550
 4931POPC   C2B23264  34.728  37.915   8.250
 4931POPC   C3B23265  34.747  37.845   7.950
 4931POPC   C4B23266  34.716  37.857   7.650
 4932POPC   NC323267  32.272  27.581   9.450
 4932POPC   PO423268  32.250  27.620   9.150
 4932POPC   GL123269  32.239  27.589   8.850
 4932POPC   GL223270  32.172  27.726   8.850
 4932POPC   C1A23271  32.228  27.601   8.550
 4932POPC   D2A23272  32.216  27.618   8.250
 4932POPC   C3A23273  32.246  27.547   7.950
 4932POPC   C4A23274  32.269  27.552   7.650
 4932POPC   C1B23275  32.082  27.806   8.550
 4932POPC   C2B23276  32.059  27.761   8.250
 4932POPC   C3B23277  32.090  27.730   7.950
 4932POPC   C4B23278  32.104  27.773   7.650
 4933POPC   NC323279  10.551  43.867   9.450
 4933POPC   PO423280  10.553  43.853   9.150
 4933POPC   GL123281  10.478  43.851   8.850
 4933POPC   GL223282  10.416  43.792   8.850
 4933POPC   C1A23283  10.509  43.889   8.550
 4933POPC   D2A23284  10.550  43.904   8.250
 4933POPC   C3A23285  10.493  43.902   7.950
 4933POPC   C4A23286  10.555  43.934   7.650
 4933POPC   C1B23287  10.358  43.675   8.550
 4933POPC   C2B23288  10.429  43.649   8.250
 4933POPC   C3B23289  10.393  43.634   7.950
 4933POPC   C4B23290  10.398  43.672   7.650
 4934POPC   NC323291  29.117  13.635   9.450
 4934POPC   PO423292  29.173  13.602   9.150
 4934POPC   GL123293  29.127  13.589   8.850
 4934POPC   GL223294  29.279  13.593   8.850
 4934POPC   C1A23295  29.163  13.607   8.550
 4934POPC   D2A23296  29.107  13.627   8.250
 4934POPC   C3A23297  29.096  13.650   7.950
 4934POPC   C4A23298  29.157  13.636   7.650
 4934POPC   C1B23299  29.308  13.472   8.550
 4934POPC   C2B23300  29.352  13.516   8.250
 4934POPC   C3B23301  29.387  13.447   7.950
 4934POPC   C4B23302  29.395  13.438   7.650
 4935POPC   NC323303  34.559  22.206   9.450
 4935POPC   PO423304  34.623  22.119   9.150
 4935POPC   GL123305  34.600  22.132   8.850
 4935POPC   GL223306  34.539  22.108   8.850
 4935POPC   C1A23307  34.535  22.150   8.550
 4935POPC   D2A23308  34.603  22.142   8.250
 4935POPC   C3A23309  34.625  22.203   7.950
 4935POPC   C4A23310  34.539  22.130   7.650
 4935POPC   C1B23311  34.355  22.031   8.550
 4935POPC   C2B23312  34.441  21.953   8.250
 4935POPC   C3B23313  34.384  22.008   7.950
 4935POPC   C4B23314  34.378  22.018   7.650
 4936POPC   NC323315   9.701  33.055   9.450
 4936POPC   PO423316   9.762  33.021   9.150
 4936POPC   GL123317   9.768  33.055   8.850
 4936POPC   GL223318   9.691  33.113   8.850
 4936POPC   C1A23319   9.777  33.023   8.550
 4936POPC   D2A23320   9.711  33.037   8.250
 4936POPC   C3A23321   9.773  33.059   7.950
 4936POPC   C4A23322   9.778  33.028   7.650
 4936POPC   C1B23323   9.568  33.160   8.550
 4936POPC   C2B23324   9.546  33.220   8.250
 4936POPC   C3B23325   9.555  33.184   7.950
 4936POPC   C4B23326   9.529  33.215   7.650
 4937POPC   NC323327  33.001  27.551   9.450
 4937POPC   PO423328  33.000  27.568   9.150
 4937POPC   GL123329  32.975  27.596   8.850
 4937POPC   GL223330  33.077  27.749   8.850
 4937POPC   C1A23331  32.980  27.572   8.550
 4937POPC   D2A23332  33.068  27.572   8.250
 4937POPC   C3A23333  33.050  27.592   7.950
 4937POPC   C4A23334  33.071  27.610   7.650
 4937POPC   C1B23335  33.026  27.881   8.550
 4937POPC   C2B23336  33.054  27.893   8.250
 4937POPC   C3B23337  32.992  27.836   7.950
 4937POPC   C4B23338  33.077  27.825   7.650
 4938POPC   NC323339  23.754   8.200   9.450
 4938POPC   PO423340  23.739   8.237   9.150
 4938POPC   GL123341  23.681   8.231   8.850
 4938POPC   GL223342  23.768   8.044   8.850
 4938POPC   C1A23343  23.726   8.158   8.550
 4938POPC   D2A23344  23.749   8.187   8.250
 4938POPC   C3A23345  23.669   8.227   7.950
 4938POPC   C4A23346  23.680   8.188   7.650
 4938POPC   C1B23347  23.773   7.946   8.550
 4938POPC   C2B23348  23.772   7.983   8.250
 4938POPC   C3B23349  23.744   7.994   7.950
 4938POPC   C4B23350  23.797   8.000   7.650
 4939POPC   NC323351  34.589  26.785   9.450
 4939POPC   PO423352  34.578  26.797   9.150
 4939POPC   GL123353  34.553  26.804   8.850
 4939POPC   GL223354  34.561  26.653   8.850
 4939POPC   C1A23355  34.611  26.810   8.550
 4939POPC   D2A23356  34.592  26.770   8.250
 4939POPC   C3A23357  34.581  26.786   7.950
 4939POPC   C4A23358  34.531  26.842   7.650
 4939POPC   C1B23359  34.580  26.618   8.550
 4939POPC   C2B23360  34.568  26.527   8.250
 4939POPC   C3B23361  34.607  26.600   7.950
 4939POPC   C4B23362  34.567  26.591   7.650
 4940POPC   NC323363  42.338  26.833   9.450
 4940POPC   PO423364  42.305  26.864   9.150
 4940POPC   GL123365  42.370  26.866   8.850
 4940POPC   GL223366  42.396  26.792   8.850
 4940POPC   C1A23367  42.343  26.789   8.550
 4940POPC   D2A23368  42.362  26.834   8.250
 4940POPC   C3A23369  42.305  26.819   7.950
 4940POPC   C4A23370  42.303  26.814   7.650
 4940POPC   C1B23371  42.535  26.617   8.550
 4940POPC   C2B23372  42.499  26.709   8.250
 4940POPC   C3B23373  42.562  26.658   7.950
 4940POPC   C4B23374  42.529  26.700   7.650
 4941POPC   NC323375  44.643  12.870   9.450
 4941POPC   PO423376  44.643  12.840   9.150
 4941POPC   GL123377  44.651  12.845   8.850
 4941POPC   GL223378  44.546  12.892   8.850
 4941POPC   C1A23379  44.703  12.820   8.550
 4941POPC   D2A23380  44.617  12.880   8.250
 4941POPC   C3A23381  44.659  12.900   7.950
 4941POPC   C4A23382  44.641  12.861   7.650
 4941POPC   C1B23383  44.407  12.910   8.550
 4941POPC   C2B23384  44.434  12.960   8.250
 4941POPC   C3B23385  44.380  12.931   7.950
 4941POPC   C4B23386  44.420  12.894   7.650
 4942POPC   NC323387  18.270   8.953   9.450
 4942POPC   PO423388  18.327   9.000   9.150
 4942POPC   GL123389  18.292   8.973   8.850
 4942POPC   GL223390  18.282   8.895   8.850
 4942POPC   C1A23391  18.300   9.022   8.550
 4942POPC   D2A23392  18.316   8.931   8.250
 4942POPC   C3A23393  18.301   9.016   7.950
 4942POPC   C4A23394  18.318   8.959   7.650
 4942POPC   C1B23395  18.318   8.747   8.550
 4942POPC   C2B23396  18.351   8.762   8.250
 4942POPC   C3B23397  18.388   8.722   7.950
 4942POPC   C4B23398  18.370   8.697   7.650
 4943POPC   NC323399  19.794  24.447   9.450
 4943POPC   PO423400  19.863  24.495   9.150
 4943POPC   GL123401  19.792  24.503   8.850
 4943POPC   GL223402  19.796  24.550   8.850
 4943POPC   C1A23403  19.794  24.518   8.550
 4943POPC   D2A23404  19.826  24.483   8.250
 4943POPC   C3A23405  19.844  24.452   7.950
 4943POPC   C4A23406  19.868  24.488   7.650
 4943POPC   C1B23407  19.675  24.659   8.550
 4943POPC   C2B23408  19.760  24.717   8.250
 4943POPC   C3B23409  19.665  24.702   7.950
 4943POPC   C4B23410  19.682  24.662   7.650
 4944POPC   NC323411  43.924  19.801   9.450
 4944POPC   PO423412  43.878  19.873   9.150
 4944POPC   GL123413  43.908  19.869   8.850
 4944POPC   GL223414  43.897  19.764   8.850
 4944POPC   C1A23415  43.918  19.842   8.550
 4944POPC   D2A23416  43.909  19.837   8.250
 4944POPC   C3A23417  43.858  19.863   7.950
 4944POPC   C4A23418  43.904  19.785   7.650
 4944POPC   C1B23419  44.015  19.558   8.550
 4944POPC   C2B23420  43.931  19.619   8.250
 4944POPC   C3B23421  44.010  19.557   7.950
 4944POPC   C4B23422  44.011  19.633   7.650
 4945POPC   NC323423  43.933  43.883   9.450
 4945POPC   PO423424  43.883  43.892   9.150
 4945POPC   GL123425  43.898  43.851   8.850
 4945POPC   GL223426  43.926  44.056   8.850
 4945POPC   C1A23427  43.857  43.910   8.550
 4945POPC   D2A23428  43.882  43.858   8.250
 4945POPC   C3A23429  43.865  43.857   7.950
 4945POPC   C4A23430  43.881  43.918   7.650
 4945POPC   C1B23431  43.948  44.164   8.550
 4945POPC   C2B23432  43.901  44.170   8.250
 4945POPC   C3B23433  43.935  44.122   7.950
 4945POPC   C4B23434  43.952  44.173   7.650
 4946POPC   NC323435  20.582  40.734   9.450
 4946POPC   PO423436  20.581  40.800   9.150
 4946POPC   GL123437  20.610  40.790   8.850
 4946POPC   GL223438  20.504  40.755   8.850
 4946POPC   C1A23439  20.630  40.733   8.550
 4946POPC   D2A23440  20.587  40.800   8.250
 4946POPC   C3A23441  20.623  40.809   7.950
 4946POPC   C4A23442  20.572  40.827   7.650
 4946POPC   C1B23443  20.397  40.707   8.550
 4946POPC   C2B23444  20.403  40.659   8.250
 4946POPC   C3B23445  20.344  40.712   7.950
 4946POPC   C4B23446  20.360  40.669   7.650
 4947POPC   NC323447  30.734   1.212   9.450
 4947POPC   PO423448  30.660   1.244   9.150
 4947POPC   GL123449  30.704   1.258   8.850
 4947POPC   GL223450  30.857   1.175   8.850
 4947POPC   C1A23451  30.703   1.183   8.550
 4947POPC   D2A23452  30.683   1.263   8.250
 4947POPC   C3A23453  30.647   1.218   7.950
 4947POPC   C4A23454  30.742   1.250   7.650
 4947POPC   C1B23455  30.905   1.237   8.550
 4947POPC   C2B23456  30.920   1.233   8.250
 4947POPC   C3B23457  30.914   1.191   7.950
 4947POPC   C4B23458  30.908   1.195   7.650
 4948POPC   NC323459  33.004   0.479   9.450
 4948POPC   PO423460  33.042   0.463   9.150
 4948POPC   GL123461  33.010   0.398   8.850
 4948POPC   GL223462  33.147   0.459   8.850
 4948POPC   C1A23463  33.045   0.402   8.550
 4948POPC   D2A23464  32.997   0.479   8.250
 4948POPC   C3A23465  32.988   0.463   7.950
 4948POPC   C4A23466  32.980   0.455   7.650
 4948POPC   C1B23467  33.276   0.485   8.550
 4948POPC   C2B23468  33.268   0.517   8.250
 4948POPC   C3B23469  33.222   0.522   7.950
 4948POPC   C4B23470  33.209   0.563   7.650
 4949POPC   NC323471  13.639  34.552   9.450
 4949POPC   PO423472  13.647  34.619   9.150
 4949POPC   GL123473  13.655  34.587   8.850
 4949POPC   GL223474  13.744  34.522   8.850
 4949POPC   C1A23475  13.613  34.571   8.550
 4949POPC   D2A23476  13.597  34.604   8.250
 4949POPC   C3A23477  13.612  34.590   7.950
 4949POPC   C4A23478  13.645  34.616   7.650
 4949POPC   C1B23479  13.836  34.445   8.550
 4949POPC   C2B23480  13.845  34.398   8.250
 4949POPC   C3B23481  13.765  34.394   7.950
 4949POPC   C4B23482  13.841  34.369   7.650
 4950POPC   NC323483  36.872  36.118   9.450
 4950POPC   PO423484  36.899  36.145   9.150
 4950POPC   GL123485  36.884  36.164   8.850
 4950POPC   GL223486  37.028  36.158   8.850
 4950POPC   C1A23487  36.882  36.106   8.550
 4950POPC   D2A23488  36.920  36.172   8.250
 4950POPC   C3A23489  36.857  36.099   7.950
 4950POPC   C4A23490  36.934  36.098   7.650
 4950POPC   C1B23491  37.119  36.093   8.550
 4950POPC   C2B23492  37.128  36.107   8.250
 4950POPC   C3B23493  37.152  36.149   7.950
 4950POPC   C4B23494  37.188  36.138   7.650
 4951POPC   NC323495   8.179  33.836   9.450
 4951POPC   PO423496   8.235  33.775   9.150
 4951POPC   GL123497   8.245  33.850   8.850
 4951POPC   GL223498   8.108  33.742   8.850
 4951POPC   C1A23499   8.192  33.797   8.550
 4951POPC   D2A23500   8.234  33.774   8.250
 4951POPC   C3A23501   8.147  33.809   7.950
 4951POPC   C4A23502   8.202  33.758   7.650
 4951POPC   C1B23503   8.024  33.647   8.550
 4951POPC   C2B23504   8.049  33.688   8.250
 4951POPC   C3B23505   8.027  33.608   7.950
 4951POPC   C4B23506   7.979  33.623   7.650
 4952POPC   NC323507  44.670  29.146   9.450
 4952POPC   PO423508  44.620  29.104   9.150
 4952POPC   GL123509  44.644  29.156   8.850
 4952POPC   GL223510  44.573  29.258   8.850
 4952POPC   C1A23511  44.712  29.169   8.550
 4952POPC   D2A23512  44.703  29.170   8.250
 4952POPC   C3A23513  44.693  29.141   7.950
 4952POPC   C4A23514  44.658  29.157   7.650
 4952POPC   C1B23515  44.512  29.409   8.550
 4952POPC   C2B23516  44.546  29.378   8.250
 4952POPC   C3B23517  44.520  29.393   7.950
 4952POPC   C4B23518  44.582  29.329   7.650
 4953POPC   NC323519  35.322  15.984   9.450
 4953POPC   PO423520  35.375  15.937   9.150
 4953POPC   GL123521  35.335  15.938   8.850
 4953POPC   GL223522  35.257  15.874   8.850
 4953POPC   C1A23523  35.363  15.918   8.550
 4953POPC   D2A23524  35.355  15.985   8.250
 4953POPC   C3A23525  35.386  15.932   7.950
 4953POPC   C4A23526  35.381  15.932   7.650
 4953POPC   C1B23527  35.212  15.737   8.550
 4953POPC   C2B23528  35.276  15.741   8.250
 4953POPC   C3B23529  35.198  15.691   7.950
 4953POPC   C4B23530  35.260  15.773   7.650
 4954POPC   NC323531  30.716  19.819   9.450
 4954POPC   PO423532  30.743  19.813   9.150
 4954POPC   GL123533  30.656  19.875   8.850
 4954POPC   GL223534  30.650  19.912   8.850
 4954POPC   C1A23535  30.697  19.872   8.550
 4954POPC   D2A23536  30.718  19.823   8.250
 4954POPC   C3A23537  30.736  19.836   7.950
 4954POPC   C4A23538  30.690  19.791   7.650
 4954POPC   C1B23539  30.530  20.021   8.550
 4954POPC   C2B23540  30.553  20.040   8.250
 4954POPC   C3B23541  30.579  20.041   7.950
 4954POPC   C4B23542  30.503  20.027   7.650
 4955POPC   NC323543  32.979  42.369   9.450
 4955POPC   PO423544  33.057  42.377   9.150
 4955POPC   GL123545  33.003  42.344   8.850
 4955POPC   GL223546  32.988  42.474   8.850
 4955POPC   C1A23547  33.063  42.303   8.550
 4955POPC   D2A23548  33.052  42.341   8.250
 4955POPC   C3A23549  32.983  42.381   7.950
 4955POPC   C4A23550  33.020  42.338   7.650
 4955POPC   C1B23551  32.940  42.512   8.550
 4955POPC   C2B23552  32.890  42.595   8.250
 4955POPC   C3B23553  32.949  42.562   7.950
 4955POPC   C4B23554  32.911  42.597   7.650
 4956POPC   NC323555  43.104  41.530   9.450
 4956POPC   PO423556  43.071  41.516   9.150
 4956POPC   GL123557  43.121  41.590   8.850
 4956POPC   GL223558  43.166  41.484   8.850
 4956POPC   C1A23559  43.083  41.580   8.550
 4956POPC   D2A23560  43.157  41.590   8.250
 4956POPC   C3A23561  43.111  41.550   7.950
 4956POPC   C4A23562  43.137  41.600   7.650
 4956POPC   C1B23563  43.105  41.302   8.550
 4956POPC   C2B23564  43.140  41.304   8.250
 4956POPC   C3B23565  43.171  41.274   7.950
 4956POPC   C4B23566  43.181  41.340   7.650
 4957POPC   NC323567  29.873  18.276   9.450
 4957POPC   PO423568  29.892  18.240   9.150
 4957POPC   GL123569  29.945  18.240   8.850
 4957POPC   GL223570  30.026  18.174   8.850
 4957POPC   C1A23571  29.891  18.289   8.550
 4957POPC   D2A23572  29.951  18.316   8.250
 4957POPC   C3A23573  29.903  18.264   7.950
 4957POPC   C4A23574  29.926  18.295   7.650
 4957POPC   C1B23575  30.053  18.035   8.550
 4957POPC   C2B23576  30.090  18.079   8.250
 4957POPC   C3B23577  30.064  18.056   7.950
 4957POPC   C4B23578  30.062  18.034   7.650
 4958POPC   NC323579  10.485  30.723   9.450
 4958POPC   PO423580  10.484  30.652   9.150
 4958POPC   GL123581  10.517  30.729   8.850
 4958POPC   GL223582  10.671  30.729   8.850
 4958POPC   C1A23583  10.487  30.650   8.550
 4958POPC   D2A23584  10.518  30.739   8.250
 4958POPC   C3A23585  10.563  30.707   7.950
 4958POPC   C4A23586  10.492  30.700   7.650
 4958POPC   C1B23587  10.719  30.802   8.550
 4958POPC   C2B23588  10.717  30.794   8.250
 4958POPC   C3B23589  10.708  30.787   7.950
 4958POPC   C4B23590  10.702  30.825   7.650
 4959POPC   NC323591  33.836  21.343   9.450
 4959POPC   PO423592  33.849  21.352   9.150
 4959POPC   GL123593  33.777  21.354   8.850
 4959POPC   GL223594  33.904  21.347   8.850
 4959POPC   C1A23595  33.804  21.405   8.550
 4959POPC   D2A23596  33.762  21.354   8.250
 4959POPC   C3A23597  33.827  21.425   7.950
 4959POPC   C4A23598  33.817  21.369   7.650
 4959POPC   C1B23599  34.055  21.345   8.550
 4959POPC   C2B23600  34.088  21.332   8.250
 4959POPC   C3B23601  34.006  21.281   7.950
 4959POPC   C4B23602  34.048  21.351   7.650
 4960POPC   NC323603   6.604  18.280   9.450
 4960POPC   PO423604   6.646  18.291   9.150
 4960POPC   GL123605   6.621  18.297   8.850
 4960POPC   GL223606   6.618  18.179   8.850
 4960POPC   C1A23607   6.625  18.260   8.550
 4960POPC   D2A23608   6.626  18.265   8.250
 4960POPC   C3A23609   6.644  18.274   7.950
 4960POPC   C4A23610   6.636  18.332   7.650
 4960POPC   C1B23611   6.553  18.082   8.550
 4960POPC   C2B23612   6.532  18.007   8.250
 4960POPC   C3B23613   6.602  18.054   7.950
 4960POPC   C4B23614   6.561  18.089   7.650
 4961POPC   NC323615  39.239  10.566   9.450
 4961POPC   PO423616  39.276  10.503   9.150
 4961POPC   GL123617  39.275  10.478   8.850
 4961POPC   GL223618  39.114  10.518   8.850
 4961POPC   C1A23619  39.208  10.569   8.550
 4961POPC   D2A23620  39.230  10.542   8.250
 4961POPC   C3A23621  39.198  10.481   7.950
 4961POPC   C4A23622  39.213  10.557   7.650
 4961POPC   C1B23623  38.991  10.554   8.550
 4961POPC   C2B23624  38.996  10.549   8.250
 4961POPC   C3B23625  38.943  10.617   7.950
 4961POPC   C4B23626  38.984  10.612   7.650
 4962POPC   NC323627   3.504  40.015   9.450
 4962POPC   PO423628   3.521  39.965   9.150
 4962POPC   GL123629   3.565  40.024   8.850
 4962POPC   GL223630   3.574  40.083   8.850
 4962POPC   C1A23631   3.499  39.968   8.550
 4962POPC   D2A23632   3.583  40.020   8.250
 4962POPC   C3A23633   3.504  40.020   7.950
 4962POPC   C4A23634   3.526  39.999   7.650
 4962POPC   C1B23635   3.647  40.253   8.550
 4962POPC   C2B23636   3.690  40.207   8.250
 4962POPC   C3B23637   3.696  40.263   7.950
 4962POPC   C4B23638   3.646  40.220   7.650
 4963POPC   NC323639  17.509  16.774   9.450
 4963POPC   PO423640  17.489  16.710   9.150
 4963POPC   GL123641  17.530  16.737   8.850
 4963POPC   GL223642  17.432  16.686   8.850
 4963POPC   C1A23643  17.515  16.693   8.550
 4963POPC   D2A23644  17.507  16.708   8.250
 4963POPC   C3A23645  17.549  16.689   7.950
 4963POPC   C4A23646  17.492  16.709   7.650
 4963POPC   C1B23647  17.293  16.648   8.550
 4963POPC   C2B23648  17.245  16.650   8.250
 4963POPC   C3B23649  17.251  16.659   7.950
 4963POPC   C4B23650  17.267  16.588   7.650
 4964POPC   NC323651  33.071   1.977   9.450
 4964POPC   PO423652  32.997   1.940   9.150
 4964POPC   GL123653  32.989   1.957   8.850
 4964POPC   GL223654  32.942   1.954   8.850
 4964POPC   C1A23655  33.052   1.943   8.550
 4964POPC   D2A23656  33.023   1.945   8.250
 4964POPC   C3A23657  33.022   2.011   7.950
 4964POPC   C4A23658  33.074   1.981   7.650
 4964POPC   C1B23659  32.809   1.793   8.550
 4964POPC   C2B23660  32.776   1.885   8.250
 4964POPC   C3B23661  32.833   1.845   7.950
 4964POPC   C4B23662  32.840   1.809   7.650
 4965POPC   NC323663  23.664  42.382   9.450
 4965POPC   PO423664  23.749  42.340   9.150
 4965POPC   GL123665  23.757  42.377   8.850
 4965POPC   GL223666  23.722  42.178   8.850
 4965POPC   C1A23667  23.752  42.340   8.550
 4965POPC   D2A23668  23.735  42.342   8.250
 4965POPC   C3A23669  23.665  42.365   7.950
 4965POPC   C4A23670  23.666  42.309   7.650
 4965POPC   C1B23671  23.824  42.055   8.550
 4965POPC   C2B23672  23.847  42.103   8.250
 4965POPC   C3B23673  23.781  42.076   7.950
 4965POPC   C4B23674  23.775  42.090   7.650
 4966POPC   NC323675  26.768  31.519   9.450
 4966POPC   PO423676  26.860  31.438   9.150
 4966POPC   GL123677  26.820  31.474   8.850
 4966POPC   GL223678  26.732  31.555   8.850
 4966POPC   C1A23679  26.827  31.500   8.550
 4966POPC   D2A23680  26.775  31.501   8.250
 4966POPC   C3A23681  26.768  31.426   7.950
 4966POPC   C4A23682  26.778  31.447   7.650
 4966POPC   C1B23683  26.609  31.628   8.550
 4966POPC   C2B23684  26.634  31.623   8.250
 4966POPC   C3B23685  26.569  31.609   7.950
 4966POPC   C4B23686  26.631  31.647   7.650
 4967POPC   NC323687  44.688  16.687   9.450
 4967POPC   PO423688  44.687  16.752   9.150
 4967POPC   GL123689  44.708  16.705   8.850
 4967POPC   GL223690  44.680  16.892   8.850
 4967POPC   C1A23691  44.680  16.764   8.550
 4967POPC   D2A23692  44.710  16.770   8.250
 4967POPC   C3A23693  44.649  16.709   7.950
 4967POPC   C4A23694  44.670  16.690   7.650
 4967POPC   C1B23695  44.776  16.977   8.550
 4967POPC   C2B23696  44.754  16.960   8.250
 4967POPC   C3B23697  44.777  16.924   7.950
 4967POPC   C4B23698  44.768  16.974   7.650
 4968POPC   NC323699   9.719  42.354   9.450
 4968POPC   PO423700   9.736  42.309   9.150
 4968POPC   GL123701   9.729  42.334   8.850
 4968POPC   GL223702   9.856  42.379   8.850
 4968POPC   C1A23703   9.751  42.316   8.550
 4968POPC   D2A23704   9.721  42.369   8.250
 4968POPC   C3A23705   9.791  42.286   7.950
 4968POPC   C4A23706   9.758  42.356   7.650
 4968POPC   C1B23707   9.899  42.469   8.550
 4968POPC   C2B23708   9.957  42.495   8.250
 4968POPC   C3B23709   9.914  42.443   7.950
 4968POPC   C4B23710   9.894  42.480   7.650
 4969POPC   NC323711   1.970  36.938   9.450
 4969POPC   PO423712   1.962  36.947   9.150
 4969POPC   GL123713   2.013  36.883   8.850
 4969POPC   GL223714   2.155  36.929   8.850
 4969POPC   C1A23715   1.971  36.858   8.550
 4969POPC   D2A23716   1.996  36.926   8.250
 4969POPC   C3A23717   1.985  36.946   7.950
 4969POPC   C4A23718   1.993  36.932   7.650
 4969POPC   C1B23719   2.258  36.953   8.550
 4969POPC   C2B23720   2.261  36.934   8.250
 4969POPC   C3B23721   2.217  36.946   7.950
 4969POPC   C4B23722   2.226  36.901   7.650
 4970POPC   NC323723  13.635  33.763   9.450
 4970POPC   PO423724  13.636  33.819   9.150
 4970POPC   GL123725  13.601  33.759   8.850
 4970POPC   GL223726  13.530  33.916   8.850
 4970POPC   C1A23727  13.645  33.803   8.550
 4970POPC   D2A23728  13.649  33.833   8.250
 4970POPC   C3A23729  13.632  33.845   7.950
 4970POPC   C4A23730  13.649  33.760   7.650
 4970POPC   C1B23731  13.511  34.037   8.550
 4970POPC   C2B23732  13.473  34.050   8.250
 4970POPC   C3B23733  13.529  33.987   7.950
 4970POPC   C4B23734  13.485  33.981   7.650
 4971POPC   NC323735  43.908   5.907   9.450
 4971POPC   PO423736  43.913   5.868   9.150
 4971POPC   GL123737  43.879   5.838   8.850
 4971POPC   GL223738  43.976   5.945   8.850
 4971POPC   C1A23739  43.914   5.891   8.550
 4971POPC   D2A23740  43.936   5.875   8.250
 4971POPC   C3A23741  43.848   5.879   7.950
 4971POPC   C4A23742  43.848   5.869   7.650
 4971POPC   C1B23743  44.099   6.034   8.550
 4971POPC   C2B23744  44.112   6.002   8.250
 4971POPC   C3B23745  44.119   6.014   7.950
 4971POPC   C4B23746  44.130   6.058   7.650
 4972POPC   NC323747   5.082  17.540   9.450
 4972POPC   PO423748   5.063  17.484   9.150
 4972POPC   GL123749   5.076  17.519   8.850
 4972POPC   GL223750   5.078  17.437   8.850
 4972POPC   C1A23751   5.131  17.503   8.550
 4972POPC   D2A23752   5.066  17.471   8.250
 4972POPC   C3A23753   5.087  17.489   7.950
 4972POPC   C4A23754   5.122  17.496   7.650
 4972POPC   C1B23755   5.029  17.272   8.550
 4972POPC   C2B23756   4.972  17.325   8.250
 4972POPC   C3B23757   4.996  17.235   7.950
 4972POPC   C4B23758   4.980  17.307   7.650
 4973POPC   NC323759  41.545   2.728   9.450
 4973POPC   PO423760  41.598   2.769   9.150
 4973POPC   GL123761  41.598   2.757   8.850
 4973POPC   GL223762  41.581   2.709   8.850
 4973POPC   C1A23763  41.551   2.784   8.550
 4973POPC   D2A23764  41.514   2.723   8.250
 4973POPC   C3A23765  41.524   2.764   7.950
 4973POPC   C4A23766  41.514   2.785   7.650
 4973POPC   C1B23767  41.743   2.505   8.550
 4973POPC   C2B23768  41.667   2.564   8.250
 4973POPC   C3B23769  41.672   2.561   7.950
 4973POPC   C4B23770  41.708   2.562   7.650
 4974POPC   NC323771   4.307  15.977   9.450
 4974POPC   PO423772   4.290  15.982   9.150
 4974POPC   GL123773   4.289  16.003   8.850
 4974POPC   GL223774   4.365  16.056   8.850
 4974POPC   C1A23775   4.302  15.944   8.550
 4974POPC   D2A23776   4.315  15.964   8.250
 4974POPC   C3A23777   4.269  15.965   7.950
 4974POPC   C4A23778   4.339  15.972   7.650
 4974POPC   C1B23779   4.382  16.212   8.550
 4974POPC   C2B23780   4.395  16.200   8.250
 4974POPC   C3B23781   4.325  16.245   7.950
 4974POPC   C4B23782   4.358  16.187   7.650
 4975POPC   NC323783  37.690   2.762   9.450
 4975POPC   PO423784  37.698   2.771   9.150
 4975POPC   GL123785  37.699   2.779   8.850
 4975POPC   GL223786  37.792   2.650   8.850
 4975POPC   C1A23787  37.698   2.763   8.550
 4975POPC   D2A23788  37.647   2.720   8.250
 4975POPC   C3A23789  37.692   2.766   7.950
 4975POPC   C4A23790  37.666   2.789   7.650
 4975POPC   C1B23791  37.903   2.591   8.550
 4975POPC   C2B23792  37.839   2.583   8.250
 4975POPC   C3B23793  37.895   2.586   7.950
 4975POPC   C4B23794  37.909   2.579   7.650
 4976POPC   NC323795  10.569   3.545   9.450
 4976POPC   PO423796  10.555   3.561   9.150
 4976POPC   GL123797  10.512   3.545   8.850
 4976POPC   GL223798  10.454   3.531   8.850
 4976POPC   C1A23799  10.562   3.492   8.550
 4976POPC   D2A23800  10.532   3.590   8.250
 4976POPC   C3A23801  10.510   3.586   7.950
 4976POPC   C4A23802  10.533   3.503   7.650
 4976POPC   C1B23803  10.239   3.416   8.550
 4976POPC   C2B23804  10.288   3.474   8.250
 4976POPC   C3B23805  10.318   3.501   7.950
 4976POPC   C4B23806  10.328   3.503   7.650
 4977POPC   NC323807  32.289  11.317   9.450
 4977POPC   PO423808  32.297  11.305   9.150
 4977POPC   GL123809  32.289  11.253   8.850
 4977POPC   GL223810  32.370  11.298   8.850
 4977POPC   C1A23811  32.258  11.317   8.550
 4977POPC   D2A23812  32.236  11.265   8.250
 4977POPC   C3A23813  32.211  11.281   7.950
 4977POPC   C4A23814  32.287  11.306   7.650
 4977POPC   C1B23815  32.475  11.337   8.550
 4977POPC   C2B23816  32.476  11.390   8.250
 4977POPC   C3B23817  32.463  11.347   7.950
 4977POPC   C4B23818  32.524  11.396   7.650
 4978POPC   NC323819  13.589  43.928   9.450
 4978POPC   PO423820  13.659  43.871   9.150
 4978POPC   GL123821  13.624  43.921   8.850
 4978POPC   GL223822  13.658  44.049   8.850
 4978POPC   C1A23823  13.658  43.920   8.550
 4978POPC   D2A23824  13.578  43.928   8.250
 4978POPC   C3A23825  13.590  43.850   7.950
 4978POPC   C4A23826  13.642  43.929   7.650
 4978POPC   C1B23827  13.727  44.151   8.550
 4978POPC   C2B23828  13.681  44.157   8.250
 4978POPC   C3B23829  13.738  44.110   7.950
 4978POPC   C4B23830  13.752  44.069   7.650
 4979POPC   NC323831   4.319  10.475   9.450
 4979POPC   PO423832   4.302  10.522   9.150
 4979POPC   GL123833   4.314  10.547   8.850
 4979POPC   GL223834   4.291  10.404   8.850
 4979POPC   C1A23835   4.367  10.498   8.550
 4979POPC   D2A23836   4.269  10.499   8.250
 4979POPC   C3A23837   4.292  10.556   7.950
 4979POPC   C4A23838   4.313  10.540   7.650
 4979POPC   C1B23839   4.300  10.245   8.550
 4979POPC   C2B23840   4.300  10.295   8.250
 4979POPC   C3B23841   4.264  10.293   7.950
 4979POPC   C4B23842   4.295  10.294   7.650
 4980POPC   NC323843  24.538  37.630   9.450
 4980POPC   PO423844  24.444  37.707   9.150
 4980POPC   GL123845  24.538  37.677   8.850
 4980POPC   GL223846  24.470  37.557   8.850
 4980POPC   C1A23847  24.532  37.677   8.550
 4980POPC   D2A23848  24.484  37.691   8.250
 4980POPC   C3A23849  24.490  37.701   7.950
 4980POPC   C4A23850  24.526  37.685   7.650
 4980POPC   C1B23851  24.532  37.384   8.550
 4980POPC   C2B23852  24.455  37.446   8.250
 4980POPC   C3B23853  24.482  37.387   7.950
 4980POPC   C4B23854  24.497  37.382   7.650
 4981POPC   NC323855  13.649  16.734   9.450
 4981POPC   PO423856  13.593  16.699   9.150
 4981POPC   GL123857  13.587  16.713   8.850
 4981POPC   GL223858  13.754  16.680   8.850
 4981POPC   C1A23859  13.610  16.694   8.550
 4981POPC   D2A23860  13.617  16.721   8.250
 4981POPC   C3A23861  13.579  16.776   7.950
 4981POPC   C4A23862  13.642  16.706   7.650
 4981POPC   C1B23863  13.844  16.651   8.550
 4981POPC   C2B23864  13.817  16.674   8.250
 4981POPC   C3B23865  13.872  16.667   7.950
 4981POPC   C4B23866  13.862  16.688   7.650
 4982POPC   NC323867  38.483  11.332   9.450
 4982POPC   PO423868  38.482  11.284   9.150
 4982POPC   GL123869  38.445  11.314   8.850
 4982POPC   GL223870  38.549  11.399   8.850
 4982POPC   C1A23871  38.406  11.302   8.550
 4982POPC   D2A23872  38.421  11.290   8.250
 4982POPC   C3A23873  38.462  11.263   7.950
 4982POPC   C4A23874  38.494  11.307   7.650
 4982POPC   C1B23875  38.503  11.574   8.550
 4982POPC   C2B23876  38.574  11.559   8.250
 4982POPC   C3B23877  38.547  11.561   7.950
 4982POPC   C4B23878  38.508  11.518   7.650
 4983POPC   NC323879   3.517  44.669   9.450
 4983POPC   PO423880   3.507  44.668   9.150
 4983POPC   GL123881   3.575  44.709   8.850
 4983POPC   GL223882   3.513  44.789   8.850
 4983POPC   C1A23883   3.581  44.640   8.550
 4983POPC   D2A23884   3.498  44.653   8.250
 4983POPC   C3A23885   3.569  44.672   7.950
 4983POPC   C4A23886   3.526  44.622   7.650
 4983POPC   C1B23887   3.395  44.849   8.550
 4983POPC   C2B23888   3.411  44.855   8.250
 4983POPC   C3B23889   3.402  44.923   7.950
 4983POPC   C4B23890   3.479  44.838   7.650
 4984POPC   NC323891  24.458  40.025   9.450
 4984POPC   PO423892  24.502  40.000   9.150
 4984POPC   GL123893  24.453  39.988   8.850
 4984POPC   GL223894  24.641  40.023   8.850
 4984POPC   C1A23895  24.503  40.014   8.550
 4984POPC   D2A23896  24.448  40.048   8.250
 4984POPC   C3A23897  24.480  40.012   7.950
 4984POPC   C4A23898  24.532  40.022   7.650
 4984POPC   C1B23899  24.697  39.954   8.550
 4984POPC   C2B23900  24.782  39.989   8.250
 4984POPC   C3B23901  24.722  40.039   7.950
 4984POPC   C4B23902  24.766  40.045   7.650
 4985POPC   NC323903   9.739   7.418   9.450
 4985POPC   PO423904   9.786   7.439   9.150
 4985POPC   GL123905   9.709   7.442   8.850
 4985POPC   GL223906   9.839   7.292   8.850
 4985POPC   C1A23907   9.761   7.416   8.550
 4985POPC   D2A23908   9.777   7.386   8.250
 4985POPC   C3A23909   9.755   7.397   7.950
 4985POPC   C4A23910   9.797   7.393   7.650
 4985POPC   C1B23911   9.957   7.242   8.550
 4985POPC   C2B23912   9.976   7.220   8.250
 4985POPC   C3B23913   9.886   7.226   7.950
 4985POPC   C4B23914   9.969   7.233   7.650
 4986POPC   NC323915  43.880  15.946   9.450
 4986POPC   PO423916  43.858  15.995   9.150
 4986POPC   GL123917  43.899  15.970   8.850
 4986POPC   GL223918  43.817  15.845   8.850
 4986POPC   C1A23919  43.920  15.998   8.550
 4986POPC   D2A23920  43.875  15.989   8.250
 4986POPC   C3A23921  43.893  15.978   7.950
 4986POPC   C4A23922  43.890  15.966   7.650
 4986POPC   C1B23923  43.812  15.729   8.550
 4986POPC   C2B23924  43.804  15.733   8.250
 4986POPC   C3B23925  43.788  15.680   7.950
 4986POPC   C4B23926  43.833  15.675   7.650
 4987POPC   NC323927   3.586   8.959   9.450
 4987POPC   PO423928   3.590   8.970   9.150
 4987POPC   GL123929   3.497   8.959   8.850
 4987POPC   GL223930   3.418   9.083   8.850
 4987POPC   C1A23931   3.512   8.925   8.550
 4987POPC   D2A23932   3.527   9.010   8.250
 4987POPC   C3A23933   3.511   9.022   7.950
 4987POPC   C4A23934   3.565   9.007   7.650
 4987POPC   C1B23935   3.391   9.090   8.550
 4987POPC   C2B23936   3.336   9.093   8.250
 4987POPC   C3B23937   3.314   9.161   7.950
 4987POPC   C4B23938   3.355   9.114   7.650
 4988POPC   NC323939   5.123  40.791   9.450
 4988POPC   PO423940   5.135  40.793   9.150
 4988POPC   GL123941   5.118  40.752   8.850
 4988POPC   GL223942   5.045  40.942   8.850
 4988POPC   C1A23943   5.067  40.736   8.550
 4988POPC   D2A23944   5.071  40.756   8.250
 4988POPC   C3A23945   5.074  40.802   7.950
 4988POPC   C4A23946   5.054  40.820   7.650
 4988POPC   C1B23947   5.079  41.048   8.550
 4988POPC   C2B23948   5.081  41.015   8.250
 4988POPC   C3B23949   5.015  40.996   7.950
 4988POPC   C4B23950   5.013  41.009   7.650
 4989POPC   NC323951  33.818  42.339   9.450
 4989POPC   PO423952  33.843  42.303   9.150
 4989POPC   GL123953  33.820  42.355   8.850
 4989POPC   GL223954  33.643  42.361   8.850
 4989POPC   C1A23955  33.786  42.338   8.550
 4989POPC   D2A23956  33.758  42.375   8.250
 4989POPC   C3A23957  33.774  42.290   7.950
 4989POPC   C4A23958  33.770  42.356   7.650
 4989POPC   C1B23959  33.563  42.328   8.550
 4989POPC   C2B23960  33.502  42.374   8.250
 4989POPC   C3B23961  33.511  42.376   7.950
 4989POPC   C4B23962  33.520  42.363   7.650
 4990POPC   NC323963   2.783  22.212   9.450
 4990POPC   PO423964   2.733  22.144   9.150
 4990POPC   GL123965   2.746  22.117   8.850
 4990POPC   GL223966   2.798  22.289   8.850
 4990POPC   C1A23967   2.803  22.132   8.550
 4990POPC   D2A23968   2.723  22.152   8.250
 4990POPC   C3A23969   2.740  22.160   7.950
 4990POPC   C4A23970   2.814  22.155   7.650
 4990POPC   C1B23971   2.881  22.350   8.550
 4990POPC   C2B23972   2.914  22.364   8.250
 4990POPC   C3B23973   2.930  22.370   7.950
 4990POPC   C4B23974   2.974  22.321   7.650
 4991POPC   NC323975  44.676  44.659   9.450
 4991POPC   PO423976  44.620  44.656   9.150
 4991POPC   GL123977  44.660  44.660   8.850
 4991POPC   GL223978  44.585  44.549   8.850
 4991POPC   C1A23979  44.687  44.617   8.550
 4991POPC   D2A23980  44.638  44.709   8.250
 4991POPC   C3A23981  44.653  44.623   7.950
 4991POPC   C4A23982  44.641  44.614   7.650
 4991POPC   C1B23983  44.499  44.500   8.550
 4991POPC   C2B23984  44.508  44.480   8.250
 4991POPC   C3B23985  44.479  44.480   7.950
 4991POPC   C4B23986  44.561  44.438   7.650
 4992POPC   NC323987  38.423  14.378   9.450
 4992POPC   PO423988  38.430  14.423   9.150
 4992POPC   GL123989  38.492  14.420   8.850
 4992POPC   GL223990  38.403  14.318   8.850
 4992POPC   C1A23991  38.425  14.382   8.550
 4992POPC   D2A23992  38.446  14.409   8.250
 4992POPC   C3A23993  38.491  14.406   7.950
 4992POPC   C4A23994  38.420  14.398   7.650
 4992POPC   C1B23995  38.441  14.173   8.550
 4992POPC   C2B23996  38.473  14.191   8.250
 4992POPC   C3B23997  38.434  14.149   7.950
 4992POPC   C4B23998  38.388  14.141   7.650
 4993POPC   NC323999  31.488  12.808   9.450
 4993POPC   PO424000  31.514  12.808   9.150
 4993POPC   GL124001  31.439  12.896   8.850
 4993POPC   GL224002  31.341  12.886   8.850
 4993POPC   C1A24003  31.498  12.886   8.550
 4993POPC   D2A24004  31.522  12.887   8.250
 4993POPC   C3A24005  31.496  12.804   7.950
 4993POPC   C4A24006  31.481  12.819   7.650
 4993POPC   C1B24007  31.259  12.826   8.550
 4993POPC   C2B24008  31.182  12.821   8.250
 4993POPC   C3B24009  31.205  12.832   7.950
 4993POPC   C4B24010  31.238  12.818   7.650
 4994POPC   NC324011   1.962   4.271   9.450
 4994POPC   PO424012   2.037   4.354   9.150
 4994POPC   GL124013   1.965   4.297   8.850
 4994POPC   GL224014   1.984   4.165   8.850
 4994POPC   C1A24015   1.946   4.314   8.550
 4994POPC   D2A24016   1.951   4.322   8.250
 4994POPC   C3A24017   1.975   4.346   7.950
 4994POPC   C4A24018   2.024   4.285   7.650
 4994POPC   C1B24019   1.874   4.043   8.550
 4994POPC   C2B24020   1.842   4.134   8.250
 4994POPC   C3B24021   1.896   4.045   7.950
 4994POPC   C4B24022   1.931   4.139   7.650
 4995POPC   NC324023  31.452  30.699   9.450
 4995POPC   PO424024  31.518  30.728   9.150
 4995POPC   GL124025  31.453  30.700   8.850
 4995POPC   GL224026  31.576  30.814   8.850
 4995POPC   C1A24027  31.463  30.669   8.550
 4995POPC   D2A24028  31.447  30.739   8.250
 4995POPC   C3A24029  31.451  30.696   7.950
 4995POPC   C4A24030  31.514  30.695   7.650
 4995POPC   C1B24031  31.640  30.856   8.550
 4995POPC   C2B24032  31.669  30.867   8.250
 4995POPC   C3B24033  31.729  30.868   7.950
 4995POPC   C4B24034  31.707  30.875   7.650
 4996POPC   NC324035  33.848  19.030   9.450
 4996POPC   PO424036  33.789  19.031   9.150
 4996POPC   GL124037  33.784  19.098   8.850
 4996POPC   GL224038  33.679  19.088   8.850
 4996POPC   C1A24039  33.810  19.023   8.550
 4996POPC   D2A24040  33.800  19.108   8.250
 4996POPC   C3A24041  33.839  19.066   7.950
 4996POPC   C4A24042  33.836  19.080   7.650
 4996POPC   C1B24043  33.572  19.180   8.550
 4996POPC   C2B24044  33.556  19.092   8.250
 4996POPC   C3B24045  33.610  19.101   7.950
 4996POPC   C4B24046  33.557  19.110   7.650
 4997POPC   NC324047  31.470   2.762   9.450
 4997POPC   PO424048  31.437   2.763   9.150
 4997POPC   GL124049  31.520   2.772   8.850
 4997POPC   GL224050  31.474   2.671   8.850
 4997POPC   C1A24051  31.444   2.812   8.550
 4997POPC   D2A24052  31.427   2.743   8.250
 4997POPC   C3A24053  31.449   2.748   7.950
 4997POPC   C4A24054  31.433   2.717   7.650
 4997POPC   C1B24055  31.476   2.525   8.550
 4997POPC   C2B24056  31.542   2.485   8.250
 4997POPC   C3B24057  31.476   2.499   7.950
 4997POPC   C4B24058  31.526   2.529   7.650
 4998POPC   NC324059  37.711  30.661   9.450
 4998POPC   PO424060  37.631  30.672   9.150
 4998POPC   GL124061  37.729  30.743   8.850
 4998POPC   GL224062  37.657  30.569   8.850
 4998POPC   C1A24063  37.688  30.723   8.550
 4998POPC   D2A24064  37.716  30.712   8.250
 4998POPC   C3A24065  37.709  30.663   7.950
 4998POPC   C4A24066  37.695  30.715   7.650
 4998POPC   C1B24067  37.726  30.476   8.550
 4998POPC   C2B24068  37.705  30.489   8.250
 4998POPC   C3B24069  37.682  30.459   7.950
 4998POPC   C4B24070  37.722  30.488   7.650
 4999POPC   NC324071  12.850   2.727   9.450
 4999POPC   PO424072  12.815   2.717   9.150
 4999POPC   GL124073  12.878   2.725   8.850
 4999POPC   GL224074  12.804   2.716   8.850
 4999POPC   C1A24075  12.855   2.805   8.550
 4999POPC   D2A24076  12.868   2.760   8.250
 4999POPC   C3A24077  12.858   2.730   7.950
 4999POPC   C4A24078  12.877   2.736   7.650
 4999POPC   C1B24079  12.691   2.613   8.550
 4999POPC   C2B24080  12.628   2.609   8.250
 4999POPC   C3B24081  12.696   2.555   7.950
 4999POPC   C4B24082  12.635   2.600   7.650
 5000POPC   NC324083  12.038  16.690   9.450
 5000POPC   PO424084  12.043  16.713   9.150
 5000POPC   GL124085  12.091  16.769   8.850
 5000POPC   GL224086  12.054  16.883   8.850
 5000POPC   C1A24087  12.087  16.780   8.550
 5000POPC   D2A24088  12.075  16.781   8.250
 5000POPC   C3A24089  12.040  16.769   7.950
 5000POPC   C4A24090  12.110  16.758   7.650
 5000POPC   C1B24091  11.966  16.995   8.550
 5000POPC   C2B24092  11.974  16.953   8.250
 5000POPC   C3B24093  11.938  16.958   7.950
 5000POPC   C4B24094  11.994  16.967   7.650
 5001POPC   NC324095  36.081  25.246   9.450
 5001POPC   PO424096  36.131  25.241   9.150
 5001POPC   GL124097  36.124  25.229   8.850
 5001POPC   GL224098  36.145  25.111   8.850
 5001POPC   C1A24099  36.134  25.277   8.550
 5001POPC   D2A24100  36.078  25.227   8.250
 5001POPC   C3A24101  36.126  25.278   7.950
 5001POPC   C4A24102  36.103  25.243   7.650
 5001POPC   C1B24103  36.189  24.986   8.550
 5001POPC   C2B24104  36.105  25.028   8.250
 5001POPC   C3B24105  36.130  25.063   7.950
 5001POPC   C4B24106  36.170  25.024   7.650
 5002POPC   NC324107   1.215   5.076   9.450
 5002POPC   PO424108   1.213   5.052   9.150
 5002POPC   GL124109   1.252   5.072   8.850
 5002POPC   GL224110   1.332   5.212   8.850
 5002POPC   C1A24111   1.220   5.049   8.550
 5002POPC   D2A24112   1.188   5.124   8.250
 5002POPC   C3A24113   1.215   5.083   7.950
 5002POPC   C4A24114   1.189   5.046   7.650
 5002POPC   C1B24115   1.391   5.219   8.550
 5002POPC   C2B24116   1.426   5.288   8.250
 5002POPC   C3B24117   1.403   5.212   7.950
 5002POPC   C4B24118   1.430   5.198   7.650
 5003POPC   NC324119  42.347  22.200   9.450
 5003POPC   PO424120  42.342  22.118   9.150
 5003POPC   GL124121  42.348  22.135   8.850
 5003POPC   GL224122  42.423  22.243   8.850
 5003POPC   C1A24123  42.373  22.142   8.550
 5003POPC   D2A24124  42.321  22.117   8.250
 5003POPC   C3A24125  42.363  22.133   7.950
 5003POPC   C4A24126  42.304  22.125   7.650
 5003POPC   C1B24127  42.472  22.365   8.550
 5003POPC   C2B24128  42.532  22.410   8.250
 5003POPC   C3B24129  42.435  22.359   7.950
 5003POPC   C4B24130  42.436  22.329   7.650
 5004POPC   NC324131   2.800  20.613   9.450
 5004POPC   PO424132   2.781  20.645   9.150
 5004POPC   GL124133   2.787  20.595   8.850
 5004POPC   GL224134   2.874  20.673   8.850
 5004POPC   C1A24135   2.717  20.654   8.550
 5004POPC   D2A24136   2.797  20.572   8.250
 5004POPC   C3A24137   2.792  20.657   7.950
 5004POPC   C4A24138   2.757  20.574   7.650
 5004POPC   C1B24139   3.046  20.687   8.550
 5004POPC   C2B24140   3.046  20.677   8.250
 5004POPC   C3B24141   3.003  20.588   7.950
 5004POPC   C4B24142   2.996  20.685   7.650
 5005POPC   NC324143  29.897   8.975   9.450
 5005POPC   PO424144  29.936   9.009   9.150
 5005POPC   GL124145  29.957   8.932   8.850
 5005POPC   GL224146  29.943   8.839   8.850
 5005POPC   C1A24147  29.962   9.004   8.550
 5005POPC   D2A24148  29.910   8.968   8.250
 5005POPC   C3A24149  29.916   8.948   7.950
 5005POPC   C4A24150  29.910   9.000   7.650
 5005POPC   C1B24151  30.033   8.793   8.550
 5005POPC   C2B24152  29.992   8.705   8.250
 5005POPC   C3B24153  30.007   8.794   7.950
 5005POPC   C4B24154  30.011   8.745   7.650
 5006POPC   NC324155  30.696  32.253   9.450
 5006POPC   PO424156  30.717  32.224   9.150
 5006POPC   GL124157  30.699  32.240   8.850
 5006POPC   GL224158  30.777  32.183   8.850
 5006POPC   C1A24159  30.706  32.298   8.550
 5006POPC   D2A24160  30.702  32.290   8.250
 5006POPC   C3A24161  30.702  32.281   7.950
 5006POPC   C4A24162  30.715  32.288   7.650
 5006POPC   C1B24163  30.842  31.997   8.550
 5006POPC   C2B24164  30.824  32.086   8.250
 5006POPC   C3B24165  30.849  32.057   7.950
 5006POPC   C4B24166  30.808  32.004   7.650
 5007POPC   NC324167  41.584   7.430   9.450
 5007POPC   PO424168  41.579   7.423   9.150
 5007POPC   GL124169  41.545   7.403   8.850
 5007POPC   GL224170  41.666   7.312   8.850
 5007POPC   C1A24171  41.604   7.449   8.550
 5007POPC   D2A24172  41.601   7.460   8.250
 5007POPC   C3A24173  41.554   7.468   7.950
 5007POPC   C4A24174  41.512   7.389   7.650
 5007POPC   C1B24175  41.720   7.226   8.550
 5007POPC   C2B24176  41.713   7.175   8.250
 5007POPC   C3B24177  41.696   7.247   7.950
 5007POPC   C4B24178  41.656   7.177   7.650
 5008POPC   NC324179   8.171  35.340   9.450
 5008POPC   PO424180   8.164  35.400   9.150
 5008POPC   GL124181   8.153  35.384   8.850
 5008POPC   GL224182   8.320  35.369   8.850
 5008POPC   C1A24183   8.185  35.314   8.550
 5008POPC   D2A24184   8.227  35.314   8.250
 5008POPC   C3A24185   8.194  35.373   7.950
 5008POPC   C4A24186   8.198  35.354   7.650
 5008POPC   C1B24187   8.402  35.320   8.550
 5008POPC   C2B24188   8.423  35.288   8.250
 5008POPC   C3B24189   8.455  35.293   7.950
 5008POPC   C4B24190   8.442  35.315   7.650
 5009POPC   NC324191  27.572  22.168   9.450
 5009POPC   PO424192  27.560  22.200   9.150
 5009POPC   GL124193  27.626  22.192   8.850
 5009POPC   GL224194  27.547  22.257   8.850
 5009POPC   C1A24195  27.623  22.164   8.550
 5009POPC   D2A24196  27.552  22.173   8.250
 5009POPC   C3A24197  27.638  22.131   7.950
 5009POPC   C4A24198  27.594  22.175   7.650
 5009POPC   C1B24199  27.467  22.376   8.550
 5009POPC   C2B24200  27.377  22.307   8.250
 5009POPC   C3B24201  27.467  22.312   7.950
 5009POPC   C4B24202  27.468  22.395   7.650
 5010POPC   NC324203   8.998  41.566   9.450
 5010POPC   PO424204   8.983  41.573   9.150
 5010POPC   GL124205   8.972  41.521   8.850
 5010POPC   GL224206   9.087  41.597   8.850
 5010POPC   C1A24207   9.019  41.526   8.550
 5010POPC   D2A24208   9.005  41.566   8.250
 5010POPC   C3A24209   8.937  41.562   7.950
 5010POPC   C4A24210   8.923  41.599   7.650
 5010POPC   C1B24211   9.212  41.716   8.550
 5010POPC   C2B24212   9.114  41.703   8.250
 5010POPC   C3B24213   9.145  41.673   7.950
 5010POPC   C4B24214   9.120  41.713   7.650
 5011POPC   NC324215  38.504  44.659   9.450
 5011POPC   PO424216  38.453  44.672   9.150
 5011POPC   GL124217  38.470  44.645   8.850
 5011POPC   GL224218  38.288  44.592   8.850
 5011POPC   C1A24219  38.414  44.687   8.550
 5011POPC   D2A24220  38.474  44.627   8.250
 5011POPC   C3A24221  38.419  44.633   7.950
 5011POPC   C4A24222  38.472  44.623   7.650
 5011POPC   C1B24223  38.182  44.649   8.550
 5011POPC   C2B24224  38.205  44.561   8.250
 5011POPC   C3B24225  38.164  44.623   7.950
 5011POPC   C4B24226  38.171  44.625   7.650
 5012POPC   NC324227  18.298  40.045   9.450
 5012POPC   PO424228  18.298  40.025   9.150
 5012POPC   GL124229  18.294  39.989   8.850
 5012POPC   GL224230  18.311  39.882   8.850
 5012POPC   C1A24231  18.296  39.959   8.550
 5012POPC   D2A24232  18.293  40.029   8.250
 5012POPC   C3A24233  18.297  39.974   7.950
 5012POPC   C4A24234  18.330  40.049   7.650
 5012POPC   C1B24235  18.217  39.787   8.550
 5012POPC   C2B24236  18.234  39.754   8.250
 5012POPC   C3B24237  18.263  39.775   7.950
 5012POPC   C4B24238  18.249  39.804   7.650
 5013POPC   NC324239  26.022  31.484   9.450
 5013POPC   PO424240  26.051  31.425   9.150
 5013POPC   GL124241  26.076  31.488   8.850
 5013POPC   GL224242  26.159  31.515   8.850
 5013POPC   C1A24243  25.992  31.463   8.550
 5013POPC   D2A24244  26.036  31.441   8.250
 5013POPC   C3A24245  26.056  31.427   7.950
 5013POPC   C4A24246  26.050  31.460   7.650
 5013POPC   C1B24247  26.302  31.555   8.550
 5013POPC   C2B24248  26.278  31.534   8.250
 5013POPC   C3B24249  26.280  31.496   7.950
 5013POPC   C4B24250  26.267  31.494   7.650
 5014POPC   NC324251  37.692  43.866   9.450
 5014POPC   PO424252  37.718  43.853   9.150
 5014POPC   GL124253  37.669  43.883   8.850
 5014POPC   GL224254  37.629  43.945   8.850
 5014POPC   C1A24255  37.665  43.926   8.550
 5014POPC   D2A24256  37.667  43.920   8.250
 5014POPC   C3A24257  37.719  43.899   7.950
 5014POPC   C4A24258  37.720  43.916   7.650
 5014POPC   C1B24259  37.497  44.027   8.550
 5014POPC   C2B24260  37.464  44.114   8.250
 5014POPC   C3B24261  37.499  44.054   7.950
 5014POPC   C4B24262  37.530  44.063   7.650
 5015POPC   NC324263   5.095  42.314   9.450
 5015POPC   PO424264   5.105  42.346   9.150
 5015POPC   GL124265   5.057  42.324   8.850
 5015POPC   GL224266   5.060  42.173   8.850
 5015POPC   C1A24267   5.067  42.302   8.550
 5015POPC   D2A24268   5.067  42.330   8.250
 5015POPC   C3A24269   5.095  42.339   7.950
 5015POPC   C4A24270   5.131  42.368   7.650
 5015POPC   C1B24271   5.039  42.143   8.550
 5015POPC   C2B24272   5.007  42.121   8.250
 5015POPC   C3B24273   4.994  42.102   7.950
 5015POPC   C4B24274   5.046  42.067   7.650
 5016POPC   NC324275  25.313  22.902   9.450
 5016POPC   PO424276  25.287  22.970   9.150
 5016POPC   GL124277  25.275  22.945   8.850
 5016POPC   GL224278  25.228  23.042   8.850
 5016POPC   C1A24279  25.227  22.936   8.550
 5016POPC   D2A24280  25.230  22.962   8.250
 5016POPC   C3A24281  25.313  22.903   7.950
 5016POPC   C4A24282  25.288  22.929   7.650
 5016POPC   C1B24283  25.192  23.214   8.550
 5016POPC   C2B24284  25.234  23.140   8.250
 5016POPC   C3B24285  25.192  23.222   7.950
 5016POPC   C4B24286  25.228  23.162   7.650
 5017POPC   NC324287  27.555  28.415   9.450
 5017POPC   PO424288  27.592  28.410   9.150
 5017POPC   GL124289  27.587  28.386   8.850
 5017POPC   GL224290  27.678  28.373   8.850
 5017POPC   C1A24291  27.597  28.410   8.550
 5017POPC   D2A24292  27.584  28.337   8.250
 5017POPC   C3A24293  27.613  28.353   7.950
 5017POPC   C4A24294  27.559  28.352   7.650
 5017POPC   C1B24295  27.857  28.434   8.550
 5017POPC   C2B24296  27.838  28.473   8.250
 5017POPC   C3B24297  27.870  28.411   7.950
 5017POPC   C4B24298  27.845  28.478   7.650
 5018POPC   NC324299  43.087  29.933   9.450
 5018POPC   PO424300  43.139  29.901   9.150
 5018POPC   GL124301  43.099  29.902   8.850
 5018POPC   GL224302  43.220  29.984   8.850
 5018POPC   C1A24303  43.118  29.902   8.550
 5018POPC   D2A24304  43.080  29.959   8.250
 5018POPC   C3A24305  43.152  29.970   7.950
 5018POPC   C4A24306  43.088  29.930   7.650
 5018POPC   C1B24307  43.386  29.988   8.550
 5018POPC   C2B24308  43.339  30.005   8.250
 5018POPC   C3B24309  43.311  29.928   7.950
 5018POPC   C4B24310  43.317  29.949   7.650
 5019POPC   NC324311  15.159  18.276   9.450
 5019POPC   PO424312  15.213  18.302   9.150
 5019POPC   GL124313  15.152  18.256   8.850
 5019POPC   GL224314  15.315  18.395   8.850
 5019POPC   C1A24315  15.146  18.326   8.550
 5019POPC   D2A24316  15.186  18.325   8.250
 5019POPC   C3A24317  15.130  18.325   7.950
 5019POPC   C4A24318  15.167  18.240   7.650
 5019POPC   C1B24319  15.319  18.494   8.550
 5019POPC   C2B24320  15.335  18.475   8.250
 5019POPC   C3B24321  15.355  18.425   7.950
 5019POPC   C4B24322  15.323  18.419   7.650
 5020POPC   NC324323  17.521   6.600   9.450
 5020POPC   PO424324  17.487   6.607   9.150
 5020POPC   GL124325  17.481   6.603   8.850
 5020POPC   GL224326  17.425   6.557   8.850
 5020POPC   C1A24327  17.523   6.664   8.550
 5020POPC   D2A24328  17.517   6.680   8.250
 5020POPC   C3A24329  17.473   6.639   7.950
 5020POPC   C4A24330  17.501   6.686   7.650
 5020POPC   C1B24331  17.356   6.470   8.550
 5020POPC   C2B24332  17.332   6.411   8.250
 5020POPC   C3B24333  17.384   6.389   7.950
 5020POPC   C4B24334  17.349   6.412   7.650
 5021POPC   NC324335  19.841  34.595   9.450
 5021POPC   PO424336  19.824  34.577   9.150
 5021POPC   GL124337  19.854  34.597   8.850
 5021POPC   GL224338  19.708  34.458   8.850
 5021POPC   C1A24339  19.815  34.597   8.550
 5021POPC   D2A24340  19.870  34.618   8.250
 5021POPC   C3A24341  19.790  34.545   7.950
 5021POPC   C4A24342  19.856  34.531   7.650
 5021POPC   C1B24343  19.598  34.407   8.550
 5021POPC   C2B24344  19.614  34.442   8.250
 5021POPC   C3B24345  19.650  34.388   7.950
 5021POPC   C4B24346  19.659  34.459   7.650
 5022POPC   NC324347   0.419  42.381   9.450
 5022POPC   PO424348   0.405  42.315   9.150
 5022POPC   GL124349   0.430  42.316   8.850
 5022POPC   GL224350   0.400  42.203   8.850
 5022POPC   C1A24351   0.470  42.290   8.550
 5022POPC   D2A24352   0.400  42.373   8.250
 5022POPC   C3A24353   0.392  42.353   7.950
 5022POPC   C4A24354   0.430  42.343   7.650
 5022POPC   C1B24355   0.376  42.048   8.550
 5022POPC   C2B24356   0.400  42.140   8.250
 5022POPC   C3B24357   0.399  42.091   7.950
 5022POPC   C4B24358   0.390  42.080   7.650
 5023POPC   NC324359  41.589  31.482   9.450
 5023POPC   PO424360  41.609  31.429   9.150
 5023POPC   GL124361  41.567  31.460   8.850
 5023POPC   GL224362  41.606  31.350   8.850
 5023POPC   C1A24363  41.592  31.438   8.550
 5023POPC   D2A24364  41.543  31.495   8.250
 5023POPC   C3A24365  41.544  31.426   7.950
 5023POPC   C4A24366  41.576  31.499   7.650
 5023POPC   C1B24367  41.587  31.259   8.550
 5023POPC   C2B24368  41.610  31.221   8.250
 5023POPC   C3B24369  41.615  31.191   7.950
 5023POPC   C4B24370  41.547  31.271   7.650
 5024POPC   NC324371  29.137  40.002   9.450
 5024POPC   PO424372  29.174  39.972   9.150
 5024POPC   GL124373  29.152  39.981   8.850
 5024POPC   GL224374  29.042  39.998   8.850
 5024POPC   C1A24375  29.139  40.006   8.550
 5024POPC   D2A24376  29.129  39.992   8.250
 5024POPC   C3A24377  29.175  40.012   7.950
 5024POPC   C4A24378  29.121  39.972   7.650
 5024POPC   C1B24379  28.897  39.993   8.550
 5024POPC   C2B24380  28.916  39.995   8.250
 5024POPC   C3B24381  28.941  40.038   7.950
 5024POPC   C4B24382  28.855  40.016   7.650
 5025POPC   NC324383  31.516  26.845   9.450
 5025POPC   PO424384  31.446  26.811   9.150
 5025POPC   GL124385  31.433  26.800   8.850
 5025POPC   GL224386  31.475  26.731   8.850
 5025POPC   C1A24387  31.439  26.772   8.550
 5025POPC   D2A24388  31.474  26.777   8.250
 5025POPC   C3A24389  31.472  26.830   7.950
 5025POPC   C4A24390  31.513  26.828   7.650
 5025POPC   C1B24391  31.444  26.521   8.550
 5025POPC   C2B24392  31.453  26.527   8.250
 5025POPC   C3B24393  31.462  26.590   7.950
 5025POPC   C4B24394  31.422  26.524   7.650
 5026POPC   NC324395  43.874  16.683   9.450
 5026POPC   PO424396  43.854  16.734   9.150
 5026POPC   GL124397  43.917  16.735   8.850
 5026POPC   GL224398  43.739  16.839   8.850
 5026POPC   C1A24399  43.935  16.765   8.550
 5026POPC   D2A24400  43.885  16.780   8.250
 5026POPC   C3A24401  43.892  16.733   7.950
 5026POPC   C4A24402  43.917  16.779   7.650
 5026POPC   C1B24403  43.684  16.839   8.550
 5026POPC   C2B24404  43.654  16.877   8.250
 5026POPC   C3B24405  43.660  16.832   7.950
 5026POPC   C4B24406  43.706  16.882   7.650
 5027POPC   NC324407  32.286  14.364   9.450
 5027POPC   PO424408  32.283  14.421   9.150
 5027POPC   GL124409  32.255  14.413   8.850
 5027POPC   GL224410  32.216  14.534   8.850
 5027POPC   C1A24411  32.277  14.418   8.550
 5027POPC   D2A24412  32.255  14.424   8.250
 5027POPC   C3A24413  32.231  14.397   7.950
 5027POPC   C4A24414  32.296  14.364   7.650
 5027POPC   C1B24415  32.186  14.650   8.550
 5027POPC   C2B24416  32.246  14.678   8.250
 5027POPC   C3B24417  32.190  14.673   7.950
 5027POPC   C4B24418  32.213  14.658   7.650
 5028POPC   NC324419  30.677  22.193   9.450
 5028POPC   PO424420  30.726  22.135   9.150
 5028POPC   GL124421  30.722  22.177   8.850
 5028POPC   GL224422  30.749  22.098   8.850
 5028POPC   C1A24423  30.719  22.153   8.550
 5028POPC   D2A24424  30.709  22.142   8.250
 5028POPC   C3A24425  30.654  22.120   7.950
 5028POPC   C4A24426  30.686  22.179   7.650
 5028POPC   C1B24427  30.783  22.000   8.550
 5028POPC   C2B24428  30.784  21.930   8.250
 5028POPC   C3B24429  30.876  21.907   7.950
 5028POPC   C4B24430  30.868  21.963   7.650
 5029POPC   NC324431   3.530  33.036   9.450
 5029POPC   PO424432   3.512  33.008   9.150
 5029POPC   GL124433   3.570  33.048   8.850
 5029POPC   GL224434   3.622  33.154   8.850
 5029POPC   C1A24435   3.494  33.036   8.550
 5029POPC   D2A24436   3.581  33.025   8.250
 5029POPC   C3A24437   3.502  33.059   7.950
 5029POPC   C4A24438   3.556  32.990   7.650
 5029POPC   C1B24439   3.637  33.221   8.550
 5029POPC   C2B24440   3.601  33.284   8.250
 5029POPC   C3B24441   3.684  33.262   7.950
 5029POPC   C4B24442   3.643  33.207   7.650
 5030POPC   NC324443  11.326  43.917   9.450
 5030POPC   PO424444  11.332  43.864   9.150
 5030POPC   GL124445  11.305  43.901   8.850
 5030POPC   GL224446  11.248  44.010   8.850
 5030POPC   C1A24447  11.274  43.880   8.550
 5030POPC   D2A24448  11.342  43.840   8.250
 5030POPC   C3A24449  11.276  43.916   7.950
 5030POPC   C4A24450  11.299  43.915   7.650
 5030POPC   C1B24451  11.166  44.138   8.550
 5030POPC   C2B24452  11.146  44.106   8.250
 5030POPC   C3B24453  11.203  44.126   7.950
 5030POPC   C4B24454  11.148  44.087   7.650
 5031POPC   NC324455  10.486   4.273   9.450
 5031POPC   PO424456  10.475   4.343   9.150
 5031POPC   GL124457  10.526   4.299   8.850
 5031POPC   GL224458  10.606   4.472   8.850
 5031POPC   C1A24459  10.510   4.306   8.550
 5031POPC   D2A24460  10.550   4.325   8.250
 5031POPC   C3A24461  10.491   4.314   7.950
 5031POPC   C4A24462  10.488   4.319   7.650
 5031POPC   C1B24463  10.573   4.570   8.550
 5031POPC   C2B24464  10.570   4.570   8.250
 5031POPC   C3B24465  10.544   4.607   7.950
 5031POPC   C4B24466  10.603   4.601   7.650
 5032POPC   NC324467  22.188   5.856   9.450
 5032POPC   PO424468  22.139   5.873   9.150
 5032POPC   GL124469  22.181   5.907   8.850
 5032POPC   GL224470  22.021   5.810   8.850
 5032POPC   C1A24471  22.120   5.846   8.550
 5032POPC   D2A24472  22.210   5.895   8.250
 5032POPC   C3A24473  22.137   5.865   7.950
 5032POPC   C4A24474  22.170   5.878   7.650
 5032POPC   C1B24475  21.866   5.800   8.550
 5032POPC   C2B24476  21.942   5.820   8.250
 5032POPC   C3B24477  21.869   5.796   7.950
 5032POPC   C4B24478  21.915   5.777   7.650
 5033POPC   NC324479  37.689  40.053   9.450
 5033POPC   PO424480  37.709  39.987   9.150
 5033POPC   GL124481  37.653  39.990   8.850
 5033POPC   GL224482  37.628  39.858   8.850
 5033POPC   C1A24483  37.634  40.025   8.550
 5033POPC   D2A24484  37.638  40.033   8.250
 5033POPC   C3A24485  37.643  40.035   7.950
 5033POPC   C4A24486  37.642  39.960   7.650
 5033POPC   C1B24487  37.579  39.824   8.550
 5033POPC   C2B24488  37.575  39.798   8.250
 5033POPC   C3B24489  37.526  39.835   7.950
 5033POPC   C4B24490  37.534  39.791   7.650
 5034POPC   NC324491  17.549  25.273   9.450
 5034POPC   PO424492  17.462  25.269   9.150
 5034POPC   GL124493  17.503  25.240   8.850
 5034POPC   GL224494  17.621  25.276   8.850
 5034POPC   C1A24495  17.484  25.233   8.550
 5034POPC   D2A24496  17.490  25.281   8.250
 5034POPC   C3A24497  17.491  25.291   7.950
 5034POPC   C4A24498  17.537  25.276   7.650
 5034POPC   C1B24499  17.717  25.205   8.550
 5034POPC   C2B24500  17.764  25.224   8.250
 5034POPC   C3B24501  17.733  25.207   7.950
 5034POPC   C4B24502  17.765  25.190   7.650
 5035POPC   NC324503  43.843  39.270   9.450
 5035POPC   PO424504  43.900  39.189   9.150
 5035POPC   GL124505  43.844  39.205   8.850
 5035POPC   GL224506  43.808  39.279   8.850
 5035POPC   C1A24507  43.842  39.224   8.550
 5035POPC   D2A24508  43.908  39.254   8.250
 5035POPC   C3A24509  43.904  39.204   7.950
 5035POPC   C4A24510  43.868  39.193   7.650
 5035POPC   C1B24511  43.671  39.357   8.550
 5035POPC   C2B24512  43.681  39.376   8.250
 5035POPC   C3B24513  43.632  39.305   7.950
 5035POPC   C4B24514  43.633  39.343   7.650
 5036POPC   NC324515  10.519  12.874   9.450
 5036POPC   PO424516  10.513  12.841   9.150
 5036POPC   GL124517  10.521  12.818   8.850
 5036POPC   GL224518  10.525  13.016   8.850
 5036POPC   C1A24519  10.499  12.803   8.550
 5036POPC   D2A24520  10.491  12.896   8.250
 5036POPC   C3A24521  10.485  12.803   7.950
 5036POPC   C4A24522  10.476  12.887   7.650
 5036POPC   C1B24523  10.539  13.123   8.550
 5036POPC   C2B24524  10.495  13.054   8.250
 5036POPC   C3B24525  10.503  13.101   7.950
 5036POPC   C4B24526  10.508  13.130   7.650
 5037POPC   NC324527  32.238  29.925   9.450
 5037POPC   PO424528  32.225  29.959   9.150
 5037POPC   GL124529  32.240  29.931   8.850
 5037POPC   GL224530  32.198  29.992   8.850
 5037POPC   C1A24531  32.237  29.887   8.550
 5037POPC   D2A24532  32.218  29.970   8.250
 5037POPC   C3A24533  32.220  29.887   7.950
 5037POPC   C4A24534  32.219  29.877   7.650
 5037POPC   C1B24535  32.091  30.070   8.550
 5037POPC   C2B24536  32.046  30.072   8.250
 5037POPC   C3B24537  32.122  30.153   7.950
 5037POPC   C4B24538  32.100  30.079   7.650
 5038POPC   NC324539   6.687  41.554   9.450
 5038POPC   PO424540   6.685  41.574   9.150
 5038POPC   GL124541   6.660  41.602   8.850
 5038POPC   GL224542   6.486  41.642   8.850
 5038POPC   C1A24543   6.651  41.579   8.550
 5038POPC   D2A24544   6.615  41.558   8.250
 5038POPC   C3A24545   6.678  41.574   7.950
 5038POPC   C4A24546   6.642  41.600   7.650
 5038POPC   C1B24547   6.390  41.630   8.550
 5038POPC   C2B24548   6.428  41.648   8.250
 5038POPC   C3B24549   6.450  41.623   7.950
 5038POPC   C4B24550   6.394  41.665   7.650
 5039POPC   NC324551  18.253  43.139   9.450
 5039POPC   PO424552  18.320  43.107   9.150
 5039POPC   GL124553  18.236  43.075   8.850
 5039POPC   GL224554  18.411  43.063   8.850
 5039POPC   C1A24555  18.242  43.133   8.550
 5039POPC   D2A24556  18.278  43.085   8.250
 5039POPC   C3A24557  18.305  43.107   7.950
 5039POPC   C4A24558  18.236  43.062   7.650
 5039POPC   C1B24559  18.536  42.935   8.550
 5039POPC   C2B24560  18.452  42.987   8.250
 5039POPC   C3B24561  18.531  42.955   7.950
 5039POPC   C4B24562  18.517  42.957   7.650
 5040POPC   NC324563  24.484   1.944   9.450
 5040POPC   PO424564  24.487   2.007   9.150
 5040POPC   GL124565  24.486   1.969   8.850
 5040POPC   GL224566  24.446   1.871   8.850
 5040POPC   C1A24567  24.511   2.024   8.550
 5040POPC   D2A24568  24.522   1.976   8.250
 5040POPC   C3A24569  24.467   2.015   7.950
 5040POPC   C4A24570  24.447   2.016   7.650
 5040POPC   C1B24571  24.462   1.784   8.550
 5040POPC   C2B24572  24.437   1.752   8.250
 5040POPC   C3B24573  24.397   1.731   7.950
 5040POPC   C4B24574  24.464   1.782   7.650
 5041POPC   NC324575  22.141   9.777   9.450
 5041POPC   PO424576  22.203   9.766   9.150
 5041POPC   GL124577  22.164   9.744   8.850
 5041POPC   GL224578  22.010   9.658   8.850
 5041POPC   C1A24579  22.126   9.715   8.550
 5041POPC   D2A24580  22.149   9.743   8.250
 5041POPC   C3A24581  22.149   9.712   7.950
 5041POPC   C4A24582  22.163   9.723   7.650
 5041POPC   C1B24583  21.987   9.653   8.550
 5041POPC   C2B24584  21.928   9.621   8.250
 5041POPC   C3B24585  21.993   9.603   7.950
 5041POPC   C4B24586  21.944   9.609   7.650
 5042POPC   NC324587  26.019  39.202   9.450
 5042POPC   PO424588  26.061  39.236   9.150
 5042POPC   GL124589  26.071  39.186   8.850
 5042POPC   GL224590  26.072  39.319   8.850
 5042POPC   C1A24591  26.063  39.234   8.550
 5042POPC   D2A24592  26.051  39.267   8.250
 5042POPC   C3A24593  26.032  39.222   7.950
 5042POPC   C4A24594  26.030  39.218   7.650
 5042POPC   C1B24595  26.146  39.485   8.550
 5042POPC   C2B24596  26.122  39.477   8.250
 5042POPC   C3B24597  26.102  39.514   7.950
 5042POPC   C4B24598  26.129  39.453   7.650
 5043POPC   NC324599  12.049  15.138   9.450
 5043POPC   PO424600  12.031  15.209   9.150
 5043POPC   GL124601  12.117  15.211   8.850
 5043POPC   GL224602  12.168  15.237   8.850
 5043POPC   C1A24603  12.052  15.146   8.550
 5043POPC   D2A24604  12.041  15.199   8.250
 5043POPC   C3A24605  12.028  15.225   7.950
 5043POPC   C4A24606  12.054  15.147   7.650
 5043POPC   C1B24607  12.304  15.353   8.550
 5043POPC   C2B24608  12.270  15.350   8.250
 5043POPC   C3B24609  12.243  15.346   7.950
 5043POPC   C4B24610  12.307  15.379   7.650
 5044POPC   NC324611  33.796   5.897   9.450
 5044POPC   PO424612  33.782   5.838   9.150
 5044POPC   GL124613  33.819   5.849   8.850
 5044POPC   GL224614  33.918   5.875   8.850
 5044POPC   C1A24615  33.790   5.863   8.550
 5044POPC   D2A24616  33.780   5.840   8.250
 5044POPC   C3A24617  33.788   5.898   7.950
 5044POPC   C4A24618  33.778   5.872   7.650
 5044POPC   C1B24619  34.041   5.877   8.550
 5044POPC   C2B24620  34.006   5.925   8.250
 5044POPC   C3B24621  34.075   5.885   7.950
 5044POPC   C4B24622  34.039   5.888   7.650
 5045POPC   NC324623   2.029  19.039   9.450
 5045POPC   PO424624   1.994  19.011   9.150
 5045POPC   GL124625   1.993  19.049   8.850
 5045POPC   GL224626   2.083  18.996   8.850
 5045POPC   C1A24627   2.025  19.049   8.550
 5045POPC   D2A24628   1.975  19.050   8.250
 5045POPC   C3A24629   2.035  19.086   7.950
 5045POPC   C4A24630   1.963  19.044   7.650
 5045POPC   C1B24631   2.234  18.965   8.550
 5045POPC   C2B24632   2.248  18.945   8.250
 5045POPC   C3B24633   2.221  18.980   7.950
 5045POPC   C4B24634   2.228  19.017   7.650
 5046POPC   NC324635  44.628  38.488   9.450
 5046POPC   PO424636  44.617  38.414   9.150
 5046POPC   GL124637  44.681  38.439   8.850
 5046POPC   GL224638  44.590  38.359   8.850
 5046POPC   C1A24639  44.663  38.409   8.550
 5046POPC   D2A24640  44.695  38.474   8.250
 5046POPC   C3A24641  44.694  38.485   7.950
 5046POPC   C4A24642  44.696  38.482   7.650
 5046POPC   C1B24643  44.418  38.354   8.550
 5046POPC   C2B24644  44.426  38.259   8.250
 5046POPC   C3B24645  44.463  38.332   7.950
 5046POPC   C4B24646  44.458  38.280   7.650
 5047POPC   NC324647  33.029  20.575   9.450
 5047POPC   PO424648  32.978  20.593   9.150
 5047POPC   GL124649  32.993  20.637   8.850
 5047POPC   GL224650  32.930  20.639   8.850
 5047POPC   C1A24651  32.987  20.573   8.550
 5047POPC   D2A24652  33.062  20.599   8.250
 5047POPC   C3A24653  33.057  20.635   7.950
 5047POPC   C4A24654  33.030  20.644   7.650
 5047POPC   C1B24655  32.734  20.625   8.550
 5047POPC   C2B24656  32.782  20.661   8.250
 5047POPC   C3B24657  32.789  20.695   7.950
 5047POPC   C4B24658  32.736  20.666   7.650
 5048POPC   NC324659  39.964  19.852   9.450
 5048POPC   PO424660  39.966  19.815   9.150
 5048POPC   GL124661  40.015  19.789   8.850
 5048POPC   GL224662  40.101  19.769   8.850
 5048POPC   C1A24663  40.020  19.841   8.550
 5048POPC   D2A24664  39.959  19.858   8.250
 5048POPC   C3A24665  39.977  19.824   7.950
 5048POPC   C4A24666  40.020  19.840   7.650
 5048POPC   C1B24667  40.161  19.676   8.550
 5048POPC   C2B24668  40.190  19.694   8.250
 5048POPC   C3B24669  40.245  19.652   7.950
 5048POPC   C4B24670  40.166  19.701   7.650
 5049POPC   NC324671  30.685  26.798   9.450
 5049POPC   PO424672  30.651  26.831   9.150
 5049POPC   GL124673  30.688  26.793   8.850
 5049POPC   GL224674  30.785  26.743   8.850
 5049POPC   C1A24675  30.697  26.834   8.550
 5049POPC   D2A24676  30.684  26.821   8.250
 5049POPC   C3A24677  30.735  26.866   7.950
 5049POPC   C4A24678  30.726  26.865   7.650
 5049POPC   C1B24679  30.932  26.702   8.550
 5049POPC   C2B24680  30.870  26.711   8.250
 5049POPC   C3B24681  30.942  26.628   7.950
 5049POPC   C4B24682  30.844  26.708   7.650
 5050POPC   NC324683  38.495  23.741   9.450
 5050POPC   PO424684  38.470  23.750   9.150
 5050POPC   GL124685  38.480  23.690   8.850
 5050POPC   GL224686  38.577  23.722   8.850
 5050POPC   C1A24687  38.504  23.690   8.550
 5050POPC   D2A24688  38.496  23.694   8.250
 5050POPC   C3A24689  38.491  23.726   7.950
 5050POPC   C4A24690  38.498  23.728   7.650
 5050POPC   C1B24691  38.638  23.823   8.550
 5050POPC   C2B24692  38.647  23.872   8.250
 5050POPC   C3B24693  38.651  23.875   7.950
 5050POPC   C4B24694  38.721  23.880   7.650
 5051POPC   NC324695   0.406   4.321   9.450
 5051POPC   PO424696   0.406   4.303   9.150
 5051POPC   GL124697   0.403   4.307   8.850
 5051POPC   GL224698   0.597   4.403   8.850
 5051POPC   C1A24699   0.454   4.295   8.550
 5051POPC   D2A24700   0.427   4.301   8.250
 5051POPC   C3A24701   0.450   4.345   7.950
 5051POPC   C4A24702   0.395   4.359   7.650
 5051POPC   C1B24703   0.609   4.472   8.550
 5051POPC   C2B24704   0.637   4.482   8.250
 5051POPC   C3B24705   0.640   4.399   7.950
 5051POPC   C4B24706   0.661   4.421   7.650
 5052POPC   NC324707  34.623  43.915   9.450
 5052POPC   PO424708  34.579  43.873   9.150
 5052POPC   GL124709  34.531  43.907   8.850
 5052POPC   GL224710  34.481  43.824   8.850
 5052POPC   C1A24711  34.549  43.841   8.550
 5052POPC   D2A24712  34.554  43.880   8.250
 5052POPC   C3A24713  34.582  43.886   7.950
 5052POPC   C4A24714  34.538  43.882   7.650
 5052POPC   C1B24715  34.492  43.672   8.550
 5052POPC   C2B24716  34.482  43.680   8.250
 5052POPC   C3B24717  34.451  43.677   7.950
 5052POPC   C4B24718  34.435  43.673   7.650
 5053POPC   NC324719  39.183  44.692   9.450
 5053POPC   PO424720  39.221  44.697   9.150
 5053POPC   GL124721  39.249  44.646   8.850
 5053POPC   GL224722  39.171  44.545   8.850
 5053POPC   C1A24723  39.227  44.653   8.550
 5053POPC   D2A24724  39.196  44.700   8.250
 5053POPC   C3A24725  39.238  44.621   7.950
 5053POPC   C4A24726  39.245  44.634   7.650
 5053POPC   C1B24727  39.070  44.415   8.550
 5053POPC   C2B24728  39.038  44.442   8.250
 5053POPC   C3B24729  39.074  44.450   7.950
 5053POPC   C4B24730  39.036  44.430   7.650
 5054POPC   NC324731   2.743  13.663   9.450
 5054POPC   PO424732   2.760  13.676   9.150
 5054POPC   GL124733   2.797  13.650   8.850
 5054POPC   GL224734   2.716  13.559   8.850
 5054POPC   C1A24735   2.757  13.649   8.550
 5054POPC   D2A24736   2.719  13.671   8.250
 5054POPC   C3A24737   2.793  13.644   7.950
 5054POPC   C4A24738   2.755  13.660   7.650
 5054POPC   C1B24739   2.680  13.444   8.550
 5054POPC   C2B24740   2.655  13.374   8.250
 5054POPC   C3B24741   2.698  13.408   7.950
 5054POPC   C4B24742   2.628  13.365   7.650
 5055POPC   NC324743  26.054  32.252   9.450
 5055POPC   PO424744  26.064  32.228   9.150
 5055POPC   GL124745  26.030  32.279   8.850
 5055POPC   GL224746  26.134  32.217   8.850
 5055POPC   C1A24747  26.059  32.205   8.550
 5055POPC   D2A24748  26.030  32.295   8.250
 5055POPC   C3A24749  26.074  32.245   7.950
 5055POPC   C4A24750  26.068  32.228   7.650
 5055POPC   C1B24751  26.278  32.053   8.550
 5055POPC   C2B24752  26.203  32.110   8.250
 5055POPC   C3B24753  26.266  32.117   7.950
 5055POPC   C4B24754  26.263  32.103   7.650
 5056POPC   NC324755  27.602  31.510   9.450
 5056POPC   PO424756  27.579  31.455   9.150
 5056POPC   GL124757  27.627  31.516   8.850
 5056POPC   GL224758  27.593  31.371   8.850
 5056POPC   C1A24759  27.554  31.435   8.550
 5056POPC   D2A24760  27.628  31.432   8.250
 5056POPC   C3A24761  27.557  31.499   7.950
 5056POPC   C4A24762  27.599  31.517   7.650
 5056POPC   C1B24763  27.679  31.268   8.550
 5056POPC   C2B24764  27.686  31.252   8.250
 5056POPC   C3B24765  27.703  31.235   7.950
 5056POPC   C4B24766  27.652  31.205   7.650
 5057POPC   NC324767   0.417  44.673   9.450
 5057POPC   PO424768   0.457  44.690   9.150
 5057POPC   GL124769   0.452  44.696   8.850
 5057POPC   GL224770   0.468  44.821   8.850
 5057POPC   C1A24771   0.487  44.662   8.550
 5057POPC   D2A24772   0.417  44.615   8.250
 5057POPC   C3A24773   0.388  44.710   7.950
 5057POPC   C4A24774   0.473  44.660   7.650
 5057POPC   C1B24775   0.516  44.930   8.550
 5057POPC   C2B24776   0.553  44.930   8.250
 5057POPC   C3B24777   0.546  44.893   7.950
 5057POPC   C4B24778   0.570  44.879   7.650
 5058POPC   NC324779  12.123  42.292   9.450
 5058POPC   PO424780  12.044  42.326   9.150
 5058POPC   GL124781  12.085  42.294   8.850
 5058POPC   GL224782  11.942  42.246   8.850
 5058POPC   C1A24783  12.029  42.374   8.550
 5058POPC   D2A24784  12.092  42.377   8.250
 5058POPC   C3A24785  12.112  42.300   7.950
 5058POPC   C4A24786  12.125  42.366   7.650
 5058POPC   C1B24787  11.884  42.199   8.550
 5058POPC   C2B24788  11.839  42.209   8.250
 5058POPC   C3B24789  11.831  42.264   7.950
 5058POPC   C4B24790  11.821  42.205   7.650
 5059POPC   NC324791  32.284   3.563   9.450
 5059POPC   PO424792  32.288   3.581   9.150
 5059POPC   GL124793  32.201   3.505   8.850
 5059POPC   GL224794  32.181   3.469   8.850
 5059POPC   C1A24795  32.280   3.557   8.550
 5059POPC   D2A24796  32.290   3.517   8.250
 5059POPC   C3A24797  32.209   3.561   7.950
 5059POPC   C4A24798  32.256   3.499   7.650
 5059POPC   C1B24799  32.126   3.351   8.550
 5059POPC   C2B24800  32.174   3.264   8.250
 5059POPC   C3B24801  32.189   3.349   7.950
 5059POPC   C4B24802  32.153   3.271   7.650
 5060POPC   NC324803  19.867  41.551   9.450
 5060POPC   PO424804  19.864  41.521   9.150
 5060POPC   GL124805  19.884  41.510   8.850
 5060POPC   GL224806  19.797  41.409   8.850
 5060POPC   C1A24807  19.844  41.575   8.550
 5060POPC   D2A24808  19.855  41.597   8.250
 5060POPC   C3A24809  19.827  41.532   7.950
 5060POPC   C4A24810  19.866  41.590   7.650
 5060POPC   C1B24811  19.798  41.349   8.550
 5060POPC   C2B24812  19.785  41.285   8.250
 5060POPC   C3B24813  19.870  41.298   7.950
 5060POPC   C4B24814  19.862  41.354   7.650
 5061POPC   NC324815   6.654   9.730   9.450
 5061POPC   PO424816   6.664   9.759   9.150
 5061POPC   GL124817   6.615   9.709   8.850
 5061POPC   GL224818   6.534   9.644   8.850
 5061POPC   C1A24819   6.683   9.750   8.550
 5061POPC   D2A24820   6.607   9.727   8.250
 5061POPC   C3A24821   6.601   9.752   7.950
 5061POPC   C4A24822   6.636   9.751   7.650
 5061POPC   C1B24823   6.500   9.589   8.550
 5061POPC   C2B24824   6.478   9.543   8.250
 5061POPC   C3B24825   6.432   9.612   7.950
 5061POPC   C4B24826   6.430   9.608   7.650
 5062POPC   NC324827  37.694   0.457   9.450
 5062POPC   PO424828  37.700   0.436   9.150
 5062POPC   GL124829  37.662   0.454   8.850
 5062POPC   GL224830  37.550   0.369   8.850
 5062POPC   C1A24831  37.670   0.477   8.550
 5062POPC   D2A24832  37.632   0.464   8.250
 5062POPC   C3A24833  37.658   0.406   7.950
 5062POPC   C4A24834  37.699   0.468   7.650
 5062POPC   C1B24835  37.447   0.291   8.550
 5062POPC   C2B24836  37.449   0.300   8.250
 5062POPC   C3B24837  37.501   0.319   7.950
 5062POPC   C4B24838  37.469   0.295   7.650
 5063POPC   NC324839   8.166  12.077   9.450
 5063POPC   PO424840   8.203  12.074   9.150
 5063POPC   GL124841   8.155  12.067   8.850
 5063POPC   GL224842   8.263  11.992   8.850
 5063POPC   C1A24843   8.187  12.089   8.550
 5063POPC   D2A24844   8.194  12.111   8.250
 5063POPC   C3A24845   8.149  12.093   7.950
 5063POPC   C4A24846   8.222  12.087   7.650
 5063POPC   C1B24847   8.330  11.874   8.550
 5063POPC   C2B24848   8.369  11.850   8.250
 5063POPC   C3B24849   8.321  11.900   7.950
 5063POPC   C4B24850   8.319  11.906   7.650
 5064POPC   NC324851   1.232  34.609   9.450
 5064POPC   PO424852   1.176  34.608   9.150
 5064POPC   GL124853   1.251  34.619   8.850
 5064POPC   GL224854   1.307  34.560   8.850
 5064POPC   C1A24855   1.173  34.602   8.550
 5064POPC   D2A24856   1.230  34.618   8.250
 5064POPC   C3A24857   1.164  34.526   7.950
 5064POPC   C4A24858   1.210  34.550   7.650
 5064POPC   C1B24859   1.418  34.477   8.550
 5064POPC   C2B24860   1.474  34.452   8.250
 5064POPC   C3B24861   1.401  34.535   7.950
 5064POPC   C4B24862   1.446  34.452   7.650
 5065POPC   NC324863  10.554   0.488   9.450
 5065POPC   PO424864  10.516   0.433   9.150
 5065POPC   GL124865  10.538   0.395   8.850
 5065POPC   GL224866  10.508   0.339   8.850
 5065POPC   C1A24867  10.565   0.469   8.550
 5065POPC   D2A24868  10.517   0.441   8.250
 5065POPC   C3A24869  10.552   0.457   7.950
 5065POPC   C4A24870  10.557   0.433   7.650
 5065POPC   C1B24871  10.546   0.219   8.550
 5065POPC   C2B24872  10.552   0.196   8.250
 5065POPC   C3B24873  10.572   0.233   7.950
 5065POPC   C4B24874  10.547   0.138   7.650
 5066POPC   NC324875   8.973  15.927   9.450
 5066POPC   PO424876   9.001  15.940   9.150
 5066POPC   GL124877   8.947  15.931   8.850
 5066POPC   GL224878   9.000  16.082   8.850
 5066POPC   C1A24879   8.999  15.936   8.550
 5066POPC   D2A24880   9.012  15.957   8.250
 5066POPC   C3A24881   8.963  15.997   7.950
 5066POPC   C4A24882   8.971  15.917   7.650
 5066POPC   C1B24883   9.079  16.152   8.550
 5066POPC   C2B24884   9.136  16.126   8.250
 5066POPC   C3B24885   9.154  16.118   7.950
 5066POPC   C4B24886   9.164  16.161   7.650
 5067POPC   NC324887  21.360  12.833   9.450
 5067POPC   PO424888  21.435  12.888   9.150
 5067POPC   GL124889  21.391  12.873   8.850
 5067POPC   GL224890  21.515  12.838   8.850
 5067POPC   C1A24891  21.367  12.896   8.550
 5067POPC   D2A24892  21.375  12.834   8.250
 5067POPC   C3A24893  21.384  12.865   7.950
 5067POPC   C4A24894  21.339  12.854   7.650
 5067POPC   C1B24895  21.669  12.805   8.550
 5067POPC   C2B24896  21.666  12.776   8.250
 5067POPC   C3B24897  21.602  12.820   7.950
 5067POPC   C4B24898  21.577  12.740   7.650
 5068POPC   NC324899  19.061  32.261   9.450
 5068POPC   PO424900  19.057  32.284   9.150
 5068POPC   GL124901  19.067  32.212   8.850
 5068POPC   GL224902  19.147  32.312   8.850
 5068POPC   C1A24903  19.059  32.294   8.550
 5068POPC   D2A24904  19.105  32.232   8.250
 5068POPC   C3A24905  19.049  32.208   7.950
 5068POPC   C4A24906  19.025  32.261   7.650
 5068POPC   C1B24907  19.306  32.423   8.550
 5068POPC   C2B24908  19.255  32.410   8.250
 5068POPC   C3B24909  19.322  32.384   7.950
 5068POPC   C4B24910  19.301  32.422   7.650
 5069POPC   NC324911  39.275  41.515   9.450
 5069POPC   PO424912  39.225  41.557   9.150
 5069POPC   GL124913  39.243  41.576   8.850
 5069POPC   GL224914  39.340  41.656   8.850
 5069POPC   C1A24915  39.196  41.544   8.550
 5069POPC   D2A24916  39.248  41.584   8.250
 5069POPC   C3A24917  39.269  41.597   7.950
 5069POPC   C4A24918  39.193  41.525   7.650
 5069POPC   C1B24919  39.331  41.756   8.550
 5069POPC   C2B24920  39.392  41.736   8.250
 5069POPC   C3B24921  39.348  41.724   7.950
 5069POPC   C4B24922  39.340  41.787   7.650
 5070POPC   NC324923  36.122  42.355   9.450
 5070POPC   PO424924  36.105  42.336   9.150
 5070POPC   GL124925  36.156  42.373   8.850
 5070POPC   GL224926  36.274  42.333   8.850
 5070POPC   C1A24927  36.116  42.358   8.550
 5070POPC   D2A24928  36.121  42.369   8.250
 5070POPC   C3A24929  36.099  42.346   7.950
 5070POPC   C4A24930  36.116  42.340   7.650
 5070POPC   C1B24931  36.398  42.306   8.550
 5070POPC   C2B24932  36.380  42.293   8.250
 5070POPC   C3B24933  36.353  42.267   7.950
 5070POPC   C4B24934  36.418  42.247   7.650
 5071POPC   NC324935   3.554  38.412   9.450
 5071POPC   PO424936   3.499  38.438   9.150
 5071POPC   GL124937   3.547  38.479   8.850
 5071POPC   GL224938   3.439  38.300   8.850
 5071POPC   C1A24939   3.537  38.474   8.550
 5071POPC   D2A24940   3.571  38.448   8.250
 5071POPC   C3A24941   3.541  38.424   7.950
 5071POPC   C4A24942   3.529  38.419   7.650
 5071POPC   C1B24943   3.403  38.220   8.550
 5071POPC   C2B24944   3.444  38.286   8.250
 5071POPC   C3B24945   3.427  38.202   7.950
 5071POPC   C4B24946   3.375  38.249   7.650
 5072POPC   NC324947   5.823  18.263   9.450
 5072POPC   PO424948   5.905  18.321   9.150
 5072POPC   GL124949   5.891  18.273   8.850
 5072POPC   GL224950   5.966  18.429   8.850
 5072POPC   C1A24951   5.858  18.271   8.550
 5072POPC   D2A24952   5.867  18.266   8.250
 5072POPC   C3A24953   5.848  18.291   7.950
 5072POPC   C4A24954   5.828  18.319   7.650
 5072POPC   C1B24955   5.972  18.452   8.550
 5072POPC   C2B24956   6.035  18.538   8.250
 5072POPC   C3B24957   5.961  18.465   7.950
 5072POPC   C4B24958   5.980  18.455   7.650
 5073POPC   NC324959   3.524   3.498   9.450
 5073POPC   PO424960   3.539   3.499   9.150
 5073POPC   GL124961   3.556   3.492   8.850
 5073POPC   GL224962   3.622   3.687   8.850
 5073POPC   C1A24963   3.502   3.545   8.550
 5073POPC   D2A24964   3.578   3.580   8.250
 5073POPC   C3A24965   3.517   3.562   7.950
 5073POPC   C4A24966   3.539   3.580   7.650
 5073POPC   C1B24967   3.665   3.767   8.550
 5073POPC   C2B24968   3.633   3.792   8.250
 5073POPC   C3B24969   3.600   3.818   7.950
 5073POPC   C4B24970   3.579   3.763   7.650
 5074POPC   NC324971  39.277  43.895   9.450
 5074POPC   PO424972  39.192  43.906   9.150
 5074POPC   GL124973  39.189  43.857   8.850
 5074POPC   GL224974  39.269  43.786   8.850
 5074POPC   C1A24975  39.265  43.840   8.550
 5074POPC   D2A24976  39.191  43.880   8.250
 5074POPC   C3A24977  39.204  43.909   7.950
 5074POPC   C4A24978  39.193  43.862   7.650
 5074POPC   C1B24979  39.423  43.731   8.550
 5074POPC   C2B24980  39.396  43.746   8.250
 5074POPC   C3B24981  39.416  43.745   7.950
 5074POPC   C4B24982  39.378  43.717   7.650
 5075POPC   NC324983  44.633  15.130   9.450
 5075POPC   PO424984  44.620  15.171   9.150
 5075POPC   GL124985  44.678  15.196   8.850
 5075POPC   GL224986  44.549  15.105   8.850
 5075POPC   C1A24987  44.680  15.214   8.550
 5075POPC   D2A24988  44.667  15.170   8.250
 5075POPC   C3A24989  44.648  15.228   7.950
 5075POPC   C4A24990  44.687  15.228   7.650
 5075POPC   C1B24991  44.517  14.967   8.550
 5075POPC   C2B24992  44.506  15.052   8.250
 5075POPC   C3B24993  44.474  15.049   7.950
 5075POPC   C4B24994  44.503  15.029   7.650
 5076POPC   NC324995   8.997  22.913   9.450
 5076POPC   PO424996   8.969  22.938   9.150
 5076POPC   GL124997   8.984  22.913   8.850
 5076POPC   GL224998   8.953  22.810   8.850
 5076POPC   C1A24999   8.966  22.981   8.550
 5076POPC   D2A25000   9.010  22.974   8.250
 5076POPC   C3A25001   9.007  22.914   7.950
 5076POPC   C4A25002   8.945  22.890   7.650
 5076POPC   C1B25003   9.014  22.653   8.550
 5076POPC   C2B25004   9.002  22.639   8.250
 5076POPC   C3B25005   8.971  22.668   7.950
 5076POPC   C4B25006   9.029  22.654   7.650
 5077POPC   NC325007  30.700  18.249   9.450
 5077POPC   PO425008  30.686  18.319   9.150
 5077POPC   GL125009  30.683  18.269   8.850
 5077POPC   GL225010  30.616  18.348   8.850
 5077POPC   C1A25011  30.677  18.268   8.550
 5077POPC   D2A25012  30.698  18.291   8.250
 5077POPC   C3A25013  30.741  18.297   7.950
 5077POPC   C4A25014  30.670  18.252   7.650
 5077POPC   C1B25015  30.514  18.361   8.550
 5077POPC   C2B25016  30.482  18.379   8.250
 5077POPC   C3B25017  30.427  18.394   7.950
 5077POPC   C4B25018  30.510  18.375   7.650
 5078POPC   NC325019  15.182  17.535   9.450
 5078POPC   PO425020  15.196  17.459   9.150
 5078POPC   GL125021  15.162  17.495   8.850
 5078POPC   GL225022  15.233  17.568   8.850
 5078POPC   C1A25023  15.229  17.545   8.550
 5078POPC   D2A25024  15.202  17.534   8.250
 5078POPC   C3A25025  15.178  17.502   7.950
 5078POPC   C4A25026  15.150  17.547   7.650
 5078POPC   C1B25027  15.352  17.670   8.550
 5078POPC   C2B25028  15.332  17.718   8.250
 5078POPC   C3B25029  15.404  17.638   7.950
 5078POPC   C4B25030  15.320  17.700   7.650
 5079POPC   NC325031  15.919  28.375   9.450
 5079POPC   PO425032  15.935  28.408   9.150
 5079POPC   GL125033  15.964  28.351   8.850
 5079POPC   GL225034  15.962  28.499   8.850
 5079POPC   C1A25035  15.962  28.336   8.550
 5079POPC   D2A25036  15.981  28.372   8.250
 5079POPC   C3A25037  15.981  28.404   7.950
 5079POPC   C4A25038  15.955  28.385   7.650
 5079POPC   C1B25039  16.063  28.652   8.550
 5079POPC   C2B25040  16.057  28.602   8.250
 5079POPC   C3B25041  15.992  28.611   7.950
 5079POPC   C4B25042  16.001  28.598   7.650
 5080POPC   NC325043  37.675  15.983   9.450
 5080POPC   PO425044  37.673  15.992   9.150
 5080POPC   GL125045  37.636  15.910   8.850
 5080POPC   GL225046  37.740  16.042   8.850
 5080POPC   C1A25047  37.728  15.906   8.550
 5080POPC   D2A25048  37.710  15.942   8.250
 5080POPC   C3A25049  37.675  15.983   7.950
 5080POPC   C4A25050  37.691  15.958   7.650
 5080POPC   C1B25051  37.914  16.111   8.550
 5080POPC   C2B25052  37.921  16.045   8.250
 5080POPC   C3B25053  37.866  16.108   7.950
 5080POPC   C4B25054  37.868  16.078   7.650
 5081POPC   NC325055  29.125  15.183   9.450
 5081POPC   PO425056  29.096  15.212   9.150
 5081POPC   GL125057  29.099  15.183   8.850
 5081POPC   GL225058  29.188  15.083   8.850
 5081POPC   C1A25059  29.102  15.184   8.550
 5081POPC   D2A25060  29.156  15.218   8.250
 5081POPC   C3A25061  29.191  15.210   7.950
 5081POPC   C4A25062  29.190  15.214   7.650
 5081POPC   C1B25063  29.347  14.973   8.550
 5081POPC   C2B25064  29.281  14.968   8.250
 5081POPC   C3B25065  29.274  14.992   7.950
 5081POPC   C4B25066  29.348  15.023   7.650
 5082POPC   NC325067   2.777  27.625   9.450
 5082POPC   PO425068   2.762  27.563   9.150
 5082POPC   GL125069   2.741  27.589   8.850
 5082POPC   GL225070   2.845  27.690   8.850
 5082POPC   C1A25071   2.807  27.624   8.550
 5082POPC   D2A25072   2.725  27.616   8.250
 5082POPC   C3A25073   2.765  27.630   7.950
 5082POPC   C4A25074   2.745  27.577   7.650
 5082POPC   C1B25075   2.924  27.794   8.550
 5082POPC   C2B25076   2.883  27.832   8.250
 5082POPC   C3B25077   2.958  27.786   7.950
 5082POPC   C4B25078   2.953  27.831   7.650
 5083POPC   NC325079   7.444  33.765   9.450
 5083POPC   PO425080   7.464  33.803   9.150
 5083POPC   GL125081   7.470  33.845   8.850
 5083POPC   GL225082   7.333  33.672   8.850
 5083POPC   C1A25083   7.468  33.835   8.550
 5083POPC   D2A25084   7.385  33.752   8.250
 5083POPC   C3A25085   7.391  33.792   7.950
 5083POPC   C4A25086   7.435  33.765   7.650
 5083POPC   C1B25087   7.300  33.573   8.550
 5083POPC   C2B25088   7.302  33.567   8.250
 5083POPC   C3B25089   7.331  33.528   7.950
 5083POPC   C4B25090   7.320  33.535   7.650
 5084POPC   NC325091  27.558  36.151   9.450
 5084POPC   PO425092  27.546  36.089   9.150
 5084POPC   GL125093  27.604  36.150   8.850
 5084POPC   GL225094  27.668  36.003   8.850
 5084POPC   C1A25095  27.589  36.124   8.550
 5084POPC   D2A25096  27.614  36.113   8.250
 5084POPC   C3A25097  27.574  36.106   7.950
 5084POPC   C4A25098  27.554  36.160   7.650
 5084POPC   C1B25099  27.824  35.985   8.550
 5084POPC   C2B25100  27.790  36.005   8.250
 5084POPC   C3B25101  27.740  35.977   7.950
 5084POPC   C4B25102  27.744  35.946   7.650
 5085POPC   NC325103  33.019   2.736   9.450
 5085POPC   PO425104  33.071   2.744   9.150
 5085POPC   GL125105  32.999   2.804   8.850
 5085POPC   GL225106  33.105   2.766   8.850
 5085POPC   C1A25107  32.977   2.764   8.550
 5085POPC   D2A25108  33.070   2.782   8.250
 5085POPC   C3A25109  32.979   2.726   7.950
 5085POPC   C4A25110  33.006   2.745   7.650
 5085POPC   C1B25111  33.274   2.728   8.550
 5085POPC   C2B25112  33.300   2.670   8.250
 5085POPC   C3B25113  33.279   2.756   7.950
 5085POPC   C4B25114  33.275   2.736   7.650
 5086POPC   NC325115  40.822  44.644   9.450
 5086POPC   PO425116  40.809  44.687   9.150
 5086POPC   GL125117  40.751  44.619   8.850
 5086POPC   GL225118  40.708  44.690   8.850
 5086POPC   C1A25119  40.806  44.622   8.550
 5086POPC   D2A25120  40.795  44.635   8.250
 5086POPC   C3A25121  40.767  44.650   7.950
 5086POPC   C4A25122  40.750  44.685   7.650
 5086POPC   C1B25123  40.523  44.636   8.550
 5086POPC   C2B25124  40.524  44.620   8.250
 5086POPC   C3B25125  40.567  44.649   7.950
 5086POPC   C4B25126  40.504  44.652   7.650
 5087POPC   NC325127  31.424  10.513   9.450
 5087POPC   PO425128  31.505  10.506   9.150
 5087POPC   GL125129  31.521  10.573   8.850
 5087POPC   GL225130  31.569  10.649   8.850
 5087POPC   C1A25131  31.430  10.481   8.550
 5087POPC   D2A25132  31.471  10.516   8.250
 5087POPC   C3A25133  31.439  10.556   7.950
 5087POPC   C4A25134  31.469  10.571   7.650
 5087POPC   C1B25135  31.648  10.700   8.550
 5087POPC   C2B25136  31.612  10.710   8.250
 5087POPC   C3B25137  31.679  10.725   7.950
 5087POPC   C4B25138  31.616  10.692   7.650
 5088POPC   NC325139  15.976  20.635   9.450
 5088POPC   PO425140  15.987  20.610   9.150
 5088POPC   GL125141  15.940  20.644   8.850
 5088POPC   GL225142  15.945  20.754   8.850
 5088POPC   C1A25143  15.925  20.646   8.550
 5088POPC   D2A25144  15.954  20.564   8.250
 5088POPC   C3A25145  15.994  20.586   7.950
 5088POPC   C4A25146  15.991  20.650   7.650
 5088POPC   C1B25147  15.813  20.837   8.550
 5088POPC   C2B25148  15.816  20.863   8.250
 5088POPC   C3B25149  15.818  20.807   7.950
 5088POPC   C4B25150  15.807  20.830   7.650
 5089POPC   NC325151  20.564   7.403   9.450
 5089POPC   PO425152  20.579   7.422   9.150
 5089POPC   GL125153  20.629   7.463   8.850
 5089POPC   GL225154  20.680   7.522   8.850
 5089POPC   C1A25155  20.599   7.426   8.550
 5089POPC   D2A25156  20.565   7.466   8.250
 5089POPC   C3A25157  20.646   7.415   7.950
 5089POPC   C4A25158  20.642   7.417   7.650
 5089POPC   C1B25159  20.774   7.628   8.550
 5089POPC   C2B25160  20.786   7.572   8.250
 5089POPC   C3B25161  20.746   7.560   7.950
 5089POPC   C4B25162  20.760   7.649   7.650
 5090POPC   NC325163  17.500  31.504   9.450
 5090POPC   PO425164  17.471  31.433   9.150
 5090POPC   GL125165  17.476  31.476   8.850
 5090POPC   GL225166  17.481  31.328   8.850
 5090POPC   C1A25167  17.556  31.502   8.550
 5090POPC   D2A25168  17.509  31.446   8.250
 5090POPC   C3A25169  17.511  31.427   7.950
 5090POPC   C4A25170  17.529  31.518   7.650
 5090POPC   C1B25171  17.461  31.184   8.550
 5090POPC   C2B25172  17.463  31.231   8.250
 5090POPC   C3B25173  17.431  31.233   7.950
 5090POPC   C4B25174  17.464  31.254   7.650
 5091POPC   NC325175   4.324  29.158   9.450
 5091POPC   PO425176   4.350  29.182   9.150
 5091POPC   GL125177   4.310  29.148   8.850
 5091POPC   GL225178   4.200  29.207   8.850
 5091POPC   C1A25179   4.313  29.109   8.550
 5091POPC   D2A25180   4.306  29.172   8.250
 5091POPC   C3A25181   4.347  29.153   7.950
 5091POPC   C4A25182   4.271  29.189   7.650
 5091POPC   C1B25183   4.073  29.231   8.550
 5091POPC   C2B25184   4.054  29.181   8.250
 5091POPC   C3B25185   4.070  29.207   7.950
 5091POPC   C4B25186   4.084  29.182   7.650
 5092POPC   NC325187  12.089  11.306   9.450
 5092POPC   PO425188  12.055  11.345   9.150
 5092POPC   GL125189  12.084  11.318   8.850
 5092POPC   GL225190  12.171  11.306   8.850
 5092POPC   C1A25191  12.032  11.345   8.550
 5092POPC   D2A25192  12.051  11.295   8.250
 5092POPC   C3A25193  12.080  11.277   7.950
 5092POPC   C4A25194  12.080  11.286   7.650
 5092POPC   C1B25195  12.371  11.299   8.550
 5092POPC   C2B25196  12.293  11.259   8.250
 5092POPC   C3B25197  12.289  11.229   7.950
 5092POPC   C4B25198  12.364  11.267   7.650
 5093POPC   NC325199   1.175  22.890   9.450
 5093POPC   PO425200   1.177  22.898   9.150
 5093POPC   GL125201   1.217  22.900   8.850
 5093POPC   GL225202   1.248  23.095   8.850
 5093POPC   C1A25203   1.256  22.922   8.550
 5093POPC   D2A25204   1.210  22.974   8.250
 5093POPC   C3A25205   1.225  22.964   7.950
 5093POPC   C4A25206   1.195  22.957   7.650
 5093POPC   C1B25207   1.376  23.159   8.550
 5093POPC   C2B25208   1.351  23.153   8.250
 5093POPC   C3B25209   1.295  23.167   7.950
 5093POPC   C4B25210   1.302  23.198   7.650
 5094POPC   NC325211  44.627  36.908   9.450
 5094POPC   PO425212  44.613  36.940   9.150
 5094POPC   GL125213  44.707  36.876   8.850
 5094POPC   GL225214  44.546  36.880   8.850
 5094POPC   C1A25215  44.660  36.870   8.550
 5094POPC   D2A25216  44.645  36.930   8.250
 5094POPC   C3A25217  44.654  36.887   7.950
 5094POPC   C4A25218  44.676  36.876   7.650
 5094POPC   C1B25219  44.471  36.776   8.550
 5094POPC   C2B25220  44.416  36.866   8.250
 5094POPC   C3B25221  44.453  36.833   7.950
 5094POPC   C4B25222  44.467  36.801   7.650
 5095POPC   NC325223  29.109  36.860   9.450
 5095POPC   PO425224  29.099  36.910   9.150
 5095POPC   GL125225  29.150  36.899   8.850
 5095POPC   GL225226  29.120  37.008   8.850
 5095POPC   C1A25227  29.179  36.879   8.550
 5095POPC   D2A25228  29.144  36.904   8.250
 5095POPC   C3A25229  29.170  36.945   7.950
 5095POPC   C4A25230  29.141  36.921   7.650
 5095POPC   C1B25231  29.051  37.130   8.550
 5095POPC   C2B25232  29.018  37.085   8.250
 5095POPC   C3B25233  29.026  37.128   7.950
 5095POPC   C4B25234  29.012  37.167   7.650
 5096POPC   NC325235  43.840   3.540   9.450
 5096POPC   PO425236  43.916   3.565   9.150
 5096POPC   GL125237  43.919   3.541   8.850
 5096POPC   GL225238  44.034   3.530   8.850
 5096POPC   C1A25239  43.896   3.566   8.550
 5096POPC   D2A25240  43.842   3.580   8.250
 5096POPC   C3A25241  43.904   3.566   7.950
 5096POPC   C4A25242  43.869   3.533   7.650
 5096POPC   C1B25243  44.092   3.546   8.550
 5096POPC   C2B25244  44.129   3.543   8.250
 5096POPC   C3B25245  44.163   3.481   7.950
 5096POPC   C4B25246  44.122   3.517   7.650
 5097POPC   NC325247  31.424   5.878   9.450
 5097POPC   PO425248  31.475   5.862   9.150
 5097POPC   GL125249  31.479   5.819   8.850
 5097POPC   GL225250  31.464   6.014   8.850
 5097POPC   C1A25251  31.508   5.840   8.550
 5097POPC   D2A25252  31.456   5.825   8.250
 5097POPC   C3A25253  31.446   5.919   7.950
 5097POPC   C4A25254  31.467   5.884   7.650
 5097POPC   C1B25255  31.362   6.128   8.550
 5097POPC   C2B25256  31.380   6.119   8.250
 5097POPC   C3B25257  31.417   6.073   7.950
 5097POPC   C4B25258  31.402   6.139   7.650
 5098POPC   NC325259  42.365  27.544   9.450
 5098POPC   PO425260  42.344  27.635   9.150
 5098POPC   GL125261  42.352  27.572   8.850
 5098POPC   GL225262  42.212  27.647   8.850
 5098POPC   C1A25263  42.313  27.620   8.550
 5098POPC   D2A25264  42.351  27.576   8.250
 5098POPC   C3A25265  42.352  27.620   7.950
 5098POPC   C4A25266  42.359  27.550   7.650
 5098POPC   C1B25267  42.140  27.659   8.550
 5098POPC   C2B25268  42.080  27.631   8.250
 5098POPC   C3B25269  42.050  27.638   7.950
 5098POPC   C4B25270  42.135  27.646   7.650
 5099POPC   NC325271  19.097  18.261   9.450
 5099POPC   PO425272  19.094  18.272   9.150
 5099POPC   GL125273  19.042  18.315   8.850
 5099POPC   GL225274  19.084  18.409   8.850
 5099POPC   C1A25275  19.070  18.303   8.550
 5099POPC   D2A25276  19.027  18.312   8.250
 5099POPC   C3A25277  19.061  18.329   7.950
 5099POPC   C4A25278  19.087  18.261   7.650
 5099POPC   C1B25279  19.090  18.491   8.550
 5099POPC   C2B25280  19.079  18.546   8.250
 5099POPC   C3B25281  19.117  18.560   7.950
 5099POPC   C4B25282  19.089  18.511   7.650
 5100POPC   NC325283   4.315   9.021   9.450
 5100POPC   PO425284   4.337   8.996   9.150
 5100POPC   GL125285   4.323   9.008   8.850
 5100POPC   GL225286   4.219   8.965   8.850
 5100POPC   C1A25287   4.292   8.954   8.550
 5100POPC   D2A25288   4.274   8.980   8.250
 5100POPC   C3A25289   4.362   8.992   7.950
 5100POPC   C4A25290   4.284   8.953   7.650
 5100POPC   C1B25291   4.090   8.998   8.550
 5100POPC   C2B25292   4.048   8.996   8.250
 5100POPC   C3B25293   4.064   9.003   7.950
 5100POPC   C4B25294   4.051   9.025   7.650
 5101POPC   NC325295   0.401  10.482   9.450
 5101POPC   PO425296   0.425  10.507   9.150
 5101POPC   GL125297   0.462  10.532   8.850
 5101POPC   GL225298   0.343  10.560   8.850
 5101POPC   C1A25299   0.388  10.520   8.550
 5101POPC   D2A25300   0.477  10.537   8.250
 5101POPC   C3A25301   0.472  10.562   7.950
 5101POPC   C4A25302   0.465  10.566   7.650
 5101POPC   C1B25303   0.149  10.510   8.550
 5101POPC   C2B25304   0.147  10.533   8.250
 5101POPC   C3B25305   0.199  10.546   7.950
 5101POPC   C4B25306   0.237  10.517   7.650
 5102POPC   NC325307  14.355  33.787   9.450
 5102POPC   PO425308  14.400  33.774   9.150
 5102POPC   GL125309  14.428  33.832   8.850
 5102POPC   GL225310  14.442  33.692   8.850
 5102POPC   C1A25311  14.429  33.809   8.550
 5102POPC   D2A25312  14.391  33.845   8.250
 5102POPC   C3A25313  14.421  33.835   7.950
 5102POPC   C4A25314  14.366  33.777   7.650
 5102POPC   C1B25315  14.493  33.632   8.550
 5102POPC   C2B25316  14.542  33.632   8.250
 5102POPC   C3B25317  14.570  33.609   7.950
 5102POPC   C4B25318  14.542  33.546   7.650
 5103POPC   NC325319  10.495   5.122   9.450
 5103POPC   PO425320  10.543   5.080   9.150
 5103POPC   GL125321  10.539   5.117   8.850
 5103POPC   GL225322  10.617   5.013   8.850
 5103POPC   C1A25323  10.566   5.112   8.550
 5103POPC   D2A25324  10.512   5.125   8.250
 5103POPC   C3A25325  10.534   5.120   7.950
 5103POPC   C4A25326  10.540   5.134   7.650
 5103POPC   C1B25327  10.619   4.838   8.550
 5103POPC   C2B25328  10.584   4.876   8.250
 5103POPC   C3B25329  10.584   4.893   7.950
 5103POPC   C4B25330  10.602   4.904   7.650
 5104POPC   NC325331  25.293  22.199   9.450
 5104POPC   PO425332  25.229  22.128   9.150
 5104POPC   GL125333  25.295  22.176   8.850
 5104POPC   GL225334  25.341  22.219   8.850
 5104POPC   C1A25335  25.299  22.119   8.550
 5104POPC   D2A25336  25.229  22.200   8.250
 5104POPC   C3A25337  25.276  22.122   7.950
 5104POPC   C4A25338  25.298  22.167   7.650
 5104POPC   C1B25339  25.462  22.242   8.550
 5104POPC   C2B25340  25.483  22.235   8.250
 5104POPC   C3B25341  25.470  22.297   7.950
 5104POPC   C4B25342  25.453  22.262   7.650
 5105POPC   NC325343  35.327  21.370   9.450
 5105POPC   PO425344  35.348  21.413   9.150
 5105POPC   GL125345  35.350  21.367   8.850
 5105POPC   GL225346  35.480  21.335   8.850
 5105POPC   C1A25347  35.306  21.418   8.550
 5105POPC   D2A25348  35.308  21.387   8.250
 5105POPC   C3A25349  35.387  21.417   7.950
 5105POPC   C4A25350  35.347  21.351   7.650
 5105POPC   C1B25351  35.592  21.300   8.550
 5105POPC   C2B25352  35.547  21.275   8.250
 5105POPC   C3B25353  35.602  21.237   7.950
 5105POPC   C4B25354  35.528  21.326   7.650
 5106POPC   NC325355  30.691  37.673   9.450
 5106POPC   PO425356  30.687  37.652   9.150
 5106POPC   GL125357  30.650  37.707   8.850
 5106POPC   GL225358  30.766  37.574   8.850
 5106POPC   C1A25359  30.717  37.708   8.550
 5106POPC   D2A25360  30.744  37.688   8.250
 5106POPC   C3A25361  30.670  37.684   7.950
 5106POPC   C4A25362  30.678  37.723   7.650
 5106POPC   C1B25363  30.928  37.472   8.550
 5106POPC   C2B25364  30.855  37.550   8.250
 5106POPC   C3B25365  30.918  37.539   7.950
 5106POPC   C4B25366  30.936  37.502   7.650
 5107POPC   NC325367  37.726  32.218   9.450
 5107POPC   PO425368  37.695  32.274   9.150
 5107POPC   GL125369  37.684  32.271   8.850
 5107POPC   GL225370  37.691  32.124   8.850
 5107POPC   C1A25371  37.638  32.276   8.550
 5107POPC   D2A25372  37.708  32.214   8.250
 5107POPC   C3A25373  37.725  32.208   7.950
 5107POPC   C4A25374  37.634  32.205   7.650
 5107POPC   C1B25375  37.626  32.047   8.550
 5107POPC   C2B25376  37.612  31.971   8.250
 5107POPC   C3B25377  37.678  32.015   7.950
 5107POPC   C4B25378  37.636  32.032   7.650
 5108POPC   NC325379  13.599   1.191   9.450
 5108POPC   PO425380  13.625   1.173   9.150
 5108POPC   GL125381  13.609   1.182   8.850
 5108POPC   GL225382  13.645   1.107   8.850
 5108POPC   C1A25383  13.593   1.236   8.550
 5108POPC   D2A25384  13.670   1.221   8.250
 5108POPC   C3A25385  13.590   1.212   7.950
 5108POPC   C4A25386  13.617   1.185   7.650
 5108POPC   C1B25387  13.723   0.999   8.550
 5108POPC   C2B25388  13.716   0.954   8.250
 5108POPC   C3B25389  13.673   0.944   7.950
 5108POPC   C4B25390  13.685   0.982   7.650
 5109POPC   NC325391  19.813   6.667   9.450
 5109POPC   PO425392  19.846   6.602   9.150
 5109POPC   GL125393  19.848   6.622   8.850
 5109POPC   GL225394  19.717   6.607   8.850
 5109POPC   C1A25395  19.817   6.624   8.550
 5109POPC   D2A25396  19.870   6.603   8.250
 5109POPC   C3A25397  19.868   6.682   7.950
 5109POPC   C4A25398  19.848   6.610   7.650
 5109POPC   C1B25399  19.577   6.537   8.550
 5109POPC   C2B25400  19.547   6.570   8.250
 5109POPC   C3B25401  19.563   6.570   7.950
 5109POPC   C4B25402  19.629   6.606   7.650
 5110POPC   NC325403  14.433   5.852   9.450
 5110POPC   PO425404  14.437   5.856   9.150
 5110POPC   GL125405  14.409   5.868   8.850
 5110POPC   GL225406  14.257   5.893   8.850
 5110POPC   C1A25407  14.449   5.822   8.550
 5110POPC   D2A25408  14.360   5.865   8.250
 5110POPC   C3A25409  14.444   5.882   7.950
 5110POPC   C4A25410  14.394   5.824   7.650
 5110POPC   C1B25411  14.200   5.924   8.550
 5110POPC   C2B25412  14.207   5.909   8.250
 5110POPC   C3B25413  14.145   5.877   7.950
 5110POPC   C4B25414  14.199   5.877   7.650
 5111POPC   NC325415  17.510  40.785   9.450
 5111POPC   PO425416  17.480  40.832   9.150
 5111POPC   GL125417  17.549  40.757   8.850
 5111POPC   GL225418  17.531  40.688   8.850
 5111POPC   C1A25419  17.508  40.821   8.550
 5111POPC   D2A25420  17.469  40.790   8.250
 5111POPC   C3A25421  17.526  40.775   7.950
 5111POPC   C4A25422  17.490  40.763   7.650
 5111POPC   C1B25423  17.519  40.562   8.550
 5111POPC   C2B25424  17.480  40.489   8.250
 5111POPC   C3B25425  17.551  40.582   7.950
 5111POPC   C4B25426  17.477  40.569   7.650
 5112POPC   NC325427  40.750  37.650   9.450
 5112POPC   PO425428  40.744  37.673   9.150
 5112POPC   GL125429  40.773  37.728   8.850
 5112POPC   GL225430  40.831  37.822   8.850
 5112POPC   C1A25431  40.785  37.718   8.550
 5112POPC   D2A25432  40.765  37.639   8.250
 5112POPC   C3A25433  40.819  37.695   7.950
 5112POPC   C4A25434  40.818  37.641   7.650
 5112POPC   C1B25435  40.888  37.925   8.550
 5112POPC   C2B25436  40.864  37.869   8.250
 5112POPC   C3B25437  40.941  37.889   7.950
 5112POPC   C4B25438  40.882  37.937   7.650
 5113POPC   NC325439  21.349  15.990   9.450
 5113POPC   PO425440  21.388  15.948   9.150
 5113POPC   GL125441  21.374  16.001   8.850
 5113POPC   GL225442  21.284  15.834   8.850
 5113POPC   C1A25443  21.436  15.977   8.550
 5113POPC   D2A25444  21.417  15.921   8.250
 5113POPC   C3A25445  21.345  16.003   7.950
 5113POPC   C4A25446  21.350  15.979   7.650
 5113POPC   C1B25447  21.208  15.781   8.550
 5113POPC   C2B25448  21.219  15.801   8.250
 5113POPC   C3B25449  21.251  15.796   7.950
 5113POPC   C4B25450  21.219  15.727   7.650
 5114POPC   NC325451  37.716  17.484   9.450
 5114POPC   PO425452  37.694  17.534   9.150
 5114POPC   GL125453  37.633  17.555   8.850
 5114POPC   GL225454  37.702  17.348   8.850
 5114POPC   C1A25455  37.726  17.517   8.550
 5114POPC   D2A25456  37.647  17.512   8.250
 5114POPC   C3A25457  37.672  17.465   7.950
 5114POPC   C4A25458  37.724  17.502   7.650
 5114POPC   C1B25459  37.679  17.290   8.550
 5114POPC   C2B25460  37.720  17.249   8.250
 5114POPC   C3B25461  37.739  17.258   7.950
 5114POPC   C4B25462  37.703  17.243   7.650
 5115POPC   NC325463  43.138  35.368   9.450
 5115POPC   PO425464  43.092  35.348   9.150
 5115POPC   GL125465  43.153  35.330   8.850
 5115POPC   GL225466  43.103  35.209   8.850
 5115POPC   C1A25467  43.109  35.371   8.550
 5115POPC   D2A25468  43.079  35.356   8.250
 5115POPC   C3A25469  43.069  35.341   7.950
 5115POPC   C4A25470  43.160  35.388   7.650
 5115POPC   C1B25471  42.974  35.105   8.550
 5115POPC   C2B25472  42.996  35.127   8.250
 5115POPC   C3B25473  43.029  35.075   7.950
 5115POPC   C4B25474  42.980  35.166   7.650
 5116POPC   NC325475   4.276   2.798   9.450
 5116POPC   PO425476   4.305   2.808   9.150
 5116POPC   GL125477   4.345   2.731   8.850
 5116POPC   GL225478   4.361   2.655   8.850
 5116POPC   C1A25479   4.347   2.741   8.550
 5116POPC   D2A25480   4.334   2.722   8.250
 5116POPC   C3A25481   4.315   2.730   7.950
 5116POPC   C4A25482   4.356   2.753   7.650
 5116POPC   C1B25483   4.398   2.500   8.550
 5116POPC   C2B25484   4.478   2.531   8.250
 5116POPC   C3B25485   4.412   2.565   7.950
 5116POPC   C4B25486   4.462   2.501   7.650
 5117POPC   NC325487  40.805  26.837   9.450
 5117POPC   PO425488  40.750  26.776   9.150
 5117POPC   GL125489  40.790  26.794   8.850
 5117POPC   GL225490  40.681  26.780   8.850
 5117POPC   C1A25491  40.782  26.852   8.550
 5117POPC   D2A25492  40.790  26.799   8.250
 5117POPC   C3A25493  40.747  26.795   7.950
 5117POPC   C4A25494  40.806  26.847   7.650
 5117POPC   C1B25495  40.503  26.781   8.550
 5117POPC   C2B25496  40.577  26.841   8.250
 5117POPC   C3B25497  40.574  26.836   7.950
 5117POPC   C4B25498  40.546  26.793   7.650
 5118POPC   NC325499   2.021   8.996   9.450
 5118POPC   PO425500   1.965   8.968   9.150
 5118POPC   GL125501   1.982   8.961   8.850
 5118POPC   GL225502   2.129   9.048   8.850
 5118POPC   C1A25503   1.977   8.973   8.550
 5118POPC   D2A25504   1.942   8.997   8.250
 5118POPC   C3A25505   1.951   8.962   7.950
 5118POPC   C4A25506   1.961   8.923   7.650
 5118POPC   C1B25507   2.137   9.099   8.550
 5118POPC   C2B25508   2.193   9.171   8.250
 5118POPC   C3B25509   2.221   9.165   7.950
 5118POPC   C4B25510   2.144   9.122   7.650
 5119POPC   NC325511  23.746   1.946   9.450
 5119POPC   PO425512  23.730   1.960   9.150
 5119POPC   GL125513  23.677   1.949   8.850
 5119POPC   GL225514  23.800   1.985   8.850
 5119POPC   C1A25515  23.706   2.014   8.550
 5119POPC   D2A25516  23.718   1.941   8.250
 5119POPC   C3A25517  23.758   1.960   7.950
 5119POPC   C4A25518  23.693   2.034   7.650
 5119POPC   C1B25519  23.910   1.900   8.550
 5119POPC   C2B25520  23.989   1.888   8.250
 5119POPC   C3B25521  23.960   1.917   7.950
 5119POPC   C4B25522  23.945   1.844   7.650
 5120POPC   NC325523   9.703  11.306   9.450
 5120POPC   PO425524   9.783  11.267   9.150
 5120POPC   GL125525   9.795  11.345   8.850
 5120POPC   GL225526   9.859  11.441   8.850
 5120POPC   C1A25527   9.751  11.308   8.550
 5120POPC   D2A25528   9.733  11.305   8.250
 5120POPC   C3A25529   9.762  11.301   7.950
 5120POPC   C4A25530   9.759  11.265   7.650
 5120POPC   C1B25531   9.870  11.516   8.550
 5120POPC   C2B25532   9.908  11.473   8.250
 5120POPC   C3B25533   9.876  11.474   7.950
 5120POPC   C4B25534   9.892  11.557   7.650
 5121POPC   NC325535  25.280   0.403   9.450
 5121POPC   PO425536  25.269   0.443   9.150
 5121POPC   GL125537  25.266   0.467   8.850
 5121POPC   GL225538  25.280   0.295   8.850
 5121POPC   C1A25539  25.309   0.414   8.550
 5121POPC   D2A25540  25.294   0.487   8.250
 5121POPC   C3A25541  25.239   0.451   7.950
 5121POPC   C4A25542  25.278   0.392   7.650
 5121POPC   C1B25543  25.237   0.162   8.550
 5121POPC   C2B25544  25.158   0.168   8.250
 5121POPC   C3B25545  25.159   0.178   7.950
 5121POPC   C4B25546  25.229   0.228   7.650
 5122POPC   NC325547  13.598  17.536   9.450
 5122POPC   PO425548  13.664  17.493   9.150
 5122POPC   GL125549  13.609  17.473   8.850
 5122POPC   GL225550  13.799  17.443   8.850
 5122POPC   C1A25551  13.649  17.515   8.550
 5122POPC   D2A25552  13.587  17.491   8.250
 5122POPC   C3A25553  13.672  17.485   7.950
 5122POPC   C4A25554  13.637  17.495   7.650
 5122POPC   C1B25555  13.886  17.444   8.550
 5122POPC   C2B25556  13.905  17.428   8.250
 5122POPC   C3B25557  13.829  17.444   7.950
 5122POPC   C4B25558  13.913  17.502   7.650
 5123POPC   NC325559  21.380  29.100   9.450
 5123POPC   PO425560  21.354  29.195   9.150
 5123POPC   GL125561  21.350  29.161   8.850
 5123POPC   GL225562  21.305  29.087   8.850
 5123POPC   C1A25563  21.426  29.120   8.550
 5123POPC   D2A25564  21.414  29.104   8.250
 5123POPC   C3A25565  21.427  29.181   7.950
 5123POPC   C4A25566  21.359  29.148   7.650
 5123POPC   C1B25567  21.149  29.025   8.550
 5123POPC   C2B25568  21.130  28.975   8.250
 5123POPC   C3B25569  21.139  29.014   7.950
 5123POPC   C4B25570  21.178  28.987   7.650
 5124POPC   NC325571  17.524   3.498   9.450
 5124POPC   PO425572  17.530   3.517   9.150
 5124POPC   GL125573  17.537   3.565   8.850
 5124POPC   GL225574  17.581   3.615   8.850
 5124POPC   C1A25575  17.500   3.568   8.550
 5124POPC   D2A25576  17.532   3.591   8.250
 5124POPC   C3A25577  17.506   3.538   7.950
 5124POPC   C4A25578  17.525   3.562   7.650
 5124POPC   C1B25579  17.595   3.738   8.550
 5124POPC   C2B25580  17.641   3.716   8.250
 5124POPC   C3B25581  17.596   3.763   7.950
 5124POPC   C4B25582  17.605   3.718   7.650
 5125POPC   NC325583   7.394  22.203   9.450
 5125POPC   PO425584   7.428  22.142   9.150
 5125POPC   GL125585   7.435  22.144   8.850
 5125POPC   GL225586   7.421  22.330   8.850
 5125POPC   C1A25587   7.461  22.120   8.550
 5125POPC   D2A25588   7.375  22.148   8.250
 5125POPC   C3A25589   7.395  22.151   7.950
 5125POPC   C4A25590   7.378  22.116   7.650
 5125POPC   C1B25591   7.422  22.417   8.550
 5125POPC   C2B25592   7.358  22.452   8.250
 5125POPC   C3B25593   7.441  22.413   7.950
 5125POPC   C4B25594   7.391  22.387   7.650
 5126POPC   NC325595  14.437  37.642   9.450
 5126POPC   PO425596  14.378  37.657   9.150
 5126POPC   GL125597  14.360  37.715   8.850
 5126POPC   GL225598  14.516  37.563   8.850
 5126POPC   C1A25599  14.355  37.646   8.550
 5126POPC   D2A25600  14.445  37.661   8.250
 5126POPC   C3A25601  14.406  37.677   7.950
 5126POPC   C4A25602  14.366  37.700   7.650
 5126POPC   C1B25603  14.612  37.489   8.550
 5126POPC   C2B25604  14.537  37.536   8.250
 5126POPC   C3B25605  14.566  37.485   7.950
 5126POPC   C4B25606  14.598  37.490   7.650
 5127POPC   NC325607   2.021   3.567   9.450
 5127POPC   PO425608   1.952   3.563   9.150
 5127POPC   GL125609   1.947   3.591   8.850
 5127POPC   GL225610   2.055   3.443   8.850
 5127POPC   C1A25611   1.957   3.551   8.550
 5127POPC   D2A25612   1.991   3.523   8.250
 5127POPC   C3A25613   1.982   3.512   7.950
 5127POPC   C4A25614   1.956   3.550   7.650
 5127POPC   C1B25615   2.166   3.444   8.550
 5127POPC   C2B25616   2.163   3.432   8.250
 5127POPC   C3B25617   2.187   3.378   7.950
 5127POPC   C4B25618   2.166   3.449   7.650
 5128POPC   NC325619   4.328   1.197   9.450
 5128POPC   PO425620   4.338   1.234   9.150
 5128POPC   GL125621   4.273   1.192   8.850
 5128POPC   GL225622   4.235   1.269   8.850
 5128POPC   C1A25623   4.343   1.170   8.550
 5128POPC   D2A25624   4.357   1.243   8.250
 5128POPC   C3A25625   4.306   1.238   7.950
 5128POPC   C4A25626   4.365   1.193   7.650
 5128POPC   C1B25627   4.096   1.217   8.550
 5128POPC   C2B25628   4.062   1.276   8.250
 5128POPC   C3B25629   4.099   1.235   7.950
 5128POPC   C4B25630   4.103   1.212   7.650
 5129POPC   NC325631  39.962  15.973   9.450
 5129POPC   PO425632  39.974  16.004   9.150
 5129POPC   GL125633  39.958  15.931   8.850
 5129POPC   GL225634  40.065  15.869   8.850
 5129POPC   C1A25635  39.957  15.911   8.550
 5129POPC   D2A25636  40.043  15.962   8.250
 5129POPC   C3A25637  40.026  15.999   7.950
 5129POPC   C4A25638  40.046  15.921   7.650
 5129POPC   C1B25639  40.114  15.723   8.550
 5129POPC   C2B25640  40.165  15.779   8.250
 5129POPC   C3B25641  40.127  15.691   7.950
 5129POPC   C4B25642  40.117  15.702   7.650
 5130POPC   NC325643  12.069   0.458   9.450
 5130POPC   PO425644  12.048   0.476   9.150
 5130POPC   GL125645  12.067   0.465   8.850
 5130POPC   GL225646  12.210   0.464   8.850
 5130POPC   C1A25647  12.078   0.424   8.550
 5130POPC   D2A25648  12.028   0.482   8.250
 5130POPC   C3A25649  12.081   0.460   7.950
 5130POPC   C4A25650  12.104   0.466   7.650
 5130POPC   C1B25651  12.315   0.482   8.550
 5130POPC   C2B25652  12.355   0.390   8.250
 5130POPC   C3B25653  12.350   0.453   7.950
 5130POPC   C4B25654  12.369   0.449   7.650
 5131POPC   NC325655  20.635   2.793   9.450
 5131POPC   PO425656  20.646   2.810   9.150
 5131POPC   GL125657  20.578   2.763   8.850
 5131POPC   GL225658  20.701   2.837   8.850
 5131POPC   C1A25659  20.617   2.786   8.550
 5131POPC   D2A25660  20.621   2.724   8.250
 5131POPC   C3A25661  20.594   2.811   7.950
 5131POPC   C4A25662  20.631   2.792   7.650
 5131POPC   C1B25663  20.876   2.822   8.550
 5131POPC   C2B25664  20.877   2.856   8.250
 5131POPC   C3B25665  20.827   2.888   7.950
 5131POPC   C4B25666  20.860   2.819   7.650
 5132POPC   NC325667  32.281  34.562   9.450
 5132POPC   PO425668  32.292  34.584   9.150
 5132POPC   GL125669  32.293  34.610   8.850
 5132POPC   GL225670  32.294  34.463   8.850
 5132POPC   C1A25671  32.202  34.570   8.550
 5132POPC   D2A25672  32.292  34.609   8.250
 5132POPC   C3A25673  32.205  34.557   7.950
 5132POPC   C4A25674  32.260  34.551   7.650
 5132POPC   C1B25675  32.243  34.286   8.550
 5132POPC   C2B25676  32.236  34.354   8.250
 5132POPC   C3B25677  32.287  34.318   7.950
 5132POPC   C4B25678  32.237  34.318   7.650
 5133POPC   NC325679  12.862   1.196   9.450
 5133POPC   PO425680  12.836   1.212   9.150
 5133POPC   GL125681  12.879   1.200   8.850
 5133POPC   GL225682  12.738   1.158   8.850
 5133POPC   C1A25683  12.862   1.164   8.550
 5133POPC   D2A25684  12.891   1.200   8.250
 5133POPC   C3A25685  12.811   1.201   7.950
 5133POPC   C4A25686  12.810   1.172   7.650
 5133POPC   C1B25687  12.572   1.187   8.550
 5133POPC   C2B25688  12.594   1.168   8.250
 5133POPC   C3B25689  12.652   1.168   7.950
 5133POPC   C4B25690  12.649   1.207   7.650
 5134POPC   NC325691  13.647  32.265   9.450
 5134POPC   PO425692  13.583  32.265   9.150
 5134POPC   GL125693  13.634  32.200   8.850
 5134POPC   GL225694  13.512  32.320   8.850
 5134POPC   C1A25695  13.584  32.202   8.550
 5134POPC   D2A25696  13.590  32.288   8.250
 5134POPC   C3A25697  13.613  32.202   7.950
 5134POPC   C4A25698  13.613  32.249   7.650
 5134POPC   C1B25699  13.399  32.367   8.550
 5134POPC   C2B25700  13.402  32.364   8.250
 5134POPC   C3B25701  13.368  32.384   7.950
 5134POPC   C4B25702  13.384  32.405   7.650
 5135POPC   NC325703  34.581  33.073   9.450
 5135POPC   PO425704  34.622  33.009   9.150
 5135POPC   GL125705  34.593  33.065   8.850
 5135POPC   GL225706  34.499  32.993   8.850
 5135POPC   C1A25707  34.547  33.023   8.550
 5135POPC   D2A25708  34.584  33.002   8.250
 5135POPC   C3A25709  34.593  33.073   7.950
 5135POPC   C4A25710  34.571  33.053   7.650
 5135POPC   C1B25711  34.353  32.947   8.550
 5135POPC   C2B25712  34.360  32.885   8.250
 5135POPC   C3B25713  34.377  32.960   7.950
 5135POPC   C4B25714  34.307  32.924   7.650
 5136POPC   NC325715  29.897   4.284   9.450
 5136POPC   PO425716  29.896   4.362   9.150
 5136POPC   GL125717  29.948   4.280   8.850
 5136POPC   GL225718  29.850   4.436   8.850
 5136POPC   C1A25719  29.924   4.281   8.550
 5136POPC   D2A25720  29.921   4.286   8.250
 5136POPC   C3A25721  29.871   4.307   7.950
 5136POPC   C4A25722  29.961   4.285   7.650
 5136POPC   C1B25723  29.785   4.508   8.550
 5136POPC   C2B25724  29.808   4.561   8.250
 5136POPC   C3B25725  29.779   4.568   7.950
 5136POPC   C4B25726  29.842   4.589   7.650
 5137POPC   NC325727  12.101  41.552   9.450
 5137POPC   PO425728  12.097  41.592   9.150
 5137POPC   GL125729  12.060  41.609   8.850
 5137POPC   GL225730  12.160  41.677   8.850
 5137POPC   C1A25731  12.092  41.594   8.550
 5137POPC   D2A25732  12.089  41.572   8.250
 5137POPC   C3A25733  12.075  41.598   7.950
 5137POPC   C4A25734  12.097  41.534   7.650
 5137POPC   C1B25735  12.212  41.797   8.550
 5137POPC   C2B25736  12.229  41.742   8.250
 5137POPC   C3B25737  12.199  41.729   7.950
 5137POPC   C4B25738  12.186  41.771   7.650
 5138POPC   NC325739  10.499  23.735   9.450
 5138POPC   PO425740  10.493  23.711   9.150
 5138POPC   GL125741  10.491  23.723   8.850
 5138POPC   GL225742  10.674  23.734   8.850
 5138POPC   C1A25743  10.537  23.753   8.550
 5138POPC   D2A25744  10.509  23.718   8.250
 5138POPC   C3A25745  10.527  23.762   7.950
 5138POPC   C4A25746  10.525  23.735   7.650
 5138POPC   C1B25747  10.723  23.683   8.550
 5138POPC   C2B25748  10.809  23.667   8.250
 5138POPC   C3B25749  10.770  23.694   7.950
 5138POPC   C4B25750  10.734  23.661   7.650
 5139POPC   NC325751   2.018  11.313   9.450
 5139POPC   PO425752   1.966  11.333   9.150
 5139POPC   GL125753   1.972  11.278   8.850
 5139POPC   GL225754   2.134  11.286   8.850
 5139POPC   C1A25755   2.028  11.267   8.550
 5139POPC   D2A25756   2.003  11.306   8.250
 5139POPC   C3A25757   2.022  11.284   7.950
 5139POPC   C4A25758   1.993  11.279   7.650
 5139POPC   C1B25759   2.222  11.308   8.550
 5139POPC   C2B25760   2.259  11.318   8.250
 5139POPC   C3B25761   2.253  11.323   7.950
 5139POPC   C4B25762   2.255  11.333   7.650
 5140POPC   NC325763  31.452   1.956   9.450
 5140POPC   PO425764  31.453   1.961   9.150
 5140POPC   GL125765  31.424   1.960   8.850
 5140POPC   GL225766  31.397   1.932   8.850
 5140POPC   C1A25767  31.497   1.984   8.550
 5140POPC   D2A25768  31.481   2.038   8.250
 5140POPC   C3A25769  31.475   2.033   7.950
 5140POPC   C4A25770  31.494   1.945   7.650
 5140POPC   C1B25771  31.251   1.859   8.550
 5140POPC   C2B25772  31.290   1.836   8.250
 5140POPC   C3B25773  31.274   1.785   7.950
 5140POPC   C4B25774  31.242   1.824   7.650
 5141POPC   NC325775  14.371  14.398   9.450
 5141POPC   PO425776  14.406  14.429   9.150
 5141POPC   GL125777  14.380  14.418   8.850
 5141POPC   GL225778  14.400  14.527   8.850
 5141POPC   C1A25779  14.357  14.360   8.550
 5141POPC   D2A25780  14.438  14.371   8.250
 5141POPC   C3A25781  14.435  14.418   7.950
 5141POPC   C4A25782  14.443  14.424   7.650
 5141POPC   C1B25783  14.370  14.668   8.550
 5141POPC   C2B25784  14.369  14.614   8.250
 5141POPC   C3B25785  14.374  14.649   7.950
 5141POPC   C4B25786  14.421  14.614   7.650
 5142POPC   NC325787   7.376  40.004   9.450
 5142POPC   PO425788   7.461  40.026   9.150
 5142POPC   GL125789   7.452  40.047   8.850
 5142POPC   GL225790   7.248  39.969   8.850
 5142POPC   C1A25791   7.436  40.005   8.550
 5142POPC   D2A25792   7.372  40.054   8.250
 5142POPC   C3A25793   7.383  40.037   7.950
 5142POPC   C4A25794   7.412  40.056   7.650
 5142POPC   C1B25795   7.171  39.993   8.550
 5142POPC   C2B25796   7.134  39.970   8.250
 5142POPC   C3B25797   7.199  39.992   7.950
 5142POPC   C4B25798   7.174  39.949   7.650
 5143POPC   NC325799  10.532  14.406   9.450
 5143POPC   PO425800  10.518  14.451   9.150
 5143POPC   GL125801  10.570  14.426   8.850
 5143POPC   GL225802  10.422  14.460   8.850
 5143POPC   C1A25803  10.568  14.394   8.550
 5143POPC   D2A25804  10.541  14.363   8.250
 5143POPC   C3A25805  10.540  14.358   7.950
 5143POPC   C4A25806  10.534  14.440   7.650
 5143POPC   C1B25807  10.384  14.550   8.550
 5143POPC   C2B25808  10.404  14.583   8.250
 5143POPC   C3B25809  10.367  14.571   7.950
 5143POPC   C4B25810  10.403  14.586   7.650
 5144POPC   NC325811  41.595  36.133   9.450
 5144POPC   PO425812  41.605  36.087   9.150
 5144POPC   GL125813  41.513  36.084   8.850
 5144POPC   GL225814  41.676  36.014   8.850
 5144POPC   C1A25815  41.511  36.110   8.550
 5144POPC   D2A25816  41.564  36.162   8.250
 5144POPC   C3A25817  41.533  36.164   7.950
 5144POPC   C4A25818  41.575  36.098   7.650
 5144POPC   C1B25819  41.686  35.977   8.550
 5144POPC   C2B25820  41.738  35.903   8.250
 5144POPC   C3B25821  41.685  35.922   7.950
 5144POPC   C4B25822  41.746  35.907   7.650
 5145POPC   NC325823   1.240  12.831   9.450
 5145POPC   PO425824   1.201  12.891   9.150
 5145POPC   GL125825   1.177  12.873   8.850
 5145POPC   GL225826   1.231  12.933   8.850
 5145POPC   C1A25827   1.209  12.896   8.550
 5145POPC   D2A25828   1.164  12.867   8.250
 5145POPC   C3A25829   1.178  12.889   7.950
 5145POPC   C4A25830   1.169  12.817   7.650
 5145POPC   C1B25831   1.186  13.135   8.550
 5145POPC   C2B25832   1.185  13.102   8.250
 5145POPC   C3B25833   1.159  13.112   7.950
 5145POPC   C4B25834   1.201  13.060   7.650
 5146POPC   NC325835  14.400  26.053   9.450
 5146POPC   PO425836  14.399  26.037   9.150
 5146POPC   GL125837  14.449  26.064   8.850
 5146POPC   GL225838  14.420  26.215   8.850
 5146POPC   C1A25839  14.372  26.068   8.550
 5146POPC   D2A25840  14.384  26.002   8.250
 5146POPC   C3A25841  14.393  26.086   7.950
 5146POPC   C4A25842  14.376  26.036   7.650
 5146POPC   C1B25843  14.422  26.259   8.550
 5146POPC   C2B25844  14.419  26.244   8.250
 5146POPC   C3B25845  14.460  26.252   7.950
 5146POPC   C4B25846  14.401  26.300   7.650
 5147POPC   NC325847  42.342  26.015   9.450
 5147POPC   PO425848  42.382  26.072   9.150
 5147POPC   GL125849  42.299  26.002   8.850
 5147POPC   GL225850  42.203  25.934   8.850
 5147POPC   C1A25851  42.348  25.998   8.550
 5147POPC   D2A25852  42.346  26.018   8.250
 5147POPC   C3A25853  42.309  26.084   7.950
 5147POPC   C4A25854  42.357  26.067   7.650
 5147POPC   C1B25855  42.141  25.903   8.550
 5147POPC   C2B25856  42.150  25.948   8.250
 5147POPC   C3B25857  42.148  25.905   7.950
 5147POPC   C4B25858  42.092  25.930   7.650
 5148POPC   NC325859  40.791  14.364   9.450
 5148POPC   PO425860  40.818  14.436   9.150
 5148POPC   GL125861  40.783  14.421   8.850
 5148POPC   GL225862  40.892  14.367   8.850
 5148POPC   C1A25863  40.759  14.421   8.550
 5148POPC   D2A25864  40.761  14.403   8.250
 5148POPC   C3A25865  40.791  14.367   7.950
 5148POPC   C4A25866  40.760  14.399   7.650
 5148POPC   C1B25867  40.989  14.359   8.550
 5148POPC   C2B25868  41.058  14.296   8.250
 5148POPC   C3B25869  41.047  14.326   7.950
 5148POPC   C4B25870  41.027  14.389   7.650
 5149POPC   NC325871  33.043  33.768   9.450
 5149POPC   PO425872  32.975  33.769   9.150
 5149POPC   GL125873  33.054  33.770   8.850
 5149POPC   GL225874  33.113  33.862   8.850
 5149POPC   C1A25875  33.024  33.789   8.550
 5149POPC   D2A25876  33.027  33.755   8.250
 5149POPC   C3A25877  32.981  33.822   7.950
 5149POPC   C4A25878  32.984  33.769   7.650
 5149POPC   C1B25879  33.178  33.972   8.550
 5149POPC   C2B25880  33.192  33.990   8.250
 5149POPC   C3B25881  33.243  33.965   7.950
 5149POPC   C4B25882  33.245  33.978   7.650
 5150POPC   NC325883  12.044   2.800   9.450
 5150POPC   PO425884  12.117   2.763   9.150
 5150POPC   GL125885  12.045   2.791   8.850
 5150POPC   GL225886  12.140   2.881   8.850
 5150POPC   C1A25887  12.077   2.728   8.550
 5150POPC   D2A25888  12.092   2.735   8.250
 5150POPC   C3A25889  12.032   2.806   7.950
 5150POPC   C4A25890  12.026   2.792   7.650
 5150POPC   C1B25891  12.263   2.946   8.550
 5150POPC   C2B25892  12.216   2.961   8.250
 5150POPC   C3B25893  12.272   2.969   7.950
 5150POPC   C4B25894  12.203   2.993   7.650
 5151POPC   NC325895  32.277  21.419   9.450
 5151POPC   PO425896  32.281  21.361   9.150
 5151POPC   GL125897  32.236  21.366   8.850
 5151POPC   GL225898  32.286  21.285   8.850
 5151POPC   C1A25899  32.229  21.365   8.550
 5151POPC   D2A25900  32.203  21.401   8.250
 5151POPC   C3A25901  32.240  21.404   7.950
 5151POPC   C4A25902  32.206  21.392   7.650
 5151POPC   C1B25903  32.344  21.172   8.550
 5151POPC   C2B25904  32.333  21.159   8.250
 5151POPC   C3B25905  32.317  21.191   7.950
 5151POPC   C4B25906  32.337  21.143   7.650
 5152POPC   NC325907   3.511  16.762   9.450
 5152POPC   PO425908   3.533  16.713   9.150
 5152POPC   GL125909   3.500  16.775   8.850
 5152POPC   GL225910   3.657  16.707   8.850
 5152POPC   C1A25911   3.581  16.708   8.550
 5152POPC   D2A25912   3.519  16.766   8.250
 5152POPC   C3A25913   3.509  16.727   7.950
 5152POPC   C4A25914   3.581  16.766   7.650
 5152POPC   C1B25915   3.812  16.651   8.550
 5152POPC   C2B25916   3.741  16.631   8.250
 5152POPC   C3B25917   3.807  16.715   7.950
 5152POPC   C4B25918   3.766  16.723   7.650
 5153POPC   NC325919  34.547  23.763   9.450
 5153POPC   PO425920  34.530  23.678   9.150
 5153POPC   GL125921  34.576  23.753   8.850
 5153POPC   GL225922  34.506  23.575   8.850
 5153POPC   C1A25923  34.602  23.759   8.550
 5153POPC   D2A25924  34.584  23.684   8.250
 5153POPC   C3A25925  34.624  23.675   7.950
 5153POPC   C4A25926  34.536  23.696   7.650
 5153POPC   C1B25927  34.532  23.433   8.550
 5153POPC   C2B25928  34.463  23.490   8.250
 5153POPC   C3B25929  34.523  23.475   7.950
 5153POPC   C4B25930  34.530  23.506   7.650
 5154POPC   NC325931  27.578   2.764   9.450
 5154POPC   PO425932  27.612   2.772   9.150
 5154POPC   GL125933  27.586   2.797   8.850
 5154POPC   GL225934  27.689   2.779   8.850
 5154POPC   C1A25935  27.623   2.780   8.550
 5154POPC   D2A25936  27.556   2.783   8.250
 5154POPC   C3A25937  27.616   2.814   7.950
 5154POPC   C4A25938  27.629   2.780   7.650
 5154POPC   C1B25939  27.851   2.791   8.550
 5154POPC   C2B25940  27.810   2.860   8.250
 5154POPC   C3B25941  27.856   2.804   7.950
 5154POPC   C4B25942  27.822   2.810   7.650
 5155POPC   NC325943  15.984   4.296   9.450
 5155POPC   PO425944  15.984   4.338   9.150
 5155POPC   GL125945  15.931   4.341   8.850
 5155POPC   GL225946  16.031   4.424   8.850
 5155POPC   C1A25947  15.980   4.316   8.550
 5155POPC   D2A25948  16.001   4.297   8.250
 5155POPC   C3A25949  15.966   4.317   7.950
 5155POPC   C4A25950  15.963   4.350   7.650
 5155POPC   C1B25951  16.090   4.555   8.550
 5155POPC   C2B25952  16.007   4.596   8.250
 5155POPC   C3B25953  16.046   4.593   7.950
 5155POPC   C4B25954  16.091   4.527   7.650
 5156POPC   NC325955  11.294  15.180   9.450
 5156POPC   PO425956  11.301  15.219   9.150
 5156POPC   GL125957  11.296  15.163   8.850
 5156POPC   GL225958  11.150  15.118   8.850
 5156POPC   C1A25959  11.332  15.143   8.550
 5156POPC   D2A25960  11.347  15.181   8.250
 5156POPC   C3A25961  11.299  15.175   7.950
 5156POPC   C4A25962  11.282  15.201   7.650
 5156POPC   C1B25963  11.072  15.171   8.550
 5156POPC   C2B25964  11.028  15.167   8.250
 5156POPC   C3B25965  11.016  15.138   7.950
 5156POPC   C4B25966  11.074  15.148   7.650
 5157POPC   NC325967  26.842   4.323   9.450
 5157POPC   PO425968  26.845   4.333   9.150
 5157POPC   GL125969  26.820   4.362   8.850
 5157POPC   GL225970  26.816   4.186   8.850
 5157POPC   C1A25971  26.834   4.292   8.550
 5157POPC   D2A25972  26.771   4.364   8.250
 5157POPC   C3A25973  26.828   4.278   7.950
 5157POPC   C4A25974  26.792   4.328   7.650
 5157POPC   C1B25975  26.735   4.075   8.550
 5157POPC   C2B25976  26.720   4.079   8.250
 5157POPC   C3B25977  26.759   4.087   7.950
 5157POPC   C4B25978  26.744   4.053   7.650
 5158POPC   NC325979  17.509  43.915   9.450
 5158POPC   PO425980  17.470  43.888   9.150
 5158POPC   GL125981  17.496  43.845   8.850
 5158POPC   GL225982  17.415  43.956   8.850
 5158POPC   C1A25983  17.529  43.898   8.550
 5158POPC   D2A25984  17.534  43.839   8.250
 5158POPC   C3A25985  17.469  43.895   7.950
 5158POPC   C4A25986  17.494  43.883   7.650
 5158POPC   C1B25987  17.388  44.095   8.550
 5158POPC   C2B25988  17.433  44.147   8.250
 5158POPC   C3B25989  17.411  44.076   7.950
 5158POPC   C4B25990  17.407  44.160   7.650
 5159POPC   NC325991  13.618  44.615   9.450
 5159POPC   PO425992  13.677  44.633   9.150
 5159POPC   GL125993  13.602  44.656   8.850
 5159POPC   GL225994  13.484  44.567   8.850
 5159POPC   C1A25995  13.604  44.688   8.550
 5159POPC   D2A25996  13.580  44.642   8.250
 5159POPC   C3A25997  13.647  44.631   7.950
 5159POPC   C4A25998  13.581  44.685   7.650
 5159POPC   C1B25999  13.473  44.456   8.550
 5159POPC   C2B26000  13.468  44.515   8.250
 5159POPC   C3B26001  13.458  44.450   7.950
 5159POPC   C4B26002  13.461  44.451   7.650
 5160POPC   NC326003  35.370   1.953   9.450
 5160POPC   PO426004  35.341   1.991   9.150
 5160POPC   GL126005  35.321   1.991   8.850
 5160POPC   GL226006  35.363   1.878   8.850
 5160POPC   C1A26007  35.330   1.972   8.550
 5160POPC   D2A26008  35.318   2.006   8.250
 5160POPC   C3A26009  35.335   1.999   7.950
 5160POPC   C4A26010  35.320   1.967   7.650
 5160POPC   C1B26011  35.322   1.759   8.550
 5160POPC   C2B26012  35.291   1.696   8.250
 5160POPC   C3B26013  35.265   1.694   7.950
 5160POPC   C4B26014  35.342   1.712   7.650
 5161POPC   NC326015   2.781  31.511   9.450
 5161POPC   PO426016   2.791  31.448   9.150
 5161POPC   GL126017   2.808  31.426   8.850
 5161POPC   GL226018   2.743  31.563   8.850
 5161POPC   C1A26019   2.801  31.459   8.550
 5161POPC   D2A26020   2.815  31.488   8.250
 5161POPC   C3A26021   2.740  31.456   7.950
 5161POPC   C4A26022   2.800  31.458   7.650
 5161POPC   C1B26023   2.696  31.699   8.550
 5161POPC   C2B26024   2.756  31.729   8.250
 5161POPC   C3B26025   2.745  31.729   7.950
 5161POPC   C4B26026   2.698  31.687   7.650
 5162POPC   NC326027   2.020  37.676   9.450
 5162POPC   PO426028   1.973  37.643   9.150
 5162POPC   GL126029   1.980  37.659   8.850
 5162POPC   GL226030   2.113  37.740   8.850
 5162POPC   C1A26031   1.993  37.643   8.550
 5162POPC   D2A26032   2.022  37.630   8.250
 5162POPC   C3A26033   2.001  37.705   7.950
 5162POPC   C4A26034   2.005  37.656   7.650
 5162POPC   C1B26035   2.242  37.770   8.550
 5162POPC   C2B26036   2.170  37.811   8.250
 5162POPC   C3B26037   2.209  37.771   7.950
 5162POPC   C4B26038   2.187  37.793   7.650
 5163POPC   NC326039  41.589  21.414   9.450
 5163POPC   PO426040  41.584  21.417   9.150
 5163POPC   GL126041  41.593  21.436   8.850
 5163POPC   GL226042  41.491  21.260   8.850
 5163POPC   C1A26043  41.583  21.398   8.550
 5163POPC   D2A26044  41.536  21.389   8.250
 5163POPC   C3A26045  41.513  21.340   7.950
 5163POPC   C4A26046  41.554  21.394   7.650
 5163POPC   C1B26047  41.422  21.148   8.550
 5163POPC   C2B26048  41.415  21.220   8.250
 5163POPC   C3B26049  41.441  21.192   7.950
 5163POPC   C4B26050  41.366  21.205   7.650
 5164POPC   NC326051  32.220  38.481   9.450
 5164POPC   PO426052  32.233  38.462   9.150
 5164POPC   GL126053  32.219  38.490   8.850
 5164POPC   GL226054  32.157  38.549   8.850
 5164POPC   C1A26055  32.248  38.470   8.550
 5164POPC   D2A26056  32.226  38.451   8.250
 5164POPC   C3A26057  32.245  38.449   7.950
 5164POPC   C4A26058  32.251  38.436   7.650
 5164POPC   C1B26059  32.114  38.602   8.550
 5164POPC   C2B26060  32.121  38.676   8.250
 5164POPC   C3B26061  32.085  38.688   7.950
 5164POPC   C4B26062  32.066  38.634   7.650
 5165POPC   NC326063  10.491  29.138   9.450
 5165POPC   PO426064  10.545  29.147   9.150
 5165POPC   GL126065  10.477  29.100   8.850
 5165POPC   GL226066  10.671  29.082   8.850
 5165POPC   C1A26067  10.511  29.114   8.550
 5165POPC   D2A26068  10.516  29.163   8.250
 5165POPC   C3A26069  10.510  29.127   7.950
 5165POPC   C4A26070  10.567  29.161   7.650
 5165POPC   C1B26071  10.735  28.963   8.550
 5165POPC   C2B26072  10.717  29.016   8.250
 5165POPC   C3B26073  10.757  29.012   7.950
 5165POPC   C4B26074  10.778  29.043   7.650
 5166POPC   NC326075  32.255  31.431   9.450
 5166POPC   PO426076  32.226  31.480   9.150
 5166POPC   GL126077  32.298  31.482   8.850
 5166POPC   GL226078  32.090  31.374   8.850
 5166POPC   C1A26079  32.259  31.476   8.550
 5166POPC   D2A26080  32.286  31.482   8.250
 5166POPC   C3A26081  32.295  31.439   7.950
 5166POPC   C4A26082  32.237  31.425   7.650
 5166POPC   C1B26083  32.015  31.356   8.550
 5166POPC   C2B26084  31.986  31.375   8.250
 5166POPC   C3B26085  32.050  31.336   7.950
 5166POPC   C4B26086  32.075  31.335   7.650
 5167POPC   NC326087  19.031  41.533   9.450
 5167POPC   PO426088  19.047  41.574   9.150
 5167POPC   GL126089  19.103  41.589   8.850
 5167POPC   GL226090  18.987  41.495   8.850
 5167POPC   C1A26091  19.082  41.574   8.550
 5167POPC   D2A26092  19.032  41.588   8.250
 5167POPC   C3A26093  19.023  41.556   7.950
 5167POPC   C4A26094  19.050  41.526   7.650
 5167POPC   C1B26095  18.866  41.406   8.550
 5167POPC   C2B26096  18.867  41.432   8.250
 5167POPC   C3B26097  18.824  41.375   7.950
 5167POPC   C4B26098  18.858  41.402   7.650
 5168POPC   NC326099  36.935  43.933   9.450
 5168POPC   PO426100  36.864  43.927   9.150
 5168POPC   GL126101  36.896  43.853   8.850
 5168POPC   GL226102  36.931  43.721   8.850
 5168POPC   C1A26103  36.877  43.906   8.550
 5168POPC   D2A26104  36.919  43.928   8.250
 5168POPC   C3A26105  36.924  43.853   7.950
 5168POPC   C4A26106  36.856  43.904   7.650
 5168POPC   C1B26107  36.925  43.675   8.550
 5168POPC   C2B26108  36.927  43.675   8.250
 5168POPC   C3B26109  36.886  43.611   7.950
 5168POPC   C4B26110  36.917  43.631   7.650
 5169POPC   NC326111  28.330   7.463   9.450
 5169POPC   PO426112  28.381   7.445   9.150
 5169POPC   GL126113  28.320   7.409   8.850
 5169POPC   GL226114  28.361   7.318   8.850
 5169POPC   C1A26115  28.349   7.389   8.550
 5169POPC   D2A26116  28.362   7.383   8.250
 5169POPC   C3A26117  28.364   7.449   7.950
 5169POPC   C4A26118  28.389   7.385   7.650
 5169POPC   C1B26119  28.275   7.221   8.550
 5169POPC   C2B26120  28.306   7.152   8.250
 5169POPC   C3B26121  28.222   7.198   7.950
 5169POPC   C4B26122  28.259   7.217   7.650
 5170POPC   NC326123  20.634  12.089   9.450
 5170POPC   PO426124  20.568  12.075   9.150
 5170POPC   GL126125  20.566  12.064   8.850
 5170POPC   GL226126  20.442  12.086   8.850
 5170POPC   C1A26127  20.658  12.043   8.550
 5170POPC   D2A26128  20.570  12.105   8.250
 5170POPC   C3A26129  20.618  12.087   7.950
 5170POPC   C4A26130  20.581  12.112   7.650
 5170POPC   C1B26131  20.341  11.980   8.550
 5170POPC   C2B26132  20.407  11.954   8.250
 5170POPC   C3B26133  20.416  12.012   7.950
 5170POPC   C4B26134  20.403  11.981   7.650
 5171POPC   NC326135  42.336  10.555   9.450
 5171POPC   PO426136  42.380  10.557   9.150
 5171POPC   GL126137  42.326  10.488   8.850
 5171POPC   GL226138  42.478  10.465   8.850
 5171POPC   C1A26139  42.378  10.475   8.550
 5171POPC   D2A26140  42.320  10.548   8.250
 5171POPC   C3A26141  42.316  10.485   7.950
 5171POPC   C4A26142  42.332  10.510   7.650
 5171POPC   C1B26143  42.541  10.417   8.550
 5171POPC   C2B26144  42.552  10.407   8.250
 5171POPC   C3B26145  42.535  10.423   7.950
 5171POPC   C4B26146  42.528  10.341   7.650
 5172POPC   NC326147   3.531  20.608   9.450
 5172POPC   PO426148   3.503  20.617   9.150
 5172POPC   GL126149   3.496  20.619   8.850
 5172POPC   GL226150   3.390  20.659   8.850
 5172POPC   C1A26151   3.499  20.633   8.550
 5172POPC   D2A26152   3.526  20.590   8.250
 5172POPC   C3A26153   3.536  20.652   7.950
 5172POPC   C4A26154   3.507  20.621   7.650
 5172POPC   C1B26155   3.252  20.626   8.550
 5172POPC   C2B26156   3.286  20.656   8.250
 5172POPC   C3B26157   3.286  20.635   7.950
 5172POPC   C4B26158   3.253  20.635   7.650
 5173POPC   NC326159  32.993  22.970   9.450
 5173POPC   PO426160  33.073  22.916   9.150
 5173POPC   GL126161  33.029  22.891   8.850
 5173POPC   GL226162  32.977  23.004   8.850
 5173POPC   C1A26163  33.049  22.959   8.550
 5173POPC   D2A26164  32.990  22.889   8.250
 5173POPC   C3A26165  32.988  22.911   7.950
 5173POPC   C4A26166  32.995  22.900   7.650
 5173POPC   C1B26167  32.916  23.089   8.550
 5173POPC   C2B26168  32.852  23.185   8.250
 5173POPC   C3B26169  32.851  23.143   7.950
 5173POPC   C4B26170  32.882  23.162   7.650
 5174POPC   NC326171  14.359  29.182   9.450
 5174POPC   PO426172  14.433  29.125   9.150
 5174POPC   GL126173  14.400  29.178   8.850
 5174POPC   GL226174  14.239  29.236   8.850
 5174POPC   C1A26175  14.420  29.159   8.550
 5174POPC   D2A26176  14.369  29.109   8.250
 5174POPC   C3A26177  14.404  29.121   7.950
 5174POPC   C4A26178  14.371  29.108   7.650
 5174POPC   C1B26179  14.189  29.240   8.550
 5174POPC   C2B26180  14.175  29.244   8.250
 5174POPC   C3B26181  14.157  29.227   7.950
 5174POPC   C4B26182  14.152  29.209   7.650
 5175POPC   NC326183  11.286  43.130   9.450
 5175POPC   PO426184  11.342  43.105   9.150
 5175POPC   GL126185  11.290  43.100   8.850
 5175POPC   GL226186  11.137  43.181   8.850
 5175POPC   C1A26187  11.260  43.136   8.550
 5175POPC   D2A26188  11.289  43.146   8.250
 5175POPC   C3A26189  11.290  43.137   7.950
 5175POPC   C4A26190  11.306  43.149   7.650
 5175POPC   C1B26191  11.067  43.173   8.550
 5175POPC   C2B26192  11.051  43.158   8.250
 5175POPC   C3B26193  11.095  43.141   7.950
 5175POPC   C4B26194  11.046  43.155   7.650
 5176POPC   NC326195  43.925   6.682   9.450
 5176POPC   PO426196  43.846   6.677   9.150
 5176POPC   GL126197  43.846   6.596   8.850
 5176POPC   GL226198  43.939   6.592   8.850
 5176POPC   C1A26199  43.879   6.679   8.550
 5176POPC   D2A26200  43.869   6.667   8.250
 5176POPC   C3A26201  43.871   6.653   7.950
 5176POPC   C4A26202  43.906   6.690   7.650
 5176POPC   C1B26203  44.055   6.450   8.550
 5176POPC   C2B26204  44.106   6.478   8.250
 5176POPC   C3B26205  44.096   6.496   7.950
 5176POPC   C4B26206  44.132   6.511   7.650
 5177POPC   NC326207  17.497   7.385   9.450
 5177POPC   PO426208  17.471   7.408   9.150
 5177POPC   GL126209  17.466   7.401   8.850
 5177POPC   GL226210  17.627   7.398   8.850
 5177POPC   C1A26211  17.540   7.415   8.550
 5177POPC   D2A26212  17.491   7.384   8.250
 5177POPC   C3A26213  17.522   7.400   7.950
 5177POPC   C4A26214  17.522   7.409   7.650
 5177POPC   C1B26215  17.744   7.265   8.550
 5177POPC   C2B26216  17.688   7.291   8.250
 5177POPC   C3B26217  17.759   7.272   7.950
 5177POPC   C4B26218  17.724   7.281   7.650
 5178POPC   NC326219   0.400  38.442   9.450
 5178POPC   PO426220   0.474  38.479   9.150
 5178POPC   GL126221   0.453  38.461   8.850
 5178POPC   GL226222   0.360  38.353   8.850
 5178POPC   C1A26223   0.403  38.422   8.550
 5178POPC   D2A26224   0.460  38.477   8.250
 5178POPC   C3A26225   0.469  38.410   7.950
 5178POPC   C4A26226   0.478  38.411   7.650
 5178POPC   C1B26227   0.270  38.342   8.550
 5178POPC   C2B26228   0.227  38.319   8.250
 5178POPC   C3B26229   0.266  38.314   7.950
 5178POPC   C4B26230   0.202  38.263   7.650
 5179POPC   NC326231   0.392  40.734   9.450
 5179POPC   PO426232   0.465  40.745   9.150
 5179POPC   GL126233   0.416  40.755   8.850
 5179POPC   GL226234   0.456  40.950   8.850
 5179POPC   C1A26235   0.420  40.818   8.550
 5179POPC   D2A26236   0.401  40.768   8.250
 5179POPC   C3A26237   0.436  40.785   7.950
 5179POPC   C4A26238   0.450  40.768   7.650
 5179POPC   C1B26239   0.400  41.023   8.550
 5179POPC   C2B26240   0.391  41.014   8.250
 5179POPC   C3B26241   0.435  41.063   7.950
 5179POPC   C4B26242   0.370  41.020   7.650
 5180POPC   NC326243   5.830  27.635   9.450
 5180POPC   PO426244   5.835  27.626   9.150
 5180POPC   GL126245   5.899  27.599   8.850
 5180POPC   GL226246   5.838  27.715   8.850
 5180POPC   C1A26247   5.855  27.569   8.550
 5180POPC   D2A26248   5.903  27.614   8.250
 5180POPC   C3A26249   5.824  27.642   7.950
 5180POPC   C4A26250   5.897  27.605   7.650
 5180POPC   C1B26251   5.865  27.886   8.550
 5180POPC   C2B26252   5.821  27.866   8.250
 5180POPC   C3B26253   5.804  27.866   7.950
 5180POPC   C4B26254   5.849  27.879   7.650
 5181POPC   NC326255  22.211   6.623   9.450
 5181POPC   PO426256  22.181   6.669   9.150
 5181POPC   GL126257  22.191   6.661   8.850
 5181POPC   GL226258  22.316   6.572   8.850
 5181POPC   C1A26259  22.120   6.640   8.550
 5181POPC   D2A26260  22.175   6.630   8.250
 5181POPC   C3A26261  22.160   6.606   7.950
 5181POPC   C4A26262  22.120   6.647   7.650
 5181POPC   C1B26263  22.397   6.527   8.550
 5181POPC   C2B26264  22.443   6.569   8.250
 5181POPC   C3B26265  22.401   6.574   7.950
 5181POPC   C4B26266  22.355   6.599   7.650
 5182POPC   NC326267  15.168  22.187   9.450
 5182POPC   PO426268  15.196  22.157   9.150
 5182POPC   GL126269  15.222  22.158   8.850
 5182POPC   GL226270  15.341  22.158   8.850
 5182POPC   C1A26271  15.179  22.198   8.550
 5182POPC   D2A26272  15.185  22.161   8.250
 5182POPC   C3A26273  15.226  22.144   7.950
 5182POPC   C4A26274  15.145  22.184   7.650
 5182POPC   C1B26275  15.390  22.106   8.550
 5182POPC   C2B26276  15.430  22.120   8.250
 5182POPC   C3B26277  15.387  22.142   7.950
 5182POPC   C4B26278  15.425  22.093   7.650
 5183POPC   NC326279  24.535   4.292   9.450
 5183POPC   PO426280  24.477   4.277   9.150
 5183POPC   GL126281  24.503   4.320   8.850
 5183POPC   GL226282  24.482   4.189   8.850
 5183POPC   C1A26283  24.507   4.286   8.550
 5183POPC   D2A26284  24.449   4.351   8.250
 5183POPC   C3A26285  24.513   4.359   7.950
 5183POPC   C4A26286  24.482   4.292   7.650
 5183POPC   C1B26287  24.570   4.035   8.550
 5183POPC   C2B26288  24.566   4.042   8.250
 5183POPC   C3B26289  24.521   4.120   7.950
 5183POPC   C4B26290  24.508   4.105   7.650
 5184POPC   NC326291  13.653  15.139   9.450
 5184POPC   PO426292  13.593  15.187   9.150
 5184POPC   GL126293  13.610  15.220   8.850
 5184POPC   GL226294  13.739  15.203   8.850
 5184POPC   C1A26295  13.661  15.189   8.550
 5184POPC   D2A26296  13.666  15.226   8.250
 5184POPC   C3A26297  13.589  15.209   7.950
 5184POPC   C4A26298  13.643  15.201   7.650
 5184POPC   C1B26299  13.885  15.225   8.550
 5184POPC   C2B26300  13.858  15.193   8.250
 5184POPC   C3B26301  13.878  15.194   7.950
 5184POPC   C4B26302  13.888  15.167   7.650
 5185POPC   NC326303  26.076  28.415   9.450
 5185POPC   PO426304  26.020  28.341   9.150
 5185POPC   GL126305  26.083  28.412   8.850
 5185POPC   GL226306  26.161  28.334   8.850
 5185POPC   C1A26307  26.025  28.369   8.550
 5185POPC   D2A26308  26.018  28.321   8.250
 5185POPC   C3A26309  26.028  28.321   7.950
 5185POPC   C4A26310  25.991  28.341   7.650
 5185POPC   C1B26311  26.258  28.221   8.550
 5185POPC   C2B26312  26.257  28.268   8.250
 5185POPC   C3B26313  26.277  28.273   7.950
 5185POPC   C4B26314  26.291  28.255   7.650
 5186POPC   NC326315  37.708  40.816   9.450
 5186POPC   PO426316  37.695  40.740   9.150
 5186POPC   GL126317  37.676  40.753   8.850
 5186POPC   GL226318  37.699  40.634   8.850
 5186POPC   C1A26319  37.640  40.789   8.550
 5186POPC   D2A26320  37.659  40.758   8.250
 5186POPC   C3A26321  37.668  40.773   7.950
 5186POPC   C4A26322  37.659  40.815   7.650
 5186POPC   C1B26323  37.725  40.523   8.550
 5186POPC   C2B26324  37.709  40.510   8.250
 5186POPC   C3B26325  37.785  40.585   7.950
 5186POPC   C4B26326  37.743  40.525   7.650
 5187POPC   NC326327  31.479  31.512   9.450
 5187POPC   PO426328  31.490  31.466   9.150
 5187POPC   GL126329  31.470  31.500   8.850
 5187POPC   GL226330  31.348  31.558   8.850
 5187POPC   C1A26331  31.453  31.428   8.550
 5187POPC   D2A26332  31.423  31.447   8.250
 5187POPC   C3A26333  31.520  31.478   7.950
 5187POPC   C4A26334  31.502  31.489   7.650
 5187POPC   C1B26335  31.255  31.649   8.550
 5187POPC   C2B26336  31.314  31.629   8.250
 5187POPC   C3B26337  31.263  31.640   7.950
 5187POPC   C4B26338  31.316  31.595   7.650
 5188POPC   NC326339  25.994  22.151   9.450
 5188POPC   PO426340  26.024  22.176   9.150
 5188POPC   GL126341  26.001  22.206   8.850
 5188POPC   GL226342  26.040  22.043   8.850
 5188POPC   C1A26343  25.995  22.183   8.550
 5188POPC   D2A26344  26.016  22.143   8.250
 5188POPC   C3A26345  26.028  22.129   7.950
 5188POPC   C4A26346  25.994  22.207   7.650
 5188POPC   C1B26347  25.948  21.895   8.550
 5188POPC   C2B26348  26.003  21.961   8.250
 5188POPC   C3B26349  26.013  21.870   7.950
 5188POPC   C4B26350  25.958  21.931   7.650
 5189POPC   NC326351  34.562   3.567   9.450
 5189POPC   PO426352  34.582   3.588   9.150
 5189POPC   GL126353  34.606   3.578   8.850
 5189POPC   GL226354  34.587   3.634   8.850
 5189POPC   C1A26355  34.544   3.563   8.550
 5189POPC   D2A26356  34.551   3.569   8.250
 5189POPC   C3A26357  34.561   3.496   7.950
 5189POPC   C4A26358  34.603   3.560   7.650
 5189POPC   C1B26359  34.519   3.757   8.550
 5189POPC   C2B26360  34.550   3.808   8.250
 5189POPC   C3B26361  34.533   3.750   7.950
 5189POPC   C4B26362  34.548   3.806   7.650
 5190POPC   NC326363   5.077  22.927   9.450
 5190POPC   PO426364   5.121  22.963   9.150
 5190POPC   GL126365   5.138  22.917   8.850
 5190POPC   GL226366   5.045  22.791   8.850
 5190POPC   C1A26367   5.102  22.964   8.550
 5190POPC   D2A26368   5.100  22.931   8.250
 5190POPC   C3A26369   5.101  22.987   7.950
 5190POPC   C4A26370   5.091  22.955   7.650
 5190POPC   C1B26371   4.924  22.695   8.550
 5190POPC   C2B26372   4.998  22.767   8.250
 5190POPC   C3B26373   5.004  22.726   7.950
 5190POPC   C4B26374   4.998  22.737   7.650
 5191POPC   NC326375  30.696  19.079   9.450
 5191POPC   PO426376  30.738  19.098   9.150
 5191POPC   GL126377  30.672  19.092   8.850
 5191POPC   GL226378  30.654  19.132   8.850
 5191POPC   C1A26379  30.743  19.064   8.550
 5191POPC   D2A26380  30.653  19.049   8.250
 5191POPC   C3A26381  30.730  19.071   7.950
 5191POPC   C4A26382  30.715  19.041   7.650
 5191POPC   C1B26383  30.540  19.227   8.550
 5191POPC   C2B26384  30.613  19.285   8.250
 5191POPC   C3B26385  30.540  19.253   7.950
 5191POPC   C4B26386  30.576  19.275   7.650
 5192POPC   NC326387  26.057   3.540   9.450
 5192POPC   PO426388  26.027   3.562   9.150
 5192POPC   GL126389  26.039   3.566   8.850
 5192POPC   GL226390  25.931   3.619   8.850
 5192POPC   C1A26391  26.025   3.548   8.550
 5192POPC   D2A26392  26.090   3.527   8.250
 5192POPC   C3A26393  25.994   3.568   7.950
 5192POPC   C4A26394  26.067   3.508   7.650
 5192POPC   C1B26395  25.842   3.708   8.550
 5192POPC   C2B26396  25.897   3.692   8.250
 5192POPC   C3B26397  25.881   3.724   7.950
 5192POPC   C4B26398  25.882   3.744   7.650
 5193POPC   NC326399  12.084  33.017   9.450
 5193POPC   PO426400  12.086  32.989   9.150
 5193POPC   GL126401  12.074  32.986   8.850
 5193POPC   GL226402  11.988  32.969   8.850
 5193POPC   C1A26403  12.077  32.981   8.550
 5193POPC   D2A26404  12.098  33.017   8.250
 5193POPC   C3A26405  12.092  33.037   7.950
 5193POPC   C4A26406  12.043  33.048   7.650
 5193POPC   C1B26407  11.914  32.796   8.550
 5193POPC   C2B26408  11.895  32.783   8.250
 5193POPC   C3B26409  11.940  32.833   7.950
 5193POPC   C4B26410  11.896  32.822   7.650
 5194POPC   NC326411  40.053  37.638   9.450
 5194POPC   PO426412  40.008  37.715   9.150
 5194POPC   GL126413  40.021  37.634   8.850
 5194POPC   GL226414  39.895  37.656   8.850
 5194POPC   C1A26415  40.043  37.633   8.550
 5194POPC   D2A26416  39.957  37.639   8.250
 5194POPC   C3A26417  39.973  37.648   7.950
 5194POPC   C4A26418  40.050  37.696   7.650
 5194POPC   C1B26419  39.721  37.713   8.550
 5194POPC   C2B26420  39.764  37.737   8.250
 5194POPC   C3B26421  39.795  37.719   7.950
 5194POPC   C4B26422  39.750  37.747   7.650
 5195POPC   NC326423  28.334   5.841   9.450
 5195POPC   PO426424  28.409   5.834   9.150
 5195POPC   GL126425  28.383   5.917   8.850
 5195POPC   GL226426  28.385   5.951   8.850
 5195POPC   C1A26427  28.348   5.877   8.550
 5195POPC   D2A26428  28.350   5.856   8.250
 5195POPC   C3A26429  28.350   5.869   7.950
 5195POPC   C4A26430  28.407   5.850   7.650
 5195POPC   C1B26431  28.281   6.077   8.550
 5195POPC   C2B26432  28.320   6.142   8.250
 5195POPC   C3B26433  28.296   6.072   7.950
 5195POPC   C4B26434  28.309   6.131   7.650
 5196POPC   NC326435  24.466  36.870   9.450
 5196POPC   PO426436  24.494  36.913   9.150
 5196POPC   GL126437  24.454  36.882   8.850
 5196POPC   GL226438  24.352  36.955   8.850
 5196POPC   C1A26439  24.456  36.915   8.550
 5196POPC   D2A26440  24.511  36.888   8.250
 5196POPC   C3A26441  24.512  36.903   7.950
 5196POPC   C4A26442  24.487  36.910   7.650
 5196POPC   C1B26443  24.285  37.061   8.550
 5196POPC   C2B26444  24.294  37.018   8.250
 5196POPC   C3B26445  24.283  37.081   7.950
 5196POPC   C4B26446  24.298  37.038   7.650
 5197POPC   NC326447  31.447  34.575   9.450
 5197POPC   PO426448  31.507  34.570   9.150
 5197POPC   GL126449  31.431  34.583   8.850
 5197POPC   GL226450  31.601  34.593   8.850
 5197POPC   C1A26451  31.512  34.601   8.550
 5197POPC   D2A26452  31.424  34.618   8.250
 5197POPC   C3A26453  31.475  34.568   7.950
 5197POPC   C4A26454  31.493  34.612   7.650
 5197POPC   C1B26455  31.726  34.648   8.550
 5197POPC   C2B26456  31.728  34.691   8.250
 5197POPC   C3B26457  31.733  34.696   7.950
 5197POPC   C4B26458  31.733  34.639   7.650
 5198POPC   NC326459  36.887  19.850   9.450
 5198POPC   PO426460  36.871  19.836   9.150
 5198POPC   GL126461  36.866  19.788   8.850
 5198POPC   GL226462  36.965  19.746   8.850
 5198POPC   C1A26463  36.886  19.865   8.550
 5198POPC   D2A26464  36.952  19.807   8.250
 5198POPC   C3A26465  36.913  19.865   7.950
 5198POPC   C4A26466  36.884  19.834   7.650
 5198POPC   C1B26467  37.016  19.644   8.550
 5198POPC   C2B26468  37.083  19.673   8.250
 5198POPC   C3B26469  37.022  19.649   7.950
 5198POPC   C4B26470  37.012  19.620   7.650
 5199POPC   NC326471   7.445  38.424   9.450
 5199POPC   PO426472   7.385  38.486   9.150
 5199POPC   GL126473   7.441  38.420   8.850
 5199POPC   GL226474   7.398  38.533   8.850
 5199POPC   C1A26475   7.463  38.453   8.550
 5199POPC   D2A26476   7.398  38.478   8.250
 5199POPC   C3A26477   7.426  38.421   7.950
 5199POPC   C4A26478   7.373  38.447   7.650
 5199POPC   C1B26479   7.412  38.740   8.550
 5199POPC   C2B26480   7.467  38.693   8.250
 5199POPC   C3B26481   7.432  38.745   7.950
 5199POPC   C4B26482   7.428  38.665   7.650
 5200POPC   NC326483  29.120   2.788   9.450
 5200POPC   PO426484  29.151   2.765   9.150
 5200POPC   GL126485  29.137   2.778   8.850
 5200POPC   GL226486  29.172   2.670   8.850
 5200POPC   C1A26487  29.117   2.785   8.550
 5200POPC   D2A26488  29.161   2.775   8.250
 5200POPC   C3A26489  29.176   2.731   7.950
 5200POPC   C4A26490  29.133   2.798   7.650
 5200POPC   C1B26491  29.214   2.547   8.550
 5200POPC   C2B26492  29.288   2.587   8.250
 5200POPC   C3B26493  29.245   2.510   7.950
 5200POPC   C4B26494  29.294   2.499   7.650
 5201POPC   NC326495  28.355  23.705   9.450
 5201POPC   PO426496  28.387  23.671   9.150
 5201POPC   GL126497  28.349  23.664   8.850
 5201POPC   GL226498  28.390  23.636   8.850
 5201POPC   C1A26499  28.404  23.733   8.550
 5201POPC   D2A26500  28.343  23.710   8.250
 5201POPC   C3A26501  28.372  23.757   7.950
 5201POPC   C4A26502  28.326  23.748   7.650
 5201POPC   C1B26503  28.524  23.543   8.550
 5201POPC   C2B26504  28.547  23.471   8.250
 5201POPC   C3B26505  28.536  23.494   7.950
 5201POPC   C4B26506  28.520  23.468   7.650
 5202POPC   NC326507   2.025  43.149   9.450
 5202POPC   PO426508   1.943  43.076   9.150
 5202POPC   GL126509   2.016  43.135   8.850
 5202POPC   GL226510   1.817  43.048   8.850
 5202POPC   C1A26511   2.023  43.071   8.550
 5202POPC   D2A26512   1.952  43.070   8.250
 5202POPC   C3A26513   1.954  43.131   7.950
 5202POPC   C4A26514   2.038  43.069   7.650
 5202POPC   C1B26515   1.779  43.061   8.550
 5202POPC   C2B26516   1.715  43.109   8.250
 5202POPC   C3B26517   1.715  43.059   7.950
 5202POPC   C4B26518   1.697  43.093   7.650
 5203POPC   NC326519  41.557  20.599   9.450
 5203POPC   PO426520  41.537  20.586   9.150
 5203POPC   GL126521  41.534  20.577   8.850
 5203POPC   GL226522  41.525  20.451   8.850
 5203POPC   C1A26523  41.593  20.624   8.550
 5203POPC   D2A26524  41.561  20.628   8.250
 5203POPC   C3A26525  41.509  20.576   7.950
 5203POPC   C4A26526  41.551  20.607   7.650
 5203POPC   C1B26527  41.487  20.332   8.550
 5203POPC   C2B26528  41.458  20.351   8.250
 5203POPC   C3B26529  41.415  20.412   7.950
 5203POPC   C4B26530  41.458  20.397   7.650
 5204POPC   NC326531  41.550   8.223   9.450
 5204POPC   PO426532  41.573   8.245   9.150
 5204POPC   GL126533  41.587   8.170   8.850
 5204POPC   GL226534  41.396   8.169   8.850
 5204POPC   C1A26535  41.607   8.201   8.550
 5204POPC   D2A26536  41.537   8.165   8.250
 5204POPC   C3A26537  41.565   8.164   7.950
 5204POPC   C4A26538  41.546   8.201   7.650
 5204POPC   C1B26539  41.317   8.085   8.550
 5204POPC   C2B26540  41.305   8.108   8.250
 5204POPC   C3B26541  41.279   8.167   7.950
 5204POPC   C4B26542  41.290   8.141   7.650
 5205POPC   NC326543  12.889  19.101   9.450
 5205POPC   PO426544  12.879  19.109   9.150
 5205POPC   GL126545  12.856  19.045   8.850
 5205POPC   GL226546  12.939  18.938   8.850
 5205POPC   C1A26547  12.831  19.044   8.550
 5205POPC   D2A26548  12.830  19.042   8.250
 5205POPC   C3A26549  12.813  19.063   7.950
 5205POPC   C4A26550  12.806  19.017   7.650
 5205POPC   C1B26551  12.984  18.856   8.550
 5205POPC   C2B26552  12.965  18.790   8.250
 5205POPC   C3B26553  12.932  18.851   7.950
 5205POPC   C4B26554  12.949  18.877   7.650
 5206POPC   NC326555  11.311  28.400   9.450
 5206POPC   PO426556  11.289  28.407   9.150
 5206POPC   GL126557  11.320  28.412   8.850
 5206POPC   GL226558  11.224  28.456   8.850
 5206POPC   C1A26559  11.285  28.416   8.550
 5206POPC   D2A26560  11.342  28.331   8.250
 5206POPC   C3A26561  11.257  28.409   7.950
 5206POPC   C4A26562  11.327  28.324   7.650
 5206POPC   C1B26563  11.107  28.587   8.550
 5206POPC   C2B26564  11.096  28.550   8.250
 5206POPC   C3B26565  11.163  28.540   7.950
 5206POPC   C4B26566  11.119  28.587   7.650
 5207POPC   NC326567  34.575  19.835   9.450
 5207POPC   PO426568  34.623  19.877   9.150
 5207POPC   GL126569  34.601  19.851   8.850
 5207POPC   GL226570  34.485  19.685   8.850
 5207POPC   C1A26571  34.539  19.791   8.550
 5207POPC   D2A26572  34.625  19.806   8.250
 5207POPC   C3A26573  34.580  19.845   7.950
 5207POPC   C4A26574  34.585  19.853   7.650
 5207POPC   C1B26575  34.483  19.614   8.550
 5207POPC   C2B26576  34.464  19.655   8.250
 5207POPC   C3B26577  34.431  19.639   7.950
 5207POPC   C4B26578  34.486  19.643   7.650
 5208POPC   NC326579  12.870  12.044   9.450
 5208POPC   PO426580  12.890  12.072   9.150
 5208POPC   GL126581  12.864  12.123   8.850
 5208POPC   GL226582  12.753  12.152   8.850
 5208POPC   C1A26583  12.880  12.029   8.550
 5208POPC   D2A26584  12.827  12.047   8.250
 5208POPC   C3A26585  12.899  12.089   7.950
 5208POPC   C4A26586  12.894  12.031   7.650
 5208POPC   C1B26587  12.663  12.188   8.550
 5208POPC   C2B26588  12.583  12.115   8.250
 5208POPC   C3B26589  12.570  12.117   7.950
 5208POPC   C4B26590  12.641  12.176   7.650
 5209POPC   NC326591   6.598  16.731   9.450
 5209POPC   PO426592   6.688  16.700   9.150
 5209POPC   GL126593   6.665  16.725   8.850
 5209POPC   GL226594   6.568  16.750   8.850
 5209POPC   C1A26595   6.659  16.697   8.550
 5209POPC   D2A26596   6.652  16.694   8.250
 5209POPC   C3A26597   6.599  16.719   7.950
 5209POPC   C4A26598   6.638  16.694   7.650
 5209POPC   C1B26599   6.426  16.716   8.550
 5209POPC   C2B26600   6.359  16.792   8.250
 5209POPC   C3B26601   6.424  16.725   7.950
 5209POPC   C4B26602   6.413  16.792   7.650
 5210POPC   NC326603  40.751  15.150   9.450
 5210POPC   PO426604  40.811  15.141   9.150
 5210POPC   GL126605  40.760  15.177   8.850
 5210POPC   GL226606  40.855  15.240   8.850
 5210POPC   C1A26607  40.790  15.149   8.550
 5210POPC   D2A26608  40.800  15.219   8.250
 5210POPC   C3A26609  40.758  15.144   7.950
 5210POPC   C4A26610  40.801  15.150   7.650
 5210POPC   C1B26611  41.050  15.290   8.550
 5210POPC   C2B26612  41.047  15.303   8.250
 5210POPC   C3B26613  41.001  15.319   7.950
 5210POPC   C4B26614  41.023  15.317   7.650
 5211POPC   NC326615   9.744  28.341   9.450
 5211POPC   PO426616   9.763  28.335   9.150
 5211POPC   GL126617   9.776  28.376   8.850
 5211POPC   GL226618   9.703  28.269   8.850
 5211POPC   C1A26619   9.794  28.381   8.550
 5211POPC   D2A26620   9.706  28.345   8.250
 5211POPC   C3A26621   9.716  28.398   7.950
 5211POPC   C4A26622   9.777  28.360   7.650
 5211POPC   C1B26623   9.683  28.108   8.550
 5211POPC   C2B26624   9.770  28.113   8.250
 5211POPC   C3B26625   9.753  28.110   7.950
 5211POPC   C4B26626   9.705  28.103   7.650
 5212POPC   NC326627  34.578  10.566   9.450
 5212POPC   PO426628  34.541  10.559   9.150
 5212POPC   GL126629  34.559  10.497   8.850
 5212POPC   GL226630  34.686  10.582   8.850
 5212POPC   C1A26631  34.549  10.548   8.550
 5212POPC   D2A26632  34.616  10.506   8.250
 5212POPC   C3A26633  34.528  10.540   7.950
 5212POPC   C4A26634  34.584  10.533   7.650
 5212POPC   C1B26635  34.785  10.682   8.550
 5212POPC   C2B26636  34.755  10.630   8.250
 5212POPC   C3B26637  34.817  10.650   7.950
 5212POPC   C4B26638  34.817  10.605   7.650
 5213POPC   NC326639  34.532  21.365   9.450
 5213POPC   PO426640  34.579  21.397   9.150
 5213POPC   GL126641  34.585  21.413   8.850
 5213POPC   GL226642  34.499  21.306   8.850
 5213POPC   C1A26643  34.553  21.367   8.550
 5213POPC   D2A26644  34.595  21.343   8.250
 5213POPC   C3A26645  34.535  21.410   7.950
 5213POPC   C4A26646  34.554  21.376   7.650
 5213POPC   C1B26647  34.362  21.190   8.550
 5213POPC   C2B26648  34.434  21.203   8.250
 5213POPC   C3B26649  34.348  21.192   7.950
 5213POPC   C4B26650  34.370  21.258   7.650
 5214POPC   NC326651  25.253  41.575   9.450
 5214POPC   PO426652  25.246  41.513   9.150
 5214POPC   GL126653  25.266  41.602   8.850
 5214POPC   GL226654  25.302  41.451   8.850
 5214POPC   C1A26655  25.273  41.587   8.550
 5214POPC   D2A26656  25.279  41.573   8.250
 5214POPC   C3A26657  25.245  41.531   7.950
 5214POPC   C4A26658  25.216  41.542   7.650
 5214POPC   C1B26659  25.405  41.297   8.550
 5214POPC   C2B26660  25.335  41.373   8.250
 5214POPC   C3B26661  25.365  41.321   7.950
 5214POPC   C4B26662  25.415  41.311   7.650
 5215POPC   NC326663  13.580   3.567   9.450
 5215POPC   PO426664  13.579   3.514   9.150
 5215POPC   GL126665  13.666   3.502   8.850
 5215POPC   GL226666  13.727   3.620   8.850
 5215POPC   C1A26667  13.659   3.544   8.550
 5215POPC   D2A26668  13.584   3.553   8.250
 5215POPC   C3A26669  13.670   3.550   7.950
 5215POPC   C4A26670  13.624   3.534   7.650
 5215POPC   C1B26671  13.821   3.736   8.550
 5215POPC   C2B26672  13.859   3.744   8.250
 5215POPC   C3B26673  13.780   3.745   7.950
 5215POPC   C4B26674  13.860   3.665   7.650
 5216POPC   NC326675  33.065  21.345   9.450
 5216POPC   PO426676  33.052  21.383   9.150
 5216POPC   GL126677  33.035  21.381   8.850
 5216POPC   GL226678  33.089  21.480   8.850
 5216POPC   C1A26679  33.016  21.370   8.550
 5216POPC   D2A26680  33.045  21.429   8.250
 5216POPC   C3A26681  33.066  21.365   7.950
 5216POPC   C4A26682  33.013  21.384   7.650
 5216POPC   C1B26683  33.227  21.520   8.550
 5216POPC   C2B26684  33.271  21.519   8.250
 5216POPC   C3B26685  33.219  21.463   7.950
 5216POPC   C4B26686  33.245  21.485   7.650
 5217POPC   NC326687  37.649  26.055   9.450
 5217POPC   PO426688  37.699  26.000   9.150
 5217POPC   GL126689  37.662  26.003   8.850
 5217POPC   GL226690  37.535  25.997   8.850
 5217POPC   C1A26691  37.662  26.053   8.550
 5217POPC   D2A26692  37.643  26.007   8.250
 5217POPC   C3A26693  37.723  26.019   7.950
 5217POPC   C4A26694  37.654  26.082   7.650
 5217POPC   C1B26695  37.469  25.992   8.550
 5217POPC   C2B26696  37.487  25.934   8.250
 5217POPC   C3B26697  37.410  25.926   7.950
 5217POPC   C4B26698  37.392  25.935   7.650
 5218POPC   NC326699  36.922  26.854   9.450
 5218POPC   PO426700  36.877  26.815   9.150
 5218POPC   GL126701  36.933  26.864   8.850
 5218POPC   GL226702  36.827  26.663   8.850
 5218POPC   C1A26703  36.924  26.809   8.550
 5218POPC   D2A26704  36.891  26.795   8.250
 5218POPC   C3A26705  36.951  26.865   7.950
 5218POPC   C4A26706  36.900  26.774   7.650
 5218POPC   C1B26707  36.745  26.558   8.550
 5218POPC   C2B26708  36.742  26.608   8.250
 5218POPC   C3B26709  36.761  26.593   7.950
 5218POPC   C4B26710  36.784  26.600   7.650
 5219POPC   NC326711  22.173  43.922   9.450
 5219POPC   PO426712  22.171  43.903   9.150
 5219POPC   GL126713  22.177  43.912   8.850
 5219POPC   GL226714  22.152  44.042   8.850
 5219POPC   C1A26715  22.139  43.918   8.550
 5219POPC   D2A26716  22.160  43.914   8.250
 5219POPC   C3A26717  22.120  43.910   7.950
 5219POPC   C4A26718  22.198  43.879   7.650
 5219POPC   C1B26719  22.053  44.106   8.550
 5219POPC   C2B26720  22.113  44.167   8.250
 5219POPC   C3B26721  22.122  44.119   7.950
 5219POPC   C4B26722  22.129  44.084   7.650
 5220POPC   NC326723  10.551  35.365   9.450
 5220POPC   PO426724  10.539  35.391   9.150
 5220POPC   GL126725  10.500  35.354   8.850
 5220POPC   GL226726  10.424  35.286   8.850
 5220POPC   C1A26727  10.516  35.398   8.550
 5220POPC   D2A26728  10.562  35.377   8.250
 5220POPC   C3A26729  10.508  35.368   7.950
 5220POPC   C4A26730  10.549  35.309   7.650
 5220POPC   C1B26731  10.358  35.173   8.550
 5220POPC   C2B26732  10.281  35.202   8.250
 5220POPC   C3B26733  10.324  35.230   7.950
 5220POPC   C4B26734  10.350  35.211   7.650
 5221POPC   NC326735   2.734  36.917   9.450
 5221POPC   PO426736   2.805  36.936   9.150
 5221POPC   GL126737   2.727  36.916   8.850
 5221POPC   GL226738   2.651  36.783   8.850
 5221POPC   C1A26739   2.807  36.900   8.550
 5221POPC   D2A26740   2.779  36.947   8.250
 5221POPC   C3A26741   2.718  36.937   7.950
 5221POPC   C4A26742   2.809  36.925   7.650
 5221POPC   C1B26743   2.636  36.750   8.550
 5221POPC   C2B26744   2.555  36.769   8.250
 5221POPC   C3B26745   2.544  36.688   7.950
 5221POPC   C4B26746   2.559  36.754   7.650
 5222POPC   NC326747   4.330  15.134   9.450
 5222POPC   PO426748   4.353  15.216   9.150
 5222POPC   GL126749   4.274  15.221   8.850
 5222POPC   GL226750   4.246  15.255   8.850
 5222POPC   C1A26751   4.364  15.194   8.550
 5222POPC   D2A26752   4.354  15.197   8.250
 5222POPC   C3A26753   4.308  15.171   7.950
 5222POPC   C4A26754   4.363  15.182   7.650
 5222POPC   C1B26755   4.140  15.388   8.550
 5222POPC   C2B26756   4.149  15.391   8.250
 5222POPC   C3B26757   4.146  15.359   7.950
 5222POPC   C4B26758   4.184  15.333   7.650
 5223POPC   NC326759   5.079  16.738   9.450
 5223POPC   PO426760   5.124  16.692   9.150
 5223POPC   GL126761   5.084  16.721   8.850
 5223POPC   GL226762   5.051  16.673   8.850
 5223POPC   C1A26763   5.051  16.684   8.550
 5223POPC   D2A26764   5.119  16.711   8.250
 5223POPC   C3A26765   5.067  16.749   7.950
 5223POPC   C4A26766   5.077  16.690   7.650
 5223POPC   C1B26767   4.882  16.575   8.550
 5223POPC   C2B26768   4.892  16.530   8.250
 5223POPC   C3B26769   4.946  16.570   7.950
 5223POPC   C4B26770   4.862  16.543   7.650
 5224POPC   NC326771   1.181   7.457   9.450
 5224POPC   PO426772   1.203   7.390   9.150
 5224POPC   GL126773   1.170   7.447   8.850
 5224POPC   GL226774   1.123   7.495   8.850
 5224POPC   C1A26775   1.222   7.421   8.550
 5224POPC   D2A26776   1.214   7.434   8.250
 5224POPC   C3A26777   1.220   7.438   7.950
 5224POPC   C4A26778   1.255   7.383   7.650
 5224POPC   C1B26779   0.989   7.534   8.550
 5224POPC   C2B26780   0.989   7.570   8.250
 5224POPC   C3B26781   0.971   7.553   7.950
 5224POPC   C4B26782   0.973   7.576   7.650
 5225POPC   NC326783  15.131  24.497   9.450
 5225POPC   PO426784  15.139  24.448   9.150
 5225POPC   GL126785  15.158  24.539   8.850
 5225POPC   GL226786  15.286  24.394   8.850
 5225POPC   C1A26787  15.141  24.524   8.550
 5225POPC   D2A26788  15.155  24.489   8.250
 5225POPC   C3A26789  15.220  24.457   7.950
 5225POPC   C4A26790  15.191  24.513   7.650
 5225POPC   C1B26791  15.268  24.291   8.550
 5225POPC   C2B26792  15.280  24.284   8.250
 5225POPC   C3B26793  15.333  24.260   7.950
 5225POPC   C4B26794  15.318  24.285   7.650
 5226POPC   NC326795  23.763   7.376   9.450
 5226POPC   PO426796  23.730   7.436   9.150
 5226POPC   GL126797  23.725   7.449   8.850
 5226POPC   GL226798  23.598   7.353   8.850
 5226POPC   C1A26799  23.708   7.419   8.550
 5226POPC   D2A26800  23.694   7.436   8.250
 5226POPC   C3A26801  23.712   7.468   7.950
 5226POPC   C4A26802  23.672   7.408   7.650
 5226POPC   C1B26803  23.498   7.280   8.550
 5226POPC   C2B26804  23.548   7.276   8.250
 5226POPC   C3B26805  23.486   7.256   7.950
 5226POPC   C4B26806  23.492   7.259   7.650
 5227POPC   NC326807  29.150  29.166   9.450
 5227POPC   PO426808  29.160  29.141   9.150
 5227POPC   GL126809  29.180  29.140   8.850
 5227POPC   GL226810  29.131  29.292   8.850
 5227POPC   C1A26811  29.162  29.126   8.550
 5227POPC   D2A26812  29.113  29.169   8.250
 5227POPC   C3A26813  29.169  29.129   7.950
 5227POPC   C4A26814  29.105  29.134   7.650
 5227POPC   C1B26815  29.027  29.327   8.550
 5227POPC   C2B26816  29.062  29.328   8.250
 5227POPC   C3B26817  29.081  29.375   7.950
 5227POPC   C4B26818  28.991  29.327   7.650
 5228POPC   NC326819  12.875  42.358   9.450
 5228POPC   PO426820  12.825  42.344   9.150
 5228POPC   GL126821  12.885  42.324   8.850
 5228POPC   GL226822  12.891  42.439   8.850
 5228POPC   C1A26823  12.860  42.375   8.550
 5228POPC   D2A26824  12.847  42.307   8.250
 5228POPC   C3A26825  12.867  42.320   7.950
 5228POPC   C4A26826  12.838  42.324   7.650
 5228POPC   C1B26827  12.915  42.549   8.550
 5228POPC   C2B26828  12.954  42.537   8.250
 5228POPC   C3B26829  12.951  42.554   7.950
 5228POPC   C4B26830  12.968  42.571   7.650
 5229POPC   NC326831  40.054  22.126   9.450
 5229POPC   PO426832  40.050  22.152   9.150
 5229POPC   GL126833  40.015  22.174   8.850
 5229POPC   GL226834  40.042  22.046   8.850
 5229POPC   C1A26835  40.005  22.190   8.550
 5229POPC   D2A26836  39.980  22.182   8.250
 5229POPC   C3A26837  40.023  22.184   7.950
 5229POPC   C4A26838  39.960  22.170   7.650
 5229POPC   C1B26839  40.092  21.903   8.550
 5229POPC   C2B26840  40.113  21.922   8.250
 5229POPC   C3B26841  40.072  21.905   7.950
 5229POPC   C4B26842  40.053  21.897   7.650
 5230POPC   NC326843  15.141  38.453   9.450
 5230POPC   PO426844  15.179  38.472   9.150
 5230POPC   GL126845  15.176  38.441   8.850
 5230POPC   GL226846  15.278  38.320   8.850
 5230POPC   C1A26847  15.228  38.502   8.550
 5230POPC   D2A26848  15.224  38.466   8.250
 5230POPC   C3A26849  15.198  38.416   7.950
 5230POPC   C4A26850  15.179  38.469   7.650
 5230POPC   C1B26851  15.293  38.279   8.550
 5230POPC   C2B26852  15.362  38.210   8.250
 5230POPC   C3B26853  15.272  38.256   7.950
 5230POPC   C4B26854  15.338  38.217   7.650
 5231POPC   NC326855  27.578  16.746   9.450
 5231POPC   PO426856  27.566  16.732   9.150
 5231POPC   GL126857  27.584  16.715   8.850
 5231POPC   GL226858  27.764  16.760   8.850
 5231POPC   C1A26859  27.633  16.772   8.550
 5231POPC   D2A26860  27.570  16.742   8.250
 5231POPC   C3A26861  27.611  16.704   7.950
 5231POPC   C4A26862  27.573  16.752   7.650
 5231POPC   C1B26863  27.809  16.739   8.550
 5231POPC   C2B26864  27.846  16.755   8.250
 5231POPC   C3B26865  27.879  16.745   7.950
 5231POPC   C4B26866  27.858  16.708   7.650
 5232POPC   NC326867  29.912  39.184   9.450
 5232POPC   PO426868  29.944  39.231   9.150
 5232POPC   GL126869  29.930  39.238   8.850
 5232POPC   GL226870  29.861  39.344   8.850
 5232POPC   C1A26871  29.903  39.203   8.550
 5232POPC   D2A26872  29.943  39.204   8.250
 5232POPC   C3A26873  29.913  39.259   7.950
 5232POPC   C4A26874  29.945  39.265   7.650
 5232POPC   C1B26875  29.818  39.411   8.550
 5232POPC   C2B26876  29.854  39.421   8.250
 5232POPC   C3B26877  29.818  39.477   7.950
 5232POPC   C4B26878  29.843  39.412   7.650
 5233POPC   NC326879   2.747  32.298   9.450
 5233POPC   PO426880   2.759  32.218   9.150
 5233POPC   GL126881   2.743  32.293   8.850
 5233POPC   GL226882   2.794  32.422   8.850
 5233POPC   C1A26883   2.778  32.286   8.550
 5233POPC   D2A26884   2.720  32.294   8.250
 5233POPC   C3A26885   2.731  32.281   7.950
 5233POPC   C4A26886   2.773  32.231   7.650
 5233POPC   C1B26887   2.801  32.514   8.550
 5233POPC   C2B26888   2.733  32.508   8.250
 5233POPC   C3B26889   2.741  32.492   7.950
 5233POPC   C4B26890   2.788  32.482   7.650
 5234POPC   NC326891  35.322  17.479   9.450
 5234POPC   PO426892  35.329  17.464   9.150
 5234POPC   GL126893  35.325  17.487   8.850
 5234POPC   GL226894  35.447  17.407   8.850
 5234POPC   C1A26895  35.369  17.557   8.550
 5234POPC   D2A26896  35.303  17.526   8.250
 5234POPC   C3A26897  35.342  17.550   7.950
 5234POPC   C4A26898  35.378  17.518   7.650
 5234POPC   C1B26899  35.556  17.413   8.550
 5234POPC   C2B26900  35.536  17.429   8.250
 5234POPC   C3B26901  35.584  17.373   7.950
 5234POPC   C4B26902  35.549  17.392   7.650
 5235POPC   NC326903   8.962  40.828   9.450
 5235POPC   PO426904   8.952  40.798   9.150
 5235POPC   GL126905   8.983  40.738   8.850
 5235POPC   GL226906   8.819  40.849   8.850
 5235POPC   C1A26907   8.935  40.754   8.550
 5235POPC   D2A26908   8.926  40.750   8.250
 5235POPC   C3A26909   8.977  40.783   7.950
 5235POPC   C4A26910   8.974  40.774   7.650
 5235POPC   C1B26911   8.695  40.845   8.550
 5235POPC   C2B26912   8.764  40.848   8.250
 5235POPC   C3B26913   8.711  40.815   7.950
 5235POPC   C4B26914   8.692  40.869   7.650
 5236POPC   NC326915  39.240  39.244   9.450
 5236POPC   PO426916  39.265  39.247   9.150
 5236POPC   GL126917  39.192  39.239   8.850
 5236POPC   GL226918  39.304  39.360   8.850
 5236POPC   C1A26919  39.254  39.252   8.550
 5236POPC   D2A26920  39.187  39.188   8.250
 5236POPC   C3A26921  39.234  39.248   7.950
 5236POPC   C4A26922  39.261  39.205   7.650
 5236POPC   C1B26923  39.332  39.504   8.550
 5236POPC   C2B26924  39.297  39.494   8.250
 5236POPC   C3B26925  39.355  39.516   7.950
 5236POPC   C4B26926  39.276  39.500   7.650
 5237POPC   NC326927  26.860  33.756   9.450
 5237POPC   PO426928  26.772  33.779   9.150
 5237POPC   GL126929  26.856  33.783   8.850
 5237POPC   GL226930  26.907  33.824   8.850
 5237POPC   C1A26931  26.857  33.767   8.550
 5237POPC   D2A26932  26.812  33.760   8.250
 5237POPC   C3A26933  26.843  33.804   7.950
 5237POPC   C4A26934  26.792  33.813   7.650
 5237POPC   C1B26935  27.041  33.817   8.550
 5237POPC   C2B26936  27.027  33.817   8.250
 5237POPC   C3B26937  27.051  33.757   7.950
 5237POPC   C4B26938  27.031  33.803   7.650
 5238POPC   NC326939  22.132  23.684   9.450
 5238POPC   PO426940  22.114  23.684   9.150
 5238POPC   GL126941  22.196  23.731   8.850
 5238POPC   GL226942  22.150  23.616   8.850
 5238POPC   C1A26943  22.114  23.704   8.550
 5238POPC   D2A26944  22.136  23.761   8.250
 5238POPC   C3A26945  22.132  23.744   7.950
 5238POPC   C4A26946  22.115  23.719   7.650
 5238POPC   C1B26947  22.159  23.478   8.550
 5238POPC   C2B26948  22.150  23.503   8.250
 5238POPC   C3B26949  22.179  23.453   7.950
 5238POPC   C4B26950  22.172  23.446   7.650
 5239POPC   NC326951  36.109  19.854   9.450
 5239POPC   PO426952  36.104  19.817   9.150
 5239POPC   GL126953  36.157  19.810   8.850
 5239POPC   GL226954  36.043  19.898   8.850
 5239POPC   C1A26955  36.132  19.845   8.550
 5239POPC   D2A26956  36.146  19.855   8.250
 5239POPC   C3A26957  36.164  19.871   7.950
 5239POPC   C4A26958  36.121  19.787   7.650
 5239POPC   C1B26959  35.879  19.902   8.550
 5239POPC   C2B26960  35.842  19.894   8.250
 5239POPC   C3B26961  35.889  19.883   7.950
 5239POPC   C4B26962  35.854  19.894   7.650
 5240POPC   NC326963  12.899  40.006   9.450
 5240POPC   PO426964  12.887  39.967   9.150
 5240POPC   GL126965  12.901  40.031   8.850
 5240POPC   GL226966  12.945  39.958   8.850
 5240POPC   C1A26967  12.844  40.012   8.550
 5240POPC   D2A26968  12.822  39.959   8.250
 5240POPC   C3A26969  12.891  40.035   7.950
 5240POPC   C4A26970  12.840  40.014   7.650
 5240POPC   C1B26971  13.108  40.008   8.550
 5240POPC   C2B26972  13.123  39.941   8.250
 5240POPC   C3B26973  13.085  39.939   7.950
 5240POPC   C4B26974  13.071  40.007   7.650
 5241POPC   NC326975  19.015   2.794   9.450
 5241POPC   PO426976  19.096   2.809   9.150
 5241POPC   GL126977  19.035   2.780   8.850
 5241POPC   GL226978  19.134   2.660   8.850
 5241POPC   C1A26979  19.061   2.801   8.550
 5241POPC   D2A26980  19.107   2.784   8.250
 5241POPC   C3A26981  19.083   2.767   7.950
 5241POPC   C4A26982  19.096   2.763   7.650
 5241POPC   C1B26983  19.189   2.527   8.550
 5241POPC   C2B26984  19.209   2.584   8.250
 5241POPC   C3B26985  19.242   2.605   7.950
 5241POPC   C4B26986  19.174   2.574   7.650
 5242POPC   NC326987  18.268  22.140   9.450
 5242POPC   PO426988  18.244  22.114   9.150
 5242POPC   GL126989  18.289  22.113   8.850
 5242POPC   GL226990  18.160  22.086   8.850
 5242POPC   C1A26991  18.271  22.203   8.550
 5242POPC   D2A26992  18.234  22.198   8.250
 5242POPC   C3A26993  18.289  22.208   7.950
 5242POPC   C4A26994  18.282  22.175   7.650
 5242POPC   C1B26995  18.024  22.036   8.550
 5242POPC   C2B26996  18.043  22.050   8.250
 5242POPC   C3B26997  18.047  22.102   7.950
 5242POPC   C4B26998  18.041  22.035   7.650
 5243POPC   NC326999  40.741  19.092   9.450
 5243POPC   PO427000  40.805  19.041   9.150
 5243POPC   GL127001  40.801  19.049   8.850
 5243POPC   GL227002  40.672  19.011   8.850
 5243POPC   C1A27003  40.781  19.045   8.550
 5243POPC   D2A27004  40.739  19.024   8.250
 5243POPC   C3A27005  40.734  19.096   7.950
 5243POPC   C4A27006  40.822  19.075   7.650
 5243POPC   C1B27007  40.534  19.067   8.550
 5243POPC   C2B27008  40.521  18.990   8.250
 5243POPC   C3B27009  40.548  19.049   7.950
 5243POPC   C4B27010  40.570  19.067   7.650
 5244POPC   NC327011  35.366  44.645   9.450
 5244POPC   PO427012  35.355  44.613   9.150
 5244POPC   GL127013  35.388  44.630   8.850
 5244POPC   GL227014  35.424  44.591   8.850
 5244POPC   C1A27015  35.312  44.679   8.550
 5244POPC   D2A27016  35.349  44.687   8.250
 5244POPC   C3A27017  35.398  44.652   7.950
 5244POPC   C4A27018  35.401  44.655   7.650
 5244POPC   C1B27019  35.550  44.434   8.550
 5244POPC   C2B27020  35.486  44.496   8.250
 5244POPC   C3B27021  35.487  44.500   7.950
 5244POPC   C4B27022  35.506  44.452   7.650
 5245POPC   NC327023  39.196  31.514   9.450
 5245POPC   PO427024  39.248  31.436   9.150
 5245POPC   GL127025  39.190  31.503   8.850
 5245POPC   GL227026  39.345  31.587   8.850
 5245POPC   C1A27027  39.278  31.441   8.550
 5245POPC   D2A27028  39.194  31.513   8.250
 5245POPC   C3A27029  39.194  31.471   7.950
 5245POPC   C4A27030  39.197  31.490   7.650
 5245POPC   C1B27031  39.377  31.638   8.550
 5245POPC   C2B27032  39.422  31.628   8.250
 5245POPC   C3B27033  39.410  31.653   7.950
 5245POPC   C4B27034  39.377  31.617   7.650
 5246POPC   NC327035  30.702   0.404   9.450
 5246POPC   PO427036  30.680   0.437   9.150
 5246POPC   GL127037  30.718   0.457   8.850
 5246POPC   GL227038  30.802   0.526   8.850
 5246POPC   C1A27039  30.716   0.427   8.550
 5246POPC   D2A27040  30.713   0.396   8.250
 5246POPC   C3A27041  30.682   0.459   7.950
 5246POPC   C4A27042  30.715   0.485   7.650
 5246POPC   C1B27043  30.916   0.569   8.550
 5246POPC   C2B27044  30.924   0.491   8.250
 5246POPC   C3B27045  30.901   0.518   7.950
 5246POPC   C4B27046  30.947   0.552   7.650
 5247POPC   NC327047  25.305  23.734   9.450
 5247POPC   PO427048  25.301  23.744   9.150
 5247POPC   GL127049  25.296  23.734   8.850
 5247POPC   GL227050  25.327  23.856   8.850
 5247POPC   C1A27051  25.291  23.693   8.550
 5247POPC   D2A27052  25.291  23.720   8.250
 5247POPC   C3A27053  25.270  23.668   7.950
 5247POPC   C4A27054  25.290  23.745   7.650
 5247POPC   C1B27055  25.381  23.948   8.550
 5247POPC   C2B27056  25.396  23.911   8.250
 5247POPC   C3B27057  25.364  23.923   7.950
 5247POPC   C4B27058  25.359  23.974   7.650
 5248POPC   NC327059  19.817  27.580   9.450
 5248POPC   PO427060  19.827  27.618   9.150
 5248POPC   GL127061  19.863  27.622   8.850
 5248POPC   GL227062  19.785  27.535   8.850
 5248POPC   C1A27063  19.840  27.580   8.550
 5248POPC   D2A27064  19.855  27.549   8.250
 5248POPC   C3A27065  19.845  27.546   7.950
 5248POPC   C4A27066  19.807  27.636   7.650
 5248POPC   C1B27067  19.689  27.395   8.550
 5248POPC   C2B27068  19.714  27.355   8.250
 5248POPC   C3B27069  19.732  27.430   7.950
 5248POPC   C4B27070  19.725  27.400   7.650
 5249POPC   NC327071  34.625   9.747   9.450
 5249POPC   PO427072  34.548   9.705   9.150
 5249POPC   GL127073  34.554   9.737   8.850
 5249POPC   GL227074  34.541   9.809   8.850
 5249POPC   C1A27075  34.558   9.774   8.550
 5249POPC   D2A27076  34.553   9.754   8.250
 5249POPC   C3A27077  34.594   9.720   7.950
 5249POPC   C4A27078  34.595   9.794   7.650
 5249POPC   C1B27079  34.420   9.959   8.550
 5249POPC   C2B27080  34.456   9.919   8.250
 5249POPC   C3B27081  34.450   9.994   7.950
 5249POPC   C4B27082  34.459   9.920   7.650
 5250POPC   NC327083  20.643   8.197   9.450
 5250POPC   PO427084  20.620   8.160   9.150
 5250POPC   GL127085  20.587   8.197   8.850
 5250POPC   GL227086  20.691   8.275   8.850
 5250POPC   C1A27087  20.598   8.195   8.550
 5250POPC   D2A27088  20.578   8.147   8.250
 5250POPC   C3A27089  20.621   8.166   7.950
 5250POPC   C4A27090  20.561   8.148   7.650
 5250POPC   C1B27091  20.697   8.402   8.550
 5250POPC   C2B27092  20.638   8.417   8.250
 5250POPC   C3B27093  20.647   8.390   7.950
 5250POPC   C4B27094  20.714   8.410   7.650
 5251POPC   NC327095  29.155  25.241   9.450
 5251POPC   PO427096  29.107  25.299   9.150
 5251POPC   GL127097  29.185  25.292   8.850
 5251POPC   GL227098  29.246  25.396   8.850
 5251POPC   C1A27099  29.179  25.232   8.550
 5251POPC   D2A27100  29.176  25.310   8.250
 5251POPC   C3A27101  29.098  25.286   7.950
 5251POPC   C4A27102  29.143  25.225   7.650
 5251POPC   C1B27103  29.295  25.489   8.550
 5251POPC   C2B27104  29.292  25.411   8.250
 5251POPC   C3B27105  29.285  25.464   7.950
 5251POPC   C4B27106  29.338  25.471   7.650
 5252POPC   NC327107   9.018   7.406   9.450
 5252POPC   PO427108   8.959   7.393   9.150
 5252POPC   GL127109   8.932   7.469   8.850
 5252POPC   GL227110   8.820   7.322   8.850
 5252POPC   C1A27111   9.014   7.438   8.550
 5252POPC   D2A27112   8.960   7.384   8.250
 5252POPC   C3A27113   9.010   7.432   7.950
 5252POPC   C4A27114   9.022   7.471   7.650
 5252POPC   C1B27115   8.748   7.260   8.550
 5252POPC   C2B27116   8.714   7.345   8.250
 5252POPC   C3B27117   8.741   7.282   7.950
 5252POPC   C4B27118   8.803   7.322   7.650
 5253POPC   NC327119   2.797   8.150   9.450
 5253POPC   PO427120   2.807   8.163   9.150
 5253POPC   GL127121   2.775   8.184   8.850
 5253POPC   GL227122   2.629   8.302   8.850
 5253POPC   C1A27123   2.748   8.171   8.550
 5253POPC   D2A27124   2.775   8.198   8.250
 5253POPC   C3A27125   2.794   8.230   7.950
 5253POPC   C4A27126   2.790   8.188   7.650
 5253POPC   C1B27127   2.588   8.372   8.550
 5253POPC   C2B27128   2.579   8.320   8.250
 5253POPC   C3B27129   2.537   8.291   7.950
 5253POPC   C4B27130   2.587   8.384   7.650
 5254POPC   NC327131  10.549  42.354   9.450
 5254POPC   PO427132  10.570  42.295   9.150
 5254POPC   GL127133  10.532  42.375   8.850
 5254POPC   GL227134  10.464  42.390   8.850
 5254POPC   C1A27135  10.545  42.316   8.550
 5254POPC   D2A27136  10.572  42.373   8.250
 5254POPC   C3A27137  10.529  42.285   7.950
 5254POPC   C4A27138  10.500  42.330   7.650
 5254POPC   C1B27139  10.355  42.523   8.550
 5254POPC   C2B27140  10.379  42.468   8.250
 5254POPC   C3B27141  10.384  42.531   7.950
 5254POPC   C4B27142  10.331  42.525   7.650
 5255POPC   NC327143  37.658  33.772   9.450
 5255POPC   PO427144  37.639  33.762   9.150
 5255POPC   GL127145  37.713  33.765   8.850
 5255POPC   GL227146  37.765  33.878   8.850
 5255POPC   C1A27147  37.630  33.797   8.550
 5255POPC   D2A27148  37.640  33.788   8.250
 5255POPC   C3A27149  37.693  33.830   7.950
 5255POPC   C4A27150  37.714  33.761   7.650
 5255POPC   C1B27151  37.810  33.984   8.550
 5255POPC   C2B27152  37.857  33.968   8.250
 5255POPC   C3B27153  37.869  34.008   7.950
 5255POPC   C4B27154  37.820  34.004   7.650
 5256POPC   NC327155   2.770   6.632   9.450
 5256POPC   PO427156   2.806   6.607   9.150
 5256POPC   GL127157   2.727   6.678   8.850
 5256POPC   GL227158   2.853   6.496   8.850
 5256POPC   C1A27159   2.722   6.670   8.550
 5256POPC   D2A27160   2.774   6.610   8.250
 5256POPC   C3A27161   2.756   6.636   7.950
 5256POPC   C4A27162   2.728   6.658   7.650
 5256POPC   C1B27163   2.886   6.466   8.550
 5256POPC   C2B27164   2.883   6.464   8.250
 5256POPC   C3B27165   2.905   6.433   7.950
 5256POPC   C4B27166   2.919   6.424   7.650
 5257POPC   NC327167  33.006  28.342   9.450
 5257POPC   PO427168  33.003  28.320   9.150
 5257POPC   GL127169  32.984  28.340   8.850
 5257POPC   GL227170  33.153  28.323   8.850
 5257POPC   C1A27171  33.072  28.401   8.550
 5257POPC   D2A27172  33.043  28.402   8.250
 5257POPC   C3A27173  33.071  28.351   7.950
 5257POPC   C4A27174  32.995  28.404   7.650
 5257POPC   C1B27175  33.251  28.325   8.550
 5257POPC   C2B27176  33.319  28.305   8.250
 5257POPC   C3B27177  33.311  28.299   7.950
 5257POPC   C4B27178  33.291  28.386   7.650
 5258POPC   NC327179  17.488  27.604   9.450
 5258POPC   PO427180  17.478  27.562   9.150
 5258POPC   GL127181  17.482  27.543   8.850
 5258POPC   GL227182  17.533  27.460   8.850
 5258POPC   C1A27183  17.546  27.557   8.550
 5258POPC   D2A27184  17.473  27.609   8.250
 5258POPC   C3A27185  17.499  27.545   7.950
 5258POPC   C4A27186  17.503  27.613   7.650
 5258POPC   C1B27187  17.516  27.388   8.550
 5258POPC   C2B27188  17.560  27.346   8.250
 5258POPC   C3B27189  17.524  27.367   7.950
 5258POPC   C4B27190  17.527  27.294   7.650
 5259POPC   NC327191  18.282  15.983   9.450
 5259POPC   PO427192  18.294  15.928   9.150
 5259POPC   GL127193  18.272  15.985   8.850
 5259POPC   GL227194  18.136  15.986   8.850
 5259POPC   C1A27195  18.264  15.978   8.550
 5259POPC   D2A27196  18.275  15.917   8.250
 5259POPC   C3A27197  18.267  15.953   7.950
 5259POPC   C4A27198  18.330  15.968   7.650
 5259POPC   C1B27199  18.016  16.091   8.550
 5259POPC   C2B27200  18.074  16.094   8.250
 5259POPC   C3B27201  18.031  16.110   7.950
 5259POPC   C4B27202  18.095  16.100   7.650
 5260POPC   NC327203  27.633  15.166   9.450
 5260POPC   PO427204  27.606  15.192   9.150
 5260POPC   GL127205  27.577  15.180   8.850
 5260POPC   GL227206  27.489  15.312   8.850
 5260POPC   C1A27207  27.615  15.199   8.550
 5260POPC   D2A27208  27.610  15.149   8.250
 5260POPC   C3A27209  27.572  15.196   7.950
 5260POPC   C4A27210  27.616  15.219   7.650
 5260POPC   C1B27211  27.519  15.415   8.550
 5260POPC   C2B27212  27.517  15.440   8.250
 5260POPC   C3B27213  27.469  15.437   7.950
 5260POPC   C4B27214  27.464  15.418   7.650
 5261POPC   NC327215   5.902   9.787   9.450
 5261POPC   PO427216   5.871   9.770   9.150
 5261POPC   GL127217   5.888   9.781   8.850
 5261POPC   GL227218   5.744   9.729   8.850
 5261POPC   C1A27219   5.848   9.791   8.550
 5261POPC   D2A27220   5.914   9.701   8.250
 5261POPC   C3A27221   5.877   9.768   7.950
 5261POPC   C4A27222   5.890   9.755   7.650
 5261POPC   C1B27223   5.682   9.605   8.550
 5261POPC   C2B27224   5.621   9.686   8.250
 5261POPC   C3B27225   5.654   9.648   7.950
 5261POPC   C4B27226   5.602   9.698   7.650
 5262POPC   NC327227  32.987  14.401   9.450
 5262POPC   PO427228  32.988  14.367   9.150
 5262POPC   GL127229  32.975  14.391   8.850
 5262POPC   GL227230  33.119  14.307   8.850
 5262POPC   C1A27231  32.999  14.449   8.550
 5262POPC   D2A27232  33.043  14.408   8.250
 5262POPC   C3A27233  33.035  14.402   7.950
 5262POPC   C4A27234  33.018  14.362   7.650
 5262POPC   C1B27235  33.110  14.147   8.550
 5262POPC   C2B27236  33.127  14.232   8.250
 5262POPC   C3B27237  33.107  14.167   7.950
 5262POPC   C4B27238  33.178  14.211   7.650
 5263POPC   NC327239  39.240  11.333   9.450
 5263POPC   PO427240  39.211  11.255   9.150
 5263POPC   GL127241  39.273  11.279   8.850
 5263POPC   GL227242  39.147  11.255   8.850
 5263POPC   C1A27243  39.280  11.314   8.550
 5263POPC   D2A27244  39.189  11.258   8.250
 5263POPC   C3A27245  39.257  11.314   7.950
 5263POPC   C4A27246  39.266  11.253   7.650
 5263POPC   C1B27247  39.012  11.323   8.550
 5263POPC   C2B27248  39.015  11.329   8.250
 5263POPC   C3B27249  38.970  11.287   7.950
 5263POPC   C4B27250  38.996  11.252   7.650
 5264POPC   NC327251  26.827  10.500   9.450
 5264POPC   PO427252  26.831  10.520   9.150
 5264POPC   GL127253  26.825  10.524   8.850
 5264POPC   GL227254  26.693  10.620   8.850
 5264POPC   C1A27255  26.813  10.501   8.550
 5264POPC   D2A27256  26.842  10.573   8.250
 5264POPC   C3A27257  26.829  10.488   7.950
 5264POPC   C4A27258  26.816  10.511   7.650
 5264POPC   C1B27259  26.584  10.600   8.550
 5264POPC   C2B27260  26.573  10.666   8.250
 5264POPC   C3B27261  26.590  10.614   7.950
 5264POPC   C4B27262  26.554  10.643   7.650
 5265POPC   NC327263   2.720  21.369   9.450
 5265POPC   PO427264   2.810  21.357   9.150
 5265POPC   GL127265   2.743  21.390   8.850
 5265POPC   GL227266   2.806  21.230   8.850
 5265POPC   C1A27267   2.789  21.426   8.550
 5265POPC   D2A27268   2.773  21.342   8.250
 5265POPC   C3A27269   2.724  21.344   7.950
 5265POPC   C4A27270   2.754  21.362   7.650
 5265POPC   C1B27271   2.890  21.159   8.550
 5265POPC   C2B27272   2.903  21.147   8.250
 5265POPC   C3B27273   2.878  21.176   7.950
 5265POPC   C4B27274   2.871  21.200   7.650
 5266POPC   NC327275  43.879  30.653   9.450
 5266POPC   PO427276  43.844  30.663   9.150
 5266POPC   GL127277  43.882  30.727   8.850
 5266POPC   GL227278  44.005  30.671   8.850
 5266POPC   C1A27279  43.862  30.678   8.550
 5266POPC   D2A27280  43.874  30.691   8.250
 5266POPC   C3A27281  43.896  30.703   7.950
 5266POPC   C4A27282  43.915  30.714   7.650
 5266POPC   C1B27283  44.101  30.672   8.550
 5266POPC   C2B27284  44.089  30.672   8.250
 5266POPC   C3B27285  44.167  30.755   7.950
 5266POPC   C4B27286  44.100  30.704   7.650
 5267POPC   NC327287  40.767   5.120   9.450
 5267POPC   PO427288  40.820   5.122   9.150
 5267POPC   GL127289  40.768   5.091   8.850
 5267POPC   GL227290  40.836   5.024   8.850
 5267POPC   C1A27291  40.774   5.063   8.550
 5267POPC   D2A27292  40.791   5.077   8.250
 5267POPC   C3A27293  40.815   5.083   7.950
 5267POPC   C4A27294  40.756   5.049   7.650
 5267POPC   C1B27295  40.855   4.854   8.550
 5267POPC   C2B27296  40.920   4.913   8.250
 5267POPC   C3B27297  40.841   4.916   7.950
 5267POPC   C4B27298  40.841   4.857   7.650
 5268POPC   NC327299   8.942  16.741   9.450
 5268POPC   PO427300   8.964  16.738   9.150
 5268POPC   GL127301   8.980  16.759   8.850
 5268POPC   GL227302   8.884  16.674   8.850
 5268POPC   C1A27303   8.975  16.755   8.550
 5268POPC   D2A27304   8.927  16.740   8.250
 5268POPC   C3A27305   9.018  16.732   7.950
 5268POPC   C4A27306   8.962  16.705   7.650
 5268POPC   C1B27307   8.852  16.539   8.550
 5268POPC   C2B27308   8.804  16.524   8.250
 5268POPC   C3B27309   8.800  16.574   7.950
 5268POPC   C4B27310   8.836  16.509   7.650
 5269POPC   NC327311  21.376  13.589   9.450
 5269POPC   PO427312  21.430  13.634   9.150
 5269POPC   GL127313  21.426  13.609   8.850
 5269POPC   GL227314  21.492  13.741   8.850
 5269POPC   C1A27315  21.350  13.672   8.550
 5269POPC   D2A27316  21.360  13.664   8.250
 5269POPC   C3A27317  21.378  13.623   7.950
 5269POPC   C4A27318  21.385  13.649   7.650
 5269POPC   C1B27319  21.624  13.716   8.550
 5269POPC   C2B27320  21.625  13.746   8.250
 5269POPC   C3B27321  21.617  13.718   7.950
 5269POPC   C4B27322  21.607  13.726   7.650
 5270POPC   NC327323  33.805  20.659   9.450
 5270POPC   PO427324  33.848  20.569   9.150
 5270POPC   GL127325  33.811  20.620   8.850
 5270POPC   GL227326  33.949  20.588   8.850
 5270POPC   C1A27327  33.779  20.642   8.550
 5270POPC   D2A27328  33.785  20.639   8.250
 5270POPC   C3A27329  33.832  20.583   7.950
 5270POPC   C4A27330  33.814  20.640   7.650
 5270POPC   C1B27331  34.060  20.625   8.550
 5270POPC   C2B27332  34.051  20.611   8.250
 5270POPC   C3B27333  34.099  20.648   7.950
 5270POPC   C4B27334  34.063  20.567   7.650
 5271POPC   NC327335   2.805  26.867   9.450
 5271POPC   PO427336   2.780  26.864   9.150
 5271POPC   GL127337   2.793  26.837   8.850
 5271POPC   GL227338   2.843  26.883   8.850
 5271POPC   C1A27339   2.735  26.864   8.550
 5271POPC   D2A27340   2.792  26.792   8.250
 5271POPC   C3A27341   2.780  26.830   7.950
 5271POPC   C4A27342   2.735  26.836   7.650
 5271POPC   C1B27343   2.818  27.076   8.550
 5271POPC   C2B27344   2.834  27.087   8.250
 5271POPC   C3B27345   2.886  27.040   7.950
 5271POPC   C4B27346   2.820  27.016   7.650
 5272POPC   NC327347   8.167  32.242   9.450
 5272POPC   PO427348   8.207  32.243   9.150
 5272POPC   GL127349   8.166  32.207   8.850
 5272POPC   GL227350   8.160  32.147   8.850
 5272POPC   C1A27351   8.169  32.217   8.550
 5272POPC   D2A27352   8.235  32.274   8.250
 5272POPC   C3A27353   8.191  32.217   7.950
 5272POPC   C4A27354   8.154  32.246   7.650
 5272POPC   C1B27355   8.052  32.034   8.550
 5272POPC   C2B27356   8.050  32.014   8.250
 5272POPC   C3B27357   8.028  32.028   7.950
 5272POPC   C4B27358   8.096  31.998   7.650
 5273POPC   NC327359   3.498   8.204   9.450
 5273POPC   PO427360   3.569   8.205   9.150
 5273POPC   GL127361   3.583   8.156   8.850
 5273POPC   GL227362   3.448   8.095   8.850
 5273POPC   C1A27363   3.571   8.240   8.550
 5273POPC   D2A27364   3.550   8.236   8.250
 5273POPC   C3A27365   3.541   8.179   7.950
 5273POPC   C4A27366   3.564   8.201   7.650
 5273POPC   C1B27367   3.333   7.992   8.550
 5273POPC   C2B27368   3.330   8.059   8.250
 5273POPC   C3B27369   3.333   8.005   7.950
 5273POPC   C4B27370   3.401   8.062   7.650
 5274POPC   NC327371  12.826  20.653   9.450
 5274POPC   PO427372  12.807  20.574   9.150
 5274POPC   GL127373  12.876  20.586   8.850
 5274POPC   GL227374  12.877  20.478   8.850
 5274POPC   C1A27375  12.872  20.642   8.550
 5274POPC   D2A27376  12.896  20.606   8.250
 5274POPC   C3A27377  12.835  20.660   7.950
 5274POPC   C4A27378  12.818  20.585   7.650
 5274POPC   C1B27379  12.952  20.357   8.550
 5274POPC   C2B27380  13.009  20.420   8.250
 5274POPC   C3B27381  12.981  20.415   7.950
 5274POPC   C4B27382  12.966  20.423   7.650
 5275POPC   NC327383  32.244  28.335   9.450
 5275POPC   PO427384  32.284  28.319   9.150
 5275POPC   GL127385  32.224  28.332   8.850
 5275POPC   GL227386  32.404  28.335   8.850
 5275POPC   C1A27387  32.222  28.361   8.550
 5275POPC   D2A27388  32.261  28.330   8.250
 5275POPC   C3A27389  32.221  28.348   7.950
 5275POPC   C4A27390  32.263  28.416   7.650
 5275POPC   C1B27391  32.471  28.274   8.550
 5275POPC   C2B27392  32.453  28.294   8.250
 5275POPC   C3B27393  32.457  28.325   7.950
 5275POPC   C4B27394  32.503  28.274   7.650
 5276POPC   NC327395  31.422  32.292   9.450
 5276POPC   PO427396  31.426  32.239   9.150
 5276POPC   GL127397  31.466  32.250   8.850
 5276POPC   GL227398  31.452  32.349   8.850
 5276POPC   C1A27399  31.505  32.291   8.550
 5276POPC   D2A27400  31.434  32.204   8.250
 5276POPC   C3A27401  31.460  32.199   7.950
 5276POPC   C4A27402  31.451  32.282   7.650
 5276POPC   C1B27403  31.483  32.452   8.550
 5276POPC   C2B27404  31.528  32.523   8.250
 5276POPC   C3B27405  31.551  32.481   7.950
 5276POPC   C4B27406  31.580  32.445   7.650
 5277POPC   NC327407  18.297  42.383   9.450
 5277POPC   PO427408  18.267  42.321   9.150
 5277POPC   GL127409  18.267  42.371   8.850
 5277POPC   GL227410  18.383  42.315   8.850
 5277POPC   C1A27411  18.244  42.369   8.550
 5277POPC   D2A27412  18.259  42.318   8.250
 5277POPC   C3A27413  18.274  42.339   7.950
 5277POPC   C4A27414  18.277  42.305   7.650
 5277POPC   C1B27415  18.531  42.278   8.550
 5277POPC   C2B27416  18.554  42.283   8.250
 5277POPC   C3B27417  18.514  42.226   7.950
 5277POPC   C4B27418  18.485  42.302   7.650
 5278POPC   NC327419  21.397  41.576   9.450
 5278POPC   PO427420  21.404  41.568   9.150
 5278POPC   GL127421  21.403  41.528   8.850
 5278POPC   GL227422  21.287  41.485   8.850
 5278POPC   C1A27423  21.371  41.574   8.550
 5278POPC   D2A27424  21.350  41.583   8.250
 5278POPC   C3A27425  21.365  41.540   7.950
 5278POPC   C4A27426  21.404  41.516   7.650
 5278POPC   C1B27427  21.211  41.443   8.550
 5278POPC   C2B27428  21.202  41.428   8.250
 5278POPC   C3B27429  21.160  41.456   7.950
 5278POPC   C4B27430  21.211  41.446   7.650
 5279POPC   NC327431   9.013   6.610   9.450
 5279POPC   PO427432   8.996   6.648   9.150
 5279POPC   GL127433   8.934   6.659   8.850
 5279POPC   GL227434   8.962   6.569   8.850
 5279POPC   C1A27435   8.945   6.671   8.550
 5279POPC   D2A27436   8.931   6.612   8.250
 5279POPC   C3A27437   8.928   6.597   7.950
 5279POPC   C4A27438   8.981   6.599   7.650
 5279POPC   C1B27439   8.943   6.444   8.550
 5279POPC   C2B27440   8.861   6.393   8.250
 5279POPC   C3B27441   8.909   6.432   7.950
 5279POPC   C4B27442   8.915   6.385   7.650
 5280POPC   NC327443  12.876  32.290   9.450
 5280POPC   PO427444  12.829  32.241   9.150
 5280POPC   GL127445  12.898  32.279   8.850
 5280POPC   GL227446  12.705  32.287   8.850
 5280POPC   C1A27447  12.877  32.230   8.550
 5280POPC   D2A27448  12.860  32.246   8.250
 5280POPC   C3A27449  12.835  32.259   7.950
 5280POPC   C4A27450  12.899  32.229   7.650
 5280POPC   C1B27451  12.684  32.395   8.550
 5280POPC   C2B27452  12.692  32.409   8.250
 5280POPC   C3B27453  12.639  32.358   7.950
 5280POPC   C4B27454  12.615  32.434   7.650
 5281POPC   NC327455  33.060  36.174   9.450
 5281POPC   PO427456  32.976  36.133   9.150
 5281POPC   GL127457  33.043  36.172   8.850
 5281POPC   GL227458  33.023  36.262   8.850
 5281POPC   C1A27459  33.007  36.148   8.550
 5281POPC   D2A27460  32.976  36.107   8.250
 5281POPC   C3A27461  33.038  36.155   7.950
 5281POPC   C4A27462  33.035  36.159   7.650
 5281POPC   C1B27463  33.071  36.367   8.550
 5281POPC   C2B27464  33.033  36.417   8.250
 5281POPC   C3B27465  33.084  36.380   7.950
 5281POPC   C4B27466  33.096  36.370   7.650
 5282POPC   NC327467  10.523  26.071   9.450
 5282POPC   PO427468  10.532  26.031   9.150
 5282POPC   GL127469  10.556  26.039   8.850
 5282POPC   GL227470  10.599  25.969   8.850
 5282POPC   C1A27471  10.533  26.023   8.550
 5282POPC   D2A27472  10.484  26.058   8.250
 5282POPC   C3A27473  10.567  25.998   7.950
 5282POPC   C4A27474  10.534  26.079   7.650
 5282POPC   C1B27475  10.730  25.941   8.550
 5282POPC   C2B27476  10.707  25.897   8.250
 5282POPC   C3B27477  10.767  25.908   7.950
 5282POPC   C4B27478  10.736  25.911   7.650
 5283POPC   NC327479   7.411  12.878   9.450
 5283POPC   PO427480   7.466  12.809   9.150
 5283POPC   GL127481   7.459  12.900   8.850
 5283POPC   GL227482   7.281  12.912   8.850
 5283POPC   C1A27483   7.408  12.808   8.550
 5283POPC   D2A27484   7.419  12.809   8.250
 5283POPC   C3A27485   7.432  12.826   7.950
 5283POPC   C4A27486   7.406  12.865   7.650
 5283POPC   C1B27487   7.235  12.932   8.550
 5283POPC   C2B27488   7.251  12.947   8.250
 5283POPC   C3B27489   7.189  13.005   7.950
 5283POPC   C4B27490   7.249  12.979   7.650
 5284POPC   NC327491  15.905  32.240   9.450
 5284POPC   PO427492  15.969  32.251   9.150
 5284POPC   GL127493  15.959  32.250   8.850
 5284POPC   GL227494  15.942  32.360   8.850
 5284POPC   C1A27495  15.960  32.202   8.550
 5284POPC   D2A27496  15.976  32.294   8.250
 5284POPC   C3A27497  15.946  32.200   7.950
 5284POPC   C4A27498  15.923  32.293   7.650
 5284POPC   C1B27499  15.879  32.460   8.550
 5284POPC   C2B27500  15.860  32.453   8.250
 5284POPC   C3B27501  15.793  32.489   7.950
 5284POPC   C4B27502  15.835  32.454   7.650
 5285POPC   NC327503  24.527  42.287   9.450
 5285POPC   PO427504  24.470  42.369   9.150
 5285POPC   GL127505  24.446  42.307   8.850
 5285POPC   GL227506  24.541  42.498   8.850
 5285POPC   C1A27507  24.441  42.345   8.550
 5285POPC   D2A27508  24.455  42.318   8.250
 5285POPC   C3A27509  24.502  42.345   7.950
 5285POPC   C4A27510  24.499  42.338   7.650
 5285POPC   C1B27511  24.562  42.534   8.550
 5285POPC   C2B27512  24.481  42.558   8.250
 5285POPC   C3B27513  24.487  42.557   7.950
 5285POPC   C4B27514  24.496  42.567   7.650
 5286POPC   NC327515  15.907  33.777   9.450
 5286POPC   PO427516  15.998  33.785   9.150
 5286POPC   GL127517  15.942  33.812   8.850
 5286POPC   GL227518  15.948  33.636   8.850
 5286POPC   C1A27519  15.915  33.778   8.550
 5286POPC   D2A27520  15.926  33.757   8.250
 5286POPC   C3A27521  15.985  33.784   7.950
 5286POPC   C4A27522  15.909  33.782   7.650
 5286POPC   C1B27523  15.902  33.609   8.550
 5286POPC   C2B27524  15.902  33.591   8.250
 5286POPC   C3B27525  15.885  33.515   7.950
 5286POPC   C4B27526  15.853  33.517   7.650
 5287POPC   NC327527   8.172   8.197   9.450
 5287POPC   PO427528   8.165   8.163   9.150
 5287POPC   GL127529   8.153   8.191   8.850
 5287POPC   GL227530   8.279   8.108   8.850
 5287POPC   C1A27531   8.221   8.152   8.550
 5287POPC   D2A27532   8.238   8.239   8.250
 5287POPC   C3A27533   8.204   8.179   7.950
 5287POPC   C4A27534   8.178   8.223   7.650
 5287POPC   C1B27535   8.378   8.111   8.550
 5287POPC   C2B27536   8.471   8.132   8.250
 5287POPC   C3B27537   8.424   8.076   7.950
 5287POPC   C4B27538   8.407   8.085   7.650
 5288POPC   NC327539  33.814  18.311   9.450
 5288POPC   PO427540  33.833  18.296   9.150
 5288POPC   GL127541  33.760  18.287   8.850
 5288POPC   GL227542  33.966  18.235   8.850
 5288POPC   C1A27543  33.793  18.305   8.550
 5288POPC   D2A27544  33.751  18.248   8.250
 5288POPC   C3A27545  33.759  18.301   7.950
 5288POPC   C4A27546  33.767  18.234   7.650
 5288POPC   C1B27547  33.999  18.219   8.550
 5288POPC   C2B27548  34.082  18.236   8.250
 5288POPC   C3B27549  34.084  18.285   7.950
 5288POPC   C4B27550  34.047  18.201   7.650
 5289POPC   NC327551  14.393  27.640   9.450
 5289POPC   PO427552  14.405  27.622   9.150
 5289POPC   GL127553  14.364  27.579   8.850
 5289POPC   GL227554  14.497  27.650   8.850
 5289POPC   C1A27555  14.414  27.552   8.550
 5289POPC   D2A27556  14.391  27.629   8.250
 5289POPC   C3A27557  14.431  27.598   7.950
 5289POPC   C4A27558  14.443  27.625   7.650
 5289POPC   C1B27559  14.640  27.681   8.550
 5289POPC   C2B27560  14.677  27.659   8.250
 5289POPC   C3B27561  14.678  27.645   7.950
 5289POPC   C4B27562  14.671  27.661   7.650
 5290POPC   NC327563   4.318   5.091   9.450
 5290POPC   PO427564   4.365   5.082   9.150
 5290POPC   GL127565   4.357   5.121   8.850
 5290POPC   GL227566   4.378   5.157   8.850
 5290POPC   C1A27567   4.280   5.091   8.550
 5290POPC   D2A27568   4.292   5.130   8.250
 5290POPC   C3A27569   4.355   5.077   7.950
 5290POPC   C4A27570   4.306   5.076   7.650
 5290POPC   C1B27571   4.517   5.247   8.550
 5290POPC   C2B27572   4.513   5.277   8.250
 5290POPC   C3B27573   4.524   5.276   7.950
 5290POPC   C4B27574   4.443   5.254   7.650
 5291POPC   NC327575   1.944  25.306   9.450
 5291POPC   PO427576   1.962  25.312   9.150
 5291POPC   GL127577   1.992  25.295   8.850
 5291POPC   GL227578   1.918  25.164   8.850
 5291POPC   C1A27579   1.981  25.280   8.550
 5291POPC   D2A27580   2.005  25.299   8.250
 5291POPC   C3A27581   1.945  25.315   7.950
 5291POPC   C4A27582   2.004  25.300   7.650
 5291POPC   C1B27583   1.910  24.981   8.550
 5291POPC   C2B27584   1.931  25.054   8.250
 5291POPC   C3B27585   1.911  25.044   7.950
 5291POPC   C4B27586   1.891  25.063   7.650
 5292POPC   NC327587  31.496  12.043   9.450
 5292POPC   PO427588  31.461  12.112   9.150
 5292POPC   GL127589  31.475  12.072   8.850
 5292POPC   GL227590  31.585  12.153   8.850
 5292POPC   C1A27591  31.517  12.037   8.550
 5292POPC   D2A27592  31.475  12.065   8.250
 5292POPC   C3A27593  31.432  12.039   7.950
 5292POPC   C4A27594  31.477  12.055   7.650
 5292POPC   C1B27595  31.665  12.200   8.550
 5292POPC   C2B27596  31.687  12.228   8.250
 5292POPC   C3B27597  31.663  12.228   7.950
 5292POPC   C4B27598  31.701  12.225   7.650
 5293POPC   NC327599  17.497  34.565   9.450
 5293POPC   PO427600  17.469  34.543   9.150
 5293POPC   GL127601  17.469  34.600   8.850
 5293POPC   GL227602  17.587  34.515   8.850
 5293POPC   C1A27603  17.476  34.546   8.550
 5293POPC   D2A27604  17.503  34.573   8.250
 5293POPC   C3A27605  17.549  34.553   7.950
 5293POPC   C4A27606  17.463  34.599   7.650
 5293POPC   C1B27607  17.671  34.417   8.550
 5293POPC   C2B27608  17.669  34.382   8.250
 5293POPC   C3B27609  17.659  34.385   7.950
 5293POPC   C4B27610  17.662  34.403   7.650
 5294POPC   NC327611  44.658  18.249   9.450
 5294POPC   PO427612  44.618  18.287   9.150
 5294POPC   GL127613  44.622  18.309   8.850
 5294POPC   GL227614  44.498  18.308   8.850
 5294POPC   C1A27615  44.645  18.248   8.550
 5294POPC   D2A27616  44.649  18.305   8.250
 5294POPC   C3A27617  44.706  18.260   7.950
 5294POPC   C4A27618  44.710  18.275   7.650
 5294POPC   C1B27619  44.396  18.379   8.550
 5294POPC   C2B27620  44.406  18.397   8.250
 5294POPC   C3B27621  44.384  18.363   7.950
 5294POPC   C4B27622  44.458  18.403   7.650
 5295POPC   NC327623  16.742  29.149   9.450
 5295POPC   PO427624  16.777  29.122   9.150
 5295POPC   GL127625  16.702  29.190   8.850
 5295POPC   GL227626  16.566  29.156   8.850
 5295POPC   C1A27627  16.734  29.133   8.550
 5295POPC   D2A27628  16.725  29.150   8.250
 5295POPC   C3A27629  16.771  29.176   7.950
 5295POPC   C4A27630  16.754  29.119   7.650
 5295POPC   C1B27631  16.453  29.136   8.550
 5295POPC   C2B27632  16.521  29.124   8.250
 5295POPC   C3B27633  16.434  29.116   7.950
 5295POPC   C4B27634  16.464  29.108   7.650
 5296POPC   NC327635  19.870   1.940   9.450
 5296POPC   PO427636  19.872   1.985   9.150
 5296POPC   GL127637  19.802   1.992   8.850
 5296POPC   GL227638  19.761   1.855   8.850
 5296POPC   C1A27639  19.837   2.012   8.550
 5296POPC   D2A27640  19.813   2.020   8.250
 5296POPC   C3A27641  19.844   1.960   7.950
 5296POPC   C4A27642  19.816   1.959   7.650
 5296POPC   C1B27643  19.640   1.757   8.550
 5296POPC   C2B27644  19.677   1.814   8.250
 5296POPC   C3B27645  19.654   1.811   7.950
 5296POPC   C4B27646  19.710   1.810   7.650
 5297POPC   NC327647  16.769   2.030   9.450
 5297POPC   PO427648  16.751   1.976   9.150
 5297POPC   GL127649  16.760   2.014   8.850
 5297POPC   GL227650  16.724   2.081   8.850
 5297POPC   C1A27651  16.733   1.991   8.550
 5297POPC   D2A27652  16.778   1.996   8.250
 5297POPC   C3A27653  16.697   2.014   7.950
 5297POPC   C4A27654  16.707   2.021   7.650
 5297POPC   C1B27655  16.740   2.244   8.550
 5297POPC   C2B27656  16.704   2.221   8.250
 5297POPC   C3B27657  16.716   2.272   7.950
 5297POPC   C4B27658  16.728   2.253   7.650
 5298POPC   NC327659  15.965  25.298   9.450
 5298POPC   PO427660  16.003  25.246   9.150
 5298POPC   GL127661  15.993  25.258   8.850
 5298POPC   GL227662  15.981  25.423   8.850
 5298POPC   C1A27663  15.990  25.312   8.550
 5298POPC   D2A27664  15.991  25.276   8.250
 5298POPC   C3A27665  15.907  25.285   7.950
 5298POPC   C4A27666  15.941  25.232   7.650
 5298POPC   C1B27667  15.869  25.476   8.550
 5298POPC   C2B27668  15.930  25.534   8.250
 5298POPC   C3B27669  15.932  25.522   7.950
 5298POPC   C4B27670  15.958  25.469   7.650
 5299POPC   NC327671  32.280  16.736   9.450
 5299POPC   PO427672  32.268  16.703   9.150
 5299POPC   GL127673  32.247  16.717   8.850
 5299POPC   GL227674  32.366  16.858   8.850
 5299POPC   C1A27675  32.272  16.764   8.550
 5299POPC   D2A27676  32.235  16.722   8.250
 5299POPC   C3A27677  32.272  16.777   7.950
 5299POPC   C4A27678  32.254  16.714   7.650
 5299POPC   C1B27679  32.438  16.938   8.550
 5299POPC   C2B27680  32.459  16.958   8.250
 5299POPC   C3B27681  32.446  16.879   7.950
 5299POPC   C4B27682  32.455  16.941   7.650
 5300POPC   NC327683   0.388  17.503   9.450
 5300POPC   PO427684   0.450  17.520   9.150
 5300POPC   GL127685   0.461  17.552   8.850
 5300POPC   GL227686   0.598  17.499   8.850
 5300POPC   C1A27687   0.424  17.469   8.550
 5300POPC   D2A27688   0.471  17.477   8.250
 5300POPC   C3A27689   0.407  17.487   7.950
 5300POPC   C4A27690   0.439  17.470   7.650
 5300POPC   C1B27691   0.652  17.503   8.550
 5300POPC   C2B27692   0.725  17.439   8.250
 5300POPC   C3B27693   0.666  17.426   7.950
 5300POPC   C4B27694   0.660  17.427   7.650
 5301POPC   NC327695  29.182  40.825   9.450
 5301POPC   PO427696  29.163  40.736   9.150
 5301POPC   GL127697  29.117  40.821   8.850
 5301POPC   GL227698  29.073  40.878   8.850
 5301POPC   C1A27699  29.153  40.785   8.550
 5301POPC   D2A27700  29.176  40.831   8.250
 5301POPC   C3A27701  29.117  40.743   7.950
 5301POPC   C4A27702  29.178  40.754   7.650
 5301POPC   C1B27703  29.100  40.996   8.550
 5301POPC   C2B27704  29.020  41.065   8.250
 5301POPC   C3B27705  29.072  40.987   7.950
 5301POPC   C4B27706  29.093  41.048   7.650
 5302POPC   NC327707  29.186   5.046   9.450
 5302POPC   PO427708  29.107   5.070   9.150
 5302POPC   GL127709  29.174   5.079   8.850
 5302POPC   GL227710  29.110   4.941   8.850
 5302POPC   C1A27711  29.148   5.043   8.550
 5302POPC   D2A27712  29.165   5.080   8.250
 5302POPC   C3A27713  29.194   5.101   7.950
 5302POPC   C4A27714  29.169   5.063   7.650
 5302POPC   C1B27715  28.999   4.838   8.550
 5302POPC   C2B27716  29.029   4.904   8.250
 5302POPC   C3B27717  29.011   4.870   7.950
 5302POPC   C4B27718  29.031   4.902   7.650
 5303POPC   NC327719  26.795   9.798   9.450
 5303POPC   PO427720  26.822   9.740   9.150
 5303POPC   GL127721  26.815   9.765   8.850
 5303POPC   GL227722  26.904   9.824   8.850
 5303POPC   C1A27723  26.843   9.793   8.550
 5303POPC   D2A27724  26.813   9.746   8.250
 5303POPC   C3A27725  26.815   9.764   7.950
 5303POPC   C4A27726  26.849   9.776   7.650
 5303POPC   C1B27727  27.050   9.804   8.550
 5303POPC   C2B27728  27.016   9.776   8.250
 5303POPC   C3B27729  27.058   9.835   7.950
 5303POPC   C4B27730  27.094   9.761   7.650
 5304POPC   NC327731  29.130  20.659   9.450
 5304POPC   PO427732  29.131  20.640   9.150
 5304POPC   GL127733  29.110  20.618   8.850
 5304POPC   GL227734  29.079  20.640   8.850
 5304POPC   C1A27735  29.144  20.614   8.550
 5304POPC   D2A27736  29.182  20.641   8.250
 5304POPC   C3A27737  29.174  20.660   7.950
 5304POPC   C4A27738  29.161  20.604   7.650
 5304POPC   C1B27739  28.973  20.739   8.550
 5304POPC   C2B27740  28.948  20.716   8.250
 5304POPC   C3B27741  28.965  20.732   7.950
 5304POPC   C4B27742  28.906  20.749   7.650
 5305POPC   NC327743  13.641  26.058   9.450
 5305POPC   PO427744  13.667  26.047   9.150
 5305POPC   GL127745  13.672  26.018   8.850
 5305POPC   GL227746  13.795  25.989   8.850
 5305POPC   C1A27747  13.582  26.065   8.550
 5305POPC   D2A27748  13.594  26.059   8.250
 5305POPC   C3A27749  13.601  26.043   7.950
 5305POPC   C4A27750  13.658  26.051   7.650
 5305POPC   C1B27751  13.857  25.981   8.550
 5305POPC   C2B27752  13.827  25.954   8.250
 5305POPC   C3B27753  13.921  25.971   7.950
 5305POPC   C4B27754  13.828  26.010   7.650
 5306POPC   NC327755  26.071   7.391   9.450
 5306POPC   PO427756  26.038   7.386   9.150
 5306POPC   GL127757  26.008   7.391   8.850
 5306POPC   GL227758  26.057   7.545   8.850
 5306POPC   C1A27759  26.040   7.391   8.550
 5306POPC   D2A27760  26.052   7.427   8.250
 5306POPC   C3A27761  26.088   7.431   7.950
 5306POPC   C4A27762  25.996   7.431   7.650
 5306POPC   C1B27763  26.035   7.626   8.550
 5306POPC   C2B27764  26.108   7.623   8.250
 5306POPC   C3B27765  26.063   7.669   7.950
 5306POPC   C4B27766  26.086   7.653   7.650
 5307POPC   NC327767  21.350   7.455   9.450
 5307POPC   PO427768  21.343   7.421   9.150
 5307POPC   GL127769  21.398   7.438   8.850
 5307POPC   GL227770  21.294   7.397   8.850
 5307POPC   C1A27771  21.401   7.437   8.550
 5307POPC   D2A27772  21.429   7.446   8.250
 5307POPC   C3A27773  21.421   7.399   7.950
 5307POPC   C4A27774  21.366   7.420   7.650
 5307POPC   C1B27775  21.137   7.420   8.550
 5307POPC   C2B27776  21.156   7.398   8.250
 5307POPC   C3B27777  21.165   7.396   7.950
 5307POPC   C4B27778  21.162   7.391   7.650
 5308POPC   NC327779  41.606  43.909   9.450
 5308POPC   PO427780  41.527  43.875   9.150
 5308POPC   GL127781  41.595  43.859   8.850
 5308POPC   GL227782  41.464  43.976   8.850
 5308POPC   C1A27783  41.599  43.869   8.550
 5308POPC   D2A27784  41.547  43.900   8.250
 5308POPC   C3A27785  41.567  43.902   7.950
 5308POPC   C4A27786  41.516  43.908   7.650
 5308POPC   C1B27787  41.450  44.107   8.550
 5308POPC   C2B27788  41.459  44.142   8.250
 5308POPC   C3B27789  41.386  44.142   7.950
 5308POPC   C4B27790  41.448  44.100   7.650
 5309POPC   NC327791   8.995  39.207   9.450
 5309POPC   PO427792   9.008  39.187   9.150
 5309POPC   GL127793   8.996  39.212   8.850
 5309POPC   GL227794   9.121  39.286   8.850
 5309POPC   C1A27795   9.004  39.254   8.550
 5309POPC   D2A27796   8.998  39.264   8.250
 5309POPC   C3A27797   9.002  39.233   7.950
 5309POPC   C4A27798   9.003  39.273   7.650
 5309POPC   C1B27799   9.249  39.220   8.550
 5309POPC   C2B27800   9.182  39.308   8.250
 5309POPC   C3B27801   9.231  39.263   7.950
 5309POPC   C4B27802   9.267  39.313   7.650
 5310POPC   NC327803   5.053  36.920   9.450
 5310POPC   PO427804   5.082  36.906   9.150
 5310POPC   GL127805   5.076  36.899   8.850
 5310POPC   GL227806   5.037  36.768   8.850
 5310POPC   C1A27807   5.100  36.893   8.550
 5310POPC   D2A27808   5.116  36.859   8.250
 5310POPC   C3A27809   5.061  36.902   7.950
 5310POPC   C4A27810   5.045  36.937   7.650
 5310POPC   C1B27811   5.035  36.633   8.550
 5310POPC   C2B27812   5.023  36.673   8.250
 5310POPC   C3B27813   5.066  36.635   7.950
 5310POPC   C4B27814   5.027  36.627   7.650
 5311POPC   NC327815   9.777  13.635   9.450
 5311POPC   PO427816   9.739  13.634   9.150
 5311POPC   GL127817   9.715  13.669   8.850
 5311POPC   GL227818   9.625  13.651   8.850
 5311POPC   C1A27819   9.735  13.654   8.550
 5311POPC   D2A27820   9.792  13.657   8.250
 5311POPC   C3A27821   9.713  13.657   7.950
 5311POPC   C4A27822   9.752  13.651   7.650
 5311POPC   C1B27823   9.453  13.610   8.550
 5311POPC   C2B27824   9.469  13.625   8.250
 5311POPC   C3B27825   9.466  13.585   7.950
 5311POPC   C4B27826   9.486  13.626   7.650
 5312POPC   NC327827  19.859  43.877   9.450
 5312POPC   PO427828  19.814  43.890   9.150
 5312POPC   GL127829  19.857  43.919   8.850
 5312POPC   GL227830  19.966  43.848   8.850
 5312POPC   C1A27831  19.834  43.911   8.550
 5312POPC   D2A27832  19.874  43.910   8.250
 5312POPC   C3A27833  19.803  43.844   7.950
 5312POPC   C4A27834  19.822  43.916   7.650
 5312POPC   C1B27835  20.099  43.851   8.550
 5312POPC   C2B27836  20.047  43.867   8.250
 5312POPC   C3B27837  20.064  43.851   7.950
 5312POPC   C4B27838  20.099  43.779   7.650
 5313POPC   NC327839  32.217   5.087   9.450
 5313POPC   PO427840  32.246   5.059   9.150
 5313POPC   GL127841  32.266   5.108   8.850
 5313POPC   GL227842  32.201   5.200   8.850
 5313POPC   C1A27843  32.267   5.087   8.550
 5313POPC   D2A27844  32.296   5.132   8.250
 5313POPC   C3A27845  32.280   5.086   7.950
 5313POPC   C4A27846  32.251   5.044   7.650
 5313POPC   C1B27847  32.229   5.292   8.550
 5313POPC   C2B27848  32.167   5.367   8.250
 5313POPC   C3B27849  32.206   5.289   7.950
 5313POPC   C4B27850  32.195   5.292   7.650
 5314POPC   NC327851  28.405  39.216   9.450
 5314POPC   PO427852  28.394  39.239   9.150
 5314POPC   GL127853  28.323  39.190   8.850
 5314POPC   GL227854  28.444  39.362   8.850
 5314POPC   C1A27855  28.386  39.199   8.550
 5314POPC   D2A27856  28.399  39.201   8.250
 5314POPC   C3A27857  28.361  39.187   7.950
 5314POPC   C4A27858  28.418  39.198   7.650
 5314POPC   C1B27859  28.564  39.391   8.550
 5314POPC   C2B27860  28.560  39.411   8.250
 5314POPC   C3B27861  28.554  39.368   7.950
 5314POPC   C4B27862  28.598  39.441   7.650
 5315POPC   NC327863  16.688  43.915   9.450
 5315POPC   PO427864  16.770  43.853   9.150
 5315POPC   GL127865  16.731  43.883   8.850
 5315POPC   GL227866  16.800  43.757   8.850
 5315POPC   C1A27867  16.706  43.924   8.550
 5315POPC   D2A27868  16.745  43.901   8.250
 5315POPC   C3A27869  16.754  43.854   7.950
 5315POPC   C4A27870  16.728  43.849   7.650
 5315POPC   C1B27871  16.780  43.617   8.550
 5315POPC   C2B27872  16.861  43.698   8.250
 5315POPC   C3B27873  16.861  43.682   7.950
 5315POPC   C4B27874  16.801  43.672   7.650
 5316POPC   NC327875  14.356  35.318   9.450
 5316POPC   PO427876  14.399  35.321   9.150
 5316POPC   GL127877  14.374  35.337   8.850
 5316POPC   GL227878  14.568  35.296   8.850
 5316POPC   C1A27879  14.437  35.331   8.550
 5316POPC   D2A27880  14.407  35.360   8.250
 5316POPC   C3A27881  14.412  35.378   7.950
 5316POPC   C4A27882  14.446  35.387   7.650
 5316POPC   C1B27883  14.633  35.211   8.550
 5316POPC   C2B27884  14.657  35.298   8.250
 5316POPC   C3B27885  14.612  35.265   7.950
 5316POPC   C4B27886  14.605  35.237   7.650
 5317POPC   NC327887   9.783  44.688   9.450
 5317POPC   PO427888   9.782  44.711   9.150
 5317POPC   GL127889   9.791  44.657   8.850
 5317POPC   GL227890   9.854  44.762   8.850
 5317POPC   C1A27891   9.779  44.658   8.550
 5317POPC   D2A27892   9.733  44.616   8.250
 5317POPC   C3A27893   9.767  44.673   7.950
 5317POPC   C4A27894   9.739  44.677   7.650
 5317POPC   C1B27895   9.897  44.873   8.550
 5317POPC   C2B27896   9.887  44.809   8.250
 5317POPC   C3B27897   9.951  44.848   7.950
 5317POPC   C4B27898   9.871  44.811   7.650
 5318POPC   NC327899  31.503  15.138   9.450
 5318POPC   PO427900  31.435  15.221   9.150
 5318POPC   GL127901  31.482  15.141   8.850
 5318POPC   GL227902  31.480  15.255   8.850
 5318POPC   C1A27903  31.492  15.195   8.550
 5318POPC   D2A27904  31.473  15.167   8.250
 5318POPC   C3A27905  31.436  15.143   7.950
 5318POPC   C4A27906  31.424  15.159   7.650
 5318POPC   C1B27907  31.433  15.466   8.550
 5318POPC   C2B27908  31.460  15.424   8.250
 5318POPC   C3B27909  31.463  15.422   7.950
 5318POPC   C4B27910  31.483  15.411   7.650
 5319POPC   NC327911  35.334   4.345   9.450
 5319POPC   PO427912  35.323   4.298   9.150
 5319POPC   GL127913  35.374   4.351   8.850
 5319POPC   GL227914  35.353   4.146   8.850
 5319POPC   C1A27915  35.348   4.342   8.550
 5319POPC   D2A27916  35.344   4.272   8.250
 5319POPC   C3A27917  35.335   4.353   7.950
 5319POPC   C4A27918  35.330   4.289   7.650
 5319POPC   C1B27919  35.310   4.039   8.550
 5319POPC   C2B27920  35.372   4.114   8.250
 5319POPC   C3B27921  35.315   4.058   7.950
 5319POPC   C4B27922  35.319   4.036   7.650
 5320POPC   NC327923   1.229  26.823   9.450
 5320POPC   PO427924   1.230  26.771   9.150
 5320POPC   GL127925   1.186  26.796   8.850
 5320POPC   GL227926   1.296  26.877   8.850
 5320POPC   C1A27927   1.230  26.841   8.550
 5320POPC   D2A27928   1.228  26.850   8.250
 5320POPC   C3A27929   1.225  26.806   7.950
 5320POPC   C4A27930   1.203  26.793   7.650
 5320POPC   C1B27931   1.433  26.873   8.550
 5320POPC   C2B27932   1.460  26.877   8.250
 5320POPC   C3B27933   1.495  26.885   7.950
 5320POPC   C4B27934   1.510  26.820   7.650
 5321POPC   NC327935  38.498   4.357   9.450
 5321POPC   PO427936  38.415   4.323   9.150
 5321POPC   GL127937  38.434   4.353   8.850
 5321POPC   GL227938  38.575   4.348   8.850
 5321POPC   C1A27939  38.456   4.339   8.550
 5321POPC   D2A27940  38.488   4.357   8.250
 5321POPC   C3A27941  38.464   4.284   7.950
 5321POPC   C4A27942  38.493   4.356   7.650
 5321POPC   C1B27943  38.754   4.380   8.550
 5321POPC   C2B27944  38.727   4.376   8.250
 5321POPC   C3B27945  38.662   4.350   7.950
 5321POPC   C4B27946  38.679   4.305   7.650
 5322POPC   NC327947   3.508  33.776   9.450
 5322POPC   PO427948   3.584  33.820   9.150
 5322POPC   GL127949   3.514  33.756   8.850
 5322POPC   GL227950   3.654  33.933   8.850
 5322POPC   C1A27951   3.526  33.803   8.550
 5322POPC   D2A27952   3.535  33.770   8.250
 5322POPC   C3A27953   3.513  33.831   7.950
 5322POPC   C4A27954   3.545  33.842   7.650
 5322POPC   C1B27955   3.730  33.958   8.550
 5322POPC   C2B27956   3.677  33.970   8.250
 5322POPC   C3B27957   3.691  34.004   7.950
 5322POPC   C4B27958   3.675  34.027   7.650
 5323POPC   NC327959  36.085  29.129   9.450
 5323POPC   PO427960  36.109  29.168   9.150
 5323POPC   GL127961  36.123  29.131   8.850
 5323POPC   GL227962  36.267  29.188   8.850
 5323POPC   C1A27963  36.083  29.156   8.550
 5323POPC   D2A27964  36.093  29.177   8.250
 5323POPC   C3A27965  36.152  29.142   7.950
 5323POPC   C4A27966  36.168  29.139   7.650
 5323POPC   C1B27967  36.402  29.171   8.550
 5323POPC   C2B27968  36.411  29.192   8.250
 5323POPC   C3B27969  36.387  29.117   7.950
 5323POPC   C4B27970  36.354  29.111   7.650
 5324POPC   NC327971   5.139  31.452   9.450
 5324POPC   PO427972   5.061  31.464   9.150
 5324POPC   GL127973   5.125  31.478   8.850
 5324POPC   GL227974   4.945  31.389   8.850
 5324POPC   C1A27975   5.071  31.517   8.550
 5324POPC   D2A27976   5.096  31.459   8.250
 5324POPC   C3A27977   5.100  31.443   7.950
 5324POPC   C4A27978   5.093  31.481   7.650
 5324POPC   C1B27979   4.894  31.374   8.550
 5324POPC   C2B27980   4.828  31.370   8.250
 5324POPC   C3B27981   4.859  31.426   7.950
 5324POPC   C4B27982   4.900  31.348   7.650
 5325POPC   NC327983   2.770   1.990   9.450
 5325POPC   PO427984   2.736   1.997   9.150
 5325POPC   GL127985   2.815   1.955   8.850
 5325POPC   GL227986   2.825   1.849   8.850
 5325POPC   C1A27987   2.801   1.967   8.550
 5325POPC   D2A27988   2.752   1.984   8.250
 5325POPC   C3A27989   2.790   1.952   7.950
 5325POPC   C4A27990   2.804   1.940   7.650
 5325POPC   C1B27991   2.829   1.701   8.550
 5325POPC   C2B27992   2.867   1.731   8.250
 5325POPC   C3B27993   2.860   1.768   7.950
 5325POPC   C4B27994   2.783   1.752   7.650
 5326POPC   NC327995  25.224  19.027   9.450
 5326POPC   PO427996  25.249  19.098   9.150
 5326POPC   GL127997  25.240  19.086   8.850
 5326POPC   GL227998  25.389  19.105   8.850
 5326POPC   C1A27999  25.251  19.039   8.550
 5326POPC   D2A28000  25.224  19.058   8.250
 5326POPC   C3A28001  25.261  19.022   7.950
 5326POPC   C4A28002  25.298  19.060   7.650
 5326POPC   C1B28003  25.462  19.251   8.550
 5326POPC   C2B28004  25.450  19.246   8.250
 5326POPC   C3B28005  25.412  19.289   7.950
 5326POPC   C4B28006  25.443  19.203   7.650
 5327POPC   NC328007  42.299  35.375   9.450
 5327POPC   PO428008  42.305  35.388   9.150
 5327POPC   GL128009  42.290  35.322   8.850
 5327POPC   GL228010  42.378  35.471   8.850
 5327POPC   C1A28011  42.367  35.347   8.550
 5327POPC   D2A28012  42.310  35.394   8.250
 5327POPC   C3A28013  42.351  35.373   7.950
 5327POPC   C4A28014  42.339  35.387   7.650
 5327POPC   C1B28015  42.349  35.621   8.550
 5327POPC   C2B28016  42.361  35.644   8.250
 5327POPC   C3B28017  42.378  35.587   7.950
 5327POPC   C4B28018  42.351  35.621   7.650
 5328POPC   NC328019  36.151  13.612   9.450
 5328POPC   PO428020  36.150  13.653   9.150
 5328POPC   GL128021  36.129  13.649   8.850
 5328POPC   GL228022  36.007  13.729   8.850
 5328POPC   C1A28023  36.084  13.667   8.550
 5328POPC   D2A28024  36.092  13.613   8.250
 5328POPC   C3A28025  36.128  13.665   7.950
 5328POPC   C4A28026  36.139  13.617   7.650
 5328POPC   C1B28027  35.961  13.759   8.550
 5328POPC   C2B28028  35.901  13.820   8.250
 5328POPC   C3B28029  35.980  13.825   7.950
 5328POPC   C4B28030  35.918  13.816   7.650
 5329POPC   NC328031  20.574  31.487   9.450
 5329POPC   PO428032  20.618  31.518   9.150
 5329POPC   GL128033  20.650  31.443   8.850
 5329POPC   GL228034  20.698  31.522   8.850
 5329POPC   C1A28035  20.605  31.455   8.550
 5329POPC   D2A28036  20.565  31.432   8.250
 5329POPC   C3A28037  20.569  31.506   7.950
 5329POPC   C4A28038  20.572  31.485   7.650
 5329POPC   C1B28039  20.792  31.609   8.550
 5329POPC   C2B28040  20.863  31.546   8.250
 5329POPC   C3B28041  20.881  31.551   7.950
 5329POPC   C4B28042  20.861  31.560   7.650
 5330POPC   NC328043  19.051   5.889   9.450
 5330POPC   PO428044  19.041   5.872   9.150
 5330POPC   GL128045  19.057   5.871   8.850
 5330POPC   GL228046  19.173   5.951   8.850
 5330POPC   C1A28047  19.036   5.847   8.550
 5330POPC   D2A28048  19.065   5.869   8.250
 5330POPC   C3A28049  19.042   5.853   7.950
 5330POPC   C4A28050  19.013   5.873   7.650
 5330POPC   C1B28051  19.223   5.980   8.550
 5330POPC   C2B28052  19.319   6.005   8.250
 5330POPC   C3B28053  19.237   6.042   7.950
 5330POPC   C4B28054  19.263   5.985   7.650
 5331POPC   NC328055   8.975  40.008   9.450
 5331POPC   PO428056   8.973  40.003   9.150
 5331POPC   GL128057   8.955  39.984   8.850
 5331POPC   GL228058   8.941  40.151   8.850
 5331POPC   C1A28059   8.972  39.957   8.550
 5331POPC   D2A28060   8.938  40.029   8.250
 5331POPC   C3A28061   8.994  39.988   7.950
 5331POPC   C4A28062   9.006  40.041   7.650
 5331POPC   C1B28063   8.947  40.264   8.550
 5331POPC   C2B28064   8.907  40.223   8.250
 5331POPC   C3B28065   8.873  40.285   7.950
 5331POPC   C4B28066   8.920  40.285   7.650
 5332POPC   NC328067  35.343  41.602   9.450
 5332POPC   PO428068  35.374  41.566   9.150
 5332POPC   GL128069  35.363  41.552   8.850
 5332POPC   GL228070  35.422  41.632   8.850
 5332POPC   C1A28071  35.352  41.515   8.550
 5332POPC   D2A28072  35.375  41.526   8.250
 5332POPC   C3A28073  35.387  41.580   7.950
 5332POPC   C4A28074  35.335  41.512   7.650
 5332POPC   C1B28075  35.613  41.711   8.550
 5332POPC   C2B28076  35.563  41.624   8.250
 5332POPC   C3B28077  35.567  41.681   7.950
 5332POPC   C4B28078  35.560  41.713   7.650
 5333POPC   NC328079  13.608  42.286   9.450
 5333POPC   PO428080  13.636  42.382   9.150
 5333POPC   GL128081  13.601  42.371   8.850
 5333POPC   GL228082  13.544  42.262   8.850
 5333POPC   C1A28083  13.639  42.289   8.550
 5333POPC   D2A28084  13.638  42.355   8.250
 5333POPC   C3A28085  13.672  42.312   7.950
 5333POPC   C4A28086  13.583  42.353   7.650
 5333POPC   C1B28087  13.511  42.160   8.550
 5333POPC   C2B28088  13.507  42.186   8.250
 5333POPC   C3B28089  13.510  42.168   7.950
 5333POPC   C4B28090  13.430  42.149   7.650
 5334POPC   NC328091  37.686  33.033   9.450
 5334POPC   PO428092  37.695  32.985   9.150
 5334POPC   GL128093  37.653  32.974   8.850
 5334POPC   GL228094  37.679  32.894   8.850
 5334POPC   C1A28095  37.700  32.999   8.550
 5334POPC   D2A28096  37.709  33.045   8.250
 5334POPC   C3A28097  37.653  33.041   7.950
 5334POPC   C4A28098  37.694  32.978   7.650
 5334POPC   C1B28099  37.590  32.766   8.550
 5334POPC   C2B28100  37.574  32.789   8.250
 5334POPC   C3B28101  37.608  32.785   7.950
 5334POPC   C4B28102  37.602  32.828   7.650
 5335POPC   NC328103  41.596  26.001   9.450
 5335POPC   PO428104  41.533  25.994   9.150
 5335POPC   GL128105  41.591  26.010   8.850
 5335POPC   GL228106  41.537  26.132   8.850
 5335POPC   C1A28107  41.553  26.000   8.550
 5335POPC   D2A28108  41.558  26.022   8.250
 5335POPC   C3A28109  41.572  26.004   7.950
 5335POPC   C4A28110  41.608  26.012   7.650
 5335POPC   C1B28111  41.408  26.232   8.550
 5335POPC   C2B28112  41.470  26.262   8.250
 5335POPC   C3B28113  41.433  26.283   7.950
 5335POPC   C4B28114  41.405  26.291   7.650
 5336POPC   NC328115   8.245  22.168   9.450
 5336POPC   PO428116   8.171  22.133   9.150
 5336POPC   GL128117   8.161  22.182   8.850
 5336POPC   GL228118   8.276  22.261   8.850
 5336POPC   C1A28119   8.215  22.183   8.550
 5336POPC   D2A28120   8.198  22.150   8.250
 5336POPC   C3A28121   8.172  22.161   7.950
 5336POPC   C4A28122   8.235  22.132   7.650
 5336POPC   C1B28123   8.439  22.309   8.550
 5336POPC   C2B28124   8.376  22.309   8.250
 5336POPC   C3B28125   8.436  22.247   7.950
 5336POPC   C4B28126   8.464  22.267   7.650
 5337POPC   NC328127  35.392  22.962   9.450
 5337POPC   PO428128  35.362  22.964   9.150
 5337POPC   GL128129  35.358  22.981   8.850
 5337POPC   GL228130  35.450  22.862   8.850
 5337POPC   C1A28131  35.384  22.916   8.550
 5337POPC   D2A28132  35.349  22.944   8.250
 5337POPC   C3A28133  35.357  22.949   7.950
 5337POPC   C4A28134  35.306  22.975   7.650
 5337POPC   C1B28135  35.573  22.841   8.550
 5337POPC   C2B28136  35.559  22.879   8.250
 5337POPC   C3B28137  35.561  22.890   7.950
 5337POPC   C4B28138  35.593  22.898   7.650
 5338POPC   NC328139  32.289   6.604   9.450
 5338POPC   PO428140  32.201   6.632   9.150
 5338POPC   GL128141  32.297   6.614   8.850
 5338POPC   GL228142  32.187   6.484   8.850
 5338POPC   C1A28143  32.214   6.610   8.550
 5338POPC   D2A28144  32.209   6.651   8.250
 5338POPC   C3A28145  32.288   6.637   7.950
 5338POPC   C4A28146  32.291   6.651   7.650
 5338POPC   C1B28147  32.201   6.421   8.550
 5338POPC   C2B28148  32.188   6.435   8.250
 5338POPC   C3B28149  32.171   6.394   7.950
 5338POPC   C4B28150  32.201   6.460   7.650
 5339POPC   NC328151   2.023  22.162   9.450
 5339POPC   PO428152   2.017  22.121   9.150
 5339POPC   GL128153   1.989  22.137   8.850
 5339POPC   GL228154   1.836  22.042   8.850
 5339POPC   C1A28155   1.956  22.210   8.550
 5339POPC   D2A28156   1.962  22.195   8.250
 5339POPC   C3A28157   2.023  22.124   7.950
 5339POPC   C4A28158   1.948  22.195   7.650
 5339POPC   C1B28159   1.783  22.005   8.550
 5339POPC   C2B28160   1.796  21.987   8.250
 5339POPC   C3B28161   1.795  22.022   7.950
 5339POPC   C4B28162   1.816  22.009   7.650
 5340POPC   NC328163  36.909  13.603   9.450
 5340POPC   PO428164  36.947  13.591   9.150
 5340POPC   GL128165  36.945  13.661   8.850
 5340POPC   GL228166  36.923  13.470   8.850
 5340POPC   C1A28167  36.920  13.611   8.550
 5340POPC   D2A28168  36.891  13.634   8.250
 5340POPC   C3A28169  36.858  13.601   7.950
 5340POPC   C4A28170  36.905  13.668   7.650
 5340POPC   C1B28171  37.031  13.373   8.550
 5340POPC   C2B28172  36.983  13.419   8.250
 5340POPC   C3B28173  37.021  13.344   7.950
 5340POPC   C4B28174  37.026  13.432   7.650
 5341POPC   NC328175  26.027  21.392   9.450
 5341POPC   PO428176  26.072  21.374   9.150
 5341POPC   GL128177  26.017  21.409   8.850
 5341POPC   GL228178  26.016  21.240   8.850
 5341POPC   C1A28179  26.039  21.377   8.550
 5341POPC   D2A28180  26.058  21.386   8.250
 5341POPC   C3A28181  26.018  21.355   7.950
 5341POPC   C4A28182  26.025  21.385   7.650
 5341POPC   C1B28183  26.074  21.153   8.550
 5341POPC   C2B28184  26.116  21.160   8.250
 5341POPC   C3B28185  26.123  21.174   7.950
 5341POPC   C4B28186  26.049  21.166   7.650
 5342POPC   NC328187  12.052   3.548   9.450
 5342POPC   PO428188  12.047   3.507   9.150
 5342POPC   GL128189  12.046   3.496   8.850
 5342POPC   GL228190  12.031   3.462   8.850
 5342POPC   C1A28191  12.100   3.589   8.550
 5342POPC   D2A28192  12.108   3.527   8.250
 5342POPC   C3A28193  12.098   3.575   7.950
 5342POPC   C4A28194  12.069   3.507   7.650
 5342POPC   C1B28195  11.881   3.350   8.550
 5342POPC   C2B28196  11.946   3.390   8.250
 5342POPC   C3B28197  11.870   3.373   7.950
 5342POPC   C4B28198  11.893   3.368   7.650
 5343POPC   NC328199   5.071  18.238   9.450
 5343POPC   PO428200   5.099  18.331   9.150
 5343POPC   GL128201   5.091  18.244   8.850
 5343POPC   GL228202   5.141  18.167   8.850
 5343POPC   C1A28203   5.059  18.273   8.550
 5343POPC   D2A28204   5.099  18.243   8.250
 5343POPC   C3A28205   5.044  18.235   7.950
 5343POPC   C4A28206   5.061  18.262   7.650
 5343POPC   C1B28207   5.258  18.073   8.550
 5343POPC   C2B28208   5.240  18.111   8.250
 5343POPC   C3B28209   5.231  18.097   7.950
 5343POPC   C4B28210   5.278  18.061   7.650
 5344POPC   NC328211  40.035  43.894   9.450
 5344POPC   PO428212  40.021  43.869   9.150
 5344POPC   GL128213  39.995  43.873   8.850
 5344POPC   GL228214  40.163  43.872   8.850
 5344POPC   C1A28215  40.049  43.921   8.550
 5344POPC   D2A28216  40.005  43.882   8.250
 5344POPC   C3A28217  40.056  43.907   7.950
 5344POPC   C4A28218  39.995  43.881   7.650
 5344POPC   C1B28219  40.241  43.740   8.550
 5344POPC   C2B28220  40.192  43.800   8.250
 5344POPC   C3B28221  40.283  43.791   7.950
 5344POPC   C4B28222  40.230  43.753   7.650
 5345POPC   NC328223   8.941  31.513   9.450
 5345POPC   PO428224   8.965  31.454   9.150
 5345POPC   GL128225   9.003  31.509   8.850
 5345POPC   GL228226   9.073  31.427   8.850
 5345POPC   C1A28227   8.995  31.478   8.550
 5345POPC   D2A28228   8.931  31.469   8.250
 5345POPC   C3A28229   8.984  31.439   7.950
 5345POPC   C4A28230   8.962  31.521   7.650
 5345POPC   C1B28231   9.187  31.353   8.550
 5345POPC   C2B28232   9.246  31.381   8.250
 5345POPC   C3B28233   9.173  31.379   7.950
 5345POPC   C4B28234   9.247  31.354   7.650
 5346POPC   NC328235  20.611  36.097   9.450
 5346POPC   PO428236  20.580  36.163   9.150
 5346POPC   GL128237  20.594  36.171   8.850
 5346POPC   GL228238  20.559  36.172   8.850
 5346POPC   C1A28239  20.566  36.117   8.550
 5346POPC   D2A28240  20.611  36.151   8.250
 5346POPC   C3A28241  20.604  36.094   7.950
 5346POPC   C4A28242  20.659  36.125   7.650
 5346POPC   C1B28243  20.411  36.255   8.550
 5346POPC   C2B28244  20.415  36.336   8.250
 5346POPC   C3B28245  20.409  36.255   7.950
 5346POPC   C4B28246  20.430  36.341   7.650
 5347POPC   NC328247  19.097  30.700   9.450
 5347POPC   PO428248  19.045  30.745   9.150
 5347POPC   GL128249  19.087  30.663   8.850
 5347POPC   GL228250  19.147  30.599   8.850
 5347POPC   C1A28251  19.058  30.652   8.550
 5347POPC   D2A28252  19.039  30.745   8.250
 5347POPC   C3A28253  19.035  30.691   7.950
 5347POPC   C4A28254  19.055  30.725   7.650
 5347POPC   C1B28255  19.171  30.517   8.550
 5347POPC   C2B28256  19.157  30.496   8.250
 5347POPC   C3B28257  19.147  30.527   7.950
 5347POPC   C4B28258  19.179  30.504   7.650
 5348POPC   NC328259  33.001  26.795   9.450
 5348POPC   PO428260  32.980  26.813   9.150
 5348POPC   GL128261  32.997  26.842   8.850
 5348POPC   GL228262  32.947  26.797   8.850
 5348POPC   C1A28263  33.033  26.783   8.550
 5348POPC   D2A28264  33.006  26.809   8.250
 5348POPC   C3A28265  33.067  26.781   7.950
 5348POPC   C4A28266  33.002  26.799   7.650
 5348POPC   C1B28267  32.750  26.765   8.550
 5348POPC   C2B28268  32.835  26.682   8.250
 5348POPC   C3B28269  32.746  26.754   7.950
 5348POPC   C4B28270  32.803  26.708   7.650
 5349POPC   NC328271  15.935  19.824   9.450
 5349POPC   PO428272  15.983  19.837   9.150
 5349POPC   GL128273  15.982  19.808   8.850
 5349POPC   GL228274  15.985  19.991   8.850
 5349POPC   C1A28275  15.917  19.788   8.550
 5349POPC   D2A28276  15.989  19.804   8.250
 5349POPC   C3A28277  15.996  19.793   7.950
 5349POPC   C4A28278  15.913  19.826   7.650
 5349POPC   C1B28279  15.999  20.109   8.550
 5349POPC   C2B28280  16.012  20.043   8.250
 5349POPC   C3B28281  15.954  20.033   7.950
 5349POPC   C4B28282  16.031  20.050   7.650
 5350POPC   NC328283  34.568  39.217   9.450
 5350POPC   PO428284  34.536  39.248   9.150
 5350POPC   GL128285  34.584  39.200   8.850
 5350POPC   GL228286  34.555  39.376   8.850
 5350POPC   C1A28287  34.586  39.230   8.550
 5350POPC   D2A28288  34.543  39.228   8.250
 5350POPC   C3A28289  34.544  39.248   7.950
 5350POPC   C4A28290  34.617  39.271   7.650
 5350POPC   C1B28291  34.529  39.441   8.550
 5350POPC   C2B28292  34.483  39.430   8.250
 5350POPC   C3B28293  34.509  39.484   7.950
 5350POPC   C4B28294  34.437  39.482   7.650
 5351POPC   NC328295  14.444  15.950   9.450
 5351POPC   PO428296  14.369  15.969   9.150
 5351POPC   GL128297  14.366  15.937   8.850
 5351POPC   GL228298  14.525  15.921   8.850
 5351POPC   C1A28299  14.385  15.938   8.550
 5351POPC   D2A28300  14.356  15.991   8.250
 5351POPC   C3A28301  14.363  15.929   7.950
 5351POPC   C4A28302  14.392  15.964   7.650
 5351POPC   C1B28303  14.584  15.875   8.550
 5351POPC   C2B28304  14.666  15.805   8.250
 5351POPC   C3B28305  14.586  15.829   7.950
 5351POPC   C4B28306  14.610  15.860   7.650
 5352POPC   NC328307  19.805  17.553   9.450
 5352POPC   PO428308  19.869  17.538   9.150
 5352POPC   GL128309  19.833  17.541   8.850
 5352POPC   GL228310  19.748  17.368   8.850
 5352POPC   C1A28311  19.828  17.544   8.550
 5352POPC   D2A28312  19.849  17.489   8.250
 5352POPC   C3A28313  19.844  17.535   7.950
 5352POPC   C4A28314  19.796  17.468   7.650
 5352POPC   C1B28315  19.709  17.297   8.550
 5352POPC   C2B28316  19.773  17.231   8.250
 5352POPC   C3B28317  19.745  17.237   7.950
 5352POPC   C4B28318  19.701  17.277   7.650
 5353POPC   NC328319   0.413  24.467   9.450
 5353POPC   PO428320   0.466  24.487   9.150
 5353POPC   GL128321   0.470  24.520   8.850
 5353POPC   GL228322   0.341  24.433   8.850
 5353POPC   C1A28323   0.481  24.507   8.550
 5353POPC   D2A28324   0.483  24.511   8.250
 5353POPC   C3A28325   0.425  24.461   7.950
 5353POPC   C4A28326   0.475  24.516   7.650
 5353POPC   C1B28327   0.306  24.278   8.550
 5353POPC   C2B28328   0.317  24.265   8.250
 5353POPC   C3B28329   0.335  24.281   7.950
 5353POPC   C4B28330   0.323  24.261   7.650
 5354POPC   NC328331   4.357   5.822   9.450
 5354POPC   PO428332   4.348   5.843   9.150
 5354POPC   GL128333   4.329   5.861   8.850
 5354POPC   GL228334   4.398   5.719   8.850
 5354POPC   C1A28335   4.346   5.834   8.550
 5354POPC   D2A28336   4.325   5.855   8.250
 5354POPC   C3A28337   4.289   5.842   7.950
 5354POPC   C4A28338   4.324   5.913   7.650
 5354POPC   C1B28339   4.419   5.661   8.550
 5354POPC   C2B28340   4.408   5.612   8.250
 5354POPC   C3B28341   4.442   5.639   7.950
 5354POPC   C4B28342   4.440   5.618   7.650
 5355POPC   NC328343  15.998  26.827   9.450
 5355POPC   PO428344  15.916  26.829   9.150
 5355POPC   GL128345  15.929  26.818   8.850
 5355POPC   GL228346  15.915  26.664   8.850
 5355POPC   C1A28347  15.959  26.854   8.550
 5355POPC   D2A28348  15.969  26.839   8.250
 5355POPC   C3A28349  15.955  26.818   7.950
 5355POPC   C4A28350  15.984  26.790   7.650
 5355POPC   C1B28351  15.945  26.548   8.550
 5355POPC   C2B28352  15.958  26.567   8.250
 5355POPC   C3B28353  15.932  26.581   7.950
 5355POPC   C4B28354  15.948  26.588   7.650
 5356POPC   NC328355   8.225  26.768   9.450
 5356POPC   PO428356   8.233  26.782   9.150
 5356POPC   GL128357   8.216  26.843   8.850
 5356POPC   GL228358   8.331  26.872   8.850
 5356POPC   C1A28359   8.151  26.834   8.550
 5356POPC   D2A28360   8.237  26.856   8.250
 5356POPC   C3A28361   8.195  26.843   7.950
 5356POPC   C4A28362   8.222  26.851   7.650
 5356POPC   C1B28363   8.343  26.979   8.550
 5356POPC   C2B28364   8.434  27.026   8.250
 5356POPC   C3B28365   8.435  26.964   7.950
 5356POPC   C4B28366   8.425  26.963   7.650
 5357POPC   NC328367  19.080   3.533   9.450
 5357POPC   PO428368  19.061   3.538   9.150
 5357POPC   GL128369  19.076   3.508   8.850
 5357POPC   GL228370  18.899   3.520   8.850
 5357POPC   C1A28371  19.090   3.571   8.550
 5357POPC   D2A28372  19.085   3.567   8.250
 5357POPC   C3A28373  19.097   3.525   7.950
 5357POPC   C4A28374  19.042   3.530   7.650
 5357POPC   C1B28375  18.778   3.530   8.550
 5357POPC   C2B28376  18.785   3.485   8.250
 5357POPC   C3B28377  18.806   3.514   7.950
 5357POPC   C4B28378  18.806   3.471   7.650
 5358POPC   NC328379   8.925  36.124   9.450
 5358POPC   PO428380   8.997  36.125   9.150
 5358POPC   GL128381   8.925  36.080   8.850
 5358POPC   GL228382   8.886  36.036   8.850
 5358POPC   C1A28383   8.968  36.080   8.550
 5358POPC   D2A28384   8.978  36.134   8.250
 5358POPC   C3A28385   8.989  36.177   7.950
 5358POPC   C4A28386   8.967  36.086   7.650
 5358POPC   C1B28387   8.822  35.984   8.550
 5358POPC   C2B28388   8.821  35.945   8.250
 5358POPC   C3B28389   8.730  35.944   7.950
 5358POPC   C4B28390   8.802  35.976   7.650
 5359POPC   NC328391  43.098  19.842   9.450
 5359POPC   PO428392  43.122  19.788   9.150
 5359POPC   GL128393  43.108  19.798   8.850
 5359POPC   GL228394  43.178  19.729   8.850
 5359POPC   C1A28395  43.091  19.865   8.550
 5359POPC   D2A28396  43.122  19.834   8.250
 5359POPC   C3A28397  43.149  19.786   7.950
 5359POPC   C4A28398  43.062  19.785   7.650
 5359POPC   C1B28399  43.320  19.701   8.550
 5359POPC   C2B28400  43.326  19.704   8.250
 5359POPC   C3B28401  43.259  19.681   7.950
 5359POPC   C4B28402  43.332  19.668   7.650
 5360POPC   NC328403   3.584  35.394   9.450
 5360POPC   PO428404   3.583  35.399   9.150
 5360POPC   GL128405   3.585  35.388   8.850
 5360POPC   GL228406   3.600  35.241   8.850
 5360POPC   C1A28407   3.584  35.400   8.550
 5360POPC   D2A28408   3.567  35.397   8.250
 5360POPC   C3A28409   3.573  35.348   7.950
 5360POPC   C4A28410   3.571  35.328   7.650
 5360POPC   C1B28411   3.645  35.081   8.550
 5360POPC   C2B28412   3.697  35.134   8.250
 5360POPC   C3B28413   3.637  35.125   7.950
 5360POPC   C4B28414   3.629  35.098   7.650
 5361POPC   NC328415  13.647  35.352   9.450
 5361POPC   PO428416  13.659  35.341   9.150
 5361POPC   GL128417  13.663  35.387   8.850
 5361POPC   GL228418  13.547  35.300   8.850
 5361POPC   C1A28419  13.635  35.353   8.550
 5361POPC   D2A28420  13.587  35.315   8.250
 5361POPC   C3A28421  13.622  35.348   7.950
 5361POPC   C4A28422  13.588  35.362   7.650
 5361POPC   C1B28423  13.410  35.312   8.550
 5361POPC   C2B28424  13.403  35.382   8.250
 5361POPC   C3B28425  13.354  35.311   7.950
 5361POPC   C4B28426  13.343  35.345   7.650
 5362POPC   NC328427  36.166   1.198   9.450
 5362POPC   PO428428  36.142   1.236   9.150
 5362POPC   GL128429  36.107   1.240   8.850
 5362POPC   GL228430  36.296   1.181   8.850
 5362POPC   C1A28431  36.089   1.220   8.550
 5362POPC   D2A28432  36.175   1.222   8.250
 5362POPC   C3A28433  36.150   1.255   7.950
 5362POPC   C4A28434  36.153   1.209   7.650
 5362POPC   C1B28435  36.324   1.130   8.550
 5362POPC   C2B28436  36.416   1.142   8.250
 5362POPC   C3B28437  36.361   1.124   7.950
 5362POPC   C4B28438  36.352   1.152   7.650
 5363POPC   NC328439  11.258  15.942   9.450
 5363POPC   PO428440  11.313  15.908   9.150
 5363POPC   GL128441  11.279  15.950   8.850
 5363POPC   GL228442  11.274  15.833   8.850
 5363POPC   C1A28443  11.327  15.965   8.550
 5363POPC   D2A28444  11.296  15.998   8.250
 5363POPC   C3A28445  11.310  15.915   7.950
 5363POPC   C4A28446  11.308  15.958   7.650
 5363POPC   C1B28447  11.338  15.670   8.550
 5363POPC   C2B28448  11.331  15.750   8.250
 5363POPC   C3B28449  11.322  15.701   7.950
 5363POPC   C4B28450  11.345  15.690   7.650
 5364POPC   NC328451  16.759  34.534   9.450
 5364POPC   PO428452  16.682  34.619   9.150
 5364POPC   GL128453  16.775  34.564   8.850
 5364POPC   GL228454  16.713  34.673   8.850
 5364POPC   C1A28455  16.713  34.582   8.550
 5364POPC   D2A28456  16.721  34.569   8.250
 5364POPC   C3A28457  16.690  34.608   7.950
 5364POPC   C4A28458  16.755  34.596   7.650
 5364POPC   C1B28459  16.837  34.815   8.550
 5364POPC   C2B28460  16.798  34.847   8.250
 5364POPC   C3B28461  16.813  34.777   7.950
 5364POPC   C4B28462  16.738  34.786   7.650
 5365POPC   NC328463  43.932   9.771   9.450
 5365POPC   PO428464  43.932   9.765   9.150
 5365POPC   GL128465  43.915   9.715   8.850
 5365POPC   GL228466  43.950   9.649   8.850
 5365POPC   C1A28467  43.932   9.732   8.550
 5365POPC   D2A28468  43.885   9.756   8.250
 5365POPC   C3A28469  43.847   9.708   7.950
 5365POPC   C4A28470  43.849   9.791   7.650
 5365POPC   C1B28471  44.054   9.556   8.550
 5365POPC   C2B28472  44.067   9.596   8.250
 5365POPC   C3B28473  44.087   9.552   7.950
 5365POPC   C4B28474  44.033   9.589   7.650
 5366POPC   NC328475  41.600  23.748   9.450
 5366POPC   PO428476  41.569  23.681   9.150
 5366POPC   GL128477  41.555  23.724   8.850
 5366POPC   GL228478  41.535  23.633   8.850
 5366POPC   C1A28479  41.604  23.677   8.550
 5366POPC   D2A28480  41.543  23.700   8.250
 5366POPC   C3A28481  41.549  23.742   7.950
 5366POPC   C4A28482  41.553  23.667   7.650
 5366POPC   C1B28483  41.477  23.514   8.550
 5366POPC   C2B28484  41.464  23.437   8.250
 5366POPC   C3B28485  41.530  23.462   7.950
 5366POPC   C4B28486  41.555  23.502   7.650
 5367POPC   NC328487  21.337  42.348   9.450
 5367POPC   PO428488  21.366  42.355   9.150
 5367POPC   GL128489  21.338  42.329   8.850
 5367POPC   GL228490  21.406  42.186   8.850
 5367POPC   C1A28491  21.342  42.340   8.550
 5367POPC   D2A28492  21.365  42.354   8.250
 5367POPC   C3A28493  21.369  42.313   7.950
 5367POPC   C4A28494  21.400  42.360   7.650
 5367POPC   C1B28495  21.528  42.139   8.550
 5367POPC   C2B28496  21.437  42.123   8.250
 5367POPC   C3B28497  21.466  42.058   7.950
 5367POPC   C4B28498  21.517  42.068   7.650
 5368POPC   NC328499  22.974  22.957   9.450
 5368POPC   PO428500  22.948  22.958   9.150
 5368POPC   GL128501  22.903  22.967   8.850
 5368POPC   GL228502  22.936  23.112   8.850
 5368POPC   C1A28503  22.926  22.904   8.550
 5368POPC   D2A28504  22.928  22.943   8.250
 5368POPC   C3A28505  22.950  22.895   7.950
 5368POPC   C4A28506  22.963  22.933   7.650
 5368POPC   C1B28507  22.970  23.233   8.550
 5368POPC   C2B28508  22.941  23.161   8.250
 5368POPC   C3B28509  22.884  23.204   7.950
 5368POPC   C4B28510  22.897  23.142   7.650
 5369POPC   NC328511   9.715   0.407   9.450
 5369POPC   PO428512   9.746   0.431   9.150
 5369POPC   GL128513   9.753   0.476   8.850
 5369POPC   GL228514   9.585   0.388   8.850
 5369POPC   C1A28515   9.751   0.474   8.550
 5369POPC   D2A28516   9.736   0.401   8.250
 5369POPC   C3A28517   9.738   0.447   7.950
 5369POPC   C4A28518   9.738   0.438   7.650
 5369POPC   C1B28519   9.529   0.395   8.550
 5369POPC   C2B28520   9.484   0.399   8.250
 5369POPC   C3B28521   9.465   0.399   7.950
 5369POPC   C4B28522   9.519   0.382   7.650
 5370POPC   NC328523  26.832  32.232   9.450
 5370POPC   PO428524  26.805  32.248   9.150
 5370POPC   GL128525  26.852  32.296   8.850
 5370POPC   GL228526  26.736  32.342   8.850
 5370POPC   C1A28527  26.821  32.205   8.550
 5370POPC   D2A28528  26.863  32.250   8.250
 5370POPC   C3A28529  26.782  32.276   7.950
 5370POPC   C4A28530  26.811  32.296   7.650
 5370POPC   C1B28531  26.730  32.449   8.550
 5370POPC   C2B28532  26.731  32.502   8.250
 5370POPC   C3B28533  26.684  32.521   7.950
 5370POPC   C4B28534  26.683  32.479   7.650
 5371POPC   NC328535  18.253   6.619   9.450
 5371POPC   PO428536  18.236   6.625   9.150
 5371POPC   GL128537  18.244   6.642   8.850
 5371POPC   GL228538  18.195   6.802   8.850
 5371POPC   C1A28539  18.280   6.667   8.550
 5371POPC   D2A28540  18.269   6.684   8.250
 5371POPC   C3A28541  18.324   6.678   7.950
 5371POPC   C4A28542  18.309   6.606   7.650
 5371POPC   C1B28543  18.189   6.918   8.550
 5371POPC   C2B28544  18.131   6.864   8.250
 5371POPC   C3B28545  18.167   6.828   7.950
 5371POPC   C4B28546  18.183   6.855   7.650
 5372POPC   NC328547  28.408  15.175   9.450
 5372POPC   PO428548  28.396  15.143   9.150
 5372POPC   GL128549  28.413  15.215   8.850
 5372POPC   GL228550  28.481  15.146   8.850
 5372POPC   C1A28551  28.406  15.219   8.550
 5372POPC   D2A28552  28.348  15.193   8.250
 5372POPC   C3A28553  28.393  15.219   7.950
 5372POPC   C4A28554  28.355  15.217   7.650
 5372POPC   C1B28555  28.621  15.144   8.550
 5372POPC   C2B28556  28.660  15.156   8.250
 5372POPC   C3B28557  28.587  15.131   7.950
 5372POPC   C4B28558  28.650  15.179   7.650
 5373POPC   NC328559  41.559  25.291   9.450
 5373POPC   PO428560  41.509  25.280   9.150
 5373POPC   GL128561  41.587  25.250   8.850
 5373POPC   GL228562  41.667  25.206   8.850
 5373POPC   C1A28563  41.598  25.293   8.550
 5373POPC   D2A28564  41.608  25.291   8.250
 5373POPC   C3A28565  41.566  25.286   7.950
 5373POPC   C4A28566  41.510  25.270   7.650
 5373POPC   C1B28567  41.779  25.116   8.550
 5373POPC   C2B28568  41.734  25.107   8.250
 5373POPC   C3B28569  41.763  25.065   7.950
 5373POPC   C4B28570  41.755  25.115   7.650
 5374POPC   NC328571  19.859  25.997   9.450
 5374POPC   PO428572  19.794  26.084   9.150
 5374POPC   GL128573  19.795  26.057   8.850
 5374POPC   GL228574  19.880  25.902   8.850
 5374POPC   C1A28575  19.866  26.071   8.550
 5374POPC   D2A28576  19.869  25.999   8.250
 5374POPC   C3A28577  19.786  26.089   7.950
 5374POPC   C4A28578  19.807  26.053   7.650
 5374POPC   C1B28579  19.803  25.766   8.550
 5374POPC   C2B28580  19.897  25.837   8.250
 5374POPC   C3B28581  19.892  25.754   7.950
 5374POPC   C4B28582  19.828  25.797   7.650
 5375POPC   NC328583  19.011  29.930   9.450
 5375POPC   PO428584  19.014  29.928   9.150
 5375POPC   GL128585  19.021  29.931   8.850
 5375POPC   GL228586  18.917  29.834   8.850
 5375POPC   C1A28587  19.060  29.878   8.550
 5375POPC   D2A28588  19.108  29.967   8.250
 5375POPC   C3A28589  19.047  29.903   7.950
 5375POPC   C4A28590  19.067  29.885   7.650
 5375POPC   C1B28591  18.885  29.768   8.550
 5375POPC   C2B28592  18.888  29.826   8.250
 5375POPC   C3B28593  18.833  29.746   7.950
 5375POPC   C4B28594  18.803  29.795   7.650
 5376POPC   NC328595   8.238  36.172   9.450
 5376POPC   PO428596   8.188  36.126   9.150
 5376POPC   GL128597   8.181  36.094   8.850
 5376POPC   GL228598   8.133  36.049   8.850
 5376POPC   C1A28599   8.153  36.102   8.550
 5376POPC   D2A28600   8.231  36.166   8.250
 5376POPC   C3A28601   8.234  36.087   7.950
 5376POPC   C4A28602   8.184  36.105   7.650
 5376POPC   C1B28603   8.038  35.974   8.550
 5376POPC   C2B28604   7.965  35.912   8.250
 5376POPC   C3B28605   7.971  35.940   7.950
 5376POPC   C4B28606   8.035  35.925   7.650
 5377POPC   NC328607  41.552  10.484   9.450
 5377POPC   PO428608  41.592  10.549   9.150
 5377POPC   GL128609  41.580  10.557   8.850
 5377POPC   GL228610  41.468  10.577   8.850
 5377POPC   C1A28611  41.584  10.534   8.550
 5377POPC   D2A28612  41.532  10.506   8.250
 5377POPC   C3A28613  41.569  10.566   7.950
 5377POPC   C4A28614  41.520  10.555   7.650
 5377POPC   C1B28615  41.336  10.737   8.550
 5377POPC   C2B28616  41.353  10.695   8.250
 5377POPC   C3B28617  41.402  10.734   7.950
 5377POPC   C4B28618  41.395  10.655   7.650
 5378POPC   NC328619  32.988  15.918   9.450
 5378POPC   PO428620  33.035  15.994   9.150
 5378POPC   GL128621  33.022  15.928   8.850
 5378POPC   GL228622  33.188  16.046   8.850
 5378POPC   C1A28623  33.031  15.921   8.550
 5378POPC   D2A28624  33.062  15.934   8.250
 5378POPC   C3A28625  32.999  15.998   7.950
 5378POPC   C4A28626  33.003  15.972   7.650
 5378POPC   C1B28627  33.235  16.082   8.550
 5378POPC   C2B28628  33.277  16.071   8.250
 5378POPC   C3B28629  33.253  16.027   7.950
 5378POPC   C4B28630  33.294  16.044   7.650
 5379POPC   NC328631  26.858  40.823   9.450
 5379POPC   PO428632  26.867  40.792   9.150
 5379POPC   GL128633  26.856  40.779   8.850
 5379POPC   GL228634  26.720  40.807   8.850
 5379POPC   C1A28635  26.850  40.734   8.550
 5379POPC   D2A28636  26.801  40.781   8.250
 5379POPC   C3A28637  26.855  40.750   7.950
 5379POPC   C4A28638  26.795  40.745   7.650
 5379POPC   C1B28639  26.555  40.883   8.550
 5379POPC   C2B28640  26.590  40.864   8.250
 5379POPC   C3B28641  26.562  40.876   7.950
 5379POPC   C4B28642  26.604  40.889   7.650
 5380POPC   NC328643  21.346  22.944   9.450
 5380POPC   PO428644  21.384  22.889   9.150
 5380POPC   GL128645  21.379  22.925   8.850
 5380POPC   GL228646  21.495  22.786   8.850
 5380POPC   C1A28647  21.376  22.937   8.550
 5380POPC   D2A28648  21.411  22.899   8.250
 5380POPC   C3A28649  21.418  22.958   7.950
 5380POPC   C4A28650  21.366  22.940   7.650
 5380POPC   C1B28651  21.483  22.739   8.550
 5380POPC   C2B28652  21.509  22.773   8.250
 5380POPC   C3B28653  21.491  22.705   7.950
 5380POPC   C4B28654  21.473  22.752   7.650
 5381POPC   NC328655  14.421   6.616   9.450
 5381POPC   PO428656  14.425   6.655   9.150
 5381POPC   GL128657  14.429   6.682   8.850
 5381POPC   GL228658  14.514   6.557   8.850
 5381POPC   C1A28659  14.359   6.677   8.550
 5381POPC   D2A28660  14.356   6.639   8.250
 5381POPC   C3A28661  14.411   6.682   7.950
 5381POPC   C4A28662  14.412   6.614   7.650
 5381POPC   C1B28663  14.565   6.477   8.550
 5381POPC   C2B28664  14.583   6.477   8.250
 5381POPC   C3B28665  14.589   6.514   7.950
 5381POPC   C4B28666  14.624   6.452   7.650
 5382POPC   NC328667   0.394  32.247   9.450
 5382POPC   PO428668   0.455  32.241   9.150
 5382POPC   GL128669   0.469  32.283   8.850
 5382POPC   GL228670   0.476  32.117   8.850
 5382POPC   C1A28671   0.419  32.241   8.550
 5382POPC   D2A28672   0.424  32.294   8.250
 5382POPC   C3A28673   0.397  32.258   7.950
 5382POPC   C4A28674   0.471  32.246   7.650
 5382POPC   C1B28675   0.431  32.023   8.550
 5382POPC   C2B28676   0.431  31.976   8.250
 5382POPC   C3B28677   0.450  31.980   7.950
 5382POPC   C4B28678   0.398  32.047   7.650
 5383POPC   NC328679   5.046  20.615   9.450
 5383POPC   PO428680   5.122  20.617   9.150
 5383POPC   GL128681   5.044  20.606   8.850
 5383POPC   GL228682   5.220  20.691   8.850
 5383POPC   C1A28683   5.083  20.581   8.550
 5383POPC   D2A28684   5.134  20.658   8.250
 5383POPC   C3A28685   5.105  20.616   7.950
 5383POPC   C4A28686   5.141  20.582   7.650
 5383POPC   C1B28687   5.290  20.808   8.550
 5383POPC   C2B28688   5.303  20.754   8.250
 5383POPC   C3B28689   5.207  20.822   7.950
 5383POPC   C4B28690   5.286  20.752   7.650
 5384POPC   NC328691  25.230   6.647   9.450
 5384POPC   PO428692  25.269   6.693   9.150
 5384POPC   GL128693  25.265   6.609   8.850
 5384POPC   GL228694  25.389   6.683   8.850
 5384POPC   C1A28695  25.256   6.610   8.550
 5384POPC   D2A28696  25.230   6.615   8.250
 5384POPC   C3A28697  25.263   6.630   7.950
 5384POPC   C4A28698  25.217   6.669   7.650
 5384POPC   C1B28699  25.545   6.754   8.550
 5384POPC   C2B28700  25.557   6.673   8.250
 5384POPC   C3B28701  25.473   6.673   7.950
 5384POPC   C4B28702  25.540   6.695   7.650
 5385POPC   NC328703  37.692  14.431   9.450
 5385POPC   PO428704  37.716  14.382   9.150
 5385POPC   GL128705  37.635  14.357   8.850
 5385POPC   GL228706  37.690  14.285   8.850
 5385POPC   C1A28707  37.707  14.401   8.550
 5385POPC   D2A28708  37.721  14.409   8.250
 5385POPC   C3A28709  37.726  14.399   7.950
 5385POPC   C4A28710  37.689  14.398   7.650
 5385POPC   C1B28711  37.725  14.129   8.550
 5385POPC   C2B28712  37.673  14.157   8.250
 5385POPC   C3B28713  37.723  14.189   7.950
 5385POPC   C4B28714  37.711  14.119   7.650
 5386POPC   NC328715   4.276   3.507   9.450
 5386POPC   PO428716   4.276   3.497   9.150
 5386POPC   GL128717   4.291   3.517   8.850
 5386POPC   GL228718   4.374   3.588   8.850
 5386POPC   C1A28719   4.347   3.515   8.550
 5386POPC   D2A28720   4.271   3.493   8.250
 5386POPC   C3A28721   4.306   3.549   7.950
 5386POPC   C4A28722   4.348   3.500   7.650
 5386POPC   C1B28723   4.557   3.689   8.550
 5386POPC   C2B28724   4.478   3.694   8.250
 5386POPC   C3B28725   4.490   3.667   7.950
 5386POPC   C4B28726   4.520   3.712   7.650
 5387POPC   NC328727  36.945  39.961   9.450
 5387POPC   PO428728  36.873  40.025   9.150
 5387POPC   GL128729  36.928  39.974   8.850
 5387POPC   GL228730  37.006  39.872   8.850
 5387POPC   C1A28731  36.946  40.018   8.550
 5387POPC   D2A28732  36.935  39.990   8.250
 5387POPC   C3A28733  36.861  39.960   7.950
 5387POPC   C4A28734  36.924  40.048   7.650
 5387POPC   C1B28735  36.973  39.822   8.550
 5387POPC   C2B28736  36.965  39.736   8.250
 5387POPC   C3B28737  36.996  39.796   7.950
 5387POPC   C4B28738  36.969  39.807   7.650
 5388POPC   NC328739  28.329  27.621   9.450
 5388POPC   PO428740  28.357  27.558   9.150
 5388POPC   GL128741  28.411  27.561   8.850
 5388POPC   GL228742  28.275  27.685   8.850
 5388POPC   C1A28743  28.368  27.640   8.550
 5388POPC   D2A28744  28.387  27.596   8.250
 5388POPC   C3A28745  28.340  27.589   7.950
 5388POPC   C4A28746  28.404  27.596   7.650
 5388POPC   C1B28747  28.174  27.734   8.550
 5388POPC   C2B28748  28.175  27.755   8.250
 5388POPC   C3B28749  28.157  27.777   7.950
 5388POPC   C4B28750  28.198  27.725   7.650
 5389POPC   NC328751  37.687  15.173   9.450
 5389POPC   PO428752  37.690  15.205   9.150
 5389POPC   GL128753  37.702  15.186   8.850
 5389POPC   GL228754  37.678  15.259   8.850
 5389POPC   C1A28755  37.670  15.140   8.550
 5389POPC   D2A28756  37.722  15.206   8.250
 5389POPC   C3A28757  37.716  15.223   7.950
 5389POPC   C4A28758  37.642  15.168   7.650
 5389POPC   C1B28759  37.603  15.468   8.550
 5389POPC   C2B28760  37.623  15.407   8.250
 5389POPC   C3B28761  37.600  15.465   7.950
 5389POPC   C4B28762  37.669  15.433   7.650
 5390POPC   NC328763  10.559  21.392   9.450
 5390POPC   PO428764  10.474  21.407   9.150
 5390POPC   GL128765  10.483  21.407   8.850
 5390POPC   GL228766  10.658  21.288   8.850
 5390POPC   C1A28767  10.492  21.378   8.550
 5390POPC   D2A28768  10.501  21.372   8.250
 5390POPC   C3A28769  10.525  21.365   7.950
 5390POPC   C4A28770  10.564  21.378   7.650
 5390POPC   C1B28771  10.726  21.211   8.550
 5390POPC   C2B28772  10.746  21.247   8.250
 5390POPC   C3B28773  10.756  21.206   7.950
 5390POPC   C4B28774  10.735  21.205   7.650
 5391POPC   NC328775  29.103   5.889   9.450
 5391POPC   PO428776  29.099   5.863   9.150
 5391POPC   GL128777  29.190   5.829   8.850
 5391POPC   GL228778  29.224   5.775   8.850
 5391POPC   C1A28779  29.121   5.844   8.550
 5391POPC   D2A28780  29.097   5.848   8.250
 5391POPC   C3A28781  29.148   5.891   7.950
 5391POPC   C4A28782  29.097   5.838   7.650
 5391POPC   C1B28783  29.285   5.690   8.550
 5391POPC   C2B28784  29.336   5.645   8.250
 5391POPC   C3B28785  29.344   5.662   7.950
 5391POPC   C4B28786  29.296   5.701   7.650
 5392POPC   NC328787  40.823   2.718   9.450
 5392POPC   PO428788  40.775   2.796   9.150
 5392POPC   GL128789  40.750   2.737   8.850
 5392POPC   GL228790  40.724   2.684   8.850
 5392POPC   C1A28791  40.734   2.743   8.550
 5392POPC   D2A28792  40.829   2.783   8.250
 5392POPC   C3A28793  40.736   2.796   7.950
 5392POPC   C4A28794  40.763   2.726   7.650
 5392POPC   C1B28795  40.578   2.595   8.550
 5392POPC   C2B28796  40.600   2.620   8.250
 5392POPC   C3B28797  40.565   2.655   7.950
 5392POPC   C4B28798  40.582   2.583   7.650
 5393POPC   NC328799   2.805  14.404   9.450
 5393POPC   PO428800   2.800  14.428   9.150
 5393POPC   GL128801   2.806  14.391   8.850
 5393POPC   GL228802   2.791  14.251   8.850
 5393POPC   C1A28803   2.743  14.436   8.550
 5393POPC   D2A28804   2.724  14.395   8.250
 5393POPC   C3A28805   2.782  14.404   7.950
 5393POPC   C4A28806   2.717  14.448   7.650
 5393POPC   C1B28807   2.893  14.124   8.550
 5393POPC   C2B28808   2.846  14.147   8.250
 5393POPC   C3B28809   2.882  14.129   7.950
 5393POPC   C4B28810   2.819  14.127   7.650
 5394POPC   NC328811   4.296  16.769   9.450
 5394POPC   PO428812   4.297  16.721   9.150
 5394POPC   GL128813   4.364  16.696   8.850
 5394POPC   GL228814   4.358  16.572   8.850
 5394POPC   C1A28815   4.302  16.774   8.550
 5394POPC   D2A28816   4.300  16.717   8.250
 5394POPC   C3A28817   4.357  16.695   7.950
 5394POPC   C4A28818   4.287  16.729   7.650
 5394POPC   C1B28819   4.421  16.540   8.550
 5394POPC   C2B28820   4.405  16.512   8.250
 5394POPC   C3B28821   4.421  16.459   7.950
 5394POPC   C4B28822   4.382  16.538   7.650
 5395POPC   NC328823  33.822   2.812   9.450
 5395POPC   PO428824  33.804   2.719   9.150
 5395POPC   GL128825  33.773   2.746   8.850
 5395POPC   GL228826  33.839   2.869   8.850
 5395POPC   C1A28827  33.828   2.755   8.550
 5395POPC   D2A28828  33.751   2.793   8.250
 5395POPC   C3A28829  33.789   2.778   7.950
 5395POPC   C4A28830  33.784   2.770   7.650
 5395POPC   C1B28831  33.894   3.019   8.550
 5395POPC   C2B28832  33.913   3.021   8.250
 5395POPC   C3B28833  33.985   2.946   7.950
 5395POPC   C4B28834  33.917   3.003   7.650
 5396POPC   NC328835   5.831  31.520   9.450
 5396POPC   PO428836   5.840  31.454   9.150
 5396POPC   GL128837   5.890  31.489   8.850
 5396POPC   GL228838   5.764  31.324   8.850
 5396POPC   C1A28839   5.904  31.437   8.550
 5396POPC   D2A28840   5.895  31.483   8.250
 5396POPC   C3A28841   5.904  31.516   7.950
 5396POPC   C4A28842   5.861  31.460   7.650
 5396POPC   C1B28843   5.772  31.224   8.550
 5396POPC   C2B28844   5.784  31.270   8.250
 5396POPC   C3B28845   5.739  31.267   7.950
 5396POPC   C4B28846   5.786  31.204   7.650
 5397POPC   NC328847  11.343  31.499   9.450
 5397POPC   PO428848  11.294  31.514   9.150
 5397POPC   GL128849  11.255  31.512   8.850
 5397POPC   GL228850  11.289  31.603   8.850
 5397POPC   C1A28851  11.267  31.445   8.550
 5397POPC   D2A28852  11.290  31.497   8.250
 5397POPC   C3A28853  11.299  31.500   7.950
 5397POPC   C4A28854  11.263  31.514   7.650
 5397POPC   C1B28855  11.226  31.724   8.550
 5397POPC   C2B28856  11.159  31.719   8.250
 5397POPC   C3B28857  11.158  31.740   7.950
 5397POPC   C4B28858  11.212  31.681   7.650
 5398POPC   NC328859   1.983   0.414   9.450
 5398POPC   PO428860   1.956   0.398   9.150
 5398POPC   GL128861   1.985   0.472   8.850
 5398POPC   GL228862   1.995   0.320   8.850
 5398POPC   C1A28863   1.950   0.407   8.550
 5398POPC   D2A28864   1.991   0.481   8.250
 5398POPC   C3A28865   1.942   0.393   7.950
 5398POPC   C4A28866   2.020   0.423   7.650
 5398POPC   C1B28867   1.948   0.161   8.550
 5398POPC   C2B28868   2.021   0.149   8.250
 5398POPC   C3B28869   2.016   0.185   7.950
 5398POPC   C4B28870   1.963   0.181   7.650
 5399POPC   NC328871   1.235  22.113   9.450
 5399POPC   PO428872   1.239  22.149   9.150
 5399POPC   GL128873   1.185  22.200   8.850
 5399POPC   GL228874   1.179  22.300   8.850
 5399POPC   C1A28875   1.238  22.159   8.550
 5399POPC   D2A28876   1.222  22.210   8.250
 5399POPC   C3A28877   1.263  22.162   7.950
 5399POPC   C4A28878   1.199  22.208   7.650
 5399POPC   C1B28879   1.043  22.360   8.550
 5399POPC   C2B28880   1.047  22.309   8.250
 5399POPC   C3B28881   1.090  22.321   7.950
 5399POPC   C4B28882   1.083  22.331   7.650
 5400POPC   NC328883   2.730   1.242   9.450
 5400POPC   PO428884   2.742   1.188   9.150
 5400POPC   GL128885   2.773   1.180   8.850
 5400POPC   GL228886   2.662   1.095   8.850
 5400POPC   C1A28887   2.751   1.173   8.550
 5400POPC   D2A28888   2.751   1.217   8.250
 5400POPC   C3A28889   2.780   1.201   7.950
 5400POPC   C4A28890   2.756   1.251   7.650
 5400POPC   C1B28891   2.633   1.006   8.550
 5400POPC   C2B28892   2.670   1.003   8.250
 5400POPC   C3B28893   2.687   0.982   7.950
 5400POPC   C4B28894   2.598   0.976   7.650
 5401POPC   NC328895  10.536   5.868   9.450
 5401POPC   PO428896  10.500   5.864   9.150
 5401POPC   GL128897  10.574   5.839   8.850
 5401POPC   GL228898  10.643   5.795   8.850
 5401POPC   C1A28899  10.551   5.866   8.550
 5401POPC   D2A28900  10.500   5.916   8.250
 5401POPC   C3A28901  10.509   5.831   7.950
 5401POPC   C4A28902  10.506   5.828   7.650
 5401POPC   C1B28903  10.763   5.785   8.550
 5401POPC   C2B28904  10.735   5.789   8.250
 5401POPC   C3B28905  10.736   5.724   7.950
 5401POPC   C4B28906  10.707   5.807   7.650
 5402POPC   NC328907   6.607  35.346   9.450
 5402POPC   PO428908   6.684  35.400   9.150
 5402POPC   GL128909   6.656  35.338   8.850
 5402POPC   GL228910   6.626  35.509   8.850
 5402POPC   C1A28911   6.682  35.310   8.550
 5402POPC   D2A28912   6.637  35.308   8.250
 5402POPC   C3A28913   6.598  35.339   7.950
 5402POPC   C4A28914   6.602  35.401   7.650
 5402POPC   C1B28915   6.699  35.564   8.550
 5402POPC   C2B28916   6.644  35.571   8.250
 5402POPC   C3B28917   6.688  35.584   7.950
 5402POPC   C4B28918   6.706  35.563   7.650
 5403POPC   NC328919  38.455  22.114   9.450
 5403POPC   PO428920  38.499  22.175   9.150
 5403POPC   GL128921  38.500  22.169   8.850
 5403POPC   GL228922  38.533  22.194   8.850
 5403POPC   C1A28923  38.407  22.183   8.550
 5403POPC   D2A28924  38.461  22.148   8.250
 5403POPC   C3A28925  38.430  22.130   7.950
 5403POPC   C4A28926  38.422  22.162   7.650
 5403POPC   C1B28927  38.735  22.161   8.550
 5403POPC   C2B28928  38.695  22.173   8.250
 5403POPC   C3B28929  38.712  22.188   7.950
 5403POPC   C4B28930  38.744  22.202   7.650
 5404POPC   NC328931  24.512   0.477   9.450
 5404POPC   PO428932  24.481   0.399   9.150
 5404POPC   GL128933  24.494   0.486   8.850
 5404POPC   GL228934  24.563   0.513   8.850
 5404POPC   C1A28935  24.521   0.434   8.550
 5404POPC   D2A28936  24.505   0.425   8.250
 5404POPC   C3A28937  24.504   0.390   7.950
 5404POPC   C4A28938  24.457   0.425   7.650
 5404POPC   C1B28939  24.685   0.557   8.550
 5404POPC   C2B28940  24.712   0.572   8.250
 5404POPC   C3B28941  24.714   0.611   7.950
 5404POPC   C4B28942  24.714   0.546   7.650
 5405POPC   NC328943  18.248  12.814   9.450
 5405POPC   PO428944  18.275  12.843   9.150
 5405POPC   GL128945  18.318  12.835   8.850
 5405POPC   GL228946  18.360  12.955   8.850
 5405POPC   C1A28947  18.306  12.866   8.550
 5405POPC   D2A28948  18.312  12.819   8.250
 5405POPC   C3A28949  18.292  12.806   7.950
 5405POPC   C4A28950  18.299  12.835   7.650
 5405POPC   C1B28951  18.328  13.111   8.550
 5405POPC   C2B28952  18.376  13.105   8.250
 5405POPC   C3B28953  18.363  13.069   7.950
 5405POPC   C4B28954  18.413  13.098   7.650
 5406POPC   NC328955   3.560  12.817   9.450
 5406POPC   PO428956   3.568  12.844   9.150
 5406POPC   GL128957   3.511  12.897   8.850
 5406POPC   GL228958   3.632  12.833   8.850
 5406POPC   C1A28959   3.528  12.839   8.550
 5406POPC   D2A28960   3.557  12.808   8.250
 5406POPC   C3A28961   3.573  12.842   7.950
 5406POPC   C4A28962   3.516  12.831   7.650
 5406POPC   C1B28963   3.720  12.732   8.550
 5406POPC   C2B28964   3.745  12.736   8.250
 5406POPC   C3B28965   3.818  12.792   7.950
 5406POPC   C4B28966   3.729  12.782   7.650
 5407POPC   NC328967  24.530   3.540   9.450
 5407POPC   PO428968  24.486   3.561   9.150
 5407POPC   GL128969  24.489   3.541   8.850
 5407POPC   GL228970  24.432   3.418   8.850
 5407POPC   C1A28971  24.460   3.498   8.550
 5407POPC   D2A28972  24.493   3.546   8.250
 5407POPC   C3A28973  24.477   3.557   7.950
 5407POPC   C4A28974  24.522   3.547   7.650
 5407POPC   C1B28975  24.255   3.363   8.550
 5407POPC   C2B28976  24.269   3.377   8.250
 5407POPC   C3B28977  24.303   3.352   7.950
 5407POPC   C4B28978  24.280   3.332   7.650
 5408POPC   NC328979  12.837  28.415   9.450
 5408POPC   PO428980  12.825  28.353   9.150
 5408POPC   GL128981  12.899  28.337   8.850
 5408POPC   GL228982  12.908  28.444   8.850
 5408POPC   C1A28983  12.858  28.399   8.550
 5408POPC   D2A28984  12.872  28.355   8.250
 5408POPC   C3A28985  12.859  28.376   7.950
 5408POPC   C4A28986  12.818  28.399   7.650
 5408POPC   C1B28987  12.927  28.548   8.550
 5408POPC   C2B28988  12.934  28.553   8.250
 5408POPC   C3B28989  12.976  28.625   7.950
 5408POPC   C4B28990  12.921  28.588   7.650
 5409POPC   NC328991  11.279   2.718   9.450
 5409POPC   PO428992  11.342   2.733   9.150
 5409POPC   GL128993  11.250   2.803   8.850
 5409POPC   GL228994  11.168   2.740   8.850
 5409POPC   C1A28995  11.283   2.718   8.550
 5409POPC   D2A28996  11.282   2.812   8.250
 5409POPC   C3A28997  11.253   2.728   7.950
 5409POPC   C4A28998  11.310   2.811   7.650
 5409POPC   C1B28999  11.072   2.717   8.550
 5409POPC   C2B29000  11.019   2.695   8.250
 5409POPC   C3B29001  11.020   2.687   7.950
 5409POPC   C4B29002  11.094   2.651   7.650
 5410POPC   NC329003  25.291   1.196   9.450
 5410POPC   PO429004  25.255   1.194   9.150
 5410POPC   GL129005  25.259   1.252   8.850
 5410POPC   GL229006  25.255   1.085   8.850
 5410POPC   C1A29007  25.216   1.255   8.550
 5410POPC   D2A29008  25.257   1.262   8.250
 5410POPC   C3A29009  25.220   1.228   7.950
 5410POPC   C4A29010  25.265   1.209   7.650
 5410POPC   C1B29011  25.269   0.935   8.550
 5410POPC   C2B29012  25.271   0.942   8.250
 5410POPC   C3B29013  25.292   0.950   7.950
 5410POPC   C4B29014  25.288   0.961   7.650
 5411POPC   NC329015  22.974  33.823   9.450
 5411POPC   PO429016  22.980  33.778   9.150
 5411POPC   GL129017  22.908  33.757   8.850
 5411POPC   GL229018  23.015  33.849   8.850
 5411POPC   C1A29019  22.965  33.814   8.550
 5411POPC   D2A29020  22.939  33.848   8.250
 5411POPC   C3A29021  22.959  33.826   7.950
 5411POPC   C4A29022  22.902  33.751   7.650
 5411POPC   C1B29023  23.224  33.836   8.550
 5411POPC   C2B29024  23.135  33.891   8.250
 5411POPC   C3B29025  23.207  33.842   7.950
 5411POPC   C4B29026  23.147  33.920   7.650
 5412POPC   NC329027  14.394  30.652   9.450
 5412POPC   PO429028  14.425  30.715   9.150
 5412POPC   GL129029  14.429  30.657   8.850
 5412POPC   GL229030  14.530  30.813   8.850
 5412POPC   C1A29031  14.388  30.704   8.550
 5412POPC   D2A29032  14.439  30.694   8.250
 5412POPC   C3A29033  14.448  30.677   7.950
 5412POPC   C4A29034  14.427  30.694   7.650
 5412POPC   C1B29035  14.566  30.914   8.550
 5412POPC   C2B29036  14.555  30.882   8.250
 5412POPC   C3B29037  14.559  30.837   7.950
 5412POPC   C4B29038  14.606  30.883   7.650
 5413POPC   NC329039  26.836   5.873   9.450
 5413POPC   PO429040  26.836   5.884   9.150
 5413POPC   GL129041  26.797   5.911   8.850
 5413POPC   GL229042  26.864   5.967   8.850
 5413POPC   C1A29043  26.815   5.829   8.550
 5413POPC   D2A29044  26.814   5.858   8.250
 5413POPC   C3A29045  26.781   5.822   7.950
 5413POPC   C4A29046  26.841   5.888   7.650
 5413POPC   C1B29047  26.941   6.109   8.550
 5413POPC   C2B29048  26.952   6.054   8.250
 5413POPC   C3B29049  27.019   6.030   7.950
 5413POPC   C4B29050  26.987   6.072   7.650
 5414POPC   NC329051  22.209  34.607   9.450
 5414POPC   PO429052  22.147  34.532   9.150
 5414POPC   GL129053  22.148  34.581   8.850
 5414POPC   GL229054  22.061  34.690   8.850
 5414POPC   C1A29055  22.164  34.581   8.550
 5414POPC   D2A29056  22.210  34.579   8.250
 5414POPC   C3A29057  22.150  34.618   7.950
 5414POPC   C4A29058  22.128  34.615   7.650
 5414POPC   C1B29059  22.023  34.776   8.550
 5414POPC   C2B29060  22.036  34.716   8.250
 5414POPC   C3B29061  21.961  34.789   7.950
 5414POPC   C4B29062  21.977  34.717   7.650
 5415POPC   NC329063  42.311  39.961   9.450
 5415POPC   PO429064  42.294  39.991   9.150
 5415POPC   GL129065  42.319  40.033   8.850
 5415POPC   GL229066  42.402  40.067   8.850
 5415POPC   C1A29067  42.334  40.051   8.550
 5415POPC   D2A29068  42.303  40.044   8.250
 5415POPC   C3A29069  42.363  40.020   7.950
 5415POPC   C4A29070  42.356  40.006   7.650
 5415POPC   C1B29071  42.563  40.126   8.550
 5415POPC   C2B29072  42.523  40.141   8.250
 5415POPC   C3B29073  42.604  40.111   7.950
 5415POPC   C4B29074  42.543  40.110   7.650
 5416POPC   NC329075  44.643  26.029   9.450
 5416POPC   PO429076  44.658  26.055   9.150
 5416POPC   GL129077  44.632  25.997   8.850
 5416POPC   GL229078  44.795  25.965   8.850
 5416POPC   C1A29079  44.677  26.069   8.550
 5416POPC   D2A29080  44.664  26.049   8.250
 5416POPC   C3A29081  44.621  25.999   7.950
 5416POPC   C4A29082  44.698  26.027   7.650
 5416POPC   C1B29083  44.891  25.940   8.550
 5416POPC   C2B29084  44.916  25.921   8.250
 5416POPC   C3B29085  44.892  25.906   7.950
 5416POPC   C4B29086  44.918  25.942   7.650
 5417POPC   NC329087  27.598  34.552   9.450
 5417POPC   PO429088  27.584  34.607   9.150
 5417POPC   GL129089  27.619  34.556   8.850
 5417POPC   GL229090  27.692  34.461   8.850
 5417POPC   C1A29091  27.617  34.623   8.550
 5417POPC   D2A29092  27.560  34.605   8.250
 5417POPC   C3A29093  27.563  34.527   7.950
 5417POPC   C4A29094  27.623  34.581   7.650
 5417POPC   C1B29095  27.781  34.409   8.550
 5417POPC   C2B29096  27.811  34.473   8.250
 5417POPC   C3B29097  27.822  34.437   7.950
 5417POPC   C4B29098  27.796  34.399   7.650
 5418POPC   NC329099  11.319  12.818   9.450
 5418POPC   PO429100  11.313  12.832   9.150
 5418POPC   GL129101  11.264  12.844   8.850
 5418POPC   GL229102  11.136  12.877   8.850
 5418POPC   C1A29103  11.281  12.879   8.550
 5418POPC   D2A29104  11.290  12.839   8.250
 5418POPC   C3A29105  11.315  12.840   7.950
 5418POPC   C4A29106  11.289  12.883   7.650
 5418POPC   C1B29107  11.046  12.858   8.550
 5418POPC   C2B29108  11.035  12.807   8.250
 5418POPC   C3B29109  11.040  12.845   7.950
 5418POPC   C4B29110  11.066  12.799   7.650
 5419POPC   NC329111   7.400  36.162   9.450
 5419POPC   PO429112   7.435  36.110   9.150
 5419POPC   GL129113   7.431  36.156   8.850
 5419POPC   GL229114   7.438  35.954   8.850
 5419POPC   C1A29115   7.416  36.143   8.550
 5419POPC   D2A29116   7.422  36.169   8.250
 5419POPC   C3A29117   7.452  36.149   7.950
 5419POPC   C4A29118   7.408  36.085   7.650
 5419POPC   C1B29119   7.386  35.913   8.550
 5419POPC   C2B29120   7.428  35.877   8.250
 5419POPC   C3B29121   7.362  35.891   7.950
 5419POPC   C4B29122   7.345  35.833   7.650
 5420POPC   NC329123  21.422  10.567   9.450
 5420POPC   PO429124  21.386  10.504   9.150
 5420POPC   GL129125  21.388  10.523   8.850
 5420POPC   GL229126  21.512  10.580   8.850
 5420POPC   C1A29127  21.379  10.499   8.550
 5420POPC   D2A29128  21.369  10.555   8.250
 5420POPC   C3A29129  21.396  10.566   7.950
 5420POPC   C4A29130  21.388  10.491   7.650
 5420POPC   C1B29131  21.538  10.681   8.550
 5420POPC   C2B29132  21.618  10.644   8.250
 5420POPC   C3B29133  21.532  10.655   7.950
 5420POPC   C4B29134  21.597  10.733   7.650
 5421POPC   NC329135   6.603  36.155   9.450
 5421POPC   PO429136   6.680  36.161   9.150
 5421POPC   GL129137   6.614  36.143   8.850
 5421POPC   GL229138   6.718  36.061   8.850
 5421POPC   C1A29139   6.642  36.087   8.550
 5421POPC   D2A29140   6.596  36.087   8.250
 5421POPC   C3A29141   6.669  36.117   7.950
 5421POPC   C4A29142   6.691  36.115   7.650
 5421POPC   C1B29143   6.843  36.019   8.550
 5421POPC   C2B29144   6.810  35.952   8.250
 5421POPC   C3B29145   6.891  35.944   7.950
 5421POPC   C4B29146   6.854  35.960   7.650
 5422POPC   NC329147  20.604  24.471   9.450
 5422POPC   PO429148  20.608  24.447   9.150
 5422POPC   GL129149  20.641  24.458   8.850
 5422POPC   GL229150  20.667  24.528   8.850
 5422POPC   C1A29151  20.615  24.514   8.550
 5422POPC   D2A29152  20.607  24.517   8.250
 5422POPC   C3A29153  20.633  24.467   7.950
 5422POPC   C4A29154  20.651  24.493   7.650
 5422POPC   C1B29155  20.750  24.635   8.550
 5422POPC   C2B29156  20.757  24.660   8.250
 5422POPC   C3B29157  20.778  24.664   7.950
 5422POPC   C4B29158  20.754  24.703   7.650
 5423POPC   NC329159  42.316  29.191   9.450
 5423POPC   PO429160  42.324  29.148   9.150
 5423POPC   GL129161  42.337  29.185   8.850
 5423POPC   GL229162  42.442  29.222   8.850
 5423POPC   C1A29163  42.304  29.103   8.550
 5423POPC   D2A29164  42.299  29.190   8.250
 5423POPC   C3A29165  42.294  29.127   7.950
 5423POPC   C4A29166  42.349  29.117   7.650
 5423POPC   C1B29167  42.473  29.381   8.550
 5423POPC   C2B29168  42.542  29.281   8.250
 5423POPC   C3B29169  42.514  29.348   7.950
 5423POPC   C4B29170  42.545  29.283   7.650
 5424POPC   NC329171  12.097  30.654   9.450
 5424POPC   PO429172  12.027  30.647   9.150
 5424POPC   GL129173  12.078  30.728   8.850
 5424POPC   GL229174  11.918  30.746   8.850
 5424POPC   C1A29175  12.077  30.707   8.550
 5424POPC   D2A29176  12.047  30.671   8.250
 5424POPC   C3A29177  12.097  30.690   7.950
 5424POPC   C4A29178  12.031  30.666   7.650
 5424POPC   C1B29179  11.820  30.832   8.550
 5424POPC   C2B29180  11.824  30.832   8.250
 5424POPC   C3B29181  11.847  30.807   7.950
 5424POPC   C4B29182  11.856  30.820   7.650
 5425POPC   NC329183  36.139   8.225   9.450
 5425POPC   PO429184  36.147   8.207   9.150
 5425POPC   GL129185  36.082   8.228   8.850
 5425POPC   GL229186  36.167   8.366   8.850
 5425POPC   C1A29187  36.142   8.149   8.550
 5425POPC   D2A29188  36.138   8.209   8.250
 5425POPC   C3A29189  36.117   8.237   7.950
 5425POPC   C4A29190  36.136   8.169   7.650
 5425POPC   C1B29191  36.176   8.460   8.550
 5425POPC   C2B29192  36.149   8.430   8.250
 5425POPC   C3B29193  36.135   8.430   7.950
 5425POPC   C4B29194  36.157   8.430   7.650
 5426POPC   NC329195   4.324  43.851   9.450
 5426POPC   PO429196   4.302  43.912   9.150
 5426POPC   GL129197   4.333  43.897   8.850
 5426POPC   GL229198   4.351  43.981   8.850
 5426POPC   C1A29199   4.319  43.873   8.550
 5426POPC   D2A29200   4.308  43.922   8.250
 5426POPC   C3A29201   4.298  43.870   7.950
 5426POPC   C4A29202   4.298  43.878   7.650
 5426POPC   C1B29203   4.454  44.117   8.550
 5426POPC   C2B29204   4.400  44.113   8.250
 5426POPC   C3B29205   4.398  44.070   7.950
 5426POPC   C4B29206   4.417  44.096   7.650
 5427POPC   NC329207  40.008  30.741   9.450
 5427POPC   PO429208  39.959  30.726   9.150
 5427POPC   GL129209  39.962  30.658   8.850
 5427POPC   GL229210  40.150  30.656   8.850
 5427POPC   C1A29211  39.996  30.657   8.550
 5427POPC   D2A29212  39.981  30.674   8.250
 5427POPC   C3A29213  39.986  30.671   7.950
 5427POPC   C4A29214  40.044  30.718   7.650
 5427POPC   C1B29215  40.298  30.685   8.550
 5427POPC   C2B29216  40.296  30.746   8.250
 5427POPC   C3B29217  40.222  30.675   7.950
 5427POPC   C4B29218  40.218  30.714   7.650
 5428POPC   NC329219  12.114  28.401   9.450
 5428POPC   PO429220  12.091  28.416   9.150
 5428POPC   GL129221  12.052  28.361   8.850
 5428POPC   GL229222  12.146  28.279   8.850
 5428POPC   C1A29223  12.113  28.411   8.550
 5428POPC   D2A29224  12.060  28.366   8.250
 5428POPC   C3A29225  12.106  28.355   7.950
 5428POPC   C4A29226  12.088  28.392   7.650
 5428POPC   C1B29227  12.270  28.172   8.550
 5428POPC   C2B29228  12.192  28.138   8.250
 5428POPC   C3B29229  12.234  28.163   7.950
 5428POPC   C4B29230  12.232  28.191   7.650
 5429POPC   NC329231  25.244  36.174   9.450
 5429POPC   PO429232  25.252  36.129   9.150
 5429POPC   GL129233  25.269  36.081   8.850
 5429POPC   GL229234  25.148  36.088   8.850
 5429POPC   C1A29235  25.262  36.176   8.550
 5429POPC   D2A29236  25.254  36.117   8.250
 5429POPC   C3A29237  25.300  36.117   7.950
 5429POPC   C4A29238  25.294  36.140   7.650
 5429POPC   C1B29239  25.041  35.981   8.550
 5429POPC   C2B29240  25.047  35.988   8.250
 5429POPC   C3B29241  25.036  35.992   7.950
 5429POPC   C4B29242  25.004  36.064   7.650
 5430POPC   NC329243  42.298  12.805   9.450
 5430POPC   PO429244  42.313  12.869   9.150
 5430POPC   GL129245  42.365  12.820   8.850
 5430POPC   GL229246  42.219  12.953   8.850
 5430POPC   C1A29247  42.366  12.835   8.550
 5430POPC   D2A29248  42.346  12.865   8.250
 5430POPC   C3A29249  42.319  12.856   7.950
 5430POPC   C4A29250  42.358  12.880   7.650
 5430POPC   C1B29251  42.061  12.950   8.550
 5430POPC   C2B29252  42.129  12.965   8.250
 5430POPC   C3B29253  42.093  13.000   7.950
 5430POPC   C4B29254  42.078  12.980   7.650
 5431POPC   NC329255  12.819  15.985   9.450
 5431POPC   PO429256  12.876  15.931   9.150
 5431POPC   GL129257  12.857  15.915   8.850
 5431POPC   GL229258  12.940  15.797   8.850
 5431POPC   C1A29259  12.835  15.962   8.550
 5431POPC   D2A29260  12.820  15.925   8.250
 5431POPC   C3A29261  12.886  15.914   7.950
 5431POPC   C4A29262  12.857  15.954   7.650
 5431POPC   C1B29263  12.913  15.721   8.550
 5431POPC   C2B29264  12.971  15.723   8.250
 5431POPC   C3B29265  12.950  15.747   7.950
 5431POPC   C4B29266  12.988  15.733   7.650
 5432POPC   NC329267  31.490  42.305   9.450
 5432POPC   PO429268  31.500  42.339   9.150
 5432POPC   GL129269  31.494  42.315   8.850
 5432POPC   GL229270  31.513  42.227   8.850
 5432POPC   C1A29271  31.506  42.327   8.550
 5432POPC   D2A29272  31.477  42.379   8.250
 5432POPC   C3A29273  31.519  42.323   7.950
 5432POPC   C4A29274  31.435  42.311   7.650
 5432POPC   C1B29275  31.592  42.131   8.550
 5432POPC   C2B29276  31.656  42.113   8.250
 5432POPC   C3B29277  31.637  42.140   7.950
 5432POPC   C4B29278  31.619  42.145   7.650
 5433POPC   NC329279  27.604  32.235   9.450
 5433POPC   PO429280  27.639  32.264   9.150
 5433POPC   GL129281  27.577  32.213   8.850
 5433POPC   GL229282  27.630  32.176   8.850
 5433POPC   C1A29283  27.638  32.238   8.550
 5433POPC   D2A29284  27.640  32.297   8.250
 5433POPC   C3A29285  27.584  32.230   7.950
 5433POPC   C4A29286  27.627  32.226   7.650
 5433POPC   C1B29287  27.667  32.012   8.550
 5433POPC   C2B29288  27.722  32.031   8.250
 5433POPC   C3B29289  27.670  32.044   7.950
 5433POPC   C4B29290  27.633  31.965   7.650
 5434POPC   NC329291  22.937  42.370   9.450
 5434POPC   PO429292  22.984  42.363   9.150
 5434POPC   GL129293  22.978  42.350   8.850
 5434POPC   GL229294  23.003  42.448   8.850
 5434POPC   C1A29295  22.909  42.379   8.550
 5434POPC   D2A29296  22.906  42.364   8.250
 5434POPC   C3A29297  22.942  42.325   7.950
 5434POPC   C4A29298  22.914  42.335   7.650
 5434POPC   C1B29299  22.951  42.536   8.550
 5434POPC   C2B29300  23.023  42.606   8.250
 5434POPC   C3B29301  23.046  42.544   7.950
 5434POPC   C4B29302  22.952  42.581   7.650
 5435POPC   NC329303   4.293   9.716   9.450
 5435POPC   PO429304   4.288   9.750   9.150
 5435POPC   GL129305   4.278   9.782   8.850
 5435POPC   GL229306   4.419   9.695   8.850
 5435POPC   C1A29307   4.335   9.779   8.550
 5435POPC   D2A29308   4.268   9.787   8.250
 5435POPC   C3A29309   4.331   9.726   7.950
 5435POPC   C4A29310   4.284   9.748   7.650
 5435POPC   C1B29311   4.547   9.623   8.550
 5435POPC   C2B29312   4.530   9.593   8.250
 5435POPC   C3B29313   4.483   9.578   7.950
 5435POPC   C4B29314   4.571   9.640   7.650
 5436POPC   NC329315   8.955   9.005   9.450
 5436POPC   PO429316   8.948   8.941   9.150
 5436POPC   GL129317   9.002   8.949   8.850
 5436POPC   GL229318   8.890   8.842   8.850
 5436POPC   C1A29319   8.975   9.010   8.550
 5436POPC   D2A29320   8.969   8.997   8.250
 5436POPC   C3A29321   9.010   9.012   7.950
 5436POPC   C4A29322   9.006   9.009   7.650
 5436POPC   C1B29323   8.928   8.774   8.550
 5436POPC   C2B29324   8.866   8.690   8.250
 5436POPC   C3B29325   8.875   8.774   7.950
 5436POPC   C4B29326   8.852   8.711   7.650
 5437POPC   NC329327  33.029  19.082   9.450
 5437POPC   PO429328  33.026  19.089   9.150
 5437POPC   GL129329  33.036  19.079   8.850
 5437POPC   GL229330  32.868  19.088   8.850
 5437POPC   C1A29331  32.975  19.028   8.550
 5437POPC   D2A29332  33.005  19.066   8.250
 5437POPC   C3A29333  33.048  19.063   7.950
 5437POPC   C4A29334  33.021  19.044   7.650
 5437POPC   C1B29335  32.807  19.178   8.550
 5437POPC   C2B29336  32.754  19.180   8.250
 5437POPC   C3B29337  32.839  19.128   7.950
 5437POPC   C4B29338  32.751  19.170   7.650
 5438POPC   NC329339  36.085  26.063   9.450
 5438POPC   PO429340  36.137  26.026   9.150
 5438POPC   GL129341  36.118  26.003   8.850
 5438POPC   GL229342  36.145  25.899   8.850
 5438POPC   C1A29343  36.115  26.076   8.550
 5438POPC   D2A29344  36.138  26.010   8.250
 5438POPC   C3A29345  36.136  26.000   7.950
 5438POPC   C4A29346  36.084  26.071   7.650
 5438POPC   C1B29347  36.062  25.806   8.550
 5438POPC   C2B29348  36.051  25.750   8.250
 5438POPC   C3B29349  36.084  25.798   7.950
 5438POPC   C4B29350  36.095  25.827   7.650
 5439POPC   NC329351  31.505   5.081   9.450
 5439POPC   PO429352  31.482   5.115   9.150
 5439POPC   GL129353  31.451   5.096   8.850
 5439POPC   GL229354  31.572   5.030   8.850
 5439POPC   C1A29355  31.492   5.063   8.550
 5439POPC   D2A29356  31.461   5.086   8.250
 5439POPC   C3A29357  31.430   5.104   7.950
 5439POPC   C4A29358  31.480   5.123   7.650
 5439POPC   C1B29359  31.758   4.993   8.550
 5439POPC   C2B29360  31.700   5.041   8.250
 5439POPC   C3B29361  31.699   5.037   7.950
 5439POPC   C4B29362  31.751   5.011   7.650
 5440POPC   NC329363  27.627   4.359   9.450
 5440POPC   PO429364  27.608   4.299   9.150
 5440POPC   GL129365  27.599   4.341   8.850
 5440POPC   GL229366  27.457   4.291   8.850
 5440POPC   C1A29367  27.558   4.351   8.550
 5440POPC   D2A29368  27.575   4.336   8.250
 5440POPC   C3A29369  27.622   4.313   7.950
 5440POPC   C4A29370  27.597   4.310   7.650
 5440POPC   C1B29371  27.344   4.266   8.550
 5440POPC   C2B29372  27.312   4.249   8.250
 5440POPC   C3B29373  27.394   4.325   7.950
 5440POPC   C4B29374  27.336   4.264   7.650
 5441POPC   NC329375  40.779  29.100   9.450
 5441POPC   PO429376  40.766  29.101   9.150
 5441POPC   GL129377  40.785  29.168   8.850
 5441POPC   GL229378  40.783  28.993   8.850
 5441POPC   C1A29379  40.749  29.097   8.550
 5441POPC   D2A29380  40.795  29.113   8.250
 5441POPC   C3A29381  40.743  29.189   7.950
 5441POPC   C4A29382  40.760  29.138   7.650
 5441POPC   C1B29383  40.880  28.932   8.550
 5441POPC   C2B29384  40.853  28.899   8.250
 5441POPC   C3B29385  40.863  28.877   7.950
 5441POPC   C4B29386  40.928  28.916   7.650
 5442POPC   NC329387  36.895  18.262   9.450
 5442POPC   PO429388  36.919  18.316   9.150
 5442POPC   GL129389  36.877  18.261   8.850
 5442POPC   GL229390  36.876  18.186   8.850
 5442POPC   C1A29391  36.873  18.261   8.550
 5442POPC   D2A29392  36.905  18.325   8.250
 5442POPC   C3A29393  36.900  18.244   7.950
 5442POPC   C4A29394  36.917  18.291   7.650
 5442POPC   C1B29395  36.984  18.016   8.550
 5442POPC   C2B29396  36.954  18.068   8.250
 5442POPC   C3B29397  36.944  18.077   7.950
 5442POPC   C4B29398  36.915  18.019   7.650
 5443POPC   NC329399   3.526  19.082   9.450
 5443POPC   PO429400   3.540  19.064   9.150
 5443POPC   GL129401   3.524  19.036   8.850
 5443POPC   GL229402   3.586  19.205   8.850
 5443POPC   C1A29403   3.564  19.029   8.550
 5443POPC   D2A29404   3.499  19.053   8.250
 5443POPC   C3A29405   3.572  19.047   7.950
 5443POPC   C4A29406   3.535  19.065   7.650
 5443POPC   C1B29407   3.596  19.277   8.550
 5443POPC   C2B29408   3.567  19.307   8.250
 5443POPC   C3B29409   3.548  19.305   7.950
 5443POPC   C4B29410   3.532  19.321   7.650
 5444POPC   NC329411  34.572  29.177   9.450
 5444POPC   PO429412  34.543  29.111   9.150
 5444POPC   GL129413  34.595  29.125   8.850
 5444POPC   GL229414  34.487  29.051   8.850
 5444POPC   C1A29415  34.542  29.130   8.550
 5444POPC   D2A29416  34.589  29.183   8.250
 5444POPC   C3A29417  34.583  29.159   7.950
 5444POPC   C4A29418  34.565  29.128   7.650
 5444POPC   C1B29419  34.454  28.938   8.550
 5444POPC   C2B29420  34.481  28.963   8.250
 5444POPC   C3B29421  34.505  28.875   7.950
 5444POPC   C4B29422  34.498  28.880   7.650
 5445POPC   NC329423  43.894  22.910   9.450
 5445POPC   PO429424  43.910  22.888   9.150
 5445POPC   GL129425  43.844  22.944   8.850
 5445POPC   GL229426  43.932  22.766   8.850
 5445POPC   C1A29427  43.856  22.968   8.550
 5445POPC   D2A29428  43.891  22.922   8.250
 5445POPC   C3A29429  43.845  22.983   7.950
 5445POPC   C4A29430  43.872  22.917   7.650
 5445POPC   C1B29431  43.904  22.681   8.550
 5445POPC   C2B29432  43.922  22.662   8.250
 5445POPC   C3B29433  43.950  22.642   7.950
 5445POPC   C4B29434  43.867  22.721   7.650
 5446POPC   NC329435  22.944   9.745   9.450
 5446POPC   PO429436  22.909   9.775   9.150
 5446POPC   GL129437  22.982   9.751   8.850
 5446POPC   GL229438  23.029   9.686   8.850
 5446POPC   C1A29439  22.924   9.768   8.550
 5446POPC   D2A29440  22.910   9.703   8.250
 5446POPC   C3A29441  22.890   9.782   7.950
 5446POPC   C4A29442  22.943   9.740   7.650
 5446POPC   C1B29443  23.123   9.660   8.550
 5446POPC   C2B29444  23.178   9.677   8.250
 5446POPC   C3B29445  23.139   9.669   7.950
 5446POPC   C4B29446  23.205   9.631   7.650
 5447POPC   NC329447  29.133   8.948   9.450
 5447POPC   PO429448  29.151   8.943   9.150
 5447POPC   GL129449  29.178   8.939   8.850
 5447POPC   GL229450  29.285   8.888   8.850
 5447POPC   C1A29451  29.187   9.018   8.550
 5447POPC   D2A29452  29.195   9.015   8.250
 5447POPC   C3A29453  29.186   8.962   7.950
 5447POPC   C4A29454  29.182   9.001   7.650
 5447POPC   C1B29455  29.333   8.754   8.550
 5447POPC   C2B29456  29.318   8.829   8.250
 5447POPC   C3B29457  29.319   8.766   7.950
 5447POPC   C4B29458  29.354   8.825   7.650
 5448POPC   NC329459  44.627  39.986   9.450
 5448POPC   PO429460  44.617  40.034   9.150
 5448POPC   GL129461  44.669  40.004   8.850
 5448POPC   GL229462  44.614  39.870   8.850
 5448POPC   C1A29463  44.696  39.989   8.550
 5448POPC   D2A29464  44.653  40.041   8.250
 5448POPC   C3A29465  44.674  40.040   7.950
 5448POPC   C4A29466  44.648  40.049   7.650
 5448POPC   C1B29467  44.645  39.717   8.550
 5448POPC   C2B29468  44.595  39.713   8.250
 5448POPC   C3B29469  44.675  39.728   7.950
 5448POPC   C4B29470  44.617  39.759   7.650
 5449POPC   NC329471   1.168  43.144   9.450
 5449POPC   PO429472   1.199  43.090   9.150
 5449POPC   GL129473   1.216  43.065   8.850
 5449POPC   GL229474   1.093  43.073   8.850
 5449POPC   C1A29475   1.226  43.138   8.550
 5449POPC   D2A29476   1.261  43.126   8.250
 5449POPC   C3A29477   1.199  43.118   7.950
 5449POPC   C4A29478   1.240  43.086   7.650
 5449POPC   C1B29479   1.046  42.931   8.550
 5449POPC   C2B29480   1.063  42.939   8.250
 5449POPC   C3B29481   0.997  42.920   7.950
 5449POPC   C4B29482   1.055  42.953   7.650
 5450POPC   NC329483  11.263  42.339   9.450
 5450POPC   PO429484  11.349  42.317   9.150
 5450POPC   GL129485  11.273  42.368   8.850
 5450POPC   GL229486  11.246  42.255   8.850
 5450POPC   C1A29487  11.317  42.368   8.550
 5450POPC   D2A29488  11.297  42.301   8.250
 5450POPC   C3A29489  11.304  42.287   7.950
 5450POPC   C4A29490  11.260  42.384   7.650
 5450POPC   C1B29491  11.115  42.127   8.550
 5450POPC   C2B29492  11.151  42.187   8.250
 5450POPC   C3B29493  11.152  42.190   7.950
 5450POPC   C4B29494  11.082  42.129   7.650
 5451POPC   NC329495  22.974  34.607   9.450
 5451POPC   PO429496  22.948  34.545   9.150
 5451POPC   GL129497  22.932  34.533   8.850
 5451POPC   GL229498  23.012  34.593   8.850
 5451POPC   C1A29499  22.906  34.606   8.550
 5451POPC   D2A29500  22.912  34.595   8.250
 5451POPC   C3A29501  22.897  34.530   7.950
 5451POPC   C4A29502  22.935  34.564   7.650
 5451POPC   C1B29503  23.186  34.626   8.550
 5451POPC   C2B29504  23.178  34.630   8.250
 5451POPC   C3B29505  23.220  34.624   7.950
 5451POPC   C4B29506  23.199  34.662   7.650
 5452POPC   NC329507  36.940  23.754   9.450
 5452POPC   PO429508  36.877  23.707   9.150
 5452POPC   GL129509  36.934  23.761   8.850
 5452POPC   GL229510  37.049  23.745   8.850
 5452POPC   C1A29511  36.854  23.712   8.550
 5452POPC   D2A29512  36.884  23.692   8.250
 5452POPC   C3A29513  36.855  23.697   7.950
 5452POPC   C4A29514  36.937  23.708   7.650
 5452POPC   C1B29515  37.183  23.691   8.550
 5452POPC   C2B29516  37.199  23.756   8.250
 5452POPC   C3B29517  37.143  23.688   7.950
 5452POPC   C4B29518  37.165  23.693   7.650
 5453POPC   NC329519  42.337  43.899   9.450
 5453POPC   PO429520  42.327  43.912   9.150
 5453POPC   GL129521  42.339  43.888   8.850
 5453POPC   GL229522  42.386  43.857   8.850
 5453POPC   C1A29523  42.375  43.907   8.550
 5453POPC   D2A29524  42.336  43.908   8.250
 5453POPC   C3A29525  42.307  43.876   7.950
 5453POPC   C4A29526  42.348  43.860   7.650
 5453POPC   C1B29527  42.492  43.703   8.550
 5453POPC   C2B29528  42.535  43.730   8.250
 5453POPC   C3B29529  42.493  43.783   7.950
 5453POPC   C4B29530  42.541  43.760   7.650
 5454POPC   NC329531  20.629  18.251   9.450
 5454POPC   PO429532  20.588  18.261   9.150
 5454POPC   GL129533  20.629  18.327   8.850
 5454POPC   GL229534  20.687  18.258   8.850
 5454POPC   C1A29535  20.639  18.316   8.550
 5454POPC   D2A29536  20.567  18.268   8.250
 5454POPC   C3A29537  20.581  18.268   7.950
 5454POPC   C4A29538  20.589  18.313   7.650
 5454POPC   C1B29539  20.868  18.174   8.550
 5454POPC   C2B29540  20.869  18.181   8.250
 5454POPC   C3B29541  20.844  18.188   7.950
 5454POPC   C4B29542  20.881  18.195   7.650
 5455POPC   NC329543  32.977  39.233   9.450
 5455POPC   PO429544  32.975  39.204   9.150
 5455POPC   GL129545  33.051  39.214   8.850
 5455POPC   GL229546  33.160  39.327   8.850
 5455POPC   C1A29547  33.022  39.257   8.550
 5455POPC   D2A29548  33.017  39.254   8.250
 5455POPC   C3A29549  33.003  39.280   7.950
 5455POPC   C4A29550  33.008  39.269   7.650
 5455POPC   C1B29551  33.267  39.397   8.550
 5455POPC   C2B29552  33.184  39.405   8.250
 5455POPC   C3B29553  33.258  39.356   7.950
 5455POPC   C4B29554  33.188  39.349   7.650
 5456POPC   NC329555   2.764  23.697   9.450
 5456POPC   PO429556   2.791  23.667   9.150
 5456POPC   GL129557   2.740  23.668   8.850
 5456POPC   GL229558   2.676  23.816   8.850
 5456POPC   C1A29559   2.779  23.753   8.550
 5456POPC   D2A29560   2.758  23.683   8.250
 5456POPC   C3A29561   2.771  23.725   7.950
 5456POPC   C4A29562   2.721  23.760   7.650
 5456POPC   C1B29563   2.528  23.814   8.550
 5456POPC   C2B29564   2.593  23.907   8.250
 5456POPC   C3B29565   2.553  23.906   7.950
 5456POPC   C4B29566   2.611  23.905   7.650
 5457POPC   NC329567  21.339  16.774   9.450
 5457POPC   PO429568  21.405  16.724   9.150
 5457POPC   GL129569  21.427  16.771   8.850
 5457POPC   GL229570  21.473  16.829   8.850
 5457POPC   C1A29571  21.389  16.702   8.550
 5457POPC   D2A29572  21.343  16.709   8.250
 5457POPC   C3A29573  21.380  16.735   7.950
 5457POPC   C4A29574  21.336  16.752   7.650
 5457POPC   C1B29575  21.429  16.939   8.550
 5457POPC   C2B29576  21.438  16.929   8.250
 5457POPC   C3B29577  21.441  16.932   7.950
 5457POPC   C4B29578  21.515  16.964   7.650
 5458POPC   NC329579  34.532   2.006   9.450
 5458POPC   PO429580  34.546   1.943   9.150
 5458POPC   GL129581  34.534   1.962   8.850
 5458POPC   GL229582  34.633   2.134   8.850
 5458POPC   C1A29583  34.591   1.950   8.550
 5458POPC   D2A29584  34.561   2.029   8.250
 5458POPC   C3A29585  34.582   2.023   7.950
 5458POPC   C4A29586  34.548   1.971   7.650
 5458POPC   C1B29587  34.684   2.149   8.550
 5458POPC   C2B29588  34.722   2.186   8.250
 5458POPC   C3B29589  34.686   2.214   7.950
 5458POPC   C4B29590  34.684   2.223   7.650
 5459POPC   NC329591  36.124  12.086   9.450
 5459POPC   PO429592  36.102  12.081   9.150
 5459POPC   GL129593  36.091  12.028   8.850
 5459POPC   GL229594  36.267  12.118   8.850
 5459POPC   C1A29595  36.147  12.118   8.550
 5459POPC   D2A29596  36.117  12.125   8.250
 5459POPC   C3A29597  36.164  12.039   7.950
 5459POPC   C4A29598  36.139  12.081   7.650
 5459POPC   C1B29599  36.339  12.294   8.550
 5459POPC   C2B29600  36.291  12.254   8.250
 5459POPC   C3B29601  36.296  12.293   7.950
 5459POPC   C4B29602  36.296  12.284   7.650
 5460POPC   NC329603  32.222  39.200   9.450
 5460POPC   PO429604  32.217  39.278   9.150
 5460POPC   GL129605  32.234  39.196   8.850
 5460POPC   GL229606  32.303  39.185   8.850
 5460POPC   C1A29607  32.260  39.246   8.550
 5460POPC   D2A29608  32.231  39.269   8.250
 5460POPC   C3A29609  32.203  39.195   7.950
 5460POPC   C4A29610  32.292  39.252   7.650
 5460POPC   C1B29611  32.441  39.029   8.550
 5460POPC   C2B29612  32.445  39.101   8.250
 5460POPC   C3B29613  32.464  39.016   7.950
 5460POPC   C4B29614  32.447  39.093   7.650
 5461POPC   NC329615   9.015  12.106   9.450
 5461POPC   PO429616   8.992  12.109   9.150
 5461POPC   GL129617   8.969  12.080   8.850
 5461POPC   GL229618   8.863  12.150   8.850
 5461POPC   C1A29619   8.978  12.095   8.550
 5461POPC   D2A29620   8.999  12.071   8.250
 5461POPC   C3A29621   8.986  12.037   7.950
 5461POPC   C4A29622   8.957  12.042   7.650
 5461POPC   C1B29623   8.794  12.215   8.550
 5461POPC   C2B29624   8.736  12.223   8.250
 5461POPC   C3B29625   8.765  12.205   7.950
 5461POPC   C4B29626   8.772  12.199   7.650
 5462POPC   NC329627  39.188  14.419   9.450
 5462POPC   PO429628  39.216  14.438   9.150
 5462POPC   GL129629  39.276  14.367   8.850
 5462POPC   GL229630  39.359  14.346   8.850
 5462POPC   C1A29631  39.251  14.406   8.550
 5462POPC   D2A29632  39.237  14.434   8.250
 5462POPC   C3A29633  39.220  14.451   7.950
 5462POPC   C4A29634  39.260  14.430   7.650
 5462POPC   C1B29635  39.444  14.252   8.550
 5462POPC   C2B29636  39.429  14.189   8.250
 5462POPC   C3B29637  39.358  14.251   7.950
 5462POPC   C4B29638  39.372  14.245   7.650
 5463POPC   NC329639  40.815  21.353   9.450
 5463POPC   PO429640  40.815  21.343   9.150
 5463POPC   GL129641  40.808  21.387   8.850
 5463POPC   GL229642  40.758  21.544   8.850
 5463POPC   C1A29643  40.768  21.372   8.550
 5463POPC   D2A29644  40.796  21.354   8.250
 5463POPC   C3A29645  40.797  21.398   7.950
 5463POPC   C4A29646  40.800  21.423   7.650
 5463POPC   C1B29647  40.777  21.681   8.550
 5463POPC   C2B29648  40.818  21.598   8.250
 5463POPC   C3B29649  40.795  21.592   7.950
 5463POPC   C4B29650  40.773  21.657   7.650
 5464POPC   NC329651  44.616  19.050   9.450
 5464POPC   PO429652  44.673  19.015   9.150
 5464POPC   GL129653  44.650  19.108   8.850
 5464POPC   GL229654  44.667  18.900   8.850
 5464POPC   C1A29655  44.666  19.036   8.550
 5464POPC   D2A29656  44.614  19.094   8.250
 5464POPC   C3A29657  44.621  19.062   7.950
 5464POPC   C4A29658  44.635  19.099   7.650
 5464POPC   C1B29659  44.601  18.790   8.550
 5464POPC   C2B29660  44.537  18.787   8.250
 5464POPC   C3B29661  44.551  18.789   7.950
 5464POPC   C4B29662  44.578  18.806   7.650
 5465POPC   NC329663   1.217  23.761   9.450
 5465POPC   PO429664   1.185  23.739   9.150
 5465POPC   GL129665   1.257  23.736   8.850
 5465POPC   GL229666   1.364  23.696   8.850
 5465POPC   C1A29667   1.216  23.758   8.550
 5465POPC   D2A29668   1.240  23.711   8.250
 5465POPC   C3A29669   1.165  23.751   7.950
 5465POPC   C4A29670   1.189  23.706   7.650
 5465POPC   C1B29671   1.508  23.702   8.550
 5465POPC   C2B29672   1.453  23.702   8.250
 5465POPC   C3B29673   1.473  23.686   7.950
 5465POPC   C4B29674   1.438  23.635   7.650
 5466POPC   NC329675  30.655  23.691   9.450
 5466POPC   PO429676  30.649  23.696   9.150
 5466POPC   GL129677  30.737  23.739   8.850
 5466POPC   GL229678  30.533  23.751   8.850
 5466POPC   C1A29679  30.720  23.738   8.550
 5466POPC   D2A29680  30.651  23.732   8.250
 5466POPC   C3A29681  30.734  23.743   7.950
 5466POPC   C4A29682  30.672  23.758   7.650
 5466POPC   C1B29683  30.463  23.809   8.550
 5466POPC   C2B29684  30.435  23.828   8.250
 5466POPC   C3B29685  30.505  23.759   7.950
 5466POPC   C4B29686  30.444  23.817   7.650
 5467POPC   NC329687  42.344  36.921   9.450
 5467POPC   PO429688  42.324  36.926   9.150
 5467POPC   GL129689  42.339  36.873   8.850
 5467POPC   GL229690  42.289  36.837   8.850
 5467POPC   C1A29691  42.364  36.895   8.550
 5467POPC   D2A29692  42.314  36.886   8.250
 5467POPC   C3A29693  42.384  36.917   7.950
 5467POPC   C4A29694  42.324  36.937   7.650
 5467POPC   C1B29695  42.159  36.751   8.550
 5467POPC   C2B29696  42.137  36.753   8.250
 5467POPC   C3B29697  42.123  36.760   7.950
 5467POPC   C4B29698  42.169  36.731   7.650
 5468POPC   NC329699  20.644  33.004   9.450
 5468POPC   PO429700  20.625  33.065   9.150
 5468POPC   GL129701  20.657  33.022   8.850
 5468POPC   GL229702  20.657  32.914   8.850
 5468POPC   C1A29703  20.631  32.980   8.550
 5468POPC   D2A29704  20.600  33.053   8.250
 5468POPC   C3A29705  20.634  32.993   7.950
 5468POPC   C4A29706  20.608  32.995   7.650
 5468POPC   C1B29707  20.636  32.807   8.550
 5468POPC   C2B29708  20.661  32.822   8.250
 5468POPC   C3B29709  20.659  32.737   7.950
 5468POPC   C4B29710  20.663  32.737   7.650
 5469POPC   NC329711   5.047  15.184   9.450
 5469POPC   PO429712   5.105  15.164   9.150
 5469POPC   GL129713   5.106  15.229   8.850
 5469POPC   GL229714   5.079  15.316   8.850
 5469POPC   C1A29715   5.108  15.153   8.550
 5469POPC   D2A29716   5.102  15.199   8.250
 5469POPC   C3A29717   5.067  15.201   7.950
 5469POPC   C4A29718   5.070  15.180   7.650
 5469POPC   C1B29719   5.162  15.426   8.550
 5469POPC   C2B29720   5.145  15.462   8.250
 5469POPC   C3B29721   5.135  15.455   7.950
 5469POPC   C4B29722   5.173  15.377   7.650
 5470POPC   NC329723  19.792  21.368   9.450
 5470POPC   PO429724  19.876  21.371   9.150
 5470POPC   GL129725  19.785  21.360   8.850
 5470POPC   GL229726  19.821  21.277   8.850
 5470POPC   C1A29727  19.882  21.424   8.550
 5470POPC   D2A29728  19.802  21.427   8.250
 5470POPC   C3A29729  19.819  21.392   7.950
 5470POPC   C4A29730  19.812  21.428   7.650
 5470POPC   C1B29731  19.793  21.113   8.550
 5470POPC   C2B29732  19.879  21.126   8.250
 5470POPC   C3B29733  19.882  21.092   7.950
 5470POPC   C4B29734  19.802  21.098   7.650
 5471POPC   NC329735   5.086   8.177   9.450
 5471POPC   PO429736   5.079   8.208   9.150
 5471POPC   GL129737   5.047   8.225   8.850
 5471POPC   GL229738   5.022   8.302   8.850
 5471POPC   C1A29739   5.120   8.189   8.550
 5471POPC   D2A29740   5.128   8.216   8.250
 5471POPC   C3A29741   5.067   8.201   7.950
 5471POPC   C4A29742   5.059   8.245   7.650
 5471POPC   C1B29743   4.932   8.387   8.550
 5471POPC   C2B29744   4.877   8.409   8.250
 5471POPC   C3B29745   4.958   8.420   7.950
 5471POPC   C4B29746   4.942   8.387   7.650
 5472POPC   NC329747  10.539  44.623   9.450
 5472POPC   PO429748  10.510  44.709   9.150
 5472POPC   GL129749  10.566  44.639   8.850
 5472POPC   GL229750  10.596  44.785   8.850
 5472POPC   C1A29751  10.504  44.630   8.550
 5472POPC   D2A29752  10.477  44.690   8.250
 5472POPC   C3A29753  10.554  44.670   7.950
 5472POPC   C4A29754  10.520  44.675   7.650
 5472POPC   C1B29755  10.751  44.788   8.550
 5472POPC   C2B29756  10.760  44.860   8.250
 5472POPC   C3B29757  10.684  44.821   7.950
 5472POPC   C4B29758  10.717  44.832   7.650
 5473POPC   NC329759  15.966  43.890   9.450
 5473POPC   PO429760  15.957  43.880   9.150
 5473POPC   GL129761  15.981  43.871   8.850
 5473POPC   GL229762  16.050  43.853   8.850
 5473POPC   C1A29763  15.958  43.898   8.550
 5473POPC   D2A29764  15.945  43.898   8.250
 5473POPC   C3A29765  15.961  43.922   7.950
 5473POPC   C4A29766  15.960  43.857   7.650
 5473POPC   C1B29767  16.250  43.885   8.550
 5473POPC   C2B29768  16.225  43.880   8.250
 5473POPC   C3B29769  16.189  43.870   7.950
 5473POPC   C4B29770  16.174  43.855   7.650
 5474POPC   NC329771   9.740   1.975   9.450
 5474POPC   PO429772   9.749   1.957   9.150
 5474POPC   GL129773   9.736   2.032   8.850
 5474POPC   GL229774   9.632   1.886   8.850
 5474POPC   C1A29775   9.741   2.018   8.550
 5474POPC   D2A29776   9.796   1.944   8.250
 5474POPC   C3A29777   9.765   2.026   7.950
 5474POPC   C4A29778   9.784   2.009   7.650
 5474POPC   C1B29779   9.571   1.859   8.550
 5474POPC   C2B29780   9.527   1.880   8.250
 5474POPC   C3B29781   9.563   1.820   7.950
 5474POPC   C4B29782   9.551   1.807   7.650
 5475POPC   NC329783  39.270  16.774   9.450
 5475POPC   PO429784  39.234  16.766   9.150
 5475POPC   GL129785  39.188  16.718   8.850
 5475POPC   GL229786  39.269  16.629   8.850
 5475POPC   C1A29787  39.227  16.743   8.550
 5475POPC   D2A29788  39.210  16.716   8.250
 5475POPC   C3A29789  39.237  16.697   7.950
 5475POPC   C4A29790  39.224  16.682   7.650
 5475POPC   C1B29791  39.334  16.497   8.550
 5475POPC   C2B29792  39.335  16.516   8.250
 5475POPC   C3B29793  39.304  16.478   7.950
 5475POPC   C4B29794  39.299  16.516   7.650
 5476POPC   NC329795  26.023  38.426   9.450
 5476POPC   PO429796  26.001  38.454   9.150
 5476POPC   GL129797  26.072  38.473   8.850
 5476POPC   GL229798  25.998  38.555   8.850
 5476POPC   C1A29799  26.006  38.415   8.550
 5476POPC   D2A29800  26.002  38.411   8.250
 5476POPC   C3A29801  26.069  38.479   7.950
 5476POPC   C4A29802  26.013  38.453   7.650
 5476POPC   C1B29803  25.868  38.702   8.550
 5476POPC   C2B29804  25.869  38.709   8.250
 5476POPC   C3B29805  25.885  38.631   7.950
 5476POPC   C4B29806  25.895  38.706   7.650
 5477POPC   NC329807  30.741  39.248   9.450
 5477POPC   PO429808  30.686  39.201   9.150
 5477POPC   GL129809  30.691  39.258   8.850
 5477POPC   GL229810  30.794  39.145   8.850
 5477POPC   C1A29811  30.655  39.276   8.550
 5477POPC   D2A29812  30.668  39.217   8.250
 5477POPC   C3A29813  30.736  39.225   7.950
 5477POPC   C4A29814  30.737  39.192   7.650
 5477POPC   C1B29815  30.871  39.053   8.550
 5477POPC   C2B29816  30.883  39.030   8.250
 5477POPC   C3B29817  30.885  39.034   7.950
 5477POPC   C4B29818  30.868  38.991   7.650
 5478POPC   NC329819  41.511  36.899   9.450
 5478POPC   PO429820  41.596  36.942   9.150
 5478POPC   GL129821  41.545  36.937   8.850
 5478POPC   GL229822  41.533  36.744   8.850
 5478POPC   C1A29823  41.515  36.870   8.550
 5478POPC   D2A29824  41.538  36.948   8.250
 5478POPC   C3A29825  41.520  36.902   7.950
 5478POPC   C4A29826  41.543  36.918   7.650
 5478POPC   C1B29827  41.466  36.674   8.550
 5478POPC   C2B29828  41.432  36.630   8.250
 5478POPC   C3B29829  41.445  36.697   7.950
 5478POPC   C4B29830  41.481  36.668   7.650
 5479POPC   NC329831   8.220  11.349   9.450
 5479POPC   PO429832   8.219  11.348   9.150
 5479POPC   GL129833   8.177  11.254   8.850
 5479POPC   GL229834   8.054  11.325   8.850
 5479POPC   C1A29835   8.209  11.349   8.550
 5479POPC   D2A29836   8.209  11.308   8.250
 5479POPC   C3A29837   8.215  11.326   7.950
 5479POPC   C4A29838   8.216  11.294   7.650
 5479POPC   C1B29839   7.911  11.318   8.550
 5479POPC   C2B29840   7.933  11.292   8.250
 5479POPC   C3B29841   7.952  11.288   7.950
 5479POPC   C4B29842   7.901  11.364   7.650
 5480POPC   NC329843  11.274  25.255   9.450
 5480POPC   PO429844  11.269  25.300   9.150
 5480POPC   GL129845  11.291  25.301   8.850
 5480POPC   GL229846  11.402  25.289   8.850
 5480POPC   C1A29847  11.262  25.302   8.550
 5480POPC   D2A29848  11.295  25.244   8.250
 5480POPC   C3A29849  11.348  25.315   7.950
 5480POPC   C4A29850  11.286  25.294   7.650
 5480POPC   C1B29851  11.571  25.316   8.550
 5480POPC   C2B29852  11.562  25.306   8.250
 5480POPC   C3B29853  11.516  25.285   7.950
 5480POPC   C4B29854  11.568  25.325   7.650
 5481POPC   NC329855   7.408   0.397   9.450
 5481POPC   PO429856   7.398   0.484   9.150
 5481POPC   GL129857   7.421   0.470   8.850
 5481POPC   GL229858   7.276   0.529   8.850
 5481POPC   C1A29859   7.374   0.450   8.550
 5481POPC   D2A29860   7.434   0.461   8.250
 5481POPC   C3A29861   7.461   0.458   7.950
 5481POPC   C4A29862   7.425   0.420   7.650
 5481POPC   C1B29863   7.213   0.547   8.550
 5481POPC   C2B29864   7.229   0.566   8.250
 5481POPC   C3B29865   7.232   0.491   7.950
 5481POPC   C4B29866   7.230   0.565   7.650
 5482POPC   NC329867  40.821  33.058   9.450
 5482POPC   PO429868  40.741  33.017   9.150
 5482POPC   GL129869  40.793  33.004   8.850
 5482POPC   GL229870  40.942  32.967   8.850
 5482POPC   C1A29871  40.784  32.977   8.550
 5482POPC   D2A29872  40.821  32.983   8.250
 5482POPC   C3A29873  40.789  32.982   7.950
 5482POPC   C4A29874  40.781  33.003   7.650
 5482POPC   C1B29875  40.984  32.937   8.550
 5482POPC   C2B29876  41.011  32.941   8.250
 5482POPC   C3B29877  40.996  32.899   7.950
 5482POPC   C4B29878  40.974  32.899   7.650
 5483POPC   NC329879   3.496  28.408   9.450
 5483POPC   PO429880   3.520  28.374   9.150
 5483POPC   GL129881   3.526  28.379   8.850
 5483POPC   GL229882   3.508  28.258   8.850
 5483POPC   C1A29883   3.558  28.394   8.550
 5483POPC   D2A29884   3.546  28.337   8.250
 5483POPC   C3A29885   3.553  28.372   7.950
 5483POPC   C4A29886   3.514  28.355   7.650
 5483POPC   C1B29887   3.513  28.087   8.550
 5483POPC   C2B29888   3.542  28.084   8.250
 5483POPC   C3B29889   3.530  28.131   7.950
 5483POPC   C4B29890   3.464  28.101   7.650
 5484POPC   NC329891  17.541  22.952   9.450
 5484POPC   PO429892  17.467  22.983   9.150
 5484POPC   GL129893  17.468  22.927   8.850
 5484POPC   GL229894  17.433  22.839   8.850
 5484POPC   C1A29895  17.485  22.890   8.550
 5484POPC   D2A29896  17.518  22.899   8.250
 5484POPC   C3A29897  17.521  22.943   7.950
 5484POPC   C4A29898  17.461  22.960   7.650
 5484POPC   C1B29899  17.319  22.723   8.550
 5484POPC   C2B29900  17.334  22.769   8.250
 5484POPC   C3B29901  17.366  22.721   7.950
 5484POPC   C4B29902  17.355  22.753   7.650
 5485POPC   NC329903  33.843  24.470   9.450
 5485POPC   PO429904  33.763  24.473   9.150
 5485POPC   GL129905  33.806  24.495   8.850
 5485POPC   GL229906  33.896  24.568   8.850
 5485POPC   C1A29907  33.811  24.492   8.550
 5485POPC   D2A29908  33.787  24.449   8.250
 5485POPC   C3A29909  33.822  24.463   7.950
 5485POPC   C4A29910  33.809  24.516   7.650
 5485POPC   C1B29911  33.945  24.703   8.550
 5485POPC   C2B29912  33.901  24.750   8.250
 5485POPC   C3B29913  33.942  24.689   7.950
 5485POPC   C4B29914  33.968  24.686   7.650
 5486POPC   NC329915  41.518   9.787   9.450
 5486POPC   PO429916  41.525   9.785   9.150
 5486POPC   GL129917  41.522   9.728   8.850
 5486POPC   GL229918  41.629   9.847   8.850
 5486POPC   C1A29919  41.548   9.750   8.550
 5486POPC   D2A29920  41.565   9.792   8.250
 5486POPC   C3A29921  41.523   9.788   7.950
 5486POPC   C4A29922  41.565   9.714   7.650
 5486POPC   C1B29923  41.776   9.914   8.550
 5486POPC   C2B29924  41.770   9.895   8.250
 5486POPC   C3B29925  41.729   9.856   7.950
 5486POPC   C4B29926  41.752   9.878   7.650
 5487POPC   NC329927  19.062  25.244   9.450
 5487POPC   PO429928  19.021  25.269   9.150
 5487POPC   GL129929  19.043  25.295   8.850
 5487POPC   GL229930  18.928  25.218   8.850
 5487POPC   C1A29931  19.098  25.280   8.550
 5487POPC   D2A29932  19.066  25.223   8.250
 5487POPC   C3A29933  19.081  25.299   7.950
 5487POPC   C4A29934  19.013  25.230   7.650
 5487POPC   C1B29935  18.875  25.153   8.550
 5487POPC   C2B29936  18.823  25.120   8.250
 5487POPC   C3B29937  18.875  25.162   7.950
 5487POPC   C4B29938  18.784  25.198   7.650
 5488POPC   NC329939  15.964  37.637   9.450
 5488POPC   PO429940  15.983  37.701   9.150
 5488POPC   GL129941  15.951  37.656   8.850
 5488POPC   GL229942  15.870  37.670   8.850
 5488POPC   C1A29943  15.951  37.688   8.550
 5488POPC   D2A29944  15.971  37.650   8.250
 5488POPC   C3A29945  15.984  37.725   7.950
 5488POPC   C4A29946  15.937  37.715   7.650
 5488POPC   C1B29947  15.682  37.782   8.550
 5488POPC   C2B29948  15.677  37.772   8.250
 5488POPC   C3B29949  15.758  37.716   7.950
 5488POPC   C4B29950  15.713  37.783   7.650
 5489POPC   NC329951  12.029  15.992   9.450
 5489POPC   PO429952  12.119  16.005   9.150
 5489POPC   GL129953  12.097  15.919   8.850
 5489POPC   GL229954  12.001  15.960   8.850
 5489POPC   C1A29955  12.082  15.928   8.550
 5489POPC   D2A29956  12.068  15.997   8.250
 5489POPC   C3A29957  12.099  15.940   7.950
 5489POPC   C4A29958  12.048  15.984   7.650
 5489POPC   C1B29959  11.861  15.923   8.550
 5489POPC   C2B29960  11.846  15.918   8.250
 5489POPC   C3B29961  11.858  15.909   7.950
 5489POPC   C4B29962  11.863  15.948   7.650
 5490POPC   NC329963   8.944   8.209   9.450
 5490POPC   PO429964   9.001   8.235   9.150
 5490POPC   GL129965   9.018   8.235   8.850
 5490POPC   GL229966   8.835   8.174   8.850
 5490POPC   C1A29967   8.944   8.153   8.550
 5490POPC   D2A29968   9.018   8.197   8.250
 5490POPC   C3A29969   9.021   8.172   7.950
 5490POPC   C4A29970   9.018   8.202   7.650
 5490POPC   C1B29971   8.699   8.175   8.550
 5490POPC   C2B29972   8.676   8.237   8.250
 5490POPC   C3B29973   8.738   8.178   7.950
 5490POPC   C4B29974   8.758   8.183   7.650
 5491POPC   NC329975  17.511  24.472   9.450
 5491POPC   PO429976  17.462  24.491   9.150
 5491POPC   GL129977  17.482  24.478   8.850
 5491POPC   GL229978  17.425  24.600   8.850
 5491POPC   C1A29979  17.522  24.442   8.550
 5491POPC   D2A29980  17.474  24.473   8.250
 5491POPC   C3A29981  17.516  24.459   7.950
 5491POPC   C4A29982  17.505  24.464   7.650
 5491POPC   C1B29983  17.395  24.763   8.550
 5491POPC   C2B29984  17.424  24.732   8.250
 5491POPC   C3B29985  17.394  24.709   7.950
 5491POPC   C4B29986  17.371  24.730   7.650
 5492POPC   NC329987  36.085  30.682   9.450
 5492POPC   PO429988  36.116  30.703   9.150
 5492POPC   GL129989  36.112  30.696   8.850
 5492POPC   GL229990  36.014  30.827   8.850
 5492POPC   C1A29991  36.078  30.737   8.550
 5492POPC   D2A29992  36.149  30.695   8.250
 5492POPC   C3A29993  36.130  30.707   7.950
 5492POPC   C4A29994  36.159  30.671   7.650
 5492POPC   C1B29995  35.970  30.913   8.550
 5492POPC   C2B29996  35.981  30.866   8.250
 5492POPC   C3B29997  35.998  30.920   7.950
 5492POPC   C4B29998  35.984  30.939   7.650
 5493POPC   NC329999  43.135  11.324   9.450
 5493POPC   PO430000  43.153  11.313   9.150
 5493POPC   GL130001  43.135  11.264   8.850
 5493POPC   GL230002  43.274  11.350   8.850
 5493POPC   C1A30003  43.104  11.289   8.550
 5493POPC   D2A30004  43.121  11.336   8.250
 5493POPC   C3A30005  43.144  11.326   7.950
 5493POPC   C4A30006  43.115  11.302   7.650
 5493POPC   C1B30007  43.404  11.299   8.550
 5493POPC   C2B30008  43.320  11.336   8.250
 5493POPC   C3B30009  43.310  11.360   7.950
 5493POPC   C4B30010  43.371  11.328   7.650
 5494POPC   NC330011  28.398  26.851   9.450
 5494POPC   PO430012  28.349  26.799   9.150
 5494POPC   GL130013  28.341  26.818   8.850
 5494POPC   GL230014  28.241  26.853   8.850
 5494POPC   C1A30015  28.340  26.854   8.550
 5494POPC   D2A30016  28.383  26.821   8.250
 5494POPC   C3A30017  28.358  26.793   7.950
 5494POPC   C4A30018  28.358  26.821   7.650
 5494POPC   C1B30019  28.167  26.968   8.550
 5494POPC   C2B30020  28.122  26.878   8.250
 5494POPC   C3B30021  28.122  26.894   7.950
 5494POPC   C4B30022  28.138  26.960   7.650
 5495POPC   NC330023   1.992  27.602   9.450
 5495POPC   PO430024   1.952  27.551   9.150
 5495POPC   GL130025   2.007  27.609   8.850
 5495POPC   GL230026   2.038  27.491   8.850
 5495POPC   C1A30027   1.989  27.564   8.550
 5495POPC   D2A30028   2.039  27.551   8.250
 5495POPC   C3A30029   2.013  27.574   7.950
 5495POPC   C4A30030   1.947  27.616   7.650
 5495POPC   C1B30031   2.095  27.376   8.550
 5495POPC   C2B30032   2.167  27.411   8.250
 5495POPC   C3B30033   2.172  27.372   7.950
 5495POPC   C4B30034   2.106  27.417   7.650
 5496POPC   NC330035  36.127   2.728   9.450
 5496POPC   PO430036  36.117   2.717   9.150
 5496POPC   GL130037  36.141   2.744   8.850
 5496POPC   GL230038  36.032   2.690   8.850
 5496POPC   C1A30039  36.136   2.732   8.550
 5496POPC   D2A30040  36.089   2.755   8.250
 5496POPC   C3A30041  36.121   2.815   7.950
 5496POPC   C4A30042  36.122   2.802   7.650
 5496POPC   C1B30043  35.996   2.557   8.550
 5496POPC   C2B30044  35.956   2.542   8.250
 5496POPC   C3B30045  35.948   2.567   7.950
 5496POPC   C4B30046  35.979   2.621   7.650
 5497POPC   NC330047  16.689  28.359   9.450
 5497POPC   PO430048  16.776  28.415   9.150
 5497POPC   GL130049  16.745  28.382   8.850
 5497POPC   GL230050  16.625  28.488   8.850
 5497POPC   C1A30051  16.724  28.360   8.550
 5497POPC   D2A30052  16.740  28.414   8.250
 5497POPC   C3A30053  16.774  28.328   7.950
 5497POPC   C4A30054  16.749  28.394   7.650
 5497POPC   C1B30055  16.552  28.576   8.550
 5497POPC   C2B30056  16.532  28.543   8.250
 5497POPC   C3B30057  16.529  28.548   7.950
 5497POPC   C4B30058  16.522  28.533   7.650
 5498POPC   NC330059  29.105  23.673   9.450
 5498POPC   PO430060  29.174  23.736   9.150
 5498POPC   GL130061  29.129  23.755   8.850
 5498POPC   GL230062  29.179  23.809   8.850
 5498POPC   C1A30063  29.101  23.724   8.550
 5498POPC   D2A30064  29.129  23.697   8.250
 5498POPC   C3A30065  29.105  23.673   7.950
 5498POPC   C4A30066  29.184  23.761   7.650
 5498POPC   C1B30067  29.309  23.917   8.550
 5498POPC   C2B30068  29.247  23.903   8.250
 5498POPC   C3B30069  29.253  23.894   7.950
 5498POPC   C4B30070  29.255  23.936   7.650
 5499POPC   NC330071  11.316  39.239   9.450
 5499POPC   PO430072  11.321  39.273   9.150
 5499POPC   GL130073  11.277  39.197   8.850
 5499POPC   GL230074  11.365  39.328   8.850
 5499POPC   C1A30075  11.320  39.226   8.550
 5499POPC   D2A30076  11.271  39.279   8.250
 5499POPC   C3A30077  11.343  39.215   7.950
 5499POPC   C4A30078  11.272  39.199   7.650
 5499POPC   C1B30079  11.388  39.466   8.550
 5499POPC   C2B30080  11.290  39.489   8.250
 5499POPC   C3B30081  11.367  39.472   7.950
 5499POPC   C4B30082  11.320  39.448   7.650
 5500POPC   NC330083  36.875  39.270   9.450
 5500POPC   PO430084  36.916  39.220   9.150
 5500POPC   GL130085  36.904  39.198   8.850
 5500POPC   GL230086  36.952  39.382   8.850
 5500POPC   C1A30087  36.879  39.214   8.550
 5500POPC   D2A30088  36.913  39.251   8.250
 5500POPC   C3A30089  36.895  39.254   7.950
 5500POPC   C4A30090  36.949  39.216   7.650
 5500POPC   C1B30091  37.016  39.456   8.550
 5500POPC   C2B30092  37.033  39.457   8.250
 5500POPC   C3B30093  37.006  39.500   7.950
 5500POPC   C4B30094  37.045  39.462   7.650
 5501POPC   NC330095  37.640  34.537   9.450
 5501POPC   PO430096  37.640  34.596   9.150
 5501POPC   GL130097  37.724  34.550   8.850
 5501POPC   GL230098  37.781  34.504   8.850
 5501POPC   C1A30099  37.656  34.586   8.550
 5501POPC   D2A30100  37.718  34.585   8.250
 5501POPC   C3A30101  37.716  34.535   7.950
 5501POPC   C4A30102  37.645  34.559   7.650
 5501POPC   C1B30103  37.931  34.461   8.550
 5501POPC   C2B30104  37.896  34.516   8.250
 5501POPC   C3B30105  37.871  34.427   7.950
 5501POPC   C4B30106  37.935  34.497   7.650
 5502POPC   NC330107   8.196  38.479   9.450
 5502POPC   PO430108   8.215  38.480   9.150
 5502POPC   GL130109   8.247  38.431   8.850
 5502POPC   GL230110   8.229  38.628   8.850
 5502POPC   C1A30111   8.153  38.467   8.550
 5502POPC   D2A30112   8.175  38.422   8.250
 5502POPC   C3A30113   8.174  38.426   7.950
 5502POPC   C4A30114   8.183  38.496   7.650
 5502POPC   C1B30115   8.127  38.688   8.550
 5502POPC   C2B30116   8.140  38.746   8.250
 5502POPC   C3B30117   8.199  38.702   7.950
 5502POPC   C4B30118   8.184  38.671   7.650
 5503POPC   NC330119  17.523  38.422   9.450
 5503POPC   PO430120  17.511  38.420   9.150
 5503POPC   GL130121  17.525  38.446   8.850
 5503POPC   GL230122  17.394  38.516   8.850
 5503POPC   C1A30123  17.477  38.410   8.550
 5503POPC   D2A30124  17.547  38.438   8.250
 5503POPC   C3A30125  17.457  38.456   7.950
 5503POPC   C4A30126  17.463  38.436   7.650
 5503POPC   C1B30127  17.281  38.585   8.550
 5503POPC   C2B30128  17.310  38.503   8.250
 5503POPC   C3B30129  17.283  38.566   7.950
 5503POPC   C4B30130  17.314  38.594   7.650
 5504POPC   NC330131  11.257   2.018   9.450
 5504POPC   PO430132  11.289   2.006   9.150
 5504POPC   GL130133  11.307   1.958   8.850
 5504POPC   GL230134  11.283   2.121   8.850
 5504POPC   C1A30135  11.283   1.981   8.550
 5504POPC   D2A30136  11.318   1.941   8.250
 5504POPC   C3A30137  11.298   1.996   7.950
 5504POPC   C4A30138  11.336   1.959   7.650
 5504POPC   C1B30139  11.287   2.220   8.550
 5504POPC   C2B30140  11.287   2.208   8.250
 5504POPC   C3B30141  11.273   2.279   7.950
 5504POPC   C4B30142  11.302   2.202   7.650
 5505POPC   NC330143   2.003  26.016   9.450
 5505POPC   PO430144   1.966  26.003   9.150
 5505POPC   GL130145   2.015  25.991   8.850
 5505POPC   GL230146   2.071  26.132   8.850
 5505POPC   C1A30147   1.941  26.047   8.550
 5505POPC   D2A30148   2.012  26.045   8.250
 5505POPC   C3A30149   2.017  26.075   7.950
 5505POPC   C4A30150   1.942  26.065   7.650
 5505POPC   C1B30151   2.145  26.261   8.550
 5505POPC   C2B30152   2.148  26.273   8.250
 5505POPC   C3B30153   2.131  26.218   7.950
 5505POPC   C4B30154   2.088  26.242   7.650
 5506POPC   NC330155   6.622  31.459   9.450
 5506POPC   PO430156   6.664  31.522   9.150
 5506POPC   GL130157   6.655  31.501   8.850
 5506POPC   GL230158   6.704  31.606   8.850
 5506POPC   C1A30159   6.601  31.468   8.550
 5506POPC   D2A30160   6.613  31.465   8.250
 5506POPC   C3A30161   6.641  31.501   7.950
 5506POPC   C4A30162   6.608  31.479   7.650
 5506POPC   C1B30163   6.743  31.648   8.550
 5506POPC   C2B30164   6.758  31.687   8.250
 5506POPC   C3B30165   6.836  31.681   7.950
 5506POPC   C4B30166   6.834  31.664   7.650
 5507POPC   NC330167  23.750  21.426   9.450
 5507POPC   PO430168  23.724  21.387   9.150
 5507POPC   GL130169  23.746  21.352   8.850
 5507POPC   GL230170  23.668  21.218   8.850
 5507POPC   C1A30171  23.703  21.410   8.550
 5507POPC   D2A30172  23.686  21.393   8.250
 5507POPC   C3A30173  23.747  21.423   7.950
 5507POPC   C4A30174  23.682  21.425   7.650
 5507POPC   C1B30175  23.682  21.177   8.550
 5507POPC   C2B30176  23.590  21.116   8.250
 5507POPC   C3B30177  23.680  21.148   7.950
 5507POPC   C4B30178  23.639  21.155   7.650
 5508POPC   NC330179  35.313  33.790   9.450
 5508POPC   PO430180  35.330  33.794   9.150
 5508POPC   GL130181  35.365  33.782   8.850
 5508POPC   GL230182  35.284  33.845   8.850
 5508POPC   C1A30183  35.337  33.824   8.550
 5508POPC   D2A30184  35.384  33.784   8.250
 5508POPC   C3A30185  35.313  33.764   7.950
 5508POPC   C4A30186  35.371  33.774   7.650
 5508POPC   C1B30187  35.207  34.020   8.550
 5508POPC   C2B30188  35.129  33.947   8.250
 5508POPC   C3B30189  35.204  34.003   7.950
 5508POPC   C4B30190  35.176  33.993   7.650
 5509POPC   NC330191  29.925   9.791   9.450
 5509POPC   PO430192  29.952   9.738   9.150
 5509POPC   GL130193  29.875   9.758   8.850
 5509POPC   GL230194  29.789   9.698   8.850
 5509POPC   C1A30195  29.927   9.729   8.550
 5509POPC   D2A30196  29.947   9.787   8.250
 5509POPC   C3A30197  29.904   9.700   7.950
 5509POPC   C4A30198  29.908   9.791   7.650
 5509POPC   C1B30199  29.690   9.677   8.550
 5509POPC   C2B30200  29.692   9.689   8.250
 5509POPC   C3B30201  29.684   9.700   7.950
 5509POPC   C4B30202  29.678   9.758   7.650
 5510POPC   NC330203  29.123  34.529   9.450
 5510POPC   PO430204  29.188  34.573   9.150
 5510POPC   GL130205  29.125  34.541   8.850
 5510POPC   GL230206  29.012  34.664   8.850
 5510POPC   C1A30207  29.152  34.533   8.550
 5510POPC   D2A30208  29.172  34.534   8.250
 5510POPC   C3A30209  29.181  34.572   7.950
 5510POPC   C4A30210  29.123  34.565   7.650
 5510POPC   C1B30211  28.899  34.726   8.550
 5510POPC   C2B30212  28.964  34.691   8.250
 5510POPC   C3B30213  28.987  34.695   7.950
 5510POPC   C4B30214  28.962  34.692   7.650
 5511POPC   NC330215   5.883  43.854   9.450
 5511POPC   PO430216   5.867  43.906   9.150
 5511POPC   GL130217   5.888  43.847   8.850
 5511POPC   GL230218   5.890  43.762   8.850
 5511POPC   C1A30219   5.853  43.927   8.550
 5511POPC   D2A30220   5.836  43.852   8.250
 5511POPC   C3A30221   5.891  43.902   7.950
 5511POPC   C4A30222   5.878  43.882   7.650
 5511POPC   C1B30223   5.834  43.596   8.550
 5511POPC   C2B30224   5.861  43.666   8.250
 5511POPC   C3B30225   5.865  43.671   7.950
 5511POPC   C4B30226   5.862  43.639   7.650
 5512POPC   NC330227   0.402  21.369   9.450
 5512POPC   PO430228   0.447  21.391   9.150
 5512POPC   GL130229   0.458  21.346   8.850
 5512POPC   GL230230   0.408  21.292   8.850
 5512POPC   C1A30231   0.412  21.382   8.550
 5512POPC   D2A30232   0.484  21.350   8.250
 5512POPC   C3A30233   0.417  21.423   7.950
 5512POPC   C4A30234   0.465  21.354   7.650
 5512POPC   C1B30235   0.285  21.211   8.550
 5512POPC   C2B30236   0.300  21.212   8.250
 5512POPC   C3B30237   0.336  21.165   7.950
 5512POPC   C4B30238   0.293  21.163   7.650
 5513POPC   NC330239   5.847  30.676   9.450
 5513POPC   PO430240   5.896  30.702   9.150
 5513POPC   GL130241   5.867  30.698   8.850
 5513POPC   GL230242   5.773  30.663   8.850
 5513POPC   C1A30243   5.876  30.741   8.550
 5513POPC   D2A30244   5.824  30.647   8.250
 5513POPC   C3A30245   5.867  30.679   7.950
 5513POPC   C4A30246   5.848  30.728   7.650
 5513POPC   C1B30247   5.590  30.581   8.550
 5513POPC   C2B30248   5.635  30.609   8.250
 5513POPC   C3B30249   5.670  30.641   7.950
 5513POPC   C4B30250   5.628  30.607   7.650
 5514POPC   NC330251  43.894  18.254   9.450
 5514POPC   PO430252  43.878  18.298   9.150
 5514POPC   GL130253  43.917  18.247   8.850
 5514POPC   GL230254  43.929  18.355   8.850
 5514POPC   C1A30255  43.865  18.325   8.550
 5514POPC   D2A30256  43.868  18.303   8.250
 5514POPC   C3A30257  43.852  18.245   7.950
 5514POPC   C4A30258  43.895  18.278   7.650
 5514POPC   C1B30259  44.090  18.461   8.550
 5514POPC   C2B30260  44.051  18.407   8.250
 5514POPC   C3B30261  44.037  18.464   7.950
 5514POPC   C4B30262  44.096  18.470   7.650
 5515POPC   NC330263  24.496  24.483   9.450
 5515POPC   PO430264  24.480  24.515   9.150
 5515POPC   GL130265  24.514  24.478   8.850
 5515POPC   GL230266  24.616  24.381   8.850
 5515POPC   C1A30267  24.445  24.496   8.550
 5515POPC   D2A30268  24.450  24.489   8.250
 5515POPC   C3A30269  24.524  24.537   7.950
 5515POPC   C4A30270  24.525  24.504   7.650
 5515POPC   C1B30271  24.677  24.340   8.550
 5515POPC   C2B30272  24.663  24.290   8.250
 5515POPC   C3B30273  24.624  24.365   7.950
 5515POPC   C4B30274  24.674  24.355   7.650
 5516POPC   NC330275  22.967  36.904   9.450
 5516POPC   PO430276  22.974  36.890   9.150
 5516POPC   GL130277  22.899  36.898   8.850
 5516POPC   GL230278  23.009  36.806   8.850
 5516POPC   C1A30279  22.918  36.901   8.550
 5516POPC   D2A30280  22.890  36.889   8.250
 5516POPC   C3A30281  22.916  36.874   7.950
 5516POPC   C4A30282  22.942  36.916   7.650
 5516POPC   C1B30283  23.132  36.726   8.550
 5516POPC   C2B30284  23.080  36.757   8.250
 5516POPC   C3B30285  23.156  36.682   7.950
 5516POPC   C4B30286  23.155  36.707   7.650
 5517POPC   NC330287   4.335  36.152   9.450
 5517POPC   PO430288   4.361  36.163   9.150
 5517POPC   GL130289   4.327  36.101   8.850
 5517POPC   GL230290   4.254  35.993   8.850
 5517POPC   C1A30291   4.307  36.100   8.550
 5517POPC   D2A30292   4.278  36.089   8.250
 5517POPC   C3A30293   4.365  36.090   7.950
 5517POPC   C4A30294   4.337  36.098   7.650
 5517POPC   C1B30295   4.312  35.843   8.550
 5517POPC   C2B30296   4.224  35.840   8.250
 5517POPC   C3B30297   4.281  35.875   7.950
 5517POPC   C4B30298   4.290  35.932   7.650
 5518POPC   NC330299  40.000  38.475   9.450
 5518POPC   PO430300  39.975  38.453   9.150
 5518POPC   GL130301  39.988  38.411   8.850
 5518POPC   GL230302  40.155  38.557   8.850
 5518POPC   C1A30303  40.000  38.488   8.550
 5518POPC   D2A30304  40.042  38.462   8.250
 5518POPC   C3A30305  40.047  38.439   7.950
 5518POPC   C4A30306  39.989  38.501   7.650
 5518POPC   C1B30307  40.173  38.594   8.550
 5518POPC   C2B30308  40.244  38.608   8.250
 5518POPC   C3B30309  40.192  38.644   7.950
 5518POPC   C4B30310  40.237  38.628   7.650
 5519POPC   NC330311  32.995   1.254   9.450
 5519POPC   PO430312  32.976   1.219   9.150
 5519POPC   GL130313  33.033   1.211   8.850
 5519POPC   GL230314  33.190   1.230   8.850
 5519POPC   C1A30315  33.042   1.184   8.550
 5519POPC   D2A30316  33.056   1.222   8.250
 5519POPC   C3A30317  33.039   1.212   7.950
 5519POPC   C4A30318  32.983   1.216   7.650
 5519POPC   C1B30319  33.249   1.251   8.550
 5519POPC   C2B30320  33.254   1.238   8.250
 5519POPC   C3B30321  33.257   1.284   7.950
 5519POPC   C4B30322  33.230   1.321   7.650
 5520POPC   NC330323   5.908  14.449   9.450
 5520POPC   PO430324   5.845  14.429   9.150
 5520POPC   GL130325   5.824  14.371   8.850
 5520POPC   GL230326   5.731  14.449   8.850
 5520POPC   C1A30327   5.886  14.412   8.550
 5520POPC   D2A30328   5.836  14.359   8.250
 5520POPC   C3A30329   5.907  14.436   7.950
 5520POPC   C4A30330   5.840  14.416   7.650
 5520POPC   C1B30331   5.734  14.528   8.550
 5520POPC   C2B30332   5.661  14.577   8.250
 5520POPC   C3B30333   5.704  14.622   7.950
 5520POPC   C4B30334   5.642  14.539   7.650
 5521POPC   NC330335  40.772  33.772   9.450
 5521POPC   PO430336  40.789  33.765   9.150
 5521POPC   GL130337  40.819  33.837   8.850
 5521POPC   GL230338  40.731  33.664   8.850
 5521POPC   C1A30339  40.796  33.778   8.550
 5521POPC   D2A30340  40.796  33.813   8.250
 5521POPC   C3A30341  40.781  33.832   7.950
 5521POPC   C4A30342  40.770  33.780   7.650
 5521POPC   C1B30343  40.558  33.601   8.550
 5521POPC   C2B30344  40.634  33.632   8.250
 5521POPC   C3B30345  40.618  33.577   7.950
 5521POPC   C4B30346  40.629  33.641   7.650
 5522POPC   NC330347  10.485  41.541   9.450
 5522POPC   PO430348  10.541  41.515   9.150
 5522POPC   GL130349  10.556  41.593   8.850
 5522POPC   GL230350  10.656  41.593   8.850
 5522POPC   C1A30351  10.522  41.526   8.550
 5522POPC   D2A30352  10.493  41.520   8.250
 5522POPC   C3A30353  10.483  41.575   7.950
 5522POPC   C4A30354  10.538  41.518   7.650
 5522POPC   C1B30355  10.728  41.508   8.550
 5522POPC   C2B30356  10.765  41.495   8.250
 5522POPC   C3B30357  10.775  41.561   7.950
 5522POPC   C4B30358  10.743  41.499   7.650
 5523POPC   NC330359  13.590  40.807   9.450
 5523POPC   PO430360  13.619  40.808   9.150
 5523POPC   GL130361  13.622  40.783   8.850
 5523POPC   GL230362  13.596  40.875   8.850
 5523POPC   C1A30363  13.634  40.753   8.550
 5523POPC   D2A30364  13.629  40.744   8.250
 5523POPC   C3A30365  13.626  40.787   7.950
 5523POPC   C4A30366  13.666  40.764   7.650
 5523POPC   C1B30367  13.516  40.988   8.550
 5523POPC   C2B30368  13.566  41.036   8.250
 5523POPC   C3B30369  13.569  40.974   7.950
 5523POPC   C4B30370  13.529  41.056   7.650
 5524POPC   NC330371  29.911  16.685   9.450
 5524POPC   PO430372  29.920  16.742   9.150
 5524POPC   GL130373  29.952  16.693   8.850
 5524POPC   GL230374  29.869  16.856   8.850
 5524POPC   C1A30375  29.880  16.763   8.550
 5524POPC   D2A30376  29.962  16.703   8.250
 5524POPC   C3A30377  29.942  16.681   7.950
 5524POPC   C4A30378  29.879  16.733   7.650
 5524POPC   C1B30379  29.791  16.894   8.550
 5524POPC   C2B30380  29.750  16.908   8.250
 5524POPC   C3B30381  29.763  16.905   7.950
 5524POPC   C4B30382  29.757  16.918   7.650
 5525POPC   NC330383   1.223  37.697   9.450
 5525POPC   PO430384   1.216  37.675   9.150
 5525POPC   GL130385   1.222  37.640   8.850
 5525POPC   GL230386   1.352  37.659   8.850
 5525POPC   C1A30387   1.241  37.728   8.550
 5525POPC   D2A30388   1.164  37.630   8.250
 5525POPC   C3A30389   1.216  37.649   7.950
 5525POPC   C4A30390   1.172  37.631   7.650
 5525POPC   C1B30391   1.411  37.609   8.550
 5525POPC   C2B30392   1.390  37.545   8.250
 5525POPC   C3B30393   1.411  37.527   7.950
 5525POPC   C4B30394   1.442  37.578   7.650
 5526POPC   NC330395  27.630  12.078   9.450
 5526POPC   PO430396  27.638  12.064   9.150
 5526POPC   GL130397  27.585  12.088   8.850
 5526POPC   GL230398  27.713  12.035   8.850
 5526POPC   C1A30399  27.589  12.078   8.550
 5526POPC   D2A30400  27.599  12.121   8.250
 5526POPC   C3A30401  27.614  12.115   7.950
 5526POPC   C4A30402  27.620  12.116   7.650
 5526POPC   C1B30403  27.789  11.894   8.550
 5526POPC   C2B30404  27.812  11.905   8.250
 5526POPC   C3B30405  27.837  11.971   7.950
 5526POPC   C4B30406  27.841  11.952   7.650
 5527POPC   NC330407  14.400  36.864   9.450
 5527POPC   PO430408  14.389  36.881   9.150
 5527POPC   GL130409  14.383  36.862   8.850
 5527POPC   GL230410  14.544  36.934   8.850
 5527POPC   C1A30411  14.359  36.882   8.550
 5527POPC   D2A30412  14.421  36.859   8.250
 5527POPC   C3A30413  14.424  36.869   7.950
 5527POPC   C4A30414  14.433  36.939   7.650
 5527POPC   C1B30415  14.670  36.955   8.550
 5527POPC   C2B30416  14.622  36.960   8.250
 5527POPC   C3B30417  14.652  36.902   7.950
 5527POPC   C4B30418  14.663  36.975   7.650
 5528POPC   NC330419  22.179   2.808   9.450
 5528POPC   PO430420  22.196   2.773   9.150
 5528POPC   GL130421  22.205   2.789   8.850
 5528POPC   GL230422  22.333   2.715   8.850
 5528POPC   C1A30423  22.211   2.782   8.550
 5528POPC   D2A30424  22.204   2.773   8.250
 5528POPC   C3A30425  22.202   2.808   7.950
 5528POPC   C4A30426  22.174   2.758   7.650
 5528POPC   C1B30427  22.364   2.751   8.550
 5528POPC   C2B30428  22.415   2.744   8.250
 5528POPC   C3B30429  22.420   2.689   7.950
 5528POPC   C4B30430  22.424   2.705   7.650
 5529POPC   NC330431  12.893  13.670   9.450
 5529POPC   PO430432  12.890  13.602   9.150
 5529POPC   GL130433  12.806  13.665   8.850
 5529POPC   GL230434  12.771  13.591   8.850
 5529POPC   C1A30435  12.829  13.607   8.550
 5529POPC   D2A30436  12.838  13.582   8.250
 5529POPC   C3A30437  12.892  13.663   7.950
 5529POPC   C4A30438  12.812  13.658   7.650
 5529POPC   C1B30439  12.709  13.502   8.550
 5529POPC   C2B30440  12.695  13.478   8.250
 5529POPC   C3B30441  12.618  13.435   7.950
 5529POPC   C4B30442  12.642  13.438   7.650
 5530POPC   NC330443  18.284  17.509   9.450
 5530POPC   PO430444  18.298  17.537   9.150
 5530POPC   GL130445  18.295  17.542   8.850
 5530POPC   GL230446  18.442  17.525   8.850
 5530POPC   C1A30447  18.300  17.519   8.550
 5530POPC   D2A30448  18.298  17.532   8.250
 5530POPC   C3A30449  18.319  17.457   7.950
 5530POPC   C4A30450  18.331  17.551   7.650
 5530POPC   C1B30451  18.518  17.625   8.550
 5530POPC   C2B30452  18.546  17.616   8.250
 5530POPC   C3B30453  18.537  17.589   7.950
 5530POPC   C4B30454  18.540  17.586   7.650
 5531POPC   NC330455   5.848  36.865   9.450
 5531POPC   PO430456   5.865  36.886   9.150
 5531POPC   GL130457   5.841  36.873   8.850
 5531POPC   GL230458   5.910  36.766   8.850
 5531POPC   C1A30459   5.875  36.917   8.550
 5531POPC   D2A30460   5.912  36.926   8.250
 5531POPC   C3A30461   5.830  36.923   7.950
 5531POPC   C4A30462   5.850  36.886   7.650
 5531POPC   C1B30463   6.067  36.690   8.550
 5531POPC   C2B30464   5.989  36.669   8.250
 5531POPC   C3B30465   6.078  36.737   7.950
 5531POPC   C4B30466   5.984  36.705   7.650
 5532POPC   NC330467  40.827  22.895   9.450
 5532POPC   PO430468  40.829  22.891   9.150
 5532POPC   GL130469  40.740  22.899   8.850
 5532POPC   GL230470  40.687  22.980   8.850
 5532POPC   C1A30471  40.754  22.975   8.550
 5532POPC   D2A30472  40.741  22.944   8.250
 5532POPC   C3A30473  40.764  22.955   7.950
 5532POPC   C4A30474  40.805  22.969   7.650
 5532POPC   C1B30475  40.529  22.974   8.550
 5532POPC   C2B30476  40.538  22.984   8.250
 5532POPC   C3B30477  40.521  23.011   7.950
 5532POPC   C4B30478  40.576  23.027   7.650
 5533POPC   NC330479   6.634  21.337   9.450
 5533POPC   PO430480   6.634  21.344   9.150
 5533POPC   GL130481   6.664  21.379   8.850
 5533POPC   GL230482   6.571  21.332   8.850
 5533POPC   C1A30483   6.600  21.372   8.550
 5533POPC   D2A30484   6.616  21.400   8.250
 5533POPC   C3A30485   6.671  21.379   7.950
 5533POPC   C4A30486   6.602  21.403   7.650
 5533POPC   C1B30487   6.445  21.264   8.550
 5533POPC   C2B30488   6.402  21.294   8.250
 5533POPC   C3B30489   6.452  21.331   7.950
 5533POPC   C4B30490   6.448  21.307   7.650
 5534POPC   NC330491  43.086   8.168   9.450
 5534POPC   PO430492  43.112   8.196   9.150
 5534POPC   GL130493  43.143   8.211   8.850
 5534POPC   GL230494  43.195   8.333   8.850
 5534POPC   C1A30495  43.141   8.150   8.550
 5534POPC   D2A30496  43.141   8.186   8.250
 5534POPC   C3A30497  43.065   8.221   7.950
 5534POPC   C4A30498  43.086   8.232   7.650
 5534POPC   C1B30499  43.263   8.363   8.550
 5534POPC   C2B30500  43.310   8.391   8.250
 5534POPC   C3B30501  43.334   8.337   7.950
 5534POPC   C4B30502  43.243   8.356   7.650
 5535POPC   NC330503  42.382   1.231   9.450
 5535POPC   PO430504  42.295   1.243   9.150
 5535POPC   GL130505  42.343   1.247   8.850
 5535POPC   GL230506  42.438   1.190   8.850
 5535POPC   C1A30507  42.345   1.244   8.550
 5535POPC   D2A30508  42.334   1.206   8.250
 5535POPC   C3A30509  42.378   1.209   7.950
 5535POPC   C4A30510  42.329   1.229   7.650
 5535POPC   C1B30511  42.546   1.140   8.550
 5535POPC   C2B30512  42.571   1.144   8.250
 5535POPC   C3B30513  42.533   1.202   7.950
 5535POPC   C4B30514  42.625   1.143   7.650
 5536POPC   NC330515  30.724  42.307   9.450
 5536POPC   PO430516  30.679  42.310   9.150
 5536POPC   GL130517  30.694  42.360   8.850
 5536POPC   GL230518  30.580  42.454   8.850
 5536POPC   C1A30519  30.720  42.333   8.550
 5536POPC   D2A30520  30.667  42.296   8.250
 5536POPC   C3A30521  30.701  42.288   7.950
 5536POPC   C4A30522  30.654  42.361   7.650
 5536POPC   C1B30523  30.531  42.536   8.550
 5536POPC   C2B30524  30.522  42.557   8.250
 5536POPC   C3B30525  30.574  42.565   7.950
 5536POPC   C4B30526  30.543  42.532   7.650
 5537POPC   NC330527  43.850  24.525   9.450
 5537POPC   PO430528  43.916  24.444   9.150
 5537POPC   GL130529  43.924  24.487   8.850
 5537POPC   GL230530  44.008  24.552   8.850
 5537POPC   C1A30531  43.912  24.444   8.550
 5537POPC   D2A30532  43.935  24.491   8.250
 5537POPC   C3A30533  43.854  24.451   7.950
 5537POPC   C4A30534  43.861  24.466   7.650
 5537POPC   C1B30535  44.103  24.626   8.550
 5537POPC   C2B30536  44.070  24.659   8.250
 5537POPC   C3B30537  44.062  24.647   7.950
 5537POPC   C4B30538  44.041  24.620   7.650
 5538POPC   NC330539  44.663  40.786   9.450
 5538POPC   PO430540  44.628  40.782   9.150
 5538POPC   GL130541  44.693  40.772   8.850
 5538POPC   GL230542  44.605  40.836   8.850
 5538POPC   C1A30543  44.688  40.755   8.550
 5538POPC   D2A30544  44.666  40.735   8.250
 5538POPC   C3A30545  44.637  40.759   7.950
 5538POPC   C4A30546  44.668  40.799   7.650
 5538POPC   C1B30547  44.543  40.944   8.550
 5538POPC   C2B30548  44.537  41.021   8.250
 5538POPC   C3B30549  44.525  40.959   7.950
 5538POPC   C4B30550  44.500  40.985   7.650
 5539POPC   NC330551  20.613   0.481   9.450
 5539POPC   PO430552  20.561   0.444   9.150
 5539POPC   GL130553  20.603   0.429   8.850
 5539POPC   GL230554  20.536   0.511   8.850
 5539POPC   C1A30555  20.566   0.437   8.550
 5539POPC   D2A30556  20.568   0.418   8.250
 5539POPC   C3A30557  20.635   0.416   7.950
 5539POPC   C4A30558  20.626   0.424   7.650
 5539POPC   C1B30559  20.404   0.556   8.550
 5539POPC   C2B30560  20.391   0.546   8.250
 5539POPC   C3B30561  20.403   0.579   7.950
 5539POPC   C4B30562  20.371   0.539   7.650
 5540POPC   NC330563  43.859  39.990   9.450
 5540POPC   PO430564  43.844  40.041   9.150
 5540POPC   GL130565  43.877  40.034   8.850
 5540POPC   GL230566  43.939  39.870   8.850
 5540POPC   C1A30567  43.894  40.036   8.550
 5540POPC   D2A30568  43.849  40.012   8.250
 5540POPC   C3A30569  43.861  39.973   7.950
 5540POPC   C4A30570  43.875  39.990   7.650
 5540POPC   C1B30571  43.871  39.731   8.550
 5540POPC   C2B30572  43.918  39.747   8.250
 5540POPC   C3B30573  43.937  39.753   7.950
 5540POPC   C4B30574  43.941  39.782   7.650
 5541POPC   NC330575   8.202   0.427   9.450
 5541POPC   PO430576   8.182   0.439   9.150
 5541POPC   GL130577   8.175   0.461   8.850
 5541POPC   GL230578   8.074   0.358   8.850
 5541POPC   C1A30579   8.196   0.402   8.550
 5541POPC   D2A30580   8.233   0.478   8.250
 5541POPC   C3A30581   8.165   0.483   7.950
 5541POPC   C4A30582   8.194   0.477   7.650
 5541POPC   C1B30583   8.046   0.232   8.550
 5541POPC   C2B30584   7.994   0.218   8.250
 5541POPC   C3B30585   8.037   0.283   7.950
 5541POPC   C4B30586   8.032   0.220   7.650
 5542POPC   NC330587   1.960  30.722   9.450
 5542POPC   PO430588   1.986  30.728   9.150
 5542POPC   GL130589   1.987  30.655   8.850
 5542POPC   GL230590   2.044  30.530   8.850
 5542POPC   C1A30591   1.953  30.651   8.550
 5542POPC   D2A30592   1.965  30.685   8.250
 5542POPC   C3A30593   1.989  30.725   7.950
 5542POPC   C4A30594   1.948  30.698   7.650
 5542POPC   C1B30595   2.098  30.464   8.550
 5542POPC   C2B30596   2.056  30.411   8.250
 5542POPC   C3B30597   2.064  30.460   7.950
 5542POPC   C4B30598   2.029  30.440   7.650
 5543POPC   NC330599  20.608   4.362   9.450
 5543POPC   PO430600  20.608   4.272   9.150
 5543POPC   GL130601  20.622   4.291   8.850
 5543POPC   GL230602  20.777   4.289   8.850
 5543POPC   C1A30603  20.631   4.354   8.550
 5543POPC   D2A30604  20.607   4.307   8.250
 5543POPC   C3A30605  20.612   4.326   7.950
 5543POPC   C4A30606  20.613   4.302   7.650
 5543POPC   C1B30607  20.890   4.270   8.550
 5543POPC   C2B30608  20.888   4.279   8.250
 5543POPC   C3B30609  20.811   4.325   7.950
 5543POPC   C4B30610  20.879   4.259   7.650
 5544POPC   NC330611  41.556   6.643   9.450
 5544POPC   PO430612  41.572   6.595   9.150
 5544POPC   GL130613  41.515   6.642   8.850
 5544POPC   GL230614  41.540   6.766   8.850
 5544POPC   C1A30615  41.591   6.653   8.550
 5544POPC   D2A30616  41.583   6.606   8.250
 5544POPC   C3A30617  41.533   6.612   7.950
 5544POPC   C4A30618  41.597   6.639   7.650
 5544POPC   C1B30619  41.582   6.848   8.550
 5544POPC   C2B30620  41.573   6.926   8.250
 5544POPC   C3B30621  41.537   6.914   7.950
 5544POPC   C4B30622  41.589   6.869   7.650
 5545POPC   NC330623  32.255  26.046   9.450
 5545POPC   PO430624  32.279  25.995   9.150
 5545POPC   GL130625  32.203  26.084   8.850
 5545POPC   GL230626  32.304  25.882   8.850
 5545POPC   C1A30627  32.243  26.026   8.550
 5545POPC   D2A30628  32.247  26.012   8.250
 5545POPC   C3A30629  32.200  26.053   7.950
 5545POPC   C4A30630  32.273  26.085   7.650
 5545POPC   C1B30631  32.284  25.780   8.550
 5545POPC   C2B30632  32.257  25.807   8.250
 5545POPC   C3B30633  32.243  25.757   7.950
 5545POPC   C4B30634  32.238  25.832   7.650
 5546POPC   NC330635  12.888   0.481   9.450
 5546POPC   PO430636  12.871   0.430   9.150
 5546POPC   GL130637  12.856   0.416   8.850
 5546POPC   GL230638  12.710   0.359   8.850
 5546POPC   C1A30639  12.891   0.401   8.550
 5546POPC   D2A30640  12.880   0.433   8.250
 5546POPC   C3A30641  12.891   0.456   7.950
 5546POPC   C4A30642  12.883   0.419   7.650
 5546POPC   C1B30643  12.617   0.325   8.550
 5546POPC   C2B30644  12.607   0.326   8.250
 5546POPC   C3B30645  12.625   0.276   7.950
 5546POPC   C4B30646  12.653   0.306   7.650
 5547POPC   NC330647  14.431  43.868   9.450
 5547POPC   PO430648  14.425  43.840   9.150
 5547POPC   GL130649  14.354  43.875   8.850
 5547POPC   GL230650  14.364  43.813   8.850
 5547POPC   C1A30651  14.372  43.909   8.550
 5547POPC   D2A30652  14.367  43.862   8.250
 5547POPC   C3A30653  14.368  43.887   7.950
 5547POPC   C4A30654  14.417  43.882   7.650
 5547POPC   C1B30655  14.316  43.662   8.550
 5547POPC   C2B30656  14.326  43.658   8.250
 5547POPC   C3B30657  14.384  43.615   7.950
 5547POPC   C4B30658  14.388  43.621   7.650
 5548POPC   NC330659  33.783  37.693   9.450
 5548POPC   PO430660  33.779  37.680   9.150
 5548POPC   GL130661  33.768  37.687   8.850
 5548POPC   GL230662  33.722  37.749   8.850
 5548POPC   C1A30663  33.803  37.643   8.550
 5548POPC   D2A30664  33.777  37.660   8.250
 5548POPC   C3A30665  33.780  37.696   7.950
 5548POPC   C4A30666  33.831  37.710   7.650
 5548POPC   C1B30667  33.554  37.704   8.550
 5548POPC   C2B30668  33.524  37.714   8.250
 5548POPC   C3B30669  33.555  37.720   7.950
 5548POPC   C4B30670  33.525  37.762   7.650
 5549POPC   NC330671   3.580  29.896   9.450
 5549POPC   PO430672   3.502  29.947   9.150
 5549POPC   GL130673   3.522  29.958   8.850
 5549POPC   GL230674   3.517  29.808   8.850
 5549POPC   C1A30675   3.559  29.908   8.550
 5549POPC   D2A30676   3.578  29.955   8.250
 5549POPC   C3A30677   3.514  29.943   7.950
 5549POPC   C4A30678   3.589  29.877   7.650
 5549POPC   C1B30679   3.510  29.698   8.550
 5549POPC   C2B30680   3.505  29.655   8.250
 5549POPC   C3B30681   3.561  29.629   7.950
 5549POPC   C4B30682   3.564  29.636   7.650
 5550POPC   NC330683  41.600  33.764   9.450
 5550POPC   PO430684  41.598  33.783   9.150
 5550POPC   GL130685  41.541  33.848   8.850
 5550POPC   GL230686  41.495  33.731   8.850
 5550POPC   C1A30687  41.580  33.820   8.550
 5550POPC   D2A30688  41.591  33.842   8.250
 5550POPC   C3A30689  41.541  33.786   7.950
 5550POPC   C4A30690  41.557  33.786   7.650
 5550POPC   C1B30691  41.454  33.622   8.550
 5550POPC   C2B30692  41.383  33.628   8.250
 5550POPC   C3B30693  41.429  33.632   7.950
 5550POPC   C4B30694  41.415  33.639   7.650
 5551POPC   NC330695   5.885  34.589   9.450
 5551POPC   PO430696   5.880  34.611   9.150
 5551POPC   GL130697   5.833  34.620   8.850
 5551POPC   GL230698   5.945  34.543   8.850
 5551POPC   C1A30699   5.902  34.585   8.550
 5551POPC   D2A30700   5.845  34.564   8.250
 5551POPC   C3A30701   5.885  34.607   7.950
 5551POPC   C4A30702   5.874  34.538   7.650
 5551POPC   C1B30703   6.098  34.517   8.550
 5551POPC   C2B30704   6.102  34.559   8.250
 5551POPC   C3B30705   6.092  34.581   7.950
 5551POPC   C4B30706   6.132  34.540   7.650
 5552POPC   NC330707  36.883  12.820   9.450
 5552POPC   PO430708  36.865  12.861   9.150
 5552POPC   GL130709  36.872  12.838   8.850
 5552POPC   GL230710  36.830  12.938   8.850
 5552POPC   C1A30711  36.908  12.840   8.550
 5552POPC   D2A30712  36.897  12.849   8.250
 5552POPC   C3A30713  36.896  12.815   7.950
 5552POPC   C4A30714  36.878  12.811   7.650
 5552POPC   C1B30715  36.732  13.073   8.550
 5552POPC   C2B30716  36.781  13.077   8.250
 5552POPC   C3B30717  36.701  13.061   7.950
 5552POPC   C4B30718  36.694  13.047   7.650
 5553POPC   NC330719  14.447  39.223   9.450
 5553POPC   PO430720  14.371  39.248   9.150
 5553POPC   GL130721  14.448  39.269   8.850
 5553POPC   GL230722  14.372  39.308   8.850
 5553POPC   C1A30723  14.383  39.219   8.550
 5553POPC   D2A30724  14.429  39.277   8.250
 5553POPC   C3A30725  14.395  39.271   7.950
 5553POPC   C4A30726  14.365  39.253   7.650
 5553POPC   C1B30727  14.276  39.418   8.550
 5553POPC   C2B30728  14.264  39.439   8.250
 5553POPC   C3B30729  14.233  39.395   7.950
 5553POPC   C4B30730  14.246  39.405   7.650
 5554POPC   NC330731   3.499  11.264   9.450
 5554POPC   PO430732   3.534  11.288   9.150
 5554POPC   GL130733   3.510  11.299   8.850
 5554POPC   GL230734   3.548  11.375   8.850
 5554POPC   C1A30735   3.551  11.268   8.550
 5554POPC   D2A30736   3.555  11.325   8.250
 5554POPC   C3A30737   3.492  11.312   7.950
 5554POPC   C4A30738   3.582  11.344   7.650
 5554POPC   C1B30739   3.620  11.571   8.550
 5554POPC   C2B30740   3.670  11.489   8.250
 5554POPC   C3B30741   3.616  11.527   7.950
 5554POPC   C4B30742   3.634  11.571   7.650
 5555POPC   NC330743  38.423  41.565   9.450
 5555POPC   PO430744  38.456  41.520   9.150
 5555POPC   GL130745  38.429  41.606   8.850
 5555POPC   GL230746  38.508  41.692   8.850
 5555POPC   C1A30747  38.465  41.590   8.550
 5555POPC   D2A30748  38.442  41.536   8.250
 5555POPC   C3A30749  38.412  41.525   7.950
 5555POPC   C4A30750  38.445  41.574   7.650
 5555POPC   C1B30751  38.591  41.738   8.550
 5555POPC   C2B30752  38.659  41.760   8.250
 5555POPC   C3B30753  38.598  41.751   7.950
 5555POPC   C4B30754  38.670  41.767   7.650
 5556POPC   NC330755  26.815  38.496   9.450
 5556POPC   PO430756  26.835  38.450   9.150
 5556POPC   GL130757  26.792  38.455   8.850
 5556POPC   GL230758  26.721  38.359   8.850
 5556POPC   C1A30759  26.838  38.425   8.550
 5556POPC   D2A30760  26.792  38.473   8.250
 5556POPC   C3A30761  26.844  38.427   7.950
 5556POPC   C4A30762  26.788  38.450   7.650
 5556POPC   C1B30763  26.660  38.295   8.550
 5556POPC   C2B30764  26.653  38.321   8.250
 5556POPC   C3B30765  26.595  38.317   7.950
 5556POPC   C4B30766  26.612  38.330   7.650
 5557POPC   NC330767  12.028  43.132   9.450
 5557POPC   PO430768  12.093  43.159   9.150
 5557POPC   GL130769  12.072  43.099   8.850
 5557POPC   GL230770  12.246  43.129   8.850
 5557POPC   C1A30771  12.071  43.061   8.550
 5557POPC   D2A30772  12.109  43.105   8.250
 5557POPC   C3A30773  12.122  43.083   7.950
 5557POPC   C4A30774  12.038  43.099   7.650
 5557POPC   C1B30775  12.285  43.123   8.550
 5557POPC   C2B30776  12.369  43.089   8.250
 5557POPC   C3B30777  12.321  43.093   7.950
 5557POPC   C4B30778  12.298  43.118   7.650
 5558POPC   NC330779  30.694  38.434   9.450
 5558POPC   PO430780  30.722  38.427   9.150
 5558POPC   GL130781  30.711  38.492   8.850
 5558POPC   GL230782  30.774  38.565   8.850
 5558POPC   C1A30783  30.665  38.490   8.550
 5558POPC   D2A30784  30.713  38.450   8.250
 5558POPC   C3A30785  30.690  38.484   7.950
 5558POPC   C4A30786  30.722  38.505   7.650
 5558POPC   C1B30787  30.850  38.630   8.550
 5558POPC   C2B30788  30.898  38.588   8.250
 5558POPC   C3B30789  30.869  38.632   7.950
 5558POPC   C4B30790  30.898  38.574   7.650
 5559POPC   NC330791   2.017  28.335   9.450
 5559POPC   PO430792   2.026  28.334   9.150
 5559POPC   GL130793   2.002  28.407   8.850
 5559POPC   GL230794   2.133  28.365   8.850
 5559POPC   C1A30795   2.014  28.342   8.550
 5559POPC   D2A30796   1.965  28.358   8.250
 5559POPC   C3A30797   1.977  28.409   7.950
 5559POPC   C4A30798   2.028  28.363   7.650
 5559POPC   C1B30799   2.267  28.292   8.550
 5559POPC   C2B30800   2.279  28.311   8.250
 5559POPC   C3B30801   2.250  28.343   7.950
 5559POPC   C4B30802   2.200  28.373   7.650
 5560POPC   NC330803  34.601   8.937   9.450
 5560POPC   PO430804  34.594   8.997   9.150
 5560POPC   GL130805  34.532   8.957   8.850
 5560POPC   GL230806  34.692   9.044   8.850
 5560POPC   C1A30807  34.593   8.975   8.550
 5560POPC   D2A30808  34.588   9.010   8.250
 5560POPC   C3A30809  34.560   8.937   7.950
 5560POPC   C4A30810  34.619   8.928   7.650
 5560POPC   C1B30811  34.796   9.055   8.550
 5560POPC   C2B30812  34.780   9.042   8.250
 5560POPC   C3B30813  34.819   9.090   7.950
 5560POPC   C4B30814  34.842   9.064   7.650
 5561POPC   NC330815  20.587  17.523   9.450
 5561POPC   PO430816  20.626  17.527   9.150
 5561POPC   GL130817  20.599  17.483   8.850
 5561POPC   GL230818  20.668  17.591   8.850
 5561POPC   C1A30819  20.589  17.531   8.550
 5561POPC   D2A30820  20.630  17.475   8.250
 5561POPC   C3A30821  20.563  17.551   7.950
 5561POPC   C4A30822  20.590  17.483   7.650
 5561POPC   C1B30823  20.637  17.797   8.550
 5561POPC   C2B30824  20.676  17.763   8.250
 5561POPC   C3B30825  20.620  17.749   7.950
 5561POPC   C4B30826  20.676  17.764   7.650
 5562POPC   NC330827  35.302  30.703   9.450
 5562POPC   PO430828  35.400  30.718   9.150
 5562POPC   GL130829  35.345  30.702   8.850
 5562POPC   GL230830  35.524  30.732   8.850
 5562POPC   C1A30831  35.334  30.648   8.550
 5562POPC   D2A30832  35.323  30.703   8.250
 5562POPC   C3A30833  35.365  30.690   7.950
 5562POPC   C4A30834  35.366  30.707   7.650
 5562POPC   C1B30835  35.603  30.762   8.550
 5562POPC   C2B30836  35.603  30.766   8.250
 5562POPC   C3B30837  35.645  30.733   7.950
 5562POPC   C4B30838  35.615  30.754   7.650
 5563POPC   NC330839  35.317  12.862   9.450
 5563POPC   PO430840  35.347  12.865   9.150
 5563POPC   GL130841  35.384  12.802   8.850
 5563POPC   GL230842  35.262  12.761   8.850
 5563POPC   C1A30843  35.396  12.901   8.550
 5563POPC   D2A30844  35.359  12.882   8.250
 5563POPC   C3A30845  35.334  12.874   7.950
 5563POPC   C4A30846  35.345  12.816   7.650
 5563POPC   C1B30847  35.266  12.597   8.550
 5563POPC   C2B30848  35.265  12.633   8.250
 5563POPC   C3B30849  35.246  12.647   7.950
 5563POPC   C4B30850  35.225  12.583   7.650
 5564POPC   NC330851  40.000  32.208   9.450
 5564POPC   PO430852  39.998  32.292   9.150
 5564POPC   GL130853  40.030  32.284   8.850
 5564POPC   GL230854  40.046  32.148   8.850
 5564POPC   C1A30855  39.989  32.232   8.550
 5564POPC   D2A30856  40.046  32.216   8.250
 5564POPC   C3A30857  40.052  32.267   7.950
 5564POPC   C4A30858  40.033  32.223   7.650
 5564POPC   C1B30859  40.004  31.980   8.550
 5564POPC   C2B30860  40.031  31.974   8.250
 5564POPC   C3B30861  40.030  32.001   7.950
 5564POPC   C4B30862  39.987  31.980   7.650
 5565POPC   NC330863  41.555   1.213   9.450
 5565POPC   PO430864  41.516   1.262   9.150
 5565POPC   GL130865  41.576   1.252   8.850
 5565POPC   GL230866  41.639   1.093   8.850
 5565POPC   C1A30867  41.522   1.164   8.550
 5565POPC   D2A30868  41.557   1.206   8.250
 5565POPC   C3A30869  41.546   1.180   7.950
 5565POPC   C4A30870  41.525   1.220   7.650
 5565POPC   C1B30871  41.660   0.983   8.550
 5565POPC   C2B30872  41.643   0.962   8.250
 5565POPC   C3B30873  41.709   0.963   7.950
 5565POPC   C4B30874  41.639   0.943   7.650
 5566POPC   NC330875  24.473  26.851   9.450
 5566POPC   PO430876  24.472  26.778   9.150
 5566POPC   GL130877  24.523  26.838   8.850
 5566POPC   GL230878  24.405  26.798   8.850
 5566POPC   C1A30879  24.532  26.793   8.550
 5566POPC   D2A30880  24.458  26.776   8.250
 5566POPC   C3A30881  24.451  26.804   7.950
 5566POPC   C4A30882  24.487  26.822   7.650
 5566POPC   C1B30883  24.295  26.725   8.550
 5566POPC   C2B30884  24.232  26.709   8.250
 5566POPC   C3B30885  24.306  26.733   7.950
 5566POPC   C4B30886  24.307  26.679   7.650
 5567POPC   NC330887  31.458  22.201   9.450
 5567POPC   PO430888  31.506  22.187   9.150
 5567POPC   GL130889  31.425  22.189   8.850
 5567POPC   GL230890  31.467  22.327   8.850
 5567POPC   C1A30891  31.518  22.188   8.550
 5567POPC   D2A30892  31.426  22.159   8.250
 5567POPC   C3A30893  31.515  22.143   7.950
 5567POPC   C4A30894  31.441  22.177   7.650
 5567POPC   C1B30895  31.353  22.385   8.550
 5567POPC   C2B30896  31.344  22.440   8.250
 5567POPC   C3B30897  31.435  22.423   7.950
 5567POPC   C4B30898  31.365  22.367   7.650
 5568POPC   NC330899  12.890  38.468   9.450
 5568POPC   PO430900  12.822  38.455   9.150
 5568POPC   GL130901  12.858  38.492   8.850
 5568POPC   GL230902  12.697  38.512   8.850
 5568POPC   C1A30903  12.891  38.409   8.550
 5568POPC   D2A30904  12.898  38.406   8.250
 5568POPC   C3A30905  12.826  38.453   7.950
 5568POPC   C4A30906  12.864  38.476   7.650
 5568POPC   C1B30907  12.585  38.493   8.550
 5568POPC   C2B30908  12.577  38.527   8.250
 5568POPC   C3B30909  12.618  38.441   7.950
 5568POPC   C4B30910  12.635  38.526   7.650
 5569POPC   NC330911  23.709  40.805   9.450
 5569POPC   PO430912  23.715  40.813   9.150
 5569POPC   GL130913  23.671  40.739   8.850
 5569POPC   GL230914  23.630  40.718   8.850
 5569POPC   C1A30915  23.727  40.793   8.550
 5569POPC   D2A30916  23.748  40.819   8.250
 5569POPC   C3A30917  23.724  40.792   7.950
 5569POPC   C4A30918  23.679  40.757   7.650
 5569POPC   C1B30919  23.492  40.700   8.550
 5569POPC   C2B30920  23.472  40.678   8.250
 5569POPC   C3B30921  23.491  40.723   7.950
 5569POPC   C4B30922  23.479  40.737   7.650
 5570POPC   NC330923  16.003  21.419   9.450
 5570POPC   PO430924  15.963  21.379   9.150
 5570POPC   GL130925  15.972  21.367   8.850
 5570POPC   GL230926  16.009  21.504   8.850
 5570POPC   C1A30927  15.942  21.358   8.550
 5570POPC   D2A30928  15.969  21.370   8.250
 5570POPC   C3A30929  15.969  21.421   7.950
 5570POPC   C4A30930  15.915  21.427   7.650
 5570POPC   C1B30931  16.129  21.640   8.550
 5570POPC   C2B30932  16.097  21.622   8.250
 5570POPC   C3B30933  16.107  21.636   7.950
 5570POPC   C4B30934  16.113  21.607   7.650
 5571POPC   NC330935  14.368  22.127   9.450
 5571POPC   PO430936  14.376  22.191   9.150
 5571POPC   GL130937  14.440  22.153   8.850
 5571POPC   GL230938  14.294  22.261   8.850
 5571POPC   C1A30939  14.429  22.132   8.550
 5571POPC   D2A30940  14.390  22.159   8.250
 5571POPC   C3A30941  14.358  22.161   7.950
 5571POPC   C4A30942  14.431  22.201   7.650
 5571POPC   C1B30943  14.261  22.345   8.550
 5571POPC   C2B30944  14.224  22.395   8.250
 5571POPC   C3B30945  14.217  22.370   7.950
 5571POPC   C4B30946  14.244  22.321   7.650
 5572POPC   NC330947   3.569  22.986   9.450
 5572POPC   PO430948   3.551  22.902   9.150
 5572POPC   GL130949   3.546  22.968   8.850
 5572POPC   GL230950   3.518  22.793   8.850
 5572POPC   C1A30951   3.569  22.898   8.550
 5572POPC   D2A30952   3.528  22.897   8.250
 5572POPC   C3A30953   3.496  22.905   7.950
 5572POPC   C4A30954   3.498  22.980   7.650
 5572POPC   C1B30955   3.364  22.771   8.550
 5572POPC   C2B30956   3.411  22.698   8.250
 5572POPC   C3B30957   3.406  22.727   7.950
 5572POPC   C4B30958   3.388  22.723   7.650
 5573POPC   NC330959  16.687   5.859   9.450
 5573POPC   PO430960  16.734   5.901   9.150
 5573POPC   GL130961  16.765   5.863   8.850
 5573POPC   GL230962  16.633   5.917   8.850
 5573POPC   C1A30963  16.689   5.889   8.550
 5573POPC   D2A30964  16.717   5.845   8.250
 5573POPC   C3A30965  16.745   5.857   7.950
 5573POPC   C4A30966  16.742   5.876   7.650
 5573POPC   C1B30967  16.531   5.958   8.550
 5573POPC   C2B30968  16.499   6.009   8.250
 5573POPC   C3B30969  16.511   6.041   7.950
 5573POPC   C4B30970  16.527   6.037   7.650
 5574POPC   NC330971  30.653  12.873   9.450
 5574POPC   PO430972  30.693  12.865   9.150
 5574POPC   GL130973  30.679  12.850   8.850
 5574POPC   GL230974  30.580  12.895   8.850
 5574POPC   C1A30975  30.707  12.891   8.550
 5574POPC   D2A30976  30.744  12.811   8.250
 5574POPC   C3A30977  30.697  12.841   7.950
 5574POPC   C4A30978  30.659  12.815   7.650
 5574POPC   C1B30979  30.426  12.929   8.550
 5574POPC   C2B30980  30.480  12.901   8.250
 5574POPC   C3B30981  30.440  12.932   7.950
 5574POPC   C4B30982  30.435  12.943   7.650
 5575POPC   NC330983  12.819  33.829   9.450
 5575POPC   PO430984  12.855  33.829   9.150
 5575POPC   GL130985  12.820  33.785   8.850
 5575POPC   GL230986  12.719  33.889   8.850
 5575POPC   C1A30987  12.846  33.796   8.550
 5575POPC   D2A30988  12.875  33.825   8.250
 5575POPC   C3A30989  12.864  33.790   7.950
 5575POPC   C4A30990  12.862  33.810   7.650
 5575POPC   C1B30991  12.655  33.926   8.550
 5575POPC   C2B30992  12.702  33.921   8.250
 5575POPC   C3B30993  12.688  33.971   7.950
 5575POPC   C4B30994  12.664  33.925   7.650
 5576POPC   NC330995   6.673  34.542   9.450
 5576POPC   PO430996   6.638  34.557   9.150
 5576POPC   GL130997   6.655  34.586   8.850
 5576POPC   GL230998   6.813  34.579   8.850
 5576POPC   C1A30999   6.691  34.565   8.550
 5576POPC   D2A31000   6.645  34.597   8.250
 5576POPC   C3A31001   6.643  34.570   7.950
 5576POPC   C4A31002   6.655  34.570   7.650
 5576POPC   C1B31003   6.888  34.618   8.550
 5576POPC   C2B31004   6.848  34.695   8.250
 5576POPC   C3B31005   6.930  34.689   7.950
 5576POPC   C4B31006   6.896  34.660   7.650
 5577POPC   NC331007  31.482  29.171   9.450
 5577POPC   PO431008  31.509  29.114   9.150
 5577POPC   GL131009  31.430  29.189   8.850
 5577POPC   GL231010  31.539  29.037   8.850
 5577POPC   C1A31011  31.504  29.183   8.550
 5577POPC   D2A31012  31.455  29.190   8.250
 5577POPC   C3A31013  31.522  29.164   7.950
 5577POPC   C4A31014  31.436  29.139   7.650
 5577POPC   C1B31015  31.647  29.026   8.550
 5577POPC   C2B31016  31.660  28.933   8.250
 5577POPC   C3B31017  31.651  28.937   7.950
 5577POPC   C4B31018  31.674  29.007   7.650
 5578POPC   NC331019  40.766  11.281   9.450
 5578POPC   PO431020  40.825  11.251   9.150
 5578POPC   GL131021  40.816  11.272   8.850
 5578POPC   GL231022  40.803  11.440   8.850
 5578POPC   C1A31023  40.768  11.344   8.550
 5578POPC   D2A31024  40.820  11.313   8.250
 5578POPC   C3A31025  40.747  11.340   7.950
 5578POPC   C4A31026  40.822  11.275   7.650
 5578POPC   C1B31027  40.881  11.553   8.550
 5578POPC   C2B31028  40.802  11.535   8.250
 5578POPC   C3B31029  40.853  11.559   7.950
 5578POPC   C4B31030  40.821  11.589   7.650
 5579POPC   NC331031  15.229  16.696   9.450
 5579POPC   PO431032  15.226  16.704   9.150
 5579POPC   GL131033  15.214  16.759   8.850
 5579POPC   GL231034  15.228  16.879   8.850
 5579POPC   C1A31035  15.166  16.775   8.550
 5579POPC   D2A31036  15.200  16.742   8.250
 5579POPC   C3A31037  15.171  16.700   7.950
 5579POPC   C4A31038  15.144  16.721   7.650
 5579POPC   C1B31039  15.253  16.974   8.550
 5579POPC   C2B31040  15.197  16.940   8.250
 5579POPC   C3B31041  15.226  16.976   7.950
 5579POPC   C4B31042  15.220  16.998   7.650
 5580POPC   NC331043  11.343  35.370   9.450
 5580POPC   PO431044  11.331  35.383   9.150
 5580POPC   GL131045  11.321  35.382   8.850
 5580POPC   GL231046  11.382  35.241   8.850
 5580POPC   C1A31047  11.264  35.351   8.550
 5580POPC   D2A31048  11.330  35.326   8.250
 5580POPC   C3A31049  11.258  35.360   7.950
 5580POPC   C4A31050  11.320  35.344   7.650
 5580POPC   C1B31051  11.398  35.151   8.550
 5580POPC   C2B31052  11.430  35.123   8.250
 5580POPC   C3B31053  11.349  35.118   7.950
 5580POPC   C4B31054  11.336  35.106   7.650
 5581POPC   NC331055  37.644  29.186   9.450
 5581POPC   PO431056  37.722  29.146   9.150
 5581POPC   GL131057  37.635  29.139   8.850
 5581POPC   GL231058  37.593  29.228   8.850
 5581POPC   C1A31059  37.634  29.178   8.550
 5581POPC   D2A31060  37.650  29.175   8.250
 5581POPC   C3A31061  37.682  29.110   7.950
 5581POPC   C4A31062  37.639  29.148   7.650
 5581POPC   C1B31063  37.581  29.388   8.550
 5581POPC   C2B31064  37.623  29.379   8.250
 5581POPC   C3B31065  37.590  29.367   7.950
 5581POPC   C4B31066  37.556  29.408   7.650
 5582POPC   NC331067  14.406  26.787   9.450
 5582POPC   PO431068  14.404  26.844   9.150
 5582POPC   GL131069  14.412  26.769   8.850
 5582POPC   GL231070  14.411  26.932   8.850
 5582POPC   C1A31071  14.425  26.853   8.550
 5582POPC   D2A31072  14.367  26.781   8.250
 5582POPC   C3A31073  14.358  26.786   7.950
 5582POPC   C4A31074  14.447  26.787   7.650
 5582POPC   C1B31075  14.529  27.025   8.550
 5582POPC   C2B31076  14.460  27.002   8.250
 5582POPC   C3B31077  14.464  27.054   7.950
 5582POPC   C4B31078  14.469  27.061   7.650
 5583POPC   NC331079  40.035  20.620   9.450
 5583POPC   PO431080  39.968  20.617   9.150
 5583POPC   GL131081  39.999  20.618   8.850
 5583POPC   GL231082  39.931  20.663   8.850
 5583POPC   C1A31083  39.969  20.641   8.550
 5583POPC   D2A31084  39.973  20.633   8.250
 5583POPC   C3A31085  39.989  20.639   7.950
 5583POPC   C4A31086  40.046  20.648   7.650
 5583POPC   C1B31087  39.823  20.685   8.550
 5583POPC   C2B31088  39.794  20.705   8.250
 5583POPC   C3B31089  39.798  20.762   7.950
 5583POPC   C4B31090  39.763  20.724   7.650
 5584POPC   NC331091  23.721  43.872   9.450
 5584POPC   PO431092  23.668  43.864   9.150
 5584POPC   GL131093  23.726  43.932   8.850
 5584POPC   GL231094  23.882  43.916   8.850
 5584POPC   C1A31095  23.709  43.872   8.550
 5584POPC   D2A31096  23.727  43.877   8.250
 5584POPC   C3A31097  23.706  43.925   7.950
 5584POPC   C4A31098  23.708  43.867   7.650
 5584POPC   C1B31099  23.983  43.889   8.550
 5584POPC   C2B31100  23.995  43.951   8.250
 5584POPC   C3B31101  23.950  43.934   7.950
 5584POPC   C4B31102  23.914  43.898   7.650
 5585POPC   NC331103  26.013  13.633   9.450
 5585POPC   PO431104  25.992  13.594   9.150
 5585POPC   GL131105  26.034  13.633   8.850
 5585POPC   GL231106  26.180  13.632   8.850
 5585POPC   C1A31107  26.021  13.586   8.550
 5585POPC   D2A31108  26.055  13.623   8.250
 5585POPC   C3A31109  26.024  13.603   7.950
 5585POPC   C4A31110  26.054  13.632   7.650
 5585POPC   C1B31111  26.248  13.616   8.550
 5585POPC   C2B31112  26.244  13.625   8.250
 5585POPC   C3B31113  26.305  13.642   7.950
 5585POPC   C4B31114  26.333  13.601   7.650
 5586POPC   NC331115  19.840  12.087   9.450
 5586POPC   PO431116  19.834  12.052   9.150
 5586POPC   GL131117  19.797  12.090   8.850
 5586POPC   GL231118  19.980  12.102   8.850
 5586POPC   C1A31119  19.820  12.116   8.550
 5586POPC   D2A31120  19.845  12.060   8.250
 5586POPC   C3A31121  19.875  12.074   7.950
 5586POPC   C4A31122  19.834  12.030   7.650
 5586POPC   C1B31123  20.024  12.130   8.550
 5586POPC   C2B31124  20.071  12.196   8.250
 5586POPC   C3B31125  20.081  12.213   7.950
 5586POPC   C4B31126  20.102  12.184   7.650
 5587POPC   NC331127  41.588  41.580   9.450
 5587POPC   PO431128  41.549  41.531   9.150
 5587POPC   GL131129  41.570  41.550   8.850
 5587POPC   GL231130  41.647  41.496   8.850
 5587POPC   C1A31131  41.574  41.546   8.550
 5587POPC   D2A31132  41.608  41.534   8.250
 5587POPC   C3A31133  41.586  41.511   7.950
 5587POPC   C4A31134  41.527  41.545   7.650
 5587POPC   C1B31135  41.736  41.380   8.550
 5587POPC   C2B31136  41.741  41.321   8.250
 5587POPC   C3B31137  41.681  41.365   7.950
 5587POPC   C4B31138  41.652  41.322   7.650
 5588POPC   NC331139  23.740  24.518   9.450
 5588POPC   PO431140  23.751  24.492   9.150
 5588POPC   GL131141  23.693  24.534   8.850
 5588POPC   GL231142  23.632  24.497   8.850
 5588POPC   C1A31143  23.667  24.528   8.550
 5588POPC   D2A31144  23.706  24.498   8.250
 5588POPC   C3A31145  23.721  24.460   7.950
 5588POPC   C4A31146  23.666  24.537   7.650
 5588POPC   C1B31147  23.449  24.455   8.550
 5588POPC   C2B31148  23.422  24.436   8.250
 5588POPC   C3B31149  23.432  24.523   7.950
 5588POPC   C4B31150  23.491  24.478   7.650
 5589POPC   NC331151  29.180  19.085   9.450
 5589POPC   PO431152  29.170  19.094   9.150
 5589POPC   GL131153  29.181  19.079   8.850
 5589POPC   GL231154  29.269  19.012   8.850
 5589POPC   C1A31155  29.172  19.106   8.550
 5589POPC   D2A31156  29.147  19.088   8.250
 5589POPC   C3A31157  29.172  19.103   7.950
 5589POPC   C4A31158  29.187  19.096   7.650
 5589POPC   C1B31159  29.324  18.979   8.550
 5589POPC   C2B31160  29.408  18.954   8.250
 5589POPC   C3B31161  29.319  18.891   7.950
 5589POPC   C4B31162  29.411  18.932   7.650
 5590POPC   NC331163  22.188  16.731   9.450
 5590POPC   PO431164  22.199  16.710   9.150
 5590POPC   GL131165  22.119  16.693   8.850
 5590POPC   GL231166  22.215  16.607   8.850
 5590POPC   C1A31167  22.137  16.761   8.550
 5590POPC   D2A31168  22.131  16.751   8.250
 5590POPC   C3A31169  22.127  16.760   7.950
 5590POPC   C4A31170  22.147  16.720   7.650
 5590POPC   C1B31171  22.215  16.514   8.550
 5590POPC   C2B31172  22.249  16.541   8.250
 5590POPC   C3B31173  22.229  16.521   7.950
 5590POPC   C4B31174  22.296  16.533   7.650
 5591POPC   NC331175  21.338  19.101   9.450
 5591POPC   PO431176  21.431  19.088   9.150
 5591POPC   GL131177  21.386  19.070   8.850
 5591POPC   GL231178  21.403  19.208   8.850
 5591POPC   C1A31179  21.418  19.092   8.550
 5591POPC   D2A31180  21.396  19.097   8.250
 5591POPC   C3A31181  21.410  19.060   7.950
 5591POPC   C4A31182  21.340  19.066   7.650
 5591POPC   C1B31183  21.440  19.331   8.550
 5591POPC   C2B31184  21.484  19.288   8.250
 5591POPC   C3B31185  21.426  19.306   7.950
 5591POPC   C4B31186  21.488  19.344   7.650
 5592POPC   NC331187  43.096  25.243   9.450
 5592POPC   PO431188  43.144  25.242   9.150
 5592POPC   GL131189  43.097  25.280   8.850
 5592POPC   GL231190  43.136  25.173   8.850
 5592POPC   C1A31191  43.114  25.247   8.550
 5592POPC   D2A31192  43.082  25.310   8.250
 5592POPC   C3A31193  43.123  25.268   7.950
 5592POPC   C4A31194  43.107  25.276   7.650
 5592POPC   C1B31195  43.202  25.033   8.550
 5592POPC   C2B31196  43.297  25.093   8.250
 5592POPC   C3B31197  43.227  25.103   7.950
 5592POPC   C4B31198  43.222  25.090   7.650
 5593POPC   NC331199  29.954  19.067   9.450
 5593POPC   PO431200  29.932  19.105   9.150
 5593POPC   GL131201  29.913  19.069   8.850
 5593POPC   GL231202  30.090  19.056   8.850
 5593POPC   C1A31203  29.902  19.080   8.550
 5593POPC   D2A31204  29.968  19.072   8.250
 5593POPC   C3A31205  29.925  19.108   7.950
 5593POPC   C4A31206  29.962  19.022   7.650
 5593POPC   C1B31207  30.163  19.100   8.550
 5593POPC   C2B31208  30.123  19.073   8.250
 5593POPC   C3B31209  30.131  19.051   7.950
 5593POPC   C4B31210  30.154  19.126   7.650
 5594POPC   NC331211  34.571  19.096   9.450
 5594POPC   PO431212  34.613  19.037   9.150
 5594POPC   GL131213  34.601  19.087   8.850
 5594POPC   GL231214  34.570  18.914   8.850
 5594POPC   C1A31215  34.592  19.050   8.550
 5594POPC   D2A31216  34.606  19.068   8.250
 5594POPC   C3A31217  34.554  19.075   7.950
 5594POPC   C4A31218  34.530  19.103   7.650
 5594POPC   C1B31219  34.652  18.850   8.550
 5594POPC   C2B31220  34.634  18.816   8.250
 5594POPC   C3B31221  34.615  18.838   7.950
 5594POPC   C4B31222  34.620  18.782   7.650
 5595POPC   NC331223  33.785  33.041   9.450
 5595POPC   PO431224  33.763  32.984   9.150
 5595POPC   GL131225  33.763  33.056   8.850
 5595POPC   GL231226  33.641  33.056   8.850
 5595POPC   C1A31227  33.838  33.040   8.550
 5595POPC   D2A31228  33.806  33.003   8.250
 5595POPC   C3A31229  33.820  33.017   7.950
 5595POPC   C4A31230  33.817  33.027   7.650
 5595POPC   C1B31231  33.560  33.012   8.550
 5595POPC   C2B31232  33.565  33.072   8.250
 5595POPC   C3B31233  33.599  33.024   7.950
 5595POPC   C4B31234  33.564  33.031   7.650
 5596POPC   NC331235  36.153  14.381   9.450
 5596POPC   PO431236  36.164  14.450   9.150
 5596POPC   GL131237  36.141  14.389   8.850
 5596POPC   GL231238  36.284  14.401   8.850
 5596POPC   C1A31239  36.148  14.428   8.550
 5596POPC   D2A31240  36.123  14.363   8.250
 5596POPC   C3A31241  36.079  14.392   7.950
 5596POPC   C4A31242  36.081  14.404   7.650
 5596POPC   C1B31243  36.388  14.454   8.550
 5596POPC   C2B31244  36.419  14.476   8.250
 5596POPC   C3B31245  36.321  14.467   7.950
 5596POPC   C4B31246  36.396  14.465   7.650
 5597POPC   NC331247  35.392   1.263   9.450
 5597POPC   PO431248  35.313   1.208   9.150
 5597POPC   GL131249  35.349   1.187   8.850
 5597POPC   GL231250  35.441   1.335   8.850
 5597POPC   C1A31251  35.323   1.251   8.550
 5597POPC   D2A31252  35.392   1.179   8.250
 5597POPC   C3A31253  35.337   1.176   7.950
 5597POPC   C4A31254  35.335   1.213   7.650
 5597POPC   C1B31255  35.447   1.458   8.550
 5597POPC   C2B31256  35.486   1.398   8.250
 5597POPC   C3B31257  35.484   1.426   7.950
 5597POPC   C4B31258  35.479   1.433   7.650
 5598POPC   NC331259  22.179  43.082   9.450
 5598POPC   PO431260  22.154  43.087   9.150
 5598POPC   GL131261  22.193  43.107   8.850
 5598POPC   GL231262  22.037  43.149   8.850
 5598POPC   C1A31263  22.162  43.148   8.550
 5598POPC   D2A31264  22.160  43.100   8.250
 5598POPC   C3A31265  22.177  43.151   7.950
 5598POPC   C4A31266  22.121  43.138   7.650
 5598POPC   C1B31267  21.898  43.156   8.550
 5598POPC   C2B31268  21.933  43.213   8.250
 5598POPC   C3B31269  21.897  43.184   7.950
 5598POPC   C4B31270  21.930  43.151   7.650
 5599POPC   NC331271   5.833  10.530   9.450
 5599POPC   PO431272   5.884  10.551   9.150
 5599POPC   GL131273   5.902  10.514   8.850
 5599POPC   GL231274   5.982  10.603   8.850
 5599POPC   C1A31275   5.918  10.566   8.550
 5599POPC   D2A31276   5.822  10.489   8.250
 5599POPC   C3A31277   5.908  10.527   7.950
 5599POPC   C4A31278   5.853  10.555   7.650
 5599POPC   C1B31279   6.107  10.689   8.550
 5599POPC   C2B31280   6.123  10.595   8.250
 5599POPC   C3B31281   6.073  10.616   7.950
 5599POPC   C4B31282   6.057  10.635   7.650
 5600POPC   NC331283  29.138   9.786   9.450
 5600POPC   PO431284  29.114   9.707   9.150
 5600POPC   GL131285  29.195   9.718   8.850
 5600POPC   GL231286  29.276   9.701   8.850
 5600POPC   C1A31287  29.167   9.756   8.550
 5600POPC   D2A31288  29.122   9.698   8.250
 5600POPC   C3A31289  29.100   9.773   7.950
 5600POPC   C4A31290  29.176   9.794   7.650
 5600POPC   C1B31291  29.404   9.621   8.550
 5600POPC   C2B31292  29.354   9.673   8.250
 5600POPC   C3B31293  29.364   9.642   7.950
 5600POPC   C4B31294  29.338   9.666   7.650
 5601POPC   NC331295  22.988  21.356   9.450
 5601POPC   PO431296  22.971  21.371   9.150
 5601POPC   GL131297  22.917  21.392   8.850
 5601POPC   GL231298  23.000  21.338   8.850
 5601POPC   C1A31299  22.927  21.362   8.550
 5601POPC   D2A31300  22.913  21.354   8.250
 5601POPC   C3A31301  22.955  21.394   7.950
 5601POPC   C4A31302  22.965  21.430   7.650
 5601POPC   C1B31303  23.097  21.206   8.550
 5601POPC   C2B31304  23.132  21.252   8.250
 5601POPC   C3B31305  23.133  21.221   7.950
 5601POPC   C4B31306  23.105  21.183   7.650
 5602POPC   NC331307  10.563  37.698   9.450
 5602POPC   PO431308  10.522  37.705   9.150
 5602POPC   GL131309  10.510  37.727   8.850
 5602POPC   GL231310  10.638  37.547   8.850
 5602POPC   C1A31311  10.550  37.656   8.550
 5602POPC   D2A31312  10.545  37.630   8.250
 5602POPC   C3A31313  10.538  37.716   7.950
 5602POPC   C4A31314  10.490  37.699   7.650
 5602POPC   C1B31315  10.711  37.515   8.550
 5602POPC   C2B31316  10.673  37.464   8.250
 5602POPC   C3B31317  10.704  37.472   7.950
 5602POPC   C4B31318  10.696  37.473   7.650
 5603POPC   NC331319  24.503  44.687   9.450
 5603POPC   PO431320  24.464  44.633   9.150
 5603POPC   GL131321  24.507  44.708   8.850
 5603POPC   GL231322  24.330  44.719   8.850
 5603POPC   C1A31323  24.479  44.672   8.550
 5603POPC   D2A31324  24.449  44.629   8.250
 5603POPC   C3A31325  24.526  44.612   7.950
 5603POPC   C4A31326  24.476  44.648   7.650
 5603POPC   C1B31327  24.301  44.811   8.550
 5603POPC   C2B31328  24.223  44.787   8.250
 5603POPC   C3B31329  24.271  44.763   7.950
 5603POPC   C4B31330  24.248  44.724   7.650
 5604POPC   NC331331  22.928   6.605   9.450
 5604POPC   PO431332  22.948   6.684   9.150
 5604POPC   GL131333  22.976   6.621   8.850
 5604POPC   GL231334  23.091   6.553   8.850
 5604POPC   C1A31335  22.987   6.606   8.550
 5604POPC   D2A31336  22.902   6.641   8.250
 5604POPC   C3A31337  22.903   6.672   7.950
 5604POPC   C4A31338  22.927   6.623   7.650
 5604POPC   C1B31339  23.132   6.514   8.550
 5604POPC   C2B31340  23.195   6.557   8.250
 5604POPC   C3B31341  23.163   6.580   7.950
 5604POPC   C4B31342  23.164   6.600   7.650
 5605POPC   NC331343  35.371  25.250   9.450
 5605POPC   PO431344  35.394  25.231   9.150
 5605POPC   GL131345  35.377  25.294   8.850
 5605POPC   GL231346  35.351  25.393   8.850
 5605POPC   C1A31347  35.395  25.216   8.550
 5605POPC   D2A31348  35.397  25.295   8.250
 5605POPC   C3A31349  35.360  25.268   7.950
 5605POPC   C4A31350  35.304  25.315   7.650
 5605POPC   C1B31351  35.374  25.503   8.550
 5605POPC   C2B31352  35.401  25.552   8.250
 5605POPC   C3B31353  35.340  25.491   7.950
 5605POPC   C4B31354  35.352  25.524   7.650
 5606POPC   NC331355  31.477  43.905   9.450
 5606POPC   PO431356  31.519  43.901   9.150
 5606POPC   GL131357  31.476  43.892   8.850
 5606POPC   GL231358  31.553  43.756   8.850
 5606POPC   C1A31359  31.444  43.899   8.550
 5606POPC   D2A31360  31.436  43.893   8.250
 5606POPC   C3A31361  31.506  43.880   7.950
 5606POPC   C4A31362  31.466  43.917   7.650
 5606POPC   C1B31363  31.499  43.600   8.550
 5606POPC   C2B31364  31.507  43.693   8.250
 5606POPC   C3B31365  31.580  43.652   7.950
 5606POPC   C4B31366  31.594  43.644   7.650
 5607POPC   NC331367  27.616   6.685   9.450
 5607POPC   PO431368  27.565   6.626   9.150
 5607POPC   GL131369  27.585   6.632   8.850
 5607POPC   GL231370  27.719   6.585   8.850
 5607POPC   C1A31371  27.578   6.624   8.550
 5607POPC   D2A31372  27.568   6.615   8.250
 5607POPC   C3A31373  27.591   6.670   7.950
 5607POPC   C4A31374  27.545   6.659   7.650
 5607POPC   C1B31375  27.775   6.556   8.550
 5607POPC   C2B31376  27.839   6.533   8.250
 5607POPC   C3B31377  27.776   6.566   7.950
 5607POPC   C4B31378  27.793   6.526   7.650
 5608POPC   NC331379  29.098  33.823   9.450
 5608POPC   PO431380  29.110  33.795   9.150
 5608POPC   GL131381  29.192  33.827   8.850
 5608POPC   GL231382  29.264  33.890   8.850
 5608POPC   C1A31383  29.137  33.821   8.550
 5608POPC   D2A31384  29.174  33.775   8.250
 5608POPC   C3A31385  29.152  33.796   7.950
 5608POPC   C4A31386  29.168  33.848   7.650
 5608POPC   C1B31387  29.358  33.943   8.550
 5608POPC   C2B31388  29.362  33.939   8.250
 5608POPC   C3B31389  29.366  33.880   7.950
 5608POPC   C4B31390  29.359  33.941   7.650
 5609POPC   NC331391  28.397  12.029   9.450
 5609POPC   PO431392  28.388  12.053   9.150
 5609POPC   GL131393  28.392  12.108   8.850
 5609POPC   GL231394  28.349  12.165   8.850
 5609POPC   C1A31395  28.375  12.074   8.550
 5609POPC   D2A31396  28.417  12.033   8.250
 5609POPC   C3A31397  28.399  12.091   7.950
 5609POPC   C4A31398  28.388  12.115   7.650
 5609POPC   C1B31399  28.253  12.295   8.550
 5609POPC   C2B31400  28.188  12.329   8.250
 5609POPC   C3B31401  28.208  12.306   7.950
 5609POPC   C4B31402  28.238  12.294   7.650
 5610POPC   NC331403  32.272  17.508   9.450
 5610POPC   PO431404  32.272  17.481   9.150
 5610POPC   GL131405  32.238  17.494   8.850
 5610POPC   GL231406  32.112  17.611   8.850
 5610POPC   C1A31407  32.244  17.534   8.550
 5610POPC   D2A31408  32.253  17.460   8.250
 5610POPC   C3A31409  32.290  17.465   7.950
 5610POPC   C4A31410  32.264  17.503   7.650
 5610POPC   C1B31411  32.001  17.642   8.550
 5610POPC   C2B31412  32.041  17.705   8.250
 5610POPC   C3B31413  32.029  17.620   7.950
 5610POPC   C4B31414  32.048  17.666   7.650
 5611POPC   NC331415   2.735  15.171   9.450
 5611POPC   PO431416   2.780  15.165   9.150
 5611POPC   GL131417   2.772  15.181   8.850
 5611POPC   GL231418   2.921  15.175   8.850
 5611POPC   C1A31419   2.735  15.207   8.550
 5611POPC   D2A31420   2.733  15.221   8.250
 5611POPC   C3A31421   2.770  15.169   7.950
 5611POPC   C4A31422   2.764  15.161   7.650
 5611POPC   C1B31423   2.992  15.136   8.550
 5611POPC   C2B31424   2.987  15.126   8.250
 5611POPC   C3B31425   2.991  15.165   7.950
 5611POPC   C4B31426   2.984  15.135   7.650
 5612POPC   NC331427  41.561  43.090   9.450
 5612POPC   PO431428  41.521  43.150   9.150
 5612POPC   GL131429  41.588  43.118   8.850
 5612POPC   GL231430  41.652  43.060   8.850
 5612POPC   C1A31431  41.510  43.144   8.550
 5612POPC   D2A31432  41.600  43.159   8.250
 5612POPC   C3A31433  41.564  43.092   7.950
 5612POPC   C4A31434  41.587  43.067   7.650
 5612POPC   C1B31435  41.782  43.044   8.550
 5612POPC   C2B31436  41.767  43.086   8.250
 5612POPC   C3B31437  41.799  43.083   7.950
 5612POPC   C4B31438  41.799  43.116   7.650
 5613POPC   NC331439   1.232  18.328   9.450
 5613POPC   PO431440   1.171  18.297   9.150
 5613POPC   GL131441   1.189  18.283   8.850
 5613POPC   GL231442   1.250  18.370   8.850
 5613POPC   C1A31443   1.257  18.243   8.550
 5613POPC   D2A31444   1.245  18.304   8.250
 5613POPC   C3A31445   1.255  18.242   7.950
 5613POPC   C4A31446   1.168  18.269   7.650
 5613POPC   C1B31447   1.315  18.522   8.550
 5613POPC   C2B31448   1.389  18.440   8.250
 5613POPC   C3B31449   1.387  18.486   7.950
 5613POPC   C4B31450   1.381  18.454   7.650
 5614POPC   NC331451  39.268  12.092   9.450
 5614POPC   PO431452  39.279  12.061   9.150
 5614POPC   GL131453  39.191  12.093   8.850
 5614POPC   GL231454  39.212  12.217   8.850
 5614POPC   C1A31455  39.224  12.047   8.550
 5614POPC   D2A31456  39.204  12.066   8.250
 5614POPC   C3A31457  39.212  12.081   7.950
 5614POPC   C4A31458  39.207  12.043   7.650
 5614POPC   C1B31459  39.238  12.302   8.550
 5614POPC   C2B31460  39.190  12.334   8.250
 5614POPC   C3B31461  39.238  12.349   7.950
 5614POPC   C4B31462  39.192  12.286   7.650
 5615POPC   NC331463  12.825  27.564   9.450
 5615POPC   PO431464  12.881  27.572   9.150
 5615POPC   GL131465  12.887  27.595   8.850
 5615POPC   GL231466  12.962  27.710   8.850
 5615POPC   C1A31467  12.821  27.621   8.550
 5615POPC   D2A31468  12.871  27.590   8.250
 5615POPC   C3A31469  12.856  27.576   7.950
 5615POPC   C4A31470  12.874  27.604   7.650
 5615POPC   C1B31471  13.050  27.776   8.550
 5615POPC   C2B31472  13.024  27.764   8.250
 5615POPC   C3B31473  13.037  27.722   7.950
 5615POPC   C4B31474  13.000  27.721   7.650
 5616POPC   NC331475  19.828  16.720   9.450
 5616POPC   PO431476  19.884  16.686   9.150
 5616POPC   GL131477  19.801  16.780   8.850
 5616POPC   GL231478  19.666  16.743   8.850
 5616POPC   C1A31479  19.800  16.739   8.550
 5616POPC   D2A31480  19.828  16.686   8.250
 5616POPC   C3A31481  19.820  16.723   7.950
 5616POPC   C4A31482  19.796  16.774   7.650
 5616POPC   C1B31483  19.608  16.643   8.550
 5616POPC   C2B31484  19.638  16.645   8.250
 5616POPC   C3B31485  19.570  16.662   7.950
 5616POPC   C4B31486  19.579  16.637   7.650
 5617POPC   NC331487  25.995   0.467   9.450
 5617POPC   PO431488  26.057   0.422   9.150
 5617POPC   GL131489  26.028   0.464   8.850
 5617POPC   GL231490  26.114   0.379   8.850
 5617POPC   C1A31491  26.005   0.451   8.550
 5617POPC   D2A31492  25.996   0.445   8.250
 5617POPC   C3A31493  26.046   0.410   7.950
 5617POPC   C4A31494  26.070   0.455   7.650
 5617POPC   C1B31495  26.219   0.314   8.550
 5617POPC   C2B31496  26.249   0.345   8.250
 5617POPC   C3B31497  26.212   0.332   7.950
 5617POPC   C4B31498  26.281   0.269   7.650
 5618POPC   NC331499   5.907  15.912   9.450
 5618POPC   PO431500   5.862  15.925   9.150
 5618POPC   GL131501   5.887  16.004   8.850
 5618POPC   GL231502   5.892  15.874   8.850
 5618POPC   C1A31503   5.842  15.960   8.550
 5618POPC   D2A31504   5.909  15.951   8.250
 5618POPC   C3A31505   5.909  15.921   7.950
 5618POPC   C4A31506   5.917  15.936   7.650
 5618POPC   C1B31507   5.912  15.755   8.550
 5618POPC   C2B31508   5.907  15.678   8.250
 5618POPC   C3B31509   5.971  15.686   7.950
 5618POPC   C4B31510   5.953  15.747   7.650
 5619POPC   NC331511  32.256   1.955   9.450
 5619POPC   PO431512  32.201   1.990   9.150
 5619POPC   GL131513  32.232   1.981   8.850
 5619POPC   GL231514  32.172   1.953   8.850
 5619POPC   C1A31515  32.279   1.955   8.550
 5619POPC   D2A31516  32.249   1.991   8.250
 5619POPC   C3A31517  32.217   2.024   7.950
 5619POPC   C4A31518  32.279   1.985   7.650
 5619POPC   C1B31519  32.001   1.893   8.550
 5619POPC   C2B31520  31.962   1.952   8.250
 5619POPC   C3B31521  32.036   1.941   7.950
 5619POPC   C4B31522  32.000   1.919   7.650
 5620POPC   NC331523  16.696  32.990   9.450
 5620POPC   PO431524  16.756  33.038   9.150
 5620POPC   GL131525  16.703  33.013   8.850
 5620POPC   GL231526  16.720  32.913   8.850
 5620POPC   C1A31527  16.763  33.032   8.550
 5620POPC   D2A31528  16.720  33.017   8.250
 5620POPC   C3A31529  16.683  32.991   7.950
 5620POPC   C4A31530  16.754  33.026   7.650
 5620POPC   C1B31531  16.815  32.771   8.550
 5620POPC   C2B31532  16.820  32.765   8.250
 5620POPC   C3B31533  16.749  32.778   7.950
 5620POPC   C4B31534  16.820  32.805   7.650
 5621POPC   NC331535  42.320  15.183   9.450
 5621POPC   PO431536  42.347  15.221   9.150
 5621POPC   GL131537  42.357  15.214   8.850
 5621POPC   GL231538  42.471  15.192   8.850
 5621POPC   C1A31539  42.365  15.205   8.550
 5621POPC   D2A31540  42.333  15.136   8.250
 5621POPC   C3A31541  42.376  15.183   7.950
 5621POPC   C4A31542  42.351  15.146   7.650
 5621POPC   C1B31543  42.596  15.221   8.550
 5621POPC   C2B31544  42.605  15.223   8.250
 5621POPC   C3B31545  42.605  15.271   7.950
 5621POPC   C4B31546  42.563  15.190   7.650
 5622POPC   NC331547  33.788  15.180   9.450
 5622POPC   PO431548  33.787  15.135   9.150
 5622POPC   GL131549  33.838  15.148   8.850
 5622POPC   GL231550  33.787  15.271   8.850
 5622POPC   C1A31551  33.768  15.219   8.550
 5622POPC   D2A31552  33.842  15.137   8.250
 5622POPC   C3A31553  33.814  15.202   7.950
 5622POPC   C4A31554  33.828  15.169   7.650
 5622POPC   C1B31555  33.766  15.437   8.550
 5622POPC   C2B31556  33.824  15.441   8.250
 5622POPC   C3B31557  33.756  15.464   7.950
 5622POPC   C4B31558  33.751  15.396   7.650
 5623POPC   NC331559  15.202  40.740   9.450
 5623POPC   PO431560  15.225  40.785   9.150
 5623POPC   GL131561  15.225  40.815   8.850
 5623POPC   GL231562  15.118  40.657   8.850
 5623POPC   C1A31563  15.175  40.780   8.550
 5623POPC   D2A31564  15.200  40.733   8.250
 5623POPC   C3A31565  15.191  40.821   7.950
 5623POPC   C4A31566  15.178  40.785   7.650
 5623POPC   C1B31567  14.960  40.656   8.550
 5623POPC   C2B31568  14.976  40.645   8.250
 5623POPC   C3B31569  14.953  40.578   7.950
 5623POPC   C4B31570  14.953  40.564   7.650
 5624POPC   NC331571   1.959  17.550   9.450
 5624POPC   PO431572   1.995  17.505   9.150
 5624POPC   GL131573   1.991  17.555   8.850
 5624POPC   GL231574   2.157  17.441   8.850
 5624POPC   C1A31575   2.013  17.485   8.550
 5624POPC   D2A31576   2.027  17.498   8.250
 5624POPC   C3A31577   1.968  17.464   7.950
 5624POPC   C4A31578   1.976  17.509   7.650
 5624POPC   C1B31579   2.236  17.476   8.550
 5624POPC   C2B31580   2.205  17.436   8.250
 5624POPC   C3B31581   2.250  17.452   7.950
 5624POPC   C4B31582   2.237  17.395   7.650
 5625POPC   NC331583  10.513  15.926   9.450
 5625POPC   PO431584  10.560  15.940   9.150
 5625POPC   GL131585  10.499  15.913   8.850
 5625POPC   GL231586  10.588  15.831   8.850
 5625POPC   C1A31587  10.521  15.983   8.550
 5625POPC   D2A31588  10.480  15.970   8.250
 5625POPC   C3A31589  10.528  15.913   7.950
 5625POPC   C4A31590  10.488  15.992   7.650
 5625POPC   C1B31591  10.597  15.685   8.550
 5625POPC   C2B31592  10.579  15.722   8.250
 5625POPC   C3B31593  10.571  15.687   7.950
 5625POPC   C4B31594  10.604  15.756   7.650
 5626POPC   NC331595  21.426  43.119   9.450
 5626POPC   PO431596  21.373  43.127   9.150
 5626POPC   GL131597  21.353  43.098   8.850
 5626POPC   GL231598  21.454  43.157   8.850
 5626POPC   C1A31599  21.342  43.105   8.550
 5626POPC   D2A31600  21.384  43.080   8.250
 5626POPC   C3A31601  21.399  43.126   7.950
 5626POPC   C4A31602  21.407  43.131   7.650
 5626POPC   C1B31603  21.635  43.244   8.550
 5626POPC   C2B31604  21.594  43.240   8.250
 5626POPC   C3B31605  21.560  43.246   7.950
 5626POPC   C4B31606  21.579  43.270   7.650
 5627POPC   NC331607   5.091  33.751   9.450
 5627POPC   PO431608   5.069  33.841   9.150
 5627POPC   GL131609   5.121  33.845   8.850
 5627POPC   GL231610   4.969  33.870   8.850
 5627POPC   C1A31611   5.123  33.805   8.550
 5627POPC   D2A31612   5.081  33.839   8.250
 5627POPC   C3A31613   5.092  33.821   7.950
 5627POPC   C4A31614   5.139  33.766   7.650
 5627POPC   C1B31615   4.829  33.872   8.550
 5627POPC   C2B31616   4.860  33.827   8.250
 5627POPC   C3B31617   4.865  33.811   7.950
 5627POPC   C4B31618   4.831  33.824   7.650
 5628POPC   NC331619  19.024  34.609   9.450
 5628POPC   PO431620  19.082  34.562   9.150
 5628POPC   GL131621  19.037  34.585   8.850
 5628POPC   GL231622  19.066  34.452   8.850
 5628POPC   C1A31623  19.065  34.565   8.550
 5628POPC   D2A31624  19.022  34.613   8.250
 5628POPC   C3A31625  19.011  34.563   7.950
 5628POPC   C4A31626  19.066  34.571   7.650
 5628POPC   C1B31627  19.039  34.287   8.550
 5628POPC   C2B31628  19.112  34.304   8.250
 5628POPC   C3B31629  19.099  34.278   7.950
 5628POPC   C4B31630  19.051  34.288   7.650
 5629POPC   NC331631  40.829  25.305   9.450
 5629POPC   PO431632  40.808  25.269   9.150
 5629POPC   GL131633  40.757  25.230   8.850
 5629POPC   GL231634  40.895  25.301   8.850
 5629POPC   C1A31635  40.770  25.299   8.550
 5629POPC   D2A31636  40.761  25.269   8.250
 5629POPC   C3A31637  40.742  25.271   7.950
 5629POPC   C4A31638  40.821  25.284   7.650
 5629POPC   C1B31639  41.007  25.354   8.550
 5629POPC   C2B31640  41.022  25.287   8.250
 5629POPC   C3B31641  41.035  25.272   7.950
 5629POPC   C4B31642  40.984  25.303   7.650
 5630POPC   NC331643  35.362  15.178   9.450
 5630POPC   PO431644  35.394  15.148   9.150
 5630POPC   GL131645  35.349  15.136   8.850
 5630POPC   GL231646  35.304  15.082   8.850
 5630POPC   C1A31647  35.367  15.188   8.550
 5630POPC   D2A31648  35.339  15.130   8.250
 5630POPC   C3A31649  35.377  15.166   7.950
 5630POPC   C4A31650  35.382  15.131   7.650
 5630POPC   C1B31651  35.217  14.915   8.550
 5630POPC   C2B31652  35.284  14.925   8.250
 5630POPC   C3B31653  35.213  14.908   7.950
 5630POPC   C4B31654  35.255  14.985   7.650
 5631POPC   NC331655  29.954  39.996   9.450
 5631POPC   PO431656  29.932  40.028   9.150
 5631POPC   GL131657  29.941  40.047   8.850
 5631POPC   GL231658  29.807  39.939   8.850
 5631POPC   C1A31659  29.877  39.976   8.550
 5631POPC   D2A31660  29.872  40.041   8.250
 5631POPC   C3A31661  29.922  40.054   7.950
 5631POPC   C4A31662  29.928  39.977   7.650
 5631POPC   C1B31663  29.730  39.838   8.550
 5631POPC   C2B31664  29.739  39.839   8.250
 5631POPC   C3B31665  29.780  39.761   7.950
 5631POPC   C4B31666  29.727  39.825   7.650
 5632POPC   NC331667  42.298   1.973   9.450
 5632POPC   PO431668  42.330   2.035   9.150
 5632POPC   GL131669  42.319   1.941   8.850
 5632POPC   GL231670  42.262   2.118   8.850
 5632POPC   C1A31671  42.300   1.976   8.550
 5632POPC   D2A31672  42.292   2.016   8.250
 5632POPC   C3A31673  42.350   2.011   7.950
 5632POPC   C4A31674  42.333   1.953   7.650
 5632POPC   C1B31675  42.196   2.184   8.550
 5632POPC   C2B31676  42.243   2.189   8.250
 5632POPC   C3B31677  42.239   2.174   7.950
 5632POPC   C4B31678  42.253   2.237   7.650
 5633POPC   NC331679   1.966  33.814   9.450
 5633POPC   PO431680   1.991  33.759   9.150
 5633POPC   GL131681   1.974  33.842   8.850
 5633POPC   GL231682   2.135  33.869   8.850
 5633POPC   C1A31683   2.033  33.816   8.550
 5633POPC   D2A31684   1.952  33.792   8.250
 5633POPC   C3A31685   1.941  33.768   7.950
 5633POPC   C4A31686   1.966  33.762   7.650
 5633POPC   C1B31687   2.235  33.895   8.550
 5633POPC   C2B31688   2.160  33.889   8.250
 5633POPC   C3B31689   2.200  33.898   7.950
 5633POPC   C4B31690   2.156  33.964   7.650
 5634POPC   NC331691  20.577  27.594   9.450
 5634POPC   PO431692  20.578  27.628   9.150
 5634POPC   GL131693  20.589  27.632   8.850
 5634POPC   GL231694  20.514  27.650   8.850
 5634POPC   C1A31695  20.599  27.581   8.550
 5634POPC   D2A31696  20.606  27.635   8.250
 5634POPC   C3A31697  20.569  27.596   7.950
 5634POPC   C4A31698  20.649  27.553   7.650
 5634POPC   C1B31699  20.329  27.615   8.550
 5634POPC   C2B31700  20.394  27.687   8.250
 5634POPC   C3B31701  20.377  27.635   7.950
 5634POPC   C4B31702  20.371  27.637   7.650
 5635POPC   NC331703  23.732  22.203   9.450
 5635POPC   PO431704  23.706  22.165   9.150
 5635POPC   GL131705  23.744  22.196   8.850
 5635POPC   GL231706  23.777  22.199   8.850
 5635POPC   C1A31707  23.701  22.162   8.550
 5635POPC   D2A31708  23.691  22.151   8.250
 5635POPC   C3A31709  23.760  22.185   7.950
 5635POPC   C4A31710  23.739  22.150   7.650
 5635POPC   C1B31711  23.979  22.227   8.550
 5635POPC   C2B31712  23.987  22.298   8.250
 5635POPC   C3B31713  23.938  22.272   7.950
 5635POPC   C4B31714  23.913  22.309   7.650
 5636POPC   NC331715   5.845  15.196   9.450
 5636POPC   PO431716   5.887  15.146   9.150
 5636POPC   GL131717   5.907  15.209   8.850
 5636POPC   GL231718   5.827  15.071   8.850
 5636POPC   C1A31719   5.896  15.228   8.550
 5636POPC   D2A31720   5.823  15.213   8.250
 5636POPC   C3A31721   5.820  15.182   7.950
 5636POPC   C4A31722   5.910  15.206   7.650
 5636POPC   C1B31723   5.729  14.935   8.550
 5636POPC   C2B31724   5.768  15.008   8.250
 5636POPC   C3B31725   5.741  14.942   7.950
 5636POPC   C4B31726   5.699  14.936   7.650
 5637POPC   NC331727  22.187  22.911   9.450
 5637POPC   PO431728  22.170  22.931   9.150
 5637POPC   GL131729  22.207  22.915   8.850
 5637POPC   GL231730  22.072  22.950   8.850
 5637POPC   C1A31731  22.136  22.913   8.550
 5637POPC   D2A31732  22.122  22.983   8.250
 5637POPC   C3A31733  22.202  22.936   7.950
 5637POPC   C4A31734  22.132  22.947   7.650
 5637POPC   C1B31735  21.936  23.012   8.550
 5637POPC   C2B31736  21.909  22.988   8.250
 5637POPC   C3B31737  21.903  22.961   7.950
 5637POPC   C4B31738  21.919  23.038   7.650
 5638POPC   NC331739  16.758  32.275   9.450
 5638POPC   PO431740  16.707  32.229   9.150
 5638POPC   GL131741  16.776  32.258   8.850
 5638POPC   GL231742  16.852  32.206   8.850
 5638POPC   C1A31743  16.692  32.240   8.550
 5638POPC   D2A31744  16.746  32.226   8.250
 5638POPC   C3A31745  16.755  32.292   7.950
 5638POPC   C4A31746  16.705  32.201   7.650
 5638POPC   C1B31747  16.993  32.248   8.550
 5638POPC   C2B31748  16.942  32.205   8.250
 5638POPC   C3B31749  16.978  32.213   7.950
 5638POPC   C4B31750  16.989  32.214   7.650
 5639POPC   NC331751   1.222  24.534   9.450
 5639POPC   PO431752   1.258  24.454   9.150
 5639POPC   GL131753   1.221  24.504   8.850
 5639POPC   GL231754   1.331  24.598   8.850
 5639POPC   C1A31755   1.201  24.443   8.550
 5639POPC   D2A31756   1.255  24.509   8.250
 5639POPC   C3A31757   1.181  24.479   7.950
 5639POPC   C4A31758   1.230  24.466   7.650
 5639POPC   C1B31759   1.399  24.642   8.550
 5639POPC   C2B31760   1.437  24.626   8.250
 5639POPC   C3B31761   1.437  24.665   7.950
 5639POPC   C4B31762   1.433  24.601   7.650
 5640POPC   NC331763  15.175  27.625   9.450
 5640POPC   PO431764  15.218  27.629   9.150
 5640POPC   GL131765  15.214  27.623   8.850
 5640POPC   GL231766  15.201  27.518   8.850
 5640POPC   C1A31767  15.174  27.586   8.550
 5640POPC   D2A31768  15.158  27.632   8.250
 5640POPC   C3A31769  15.200  27.561   7.950
 5640POPC   C4A31770  15.149  27.642   7.650
 5640POPC   C1B31771  15.179  27.364   8.550
 5640POPC   C2B31772  15.189  27.300   8.250
 5640POPC   C3B31773  15.195  27.346   7.950
 5640POPC   C4B31774  15.149  27.318   7.650
 5641POPC   NC331775   8.158   1.212   9.450
 5641POPC   PO431776   8.243   1.186   9.150
 5641POPC   GL131777   8.193   1.220   8.850
 5641POPC   GL231778   8.283   1.245   8.850
 5641POPC   C1A31779   8.202   1.171   8.550
 5641POPC   D2A31780   8.240   1.176   8.250
 5641POPC   C3A31781   8.147   1.231   7.950
 5641POPC   C4A31782   8.225   1.202   7.650
 5641POPC   C1B31783   8.370   1.341   8.550
 5641POPC   C2B31784   8.421   1.361   8.250
 5641POPC   C3B31785   8.351   1.369   7.950
 5641POPC   C4B31786   8.379   1.388   7.650
 5642POPC   NC331787   8.202  22.970   9.450
 5642POPC   PO431788   8.202  22.966   9.150
 5642POPC   GL131789   8.196  22.905   8.850
 5642POPC   GL231790   8.262  22.779   8.850
 5642POPC   C1A31791   8.178  22.980   8.550
 5642POPC   D2A31792   8.154  22.940   8.250
 5642POPC   C3A31793   8.171  22.916   7.950
 5642POPC   C4A31794   8.227  22.920   7.650
 5642POPC   C1B31795   8.273  22.733   8.550
 5642POPC   C2B31796   8.288  22.740   8.250
 5642POPC   C3B31797   8.350  22.742   7.950
 5642POPC   C4B31798   8.325  22.765   7.650
 5643POPC   NC331799  15.160  25.241   9.450
 5643POPC   PO431800  15.212  25.217   9.150
 5643POPC   GL131801  15.135  25.235   8.850
 5643POPC   GL231802  15.300  25.378   8.850
 5643POPC   C1A31803  15.134  25.297   8.550
 5643POPC   D2A31804  15.167  25.252   8.250
 5643POPC   C3A31805  15.228  25.314   7.950
 5643POPC   C4A31806  15.174  25.273   7.650
 5643POPC   C1B31807  15.386  25.440   8.550
 5643POPC   C2B31808  15.348  25.368   8.250
 5643POPC   C3B31809  15.330  25.433   7.950
 5643POPC   C4B31810  15.334  25.460   7.650
 5644POPC   NC331811  40.781  40.794   9.450
 5644POPC   PO431812  40.755  40.795   9.150
 5644POPC   GL131813  40.736  40.801   8.850
 5644POPC   GL231814  40.862  40.741   8.850
 5644POPC   C1A31815  40.755  40.762   8.550
 5644POPC   D2A31816  40.824  40.738   8.250
 5644POPC   C3A31817  40.738  40.793   7.950
 5644POPC   C4A31818  40.776  40.733   7.650
 5644POPC   C1B31819  41.044  40.769   8.550
 5644POPC   C2B31820  41.045  40.716   8.250
 5644POPC   C3B31821  41.039  40.778   7.950
 5644POPC   C4B31822  41.071  40.713   7.650
 5645POPC   NC331823  25.283  28.371   9.450
 5645POPC   PO431824  25.254  28.347   9.150
 5645POPC   GL131825  25.281  28.383   8.850
 5645POPC   GL231826  25.219  28.205   8.850
 5645POPC   C1A31827  25.244  28.417   8.550
 5645POPC   D2A31828  25.220  28.368   8.250
 5645POPC   C3A31829  25.308  28.368   7.950
 5645POPC   C4A31830  25.295  28.380   7.650
 5645POPC   C1B31831  25.237  28.083   8.550
 5645POPC   C2B31832  25.265  28.073   8.250
 5645POPC   C3B31833  25.228  28.138   7.950
 5645POPC   C4B31834  25.260  28.118   7.650
 5646POPC   NC331835   9.721   4.280   9.450
 5646POPC   PO431836   9.723   4.274   9.150
 5646POPC   GL131837   9.760   4.306   8.850
 5646POPC   GL231838   9.625   4.313   8.850
 5646POPC   C1A31839   9.769   4.282   8.550
 5646POPC   D2A31840   9.757   4.283   8.250
 5646POPC   C3A31841   9.793   4.286   7.950
 5646POPC   C4A31842   9.797   4.364   7.650
 5646POPC   C1B31843   9.482   4.315   8.550
 5646POPC   C2B31844   9.462   4.338   8.250
 5646POPC   C3B31845   9.452   4.318   7.950
 5646POPC   C4B31846   9.454   4.335   7.650
 5647POPC   NC331847   3.552  43.838   9.450
 5647POPC   PO431848   3.580  43.886   9.150
 5647POPC   GL131849   3.550  43.880   8.850
 5647POPC   GL231850   3.535  44.028   8.850
 5647POPC   C1A31851   3.494  43.838   8.550
 5647POPC   D2A31852   3.584  43.891   8.250
 5647POPC   C3A31853   3.501  43.934   7.950
 5647POPC   C4A31854   3.539  43.886   7.650
 5647POPC   C1B31855   3.575  44.172   8.550
 5647POPC   C2B31856   3.608  44.173   8.250
 5647POPC   C3B31857   3.596  44.130   7.950
 5647POPC   C4B31858   3.564  44.143   7.650
 5648POPC   NC331859  35.329   5.886   9.450
 5648POPC   PO431860  35.376   5.838   9.150
 5648POPC   GL131861  35.343   5.827   8.850
 5648POPC   GL231862  35.229   5.828   8.850
 5648POPC   C1A31863  35.354   5.893   8.550
 5648POPC   D2A31864  35.393   5.858   8.250
 5648POPC   C3A31865  35.350   5.821   7.950
 5648POPC   C4A31866  35.378   5.866   7.650
 5648POPC   C1B31867  35.092   5.819   8.550
 5648POPC   C2B31868  35.131   5.885   8.250
 5648POPC   C3B31869  35.124   5.813   7.950
 5648POPC   C4B31870  35.093   5.886   7.650
 5649POPC   NC331871  12.028  29.135   9.450
 5649POPC   PO431872  12.046  29.114   9.150
 5649POPC   GL131873  12.102  29.120   8.850
 5649POPC   GL231874  12.008  29.241   8.850
 5649POPC   C1A31875  12.086  29.156   8.550
 5649POPC   D2A31876  12.104  29.161   8.250
 5649POPC   C3A31877  12.035  29.161   7.950
 5649POPC   C4A31878  12.038  29.108   7.650
 5649POPC   C1B31879  11.872  29.312   8.550
 5649POPC   C2B31880  11.863  29.353   8.250
 5649POPC   C3B31881  11.888  29.324   7.950
 5649POPC   C4B31882  11.934  29.321   7.650
 5650POPC   NC331883  20.624  36.921   9.450
 5650POPC   PO431884  20.593  36.870   9.150
 5650POPC   GL131885  20.645  36.940   8.850
 5650POPC   GL231886  20.546  36.830   8.850
 5650POPC   C1A31887  20.607  36.900   8.550
 5650POPC   D2A31888  20.581  36.860   8.250
 5650POPC   C3A31889  20.577  36.862   7.950
 5650POPC   C4A31890  20.642  36.908   7.650
 5650POPC   C1B31891  20.430  36.746   8.550
 5650POPC   C2B31892  20.459  36.697   8.250
 5650POPC   C3B31893  20.488  36.661   7.950
 5650POPC   C4B31894  20.466  36.693   7.650
 5651POPC   NC331895  36.924  29.156   9.450
 5651POPC   PO431896  36.914  29.101   9.150
 5651POPC   GL131897  36.890  29.160   8.850
 5651POPC   GL231898  36.826  29.076   8.850
 5651POPC   C1A31899  36.937  29.132   8.550
 5651POPC   D2A31900  36.886  29.191   8.250
 5651POPC   C3A31901  36.873  29.159   7.950
 5651POPC   C4A31902  36.865  29.189   7.650
 5651POPC   C1B31903  36.716  28.994   8.550
 5651POPC   C2B31904  36.727  28.922   8.250
 5651POPC   C3B31905  36.773  28.955   7.950
 5651POPC   C4B31906  36.742  29.006   7.650
 5652POPC   NC331907  29.930  13.596   9.450
 5652POPC   PO431908  29.925  13.660   9.150
 5652POPC   GL131909  29.900  13.578   8.850
 5652POPC   GL231910  30.008  13.556   8.850
 5652POPC   C1A31911  29.911  13.599   8.550
 5652POPC   D2A31912  29.935  13.603   8.250
 5652POPC   C3A31913  29.940  13.583   7.950
 5652POPC   C4A31914  29.907  13.606   7.650
 5652POPC   C1B31915  30.209  13.562   8.550
 5652POPC   C2B31916  30.217  13.550   8.250
 5652POPC   C3B31917  30.214  13.616   7.950
 5652POPC   C4B31918  30.213  13.562   7.650
 5653POPC   NC331919   7.397  16.721   9.450
 5653POPC   PO431920   7.452  16.766   9.150
 5653POPC   GL131921   7.430  16.707   8.850
 5653POPC   GL231922   7.505  16.845   8.850
 5653POPC   C1A31923   7.395  16.734   8.550
 5653POPC   D2A31924   7.401  16.755   8.250
 5653POPC   C3A31925   7.462  16.701   7.950
 5653POPC   C4A31926   7.424  16.769   7.650
 5653POPC   C1B31927   7.554  16.953   8.550
 5653POPC   C2B31928   7.512  16.975   8.250
 5653POPC   C3B31929   7.528  16.967   7.950
 5653POPC   C4B31930   7.504  16.937   7.650
 5654POPC   NC331931  33.022  22.123   9.450
 5654POPC   PO431932  33.041  22.156   9.150
 5654POPC   GL131933  33.044  22.198   8.850
 5654POPC   GL231934  32.927  22.114   8.850
 5654POPC   C1A31935  33.034  22.201   8.550
 5654POPC   D2A31936  33.024  22.125   8.250
 5654POPC   C3A31937  33.050  22.128   7.950
 5654POPC   C4A31938  33.016  22.182   7.650
 5654POPC   C1B31939  32.814  22.190   8.550
 5654POPC   C2B31940  32.791  22.147   8.250
 5654POPC   C3B31941  32.812  22.121   7.950
 5654POPC   C4B31942  32.821  22.097   7.650
 5655POPC   NC331943  28.374  15.958   9.450
 5655POPC   PO431944  28.350  15.969   9.150
 5655POPC   GL131945  28.377  15.998   8.850
 5655POPC   GL231946  28.418  16.110   8.850
 5655POPC   C1A31947  28.346  15.994   8.550
 5655POPC   D2A31948  28.330  15.994   8.250
 5655POPC   C3A31949  28.391  15.913   7.950
 5655POPC   C4A31950  28.395  15.990   7.650
 5655POPC   C1B31951  28.432  16.152   8.550
 5655POPC   C2B31952  28.450  16.149   8.250
 5655POPC   C3B31953  28.476  16.143   7.950
 5655POPC   C4B31954  28.512  16.146   7.650
 5656POPC   NC331955  36.931   5.138   9.450
 5656POPC   PO431956  36.905   5.088   9.150
 5656POPC   GL131957  36.872   5.106   8.850
 5656POPC   GL231958  36.989   5.102   8.850
 5656POPC   C1A31959  36.904   5.063   8.550
 5656POPC   D2A31960  36.929   5.110   8.250
 5656POPC   C3A31961  36.866   5.085   7.950
 5656POPC   C4A31962  36.947   5.135   7.650
 5656POPC   C1B31963  37.196   5.084   8.550
 5656POPC   C2B31964  37.162   5.148   8.250
 5656POPC   C3B31965  37.197   5.068   7.950
 5656POPC   C4B31966  37.109   5.146   7.650
 5657POPC   NC331967  12.092  31.502   9.450
 5657POPC   PO431968  12.068  31.464   9.150
 5657POPC   GL131969  12.081  31.503   8.850
 5657POPC   GL231970  12.074  31.579   8.850
 5657POPC   C1A31971  12.113  31.503   8.550
 5657POPC   D2A31972  12.050  31.436   8.250
 5657POPC   C3A31973  12.106  31.446   7.950
 5657POPC   C4A31974  12.068  31.464   7.650
 5657POPC   C1B31975  12.077  31.764   8.550
 5657POPC   C2B31976  12.038  31.728   8.250
 5657POPC   C3B31977  12.076  31.739   7.950
 5657POPC   C4B31978  12.101  31.721   7.650
 5658POPC   NC331979  15.982   0.458   9.450
 5658POPC   PO431980  15.976   0.431   9.150
 5658POPC   GL131981  15.907   0.481   8.850
 5658POPC   GL231982  16.111   0.520   8.850
 5658POPC   C1A31983  15.911   0.445   8.550
 5658POPC   D2A31984  15.959   0.451   8.250
 5658POPC   C3A31985  15.991   0.437   7.950
 5658POPC   C4A31986  15.975   0.477   7.650
 5658POPC   C1B31987  16.134   0.525   8.550
 5658POPC   C2B31988  16.225   0.551   8.250
 5658POPC   C3B31989  16.205   0.545   7.950
 5658POPC   C4B31990  16.210   0.510   7.650
 5659POPC   NC331991  13.586   2.027   9.450
 5659POPC   PO431992  13.638   1.941   9.150
 5659POPC   GL131993  13.603   1.960   8.850
 5659POPC   GL231994  13.512   1.977   8.850
 5659POPC   C1A31995  13.616   1.972   8.550
 5659POPC   D2A31996  13.649   2.019   8.250
 5659POPC   C3A31997  13.628   2.036   7.950
 5659POPC   C4A31998  13.652   2.038   7.650
 5659POPC   C1B31999  13.376   1.943   8.550
 5659POPC   C2B32000  13.369   1.946   8.250
 5659POPC   C3B32001  13.353   1.940   7.950
 5659POPC   C4B32002  13.364   1.967   7.650
 5660POPC   NC332003   0.452   8.243   9.450
 5660POPC   PO432004   0.473   8.147   9.150
 5660POPC   GL132005   0.400   8.148   8.850
 5660POPC   GL232006   0.539   8.242   8.850
 5660POPC   C1A32007   0.429   8.244   8.550
 5660POPC   D2A32008   0.454   8.190   8.250
 5660POPC   C3A32009   0.407   8.165   7.950
 5660POPC   C4A32010   0.393   8.152   7.650
 5660POPC   C1B32011   0.712   8.243   8.550
 5660POPC   C2B32012   0.645   8.224   8.250
 5660POPC   C3B32013   0.672   8.218   7.950
 5660POPC   C4B32014   0.709   8.250   7.650
 5661POPC   NC332015  21.407   8.165   9.450
 5661POPC   PO432016  21.340   8.222   9.150
 5661POPC   GL132017  21.403   8.161   8.850
 5661POPC   GL232018  21.420   8.249   8.850
 5661POPC   C1A32019  21.412   8.210   8.550
 5661POPC   D2A32020  21.376   8.148   8.250
 5661POPC   C3A32021  21.337   8.151   7.950
 5661POPC   C4A32022  21.424   8.168   7.650
 5661POPC   C1B32023  21.554   8.394   8.550
 5661POPC   C2B32024  21.515   8.358   8.250
 5661POPC   C3B32025  21.547   8.364   7.950
 5661POPC   C4B32026  21.536   8.362   7.650
 5662POPC   NC332027   3.562  18.245   9.450
 5662POPC   PO432028   3.564  18.331   9.150
 5662POPC   GL132029   3.543  18.299   8.850
 5662POPC   GL232030   3.592  18.141   8.850
 5662POPC   C1A32031   3.497  18.255   8.550
 5662POPC   D2A32032   3.573  18.268   8.250
 5662POPC   C3A32033   3.543  18.269   7.950
 5662POPC   C4A32034   3.499  18.305   7.650
 5662POPC   C1B32035   3.694  18.089   8.550
 5662POPC   C2B32036   3.751  18.072   8.250
 5662POPC   C3B32037   3.747  18.074   7.950
 5662POPC   C4B32038   3.740  18.139   7.650
 5663POPC   NC332039  29.158  12.093   9.450
 5663POPC   PO432040  29.139  12.069   9.150
 5663POPC   GL132041  29.182  12.120   8.850
 5663POPC   GL232042  29.285  12.076   8.850
 5663POPC   C1A32043  29.176  12.109   8.550
 5663POPC   D2A32044  29.129  12.078   8.250
 5663POPC   C3A32045  29.123  12.068   7.950
 5663POPC   C4A32046  29.137  12.070   7.650
 5663POPC   C1B32047  29.390  12.128   8.550
 5663POPC   C2B32048  29.409  12.107   8.250
 5663POPC   C3B32049  29.429  12.167   7.950
 5663POPC   C4B32050  29.391  12.152   7.650
 5664POPC   NC332051  25.296  39.983   9.450
 5664POPC   PO432052  25.276  40.009   9.150
 5664POPC   GL132053  25.236  39.980   8.850
 5664POPC   GL232054  25.160  40.042   8.850
 5664POPC   C1A32055  25.247  39.969   8.550
 5664POPC   D2A32056  25.254  40.007   8.250
 5664POPC   C3A32057  25.281  39.964   7.950
 5664POPC   C4A32058  25.233  40.007   7.650
 5664POPC   C1B32059  25.011  40.088   8.550
 5664POPC   C2B32060  24.999  40.089   8.250
 5664POPC   C3B32061  25.016  40.136   7.950
 5664POPC   C4B32062  25.063  40.128   7.650
 5665POPC   NC332063  39.214  12.832   9.450
 5665POPC   PO432064  39.229  12.844   9.150
 5665POPC   GL132065  39.208  12.828   8.850
 5665POPC   GL232066  39.308  12.970   8.850
 5665POPC   C1A32067  39.200  12.852   8.550
 5665POPC   D2A32068  39.256  12.815   8.250
 5665POPC   C3A32069  39.228  12.868   7.950
 5665POPC   C4A32070  39.260  12.873   7.650
 5665POPC   C1B32071  39.382  13.063   8.550
 5665POPC   C2B32072  39.356  13.116   8.250
 5665POPC   C3B32073  39.381  13.062   7.950
 5665POPC   C4B32074  39.366  13.022   7.650
 5666POPC   NC332075  29.193  31.515   9.450
 5666POPC   PO432076  29.173  31.476   9.150
 5666POPC   GL132077  29.178  31.460   8.850
 5666POPC   GL232078  29.234  31.356   8.850
 5666POPC   C1A32079  29.163  31.453   8.550
 5666POPC   D2A32080  29.159  31.434   8.250
 5666POPC   C3A32081  29.127  31.462   7.950
 5666POPC   C4A32082  29.186  31.486   7.650
 5666POPC   C1B32083  29.331  31.291   8.550
 5666POPC   C2B32084  29.382  31.280   8.250
 5666POPC   C3B32085  29.370  31.272   7.950
 5666POPC   C4B32086  29.351  31.337   7.650
 5667POPC   NC332087  40.766  12.849   9.450
 5667POPC   PO432088  40.798  12.846   9.150
 5667POPC   GL132089  40.755  12.868   8.850
 5667POPC   GL232090  40.693  12.840   8.850
 5667POPC   C1A32091  40.828  12.898   8.550
 5667POPC   D2A32092  40.746  12.867   8.250
 5667POPC   C3A32093  40.758  12.889   7.950
 5667POPC   C4A32094  40.795  12.857   7.650
 5667POPC   C1B32095  40.576  12.786   8.550
 5667POPC   C2B32096  40.580  12.780   8.250
 5667POPC   C3B32097  40.590  12.814   7.950
 5667POPC   C4B32098  40.587  12.747   7.650
 5668POPC   NC332099  43.072  27.586   9.450
 5668POPC   PO432100  43.142  27.564   9.150
 5668POPC   GL132101  43.113  27.603   8.850
 5668POPC   GL232102  43.187  27.613   8.850
 5668POPC   C1A32103  43.150  27.558   8.550
 5668POPC   D2A32104  43.144  27.563   8.250
 5668POPC   C3A32105  43.126  27.564   7.950
 5668POPC   C4A32106  43.065  27.619   7.650
 5668POPC   C1B32107  43.331  27.556   8.550
 5668POPC   C2B32108  43.369  27.532   8.250
 5668POPC   C3B32109  43.357  27.550   7.950
 5668POPC   C4B32110  43.316  27.586   7.650
 5669POPC   NC332111  42.339   9.699   9.450
 5669POPC   PO432112  42.362   9.752   9.150
 5669POPC   GL132113  42.328   9.793   8.850
 5669POPC   GL232114  42.202   9.726   8.850
 5669POPC   C1A32115  42.286   9.791   8.550
 5669POPC   D2A32116  42.370   9.720   8.250
 5669POPC   C3A32117  42.324   9.731   7.950
 5669POPC   C4A32118  42.336   9.699   7.650
 5669POPC   C1B32119  42.119   9.666   8.550
 5669POPC   C2B32120  42.052   9.708   8.250
 5669POPC   C3B32121  42.130   9.646   7.950
 5669POPC   C4B32122  42.120   9.639   7.650
 5670POPC   NC332123  37.645  10.540   9.450
 5670POPC   PO432124  37.644  10.573   9.150
 5670POPC   GL132125  37.656  10.566   8.850
 5670POPC   GL232126  37.676  10.593   8.850
 5670POPC   C1A32127  37.699  10.566   8.550
 5670POPC   D2A32128  37.654  10.539   8.250
 5670POPC   C3A32129  37.658  10.498   7.950
 5670POPC   C4A32130  37.715  10.554   7.650
 5670POPC   C1B32131  37.745  10.789   8.550
 5670POPC   C2B32132  37.791  10.728   8.250
 5670POPC   C3B32133  37.754  10.774   7.950
 5670POPC   C4B32134  37.738  10.752   7.650
 5671POPC   NC332135  24.509  22.954   9.450
 5671POPC   PO432136  24.537  22.950   9.150
 5671POPC   GL132137  24.524  22.967   8.850
 5671POPC   GL232138  24.459  22.822   8.850
 5671POPC   C1A32139  24.506  22.949   8.550
 5671POPC   D2A32140  24.508  22.981   8.250
 5671POPC   C3A32141  24.473  22.938   7.950
 5671POPC   C4A32142  24.533  22.942   7.650
 5671POPC   C1B32143  24.482  22.718   8.550
 5671POPC   C2B32144  24.529  22.639   8.250
 5671POPC   C3B32145  24.510  22.727   7.950
 5671POPC   C4B32146  24.490  22.732   7.650
 5672POPC   NC332147  34.586   8.166   9.450
 5672POPC   PO432148  34.537   8.169   9.150
 5672POPC   GL132149  34.594   8.198   8.850
 5672POPC   GL232150  34.538   8.094   8.850
 5672POPC   C1A32151  34.588   8.178   8.550
 5672POPC   D2A32152  34.548   8.161   8.250
 5672POPC   C3A32153  34.546   8.150   7.950
 5672POPC   C4A32154  34.586   8.243   7.650
 5672POPC   C1B32155  34.498   8.012   8.550
 5672POPC   C2B32156  34.458   7.987   8.250
 5672POPC   C3B32157  34.494   7.942   7.950
 5672POPC   C4B32158  34.412   7.995   7.650
 5673POPC   NC332159  40.003  39.194   9.450
 5673POPC   PO432160  39.994  39.247   9.150
 5673POPC   GL132161  39.969  39.230   8.850
 5673POPC   GL232162  39.879  39.110   8.850
 5673POPC   C1A32163  40.004  39.267   8.550
 5673POPC   D2A32164  40.017  39.272   8.250
 5673POPC   C3A32165  40.030  39.243   7.950
 5673POPC   C4A32166  39.994  39.195   7.650
 5673POPC   C1B32167  39.776  39.099   8.550
 5673POPC   C2B32168  39.851  39.093   8.250
 5673POPC   C3B32169  39.842  39.089   7.950
 5673POPC   C4B32170  39.800  39.063   7.650
 5674POPC   NC332171  11.261   5.847   9.450
 5674POPC   PO432172  11.261   5.830   9.150
 5674POPC   GL132173  11.307   5.844   8.850
 5674POPC   GL232174  11.358   5.823   8.850
 5674POPC   C1A32175  11.304   5.895   8.550
 5674POPC   D2A32176  11.272   5.849   8.250
 5674POPC   C3A32177  11.272   5.842   7.950
 5674POPC   C4A32178  11.347   5.837   7.650
 5674POPC   C1B32179  11.482   5.684   8.550
 5674POPC   C2B32180  11.528   5.700   8.250
 5674POPC   C3B32181  11.512   5.719   7.950
 5674POPC   C4B32182  11.490   5.704   7.650
 5675POPC   NC332183  27.572  27.569   9.450
 5675POPC   PO432184  27.632  27.589   9.150
 5675POPC   GL132185  27.619  27.630   8.850
 5675POPC   GL232186  27.578  27.451   8.850
 5675POPC   C1A32187  27.554  27.631   8.550
 5675POPC   D2A32188  27.561  27.583   8.250
 5675POPC   C3A32189  27.550  27.561   7.950
 5675POPC   C4A32190  27.618  27.638   7.650
 5675POPC   C1B32191  27.632  27.327   8.550
 5675POPC   C2B32192  27.632  27.312   8.250
 5675POPC   C3B32193  27.613  27.330   7.950
 5675POPC   C4B32194  27.610  27.330   7.650
 5676POPC   NC332195  39.280  20.585   9.450
 5676POPC   PO432196  39.197  20.573   9.150
 5676POPC   GL132197  39.198  20.597   8.850
 5676POPC   GL232198  39.265  20.733   8.850
 5676POPC   C1A32199  39.268  20.632   8.550
 5676POPC   D2A32200  39.185  20.649   8.250
 5676POPC   C3A32201  39.229  20.567   7.950
 5676POPC   C4A32202  39.184  20.599   7.650
 5676POPC   C1B32203  39.253  20.904   8.550
 5676POPC   C2B32204  39.240  20.852   8.250
 5676POPC   C3B32205  39.193  20.816   7.950
 5676POPC   C4B32206  39.276  20.904   7.650
 5677POPC   NC332207   5.827   9.006   9.450
 5677POPC   PO432208   5.837   9.014   9.150
 5677POPC   GL132209   5.906   8.974   8.850
 5677POPC   GL232210   5.882   9.116   8.850
 5677POPC   C1A32211   5.822   8.938   8.550
 5677POPC   D2A32212   5.900   8.979   8.250
 5677POPC   C3A32213   5.822   8.983   7.950
 5677POPC   C4A32214   5.874   8.950   7.650
 5677POPC   C1B32215   5.913   9.210   8.550
 5677POPC   C2B32216   5.940   9.233   8.250
 5677POPC   C3B32217   5.888   9.264   7.950
 5677POPC   C4B32218   5.954   9.207   7.650
 5678POPC   NC332219  29.171  14.425   9.450
 5678POPC   PO432220  29.160  14.356   9.150
 5678POPC   GL132221  29.139  14.358   8.850
 5678POPC   GL232222  29.206  14.360   8.850
 5678POPC   C1A32223  29.121  14.365   8.550
 5678POPC   D2A32224  29.157  14.447   8.250
 5678POPC   C3A32225  29.188  14.430   7.950
 5678POPC   C4A32226  29.132  14.359   7.650
 5678POPC   C1B32227  29.361  14.277   8.550
 5678POPC   C2B32228  29.296  14.253   8.250
 5678POPC   C3B32229  29.316  14.210   7.950
 5678POPC   C4B32230  29.369  14.220   7.650
 5679POPC   NC332231  25.304  26.067   9.450
 5679POPC   PO432232  25.256  26.085   9.150
 5679POPC   GL132233  25.305  26.002   8.850
 5679POPC   GL232234  25.251  26.122   8.850
 5679POPC   C1A32235  25.307  25.993   8.550
 5679POPC   D2A32236  25.250  26.002   8.250
 5679POPC   C3A32237  25.217  26.024   7.950
 5679POPC   C4A32238  25.247  26.053   7.650
 5679POPC   C1B32239  25.258  26.327   8.550
 5679POPC   C2B32240  25.313  26.291   8.250
 5679POPC   C3B32241  25.300  26.326   7.950
 5679POPC   C4B32242  25.307  26.339   7.650
 5680POPC   NC332243  26.770  15.146   9.450
 5680POPC   PO432244  26.769  15.202   9.150
 5680POPC   GL132245  26.846  15.131   8.850
 5680POPC   GL232246  26.882  15.076   8.850
 5680POPC   C1A32247  26.856  15.175   8.550
 5680POPC   D2A32248  26.833  15.138   8.250
 5680POPC   C3A32249  26.813  15.213   7.950
 5680POPC   C4A32250  26.841  15.164   7.650
 5680POPC   C1B32251  26.955  14.993   8.550
 5680POPC   C2B32252  26.901  14.977   8.250
 5680POPC   C3B32253  26.968  14.986   7.950
 5680POPC   C4B32254  26.888  14.972   7.650
 5681POPC   NC332255   2.724  19.856   9.450
 5681POPC   PO432256   2.749  19.838   9.150
 5681POPC   GL132257   2.763  19.844   8.850
 5681POPC   GL232258   2.892  19.725   8.850
 5681POPC   C1A32259   2.809  19.845   8.550
 5681POPC   D2A32260   2.755  19.805   8.250
 5681POPC   C3A32261   2.743  19.809   7.950
 5681POPC   C4A32262   2.788  19.846   7.650
 5681POPC   C1B32263   2.993  19.643   8.550
 5681POPC   C2B32264   2.916  19.692   8.250
 5681POPC   C3B32265   2.962  19.633   7.950
 5681POPC   C4B32266   2.980  19.708   7.650
 5682POPC   NC332267   2.762   4.344   9.450
 5682POPC   PO432268   2.813   4.324   9.150
 5682POPC   GL132269   2.726   4.293   8.850
 5682POPC   GL232270   2.777   4.446   8.850
 5682POPC   C1A32271   2.768   4.287   8.550
 5682POPC   D2A32272   2.776   4.339   8.250
 5682POPC   C3A32273   2.788   4.304   7.950
 5682POPC   C4A32274   2.755   4.315   7.650
 5682POPC   C1B32275   2.805   4.542   8.550
 5682POPC   C2B32276   2.746   4.554   8.250
 5682POPC   C3B32277   2.774   4.522   7.950
 5682POPC   C4B32278   2.835   4.593   7.650
 5683POPC   NC332279  21.406  43.852   9.450
 5683POPC   PO432280  21.347  43.934   9.150
 5683POPC   GL132281  21.410  43.931   8.850
 5683POPC   GL232282  21.475  43.920   8.850
 5683POPC   C1A32283  21.369  43.837   8.550
 5683POPC   D2A32284  21.368  43.858   8.250
 5683POPC   C3A32285  21.410  43.905   7.950
 5683POPC   C4A32286  21.374  43.893   7.650
 5683POPC   C1B32287  21.602  43.905   8.550
 5683POPC   C2B32288  21.610  43.935   8.250
 5683POPC   C3B32289  21.610  43.925   7.950
 5683POPC   C4B32290  21.674  43.965   7.650
 5684POPC   NC332291  36.118  22.955   9.450
 5684POPC   PO432292  36.114  22.894   9.150
 5684POPC   GL132293  36.176  22.921   8.850
 5684POPC   GL232294  36.243  23.024   8.850
 5684POPC   C1A32295  36.118  22.957   8.550
 5684POPC   D2A32296  36.154  22.912   8.250
 5684POPC   C3A32297  36.086  22.943   7.950
 5684POPC   C4A32298  36.170  22.935   7.650
 5684POPC   C1B32299  36.333  23.113   8.550
 5684POPC   C2B32300  36.306  23.084   8.250
 5684POPC   C3B32301  36.340  23.061   7.950
 5684POPC   C4B32302  36.340  23.101   7.650
 5685POPC   NC332303   1.954  44.669   9.450
 5685POPC   PO432304   1.962  44.635   9.150
 5685POPC   GL132305   2.004  44.645   8.850
 5685POPC   GL232306   1.862  44.699   8.850
 5685POPC   C1A32307   1.971  44.675   8.550
 5685POPC   D2A32308   1.970  44.682   8.250
 5685POPC   C3A32309   2.038  44.677   7.950
 5685POPC   C4A32310   1.980  44.636   7.650
 5685POPC   C1B32311   1.750  44.782   8.550
 5685POPC   C2B32312   1.782  44.833   8.250
 5685POPC   C3B32313   1.785  44.825   7.950
 5685POPC   C4B32314   1.793  44.818   7.650
 5686POPC   NC332315   8.960  10.571   9.450
 5686POPC   PO432316   8.944  10.567   9.150
 5686POPC   GL132317   9.018  10.483   8.850
 5686POPC   GL232318   8.843  10.467   8.850
 5686POPC   C1A32319   9.014  10.553   8.550
 5686POPC   D2A32320   9.006  10.480   8.250
 5686POPC   C3A32321   8.996  10.486   7.950
 5686POPC   C4A32322   8.978  10.511   7.650
 5686POPC   C1B32323   8.780  10.421   8.550
 5686POPC   C2B32324   8.769  10.354   8.250
 5686POPC   C3B32325   8.712  10.388   7.950
 5686POPC   C4B32326   8.788  10.406   7.650
 5687POPC   NC332327  43.100  10.522   9.450
 5687POPC   PO432328  43.102  10.543   9.150
 5687POPC   GL132329  43.160  10.479   8.850
 5687POPC   GL232330  43.030  10.476   8.850
 5687POPC   C1A32331  43.110  10.499   8.550
 5687POPC   D2A32332  43.099  10.552   8.250
 5687POPC   C3A32333  43.123  10.553   7.950
 5687POPC   C4A32334  43.104  10.501   7.650
 5687POPC   C1B32335  42.852  10.480   8.550
 5687POPC   C2B32336  42.821  10.504   8.250
 5687POPC   C3B32337  42.840  10.506   7.950
 5687POPC   C4B32338  42.891  10.470   7.650
 5688POPC   NC332339  25.277  31.454   9.450
 5688POPC   PO432340  25.297  31.461   9.150
 5688POPC   GL132341  25.276  31.482   8.850
 5688POPC   GL232342  25.188  31.348   8.850
 5688POPC   C1A32343  25.236  31.444   8.550
 5688POPC   D2A32344  25.304  31.439   8.250
 5688POPC   C3A32345  25.314  31.451   7.950
 5688POPC   C4A32346  25.261  31.491   7.650
 5688POPC   C1B32347  25.072  31.276   8.550
 5688POPC   C2B32348  25.083  31.295   8.250
 5688POPC   C3B32349  25.138  31.275   7.950
 5688POPC   C4B32350  25.105  31.285   7.650
 5689POPC   NC332351  15.927   5.090   9.450
 5689POPC   PO432352  15.906   5.109   9.150
 5689POPC   GL132353  15.995   5.104   8.850
 5689POPC   GL232354  16.075   5.089   8.850
 5689POPC   C1A32355  15.930   5.130   8.550
 5689POPC   D2A32356  15.951   5.061   8.250
 5689POPC   C3A32357  15.991   5.079   7.950
 5689POPC   C4A32358  15.937   5.087   7.650
 5689POPC   C1B32359  16.245   5.055   8.550
 5689POPC   C2B32360  16.247   5.058   8.250
 5689POPC   C3B32361  16.155   5.096   7.950
 5689POPC   C4B32362  16.244   5.027   7.650
 5690POPC   NC332363  27.605  24.493   9.450
 5690POPC   PO432364  27.552  24.458   9.150
 5690POPC   GL132365  27.583  24.452   8.850
 5690POPC   GL232366  27.684  24.618   8.850
 5690POPC   C1A32367  27.554  24.528   8.550
 5690POPC   D2A32368  27.551  24.524   8.250
 5690POPC   C3A32369  27.578  24.470   7.950
 5690POPC   C4A32370  27.614  24.528   7.650
 5690POPC   C1B32371  27.764  24.690   8.550
 5690POPC   C2B32372  27.816  24.712   8.250
 5690POPC   C3B32373  27.765  24.677   7.950
 5690POPC   C4B32374  27.740  24.707   7.650
 5691POPC   NC332375  31.505  39.983   9.450
 5691POPC   PO432376  31.468  40.054   9.150
 5691POPC   GL132377  31.430  40.019   8.850
 5691POPC   GL232378  31.483  39.888   8.850
 5691POPC   C1A32379  31.480  40.034   8.550
 5691POPC   D2A32380  31.461  39.969   8.250
 5691POPC   C3A32381  31.463  39.993   7.950
 5691POPC   C4A32382  31.481  40.037   7.650
 5691POPC   C1B32383  31.486  39.760   8.550
 5691POPC   C2B32384  31.496  39.763   8.250
 5691POPC   C3B32385  31.494  39.772   7.950
 5691POPC   C4B32386  31.420  39.767   7.650
 5692POPC   NC332387  18.296  24.476   9.450
 5692POPC   PO432388  18.327  24.501   9.150
 5692POPC   GL132389  18.301  24.457   8.850
 5692POPC   GL232390  18.422  24.592   8.850
 5692POPC   C1A32391  18.331  24.514   8.550
 5692POPC   D2A32392  18.260  24.496   8.250
 5692POPC   C3A32393  18.257  24.523   7.950
 5692POPC   C4A32394  18.256  24.512   7.650
 5692POPC   C1B32395  18.494  24.637   8.550
 5692POPC   C2B32396  18.464  24.605   8.250
 5692POPC   C3B32397  18.437  24.601   7.950
 5692POPC   C4B32398  18.478  24.683   7.650
 5693POPC   NC332399  19.039  27.624   9.450
 5693POPC   PO432400  19.049  27.583   9.150
 5693POPC   GL132401  19.020  27.619   8.850
 5693POPC   GL232402  19.185  27.489   8.850
 5693POPC   C1A32403  19.101  27.554   8.550
 5693POPC   D2A32404  19.090  27.547   8.250
 5693POPC   C3A32405  19.029  27.545   7.950
 5693POPC   C4A32406  19.078  27.571   7.650
 5693POPC   C1B32407  19.228  27.374   8.550
 5693POPC   C2B32408  19.233  27.373   8.250
 5693POPC   C3B32409  19.223  27.457   7.950
 5693POPC   C4B32410  19.281  27.458   7.650
 5694POPC   NC332411  32.219   2.771   9.450
 5694POPC   PO432412  32.275   2.765   9.150
 5694POPC   GL132413  32.223   2.733   8.850
 5694POPC   GL232414  32.352   2.741   8.850
 5694POPC   C1A32415  32.200   2.758   8.550
 5694POPC   D2A32416  32.218   2.804   8.250
 5694POPC   C3A32417  32.272   2.716   7.950
 5694POPC   C4A32418  32.277   2.753   7.650
 5694POPC   C1B32419  32.475   2.614   8.550
 5694POPC   C2B32420  32.502   2.630   8.250
 5694POPC   C3B32421  32.466   2.654   7.950
 5694POPC   C4B32422  32.487   2.640   7.650
 5695POPC   NC332423  28.413  32.208   9.450
 5695POPC   PO432424  28.322  32.228   9.150
 5695POPC   GL132425  28.322  32.250   8.850
 5695POPC   GL232426  28.232  32.299   8.850
 5695POPC   C1A32427  28.336  32.281   8.550
 5695POPC   D2A32428  28.391  32.203   8.250
 5695POPC   C3A32429  28.356  32.248   7.950
 5695POPC   C4A32430  28.322  32.211   7.650
 5695POPC   C1B32431  28.104  32.337   8.550
 5695POPC   C2B32432  28.179  32.373   8.250
 5695POPC   C3B32433  28.118  32.330   7.950
 5695POPC   C4B32434  28.126  32.332   7.650
 5696POPC   NC332435  18.249  11.320   9.450
 5696POPC   PO432436  18.311  11.299   9.150
 5696POPC   GL132437  18.265  11.312   8.850
 5696POPC   GL232438  18.291  11.454   8.850
 5696POPC   C1A32439  18.240  11.338   8.550
 5696POPC   D2A32440  18.262  11.255   8.250
 5696POPC   C3A32441  18.256  11.305   7.950
 5696POPC   C4A32442  18.298  11.260   7.650
 5696POPC   C1B32443  18.316  11.565   8.550
 5696POPC   C2B32444  18.319  11.565   8.250
 5696POPC   C3B32445  18.323  11.520   7.950
 5696POPC   C4B32446  18.262  11.541   7.650
 5697POPC   NC332447  19.820  36.151   9.450
 5697POPC   PO432448  19.791  36.132   9.150
 5697POPC   GL132449  19.839  36.156   8.850
 5697POPC   GL232450  19.681  36.151   8.850
 5697POPC   C1A32451  19.866  36.109   8.550
 5697POPC   D2A32452  19.794  36.166   8.250
 5697POPC   C3A32453  19.837  36.159   7.950
 5697POPC   C4A32454  19.865  36.140   7.650
 5697POPC   C1B32455  19.596  36.238   8.550
 5697POPC   C2B32456  19.652  36.204   8.250
 5697POPC   C3B32457  19.623  36.279   7.950
 5697POPC   C4B32458  19.654  36.254   7.650
 5698POPC   NC332459  26.774  37.725   9.450
 5698POPC   PO432460  26.785  37.717   9.150
 5698POPC   GL132461  26.773  37.710   8.850
 5698POPC   GL232462  26.704  37.780   8.850
 5698POPC   C1A32463  26.854  37.703   8.550
 5698POPC   D2A32464  26.795  37.683   8.250
 5698POPC   C3A32465  26.810  37.706   7.950
 5698POPC   C4A32466  26.818  37.670   7.650
 5698POPC   C1B32467  26.627  37.796   8.550
 5698POPC   C2B32468  26.602  37.838   8.250
 5698POPC   C3B32469  26.599  37.814   7.950
 5698POPC   C4B32470  26.624  37.774   7.650
 5699POPC   NC332471  16.696  17.529   9.450
 5699POPC   PO432472  16.708  17.542   9.150
 5699POPC   GL132473  16.781  17.504   8.850
 5699POPC   GL232474  16.565  17.502   8.850
 5699POPC   C1A32475  16.710  17.462   8.550
 5699POPC   D2A32476  16.724  17.483   8.250
 5699POPC   C3A32477  16.753  17.544   7.950
 5699POPC   C4A32478  16.728  17.505   7.650
 5699POPC   C1B32479  16.440  17.471   8.550
 5699POPC   C2B32480  16.495  17.518   8.250
 5699POPC   C3B32481  16.528  17.457   7.950
 5699POPC   C4B32482  16.504  17.475   7.650
 5700POPC   NC332483  25.277  29.145   9.450
 5700POPC   PO432484  25.222  29.101   9.150
 5700POPC   GL132485  25.249  29.100   8.850
 5700POPC   GL232486  25.406  29.134   8.850
 5700POPC   C1A32487  25.280  29.162   8.550
 5700POPC   D2A32488  25.293  29.184   8.250
 5700POPC   C3A32489  25.291  29.185   7.950
 5700POPC   C4A32490  25.309  29.111   7.650
 5700POPC   C1B32491  25.530  29.164   8.550
 5700POPC   C2B32492  25.554  29.162   8.250
 5700POPC   C3B32493  25.493  29.206   7.950
 5700POPC   C4B32494  25.559  29.210   7.650
 5701POPC   NC332495  30.669  33.001   9.450
 5701POPC   PO432496  30.744  32.979   9.150
 5701POPC   GL132497  30.660  33.031   8.850
 5701POPC   GL232498  30.839  32.893   8.850
 5701POPC   C1A32499  30.690  33.064   8.550
 5701POPC   D2A32500  30.715  32.992   8.250
 5701POPC   C3A32501  30.668  33.023   7.950
 5701POPC   C4A32502  30.724  32.988   7.650
 5701POPC   C1B32503  30.890  32.905   8.550
 5701POPC   C2B32504  30.864  32.845   8.250
 5701POPC   C3B32505  30.894  32.906   7.950
 5701POPC   C4B32506  30.925  32.873   7.650
 5702POPC   NC332507  23.755   2.768   9.450
 5702POPC   PO432508  23.718   2.784   9.150
 5702POPC   GL132509  23.747   2.746   8.850
 5702POPC   GL232510  23.733   2.618   8.850
 5702POPC   C1A32511  23.748   2.811   8.550
 5702POPC   D2A32512  23.753   2.802   8.250
 5702POPC   C3A32513  23.720   2.807   7.950
 5702POPC   C4A32514  23.680   2.786   7.650
 5702POPC   C1B32515  23.777   2.548   8.550
 5702POPC   C2B32516  23.779   2.507   8.250
 5702POPC   C3B32517  23.824   2.574   7.950
 5702POPC   C4B32518  23.826   2.545   7.650
 5703POPC   NC332519  40.030  12.885   9.450
 5703POPC   PO432520  39.994  12.824   9.150
 5703POPC   GL132521  40.055  12.897   8.850
 5703POPC   GL232522  39.893  12.732   8.850
 5703POPC   C1A32523  39.965  12.834   8.550
 5703POPC   D2A32524  40.052  12.878   8.250
 5703POPC   C3A32525  39.977  12.891   7.950
 5703POPC   C4A32526  39.976  12.886   7.650
 5703POPC   C1B32527  39.835  12.664   8.550
 5703POPC   C2B32528  39.770  12.703   8.250
 5703POPC   C3B32529  39.832  12.737   7.950
 5703POPC   C4B32530  39.811  12.674   7.650
 5704POPC   NC332531   7.448  11.259   9.450
 5704POPC   PO432532   7.430  11.282   9.150
 5704POPC   GL132533   7.454  11.292   8.850
 5704POPC   GL232534   7.533  11.249   8.850
 5704POPC   C1A32535   7.442  11.279   8.550
 5704POPC   D2A32536   7.399  11.350   8.250
 5704POPC   C3A32537   7.458  11.313   7.950
 5704POPC   C4A32538   7.467  11.338   7.650
 5704POPC   C1B32539   7.636  11.155   8.550
 5704POPC   C2B32540   7.648  11.222   8.250
 5704POPC   C3B32541   7.647  11.177   7.950
 5704POPC   C4B32542   7.607  11.206   7.650
 5705POPC   NC332543   4.323  38.491   9.450
 5705POPC   PO432544   4.292  38.445   9.150
 5705POPC   GL132545   4.351  38.475   8.850
 5705POPC   GL232546   4.406  38.551   8.850
 5705POPC   C1A32547   4.349  38.477   8.550
 5705POPC   D2A32548   4.362  38.503   8.250
 5705POPC   C3A32549   4.315  38.447   7.950
 5705POPC   C4A32550   4.317  38.503   7.650
 5705POPC   C1B32551   4.566  38.531   8.550
 5705POPC   C2B32552   4.504  38.532   8.250
 5705POPC   C3B32553   4.579  38.515   7.950
 5705POPC   C4B32554   4.532  38.556   7.650
 5706POPC   NC332555  40.776   3.570   9.450
 5706POPC   PO432556  40.741   3.511   9.150
 5706POPC   GL132557  40.781   3.498   8.850
 5706POPC   GL232558  40.705   3.432   8.850
 5706POPC   C1A32559  40.826   3.535   8.550
 5706POPC   D2A32560  40.766   3.563   8.250
 5706POPC   C3A32561  40.741   3.512   7.950
 5706POPC   C4A32562  40.816   3.588   7.650
 5706POPC   C1B32563  40.582   3.322   8.550
 5706POPC   C2B32564  40.646   3.321   8.250
 5706POPC   C3B32565  40.562   3.338   7.950
 5706POPC   C4B32566  40.597   3.406   7.650
 5707POPC   NC332567   9.768  43.084   9.450
 5707POPC   PO432568   9.782  43.085   9.150
 5707POPC   GL132569   9.760  43.130   8.850
 5707POPC   GL232570   9.742  42.971   8.850
 5707POPC   C1A32571   9.789  43.131   8.550
 5707POPC   D2A32572   9.765  43.134   8.250
 5707POPC   C3A32573   9.752  43.060   7.950
 5707POPC   C4A32574   9.722  43.136   7.650
 5707POPC   C1B32575   9.663  42.871   8.550
 5707POPC   C2B32576   9.598  42.894   8.250
 5707POPC   C3B32577   9.683  42.852   7.950
 5707POPC   C4B32578   9.597  42.870   7.650
 5708POPC   NC332579  19.032   0.476   9.450
 5708POPC   PO432580  19.042   0.475   9.150
 5708POPC   GL132581  19.084   0.432   8.850
 5708POPC   GL232582  19.184   0.308   8.850
 5708POPC   C1A32583  19.014   0.399   8.550
 5708POPC   D2A32584  19.042   0.400   8.250
 5708POPC   C3A32585  19.043   0.436   7.950
 5708POPC   C4A32586  19.011   0.432   7.650
 5708POPC   C1B32587  19.177   0.245   8.550
 5708POPC   C2B32588  19.266   0.287   8.250
 5708POPC   C3B32589  19.220   0.224   7.950
 5708POPC   C4B32590  19.264   0.249   7.650
 5709POPC   NC332591  33.833   9.743   9.450
 5709POPC   PO432592  33.821   9.736   9.150
 5709POPC   GL132593  33.787   9.766   8.850
 5709POPC   GL232594  33.869   9.704   8.850
 5709POPC   C1A32595  33.839   9.780   8.550
 5709POPC   D2A32596  33.760   9.770   8.250
 5709POPC   C3A32597  33.755   9.794   7.950
 5709POPC   C4A32598  33.782   9.796   7.650
 5709POPC   C1B32599  34.051   9.600   8.550
 5709POPC   C2B32600  34.014   9.581   8.250
 5709POPC   C3B32601  34.018   9.583   7.950
 5709POPC   C4B32602  34.051   9.636   7.650
 5710POPC   NC332603  27.589   3.555   9.450
 5710POPC   PO432604  27.577   3.496   9.150
 5710POPC   GL132605  27.623   3.536   8.850
 5710POPC   GL232606  27.750   3.532   8.850
 5710POPC   C1A32607  27.588   3.492   8.550
 5710POPC   D2A32608  27.635   3.590   8.250
 5710POPC   C3A32609  27.633   3.536   7.950
 5710POPC   C4A32610  27.632   3.551   7.650
 5710POPC   C1B32611  27.806   3.393   8.550
 5710POPC   C2B32612  27.766   3.432   8.250
 5710POPC   C3B32613  27.840   3.447   7.950
 5710POPC   C4B32614  27.805   3.422   7.650
 5711POPC   NC332615  43.087  42.369   9.450
 5711POPC   PO432616  43.077  42.296   9.150
 5711POPC   GL132617  43.102  42.333   8.850
 5711POPC   GL232618  43.251  42.263   8.850
 5711POPC   C1A32619  43.149  42.334   8.550
 5711POPC   D2A32620  43.110  42.322   8.250
 5711POPC   C3A32621  43.084  42.340   7.950
 5711POPC   C4A32622  43.155  42.285   7.650
 5711POPC   C1B32623  43.317  42.202   8.550
 5711POPC   C2B32624  43.282  42.228   8.250
 5711POPC   C3B32625  43.366  42.167   7.950
 5711POPC   C4B32626  43.366  42.239   7.650
 5712POPC   NC332627  11.343  40.766   9.450
 5712POPC   PO432628  11.259  40.803   9.150
 5712POPC   GL132629  11.288  40.830   8.850
 5712POPC   GL232630  11.226  40.855   8.850
 5712POPC   C1A32631  11.262  40.743   8.550
 5712POPC   D2A32632  11.264  40.736   8.250
 5712POPC   C3A32633  11.252  40.761   7.950
 5712POPC   C4A32634  11.255  40.763   7.650
 5712POPC   C1B32635  11.116  40.881   8.550
 5712POPC   C2B32636  11.063  40.864   8.250
 5712POPC   C3B32637  11.029  40.931   7.950
 5712POPC   C4B32638  11.047  40.882   7.650
 5713POPC   NC332639  41.599  29.115   9.450
 5713POPC   PO432640  41.605  29.155   9.150
 5713POPC   GL132641  41.515  29.182   8.850
 5713POPC   GL232642  41.448  29.095   8.850
 5713POPC   C1A32643  41.535  29.130   8.550
 5713POPC   D2A32644  41.563  29.101   8.250
 5713POPC   C3A32645  41.565  29.132   7.950
 5713POPC   C4A32646  41.565  29.116   7.650
 5713POPC   C1B32647  41.409  28.946   8.550
 5713POPC   C2B32648  41.414  28.991   8.250
 5713POPC   C3B32649  41.377  28.917   7.950
 5713POPC   C4B32650  41.342  28.950   7.650
 5714POPC   NC332651   7.383  34.548   9.450
 5714POPC   PO432652   7.447  34.555   9.150
 5714POPC   GL132653   7.419  34.594   8.850
 5714POPC   GL232654   7.344  34.478   8.850
 5714POPC   C1A32655   7.432  34.530   8.550
 5714POPC   D2A32656   7.393  34.539   8.250
 5714POPC   C3A32657   7.389  34.528   7.950
 5714POPC   C4A32658   7.374  34.542   7.650
 5714POPC   C1B32659   7.248  34.406   8.550
 5714POPC   C2B32660   7.199  34.410   8.250
 5714POPC   C3B32661   7.198  34.380   7.950
 5714POPC   C4B32662   7.216  34.369   7.650
 5715POPC   NC332663  29.881  12.856   9.450
 5715POPC   PO432664  29.928  12.815   9.150
 5715POPC   GL132665  29.893  12.852   8.850
 5715POPC   GL232666  29.826  12.954   8.850
 5715POPC   C1A32667  29.958  12.804   8.550
 5715POPC   D2A32668  29.917  12.886   8.250
 5715POPC   C3A32669  29.888  12.877   7.950
 5715POPC   C4A32670  29.880  12.838   7.650
 5715POPC   C1B32671  29.702  12.938   8.550
 5715POPC   C2B32672  29.660  13.021   8.250
 5715POPC   C3B32673  29.665  12.946   7.950
 5715POPC   C4B32674  29.687  12.985   7.650
 5716POPC   NC332675  20.637  13.632   9.450
 5716POPC   PO432676  20.648  13.589   9.150
 5716POPC   GL132677  20.613  13.584   8.850
 5716POPC   GL232678  20.756  13.712   8.850
 5716POPC   C1A32679  20.581  13.653   8.550
 5716POPC   D2A32680  20.607  13.601   8.250
 5716POPC   C3A32681  20.579  13.637   7.950
 5716POPC   C4A32682  20.603  13.616   7.650
 5716POPC   C1B32683  20.842  13.720   8.550
 5716POPC   C2B32684  20.828  13.737   8.250
 5716POPC   C3B32685  20.873  13.681   7.950
 5716POPC   C4B32686  20.792  13.681   7.650
 5717POPC   NC332687  40.048  18.250   9.450
 5717POPC   PO432688  40.047  18.235   9.150
 5717POPC   GL132689  40.021  18.284   8.850
 5717POPC   GL232690  40.030  18.124   8.850
 5717POPC   C1A32691  39.966  18.328   8.550
 5717POPC   D2A32692  39.963  18.282   8.250
 5717POPC   C3A32693  40.003  18.292   7.950
 5717POPC   C4A32694  40.001  18.267   7.650
 5717POPC   C1B32695  40.068  18.079   8.550
 5717POPC   C2B32696  40.090  18.039   8.250
 5717POPC   C3B32697  40.106  18.061   7.950
 5717POPC   C4B32698  40.047  18.002   7.650
 5718POPC   NC332699  43.924  40.810   9.450
 5718POPC   PO432700  43.899  40.764   9.150
 5718POPC   GL132701  43.841  40.749   8.850
 5718POPC   GL232702  43.934  40.943   8.850
 5718POPC   C1A32703  43.872  40.737   8.550
 5718POPC   D2A32704  43.842  40.774   8.250
 5718POPC   C3A32705  43.891  40.781   7.950
 5718POPC   C4A32706  43.908  40.762   7.650
 5718POPC   C1B32707  43.921  41.032   8.550
 5718POPC   C2B32708  43.905  41.057   8.250
 5718POPC   C3B32709  43.938  41.056   7.950
 5718POPC   C4B32710  43.925  41.069   7.650
 5719POPC   NC332711  43.872  28.389   9.450
 5719POPC   PO432712  43.936  28.369   9.150
 5719POPC   GL132713  43.902  28.394   8.850
 5719POPC   GL232714  43.833  28.519   8.850
 5719POPC   C1A32715  43.915  28.324   8.550
 5719POPC   D2A32716  43.856  28.411   8.250
 5719POPC   C3A32717  43.877  28.410   7.950
 5719POPC   C4A32718  43.884  28.381   7.650
 5719POPC   C1B32719  43.721  28.554   8.550
 5719POPC   C2B32720  43.696  28.587   8.250
 5719POPC   C3B32721  43.696  28.550   7.950
 5719POPC   C4B32722  43.753  28.577   7.650
 5720POPC   NC332723  33.838  13.673   9.450
 5720POPC   PO432724  33.846  13.677   9.150
 5720POPC   GL132725  33.827  13.602   8.850
 5720POPC   GL232726  33.954  13.591   8.850
 5720POPC   C1A32727  33.808  13.610   8.550
 5720POPC   D2A32728  33.827  13.599   8.250
 5720POPC   C3A32729  33.780  13.670   7.950
 5720POPC   C4A32730  33.839  13.626   7.650
 5720POPC   C1B32731  34.090  13.567   8.550
 5720POPC   C2B32732  34.018  13.591   8.250
 5720POPC   C3B32733  34.017  13.623   7.950
 5720POPC   C4B32734  34.033  13.545   7.650
 5721POPC   NC332735  19.839   2.720   9.450
 5721POPC   PO432736  19.872   2.803   9.150
 5721POPC   GL132737  19.865   2.794   8.850
 5721POPC   GL232738  19.990   2.749   8.850
 5721POPC   C1A32739  19.812   2.782   8.550
 5721POPC   D2A32740  19.834   2.748   8.250
 5721POPC   C3A32741  19.833   2.740   7.950
 5721POPC   C4A32742  19.852   2.720   7.650
 5721POPC   C1B32743  20.057   2.696   8.550
 5721POPC   C2B32744  20.050   2.676   8.250
 5721POPC   C3B32745  20.108   2.670   7.950
 5721POPC   C4B32746  20.086   2.640   7.650
 5722POPC   NC332747  17.494   5.919   9.450
 5722POPC   PO432748  17.497   5.865   9.150
 5722POPC   GL132749  17.478   5.896   8.850
 5722POPC   GL232750  17.505   5.739   8.850
 5722POPC   C1A32751  17.461   5.910   8.550
 5722POPC   D2A32752  17.524   5.884   8.250
 5722POPC   C3A32753  17.528   5.821   7.950
 5722POPC   C4A32754  17.525   5.831   7.650
 5722POPC   C1B32755  17.514   5.642   8.550
 5722POPC   C2B32756  17.551   5.580   8.250
 5722POPC   C3B32757  17.559   5.656   7.950
 5722POPC   C4B32758  17.591   5.598   7.650
 5723POPC   NC332759  36.887   2.750   9.450
 5723POPC   PO432760  36.936   2.762   9.150
 5723POPC   GL132761  36.866   2.798   8.850
 5723POPC   GL232762  36.963   2.901   8.850
 5723POPC   C1A32763  36.946   2.746   8.550
 5723POPC   D2A32764  36.892   2.749   8.250
 5723POPC   C3A32765  36.859   2.750   7.950
 5723POPC   C4A32766  36.928   2.756   7.650
 5723POPC   C1B32767  37.097   2.978   8.550
 5723POPC   C2B32768  37.076   2.972   8.250
 5723POPC   C3B32769  37.006   3.014   7.950
 5723POPC   C4B32770  37.002   2.939   7.650
 5724POPC   NC332771  15.158  35.388   9.450
 5724POPC   PO432772  15.216  35.318   9.150
 5724POPC   GL132773  15.202  35.316   8.850
 5724POPC   GL232774  15.319  35.402   8.850
 5724POPC   C1A32775  15.137  35.368   8.550
 5724POPC   D2A32776  15.135  35.341   8.250
 5724POPC   C3A32777  15.219  35.325   7.950
 5724POPC   C4A32778  15.187  35.367   7.650
 5724POPC   C1B32779  15.335  35.523   8.550
 5724POPC   C2B32780  15.320  35.537   8.250
 5724POPC   C3B32781  15.327  35.496   7.950
 5724POPC   C4B32782  15.339  35.524   7.650
 5725POPC   NC332783  36.881  30.734   9.450
 5725POPC   PO432784  36.923  30.657   9.150
 5725POPC   GL132785  36.868  30.649   8.850
 5725POPC   GL232786  36.882  30.824   8.850
 5725POPC   C1A32787  36.879  30.658   8.550
 5725POPC   D2A32788  36.926  30.740   8.250
 5725POPC   C3A32789  36.903  30.739   7.950
 5725POPC   C4A32790  36.880  30.740   7.650
 5725POPC   C1B32791  36.862  30.930   8.550
 5725POPC   C2B32792  36.812  30.940   8.250
 5725POPC   C3B32793  36.808  30.895   7.950
 5725POPC   C4B32794  36.841  30.980   7.650
 5726POPC   NC332795  33.803  44.708   9.450
 5726POPC   PO432796  33.755  44.640   9.150
 5726POPC   GL132797  33.757  44.699   8.850
 5726POPC   GL232798  33.808  44.547   8.850
 5726POPC   C1A32799  33.790  44.690   8.550
 5726POPC   D2A32800  33.762  44.665   8.250
 5726POPC   C3A32801  33.845  44.634   7.950
 5726POPC   C4A32802  33.760  44.673   7.650
 5726POPC   C1B32803  33.850  44.426   8.550
 5726POPC   C2B32804  33.798  44.393   8.250
 5726POPC   C3B32805  33.812  44.457   7.950
 5726POPC   C4B32806  33.801  44.421   7.650
 5727POPC   NC332807   0.481  19.873   9.450
 5727POPC   PO432808   0.433  19.847   9.150
 5727POPC   GL132809   0.481  19.839   8.850
 5727POPC   GL232810   0.468  19.919   8.850
 5727POPC   C1A32811   0.398  19.852   8.550
 5727POPC   D2A32812   0.472  19.865   8.250
 5727POPC   C3A32813   0.398  19.875   7.950
 5727POPC   C4A32814   0.417  19.798   7.650
 5727POPC   C1B32815   0.501  20.050   8.550
 5727POPC   C2B32816   0.441  20.062   8.250
 5727POPC   C3B32817   0.418  20.105   7.950
 5727POPC   C4B32818   0.439  20.118   7.650
 5728POPC   NC332819  43.149   9.743   9.450
 5728POPC   PO432820  43.083   9.754   9.150
 5728POPC   GL132821  43.151   9.738   8.850
 5728POPC   GL232822  43.094   9.614   8.850
 5728POPC   C1A32823  43.102   9.731   8.550
 5728POPC   D2A32824  43.091   9.735   8.250
 5728POPC   C3A32825  43.094   9.793   7.950
 5728POPC   C4A32826  43.119   9.780   7.650
 5728POPC   C1B32827  42.949   9.571   8.550
 5728POPC   C2B32828  43.034   9.575   8.250
 5728POPC   C3B32829  42.956   9.515   7.950
 5728POPC   C4B32830  42.998   9.531   7.650
 5729POPC   NC332831  35.318  11.317   9.450
 5729POPC   PO432832  35.349  11.283   9.150
 5729POPC   GL132833  35.346  11.263   8.850
 5729POPC   GL232834  35.408  11.241   8.850
 5729POPC   C1A32835  35.312  11.284   8.550
 5729POPC   D2A32836  35.324  11.289   8.250
 5729POPC   C3A32837  35.402  11.303   7.950
 5729POPC   C4A32838  35.368  11.302   7.650
 5729POPC   C1B32839  35.463  11.127   8.550
 5729POPC   C2B32840  35.439  11.084   8.250
 5729POPC   C3B32841  35.525  11.049   7.950
 5729POPC   C4B32842  35.488  11.084   7.650
 5730POPC   NC332843  26.837  24.503   9.450
 5730POPC   PO432844  26.803  24.450   9.150
 5730POPC   GL132845  26.855  24.444   8.850
 5730POPC   GL232846  26.702  24.409   8.850
 5730POPC   C1A32847  26.773  24.535   8.550
 5730POPC   D2A32848  26.770  24.531   8.250
 5730POPC   C3A32849  26.815  24.484   7.950
 5730POPC   C4A32850  26.866  24.450   7.650
 5730POPC   C1B32851  26.660  24.272   8.550
 5730POPC   C2B32852  26.666  24.276   8.250
 5730POPC   C3B32853  26.666  24.347   7.950
 5730POPC   C4B32854  26.675  24.265   7.650
 5731POPC   NC332855  29.898   1.944   9.450
 5731POPC   PO432856  29.942   2.024   9.150
 5731POPC   GL132857  29.922   1.964   8.850
 5731POPC   GL232858  29.949   1.817   8.850
 5731POPC   C1A32859  29.895   1.973   8.550
 5731POPC   D2A32860  29.960   2.012   8.250
 5731POPC   C3A32861  29.956   1.997   7.950
 5731POPC   C4A32862  29.890   1.953   7.650
 5731POPC   C1B32863  29.911   1.730   8.550
 5731POPC   C2B32864  29.967   1.721   8.250
 5731POPC   C3B32865  29.913   1.764   7.950
 5731POPC   C4B32866  29.976   1.724   7.650
 5732POPC   NC332867  22.119   2.019   9.450
 5732POPC   PO432868  22.210   1.982   9.150
 5732POPC   GL132869  22.145   1.966   8.850
 5732POPC   GL232870  22.267   2.033   8.850
 5732POPC   C1A32871  22.115   1.953   8.550
 5732POPC   D2A32872  22.180   2.032   8.250
 5732POPC   C3A32873  22.146   1.951   7.950
 5732POPC   C4A32874  22.134   2.029   7.650
 5732POPC   C1B32875  22.383   2.003   8.550
 5732POPC   C2B32876  22.407   2.006   8.250
 5732POPC   C3B32877  22.396   1.995   7.950
 5732POPC   C4B32878  22.428   2.011   7.650
 5733POPC   NC332879  22.200  26.050   9.450
 5733POPC   PO432880  22.127  26.039   9.150
 5733POPC   GL132881  22.147  26.031   8.850
 5733POPC   GL232882  22.044  26.160   8.850
 5733POPC   C1A32883  22.194  26.086   8.550
 5733POPC   D2A32884  22.140  26.069   8.250
 5733POPC   C3A32885  22.138  26.080   7.950
 5733POPC   C4A32886  22.173  26.053   7.650
 5733POPC   C1B32887  22.008  26.238   8.550
 5733POPC   C2B32888  21.999  26.188   8.250
 5733POPC   C3B32889  21.991  26.169   7.950
 5733POPC   C4B32890  21.998  26.243   7.650
 5734POPC   NC332891  16.766  27.605   9.450
 5734POPC   PO432892  16.759  27.577   9.150
 5734POPC   GL132893  16.779  27.584   8.850
 5734POPC   GL232894  16.808  27.510   8.850
 5734POPC   C1A32895  16.705  27.608   8.550
 5734POPC   D2A32896  16.737  27.607   8.250
 5734POPC   C3A32897  16.715  27.550   7.950
 5734POPC   C4A32898  16.778  27.545   7.650
 5734POPC   C1B32899  16.964  27.509   8.550
 5734POPC   C2B32900  16.931  27.473   8.250
 5734POPC   C3B32901  16.949  27.491   7.950
 5734POPC   C4B32902  16.956  27.462   7.650
 5735POPC   NC332903  26.052   8.933   9.450
 5735POPC   PO432904  26.024   8.977   9.150
 5735POPC   GL132905  26.069   8.951   8.850
 5735POPC   GL232906  26.113   9.020   8.850
 5735POPC   C1A32907  26.076   8.998   8.550
 5735POPC   D2A32908  26.037   8.988   8.250
 5735POPC   C3A32909  26.001   9.001   7.950
 5735POPC   C4A32910  26.058   8.971   7.650
 5735POPC   C1B32911  26.230   9.106   8.550
 5735POPC   C2B32912  26.285   9.107   8.250
 5735POPC   C3B32913  26.250   9.041   7.950
 5735POPC   C4B32914  26.263   9.036   7.650
 5736POPC   NC332915   6.692  27.609   9.450
 5736POPC   PO432916   6.624  27.621   9.150
 5736POPC   GL132917   6.648  27.589   8.850
 5736POPC   GL232918   6.530  27.664   8.850
 5736POPC   C1A32919   6.597  27.587   8.550
 5736POPC   D2A32920   6.638  27.562   8.250
 5736POPC   C3A32921   6.626  27.643   7.950
 5736POPC   C4A32922   6.658  27.643   7.650
 5736POPC   C1B32923   6.442  27.797   8.550
 5736POPC   C2B32924   6.411  27.729   8.250
 5736POPC   C3B32925   6.480  27.768   7.950
 5736POPC   C4B32926   6.483  27.706   7.650
 5737POPC   NC332927  19.057  26.080   9.450
 5737POPC   PO432928  19.034  26.065   9.150
 5737POPC   GL132929  19.064  26.075   8.850
 5737POPC   GL232930  19.016  25.941   8.850
 5737POPC   C1A32931  19.092  26.011   8.550
 5737POPC   D2A32932  19.069  26.004   8.250
 5737POPC   C3A32933  19.047  26.083   7.950
 5737POPC   C4A32934  19.055  26.088   7.650
 5737POPC   C1B32935  18.928  25.857   8.550
 5737POPC   C2B32936  18.902  25.835   8.250
 5737POPC   C3B32937  18.947  25.834   7.950
 5737POPC   C4B32938  18.966  25.811   7.650
 5738POPC   NC332939  12.118  33.777   9.450
 5738POPC   PO432940  12.090  33.772   9.150
 5738POPC   GL132941  12.081  33.824   8.850
 5738POPC   GL232942  11.940  33.765   8.850
 5738POPC   C1A32943  12.032  33.846   8.550
 5738POPC   D2A32944  12.041  33.783   8.250
 5738POPC   C3A32945  12.065  33.817   7.950
 5738POPC   C4A32946  12.047  33.804   7.650
 5738POPC   C1B32947  11.835  33.796   8.550
 5738POPC   C2B32948  11.845  33.784   8.250
 5738POPC   C3B32949  11.808  33.749   7.950
 5738POPC   C4B32950  11.826  33.759   7.650
 5739POPC   NC332951  36.145  39.194   9.450
 5739POPC   PO432952  36.108  39.275   9.150
 5739POPC   GL132953  36.172  39.184   8.850
 5739POPC   GL232954  36.155  39.116   8.850
 5739POPC   C1A32955  36.170  39.241   8.550
 5739POPC   D2A32956  36.091  39.220   8.250
 5739POPC   C3A32957  36.172  39.209   7.950
 5739POPC   C4A32958  36.149  39.207   7.650
 5739POPC   C1B32959  36.267  38.981   8.550
 5739POPC   C2B32960  36.253  39.025   8.250
 5739POPC   C3B32961  36.290  39.017   7.950
 5739POPC   C4B32962  36.317  39.034   7.650
 5740POPC   NC332963  40.752  39.229   9.450
 5740POPC   PO432964  40.805  39.246   9.150
 5740POPC   GL132965  40.808  39.233   8.850
 5740POPC   GL232966  40.703  39.143   8.850
 5740POPC   C1A32967  40.821  39.263   8.550
 5740POPC   D2A32968  40.801  39.265   8.250
 5740POPC   C3A32969  40.771  39.193   7.950
 5740POPC   C4A32970  40.740  39.217   7.650
 5740POPC   C1B32971  40.638  39.029   8.550
 5740POPC   C2B32972  40.604  39.112   8.250
 5740POPC   C3B32973  40.610  39.030   7.950
 5740POPC   C4B32974  40.609  39.110   7.650
 5741POPC   NC332975  22.185  33.800   9.450
 5741POPC   PO432976  22.129  33.769   9.150
 5741POPC   GL132977  22.141  33.753   8.850
 5741POPC   GL232978  22.204  33.633   8.850
 5741POPC   C1A32979  22.162  33.804   8.550
 5741POPC   D2A32980  22.115  33.781   8.250
 5741POPC   C3A32981  22.187  33.767   7.950
 5741POPC   C4A32982  22.123  33.839   7.650
 5741POPC   C1B32983  22.192  33.575   8.550
 5741POPC   C2B32984  22.254  33.548   8.250
 5741POPC   C3B32985  22.200  33.534   7.950
 5741POPC   C4B32986  22.193  33.591   7.650
 5742POPC   NC332987   3.513  30.709   9.450
 5742POPC   PO432988   3.590  30.659   9.150
 5742POPC   GL132989   3.526  30.726   8.850
 5742POPC   GL232990   3.508  30.564   8.850
 5742POPC   C1A32991   3.549  30.705   8.550
 5742POPC   D2A32992   3.503  30.707   8.250
 5742POPC   C3A32993   3.556  30.704   7.950
 5742POPC   C4A32994   3.513  30.673   7.650
 5742POPC   C1B32995   3.364  30.465   8.550
 5742POPC   C2B32996   3.390  30.552   8.250
 5742POPC   C3B32997   3.407  30.495   7.950
 5742POPC   C4B32998   3.378  30.513   7.650
 5743POPC   NC332999  15.961  44.627   9.450
 5743POPC   PO433000  15.935  44.707   9.150
 5743POPC   GL133001  15.938  44.660   8.850
 5743POPC   GL233002  15.786  44.705   8.850
 5743POPC   C1A33003  15.961  44.681   8.550
 5743POPC   D2A33004  15.912  44.702   8.250
 5743POPC   C3A33005  15.998  44.659   7.950
 5743POPC   C4A33006  15.927  44.616   7.650
 5743POPC   C1B33007  15.734  44.743   8.550
 5743POPC   C2B33008  15.744  44.678   8.250
 5743POPC   C3B33009  15.701  44.654   7.950
 5743POPC   C4B33010  15.670  44.669   7.650
 5744POPC   NC333011  12.853  12.860   9.450
 5744POPC   PO433012  12.805  12.811   9.150
 5744POPC   GL133013  12.815  12.848   8.850
 5744POPC   GL233014  12.920  12.714   8.850
 5744POPC   C1A33015  12.874  12.807   8.550
 5744POPC   D2A33016  12.838  12.884   8.250
 5744POPC   C3A33017  12.870  12.860   7.950
 5744POPC   C4A33018  12.897  12.827   7.650
 5744POPC   C1B33019  12.995  12.674   8.550
 5744POPC   C2B33020  12.999  12.631   8.250
 5744POPC   C3B33021  13.036  12.690   7.950
 5744POPC   C4B33022  13.014  12.708   7.650
 5745POPC   NC333023  16.751  21.423   9.450
 5745POPC   PO433024  16.743  21.364   9.150
 5745POPC   GL133025  16.712  21.433   8.850
 5745POPC   GL233026  16.634  21.482   8.850
 5745POPC   C1A33027  16.736  21.402   8.550
 5745POPC   D2A33028  16.714  21.392   8.250
 5745POPC   C3A33029  16.779  21.358   7.950
 5745POPC   C4A33030  16.689  21.368   7.650
 5745POPC   C1B33031  16.572  21.639   8.550
 5745POPC   C2B33032  16.623  21.582   8.250
 5745POPC   C3B33033  16.565  21.551   7.950
 5745POPC   C4B33034  16.641  21.564   7.650
 5746POPC   NC333035  41.582  17.522   9.450
 5746POPC   PO433036  41.524  17.509   9.150
 5746POPC   GL133037  41.556  17.499   8.850
 5746POPC   GL233038  41.399  17.481   8.850
 5746POPC   C1A33039  41.540  17.462   8.550
 5746POPC   D2A33040  41.575  17.497   8.250
 5746POPC   C3A33041  41.568  17.457   7.950
 5746POPC   C4A33042  41.577  17.523   7.650
 5746POPC   C1B33043  41.337  17.571   8.550
 5746POPC   C2B33044  41.274  17.562   8.250
 5746POPC   C3B33045  41.309  17.533   7.950
 5746POPC   C4B33046  41.344  17.502   7.650
 5747POPC   NC333047  15.924  35.318   9.450
 5747POPC   PO433048  15.938  35.340   9.150
 5747POPC   GL133049  15.931  35.390   8.850
 5747POPC   GL233050  16.074  35.398   8.850
 5747POPC   C1A33051  15.939  35.393   8.550
 5747POPC   D2A33052  15.960  35.386   8.250
 5747POPC   C3A33053  15.975  35.360   7.950
 5747POPC   C4A33054  15.981  35.376   7.650
 5747POPC   C1B33055  16.207  35.415   8.550
 5747POPC   C2B33056  16.154  35.452   8.250
 5747POPC   C3B33057  16.161  35.465   7.950
 5747POPC   C4B33058  16.221  35.401   7.650
 5748POPC   NC333059  43.112   2.019   9.450
 5748POPC   PO433060  43.103   2.037   9.150
 5748POPC   GL133061  43.098   1.995   8.850
 5748POPC   GL233062  43.188   2.055   8.850
 5748POPC   C1A33063  43.152   1.960   8.550
 5748POPC   D2A33064  43.144   1.980   8.250
 5748POPC   C3A33065  43.158   1.971   7.950
 5748POPC   C4A33066  43.138   2.039   7.650
 5748POPC   C1B33067  43.349   2.097   8.550
 5748POPC   C2B33068  43.361   2.169   8.250
 5748POPC   C3B33069  43.368   2.082   7.950
 5748POPC   C4B33070  43.293   2.105   7.650
 5749POPC   NC333071  15.963   2.745   9.450
 5749POPC   PO433072  15.998   2.721   9.150
 5749POPC   GL133073  15.907   2.799   8.850
 5749POPC   GL233074  16.020   2.787   8.850
 5749POPC   C1A33075  15.948   2.777   8.550
 5749POPC   D2A33076  15.974   2.718   8.250
 5749POPC   C3A33077  15.997   2.751   7.950
 5749POPC   C4A33078  15.940   2.750   7.650
 5749POPC   C1B33079  16.137   2.926   8.550
 5749POPC   C2B33080  16.176   2.934   8.250
 5749POPC   C3B33081  16.128   2.892   7.950
 5749POPC   C4B33082  16.155   2.946   7.650
 5750POPC   NC333083  12.866  43.085   9.450
 5750POPC   PO433084  12.859  43.151   9.150
 5750POPC   GL133085  12.861  43.073   8.850
 5750POPC   GL233086  12.786  43.223   8.850
 5750POPC   C1A33087  12.821  43.137   8.550
 5750POPC   D2A33088  12.835  43.134   8.250
 5750POPC   C3A33089  12.868  43.109   7.950
 5750POPC   C4A33090  12.835  43.112   7.650
 5750POPC   C1B33091  12.645  43.285   8.550
 5750POPC   C2B33092  12.603  43.219   8.250
 5750POPC   C3B33093  12.622  43.261   7.950
 5750POPC   C4B33094  12.625  43.245   7.650
 5751POPC   NC333095  14.423  36.149   9.450
 5751POPC   PO433096  14.382  36.121   9.150
 5751POPC   GL133097  14.373  36.097   8.850
 5751POPC   GL233098  14.466  36.197   8.850
 5751POPC   C1A33099  14.439  36.114   8.550
 5751POPC   D2A33100  14.438  36.130   8.250
 5751POPC   C3A33101  14.389  36.085   7.950
 5751POPC   C4A33102  14.432  36.167   7.650
 5751POPC   C1B33103  14.607  36.310   8.550
 5751POPC   C2B33104  14.574  36.269   8.250
 5751POPC   C3B33105  14.612  36.242   7.950
 5751POPC   C4B33106  14.651  36.312   7.650
 5752POPC   NC333107  26.810  42.340   9.450
 5752POPC   PO433108  26.836  42.332   9.150
 5752POPC   GL133109  26.849  42.298   8.850
 5752POPC   GL233110  26.880  42.466   8.850
 5752POPC   C1A33111  26.786  42.312   8.550
 5752POPC   D2A33112  26.833  42.308   8.250
 5752POPC   C3A33113  26.859  42.316   7.950
 5752POPC   C4A33114  26.786  42.318   7.650
 5752POPC   C1B33115  26.936  42.511   8.550
 5752POPC   C2B33116  26.907  42.586   8.250
 5752POPC   C3B33117  26.891  42.562   7.950
 5752POPC   C4B33118  26.926  42.577   7.650
 5753POPC   NC333119   7.419  15.205   9.450
 5753POPC   PO433120   7.409  15.161   9.150
 5753POPC   GL133121   7.415  15.191   8.850
 5753POPC   GL233122   7.314  15.198   8.850
 5753POPC   C1A33123   7.459  15.143   8.550
 5753POPC   D2A33124   7.468  15.225   8.250
 5753POPC   C3A33125   7.446  15.135   7.950
 5753POPC   C4A33126   7.400  15.141   7.650
 5753POPC   C1B33127   7.187  15.111   8.550
 5753POPC   C2B33128   7.172  15.140   8.250
 5753POPC   C3B33129   7.205  15.106   7.950
 5753POPC   C4B33130   7.129  15.101   7.650
 5754POPC   NC333131  14.402  12.805   9.450
 5754POPC   PO433132  14.358  12.836   9.150
 5754POPC   GL133133  14.375  12.802   8.850
 5754POPC   GL233134  14.287  12.925   8.850
 5754POPC   C1A33135  14.424  12.835   8.550
 5754POPC   D2A33136  14.374  12.878   8.250
 5754POPC   C3A33137  14.408  12.854   7.950
 5754POPC   C4A33138  14.421  12.889   7.650
 5754POPC   C1B33139  14.181  12.965   8.550
 5754POPC   C2B33140  14.144  12.935   8.250
 5754POPC   C3B33141  14.187  12.948   7.950
 5754POPC   C4B33142  14.167  12.928   7.650
 5755POPC   NC333143  33.790  26.018   9.450
 5755POPC   PO433144  33.768  25.994   9.150
 5755POPC   GL133145  33.789  26.030   8.850
 5755POPC   GL233146  33.868  26.102   8.850
 5755POPC   C1A33147  33.783  26.007   8.550
 5755POPC   D2A33148  33.787  26.035   8.250
 5755POPC   C3A33149  33.793  25.993   7.950
 5755POPC   C4A33150  33.833  26.022   7.650
 5755POPC   C1B33151  33.979  26.266   8.550
 5755POPC   C2B33152  33.928  26.275   8.250
 5755POPC   C3B33153  33.948  26.203   7.950
 5755POPC   C4B33154  33.942  26.246   7.650
 5756POPC   NC333155  34.544   5.887   9.450
 5756POPC   PO433156  34.599   5.845   9.150
 5756POPC   GL133157  34.578   5.858   8.850
 5756POPC   GL233158  34.544   6.009   8.850
 5756POPC   C1A33159  34.584   5.893   8.550
 5756POPC   D2A33160  34.595   5.876   8.250
 5756POPC   C3A33161  34.602   5.824   7.950
 5756POPC   C4A33162  34.566   5.835   7.650
 5756POPC   C1B33163  34.482   6.136   8.550
 5756POPC   C2B33164  34.544   6.128   8.250
 5756POPC   C3B33165  34.543   6.123   7.950
 5756POPC   C4B33166  34.551   6.084   7.650
 5757POPC   NC333167  15.141  22.914   9.450
 5757POPC   PO433168  15.211  22.898   9.150
 5757POPC   GL133169  15.197  22.888   8.850
 5757POPC   GL233170  15.097  22.957   8.850
 5757POPC   C1A33171  15.216  22.972   8.550
 5757POPC   D2A33172  15.206  22.943   8.250
 5757POPC   C3A33173  15.137  22.915   7.950
 5757POPC   C4A33174  15.186  22.927   7.650
 5757POPC   C1B33175  14.925  23.015   8.550
 5757POPC   C2B33176  14.983  23.050   8.250
 5757POPC   C3B33177  14.943  22.984   7.950
 5757POPC   C4B33178  14.904  23.040   7.650
 5758POPC   NC333179  25.281  12.071   9.450
 5758POPC   PO433180  25.292  12.065   9.150
 5758POPC   GL133181  25.314  12.093   8.850
 5758POPC   GL233182  25.290  11.921   8.850
 5758POPC   C1A33183  25.274  12.037   8.550
 5758POPC   D2A33184  25.260  12.114   8.250
 5758POPC   C3A33185  25.245  12.064   7.950
 5758POPC   C4A33186  25.216  12.055   7.650
 5758POPC   C1B33187  25.263  11.826   8.550
 5758POPC   C2B33188  25.260  11.790   8.250
 5758POPC   C3B33189  25.295  11.811   7.950
 5758POPC   C4B33190  25.249  11.836   7.650
 5759POPC   NC333191  29.902  27.573   9.450
 5759POPC   PO433192  29.904  27.546   9.150
 5759POPC   GL133193  29.888  27.568   8.850
 5759POPC   GL233194  30.028  27.607   8.850
 5759POPC   C1A33195  29.937  27.581   8.550
 5759POPC   D2A33196  29.924  27.545   8.250
 5759POPC   C3A33197  29.961  27.616   7.950
 5759POPC   C4A33198  29.917  27.550   7.650
 5759POPC   C1B33199  30.157  27.630   8.550
 5759POPC   C2B33200  30.152  27.672   8.250
 5759POPC   C3B33201  30.126  27.656   7.950
 5759POPC   C4B33202  30.124  27.631   7.650
 5760POPC   NC333203  34.612  17.527   9.450
 5760POPC   PO433204  34.568  17.460   9.150
 5760POPC   GL133205  34.613  17.517   8.850
 5760POPC   GL233206  34.484  17.419   8.850
 5760POPC   C1A33207  34.542  17.538   8.550
 5760POPC   D2A33208  34.556  17.509   8.250
 5760POPC   C3A33209  34.556  17.525   7.950
 5760POPC   C4A33210  34.614  17.556   7.650
 5760POPC   C1B33211  34.329  17.389   8.550
 5760POPC   C2B33212  34.374  17.378   8.250
 5760POPC   C3B33213  34.403  17.374   7.950
 5760POPC   C4B33214  34.407  17.364   7.650
 5761POPC   NC333215  42.314   3.581   9.450
 5761POPC   PO433216  42.376   3.555   9.150
 5761POPC   GL133217  42.371   3.513   8.850
 5761POPC   GL233218  42.466   3.542   8.850
 5761POPC   C1A33219  42.345   3.518   8.550
 5761POPC   D2A33220  42.312   3.497   8.250
 5761POPC   C3A33221  42.321   3.569   7.950
 5761POPC   C4A33222  42.285   3.523   7.650
 5761POPC   C1B33223  42.582   3.600   8.550
 5761POPC   C2B33224  42.565   3.642   8.250
 5761POPC   C3B33225  42.613   3.583   7.950
 5761POPC   C4B33226  42.614   3.609   7.650
 5762POPC   NC333227  19.853  40.819   9.450
 5762POPC   PO433228  19.802  40.737   9.150
 5762POPC   GL133229  19.851  40.782   8.850
 5762POPC   GL233230  19.796  40.647   8.850
 5762POPC   C1A33231  19.785  40.769   8.550
 5762POPC   D2A33232  19.810  40.777   8.250
 5762POPC   C3A33233  19.860  40.751   7.950
 5762POPC   C4A33234  19.837  40.805   7.650
 5762POPC   C1B33235  19.869  40.555   8.550
 5762POPC   C2B33236  19.843  40.564   8.250
 5762POPC   C3B33237  19.808  40.524   7.950
 5762POPC   C4B33238  19.851  40.571   7.650
 5763POPC   NC333239  30.649   8.233   9.450
 5763POPC   PO433240  30.676   8.246   9.150
 5763POPC   GL133241  30.681   8.198   8.850
 5763POPC   GL233242  30.554   8.275   8.850
 5763POPC   C1A33243  30.652   8.176   8.550
 5763POPC   D2A33244  30.742   8.191   8.250
 5763POPC   C3A33245  30.716   8.200   7.950
 5763POPC   C4A33246  30.653   8.247   7.650
 5763POPC   C1B33247  30.451   8.331   8.550
 5763POPC   C2B33248  30.518   8.340   8.250
 5763POPC   C3B33249  30.521   8.277   7.950
 5763POPC   C4B33250  30.513   8.302   7.650
 5764POPC   NC333251  29.190  12.832   9.450
 5764POPC   PO433252  29.184  12.855   9.150
 5764POPC   GL133253  29.160  12.892   8.850
 5764POPC   GL233254  29.194  12.932   8.850
 5764POPC   C1A33255  29.131  12.894   8.550
 5764POPC   D2A33256  29.111  12.880   8.250
 5764POPC   C3A33257  29.106  12.894   7.950
 5764POPC   C4A33258  29.111  12.856   7.650
 5764POPC   C1B33259  29.299  13.016   8.550
 5764POPC   C2B33260  29.337  13.063   8.250
 5764POPC   C3B33261  29.290  13.012   7.950
 5764POPC   C4B33262  29.356  13.026   7.650
 5765POPC   NC333263   5.087   5.822   9.450
 5765POPC   PO433264   5.052   5.846   9.150
 5765POPC   GL133265   5.118   5.915   8.850
 5765POPC   GL233266   5.182   5.793   8.850
 5765POPC   C1A33267   5.091   5.907   8.550
 5765POPC   D2A33268   5.110   5.899   8.250
 5765POPC   C3A33269   5.086   5.881   7.950
 5765POPC   C4A33270   5.045   5.840   7.650
 5765POPC   C1B33271   5.284   5.752   8.550
 5765POPC   C2B33272   5.295   5.784   8.250
 5765POPC   C3B33273   5.333   5.803   7.950
 5765POPC   C4B33274   5.333   5.829   7.650
 5766POPC   NC333275   5.057   2.036   9.450
 5766POPC   PO433276   5.111   1.980   9.150
 5766POPC   GL133277   5.086   1.978   8.850
 5766POPC   GL233278   5.029   1.863   8.850
 5766POPC   C1A33279   5.074   2.016   8.550
 5766POPC   D2A33280   5.079   2.018   8.250
 5766POPC   C3A33281   5.051   2.012   7.950
 5766POPC   C4A33282   5.125   1.943   7.650
 5766POPC   C1B33283   5.022   1.719   8.550
 5766POPC   C2B33284   4.966   1.762   8.250
 5766POPC   C3B33285   5.015   1.723   7.950
 5766POPC   C4B33286   4.964   1.746   7.650
 5767POPC   NC333287  27.642  15.945   9.450
 5767POPC   PO433288  27.600  15.987   9.150
 5767POPC   GL133289  27.622  15.972   8.850
 5767POPC   GL233290  27.483  15.882   8.850
 5767POPC   C1A33291  27.597  15.988   8.550
 5767POPC   D2A33292  27.574  15.963   8.250
 5767POPC   C3A33293  27.582  15.939   7.950
 5767POPC   C4A33294  27.578  15.941   7.650
 5767POPC   C1B33295  27.351  15.870   8.550
 5767POPC   C2B33296  27.382  15.887   8.250
 5767POPC   C3B33297  27.324  15.875   7.950
 5767POPC   C4B33298  27.366  15.795   7.650
 5768POPC   NC333299  19.097  31.430   9.450
 5768POPC   PO433300  19.030  31.423   9.150
 5768POPC   GL133301  19.024  31.453   8.850
 5768POPC   GL233302  19.131  31.605   8.850
 5768POPC   C1A33303  19.091  31.440   8.550
 5768POPC   D2A33304  19.049  31.493   8.250
 5768POPC   C3A33305  19.068  31.448   7.950
 5768POPC   C4A33306  19.012  31.517   7.650
 5768POPC   C1B33307  19.160  31.676   8.550
 5768POPC   C2B33308  19.222  31.666   8.250
 5768POPC   C3B33309  19.144  31.723   7.950
 5768POPC   C4B33310  19.143  31.691   7.650
 5769POPC   NC333311  14.452  21.337   9.450
 5769POPC   PO433312  14.430  21.374   9.150
 5769POPC   GL133313  14.354  21.365   8.850
 5769POPC   GL233314  14.383  21.520   8.850
 5769POPC   C1A33315  14.396  21.393   8.550
 5769POPC   D2A33316  14.452  21.397   8.250
 5769POPC   C3A33317  14.413  21.396   7.950
 5769POPC   C4A33318  14.413  21.403   7.650
 5769POPC   C1B33319  14.360  21.603   8.550
 5769POPC   C2B33320  14.400  21.675   8.250
 5769POPC   C3B33321  14.458  21.683   7.950
 5769POPC   C4B33322  14.439  21.599   7.650
 5770POPC   NC333323  41.565  22.965   9.450
 5770POPC   PO433324  41.512  22.950   9.150
 5770POPC   GL133325  41.528  22.893   8.850
 5770POPC   GL233326  41.423  22.914   8.850
 5770POPC   C1A33327  41.595  22.927   8.550
 5770POPC   D2A33328  41.565  22.932   8.250
 5770POPC   C3A33329  41.552  22.955   7.950
 5770POPC   C4A33330  41.593  22.911   7.650
 5770POPC   C1B33331  41.331  22.745   8.550
 5770POPC   C2B33332  41.337  22.772   8.250
 5770POPC   C3B33333  41.306  22.763   7.950
 5770POPC   C4B33334  41.377  22.783   7.650
 5771POPC   NC333335  36.173   5.075   9.450
 5771POPC   PO433336  36.168   5.142   9.150
 5771POPC   GL133337  36.143   5.045   8.850
 5771POPC   GL233338  36.120   5.256   8.850
 5771POPC   C1A33339  36.165   5.079   8.550
 5771POPC   D2A33340  36.116   5.045   8.250
 5771POPC   C3A33341  36.164   5.114   7.950
 5771POPC   C4A33342  36.173   5.117   7.650
 5771POPC   C1B33343  36.135   5.299   8.550
 5771POPC   C2B33344  36.169   5.370   8.250
 5771POPC   C3B33345  36.182   5.299   7.950
 5771POPC   C4B33346  36.162   5.371   7.650
 5772POPC   NC333347   8.171  16.749   9.450
 5772POPC   PO433348   8.178  16.705   9.150
 5772POPC   GL133349   8.181  16.735   8.850
 5772POPC   GL233350   8.125  16.833   8.850
 5772POPC   C1A33351   8.174  16.767   8.550
 5772POPC   D2A33352   8.164  16.706   8.250
 5772POPC   C3A33353   8.182  16.764   7.950
 5772POPC   C4A33354   8.220  16.687   7.650
 5772POPC   C1B33355   8.101  16.962   8.550
 5772POPC   C2B33356   8.110  16.985   8.250
 5772POPC   C3B33357   8.100  16.911   7.950
 5772POPC   C4B33358   8.138  16.919   7.650
 5773POPC   NC333359  29.158  28.344   9.450
 5773POPC   PO433360  29.185  28.364   9.150
 5773POPC   GL133361  29.160  28.345   8.850
 5773POPC   GL233362  29.273  28.405   8.850
 5773POPC   C1A33363  29.142  28.366   8.550
 5773POPC   D2A33364  29.101  28.363   8.250
 5773POPC   C3A33365  29.150  28.363   7.950
 5773POPC   C4A33366  29.139  28.400   7.650
 5773POPC   C1B33367  29.417  28.372   8.550
 5773POPC   C2B33368  29.427  28.348   8.250
 5773POPC   C3B33369  29.403  28.328   7.950
 5773POPC   C4B33370  29.422  28.370   7.650
 5774POPC   NC333371  17.497  42.307   9.450
 5774POPC   PO433372  17.532  42.327   9.150
 5774POPC   GL133373  17.523  42.370   8.850
 5774POPC   GL233374  17.575  42.401   8.850
 5774POPC   C1A33375  17.544  42.293   8.550
 5774POPC   D2A33376  17.466  42.357   8.250
 5774POPC   C3A33377  17.524  42.318   7.950
 5774POPC   C4A33378  17.521  42.383   7.650
 5774POPC   C1B33379  17.678  42.462   8.550
 5774POPC   C2B33380  17.680  42.493   8.250
 5774POPC   C3B33381  17.658  42.509   7.950
 5774POPC   C4B33382  17.678  42.521   7.650
 5775POPC   NC333383  11.273  13.619   9.450
 5775POPC   PO433384  11.322  13.673   9.150
 5775POPC   GL133385  11.259  13.649   8.850
 5775POPC   GL233386  11.281  13.719   8.850
 5775POPC   C1A33387  11.328  13.626   8.550
 5775POPC   D2A33388  11.318  13.623   8.250
 5775POPC   C3A33389  11.275  13.645   7.950
 5775POPC   C4A33390  11.327  13.677   7.650
 5775POPC   C1B33391  11.271  13.849   8.550
 5775POPC   C2B33392  11.310  13.878   8.250
 5775POPC   C3B33393  11.313  13.891   7.950
 5775POPC   C4B33394  11.264  13.846   7.650
 5776POPC   NC333395  33.003  43.063   9.450
 5776POPC   PO433396  32.988  43.137   9.150
 5776POPC   GL133397  33.006  43.148   8.850
 5776POPC   GL233398  33.063  42.945   8.850
 5776POPC   C1A33399  33.051  43.117   8.550
 5776POPC   D2A33400  33.034  43.095   8.250
 5776POPC   C3A33401  32.988  43.102   7.950
 5776POPC   C4A33402  33.023  43.140   7.650
 5776POPC   C1B33403  33.134  42.827   8.550
 5776POPC   C2B33404  33.129  42.843   8.250
 5776POPC   C3B33405  33.062  42.912   7.950
 5776POPC   C4B33406  33.065  42.850   7.650
 5777POPC   NC333407   6.599  12.844   9.450
 5777POPC   PO433408   6.631  12.880   9.150
 5777POPC   GL133409   6.680  12.891   8.850
 5777POPC   GL233410   6.497  12.819   8.850
 5777POPC   C1A33411   6.694  12.874   8.550
 5777POPC   D2A33412   6.682  12.805   8.250
 5777POPC   C3A33413   6.669  12.886   7.950
 5777POPC   C4A33414   6.663  12.880   7.650
 5777POPC   C1B33415   6.453  12.752   8.550
 5777POPC   C2B33416   6.409  12.702   8.250
 5777POPC   C3B33417   6.413  12.740   7.950
 5777POPC   C4B33418   6.418  12.718   7.650
 5778POPC   NC333419   2.025   1.173   9.450
 5778POPC   PO433420   1.985   1.260   9.150
 5778POPC   GL133421   2.029   1.194   8.850
 5778POPC   GL233422   2.134   1.248   8.850
 5778POPC   C1A33423   2.006   1.242   8.550
 5778POPC   D2A33424   1.996   1.184   8.250
 5778POPC   C3A33425   2.008   1.256   7.950
 5778POPC   C4A33426   2.007   1.196   7.650
 5778POPC   C1B33427   2.186   1.334   8.550
 5778POPC   C2B33428   2.183   1.358   8.250
 5778POPC   C3B33429   2.168   1.298   7.950
 5778POPC   C4B33430   2.210   1.380   7.650
 5779POPC   NC333431  26.852  20.611   9.450
 5779POPC   PO433432  26.848  20.567   9.150
 5779POPC   GL133433  26.787  20.637   8.850
 5779POPC   GL233434  26.856  20.734   8.850
 5779POPC   C1A33435  26.786  20.613   8.550
 5779POPC   D2A33436  26.858  20.570   8.250
 5779POPC   C3A33437  26.848  20.608   7.950
 5779POPC   C4A33438  26.806  20.642   7.650
 5779POPC   C1B33439  26.942  20.868   8.550
 5779POPC   C2B33440  26.958  20.819   8.250
 5779POPC   C3B33441  26.942  20.841   7.950
 5779POPC   C4B33442  26.945  20.845   7.650
 5780POPC   NC333443  29.917  30.677   9.450
 5780POPC   PO433444  29.932  30.739   9.150
 5780POPC   GL133445  29.882  30.739   8.850
 5780POPC   GL233446  30.081  30.693   8.850
 5780POPC   C1A33447  29.878  30.680   8.550
 5780POPC   D2A33448  29.964  30.666   8.250
 5780POPC   C3A33449  29.884  30.668   7.950
 5780POPC   C4A33450  29.906  30.659   7.650
 5780POPC   C1B33451  30.126  30.738   8.550
 5780POPC   C2B33452  30.177  30.752   8.250
 5780POPC   C3B33453  30.151  30.747   7.950
 5780POPC   C4B33454  30.189  30.805   7.650
 5781POPC   NC333455  26.769  12.815   9.450
 5781POPC   PO433456  26.853  12.841   9.150
 5781POPC   GL133457  26.801  12.843   8.850
 5781POPC   GL233458  26.878  12.982   8.850
 5781POPC   C1A33459  26.833  12.856   8.550
 5781POPC   D2A33460  26.833  12.878   8.250
 5781POPC   C3A33461  26.813  12.859   7.950
 5781POPC   C4A33462  26.809  12.827   7.650
 5781POPC   C1B33463  26.988  13.040   8.550
 5781POPC   C2B33464  26.917  13.023   8.250
 5781POPC   C3B33465  26.977  13.042   7.950
 5781POPC   C4B33466  26.912  13.070   7.650
 5782POPC   NC333467   3.568  10.486   9.450
 5782POPC   PO433468   3.568  10.569   9.150
 5782POPC   GL133469   3.582  10.554   8.850
 5782POPC   GL233470   3.481  10.678   8.850
 5782POPC   C1A33471   3.503  10.537   8.550
 5782POPC   D2A33472   3.534  10.489   8.250
 5782POPC   C3A33473   3.511  10.544   7.950
 5782POPC   C4A33474   3.525  10.539   7.650
 5782POPC   C1B33475   3.420  10.729   8.550
 5782POPC   C2B33476   3.405  10.737   8.250
 5782POPC   C3B33477   3.464  10.732   7.950
 5782POPC   C4B33478   3.408  10.772   7.650
 5783POPC   NC333479  30.732  44.618   9.450
 5783POPC   PO433480  30.665  44.701   9.150
 5783POPC   GL133481  30.703  44.706   8.850
 5783POPC   GL233482  30.818  44.729   8.850
 5783POPC   C1A33483  30.682  44.696   8.550
 5783POPC   D2A33484  30.657  44.701   8.250
 5783POPC   C3A33485  30.690  44.673   7.950
 5783POPC   C4A33486  30.739  44.646   7.650
 5783POPC   C1B33487  30.881  44.802   8.550
 5783POPC   C2B33488  30.910  44.794   8.250
 5783POPC   C3B33489  30.933  44.803   7.950
 5783POPC   C4B33490  30.879  44.811   7.650
 5784POPC   NC333491  23.750  26.053   9.450
 5784POPC   PO433492  23.761  26.062   9.150
 5784POPC   GL133493  23.715  26.061   8.850
 5784POPC   GL233494  23.715  26.162   8.850
 5784POPC   C1A33495  23.730  26.036   8.550
 5784POPC   D2A33496  23.753  25.992   8.250
 5784POPC   C3A33497  23.677  26.010   7.950
 5784POPC   C4A33498  23.754  26.068   7.650
 5784POPC   C1B33499  23.698  26.291   8.550
 5784POPC   C2B33500  23.779  26.306   8.250
 5784POPC   C3B33501  23.769  26.264   7.950
 5784POPC   C4B33502  23.750  26.290   7.650
 5785POPC   NC333503  39.185  36.872   9.450
 5785POPC   PO433504  39.255  36.856   9.150
 5785POPC   GL133505  39.222  36.942   8.850
 5785POPC   GL233506  39.119  36.903   8.850
 5785POPC   C1A33507  39.237  36.874   8.550
 5785POPC   D2A33508  39.208  36.953   8.250
 5785POPC   C3A33509  39.281  36.862   7.950
 5785POPC   C4A33510  39.189  36.927   7.650
 5785POPC   C1B33511  38.999  36.993   8.550
 5785POPC   C2B33512  38.978  36.932   8.250
 5785POPC   C3B33513  38.986  36.910   7.950
 5785POPC   C4B33514  38.973  36.999   7.650
 5786POPC   NC333515   1.221  21.345   9.450
 5786POPC   PO433516   1.197  21.362   9.150
 5786POPC   GL133517   1.171  21.360   8.850
 5786POPC   GL233518   1.050  21.423   8.850
 5786POPC   C1A33519   1.246  21.347   8.550
 5786POPC   D2A33520   1.258  21.366   8.250
 5786POPC   C3A33521   1.204  21.417   7.950
 5786POPC   C4A33522   1.230  21.384   7.650
 5786POPC   C1B33523   0.916  21.387   8.550
 5786POPC   C2B33524   0.941  21.407   8.250
 5786POPC   C3B33525   0.994  21.415   7.950
 5786POPC   C4B33526   0.988  21.388   7.650
 5787POPC   NC333527  34.539  39.965   9.450
 5787POPC   PO433528  34.559  40.044   9.150
 5787POPC   GL133529  34.535  40.000   8.850
 5787POPC   GL233530  34.522  39.901   8.850
 5787POPC   C1A33531  34.557  40.038   8.550
 5787POPC   D2A33532  34.561  40.042   8.250
 5787POPC   C3A33533  34.593  40.003   7.950
 5787POPC   C4A33534  34.577  40.041   7.650
 5787POPC   C1B33535  34.572  39.804   8.550
 5787POPC   C2B33536  34.509  39.769   8.250
 5787POPC   C3B33537  34.513  39.743   7.950
 5787POPC   C4B33538  34.543  39.745   7.650
 5788POPC   NC333539  16.723   4.288   9.450
 5788POPC   PO433540  16.729   4.295   9.150
 5788POPC   GL133541  16.755   4.278   8.850
 5788POPC   GL233542  16.884   4.214   8.850
 5788POPC   C1A33543  16.715   4.346   8.550
 5788POPC   D2A33544  16.727   4.305   8.250
 5788POPC   C3A33545  16.699   4.302   7.950
 5788POPC   C4A33546  16.696   4.350   7.650
 5788POPC   C1B33547  16.923   4.140   8.550
 5788POPC   C2B33548  16.948   4.221   8.250
 5788POPC   C3B33549  16.917   4.192   7.950
 5788POPC   C4B33550  16.910   4.220   7.650
 5789POPC   NC333551  32.267  35.340   9.450
 5789POPC   PO433552  32.250  35.388   9.150
 5789POPC   GL133553  32.232  35.325   8.850
 5789POPC   GL233554  32.136  35.437   8.850
 5789POPC   C1A33555  32.224  35.319   8.550
 5789POPC   D2A33556  32.272  35.328   8.250
 5789POPC   C3A33557  32.268  35.374   7.950
 5789POPC   C4A33558  32.261  35.400   7.650
 5789POPC   C1B33559  32.066  35.549   8.550
 5789POPC   C2B33560  32.133  35.586   8.250
 5789POPC   C3B33561  32.054  35.499   7.950
 5789POPC   C4B33562  32.043  35.514   7.650
 5790POPC   NC333563  18.313   9.788   9.450
 5790POPC   PO433564  18.312   9.715   9.150
 5790POPC   GL133565  18.257   9.726   8.850
 5790POPC   GL233566  18.383   9.853   8.850
 5790POPC   C1A33567  18.237   9.788   8.550
 5790POPC   D2A33568  18.300   9.788   8.250
 5790POPC   C3A33569  18.323   9.760   7.950
 5790POPC   C4A33570  18.312   9.720   7.650
 5790POPC   C1B33571  18.496   9.881   8.550
 5790POPC   C2B33572  18.426   9.957   8.250
 5790POPC   C3B33573  18.516   9.946   7.950
 5790POPC   C4B33574  18.496   9.943   7.650
 5791POPC   NC333575  27.594  10.524   9.450
 5791POPC   PO433576  27.581  10.481   9.150
 5791POPC   GL133577  27.544  10.520   8.850
 5791POPC   GL233578  27.731  10.535   8.850
 5791POPC   C1A33579  27.630  10.497   8.550
 5791POPC   D2A33580  27.619  10.532   8.250
 5791POPC   C3A33581  27.583  10.551   7.950
 5791POPC   C4A33582  27.556  10.509   7.650
 5791POPC   C1B33583  27.862  10.523   8.550
 5791POPC   C2B33584  27.818  10.537   8.250
 5791POPC   C3B33585  27.831  10.605   7.950
 5791POPC   C4B33586  27.848  10.560   7.650
 5792POPC   NC333587  22.951  12.817   9.450
 5792POPC   PO433588  22.988  12.889   9.150
 5792POPC   GL133589  22.954  12.818   8.850
 5792POPC   GL233590  22.978  12.934   8.850
 5792POPC   C1A33591  22.968  12.812   8.550
 5792POPC   D2A33592  22.973  12.841   8.250
 5792POPC   C3A33593  22.948  12.885   7.950
 5792POPC   C4A33594  22.949  12.819   7.650
 5792POPC   C1B33595  23.092  13.042   8.550
 5792POPC   C2B33596  23.115  13.065   8.250
 5792POPC   C3B33597  23.112  13.094   7.950
 5792POPC   C4B33598  23.107  13.066   7.650
 5793POPC   NC333599   2.801  40.760   9.450
 5793POPC   PO433600   2.769  40.742   9.150
 5793POPC   GL133601   2.716  40.756   8.850
 5793POPC   GL233602   2.889  40.827   8.850
 5793POPC   C1A33603   2.799  40.757   8.550
 5793POPC   D2A33604   2.736  40.744   8.250
 5793POPC   C3A33605   2.735  40.794   7.950
 5793POPC   C4A33606   2.806  40.826   7.650
 5793POPC   C1B33607   2.891  40.970   8.550
 5793POPC   C2B33608   2.982  40.994   8.250
 5793POPC   C3B33609   2.970  40.996   7.950
 5793POPC   C4B33610   2.920  40.996   7.650
 5794POPC   NC333611   9.770  12.900   9.450
 5794POPC   PO433612   9.704  12.896   9.150
 5794POPC   GL133613   9.722  12.887   8.850
 5794POPC   GL233614   9.727  12.932   8.850
 5794POPC   C1A33615   9.716  12.813   8.550
 5794POPC   D2A33616   9.712  12.806   8.250
 5794POPC   C3A33617   9.745  12.819   7.950
 5794POPC   C4A33618   9.741  12.824   7.650
 5794POPC   C1B33619   9.672  13.106   8.550
 5794POPC   C2B33620   9.653  13.102   8.250
 5794POPC   C3B33621   9.643  13.053   7.950
 5794POPC   C4B33622   9.649  13.023   7.650
 5795POPC   NC333623  13.664  19.045   9.450
 5795POPC   PO433624  13.669  19.066   9.150
 5795POPC   GL133625  13.600  19.033   8.850
 5795POPC   GL233626  13.499  19.048   8.850
 5795POPC   C1A33627  13.580  19.013   8.550
 5795POPC   D2A33628  13.593  19.060   8.250
 5795POPC   C3A33629  13.599  19.058   7.950
 5795POPC   C4A33630  13.676  19.095   7.650
 5795POPC   C1B33631  13.362  19.036   8.550
 5795POPC   C2B33632  13.429  18.954   8.250
 5795POPC   C3B33633  13.398  18.957   7.950
 5795POPC   C4B33634  13.374  18.992   7.650
 5796POPC   NC333635  41.584   0.454   9.450
 5796POPC   PO433636  41.545   0.453   9.150
 5796POPC   GL133637  41.551   0.481   8.850
 5796POPC   GL233638  41.577   0.536   8.850
 5796POPC   C1A33639  41.569   0.425   8.550
 5796POPC   D2A33640  41.601   0.393   8.250
 5796POPC   C3A33641  41.513   0.391   7.950
 5796POPC   C4A33642  41.591   0.471   7.650
 5796POPC   C1B33643  41.560   0.708   8.550
 5796POPC   C2B33644  41.627   0.651   8.250
 5796POPC   C3B33645  41.621   0.714   7.950
 5796POPC   C4B33646  41.534   0.654   7.650
 5797POPC   NC333647  14.366  41.534   9.450
 5797POPC   PO433648  14.436  41.542   9.150
 5797POPC   GL133649  14.354  41.530   8.850
 5797POPC   GL233650  14.296  41.519   8.850
 5797POPC   C1A33651  14.378  41.538   8.550
 5797POPC   D2A33652  14.431  41.556   8.250
 5797POPC   C3A33653  14.424  41.565   7.950
 5797POPC   C4A33654  14.392  41.521   7.650
 5797POPC   C1B33655  14.194  41.538   8.550
 5797POPC   C2B33656  14.200  41.604   8.250
 5797POPC   C3B33657  14.125  41.555   7.950
 5797POPC   C4B33658  14.166  41.570   7.650
 5798POPC   NC333659  13.662  31.492   9.450
 5798POPC   PO433660  13.643  31.514   9.150
 5798POPC   GL133661  13.592  31.478   8.850
 5798POPC   GL233662  13.704  31.528   8.850
 5798POPC   C1A33663  13.596  31.455   8.550
 5798POPC   D2A33664  13.629  31.507   8.250
 5798POPC   C3A33665  13.658  31.427   7.950
 5798POPC   C4A33666  13.641  31.511   7.650
 5798POPC   C1B33667  13.829  31.666   8.550
 5798POPC   C2B33668  13.782  31.668   8.250
 5798POPC   C3B33669  13.832  31.666   7.950
 5798POPC   C4B33670  13.812  31.647   7.650
 5799POPC   NC333671   5.106  32.996   9.450
 5799POPC   PO433672   5.055  32.991   9.150
 5799POPC   GL133673   5.134  32.984   8.850
 5799POPC   GL233674   5.001  32.908   8.850
 5799POPC   C1A33675   5.105  32.981   8.550
 5799POPC   D2A33676   5.117  33.038   8.250
 5799POPC   C3A33677   5.130  33.073   7.950
 5799POPC   C4A33678   5.067  32.986   7.650
 5799POPC   C1B33679   4.963  32.796   8.550
 5799POPC   C2B33680   5.003  32.779   8.250
 5799POPC   C3B33681   5.015  32.784   7.950
 5799POPC   C4B33682   4.958  32.847   7.650
 5800POPC   NC333683  18.323  16.709   9.450
 5800POPC   PO433684  18.308  16.691   9.150
 5800POPC   GL133685  18.272  16.770   8.850
 5800POPC   GL233686  18.415  16.808   8.850
 5800POPC   C1A33687  18.264  16.682   8.550
 5800POPC   D2A33688  18.262  16.731   8.250
 5800POPC   C3A33689  18.235  16.699   7.950
 5800POPC   C4A33690  18.255  16.754   7.650
 5800POPC   C1B33691  18.563  16.858   8.550
 5800POPC   C2B33692  18.505  16.772   8.250
 5800POPC   C3B33693  18.479  16.854   7.950
 5800POPC   C4B33694  18.529  16.848   7.650
 5801POPC   NC333695  29.166  19.813   9.450
 5801POPC   PO433696  29.097  19.848   9.150
 5801POPC   GL133697  29.155  19.868   8.850
 5801POPC   GL233698  29.081  19.773   8.850
 5801POPC   C1A33699  29.187  19.880   8.550
 5801POPC   D2A33700  29.167  19.836   8.250
 5801POPC   C3A33701  29.193  19.823   7.950
 5801POPC   C4A33702  29.095  19.802   7.650
 5801POPC   C1B33703  28.914  19.685   8.550
 5801POPC   C2B33704  28.949  19.719   8.250
 5801POPC   C3B33705  28.958  19.631   7.950
 5801POPC   C4B33706  28.924  19.695   7.650
 5802POPC   NC333707  18.287  32.978   9.450
 5802POPC   PO433708  18.310  32.996   9.150
 5802POPC   GL133709  18.324  33.014   8.850
 5802POPC   GL233710  18.319  33.098   8.850
 5802POPC   C1A33711  18.305  32.977   8.550
 5802POPC   D2A33712  18.257  33.001   8.250
 5802POPC   C3A33713  18.300  33.040   7.950
 5802POPC   C4A33714  18.307  33.013   7.650
 5802POPC   C1B33715  18.434  33.260   8.550
 5802POPC   C2B33716  18.445  33.197   8.250
 5802POPC   C3B33717  18.442  33.203   7.950
 5802POPC   C4B33718  18.445  33.214   7.650
 5803POPC   NC333719  24.537  23.761   9.450
 5803POPC   PO433720  24.504  23.666   9.150
 5803POPC   GL133721  24.533  23.718   8.850
 5803POPC   GL233722  24.475  23.826   8.850
 5803POPC   C1A33723  24.489  23.678   8.550
 5803POPC   D2A33724  24.464  23.752   8.250
 5803POPC   C3A33725  24.480  23.695   7.950
 5803POPC   C4A33726  24.443  23.751   7.650
 5803POPC   C1B33727  24.416  23.986   8.550
 5803POPC   C2B33728  24.431  23.990   8.250
 5803POPC   C3B33729  24.478  23.914   7.950
 5803POPC   C4B33730  24.468  23.935   7.650
 5804POPC   NC333731  26.039  40.006   9.450
 5804POPC   PO433732  26.034  40.003   9.150
 5804POPC   GL133733  26.053  40.007   8.850
 5804POPC   GL233734  26.010  39.888   8.850
 5804POPC   C1A33735  26.002  40.051   8.550
 5804POPC   D2A33736  26.010  39.968   8.250
 5804POPC   C3A33737  26.079  40.031   7.950
 5804POPC   C4A33738  26.041  39.979   7.650
 5804POPC   C1B33739  25.904  39.817   8.550
 5804POPC   C2B33740  25.991  39.796   8.250
 5804POPC   C3B33741  25.907  39.794   7.950
 5804POPC   C4B33742  25.962  39.753   7.650
 5805POPC   NC333743  40.038  34.548   9.450
 5805POPC   PO433744  40.010  34.597   9.150
 5805POPC   GL133745  39.961  34.605   8.850
 5805POPC   GL233746  39.890  34.634   8.850
 5805POPC   C1A33747  40.049  34.584   8.550
 5805POPC   D2A33748  40.007  34.620   8.250
 5805POPC   C3A33749  40.034  34.625   7.950
 5805POPC   C4A33750  39.964  34.596   7.650
 5805POPC   C1B33751  39.810  34.813   8.550
 5805POPC   C2B33752  39.836  34.802   8.250
 5805POPC   C3B33753  39.879  34.809   7.950
 5805POPC   C4B33754  39.886  34.765   7.650
 5806POPC   NC333755  42.313  34.586   9.450
 5806POPC   PO433756  42.369  34.612   9.150
 5806POPC   GL133757  42.327  34.528   8.850
 5806POPC   GL233758  42.355  34.669   8.850
 5806POPC   C1A33759  42.377  34.561   8.550
 5806POPC   D2A33760  42.299  34.619   8.250
 5806POPC   C3A33761  42.347  34.534   7.950
 5806POPC   C4A33762  42.366  34.529   7.650
 5806POPC   C1B33763  42.507  34.786   8.550
 5806POPC   C2B33764  42.431  34.766   8.250
 5806POPC   C3B33765  42.498  34.803   7.950
 5806POPC   C4B33766  42.495  34.784   7.650
 5807POPC   NC333767  30.721  34.566   9.450
 5807POPC   PO433768  30.677  34.560   9.150
 5807POPC   GL133769  30.708  34.610   8.850
 5807POPC   GL233770  30.686  34.420   8.850
 5807POPC   C1A33771  30.676  34.611   8.550
 5807POPC   D2A33772  30.731  34.600   8.250
 5807POPC   C3A33773  30.666  34.569   7.950
 5807POPC   C4A33774  30.726  34.531   7.650
 5807POPC   C1B33775  30.716  34.313   8.550
 5807POPC   C2B33776  30.728  34.352   8.250
 5807POPC   C3B33777  30.643  34.323   7.950
 5807POPC   C4B33778  30.700  34.372   7.650
 5808POPC   NC333779  39.215  30.736   9.450
 5808POPC   PO433780  39.258  30.730   9.150
 5808POPC   GL133781  39.193  30.682   8.850
 5808POPC   GL233782  39.145  30.797   8.850
 5808POPC   C1A33783  39.210  30.653   8.550
 5808POPC   D2A33784  39.254  30.698   8.250
 5808POPC   C3A33785  39.209  30.706   7.950
 5808POPC   C4A33786  39.253  30.678   7.650
 5808POPC   C1B33787  39.058  30.873   8.550
 5808POPC   C2B33788  38.981  30.813   8.250
 5808POPC   C3B33789  39.062  30.865   7.950
 5808POPC   C4B33790  39.015  30.826   7.650
 5809POPC   NC333791  30.684  29.177   9.450
 5809POPC   PO433792  30.709  29.100   9.150
 5809POPC   GL133793  30.723  29.164   8.850
 5809POPC   GL233794  30.744  29.289   8.850
 5809POPC   C1A33795  30.693  29.188   8.550
 5809POPC   D2A33796  30.684  29.194   8.250
 5809POPC   C3A33797  30.726  29.109   7.950
 5809POPC   C4A33798  30.741  29.160   7.650
 5809POPC   C1B33799  30.803  29.332   8.550
 5809POPC   C2B33800  30.821  29.372   8.250
 5809POPC   C3B33801  30.792  29.325   7.950
 5809POPC   C4B33802  30.851  29.367   7.650
 5810POPC   NC333803   1.997  14.388   9.450
 5810POPC   PO433804   1.944  14.382   9.150
 5810POPC   GL133805   1.979  14.423   8.850
 5810POPC   GL233806   1.906  14.344   8.850
 5810POPC   C1A33807   2.009  14.419   8.550
 5810POPC   D2A33808   1.961  14.355   8.250
 5810POPC   C3A33809   2.007  14.441   7.950
 5810POPC   C4A33810   1.988  14.402   7.650
 5810POPC   C1B33811   1.770  14.294   8.550
 5810POPC   C2B33812   1.740  14.340   8.250
 5810POPC   C3B33813   1.802  14.303   7.950
 5810POPC   C4B33814   1.805  14.252   7.650
 5811POPC   NC333815  41.581  39.280   9.450
 5811POPC   PO433816  41.510  39.194   9.150
 5811POPC   GL133817  41.601  39.228   8.850
 5811POPC   GL233818  41.476  39.122   8.850
 5811POPC   C1A33819  41.557  39.185   8.550
 5811POPC   D2A33820  41.539  39.198   8.250
 5811POPC   C3A33821  41.571  39.236   7.950
 5811POPC   C4A33822  41.574  39.209   7.650
 5811POPC   C1B33823  41.335  39.036   8.550
 5811POPC   C2B33824  41.369  39.028   8.250
 5811POPC   C3B33825  41.366  39.022   7.950
 5811POPC   C4B33826  41.333  39.095   7.650
 5812POPC   NC333827  44.685   1.191   9.450
 5812POPC   PO433828  44.632   1.196   9.150
 5812POPC   GL133829  44.637   1.214   8.850
 5812POPC   GL233830  44.746   1.163   8.850
 5812POPC   C1A33831  44.705   1.186   8.550
 5812POPC   D2A33832  44.662   1.173   8.250
 5812POPC   C3A33833  44.680   1.238   7.950
 5812POPC   C4A33834  44.690   1.191   7.650
 5812POPC   C1B33835  44.921   1.124   8.550
 5812POPC   C2B33836  44.846   1.123   8.250
 5812POPC   C3B33837  44.874   1.084   7.950
 5812POPC   C4B33838  44.871   1.139   7.650
 5813POPC   NC333839   3.526   2.727   9.450
 5813POPC   PO433840   3.516   2.791   9.150
 5813POPC   GL133841   3.569   2.740   8.850
 5813POPC   GL233842   3.705   2.786   8.850
 5813POPC   C1A33843   3.569   2.750   8.550
 5813POPC   D2A33844   3.544   2.731   8.250
 5813POPC   C3A33845   3.517   2.721   7.950
 5813POPC   C4A33846   3.498   2.719   7.650
 5813POPC   C1B33847   3.803   2.837   8.550
 5813POPC   C2B33848   3.838   2.847   8.250
 5813POPC   C3B33849   3.752   2.814   7.950
 5813POPC   C4B33850   3.807   2.756   7.650
 5814POPC   NC333851  13.628  37.704   9.450
 5814POPC   PO433852  13.627  37.704   9.150
 5814POPC   GL133853  13.599  37.630   8.850
 5814POPC   GL233854  13.556  37.765   8.850
 5814POPC   C1A33855  13.628  37.669   8.550
 5814POPC   D2A33856  13.618  37.692   8.250
 5814POPC   C3A33857  13.608  37.702   7.950
 5814POPC   C4A33858  13.675  37.675   7.650
 5814POPC   C1B33859  13.491  37.903   8.550
 5814POPC   C2B33860  13.491  37.925   8.250
 5814POPC   C3B33861  13.492  37.891   7.950
 5814POPC   C4B33862  13.519  37.887   7.650
 5815POPC   NC333863  14.399   2.729   9.450
 5815POPC   PO433864  14.416   2.763   9.150
 5815POPC   GL133865  14.448   2.743   8.850
 5815POPC   GL233866  14.323   2.864   8.850
 5815POPC   C1A33867  14.391   2.800   8.550
 5815POPC   D2A33868  14.384   2.766   8.250
 5815POPC   C3A33869  14.390   2.738   7.950
 5815POPC   C4A33870  14.410   2.791   7.650
 5815POPC   C1B33871  14.199   2.861   8.550
 5815POPC   C2B33872  14.216   2.887   8.250
 5815POPC   C3B33873  14.181   2.921   7.950
 5815POPC   C4B33874  14.145   2.900   7.650
 5816POPC   NC333875  40.747  23.749   9.450
 5816POPC   PO433876  40.746  23.726   9.150
 5816POPC   GL133877  40.783  23.749   8.850
 5816POPC   GL233878  40.770  23.848   8.850
 5816POPC   C1A33879  40.807  23.689   8.550
 5816POPC   D2A33880  40.819  23.697   8.250
 5816POPC   C3A33881  40.751  23.699   7.950
 5816POPC   C4A33882  40.754  23.720   7.650
 5816POPC   C1B33883  40.812  23.924   8.550
 5816POPC   C2B33884  40.726  24.012   8.250
 5816POPC   C3B33885  40.754  23.971   7.950
 5816POPC   C4B33886  40.783  24.013   7.650
 5817POPC   NC333887  26.055  34.597   9.450
 5817POPC   PO433888  26.057  34.544   9.150
 5817POPC   GL133889  26.080  34.568   8.850
 5817POPC   GL233890  25.937  34.545   8.850
 5817POPC   C1A33891  25.995  34.614   8.550
 5817POPC   D2A33892  26.088  34.536   8.250
 5817POPC   C3A33893  26.017  34.542   7.950
 5817POPC   C4A33894  26.006  34.542   7.650
 5817POPC   C1B33895  25.783  34.527   8.550
 5817POPC   C2B33896  25.766  34.511   8.250
 5817POPC   C3B33897  25.792  34.569   7.950
 5817POPC   C4B33898  25.835  34.541   7.650
 5818POPC   NC333899  40.814   9.753   9.450
 5818POPC   PO433900  40.756   9.781   9.150
 5818POPC   GL133901  40.774   9.749   8.850
 5818POPC   GL233902  40.898   9.809   8.850
 5818POPC   C1A33903  40.798   9.728   8.550
 5818POPC   D2A33904  40.808   9.712   8.250
 5818POPC   C3A33905  40.754   9.736   7.950
 5818POPC   C4A33906  40.737   9.717   7.650
 5818POPC   C1B33907  40.974   9.869   8.550
 5818POPC   C2B33908  40.979   9.860   8.250
 5818POPC   C3B33909  40.963   9.902   7.950
 5818POPC   C4B33910  40.976   9.930   7.650
 5819POPC   NC333911   2.777  15.917   9.450
 5819POPC   PO433912   2.768  15.991   9.150
 5819POPC   GL133913   2.757  15.952   8.850
 5819POPC   GL233914   2.663  15.939   8.850
 5819POPC   C1A33915   2.812  15.984   8.550
 5819POPC   D2A33916   2.781  15.976   8.250
 5819POPC   C3A33917   2.812  16.000   7.950
 5819POPC   C4A33918   2.777  15.949   7.650
 5819POPC   C1B33919   2.572  15.852   8.550
 5819POPC   C2B33920   2.542  15.825   8.250
 5819POPC   C3B33921   2.548  15.911   7.950
 5819POPC   C4B33922   2.505  15.839   7.650
 5820POPC   NC333923  33.792   1.176   9.450
 5820POPC   PO433924  33.838   1.211   9.150
 5820POPC   GL133925  33.787   1.178   8.850
 5820POPC   GL233926  33.661   1.229   8.850
 5820POPC   C1A33927  33.815   1.249   8.550
 5820POPC   D2A33928  33.771   1.215   8.250
 5820POPC   C3A33929  33.785   1.208   7.950
 5820POPC   C4A33930  33.771   1.215   7.650
 5820POPC   C1B33931  33.516   1.220   8.550
 5820POPC   C2B33932  33.564   1.183   8.250
 5820POPC   C3B33933  33.586   1.209   7.950
 5820POPC   C4B33934  33.588   1.194   7.650
 5821POPC   NC333935   8.990   1.218   9.450
 5821POPC   PO433936   8.952   1.176   9.150
 5821POPC   GL133937   8.936   1.240   8.850
 5821POPC   GL233938   9.061   1.318   8.850
 5821POPC   C1A33939   9.007   1.263   8.550
 5821POPC   D2A33940   8.942   1.174   8.250
 5821POPC   C3A33941   9.017   1.256   7.950
 5821POPC   C4A33942   8.988   1.176   7.650
 5821POPC   C1B33943   9.013   1.484   8.550
 5821POPC   C2B33944   9.021   1.477   8.250
 5821POPC   C3B33945   9.038   1.477   7.950
 5821POPC   C4B33946   9.006   1.442   7.650
 5822POPC   NC333947  38.409  27.612   9.450
 5822POPC   PO433948  38.430  27.582   9.150
 5822POPC   GL133949  38.488  27.562   8.850
 5822POPC   GL233950  38.461  27.730   8.850
 5822POPC   C1A33951  38.491  27.566   8.550
 5822POPC   D2A33952  38.425  27.557   8.250
 5822POPC   C3A33953  38.496  27.622   7.950
 5822POPC   C4A33954  38.425  27.580   7.650
 5822POPC   C1B33955  38.376  27.848   8.550
 5822POPC   C2B33956  38.440  27.884   8.250
 5822POPC   C3B33957  38.390  27.850   7.950
 5822POPC   C4B33958  38.366  27.793   7.650
 5823POPC   NC333959  15.184  33.003   9.450
 5823POPC   PO433960  15.197  32.979   9.150
 5823POPC   GL133961  15.209  33.041   8.850
 5823POPC   GL233962  15.260  33.017   8.850
 5823POPC   C1A33963  15.135  33.059   8.550
 5823POPC   D2A33964  15.136  32.991   8.250
 5823POPC   C3A33965  15.163  33.060   7.950
 5823POPC   C4A33966  15.201  33.017   7.650
 5823POPC   C1B33967  15.462  33.018   8.550
 5823POPC   C2B33968  15.384  32.960   8.250
 5823POPC   C3B33969  15.454  33.021   7.950
 5823POPC   C4B33970  15.428  33.011   7.650
 5824POPC   NC333971   1.990  40.819   9.450
 5824POPC   PO433972   1.974  40.761   9.150
 5824POPC   GL133973   2.024  40.803   8.850
 5824POPC   GL233974   2.085  40.771   8.850
 5824POPC   C1A33975   2.005  40.808   8.550
 5824POPC   D2A33976   1.954  40.749   8.250
 5824POPC   C3A33977   2.030  40.789   7.950
 5824POPC   C4A33978   2.008  40.755   7.650
 5824POPC   C1B33979   2.207  40.726   8.550
 5824POPC   C2B33980   2.195  40.779   8.250
 5824POPC   C3B33981   2.261  40.793   7.950
 5824POPC   C4B33982   2.200  40.778   7.650
 5825POPC   NC333983  14.446  18.301   9.450
 5825POPC   PO433984  14.450  18.321   9.150
 5825POPC   GL133985  14.429  18.322   8.850
 5825POPC   GL233986  14.454  18.353   8.850
 5825POPC   C1A33987  14.355  18.245   8.550
 5825POPC   D2A33988  14.445  18.326   8.250
 5825POPC   C3A33989  14.370  18.271   7.950
 5825POPC   C4A33990  14.415  18.311   7.650
 5825POPC   C1B33991  14.585  18.456   8.550
 5825POPC   C2B33992  14.564  18.426   8.250
 5825POPC   C3B33993  14.639  18.494   7.950
 5825POPC   C4B33994  14.554  18.488   7.650
 5826POPC   NC333995  19.045  19.839   9.450
 5826POPC   PO433996  19.054  19.849   9.150
 5826POPC   GL133997  19.055  19.805   8.850
 5826POPC   GL233998  19.160  19.795   8.850
 5826POPC   C1A33999  19.097  19.820   8.550
 5826POPC   D2A34000  19.064  19.868   8.250
 5826POPC   C3A34001  19.039  19.856   7.950
 5826POPC   C4A34002  19.108  19.870   7.650
 5826POPC   C1B34003  19.319  19.730   8.550
 5826POPC   C2B34004  19.275  19.732   8.250
 5826POPC   C3B34005  19.322  19.760   7.950
 5826POPC   C4B34006  19.305  19.714   7.650
 5827POPC   NC334007  13.643  12.815   9.450
 5827POPC   PO434008  13.604  12.838   9.150
 5827POPC   GL134009  13.677  12.862   8.850
 5827POPC   GL234010  13.735  12.850   8.850
 5827POPC   C1A34011  13.671  12.876   8.550
 5827POPC   D2A34012  13.664  12.846   8.250
 5827POPC   C3A34013  13.606  12.856   7.950
 5827POPC   C4A34014  13.638  12.828   7.650
 5827POPC   C1B34015  13.852  12.845   8.550
 5827POPC   C2B34016  13.855  12.857   8.250
 5827POPC   C3B34017  13.885  12.840   7.950
 5827POPC   C4B34018  13.865  12.804   7.650
 5828POPC   NC334019  40.049  29.113   9.450
 5828POPC   PO434020  39.980  29.139   9.150
 5828POPC   GL134021  39.993  29.173   8.850
 5828POPC   GL234022  39.891  29.114   8.850
 5828POPC   C1A34023  40.054  29.158   8.550
 5828POPC   D2A34024  40.046  29.130   8.250
 5828POPC   C3A34025  40.040  29.187   7.950
 5828POPC   C4A34026  40.015  29.169   7.650
 5828POPC   C1B34027  39.724  29.105   8.550
 5828POPC   C2B34028  39.751  29.057   8.250
 5828POPC   C3B34029  39.728  29.104   7.950
 5828POPC   C4B34030  39.775  29.106   7.650
 5829POPC   NC334031  43.890  12.027   9.450
 5829POPC   PO434032  43.909  12.061   9.150
 5829POPC   GL134033  43.866  12.062   8.850
 5829POPC   GL234034  43.810  12.158   8.850
 5829POPC   C1A34035  43.884  12.057   8.550
 5829POPC   D2A34036  43.933  12.031   8.250
 5829POPC   C3A34037  43.926  12.082   7.950
 5829POPC   C4A34038  43.872  12.046   7.650
 5829POPC   C1B34039  43.651  12.113   8.550
 5829POPC   C2B34040  43.665  12.198   8.250
 5829POPC   C3B34041  43.646  12.119   7.950
 5829POPC   C4B34042  43.629  12.139   7.650
 5830POPC   NC334043  39.959  39.996   9.450
 5830POPC   PO434044  40.042  40.036   9.150
 5830POPC   GL134045  40.055  39.976   8.850
 5830POPC   GL234046  40.045  39.906   8.850
 5830POPC   C1A34047  39.958  40.005   8.550
 5830POPC   D2A34048  40.016  39.989   8.250
 5830POPC   C3A34049  39.983  39.990   7.950
 5830POPC   C4A34050  40.049  40.009   7.650
 5830POPC   C1B34051  39.959  39.774   8.550
 5830POPC   C2B34052  39.970  39.789   8.250
 5830POPC   C3B34053  40.028  39.785   7.950
 5830POPC   C4B34054  40.037  39.785   7.650
 5831POPC   NC334055  42.286  30.675   9.450
 5831POPC   PO434056  42.320  30.667   9.150
 5831POPC   GL134057  42.285  30.666   8.850
 5831POPC   GL234058  42.316  30.524   8.850
 5831POPC   C1A34059  42.317  30.696   8.550
 5831POPC   D2A34060  42.314  30.706   8.250
 5831POPC   C3A34061  42.292  30.716   7.950
 5831POPC   C4A34062  42.355  30.741   7.650
 5831POPC   C1B34063  42.363  30.476   8.550
 5831POPC   C2B34064  42.368  30.406   8.250
 5831POPC   C3B34065  42.355  30.433   7.950
 5831POPC   C4B34066  42.354  30.444   7.650
 5832POPC   NC334067   3.529   6.604   9.450
 5832POPC   PO434068   3.520   6.617   9.150
 5832POPC   GL134069   3.517   6.653   8.850
 5832POPC   GL234070   3.492   6.507   8.850
 5832POPC   C1A34071   3.519   6.622   8.550
 5832POPC   D2A34072   3.584   6.650   8.250
 5832POPC   C3A34073   3.497   6.686   7.950
 5832POPC   C4A34074   3.538   6.652   7.650
 5832POPC   C1B34075   3.534   6.406   8.550
 5832POPC   C2B34076   3.495   6.436   8.250
 5832POPC   C3B34077   3.514   6.378   7.950
 5832POPC   C4B34078   3.520   6.366   7.650
 5833POPC   NC334079   7.423  21.430   9.450
 5833POPC   PO434080   7.455  21.432   9.150
 5833POPC   GL134081   7.410  21.428   8.850
 5833POPC   GL234082   7.495  21.270   8.850
 5833POPC   C1A34083   7.397  21.401   8.550
 5833POPC   D2A34084   7.383  21.358   8.250
 5833POPC   C3A34085   7.426  21.365   7.950
 5833POPC   C4A34086   7.467  21.410   7.650
 5833POPC   C1B34087   7.523  21.163   8.550
 5833POPC   C2B34088   7.483  21.206   8.250
 5833POPC   C3B34089   7.573  21.171   7.950
 5833POPC   C4B34090   7.510  21.162   7.650
 5834POPC   NC334091   3.519  37.641   9.450
 5834POPC   PO434092   3.588  37.677   9.150
 5834POPC   GL134093   3.555  37.640   8.850
 5834POPC   GL234094   3.435  37.614   8.850
 5834POPC   C1A34095   3.492  37.676   8.550
 5834POPC   D2A34096   3.585  37.718   8.250
 5834POPC   C3A34097   3.571  37.683   7.950
 5834POPC   C4A34098   3.520  37.657   7.650
 5834POPC   C1B34099   3.387  37.504   8.550
 5834POPC   C2B34100   3.370  37.446   8.250
 5834POPC   C3B34101   3.402  37.444   7.950
 5834POPC   C4B34102   3.341  37.489   7.650
 5835POPC   NC334103  10.546  40.017   9.450
 5835POPC   PO434104  10.479  40.022   9.150
 5835POPC   GL134105  10.559  40.033   8.850
 5835POPC   GL234106  10.361  40.026   8.850
 5835POPC   C1A34107  10.534  40.054   8.550
 5835POPC   D2A34108  10.502  40.029   8.250
 5835POPC   C3A34109  10.517  39.984   7.950
 5835POPC   C4A34110  10.530  39.991   7.650
 5835POPC   C1B34111  10.295  40.008   8.550
 5835POPC   C2B34112  10.251  40.022   8.250
 5835POPC   C3B34113  10.281  39.958   7.950
 5835POPC   C4B34114  10.297  40.049   7.650
 5836POPC   NC334115  19.840  14.370   9.450
 5836POPC   PO434116  19.821  14.433   9.150
 5836POPC   GL134117  19.855  14.368   8.850
 5836POPC   GL234118  19.864  14.495   8.850
 5836POPC   C1A34119  19.873  14.440   8.550
 5836POPC   D2A34120  19.857  14.372   8.250
 5836POPC   C3A34121  19.847  14.416   7.950
 5836POPC   C4A34122  19.876  14.442   7.650
 5836POPC   C1B34123  19.880  14.655   8.550
 5836POPC   C2B34124  19.863  14.611   8.250
 5836POPC   C3B34125  19.821  14.628   7.950
 5836POPC   C4B34126  19.817  14.685   7.650
 5837POPC   NC334127  21.395  11.295   9.450
 5837POPC   PO434128  21.348  11.307   9.150
 5837POPC   GL134129  21.419  11.263   8.850
 5837POPC   GL234130  21.251  11.219   8.850
 5837POPC   C1A34131  21.422  11.281   8.550
 5837POPC   D2A34132  21.387  11.256   8.250
 5837POPC   C3A34133  21.340  11.341   7.950
 5837POPC   C4A34134  21.398  11.325   7.650
 5837POPC   C1B34135  21.106  11.236   8.550
 5837POPC   C2B34136  21.141  11.285   8.250
 5837POPC   C3B34137  21.137  11.222   7.950
 5837POPC   C4B34138  21.170  11.212   7.650
 5838POPC   NC334139  23.691   5.128   9.450
 5838POPC   PO434140  23.743   5.119   9.150
 5838POPC   GL134141  23.732   5.069   8.850
 5838POPC   GL234142  23.795   4.963   8.850
 5838POPC   C1A34143  23.725   5.046   8.550
 5838POPC   D2A34144  23.703   5.046   8.250
 5838POPC   C3A34145  23.739   5.138   7.950
 5838POPC   C4A34146  23.711   5.068   7.650
 5838POPC   C1B34147  23.856   4.942   8.550
 5838POPC   C2B34148  23.829   4.864   8.250
 5838POPC   C3B34149  23.888   4.913   7.950
 5838POPC   C4B34150  23.901   4.927   7.650
 5839POPC   NC334151   3.583   1.248   9.450
 5839POPC   PO434152   3.574   1.234   9.150
 5839POPC   GL134153   3.538   1.165   8.850
 5839POPC   GL234154   3.438   1.155   8.850
 5839POPC   C1A34155   3.504   1.255   8.550
 5839POPC   D2A34156   3.510   1.252   8.250
 5839POPC   C3A34157   3.581   1.236   7.950
 5839POPC   C4A34158   3.519   1.249   7.650
 5839POPC   C1B34159   3.306   1.073   8.550
 5839POPC   C2B34160   3.320   1.108   8.250
 5839POPC   C3B34161   3.319   1.045   7.950
 5839POPC   C4B34162   3.303   1.096   7.650
 5840POPC   NC334163  40.745  35.312   9.450
 5840POPC   PO434164  40.806  35.389   9.150
 5840POPC   GL134165  40.740  35.315   8.850
 5840POPC   GL234166  40.793  35.499   8.850
 5840POPC   C1A34167  40.795  35.337   8.550
 5840POPC   D2A34168  40.736  35.373   8.250
 5840POPC   C3A34169  40.753  35.339   7.950
 5840POPC   C4A34170  40.817  35.355   7.650
 5840POPC   C1B34171  40.884  35.595   8.550
 5840POPC   C2B34172  40.891  35.612   8.250
 5840POPC   C3B34173  40.874  35.597   7.950
 5840POPC   C4B34174  40.883  35.532   7.650
 5841POPC   NC334175  16.715  25.278   9.450
 5841POPC   PO434176  16.764  25.278   9.150
 5841POPC   GL134177  16.766  25.300   8.850
 5841POPC   GL234178  16.616  25.252   8.850
 5841POPC   C1A34179  16.720  25.284   8.550
 5841POPC   D2A34180  16.727  25.266   8.250
 5841POPC   C3A34181  16.685  25.236   7.950
 5841POPC   C4A34182  16.734  25.220   7.650
 5841POPC   C1B34183  16.471  25.318   8.550
 5841POPC   C2B34184  16.470  25.277   8.250
 5841POPC   C3B34185  16.530  25.292   7.950
 5841POPC   C4B34186  16.478  25.279   7.650
 5842POPC   NC334187  31.461   8.934   9.450
 5842POPC   PO434188  31.448   8.966   9.150
 5842POPC   GL134189  31.468   8.997   8.850
 5842POPC   GL234190  31.446   8.833   8.850
 5842POPC   C1A34191  31.494   8.991   8.550
 5842POPC   D2A34192  31.459   9.014   8.250
 5842POPC   C3A34193  31.432   8.962   7.950
 5842POPC   C4A34194  31.458   8.968   7.650
 5842POPC   C1B34195  31.453   8.759   8.550
 5842POPC   C2B34196  31.441   8.748   8.250
 5842POPC   C3B34197  31.458   8.761   7.950
 5842POPC   C4B34198  31.485   8.706   7.650
 5843POPC   NC334199  15.164  14.391   9.450
 5843POPC   PO434200  15.130  14.368   9.150
 5843POPC   GL134201  15.163  14.414   8.850
 5843POPC   GL234202  15.099  14.274   8.850
 5843POPC   C1A34203  15.144  14.392   8.550
 5843POPC   D2A34204  15.229  14.436   8.250
 5843POPC   C3A34205  15.215  14.434   7.950
 5843POPC   C4A34206  15.137  14.390   7.650
 5843POPC   C1B34207  15.112  14.139   8.550
 5843POPC   C2B34208  15.073  14.114   8.250
 5843POPC   C3B34209  15.111  14.118   7.950
 5843POPC   C4B34210  15.134  14.174   7.650
 5844POPC   NC334211   4.290  22.914   9.450
 5844POPC   PO434212   4.325  22.896   9.150
 5844POPC   GL134213   4.304  22.947   8.850
 5844POPC   GL234214   4.261  22.869   8.850
 5844POPC   C1A34215   4.328  22.950   8.550
 5844POPC   D2A34216   4.337  22.937   8.250
 5844POPC   C3A34217   4.270  22.952   7.950
 5844POPC   C4A34218   4.295  22.906   7.650
 5844POPC   C1B34219   4.156  22.840   8.550
 5844POPC   C2B34220   4.088  22.779   8.250
 5844POPC   C3B34221   4.077  22.795   7.950
 5844POPC   C4B34222   4.079  22.820   7.650
 5845POPC   NC334223   2.798  33.771   9.450
 5845POPC   PO434224   2.776  33.752   9.150
 5845POPC   GL134225   2.786  33.787   8.850
 5845POPC   GL234226   2.627  33.893   8.850
 5845POPC   C1A34227   2.794  33.827   8.550
 5845POPC   D2A34228   2.745  33.768   8.250
 5845POPC   C3A34229   2.793  33.823   7.950
 5845POPC   C4A34230   2.753  33.842   7.650
 5845POPC   C1B34231   2.563  33.854   8.550
 5845POPC   C2B34232   2.496  33.892   8.250
 5845POPC   C3B34233   2.511  33.875   7.950
 5845POPC   C4B34234   2.570  33.897   7.650
 5846POPC   NC334235  18.274  14.399   9.450
 5846POPC   PO434236  18.234  14.382   9.150
 5846POPC   GL134237  18.300  14.422   8.850
 5846POPC   GL234238  18.182  14.348   8.850
 5846POPC   C1A34239  18.261  14.399   8.550
 5846POPC   D2A34240  18.245  14.432   8.250
 5846POPC   C3A34241  18.277  14.387   7.950
 5846POPC   C4A34242  18.262  14.400   7.650
 5846POPC   C1B34243  18.038  14.283   8.550
 5846POPC   C2B34244  18.056  14.313   8.250
 5846POPC   C3B34245  18.097  14.299   7.950
 5846POPC   C4B34246  18.041  14.302   7.650
 5847POPC   NC334247  22.205  26.784   9.450
 5847POPC   PO434248  22.206  26.768   9.150
 5847POPC   GL134249  22.143  26.770   8.850
 5847POPC   GL234250  22.239  26.715   8.850
 5847POPC   C1A34251  22.176  26.787   8.550
 5847POPC   D2A34252  22.150  26.805   8.250
 5847POPC   C3A34253  22.190  26.806   7.950
 5847POPC   C4A34254  22.173  26.775   7.650
 5847POPC   C1B34255  22.249  26.611   8.550
 5847POPC   C2B34256  22.300  26.618   8.250
 5847POPC   C3B34257  22.288  26.591   7.950
 5847POPC   C4B34258  22.231  26.635   7.650
 5848POPC   NC334259  19.846  20.575   9.450
 5848POPC   PO434260  19.882  20.628   9.150
 5848POPC   GL134261  19.869  20.616   8.850
 5848POPC   GL234262  19.992  20.599   8.850
 5848POPC   C1A34263  19.838  20.620   8.550
 5848POPC   D2A34264  19.844  20.590   8.250
 5848POPC   C3A34265  19.829  20.597   7.950
 5848POPC   C4A34266  19.806  20.642   7.650
 5848POPC   C1B34267  20.097  20.627   8.550
 5848POPC   C2B34268  20.110  20.655   8.250
 5848POPC   C3B34269  20.082  20.662   7.950
 5848POPC   C4B34270  20.094  20.644   7.650
 5849POPC   NC334271  29.110  38.498   9.450
 5849POPC   PO434272  29.179  38.440   9.150
 5849POPC   GL134273  29.128  38.425   8.850
 5849POPC   GL234274  29.289  38.455   8.850
 5849POPC   C1A34275  29.182  38.412   8.550
 5849POPC   D2A34276  29.192  38.488   8.250
 5849POPC   C3A34277  29.146  38.474   7.950
 5849POPC   C4A34278  29.176  38.481   7.650
 5849POPC   C1B34279  29.391  38.462   8.550
 5849POPC   C2B34280  29.344  38.479   8.250
 5849POPC   C3B34281  29.384  38.503   7.950
 5849POPC   C4B34282  29.348  38.495   7.650
 5850POPC   NC334283  24.525   2.718   9.450
 5850POPC   PO434284  24.485   2.814   9.150
 5850POPC   GL134285  24.530   2.757   8.850
 5850POPC   GL234286  24.603   2.814   8.850
 5850POPC   C1A34287  24.441   2.720   8.550
 5850POPC   D2A34288  24.518   2.759   8.250
 5850POPC   C3A34289  24.442   2.791   7.950
 5850POPC   C4A34290  24.462   2.807   7.650
 5850POPC   C1B34291  24.632   2.963   8.550
 5850POPC   C2B34292  24.701   2.959   8.250
 5850POPC   C3B34293  24.660   2.974   7.950
 5850POPC   C4B34294  24.667   2.965   7.650
 5851POPC   NC334295  39.203  40.754   9.450
 5851POPC   PO434296  39.235  40.737   9.150
 5851POPC   GL134297  39.274  40.766   8.850
 5851POPC   GL234298  39.331  40.695   8.850
 5851POPC   C1A34299  39.271  40.734   8.550
 5851POPC   D2A34300  39.274  40.825   8.250
 5851POPC   C3A34301  39.248  40.805   7.950
 5851POPC   C4A34302  39.205  40.820   7.650
 5851POPC   C1B34303  39.458  40.660   8.550
 5851POPC   C2B34304  39.469  40.654   8.250
 5851POPC   C3B34305  39.490  40.677   7.950
 5851POPC   C4B34306  39.427  40.698   7.650
 5852POPC   NC334307  43.086  20.589   9.450
 5852POPC   PO434308  43.109  20.633   9.150
 5852POPC   GL134309  43.115  20.585   8.850
 5852POPC   GL234310  42.970  20.650   8.850
 5852POPC   C1A34311  43.142  20.647   8.550
 5852POPC   D2A34312  43.073  20.568   8.250
 5852POPC   C3A34313  43.128  20.577   7.950
 5852POPC   C4A34314  43.130  20.622   7.650
 5852POPC   C1B34315  42.976  20.731   8.550
 5852POPC   C2B34316  42.928  20.790   8.250
 5852POPC   C3B34317  42.899  20.810   7.950
 5852POPC   C4B34318  42.908  20.768   7.650
 5853POPC   NC334319   1.212   9.757   9.450
 5853POPC   PO434320   1.211   9.794   9.150
 5853POPC   GL134321   1.232   9.740   8.850
 5853POPC   GL234322   1.138   9.868   8.850
 5853POPC   C1A34323   1.173   9.796   8.550
 5853POPC   D2A34324   1.172   9.794   8.250
 5853POPC   C3A34325   1.200   9.732   7.950
 5853POPC   C4A34326   1.186   9.789   7.650
 5853POPC   C1B34327   1.200  10.016   8.550
 5853POPC   C2B34328   1.190   9.950   8.250
 5853POPC   C3B34329   1.156   9.956   7.950
 5853POPC   C4B34330   1.138   9.980   7.650
 5854POPC   NC334331  29.909  33.828   9.450
 5854POPC   PO434332  29.941  33.815   9.150
 5854POPC   GL134333  29.905  33.790   8.850
 5854POPC   GL234334  29.746  33.851   8.850
 5854POPC   C1A34335  29.961  33.764   8.550
 5854POPC   D2A34336  29.932  33.795   8.250
 5854POPC   C3A34337  29.948  33.756   7.950
 5854POPC   C4A34338  29.925  33.797   7.650
 5854POPC   C1B34339  29.645  33.793   8.550
 5854POPC   C2B34340  29.710  33.760   8.250
 5854POPC   C3B34341  29.697  33.830   7.950
 5854POPC   C4B34342  29.643  33.780   7.650
 5855POPC   NC334343   2.809  39.211   9.450
 5855POPC   PO434344   2.797  39.209   9.150
 5855POPC   GL134345   2.743  39.194   8.850
 5855POPC   GL234346   2.855  39.272   8.850
 5855POPC   C1A34347   2.727  39.186   8.550
 5855POPC   D2A34348   2.783  39.242   8.250
 5855POPC   C3A34349   2.770  39.205   7.950
 5855POPC   C4A34350   2.717  39.234   7.650
 5855POPC   C1B34351   3.031  39.318   8.550
 5855POPC   C2B34352   3.037  39.281   8.250
 5855POPC   C3B34353   2.989  39.320   7.950
 5855POPC   C4B34354   3.022  39.279   7.650
 5856POPC   NC334355   1.216   0.456   9.450
 5856POPC   PO434356   1.175   0.406   9.150
 5856POPC   GL134357   1.174   0.470   8.850
 5856POPC   GL234358   1.149   0.597   8.850
 5856POPC   C1A34359   1.210   0.409   8.550
 5856POPC   D2A34360   1.261   0.452   8.250
 5856POPC   C3A34361   1.210   0.459   7.950
 5856POPC   C4A34362   1.194   0.410   7.650
 5856POPC   C1B34363   1.184   0.720   8.550
 5856POPC   C2B34364   1.195   0.725   8.250
 5856POPC   C3B34365   1.218   0.679   7.950
 5856POPC   C4B34366   1.218   0.690   7.650
 5857POPC   NC334367  12.838   5.834   9.450
 5857POPC   PO434368  12.853   5.851   9.150
 5857POPC   GL134369  12.824   5.842   8.850
 5857POPC   GL234370  12.893   6.032   8.850
 5857POPC   C1A34371  12.838   5.829   8.550
 5857POPC   D2A34372  12.827   5.851   8.250
 5857POPC   C3A34373  12.865   5.885   7.950
 5857POPC   C4A34374  12.880   5.839   7.650
 5857POPC   C1B34375  12.930   6.144   8.550
 5857POPC   C2B34376  12.847   6.121   8.250
 5857POPC   C3B34377  12.869   6.117   7.950
 5857POPC   C4B34378  12.879   6.074   7.650
 5858POPC   NC334379   5.113   6.631   9.450
 5858POPC   PO434380   5.052   6.681   9.150
 5858POPC   GL134381   5.050   6.625   8.850
 5858POPC   GL234382   5.158   6.746   8.850
 5858POPC   C1A34383   5.056   6.657   8.550
 5858POPC   D2A34384   5.054   6.598   8.250
 5858POPC   C3A34385   5.092   6.617   7.950
 5858POPC   C4A34386   5.130   6.660   7.650
 5858POPC   C1B34387   5.246   6.771   8.550
 5858POPC   C2B34388   5.341   6.802   8.250
 5858POPC   C3B34389   5.245   6.838   7.950
 5858POPC   C4B34390   5.304   6.770   7.650
 5859POPC   NC334391  33.809   3.577   9.450
 5859POPC   PO434392  33.837   3.518   9.150
 5859POPC   GL134393  33.788   3.522   8.850
 5859POPC   GL234394  33.942   3.438   8.850
 5859POPC   C1A34395  33.758   3.561   8.550
 5859POPC   D2A34396  33.795   3.577   8.250
 5859POPC   C3A34397  33.782   3.568   7.950
 5859POPC   C4A34398  33.756   3.544   7.650
 5859POPC   C1B34399  34.021   3.397   8.550
 5859POPC   C2B34400  34.018   3.406   8.250
 5859POPC   C3B34401  34.032   3.439   7.950
 5859POPC   C4B34402  34.014   3.353   7.650
 5860POPC   NC334403  29.970  41.601   9.450
 5860POPC   PO434404  29.887  41.564   9.150
 5860POPC   GL134405  29.950  41.529   8.850
 5860POPC   GL234406  29.822  41.616   8.850
 5860POPC   C1A34407  29.942  41.526   8.550
 5860POPC   D2A34408  29.935  41.519   8.250
 5860POPC   C3A34409  29.940  41.545   7.950
 5860POPC   C4A34410  29.910  41.515   7.650
 5860POPC   C1B34411  29.675  41.667   8.550
 5860POPC   C2B34412  29.689  41.670   8.250
 5860POPC   C3B34413  29.720  41.687   7.950
 5860POPC   C4B34414  29.655  41.695   7.650
 5861POPC   NC334415  34.602   4.285   9.450
 5861POPC   PO434416  34.552   4.312   9.150
 5861POPC   GL134417  34.625   4.270   8.850
 5861POPC   GL234418  34.681   4.192   8.850
 5861POPC   C1A34419  34.594   4.347   8.550
 5861POPC   D2A34420  34.576   4.333   8.250
 5861POPC   C3A34421  34.529   4.312   7.950
 5861POPC   C4A34422  34.621   4.337   7.650
 5861POPC   C1B34423  34.763   4.166   8.550
 5861POPC   C2B34424  34.769   4.081   8.250
 5861POPC   C3B34425  34.698   4.114   7.950
 5861POPC   C4B34426  34.719   4.099   7.650
 5862POPC   NC334427  29.190  27.546   9.450
 5862POPC   PO434428  29.178  27.546   9.150
 5862POPC   GL134429  29.133  27.588   8.850
 5862POPC   GL234430  29.206  27.492   8.850
 5862POPC   C1A34431  29.129  27.562   8.550
 5862POPC   D2A34432  29.193  27.567   8.250
 5862POPC   C3A34433  29.165  27.584   7.950
 5862POPC   C4A34434  29.180  27.618   7.650
 5862POPC   C1B34435  29.403  27.425   8.550
 5862POPC   C2B34436  29.326  27.423   8.250
 5862POPC   C3B34437  29.383  27.461   7.950
 5862POPC   C4B34438  29.313  27.430   7.650
 5863POPC   NC334439  12.079  19.815   9.450
 5863POPC   PO434440  12.034  19.855   9.150
 5863POPC   GL134441  12.066  19.830   8.850
 5863POPC   GL234442  11.957  19.808   8.850
 5863POPC   C1A34443  12.078  19.864   8.550
 5863POPC   D2A34444  12.104  19.883   8.250
 5863POPC   C3A34445  12.036  19.820   7.950
 5863POPC   C4A34446  12.043  19.870   7.650
 5863POPC   C1B34447  11.851  19.666   8.550
 5863POPC   C2B34448  11.890  19.669   8.250
 5863POPC   C3B34449  11.915  19.656   7.950
 5863POPC   C4B34450  11.822  19.731   7.650
 5864POPC   NC334451  40.752  28.372   9.450
 5864POPC   PO434452  40.817  28.390   9.150
 5864POPC   GL134453  40.795  28.327   8.850
 5864POPC   GL234454  40.709  28.531   8.850
 5864POPC   C1A34455  40.739  28.389   8.550
 5864POPC   D2A34456  40.776  28.360   8.250
 5864POPC   C3A34457  40.744  28.405   7.950
 5864POPC   C4A34458  40.825  28.386   7.650
 5864POPC   C1B34459  40.731  28.590   8.550
 5864POPC   C2B34460  40.725  28.573   8.250
 5864POPC   C3B34461  40.698  28.612   7.950
 5864POPC   C4B34462  40.735  28.635   7.650
 5865POPC   NC334463  17.540  36.095   9.450
 5865POPC   PO434464  17.524  36.149   9.150
 5865POPC   GL134465  17.527  36.162   8.850
 5865POPC   GL234466  17.403  36.257   8.850
 5865POPC   C1A34467  17.471  36.083   8.550
 5865POPC   D2A34468  17.493  36.142   8.250
 5865POPC   C3A34469  17.506  36.106   7.950
 5865POPC   C4A34470  17.534  36.149   7.650
 5865POPC   C1B34471  17.392  36.387   8.550
 5865POPC   C2B34472  17.380  36.363   8.250
 5865POPC   C3B34473  17.326  36.372   7.950
 5865POPC   C4B34474  17.332  36.362   7.650
 5866POPC   NC334475  42.305  19.868   9.450
 5866POPC   PO434476  42.295  19.785   9.150
 5866POPC   GL134477  42.367  19.821   8.850
 5866POPC   GL234478  42.290  19.721   8.850
 5866POPC   C1A34479  42.348  19.792   8.550
 5866POPC   D2A34480  42.352  19.850   8.250
 5866POPC   C3A34481  42.325  19.832   7.950
 5866POPC   C4A34482  42.322  19.870   7.650
 5866POPC   C1B34483  42.205  19.608   8.550
 5866POPC   C2B34484  42.176  19.647   8.250
 5866POPC   C3B34485  42.156  19.588   7.950
 5866POPC   C4B34486  42.248  19.583   7.650
 5867POPC   NC334487  18.267   4.287   9.450
 5867POPC   PO434488  18.266   4.272   9.150
 5867POPC   GL134489  18.289   4.329   8.850
 5867POPC   GL234490  18.236   4.394   8.850
 5867POPC   C1A34491  18.300   4.324   8.550
 5867POPC   D2A34492  18.294   4.358   8.250
 5867POPC   C3A34493  18.295   4.329   7.950
 5867POPC   C4A34494  18.271   4.271   7.650
 5867POPC   C1B34495  18.243   4.570   8.550
 5867POPC   C2B34496  18.230   4.529   8.250
 5867POPC   C3B34497  18.219   4.551   7.950
 5867POPC   C4B34498  18.275   4.562   7.650
 5868POPC   NC334499  42.309  19.042   9.450
 5868POPC   PO434500  42.371  19.090   9.150
 5868POPC   GL134501  42.335  19.042   8.850
 5868POPC   GL234502  42.208  19.146   8.850
 5868POPC   C1A34503  42.297  19.058   8.550
 5868POPC   D2A34504  42.323  19.103   8.250
 5868POPC   C3A34505  42.338  19.022   7.950
 5868POPC   C4A34506  42.376  19.057   7.650
 5868POPC   C1B34507  42.158  19.207   8.550
 5868POPC   C2B34508  42.091  19.147   8.250
 5868POPC   C3B34509  42.090  19.193   7.950
 5868POPC   C4B34510  42.107  19.228   7.650
 5869POPC   NC334511   9.763  41.567   9.450
 5869POPC   PO434512   9.738  41.554   9.150
 5869POPC   GL134513   9.780  41.524   8.850
 5869POPC   GL234514   9.661  41.458   8.850
 5869POPC   C1A34515   9.745  41.530   8.550
 5869POPC   D2A34516   9.757  41.603   8.250
 5869POPC   C3A34517   9.774  41.584   7.950
 5869POPC   C4A34518   9.722  41.534   7.650
 5869POPC   C1B34519   9.500  41.414   8.550
 5869POPC   C2B34520   9.535  41.424   8.250
 5869POPC   C3B34521   9.511  41.396   7.950
 5869POPC   C4B34522   9.533  41.432   7.650
 5870POPC   NC334523   4.347  23.734   9.450
 5870POPC   PO434524   4.276  23.757   9.150
 5870POPC   GL134525   4.303  23.681   8.850
 5870POPC   GL234526   4.336  23.868   8.850
 5870POPC   C1A34527   4.291  23.685   8.550
 5870POPC   D2A34528   4.301  23.735   8.250
 5870POPC   C3A34529   4.313  23.683   7.950
 5870POPC   C4A34530   4.333  23.681   7.650
 5870POPC   C1B34531   4.336  23.954   8.550
 5870POPC   C2B34532   4.335  23.957   8.250
 5870POPC   C3B34533   4.326  23.939   7.950
 5870POPC   C4B34534   4.328  23.971   7.650
 5871POPC   NC334535   7.465  41.532   9.450
 5871POPC   PO434536   7.398  41.590   9.150
 5871POPC   GL134537   7.420  41.515   8.850
 5871POPC   GL234538   7.495  41.635   8.850
 5871POPC   C1A34539   7.420  41.584   8.550
 5871POPC   D2A34540   7.406  41.591   8.250
 5871POPC   C3A34541   7.457  41.591   7.950
 5871POPC   C4A34542   7.427  41.568   7.650
 5871POPC   C1B34543   7.457  41.747   8.550
 5871POPC   C2B34544   7.499  41.755   8.250
 5871POPC   C3B34545   7.463  41.820   7.950
 5871POPC   C4B34546   7.523  41.781   7.650
 5872POPC   NC334547   0.421  33.792   9.450
 5872POPC   PO434548   0.407  33.835   9.150
 5872POPC   GL134549   0.461  33.777   8.850
 5872POPC   GL234550   0.560  33.854   8.850
 5872POPC   C1A34551   0.405  33.778   8.550
 5872POPC   D2A34552   0.397  33.761   8.250
 5872POPC   C3A34553   0.413  33.816   7.950
 5872POPC   C4A34554   0.463  33.786   7.650
 5872POPC   C1B34555   0.647  33.896   8.550
 5872POPC   C2B34556   0.654  33.880   8.250
 5872POPC   C3B34557   0.653  33.938   7.950
 5872POPC   C4B34558   0.671  33.944   7.650
 5873POPC   NC334559  33.845  16.774   9.450
 5873POPC   PO434560  33.843  16.722   9.150
 5873POPC   GL134561  33.830  16.727   8.850
 5873POPC   GL234562  33.779  16.664   8.850
 5873POPC   C1A34563  33.838  16.728   8.550
 5873POPC   D2A34564  33.787  16.777   8.250
 5873POPC   C3A34565  33.829  16.775   7.950
 5873POPC   C4A34566  33.770  16.692   7.650
 5873POPC   C1B34567  33.729  16.535   8.550
 5873POPC   C2B34568  33.694  16.507   8.250
 5873POPC   C3B34569  33.716  16.498   7.950
 5873POPC   C4B34570  33.633  16.531   7.650
 5874POPC   NC334571  36.147  18.282   9.450
 5874POPC   PO434572  36.141  18.240   9.150
 5874POPC   GL134573  36.136  18.265   8.850
 5874POPC   GL234574  36.087  18.385   8.850
 5874POPC   C1A34575  36.120  18.247   8.550
 5874POPC   D2A34576  36.091  18.270   8.250
 5874POPC   C3A34577  36.086  18.326   7.950
 5874POPC   C4A34578  36.113  18.327   7.650
 5874POPC   C1B34579  36.031  18.509   8.550
 5874POPC   C2B34580  35.954  18.502   8.250
 5874POPC   C3B34581  36.039  18.519   7.950
 5874POPC   C4B34582  36.009  18.527   7.650
 5875POPC   NC334583  17.461  15.918   9.450
 5875POPC   PO434584  17.500  15.912   9.150
 5875POPC   GL134585  17.537  15.937   8.850
 5875POPC   GL234586  17.591  16.017   8.850
 5875POPC   C1A34587  17.477  15.973   8.550
 5875POPC   D2A34588  17.531  15.905   8.250
 5875POPC   C3A34589  17.470  15.947   7.950
 5875POPC   C4A34590  17.457  15.910   7.650
 5875POPC   C1B34591  17.663  16.165   8.550
 5875POPC   C2B34592  17.699  16.167   8.250
 5875POPC   C3B34593  17.650  16.121   7.950
 5875POPC   C4B34594  17.667  16.076   7.650
 5876POPC   NC334595   9.725  31.454   9.450
 5876POPC   PO434596   9.720  31.428   9.150
 5876POPC   GL134597   9.761  31.443   8.850
 5876POPC   GL234598   9.828  31.560   8.850
 5876POPC   C1A34599   9.777  31.474   8.550
 5876POPC   D2A34600   9.775  31.492   8.250
 5876POPC   C3A34601   9.706  31.438   7.950
 5876POPC   C4A34602   9.748  31.505   7.650
 5876POPC   C1B34603   9.934  31.546   8.550
 5876POPC   C2B34604   9.943  31.550   8.250
 5876POPC   C3B34605   9.940  31.575   7.950
 5876POPC   C4B34606  10.015  31.623   7.650
 5877POPC   NC334607  22.901   7.417   9.450
 5877POPC   PO434608  22.902   7.465   9.150
 5877POPC   GL134609  22.961   7.436   8.850
 5877POPC   GL234610  22.885   7.315   8.850
 5877POPC   C1A34611  22.927   7.416   8.550
 5877POPC   D2A34612  22.957   7.374   8.250
 5877POPC   C3A34613  22.971   7.424   7.950
 5877POPC   C4A34614  22.932   7.455   7.650
 5877POPC   C1B34615  22.862   7.203   8.550
 5877POPC   C2B34616  22.868   7.157   8.250
 5877POPC   C3B34617  22.922   7.220   7.950
 5877POPC   C4B34618  22.900   7.142   7.650
 5878POPC   NC334619  11.312  34.587   9.450
 5878POPC   PO434620  11.320  34.542   9.150
 5878POPC   GL134621  11.256  34.606   8.850
 5878POPC   GL234622  11.429  34.516   8.850
 5878POPC   C1A34623  11.326  34.533   8.550
 5878POPC   D2A34624  11.290  34.612   8.250
 5878POPC   C3A34625  11.279  34.562   7.950
 5878POPC   C4A34626  11.307  34.573   7.650
 5878POPC   C1B34627  11.495  34.365   8.550
 5878POPC   C2B34628  11.509  34.423   8.250
 5878POPC   C3B34629  11.435  34.362   7.950
 5878POPC   C4B34630  11.493  34.441   7.650
 5879POPC   NC334631   5.072  22.143   9.450
 5879POPC   PO434632   5.046  22.165   9.150
 5879POPC   GL134633   5.118  22.206   8.850
 5879POPC   GL234634   4.965  22.224   8.850
 5879POPC   C1A34635   5.103  22.204   8.550
 5879POPC   D2A34636   5.104  22.195   8.250
 5879POPC   C3A34637   5.135  22.211   7.950
 5879POPC   C4A34638   5.126  22.200   7.650
 5879POPC   C1B34639   4.935  22.404   8.550
 5879POPC   C2B34640   4.901  22.356   8.250
 5879POPC   C3B34641   4.936  22.336   7.950
 5879POPC   C4B34642   4.894  22.351   7.650
 5880POPC   NC334643  29.935  26.011   9.450
 5880POPC   PO434644  29.935  26.000   9.150
 5880POPC   GL134645  29.940  25.994   8.850
 5880POPC   GL234646  29.806  26.183   8.850
 5880POPC   C1A34647  29.964  26.059   8.550
 5880POPC   D2A34648  29.949  26.063   8.250
 5880POPC   C3A34649  29.890  26.086   7.950
 5880POPC   C4A34650  29.885  26.088   7.650
 5880POPC   C1B34651  29.798  26.202   8.550
 5880POPC   C2B34652  29.808  26.237   8.250
 5880POPC   C3B34653  29.742  26.269   7.950
 5880POPC   C4B34654  29.810  26.215   7.650
 5881POPC   NC334655  12.836   5.112   9.450
 5881POPC   PO434656  12.824   5.084   9.150
 5881POPC   GL134657  12.869   5.058   8.850
 5881POPC   GL234658  12.829   5.231   8.850
 5881POPC   C1A34659  12.862   5.049   8.550
 5881POPC   D2A34660  12.850   5.052   8.250
 5881POPC   C3A34661  12.803   5.061   7.950
 5881POPC   C4A34662  12.873   5.049   7.650
 5881POPC   C1B34663  12.665   5.286   8.550
 5881POPC   C2B34664  12.715   5.308   8.250
 5881POPC   C3B34665  12.720   5.350   7.950
 5881POPC   C4B34666  12.732   5.259   7.650
 5882POPC   NC334667   1.948  43.889   9.450
 5882POPC   PO434668   2.036  43.842   9.150
 5882POPC   GL134669   1.976  43.841   8.850
 5882POPC   GL234670   1.952  43.829   8.850
 5882POPC   C1A34671   2.025  43.877   8.550
 5882POPC   D2A34672   1.966  43.916   8.250
 5882POPC   C3A34673   2.000  43.925   7.950
 5882POPC   C4A34674   1.997  43.857   7.650
 5882POPC   C1B34675   1.784  43.715   8.550
 5882POPC   C2B34676   1.826  43.726   8.250
 5882POPC   C3B34677   1.847  43.749   7.950
 5882POPC   C4B34678   1.790  43.664   7.650
 5883POPC   NC334679   1.952  41.585   9.450
 5883POPC   PO434680   2.039  41.591   9.150
 5883POPC   GL134681   1.958  41.560   8.850
 5883POPC   GL234682   2.011  41.640   8.850
 5883POPC   C1A34683   1.988  41.543   8.550
 5883POPC   D2A34684   1.956  41.580   8.250
 5883POPC   C3A34685   1.995  41.539   7.950
 5883POPC   C4A34686   1.980  41.519   7.650
 5883POPC   C1B34687   1.963  41.829   8.550
 5883POPC   C2B34688   1.903  41.840   8.250
 5883POPC   C3B34689   1.955  41.769   7.950
 5883POPC   C4B34690   1.936  41.758   7.650
 5884POPC   NC334691  22.975   3.581   9.450
 5884POPC   PO434692  22.947   3.518   9.150
 5884POPC   GL134693  22.965   3.502   8.850
 5884POPC   GL234694  22.966   3.618   8.850
 5884POPC   C1A34695  22.977   3.535   8.550
 5884POPC   D2A34696  22.919   3.519   8.250
 5884POPC   C3A34697  22.903   3.506   7.950
 5884POPC   C4A34698  22.943   3.535   7.650
 5884POPC   C1B34699  23.026   3.742   8.550
 5884POPC   C2B34700  22.998   3.819   8.250
 5884POPC   C3B34701  22.985   3.807   7.950
 5884POPC   C4B34702  22.988   3.722   7.650
 5885POPC   NC334703  12.100   2.015   9.450
 5885POPC   PO434704  12.098   2.007   9.150
 5885POPC   GL134705  12.043   1.981   8.850
 5885POPC   GL234706  12.169   2.028   8.850
 5885POPC   C1A34707  12.031   2.040   8.550
 5885POPC   D2A34708  12.099   2.001   8.250
 5885POPC   C3A34709  12.051   1.946   7.950
 5885POPC   C4A34710  12.104   2.035   7.650
 5885POPC   C1B34711  12.363   2.006   8.550
 5885POPC   C2B34712  12.309   2.006   8.250
 5885POPC   C3B34713  12.321   1.999   7.950
 5885POPC   C4B34714  12.358   2.022   7.650
 5886POPC   NC334715  44.645   8.198   9.450
 5886POPC   PO434716  44.627   8.149   9.150
 5886POPC   GL134717  44.631   8.174   8.850
 5886POPC   GL234718  44.514   8.204   8.850
 5886POPC   C1A34719  44.642   8.174   8.550
 5886POPC   D2A34720  44.629   8.188   8.250
 5886POPC   C3A34721  44.671   8.241   7.950
 5886POPC   C4A34722  44.638   8.208   7.650
 5886POPC   C1B34723  44.443   8.091   8.550
 5886POPC   C2B34724  44.411   8.134   8.250
 5886POPC   C3B34725  44.458   8.163   7.950
 5886POPC   C4B34726  44.374   8.168   7.650
 5887POPC   NC334727  40.756  36.087   9.450
 5887POPC   PO434728  40.790  36.104   9.150
 5887POPC   GL134729  40.765  36.103   8.850
 5887POPC   GL234730  40.867  36.102   8.850
 5887POPC   C1A34731  40.824  36.153   8.550
 5887POPC   D2A34732  40.740  36.126   8.250
 5887POPC   C3A34733  40.764  36.142   7.950
 5887POPC   C4A34734  40.778  36.105   7.650
 5887POPC   C1B34735  41.000  36.106   8.550
 5887POPC   C2B34736  41.068  36.048   8.250
 5887POPC   C3B34737  40.990  36.112   7.950
 5887POPC   C4B34738  40.983  36.038   7.650
 5888POPC   NC334739  26.034  26.862   9.450
 5888POPC   PO434740  26.005  26.781   9.150
 5888POPC   GL134741  26.071  26.843   8.850
 5888POPC   GL234742  26.093  26.872   8.850
 5888POPC   C1A34743  26.084  26.841   8.550
 5888POPC   D2A34744  26.051  26.837   8.250
 5888POPC   C3A34745  26.064  26.787   7.950
 5888POPC   C4A34746  26.032  26.821   7.650
 5888POPC   C1B34747  26.207  26.943   8.550
 5888POPC   C2B34748  26.248  27.015   8.250
 5888POPC   C3B34749  26.272  26.957   7.950
 5888POPC   C4B34750  26.210  26.982   7.650
 5889POPC   NC334751  31.446   6.627   9.450
 5889POPC   PO434752  31.475   6.630   9.150
 5889POPC   GL134753  31.425   6.600   8.850
 5889POPC   GL234754  31.633   6.746   8.850
 5889POPC   C1A34755  31.499   6.666   8.550
 5889POPC   D2A34756  31.433   6.634   8.250
 5889POPC   C3A34757  31.429   6.645   7.950
 5889POPC   C4A34758  31.481   6.693   7.650
 5889POPC   C1B34759  31.680   6.732   8.550
 5889POPC   C2B34760  31.741   6.764   8.250
 5889POPC   C3B34761  31.690   6.712   7.950
 5889POPC   C4B34762  31.732   6.721   7.650
 5890POPC   NC334763  35.351  36.137   9.450
 5890POPC   PO434764  35.339  36.149   9.150
 5890POPC   GL134765  35.310  36.134   8.850
 5890POPC   GL234766  35.362  36.213   8.850
 5890POPC   C1A34767  35.345  36.140   8.550
 5890POPC   D2A34768  35.387  36.104   8.250
 5890POPC   C3A34769  35.372  36.122   7.950
 5890POPC   C4A34770  35.393  36.109   7.650
 5890POPC   C1B34771  35.456  36.351   8.550
 5890POPC   C2B34772  35.408  36.412   8.250
 5890POPC   C3B34773  35.438  36.382   7.950
 5890POPC   C4B34774  35.432  36.414   7.650
 5891POPC   NC334775  28.414  40.777   9.450
 5891POPC   PO434776  28.380  40.802   9.150
 5891POPC   GL134777  28.412  40.752   8.850
 5891POPC   GL234778  28.463  40.679   8.850
 5891POPC   C1A34779  28.335  40.810   8.550
 5891POPC   D2A34780  28.400  40.737   8.250
 5891POPC   C3A34781  28.383  40.824   7.950
 5891POPC   C4A34782  28.321  40.759   7.650
 5891POPC   C1B34783  28.478  40.570   8.550
 5891POPC   C2B34784  28.469  40.533   8.250
 5891POPC   C3B34785  28.467  40.517   7.950
 5891POPC   C4B34786  28.445  40.535   7.650
 5892POPC   NC334787  43.117  38.411   9.450
 5892POPC   PO434788  43.138  38.464   9.150
 5892POPC   GL134789  43.087  38.495   8.850
 5892POPC   GL234790  43.190  38.363   8.850
 5892POPC   C1A34791  43.147  38.462   8.550
 5892POPC   D2A34792  43.126  38.459   8.250
 5892POPC   C3A34793  43.069  38.496   7.950
 5892POPC   C4A34794  43.094  38.433   7.650
 5892POPC   C1B34795  43.218  38.181   8.550
 5892POPC   C2B34796  43.149  38.174   8.250
 5892POPC   C3B34797  43.154  38.199   7.950
 5892POPC   C4B34798  43.212  38.185   7.650
 5893POPC   NC334799  36.094  17.485   9.450
 5893POPC   PO434800  36.118  17.509   9.150
 5893POPC   GL134801  36.101  17.462   8.850
 5893POPC   GL234802  36.041  17.435   8.850
 5893POPC   C1A34803  36.094  17.478   8.550
 5893POPC   D2A34804  36.118  17.549   8.250
 5893POPC   C3A34805  36.105  17.466   7.950
 5893POPC   C4A34806  36.146  17.501   7.650
 5893POPC   C1B34807  35.874  17.441   8.550
 5893POPC   C2B34808  35.892  17.502   8.250
 5893POPC   C3B34809  35.869  17.468   7.950
 5893POPC   C4B34810  35.885  17.431   7.650
 5894POPC   NC334811   1.998  18.286   9.450
 5894POPC   PO434812   2.019  18.287   9.150
 5894POPC   GL134813   1.978  18.285   8.850
 5894POPC   GL234814   2.128  18.350   8.850
 5894POPC   C1A34815   1.948  18.276   8.550
 5894POPC   D2A34816   1.992  18.237   8.250
 5894POPC   C3A34817   1.992  18.320   7.950
 5894POPC   C4A34818   1.946  18.328   7.650
 5894POPC   C1B34819   2.252  18.416   8.550
 5894POPC   C2B34820   2.229  18.447   8.250
 5894POPC   C3B34821   2.165  18.360   7.950
 5894POPC   C4B34822   2.209  18.438   7.650
 5895POPC   NC334823  13.624  33.057   9.450
 5895POPC   PO434824  13.672  33.058   9.150
 5895POPC   GL134825  13.634  32.986   8.850
 5895POPC   GL234826  13.542  32.983   8.850
 5895POPC   C1A34827  13.662  33.055   8.550
 5895POPC   D2A34828  13.581  32.974   8.250
 5895POPC   C3A34829  13.608  33.050   7.950
 5895POPC   C4A34830  13.628  32.988   7.650
 5895POPC   C1B34831  13.412  32.892   8.550
 5895POPC   C2B34832  13.450  32.833   8.250
 5895POPC   C3B34833  13.410  32.815   7.950
 5895POPC   C4B34834  13.445  32.881   7.650
 5896POPC   NC334835  15.157  43.902   9.450
 5896POPC   PO434836  15.223  43.919   9.150
 5896POPC   GL134837  15.173  43.905   8.850
 5896POPC   GL234838  15.349  43.880   8.850
 5896POPC   C1A34839  15.206  43.906   8.550
 5896POPC   D2A34840  15.150  43.882   8.250
 5896POPC   C3A34841  15.218  43.932   7.950
 5896POPC   C4A34842  15.141  43.848   7.650
 5896POPC   C1B34843  15.464  43.854   8.550
 5896POPC   C2B34844  15.397  43.858   8.250
 5896POPC   C3B34845  15.464  43.893   7.950
 5896POPC   C4B34846  15.380  43.910   7.650
 5897POPC   NC334847  12.091   5.045   9.450
 5897POPC   PO434848  12.051   5.107   9.150
 5897POPC   GL134849  12.112   5.047   8.850
 5897POPC   GL234850  11.999   5.025   8.850
 5897POPC   C1A34851  12.028   5.118   8.550
 5897POPC   D2A34852  12.053   5.057   8.250
 5897POPC   C3A34853  12.045   5.060   7.950
 5897POPC   C4A34854  12.045   5.141   7.650
 5897POPC   C1B34855  11.966   4.852   8.550
 5897POPC   C2B34856  11.939   4.886   8.250
 5897POPC   C3B34857  11.897   4.849   7.950
 5897POPC   C4B34858  11.892   4.895   7.650
 5898POPC   NC334859  12.864  23.730   9.450
 5898POPC   PO434860  12.846  23.718   9.150
 5898POPC   GL134861  12.880  23.671   8.850
 5898POPC   GL234862  12.950  23.816   8.850
 5898POPC   C1A34863  12.831  23.723   8.550
 5898POPC   D2A34864  12.834  23.734   8.250
 5898POPC   C3A34865  12.846  23.680   7.950
 5898POPC   C4A34866  12.858  23.722   7.650
 5898POPC   C1B34867  12.948  23.902   8.550
 5898POPC   C2B34868  12.951  23.872   8.250
 5898POPC   C3B34869  13.008  23.940   7.950
 5898POPC   C4B34870  12.984  23.923   7.650
 5899POPC   NC334871  25.259   4.351   9.450
 5899POPC   PO434872  25.274   4.305   9.150
 5899POPC   GL134873  25.226   4.276   8.850
 5899POPC   GL234874  25.328   4.444   8.850
 5899POPC   C1A34875  25.305   4.356   8.550
 5899POPC   D2A34876  25.219   4.282   8.250
 5899POPC   C3A34877  25.286   4.335   7.950
 5899POPC   C4A34878  25.237   4.296   7.650
 5899POPC   C1B34879  25.506   4.444   8.550
 5899POPC   C2B34880  25.502   4.447   8.250
 5899POPC   C3B34881  25.465   4.524   7.950
 5899POPC   C4B34882  25.475   4.468   7.650
 5900POPC   NC334883  19.021  33.811   9.450
 5900POPC   PO434884  19.092  33.791   9.150
 5900POPC   GL134885  19.047  33.792   8.850
 5900POPC   GL234886  18.915  33.809   8.850
 5900POPC   C1A34887  19.039  33.793   8.550
 5900POPC   D2A34888  19.069  33.835   8.250
 5900POPC   C3A34889  19.103  33.830   7.950
 5900POPC   C4A34890  19.029  33.820   7.650
 5900POPC   C1B34891  18.824  33.826   8.550
 5900POPC   C2B34892  18.767  33.818   8.250
 5900POPC   C3B34893  18.773  33.881   7.950
 5900POPC   C4B34894  18.772  33.839   7.650
 5901POPC   NC334895  44.706  30.662   9.450
 5901POPC   PO434896  44.653  30.659   9.150
 5901POPC   GL134897  44.658  30.739   8.850
 5901POPC   GL234898  44.716  30.600   8.850
 5901POPC   C1A34899  44.640  30.699   8.550
 5901POPC   D2A34900  44.621  30.743   8.250
 5901POPC   C3A34901  44.685  30.728   7.950
 5901POPC   C4A34902  44.688  30.682   7.650
 5901POPC   C1B34903  44.763  30.475   8.550
 5901POPC   C2B34904  44.734  30.450   8.250
 5901POPC   C3B34905  44.772  30.446   7.950
 5901POPC   C4B34906  44.767  30.511   7.650
 5902POPC   NC334907  29.948   6.676   9.450
 5902POPC   PO434908  29.949   6.666   9.150
 5902POPC   GL134909  29.903   6.692   8.850
 5902POPC   GL234910  30.009   6.673   8.850
 5902POPC   C1A34911  29.925   6.663   8.550
 5902POPC   D2A34912  29.923   6.667   8.250
 5902POPC   C3A34913  29.901   6.636   7.950
 5902POPC   C4A34914  29.873   6.668   7.650
 5902POPC   C1B34915  30.131   6.750   8.550
 5902POPC   C2B34916  30.120   6.696   8.250
 5902POPC   C3B34917  30.117   6.708   7.950
 5902POPC   C4B34918  30.194   6.701   7.650
 5903POPC   NC334919  34.590   1.178   9.450
 5903POPC   PO434920  34.548   1.233   9.150
 5903POPC   GL134921  34.527   1.213   8.850
 5903POPC   GL234922  34.650   1.219   8.850
 5903POPC   C1A34923  34.594   1.241   8.550
 5903POPC   D2A34924  34.536   1.244   8.250
 5903POPC   C3A34925  34.548   1.209   7.950
 5903POPC   C4A34926  34.563   1.261   7.650
 5903POPC   C1B34927  34.811   1.291   8.550
 5903POPC   C2B34928  34.763   1.331   8.250
 5903POPC   C3B34929  34.786   1.268   7.950
 5903POPC   C4B34930  34.853   1.309   7.650
 5904POPC   NC334931  37.659  19.847   9.450
 5904POPC   PO434932  37.683  19.884   9.150
 5904POPC   GL134933  37.667  19.814   8.850
 5904POPC   GL234934  37.827  19.811   8.850
 5904POPC   C1A34935  37.704  19.801   8.550
 5904POPC   D2A34936  37.669  19.854   8.250
 5904POPC   C3A34937  37.631  19.787   7.950
 5904POPC   C4A34938  37.689  19.792   7.650
 5904POPC   C1B34939  37.918  19.740   8.550
 5904POPC   C2B34940  37.934  19.768   8.250
 5904POPC   C3B34941  37.884  19.687   7.950
 5904POPC   C4B34942  37.871  19.708   7.650
 5905POPC   NC334943   7.449  43.096   9.450
 5905POPC   PO434944   7.437  43.144   9.150
 5905POPC   GL134945   7.393  43.138   8.850
 5905POPC   GL234946   7.522  43.092   8.850
 5905POPC   C1A34947   7.470  43.137   8.550
 5905POPC   D2A34948   7.466  43.095   8.250
 5905POPC   C3A34949   7.468  43.069   7.950
 5905POPC   C4A34950   7.425  43.089   7.650
 5905POPC   C1B34951   7.610  42.987   8.550
 5905POPC   C2B34952   7.693  43.051   8.250
 5905POPC   C3B34953   7.651  43.024   7.950
 5905POPC   C4B34954   7.659  43.027   7.650
 5906POPC   NC334955  29.106  42.330   9.450
 5906POPC   PO434956  29.161  42.316   9.150
 5906POPC   GL134957  29.108  42.363   8.850
 5906POPC   GL234958  28.979  42.333   8.850
 5906POPC   C1A34959  29.123  42.288   8.550
 5906POPC   D2A34960  29.177  42.343   8.250
 5906POPC   C3A34961  29.156  42.367   7.950
 5906POPC   C4A34962  29.150  42.331   7.650
 5906POPC   C1B34963  28.860  42.278   8.550
 5906POPC   C2B34964  28.890  42.335   8.250
 5906POPC   C3B34965  28.856  42.350   7.950
 5906POPC   C4B34966  28.939  42.346   7.650
 5907POPC   NC334967  12.877  21.426   9.450
 5907POPC   PO434968  12.896  21.370   9.150
 5907POPC   GL134969  12.896  21.385   8.850
 5907POPC   GL234970  12.887  21.446   8.850
 5907POPC   C1A34971  12.870  21.429   8.550
 5907POPC   D2A34972  12.823  21.402   8.250
 5907POPC   C3A34973  12.809  21.415   7.950
 5907POPC   C4A34974  12.802  21.339   7.650
 5907POPC   C1B34975  12.957  21.571   8.550
 5907POPC   C2B34976  13.005  21.589   8.250
 5907POPC   C3B34977  12.940  21.641   7.950
 5907POPC   C4B34978  13.008  21.557   7.650
 5908POPC   NC334979  29.900  20.613   9.450
 5908POPC   PO434980  29.942  20.581   9.150
 5908POPC   GL134981  29.876  20.629   8.850
 5908POPC   GL234982  30.075  20.594   8.850
 5908POPC   C1A34983  29.945  20.641   8.550
 5908POPC   D2A34984  29.941  20.595   8.250
 5908POPC   C3A34985  29.956  20.642   7.950
 5908POPC   C4A34986  29.901  20.565   7.650
 5908POPC   C1B34987  30.147  20.518   8.550
 5908POPC   C2B34988  30.166  20.538   8.250
 5908POPC   C3B34989  30.147  20.481   7.950
 5908POPC   C4B34990  30.155  20.556   7.650
 5909POPC   NC334991  29.907   5.913   9.450
 5909POPC   PO434992  29.905   5.877   9.150
 5909POPC   GL134993  29.949   5.821   8.850
 5909POPC   GL234994  29.954   6.031   8.850
 5909POPC   C1A34995  29.921   5.848   8.550
 5909POPC   D2A34996  29.946   5.914   8.250
 5909POPC   C3A34997  29.900   5.903   7.950
 5909POPC   C4A34998  29.967   5.915   7.650
 5909POPC   C1B34999  29.928   6.125   8.550
 5909POPC   C2B35000  29.987   6.100   8.250
 5909POPC   C3B35001  29.994   6.075   7.950
 5909POPC   C4B35002  29.986   6.093   7.650
 5910POPC   NC335003   1.203   1.186   9.450
 5910POPC   PO435004   1.218   1.251   9.150
 5910POPC   GL135005   1.214   1.247   8.850
 5910POPC   GL235006   1.279   1.378   8.850
 5910POPC   C1A35007   1.201   1.176   8.550
 5910POPC   D2A35008   1.256   1.228   8.250
 5910POPC   C3A35009   1.179   1.232   7.950
 5910POPC   C4A35010   1.182   1.246   7.650
 5910POPC   C1B35011   1.259   1.485   8.550
 5910POPC   C2B35012   1.252   1.460   8.250
 5910POPC   C3B35013   1.321   1.444   7.950
 5910POPC   C4B35014   1.263   1.430   7.650
 5911POPC   NC335015  36.931   5.860   9.450
 5911POPC   PO435016  36.904   5.881   9.150
 5911POPC   GL135017  36.934   5.850   8.850
 5911POPC   GL235018  36.777   5.745   8.850
 5911POPC   C1A35019  36.909   5.822   8.550
 5911POPC   D2A35020  36.868   5.893   8.250
 5911POPC   C3A35021  36.891   5.886   7.950
 5911POPC   C4A35022  36.880   5.874   7.650
 5911POPC   C1B35023  36.704   5.675   8.550
 5911POPC   C2B35024  36.684   5.745   8.250
 5911POPC   C3B35025  36.744   5.657   7.950
 5911POPC   C4B35026  36.708   5.709   7.650
 5912POPC   NC335027  18.286   1.181   9.450
 5912POPC   PO435028  18.284   1.243   9.150
 5912POPC   GL135029  18.272   1.221   8.850
 5912POPC   GL235030  18.163   1.266   8.850
 5912POPC   C1A35031  18.266   1.228   8.550
 5912POPC   D2A35032  18.312   1.168   8.250
 5912POPC   C3A35033  18.297   1.197   7.950
 5912POPC   C4A35034  18.311   1.257   7.650
 5912POPC   C1B35035  18.081   1.339   8.550
 5912POPC   C2B35036  18.085   1.364   8.250
 5912POPC   C3B35037  18.026   1.349   7.950
 5912POPC   C4B35038  18.057   1.327   7.650
 5913POPC   NC335039  25.289  26.773   9.450
 5913POPC   PO435040  25.314  26.779   9.150
 5913POPC   GL135041  25.304  26.817   8.850
 5913POPC   GL235042  25.132  26.820   8.850
 5913POPC   C1A35043  25.246  26.838   8.550
 5913POPC   D2A35044  25.251  26.814   8.250
 5913POPC   C3A35045  25.259  26.825   7.950
 5913POPC   C4A35046  25.251  26.812   7.650
 5913POPC   C1B35047  25.048  26.779   8.550
 5913POPC   C2B35048  25.070  26.740   8.250
 5913POPC   C3B35049  25.032  26.763   7.950
 5913POPC   C4B35050  25.038  26.780   7.650
 5914POPC   NC335051  35.329  16.731   9.450
 5914POPC   PO435052  35.372  16.685   9.150
 5914POPC   GL135053  35.342  16.737   8.850
 5914POPC   GL235054  35.339  16.793   8.850
 5914POPC   C1A35055  35.323  16.681   8.550
 5914POPC   D2A35056  35.359  16.686   8.250
 5914POPC   C3A35057  35.379  16.727   7.950
 5914POPC   C4A35058  35.386  16.764   7.650
 5914POPC   C1B35059  35.196  16.931   8.550
 5914POPC   C2B35060  35.245  16.915   8.250
 5914POPC   C3B35061  35.245  16.918   7.950
 5914POPC   C4B35062  35.247  16.975   7.650
 5915POPC   NC335063  32.279  19.870   9.450
 5915POPC   PO435064  32.268  19.832   9.150
 5915POPC   GL135065  32.214  19.845   8.850
 5915POPC   GL235066  32.160  19.921   8.850
 5915POPC   C1A35067  32.275  19.808   8.550
 5915POPC   D2A35068  32.231  19.881   8.250
 5915POPC   C3A35069  32.284  19.790   7.950
 5915POPC   C4A35070  32.263  19.829   7.650
 5915POPC   C1B35071  32.023  19.943   8.550
 5915POPC   C2B35072  32.063  19.945   8.250
 5915POPC   C3B35073  32.022  19.909   7.950
 5915POPC   C4B35074  32.036  19.965   7.650
 5916POPC   NC335075  29.953  12.081   9.450
 5916POPC   PO435076  29.896  12.086   9.150
 5916POPC   GL135077  29.904  12.102   8.850
 5916POPC   GL235078  29.964  11.975   8.850
 5916POPC   C1A35079  29.951  12.058   8.550
 5916POPC   D2A35080  29.882  12.088   8.250
 5916POPC   C3A35081  29.936  12.102   7.950
 5916POPC   C4A35082  29.905  12.051   7.650
 5916POPC   C1B35083  30.087  11.884   8.550
 5916POPC   C2B35084  30.122  11.936   8.250
 5916POPC   C3B35085  30.102  11.923   7.950
 5916POPC   C4B35086  30.075  11.899   7.650
 5917POPC   NC335087  36.099   0.468   9.450
 5917POPC   PO435088  36.089   0.471   9.150
 5917POPC   GL135089  36.163   0.431   8.850
 5917POPC   GL235090  36.115   0.550   8.850
 5917POPC   C1A35091  36.167   0.427   8.550
 5917POPC   D2A35092  36.092   0.469   8.250
 5917POPC   C3A35093  36.174   0.438   7.950
 5917POPC   C4A35094  36.133   0.422   7.650
 5917POPC   C1B35095  36.144   0.689   8.550
 5917POPC   C2B35096  36.170   0.733   8.250
 5917POPC   C3B35097  36.108   0.669   7.950
 5917POPC   C4B35098  36.105   0.687   7.650
 5918POPC   NC335099  18.237  12.095   9.450
 5918POPC   PO435100  18.314  12.057   9.150
 5918POPC   GL135101  18.236  12.067   8.850
 5918POPC   GL235102  18.396  11.995   8.850
 5918POPC   C1A35103  18.317  12.118   8.550
 5918POPC   D2A35104  18.250  12.109   8.250
 5918POPC   C3A35105  18.276  12.063   7.950
 5918POPC   C4A35106  18.330  12.044   7.650
 5918POPC   C1B35107  18.461  11.946   8.550
 5918POPC   C2B35108  18.527  11.914   8.250
 5918POPC   C3B35109  18.481  11.911   7.950
 5918POPC   C4B35110  18.516  11.909   7.650
 5919POPC   NC335111  12.881  15.202   9.450
 5919POPC   PO435112  12.851  15.131   9.150
 5919POPC   GL135113  12.846  15.156   8.850
 5919POPC   GL235114  12.974  15.056   8.850
 5919POPC   C1A35115  12.857  15.193   8.550
 5919POPC   D2A35116  12.834  15.158   8.250
 5919POPC   C3A35117  12.866  15.162   7.950
 5919POPC   C4A35118  12.810  15.176   7.650
 5919POPC   C1B35119  13.046  14.968   8.550
 5919POPC   C2B35120  13.038  14.992   8.250
 5919POPC   C3B35121  13.050  14.950   7.950
 5919POPC   C4B35122  13.023  14.982   7.650
 5920POPC   NC335123  14.366  44.706   9.450
 5920POPC   PO435124  14.360  44.690   9.150
 5920POPC   GL135125  14.394  44.699   8.850
 5920POPC   GL235126  14.253  44.739   8.850
 5920POPC   C1A35127  14.442  44.614   8.550
 5920POPC   D2A35128  14.368  44.646   8.250
 5920POPC   C3A35129  14.431  44.705   7.950
 5920POPC   C4A35130  14.418  44.682   7.650
 5920POPC   C1B35131  14.196  44.737   8.550
 5920POPC   C2B35132  14.134  44.710   8.250
 5920POPC   C3B35133  14.208  44.730   7.950
 5920POPC   C4B35134  14.178  44.707   7.650
 5921POPC   NC335135  36.895  33.846   9.450
 5921POPC   PO435136  36.891  33.845   9.150
 5921POPC   GL135137  36.875  33.850   8.850
 5921POPC   GL235138  36.812  33.671   8.850
 5921POPC   C1A35139  36.909  33.824   8.550
 5921POPC   D2A35140  36.927  33.774   8.250
 5921POPC   C3A35141  36.928  33.756   7.950
 5921POPC   C4A35142  36.863  33.752   7.650
 5921POPC   C1B35143  36.717  33.625   8.550
 5921POPC   C2B35144  36.765  33.629   8.250
 5921POPC   C3B35145  36.781  33.615   7.950
 5921POPC   C4B35146  36.790  33.546   7.650
 5922POPC   NC335147  44.680  39.204   9.450
 5922POPC   PO435148  44.629  39.275   9.150
 5922POPC   GL135149  44.678  39.271   8.850
 5922POPC   GL235150  44.580  39.311   8.850
 5922POPC   C1A35151  44.626  39.192   8.550
 5922POPC   D2A35152  44.696  39.213   8.250
 5922POPC   C3A35153  44.661  39.262   7.950
 5922POPC   C4A35154  44.649  39.226   7.650
 5922POPC   C1B35155  44.564  39.425   8.550
 5922POPC   C2B35156  44.561  39.503   8.250
 5922POPC   C3B35157  44.636  39.518   7.950
 5922POPC   C4B35158  44.565  39.477   7.650
 5923POPC   NC335159  26.790  36.923   9.450
 5923POPC   PO435160  26.831  36.899   9.150
 5923POPC   GL135161  26.805  36.949   8.850
 5923POPC   GL235162  26.876  36.787   8.850
 5923POPC   C1A35163  26.842  36.882   8.550
 5923POPC   D2A35164  26.776  36.937   8.250
 5923POPC   C3A35165  26.781  36.894   7.950
 5923POPC   C4A35166  26.837  36.950   7.650
 5923POPC   C1B35167  26.942  36.684   8.550
 5923POPC   C2B35168  26.927  36.693   8.250
 5923POPC   C3B35169  26.923  36.738   7.950
 5923POPC   C4B35170  26.970  36.713   7.650
 5924POPC   NC335171  28.331  19.878   9.450
 5924POPC   PO435172  28.348  19.819   9.150
 5924POPC   GL135173  28.410  19.881   8.850
 5924POPC   GL235174  28.234  19.715   8.850
 5924POPC   C1A35175  28.356  19.851   8.550
 5924POPC   D2A35176  28.361  19.863   8.250
 5924POPC   C3A35177  28.404  19.842   7.950
 5924POPC   C4A35178  28.377  19.798   7.650
 5924POPC   C1B35179  28.128  19.716   8.550
 5924POPC   C2B35180  28.140  19.649   8.250
 5924POPC   C3B35181  28.177  19.700   7.950
 5924POPC   C4B35182  28.221  19.642   7.650
 5925POPC   NC335183  15.146  32.238   9.450
 5925POPC   PO435184  15.227  32.261   9.150
 5925POPC   GL135185  15.221  32.236   8.850
 5925POPC   GL235186  15.032  32.315   8.850
 5925POPC   C1A35187  15.136  32.292   8.550
 5925POPC   D2A35188  15.210  32.287   8.250
 5925POPC   C3A35189  15.184  32.265   7.950
 5925POPC   C4A35190  15.187  32.215   7.650
 5925POPC   C1B35191  14.904  32.393   8.550
 5925POPC   C2B35192  14.996  32.363   8.250
 5925POPC   C3B35193  14.938  32.304   7.950
 5925POPC   C4B35194  14.998  32.316   7.650
 5926POPC   NC335195  25.225  37.650   9.450
 5926POPC   PO435196  25.304  37.639   9.150
 5926POPC   GL135197  25.236  37.717   8.850
 5926POPC   GL235198  25.188  37.584   8.850
 5926POPC   C1A35199  25.231  37.646   8.550
 5926POPC   D2A35200  25.263  37.727   8.250
 5926POPC   C3A35201  25.304  37.722   7.950
 5926POPC   C4A35202  25.242  37.645   7.650
 5926POPC   C1B35203  25.111  37.486   8.550
 5926POPC   C2B35204  25.078  37.515   8.250
 5926POPC   C3B35205  25.103  37.524   7.950
 5926POPC   C4B35206  25.082  37.477   7.650
 5927POPC   NC335207  29.146   8.171   9.450
 5927POPC   PO435208  29.109   8.205   9.150
 5927POPC   GL135209  29.177   8.229   8.850
 5927POPC   GL235210  29.251   8.124   8.850
 5927POPC   C1A35211  29.127   8.153   8.550
 5927POPC   D2A35212  29.164   8.217   8.250
 5927POPC   C3A35213  29.162   8.245   7.950
 5927POPC   C4A35214  29.101   8.224   7.650
 5927POPC   C1B35215  29.287   7.983   8.550
 5927POPC   C2B35216  29.214   7.959   8.250
 5927POPC   C3B35217  29.231   7.951   7.950
 5927POPC   C4B35218  29.303   7.976   7.650
 5928POPC   NC335219   1.238  10.569   9.450
 5928POPC   PO435220   1.252  10.503   9.150
 5928POPC   GL135221   1.166  10.560   8.850
 5928POPC   GL235222   1.089  10.523   8.850
 5928POPC   C1A35223   1.232  10.498   8.550
 5928POPC   D2A35224   1.186  10.502   8.250
 5928POPC   C3A35225   1.165  10.505   7.950
 5928POPC   C4A35226   1.253  10.542   7.650
 5928POPC   C1B35227   0.933  10.450   8.550
 5928POPC   C2B35228   0.976  10.481   8.250
 5928POPC   C3B35229   0.929  10.484   7.950
 5928POPC   C4B35230   0.948  10.429   7.650
 5929POPC   NC335231  36.118  33.053   9.450
 5929POPC   PO435232  36.143  32.991   9.150
 5929POPC   GL135233  36.177  33.058   8.850
 5929POPC   GL235234  36.111  32.926   8.850
 5929POPC   C1A35235  36.175  32.988   8.550
 5929POPC   D2A35236  36.125  32.978   8.250
 5929POPC   C3A35237  36.130  33.056   7.950
 5929POPC   C4A35238  36.175  33.015   7.650
 5929POPC   C1B35239  36.082  32.806   8.550
 5929POPC   C2B35240  36.120  32.808   8.250
 5929POPC   C3B35241  36.139  32.747   7.950
 5929POPC   C4B35242  36.109  32.793   7.650
 5930POPC   NC335243  36.932   3.519   9.450
 5930POPC   PO435244  36.856   3.503   9.150
 5930POPC   GL135245  36.884   3.573   8.850
 5930POPC   GL235246  36.760   3.533   8.850
 5930POPC   C1A35247  36.928   3.581   8.550
 5930POPC   D2A35248  36.936   3.586   8.250
 5930POPC   C3A35249  36.911   3.569   7.950
 5930POPC   C4A35250  36.949   3.541   7.650
 5930POPC   C1B35251  36.676   3.491   8.550
 5930POPC   C2B35252  36.644   3.509   8.250
 5930POPC   C3B35253  36.638   3.440   7.950
 5930POPC   C4B35254  36.645   3.470   7.650
 5931POPC   NC335255  43.877  14.449   9.450
 5931POPC   PO435256  43.909  14.378   9.150
 5931POPC   GL135257  43.844  14.363   8.850
 5931POPC   GL235258  43.799  14.267   8.850
 5931POPC   C1A35259  43.910  14.390   8.550
 5931POPC   D2A35260  43.878  14.384   8.250
 5931POPC   C3A35261  43.859  14.366   7.950
 5931POPC   C4A35262  43.859  14.428   7.650
 5931POPC   C1B35263  43.722  14.226   8.550
 5931POPC   C2B35264  43.723  14.233   8.250
 5931POPC   C3B35265  43.672  14.191   7.950
 5931POPC   C4B35266  43.731  14.170   7.650
 5932POPC   NC335267  21.340   2.790   9.450
 5932POPC   PO435268  21.399   2.780   9.150
 5932POPC   GL135269  21.400   2.760   8.850
 5932POPC   GL235270  21.526   2.807   8.850
 5932POPC   C1A35271  21.367   2.748   8.550
 5932POPC   D2A35272  21.415   2.791   8.250
 5932POPC   C3A35273  21.418   2.747   7.950
 5932POPC   C4A35274  21.355   2.717   7.650
 5932POPC   C1B35275  21.623   2.848   8.550
 5932POPC   C2B35276  21.589   2.881   8.250
 5932POPC   C3B35277  21.645   2.857   7.950
 5932POPC   C4B35278  21.660   2.812   7.650
 5933POPC   NC335279  38.433  32.227   9.450
 5933POPC   PO435280  38.428  32.202   9.150
 5933POPC   GL135281  38.480  32.292   8.850
 5933POPC   GL235282  38.404  32.351   8.850
 5933POPC   C1A35283  38.422  32.295   8.550
 5933POPC   D2A35284  38.500  32.232   8.250
 5933POPC   C3A35285  38.426  32.218   7.950
 5933POPC   C4A35286  38.448  32.266   7.650
 5933POPC   C1B35287  38.469  32.539   8.550
 5933POPC   C2B35288  38.394  32.511   8.250
 5933POPC   C3B35289  38.472  32.471   7.950
 5933POPC   C4B35290  38.402  32.504   7.650
 5934POPC   NC335291  31.490  37.659   9.450
 5934POPC   PO435292  31.509  37.679   9.150
 5934POPC   GL135293  31.448  37.679   8.850
 5934POPC   GL235294  31.624  37.694   8.850
 5934POPC   C1A35295  31.515  37.720   8.550
 5934POPC   D2A35296  31.428  37.708   8.250
 5934POPC   C3A35297  31.499  37.640   7.950
 5934POPC   C4A35298  31.461  37.638   7.650
 5934POPC   C1B35299  31.681  37.598   8.550
 5934POPC   C2B35300  31.683  37.651   8.250
 5934POPC   C3B35301  31.678  37.638   7.950
 5934POPC   C4B35302  31.749  37.582   7.650
 5935POPC   NC335303  32.222  10.491   9.450
 5935POPC   PO435304  32.283  10.487   9.150
 5935POPC   GL135305  32.256  10.530   8.850
 5935POPC   GL235306  32.130  10.625   8.850
 5935POPC   C1A35307  32.293  10.523   8.550
 5935POPC   D2A35308  32.266  10.530   8.250
 5935POPC   C3A35309  32.264  10.567   7.950
 5935POPC   C4A35310  32.223  10.507   7.650
 5935POPC   C1B35311  32.079  10.727   8.550
 5935POPC   C2B35312  32.036  10.697   8.250
 5935POPC   C3B35313  32.014  10.721   7.950
 5935POPC   C4B35314  32.059  10.697   7.650
 5936POPC   NC335315  36.900  41.608   9.450
 5936POPC   PO435316  36.864  41.519   9.150
 5936POPC   GL135317  36.855  41.604   8.850
 5936POPC   GL235318  36.841  41.671   8.850
 5936POPC   C1A35319  36.909  41.586   8.550
 5936POPC   D2A35320  36.908  41.572   8.250
 5936POPC   C3A35321  36.854  41.576   7.950
 5936POPC   C4A35322  36.880  41.575   7.650
 5936POPC   C1B35323  36.837  41.791   8.550
 5936POPC   C2B35324  36.831  41.814   8.250
 5936POPC   C3B35325  36.868  41.801   7.950
 5936POPC   C4B35326  36.809  41.826   7.650
 5937POPC   NC335327   0.482  16.758   9.450
 5937POPC   PO435328   0.475  16.711   9.150
 5937POPC   GL135329   0.439  16.769   8.850
 5937POPC   GL235330   0.370  16.860   8.850
 5937POPC   C1A35331   0.435  16.745   8.550
 5937POPC   D2A35332   0.417  16.735   8.250
 5937POPC   C3A35333   0.406  16.761   7.950
 5937POPC   C4A35334   0.400  16.716   7.650
 5937POPC   C1B35335   0.327  16.936   8.550
 5937POPC   C2B35336   0.256  16.900   8.250
 5937POPC   C3B35337   0.278  16.895   7.950
 5937POPC   C4B35338   0.280  16.913   7.650
 5938POPC   NC335339  11.301  44.625   9.450
 5938POPC   PO435340  11.253  44.623   9.150
 5938POPC   GL135341  11.301  44.650   8.850
 5938POPC   GL235342  11.159  44.746   8.850
 5938POPC   C1A35343  11.264  44.695   8.550
 5938POPC   D2A35344  11.311  44.689   8.250
 5938POPC   C3A35345  11.300  44.639   7.950
 5938POPC   C4A35346  11.268  44.672   7.650
 5938POPC   C1B35347  11.060  44.802   8.550
 5938POPC   C2B35348  11.113  44.760   8.250
 5938POPC   C3B35349  11.120  44.767   7.950
 5938POPC   C4B35350  11.115  44.776   7.650
 5939POPC   NC335351  28.346  22.896   9.450
 5939POPC   PO435352  28.340  22.936   9.150
 5939POPC   GL135353  28.359  22.942   8.850
 5939POPC   GL235354  28.370  23.094   8.850
 5939POPC   C1A35355  28.408  22.914   8.550
 5939POPC   D2A35356  28.361  22.942   8.250
 5939POPC   C3A35357  28.415  22.897   7.950
 5939POPC   C4A35358  28.369  22.979   7.650
 5939POPC   C1B35359  28.390  23.179   8.550
 5939POPC   C2B35360  28.439  23.152   8.250
 5939POPC   C3B35361  28.416  23.196   7.950
 5939POPC   C4B35362  28.458  23.223   7.650
 5940POPC   NC335363  18.241  18.273   9.450
 5940POPC   PO435364  18.310  18.256   9.150
 5940POPC   GL135365  18.293  18.235   8.850
 5940POPC   GL235366  18.405  18.354   8.850
 5940POPC   C1A35367  18.281  18.327   8.550
 5940POPC   D2A35368  18.309  18.281   8.250
 5940POPC   C3A35369  18.305  18.249   7.950
 5940POPC   C4A35370  18.319  18.235   7.650
 5940POPC   C1B35371  18.454  18.430   8.550
 5940POPC   C2B35372  18.492  18.513   8.250
 5940POPC   C3B35373  18.447  18.495   7.950
 5940POPC   C4B35374  18.429  18.480   7.650
 5941POPC   NC335375  36.934  34.564   9.450
 5941POPC   PO435376  36.919  34.606   9.150
 5941POPC   GL135377  36.906  34.576   8.850
 5941POPC   GL235378  36.793  34.516   8.850
 5941POPC   C1A35379  36.883  34.528   8.550
 5941POPC   D2A35380  36.932  34.609   8.250
 5941POPC   C3A35381  36.897  34.599   7.950
 5941POPC   C4A35382  36.863  34.614   7.650
 5941POPC   C1B35383  36.685  34.515   8.550
 5941POPC   C2B35384  36.621  34.463   8.250
 5941POPC   C3B35385  36.675  34.470   7.950
 5941POPC   C4B35386  36.642  34.448   7.650
 5942POPC   NC335387  16.708  35.346   9.450
 5942POPC   PO435388  16.722  35.366   9.150
 5942POPC   GL135389  16.765  35.379   8.850
 5942POPC   GL235390  16.657  35.430   8.850
 5942POPC   C1A35391  16.761  35.339   8.550
 5942POPC   D2A35392  16.733  35.310   8.250
 5942POPC   C3A35393  16.743  35.341   7.950
 5942POPC   C4A35394  16.691  35.393   7.650
 5942POPC   C1B35395  16.473  35.437   8.550
 5942POPC   C2B35396  16.489  35.499   8.250
 5942POPC   C3B35397  16.478  35.501   7.950
 5942POPC   C4B35398  16.560  35.486   7.650
 5943POPC   NC335399   8.990  36.855   9.450
 5943POPC   PO435400   8.986  36.866   9.150
 5943POPC   GL135401   8.976  36.921   8.850
 5943POPC   GL235402   8.860  36.893   8.850
 5943POPC   C1A35403   9.018  36.867   8.550
 5943POPC   D2A35404   8.971  36.856   8.250
 5943POPC   C3A35405   8.931  36.877   7.950
 5943POPC   C4A35406   8.990  36.854   7.650
 5943POPC   C1B35407   8.722  36.896   8.550
 5943POPC   C2B35408   8.770  36.890   8.250
 5943POPC   C3B35409   8.693  36.896   7.950
 5943POPC   C4B35410   8.745  36.834   7.650
 5944POPC   NC335411  13.642  19.825   9.450
 5944POPC   PO435412  13.587  19.854   9.150
 5944POPC   GL135413  13.585  19.866   8.850
 5944POPC   GL235414  13.652  19.721   8.850
 5944POPC   C1A35415  13.585  19.848   8.550
 5944POPC   D2A35416  13.675  19.805   8.250
 5944POPC   C3A35417  13.580  19.878   7.950
 5944POPC   C4A35418  13.584  19.832   7.650
 5944POPC   C1B35419  13.638  19.608   8.550
 5944POPC   C2B35420  13.694  19.622   8.250
 5944POPC   C3B35421  13.693  19.605   7.950
 5944POPC   C4B35422  13.698  19.601   7.650
 5945POPC   NC335423  21.417  36.116   9.450
 5945POPC   PO435424  21.353  36.177   9.150
 5945POPC   GL135425  21.382  36.169   8.850
 5945POPC   GL235426  21.256  36.109   8.850
 5945POPC   C1A35427  21.363  36.156   8.550
 5945POPC   D2A35428  21.415  36.105   8.250
 5945POPC   C3A35429  21.397  36.121   7.950
 5945POPC   C4A35430  21.355  36.142   7.650
 5945POPC   C1B35431  21.161  36.023   8.550
 5945POPC   C2B35432  21.115  36.061   8.250
 5945POPC   C3B35433  21.148  36.057   7.950
 5945POPC   C4B35434  21.160  35.995   7.650
 5946POPC   NC335435   9.772  32.264   9.450
 5946POPC   PO435436   9.714  32.210   9.150
 5946POPC   GL135437   9.721  32.269   8.850
 5946POPC   GL235438   9.743  32.326   8.850
 5946POPC   C1A35439   9.739  32.256   8.550
 5946POPC   D2A35440   9.712  32.227   8.250
 5946POPC   C3A35441   9.765  32.296   7.950
 5946POPC   C4A35442   9.786  32.294   7.650
 5946POPC   C1B35443   9.806  32.494   8.550
 5946POPC   C2B35444   9.794  32.460   8.250
 5946POPC   C3B35445   9.797  32.521   7.950
 5946POPC   C4B35446   9.807  32.454   7.650
 5947POPC   NC335447  40.025  27.571   9.450
 5947POPC   PO435448  39.961  27.556   9.150
 5947POPC   GL135449  39.964  27.560   8.850
 5947POPC   GL235450  40.074  27.526   8.850
 5947POPC   C1A35451  39.968  27.635   8.550
 5947POPC   D2A35452  40.028  27.620   8.250
 5947POPC   C3A35453  39.963  27.578   7.950
 5947POPC   C4A35454  39.969  27.611   7.650
 5947POPC   C1B35455  40.282  27.460   8.550
 5947POPC   C2B35456  40.276  27.454   8.250
 5947POPC   C3B35457  40.214  27.481   7.950
 5947POPC   C4B35458  40.280  27.500   7.650
 5948POPC   NC335459  15.908  38.450   9.450
 5948POPC   PO435460  15.908  38.458   9.150
 5948POPC   GL135461  15.942  38.501   8.850
 5948POPC   GL235462  15.959  38.300   8.850
 5948POPC   C1A35463  15.923  38.425   8.550
 5948POPC   D2A35464  15.931  38.462   8.250
 5948POPC   C3A35465  15.970  38.501   7.950
 5948POPC   C4A35466  15.985  38.414   7.650
 5948POPC   C1B35467  16.045  38.263   8.550
 5948POPC   C2B35468  16.048  38.195   8.250
 5948POPC   C3B35469  16.088  38.189   7.950
 5948POPC   C4B35470  16.085  38.224   7.650
 5949POPC   NC335471  13.607  30.677   9.450
 5949POPC   PO435472  13.584  30.696   9.150
 5949POPC   GL135473  13.669  30.687   8.850
 5949POPC   GL235474  13.701  30.622   8.850
 5949POPC   C1A35475  13.622  30.720   8.550
 5949POPC   D2A35476  13.610  30.686   8.250
 5949POPC   C3A35477  13.581  30.725   7.950
 5949POPC   C4A35478  13.613  30.720   7.650
 5949POPC   C1B35479  13.740  30.440   8.550
 5949POPC   C2B35480  13.695  30.485   8.250
 5949POPC   C3B35481  13.688  30.510   7.950
 5949POPC   C4B35482  13.747  30.453   7.650
 5950POPC   NC335483  28.367   6.688   9.450
 5950POPC   PO435484  28.366   6.670   9.150
 5950POPC   GL135485  28.398   6.681   8.850
 5950POPC   GL235486  28.428   6.787   8.850
 5950POPC   C1A35487  28.368   6.685   8.550
 5950POPC   D2A35488  28.365   6.610   8.250
 5950POPC   C3A35489  28.368   6.676   7.950
 5950POPC   C4A35490  28.376   6.694   7.650
 5950POPC   C1B35491  28.456   6.877   8.550
 5950POPC   C2B35492  28.411   6.899   8.250
 5950POPC   C3B35493  28.444   6.908   7.950
 5950POPC   C4B35494  28.431   6.880   7.650
 5951POPC   NC335495  17.537  35.364   9.450
 5951POPC   PO435496  17.494  35.347   9.150
 5951POPC   GL135497  17.548  35.333   8.850
 5951POPC   GL235498  17.438  35.454   8.850
 5951POPC   C1A35499  17.460  35.302   8.550
 5951POPC   D2A35500  17.519  35.341   8.250
 5951POPC   C3A35501  17.502  35.328   7.950
 5951POPC   C4A35502  17.502  35.311   7.650
 5951POPC   C1B35503  17.369  35.597   8.550
 5951POPC   C2B35504  17.396  35.559   8.250
 5951POPC   C3B35505  17.379  35.607   7.950
 5951POPC   C4B35506  17.368  35.536   7.650
 5952POPC   NC335507  33.024  30.649   9.450
 5952POPC   PO435508  33.055  30.726   9.150
 5952POPC   GL135509  33.045  30.746   8.850
 5952POPC   GL235510  32.996  30.561   8.850
 5952POPC   C1A35511  33.014  30.664   8.550
 5952POPC   D2A35512  33.027  30.656   8.250
 5952POPC   C3A35513  33.032  30.651   7.950
 5952POPC   C4A35514  33.073  30.655   7.650
 5952POPC   C1B35515  32.985  30.427   8.550
 5952POPC   C2B35516  33.011  30.430   8.250
 5952POPC   C3B35517  32.952  30.437   7.950
 5952POPC   C4B35518  32.963  30.473   7.650
 5953POPC   NC335519  22.155  35.369   9.450
 5953POPC   PO435520  22.200  35.364   9.150
 5953POPC   GL135521  22.141  35.378   8.850
 5953POPC   GL235522  22.028  35.318   8.850
 5953POPC   C1A35523  22.178  35.349   8.550
 5953POPC   D2A35524  22.196  35.313   8.250
 5953POPC   C3A35525  22.183  35.317   7.950
 5953POPC   C4A35526  22.136  35.327   7.650
 5953POPC   C1B35527  21.973  35.240   8.550
 5953POPC   C2B35528  21.909  35.278   8.250
 5953POPC   C3B35529  21.933  35.234   7.950
 5953POPC   C4B35530  21.910  35.232   7.650
 5954POPC   NC335531  27.635  12.836   9.450
 5954POPC   PO435532  27.594  12.851   9.150
 5954POPC   GL135533  27.578  12.898   8.850
 5954POPC   GL235534  27.527  12.965   8.850
 5954POPC   C1A35535  27.568  12.891   8.550
 5954POPC   D2A35536  27.637  12.893   8.250
 5954POPC   C3A35537  27.588  12.832   7.950
 5954POPC   C4A35538  27.582  12.857   7.650
 5954POPC   C1B35539  27.440  13.107   8.550
 5954POPC   C2B35540  27.445  13.030   8.250
 5954POPC   C3B35541  27.507  13.092   7.950
 5954POPC   C4B35542  27.441  13.075   7.650
 5955POPC   NC335543   3.529  19.788   9.450
 5955POPC   PO435544   3.539  19.809   9.150
 5955POPC   GL135545   3.513  19.834   8.850
 5955POPC   GL235546   3.600  19.696   8.850
 5955POPC   C1A35547   3.565  19.809   8.550
 5955POPC   D2A35548   3.559  19.859   8.250
 5955POPC   C3A35549   3.554  19.824   7.950
 5955POPC   C4A35550   3.555  19.803   7.650
 5955POPC   C1B35551   3.574  19.641   8.550
 5955POPC   C2B35552   3.648  19.646   8.250
 5955POPC   C3B35553   3.628  19.572   7.950
 5955POPC   C4B35554   3.607  19.549   7.650
 5956POPC   NC335555  15.931  17.491   9.450
 5956POPC   PO435556  15.988  17.529   9.150
 5956POPC   GL135557  15.907  17.531   8.850
 5956POPC   GL235558  15.954  17.405   8.850
 5956POPC   C1A35559  15.920  17.468   8.550
 5956POPC   D2A35560  15.992  17.506   8.250
 5956POPC   C3A35561  16.005  17.482   7.950
 5956POPC   C4A35562  15.981  17.496   7.650
 5956POPC   C1B35563  16.100  17.268   8.550
 5956POPC   C2B35564  16.095  17.235   8.250
 5956POPC   C3B35565  16.054  17.236   7.950
 5956POPC   C4B35566  16.038  17.240   7.650
 5957POPC   NC335567   5.095  11.271   9.450
 5957POPC   PO435568   5.073  11.315   9.150
 5957POPC   GL135569   5.105  11.331   8.850
 5957POPC   GL235570   5.115  11.169   8.850
 5957POPC   C1A35571   5.119  11.328   8.550
 5957POPC   D2A35572   5.087  11.325   8.250
 5957POPC   C3A35573   5.045  11.319   7.950
 5957POPC   C4A35574   5.138  11.344   7.650
 5957POPC   C1B35575   5.225  11.076   8.550
 5957POPC   C2B35576   5.151  11.093   8.250
 5957POPC   C3B35577   5.156  11.024   7.950
 5957POPC   C4B35578   5.152  11.096   7.650
 5958POPC   NC335579  26.057   8.231   9.450
 5958POPC   PO435580  26.080   8.238   9.150
 5958POPC   GL135581  26.082   8.205   8.850
 5958POPC   GL235582  26.185   8.254   8.850
 5958POPC   C1A35583  26.001   8.173   8.550
 5958POPC   D2A35584  26.061   8.223   8.250
 5958POPC   C3A35585  26.012   8.224   7.950
 5958POPC   C4A35586  26.049   8.182   7.650
 5958POPC   C1B35587  26.227   8.261   8.550
 5958POPC   C2B35588  26.291   8.317   8.250
 5958POPC   C3B35589  26.284   8.330   7.950
 5958POPC   C4B35590  26.292   8.335   7.650
 5959POPC   NC335591  22.144   1.166   9.450
 5959POPC   PO435592  22.156   1.256   9.150
 5959POPC   GL135593  22.122   1.178   8.850
 5959POPC   GL235594  22.235   1.134   8.850
 5959POPC   C1A35595  22.128   1.240   8.550
 5959POPC   D2A35596  22.129   1.174   8.250
 5959POPC   C3A35597  22.114   1.257   7.950
 5959POPC   C4A35598  22.150   1.238   7.650
 5959POPC   C1B35599  22.387   1.053   8.550
 5959POPC   C2B35600  22.352   1.039   8.250
 5959POPC   C3B35601  22.313   1.032   7.950
 5959POPC   C4B35602  22.387   1.059   7.650
 5960POPC   NC335603  21.410   5.896   9.450
 5960POPC   PO435604  21.338   5.830   9.150
 5960POPC   GL135605  21.368   5.870   8.850
 5960POPC   GL235606  21.413   6.009   8.850
 5960POPC   C1A35607  21.414   5.869   8.550
 5960POPC   D2A35608  21.338   5.890   8.250
 5960POPC   C3A35609  21.429   5.865   7.950
 5960POPC   C4A35610  21.347   5.873   7.650
 5960POPC   C1B35611  21.452   6.069   8.550
 5960POPC   C2B35612  21.368   6.098   8.250
 5960POPC   C3B35613  21.392   6.128   7.950
 5960POPC   C4B35614  21.451   6.139   7.650
 5961POPC   NC335615  25.307  38.465   9.450
 5961POPC   PO435616  25.235  38.421   9.150
 5961POPC   GL135617  25.288  38.498   8.850
 5961POPC   GL235618  25.331  38.468   8.850
 5961POPC   C1A35619  25.254  38.449   8.550
 5961POPC   D2A35620  25.273  38.494   8.250
 5961POPC   C3A35621  25.311  38.467   7.950
 5961POPC   C4A35622  25.224  38.486   7.650
 5961POPC   C1B35623  25.534  38.548   8.550
 5961POPC   C2B35624  25.504  38.566   8.250
 5961POPC   C3B35625  25.488  38.620   7.950
 5961POPC   C4B35626  25.459  38.551   7.650
 5962POPC   NC335627  20.635  15.907   9.450
 5962POPC   PO435628  20.650  15.967   9.150
 5962POPC   GL135629  20.591  15.930   8.850
 5962POPC   GL235630  20.611  16.047   8.850
 5962POPC   C1A35631  20.569  15.984   8.550
 5962POPC   D2A35632  20.573  15.910   8.250
 5962POPC   C3A35633  20.645  15.989   7.950
 5962POPC   C4A35634  20.630  15.998   7.650
 5962POPC   C1B35635  20.626  16.206   8.550
 5962POPC   C2B35636  20.607  16.157   8.250
 5962POPC   C3B35637  20.565  16.235   7.950
 5962POPC   C4B35638  20.579  16.162   7.650
 5963POPC   NC335639  19.826  33.844   9.450
 5963POPC   PO435640  19.806  33.783   9.150
 5963POPC   GL135641  19.849  33.786   8.850
 5963POPC   GL235642  19.939  33.642   8.850
 5963POPC   C1A35643  19.797  33.829   8.550
 5963POPC   D2A35644  19.793  33.768   8.250
 5963POPC   C3A35645  19.828  33.792   7.950
 5963POPC   C4A35646  19.833  33.798   7.650
 5963POPC   C1B35647  19.901  33.560   8.550
 5963POPC   C2B35648  19.912  33.538   8.250
 5963POPC   C3B35649  19.985  33.575   7.950
 5963POPC   C4B35650  19.982  33.564   7.650
 5964POPC   NC335651  26.080   6.692   9.450
 5964POPC   PO435652  26.007   6.603   9.150
 5964POPC   GL135653  26.076   6.686   8.850
 5964POPC   GL235654  25.937   6.584   8.850
 5964POPC   C1A35655  26.023   6.677   8.550
 5964POPC   D2A35656  25.996   6.666   8.250
 5964POPC   C3A35657  26.015   6.681   7.950
 5964POPC   C4A35658  26.032   6.646   7.650
 5964POPC   C1B35659  25.843   6.468   8.550
 5964POPC   C2B35660  25.817   6.489   8.250
 5964POPC   C3B35661  25.830   6.516   7.950
 5964POPC   C4B35662  25.879   6.500   7.650
 5965POPC   NC335663  24.498   5.855   9.450
 5965POPC   PO435664  24.502   5.824   9.150
 5965POPC   GL135665  24.448   5.858   8.850
 5965POPC   GL235666  24.403   5.957   8.850
 5965POPC   C1A35667  24.465   5.825   8.550
 5965POPC   D2A35668  24.458   5.820   8.250
 5965POPC   C3A35669  24.491   5.859   7.950
 5965POPC   C4A35670  24.452   5.876   7.650
 5965POPC   C1B35671  24.268   5.938   8.550
 5965POPC   C2B35672  24.230   5.960   8.250
 5965POPC   C3B35673  24.249   5.961   7.950
 5965POPC   C4B35674  24.211   5.907   7.650
 5966POPC   NC335675  15.959  11.343   9.450
 5966POPC   PO435676  15.993  11.278   9.150
 5966POPC   GL135677  15.941  11.310   8.850
 5966POPC   GL235678  15.958  11.136   8.850
 5966POPC   C1A35679  15.972  11.313   8.550
 5966POPC   D2A35680  15.954  11.340   8.250
 5966POPC   C3A35681  15.961  11.254   7.950
 5966POPC   C4A35682  15.933  11.346   7.650
 5966POPC   C1B35683  15.952  11.070   8.550
 5966POPC   C2B35684  15.910  11.076   8.250
 5966POPC   C3B35685  15.982  11.096   7.950
 5966POPC   C4B35686  15.932  11.012   7.650
 5967POPC   NC335687  13.652  39.968   9.450
 5967POPC   PO435688  13.674  39.979   9.150
 5967POPC   GL135689  13.599  39.993   8.850
 5967POPC   GL235690  13.777  40.052   8.850
 5967POPC   C1A35691  13.608  40.053   8.550
 5967POPC   D2A35692  13.580  40.009   8.250
 5967POPC   C3A35693  13.606  40.007   7.950
 5967POPC   C4A35694  13.652  40.025   7.650
 5967POPC   C1B35695  13.822  40.165   8.550
 5967POPC   C2B35696  13.808  40.113   8.250
 5967POPC   C3B35697  13.820  40.166   7.950
 5967POPC   C4B35698  13.867  40.167   7.650
 5968POPC   NC335699  15.177   5.093   9.450
 5968POPC   PO435700  15.215   5.103   9.150
 5968POPC   GL135701  15.208   5.056   8.850
 5968POPC   GL235702  15.111   5.117   8.850
 5968POPC   C1A35703  15.210   5.092   8.550
 5968POPC   D2A35704  15.221   5.094   8.250
 5968POPC   C3A35705  15.178   5.131   7.950
 5968POPC   C4A35706  15.186   5.113   7.650
 5968POPC   C1B35707  14.909   5.206   8.550
 5968POPC   C2B35708  14.903   5.144   8.250
 5968POPC   C3B35709  14.961   5.165   7.950
 5968POPC   C4B35710  14.951   5.174   7.650
 5969POPC   NC335711  37.678  29.944   9.450
 5969POPC   PO435712  37.664  29.929   9.150
 5969POPC   GL135713  37.673  29.946   8.850
 5969POPC   GL235714  37.690  29.846   8.850
 5969POPC   C1A35715  37.668  29.885   8.550
 5969POPC   D2A35716  37.670  29.909   8.250
 5969POPC   C3A35717  37.674  29.945   7.950
 5969POPC   C4A35718  37.713  29.875   7.650
 5969POPC   C1B35719  37.597  29.682   8.550
 5969POPC   C2B35720  37.610  29.680   8.250
 5969POPC   C3B35721  37.640  29.683   7.950
 5969POPC   C4B35722  37.629  29.652   7.650
 5970POPC   NC335723  23.704   8.948   9.450
 5970POPC   PO435724  23.682   8.938   9.150
 5970POPC   GL135725  23.761   8.938   8.850
 5970POPC   GL235726  23.632   8.988   8.850
 5970POPC   C1A35727  23.746   9.004   8.550
 5970POPC   D2A35728  23.688   8.960   8.250
 5970POPC   C3A35729  23.725   8.979   7.950
 5970POPC   C4A35730  23.710   8.935   7.650
 5970POPC   C1B35731  23.462   8.959   8.550
 5970POPC   C2B35732  23.479   8.960   8.250
 5970POPC   C3B35733  23.469   8.951   7.950
 5970POPC   C4B35734  23.483   8.963   7.650
 5971POPC   NC335735  14.355  39.988   9.450
 5971POPC   PO435736  14.435  39.980   9.150
 5971POPC   GL135737  14.386  39.988   8.850
 5971POPC   GL235738  14.283  39.934   8.850
 5971POPC   C1A35739  14.363  39.973   8.550
 5971POPC   D2A35740  14.409  40.042   8.250
 5971POPC   C3A35741  14.391  40.004   7.950
 5971POPC   C4A35742  14.373  39.976   7.650
 5971POPC   C1B35743  14.235  39.865   8.550
 5971POPC   C2B35744  14.249  39.868   8.250
 5971POPC   C3B35745  14.229  39.871   7.950
 5971POPC   C4B35746  14.215  39.851   7.650
 5972POPC   NC335747  10.475  38.465   9.450
 5972POPC   PO435748  10.526  38.448   9.150
 5972POPC   GL135749  10.479  38.458   8.850
 5972POPC   GL235750  10.378  38.454   8.850
 5972POPC   C1A35751  10.555  38.418   8.550
 5972POPC   D2A35752  10.521  38.463   8.250
 5972POPC   C3A35753  10.485  38.463   7.950
 5972POPC   C4A35754  10.532  38.463   7.650
 5972POPC   C1B35755  10.274  38.433   8.550
 5972POPC   C2B35756  10.293  38.465   8.250
 5972POPC   C3B35757  10.292  38.401   7.950
 5972POPC   C4B35758  10.272  38.430   7.650
 5973POPC   NC335759  15.985  39.991   9.450
 5973POPC   PO435760  15.940  40.049   9.150
 5973POPC   GL135761  15.950  39.963   8.850
 5973POPC   GL235762  15.952  40.156   8.850
 5973POPC   C1A35763  15.960  40.024   8.550
 5973POPC   D2A35764  16.004  40.044   8.250
 5973POPC   C3A35765  15.979  40.022   7.950
 5973POPC   C4A35766  15.984  39.971   7.650
 5973POPC   C1B35767  15.950  40.250   8.550
 5973POPC   C2B35768  15.982  40.246   8.250
 5973POPC   C3B35769  15.957  40.229   7.950
 5973POPC   C4B35770  15.977  40.211   7.650
 5974POPC   NC335771  31.491   9.722   9.450
 5974POPC   PO435772  31.516   9.796   9.150
 5974POPC   GL135773  31.464   9.748   8.850
 5974POPC   GL235774  31.327   9.639   8.850
 5974POPC   C1A35775  31.438   9.747   8.550
 5974POPC   D2A35776  31.513   9.766   8.250
 5974POPC   C3A35777  31.455   9.711   7.950
 5974POPC   C4A35778  31.481   9.699   7.650
 5974POPC   C1B35779  31.228   9.631   8.550
 5974POPC   C2B35780  31.238   9.603   8.250
 5974POPC   C3B35781  31.256   9.639   7.950
 5974POPC   C4B35782  31.208   9.626   7.650
 5975POPC   NC335783  16.762   0.473   9.450
 5975POPC   PO435784  16.730   0.421   9.150
 5975POPC   GL135785  16.737   0.484   8.850
 5975POPC   GL235786  16.651   0.328   8.850
 5975POPC   C1A35787  16.741   0.415   8.550
 5975POPC   D2A35788  16.689   0.475   8.250
 5975POPC   C3A35789  16.752   0.457   7.950
 5975POPC   C4A35790  16.732   0.454   7.650
 5975POPC   C1B35791  16.555   0.228   8.550
 5975POPC   C2B35792  16.525   0.300   8.250
 5975POPC   C3B35793  16.538   0.271   7.950
 5975POPC   C4B35794  16.577   0.242   7.650
 5976POPC   NC335795  15.164  34.555   9.450
 5976POPC   PO435796  15.220  34.590   9.150
 5976POPC   GL135797  15.192  34.532   8.850
 5976POPC   GL235798  15.134  34.745   8.850
 5976POPC   C1A35799  15.170  34.608   8.550
 5976POPC   D2A35800  15.130  34.573   8.250
 5976POPC   C3A35801  15.199  34.600   7.950
 5976POPC   C4A35802  15.131  34.554   7.650
 5976POPC   C1B35803  15.130  34.808   8.550
 5976POPC   C2B35804  15.184  34.830   8.250
 5976POPC   C3B35805  15.134  34.793   7.950
 5976POPC   C4B35806  15.158  34.831   7.650
 5977POPC   NC335807  36.938  16.750   9.450
 5977POPC   PO435808  36.873  16.763   9.150
 5977POPC   GL135809  36.880  16.748   8.850
 5977POPC   GL235810  36.793  16.718   8.850
 5977POPC   C1A35811  36.938  16.707   8.550
 5977POPC   D2A35812  36.857  16.726   8.250
 5977POPC   C3A35813  36.908  16.724   7.950
 5977POPC   C4A35814  36.900  16.700   7.650
 5977POPC   C1B35815  36.680  16.627   8.550
 5977POPC   C2B35816  36.698  16.666   8.250
 5977POPC   C3B35817  36.627  16.697   7.950
 5977POPC   C4B35818  36.672  16.676   7.650
 5978POPC   NC335819  26.788  17.474   9.450
 5978POPC   PO435820  26.849  17.470   9.150
 5978POPC   GL135821  26.779  17.468   8.850
 5978POPC   GL235822  26.755  17.571   8.850
 5978POPC   C1A35823  26.806  17.546   8.550
 5978POPC   D2A35824  26.789  17.511   8.250
 5978POPC   C3A35825  26.774  17.502   7.950
 5978POPC   C4A35826  26.818  17.529   7.650
 5978POPC   C1B35827  26.715  17.714   8.550
 5978POPC   C2B35828  26.655  17.699   8.250
 5978POPC   C3B35829  26.644  17.675   7.950
 5978POPC   C4B35830  26.701  17.678   7.650
 5979POPC   NC335831  42.319  40.805   9.450
 5979POPC   PO435832  42.348  40.798   9.150
 5979POPC   GL135833  42.315  40.772   8.850
 5979POPC   GL235834  42.230  40.667   8.850
 5979POPC   C1A35835  42.328  40.808   8.550
 5979POPC   D2A35836  42.382  40.798   8.250
 5979POPC   C3A35837  42.383  40.754   7.950
 5979POPC   C4A35838  42.358  40.831   7.650
 5979POPC   C1B35839  42.192  40.599   8.550
 5979POPC   C2B35840  42.183  40.593   8.250
 5979POPC   C3B35841  42.196  40.628   7.950
 5979POPC   C4B35842  42.213  40.624   7.650
 5980POPC   NC335843  18.249  37.714   9.450
 5980POPC   PO435844  18.331  37.720   9.150
 5980POPC   GL135845  18.308  37.639   8.850
 5980POPC   GL235846  18.190  37.770   8.850
 5980POPC   C1A35847  18.316  37.721   8.550
 5980POPC   D2A35848  18.274  37.638   8.250
 5980POPC   C3A35849  18.265  37.640   7.950
 5980POPC   C4A35850  18.246  37.678   7.650
 5980POPC   C1B35851  18.193  37.916   8.550
 5980POPC   C2B35852  18.175  37.879   8.250
 5980POPC   C3B35853  18.138  37.894   7.950
 5980POPC   C4B35854  18.140  37.853   7.650
 5981POPC   NC335855  36.133  15.178   9.450
 5981POPC   PO435856  36.177  15.180   9.150
 5981POPC   GL135857  36.103  15.184   8.850
 5981POPC   GL235858  36.238  15.169   8.850
 5981POPC   C1A35859  36.138  15.156   8.550
 5981POPC   D2A35860  36.173  15.154   8.250
 5981POPC   C3A35861  36.174  15.148   7.950
 5981POPC   C4A35862  36.155  15.162   7.650
 5981POPC   C1B35863  36.391  15.265   8.550
 5981POPC   C2B35864  36.361  15.276   8.250
 5981POPC   C3B35865  36.385  15.219   7.950
 5981POPC   C4B35866  36.322  15.230   7.650
 5982POPC   NC335867   1.196  33.014   9.450
 5982POPC   PO435868   1.191  33.033   9.150
 5982POPC   GL135869   1.182  33.024   8.850
 5982POPC   GL235870   1.248  32.956   8.850
 5982POPC   C1A35871   1.185  33.072   8.550
 5982POPC   D2A35872   1.177  33.072   8.250
 5982POPC   C3A35873   1.173  33.058   7.950
 5982POPC   C4A35874   1.262  32.986   7.650
 5982POPC   C1B35875   1.355  32.801   8.550
 5982POPC   C2B35876   1.349  32.812   8.250
 5982POPC   C3B35877   1.322  32.807   7.950
 5982POPC   C4B35878   1.332  32.808   7.650
 5983POPC   NC335879  19.040  24.507   9.450
 5983POPC   PO435880  19.063  24.528   9.150
 5983POPC   GL135881  19.085  24.458   8.850
 5983POPC   GL235882  19.008  24.355   8.850
 5983POPC   C1A35883  19.035  24.510   8.550
 5983POPC   D2A35884  19.037  24.532   8.250
 5983POPC   C3A35885  19.108  24.479   7.950
 5983POPC   C4A35886  19.010  24.489   7.650
 5983POPC   C1B35887  18.926  24.233   8.550
 5983POPC   C2B35888  18.956  24.258   8.250
 5983POPC   C3B35889  18.940  24.245   7.950
 5983POPC   C4B35890  18.960  24.281   7.650
 5984POPC   NC335891  31.507  11.338   9.450
 5984POPC   PO435892  31.509  11.269   9.150
 5984POPC   GL135893  31.513  11.267   8.850
 5984POPC   GL235894  31.579  11.178   8.850
 5984POPC   C1A35895  31.424  11.282   8.550
 5984POPC   D2A35896  31.455  11.317   8.250
 5984POPC   C3A35897  31.518  11.349   7.950
 5984POPC   C4A35898  31.502  11.333   7.650
 5984POPC   C1B35899  31.681  11.179   8.550
 5984POPC   C2B35900  31.652  11.101   8.250
 5984POPC   C3B35901  31.651  11.099   7.950
 5984POPC   C4B35902  31.710  11.157   7.650
 5985POPC   NC335903  37.669  26.799   9.450
 5985POPC   PO435904  37.650  26.768   9.150
 5985POPC   GL135905  37.657  26.821   8.850
 5985POPC   GL235906  37.556  26.702   8.850
 5985POPC   C1A35907  37.707  26.866   8.550
 5985POPC   D2A35908  37.676  26.816   8.250
 5985POPC   C3A35909  37.706  26.801   7.950
 5985POPC   C4A35910  37.673  26.856   7.650
 5985POPC   C1B35911  37.509  26.577   8.550
 5985POPC   C2B35912  37.499  26.648   8.250
 5985POPC   C3B35913  37.544  26.616   7.950
 5985POPC   C4B35914  37.540  26.636   7.650
 5986POPC   NC335915  21.340  12.088   9.450
 5986POPC   PO435916  21.352  12.065   9.150
 5986POPC   GL135917  21.360  12.033   8.850
 5986POPC   GL235918  21.494  12.230   8.850
 5986POPC   C1A35919  21.411  12.077   8.550
 5986POPC   D2A35920  21.337  12.032   8.250
 5986POPC   C3A35921  21.373  12.074   7.950
 5986POPC   C4A35922  21.396  12.110   7.650
 5986POPC   C1B35923  21.515  12.273   8.550
 5986POPC   C2B35924  21.505  12.337   8.250
 5986POPC   C3B35925  21.499  12.338   7.950
 5986POPC   C4B35926  21.529  12.273   7.650
 5987POPC   NC335927  39.197  26.057   9.450
 5987POPC   PO435928  39.193  26.007   9.150
 5987POPC   GL135929  39.279  26.028   8.850
 5987POPC   GL235930  39.309  25.981   8.850
 5987POPC   C1A35931  39.239  26.082   8.550
 5987POPC   D2A35932  39.257  26.070   8.250
 5987POPC   C3A35933  39.191  26.072   7.950
 5987POPC   C4A35934  39.231  26.016   7.650
 5987POPC   C1B35935  39.407  25.865   8.550
 5987POPC   C2B35936  39.410  25.921   8.250
 5987POPC   C3B35937  39.409  25.856   7.950
 5987POPC   C4B35938  39.406  25.895   7.650
 5988POPC   NC335939  44.685  41.559   9.450
 5988POPC   PO435940  44.692  41.567   9.150
 5988POPC   GL135941  44.708  41.519   8.850
 5988POPC   GL235942  44.643  41.450   8.850
 5988POPC   C1A35943  44.643  41.600   8.550
 5988POPC   D2A35944  44.621  41.586   8.250
 5988POPC   C3A35945  44.625  41.595   7.950
 5988POPC   C4A35946  44.665  41.553   7.650
 5988POPC   C1B35947  44.664  41.287   8.550
 5988POPC   C2B35948  44.651  41.278   8.250
 5988POPC   C3B35949  44.617  41.270   7.950
 5988POPC   C4B35950  44.676  41.296   7.650
 5989POPC   NC335951  25.219  12.889   9.450
 5989POPC   PO435952  25.259  12.829   9.150
 5989POPC   GL135953  25.289  12.804   8.850
 5989POPC   GL235954  25.344  12.820   8.850
 5989POPC   C1A35955  25.230  12.882   8.550
 5989POPC   D2A35956  25.298  12.824   8.250
 5989POPC   C3A35957  25.232  12.892   7.950
 5989POPC   C4A35958  25.315  12.869   7.650
 5989POPC   C1B35959  25.447  12.745   8.550
 5989POPC   C2B35960  25.521  12.800   8.250
 5989POPC   C3B35961  25.532  12.772   7.950
 5989POPC   C4B35962  25.524  12.785   7.650
 5990POPC   NC335963   0.444   6.672   9.450
 5990POPC   PO435964   0.443   6.653   9.150
 5990POPC   GL135965   0.431   6.666   8.850
 5990POPC   GL235966   0.368   6.774   8.850
 5990POPC   C1A35967   0.480   6.610   8.550
 5990POPC   D2A35968   0.475   6.691   8.250
 5990POPC   C3A35969   0.392   6.685   7.950
 5990POPC   C4A35970   0.477   6.654   7.650
 5990POPC   C1B35971   0.280   6.857   8.550
 5990POPC   C2B35972   0.310   6.826   8.250
 5990POPC   C3B35973   0.302   6.829   7.950
 5990POPC   C4B35974   0.296   6.861   7.650
 5991POPC   NC335975  22.141   7.409   9.450
 5991POPC   PO435976  22.193   7.387   9.150
 5991POPC   GL135977  22.162   7.372   8.850
 5991POPC   GL235978  22.073   7.526   8.850
 5991POPC   C1A35979  22.140   7.388   8.550
 5991POPC   D2A35980  22.166   7.408   8.250
 5991POPC   C3A35981  22.168   7.388   7.950
 5991POPC   C4A35982  22.147   7.427   7.650
 5991POPC   C1B35983  21.971   7.643   8.550
 5991POPC   C2B35984  22.061   7.637   8.250
 5991POPC   C3B35985  21.979   7.577   7.950
 5991POPC   C4B35986  21.973   7.659   7.650
 5992POPC   NC335987   0.391  43.064   9.450
 5992POPC   PO435988   0.473  43.132   9.150
 5992POPC   GL135989   0.432  43.122   8.850
 5992POPC   GL235990   0.307  43.095   8.850
 5992POPC   C1A35991   0.438  43.155   8.550
 5992POPC   D2A35992   0.397  43.143   8.250
 5992POPC   C3A35993   0.480  43.148   7.950
 5992POPC   C4A35994   0.401  43.107   7.650
 5992POPC   C1B35995   0.226  43.021   8.550
 5992POPC   C2B35996   0.166  43.081   8.250
 5992POPC   C3B35997   0.148  43.067   7.950
 5992POPC   C4B35998   0.181  43.102   7.650
 5993POPC   NC335999  26.063  37.665   9.450
 5993POPC   PO436000  26.076  37.649   9.150
 5993POPC   GL136001  26.043  37.695   8.850
 5993POPC   GL236002  26.044  37.755   8.850
 5993POPC   C1A36003  26.017  37.703   8.550
 5993POPC   D2A36004  26.008  37.690   8.250
 5993POPC   C3A36005  26.049  37.699   7.950
 5993POPC   C4A36006  26.060  37.673   7.650
 5993POPC   C1B36007  26.081  37.882   8.550
 5993POPC   C2B36008  26.153  37.950   8.250
 5993POPC   C3B36009  26.063  37.964   7.950
 5993POPC   C4B36010  26.093  37.956   7.650
 5994POPC   NC336011  29.107  37.711   9.450
 5994POPC   PO436012  29.188  37.671   9.150
 5994POPC   GL136013  29.177  37.635   8.850
 5994POPC   GL236014  29.087  37.799   8.850
 5994POPC   C1A36015  29.111  37.672   8.550
 5994POPC   D2A36016  29.121  37.675   8.250
 5994POPC   C3A36017  29.169  37.717   7.950
 5994POPC   C4A36018  29.187  37.682   7.650
 5994POPC   C1B36019  29.137  37.967   8.550
 5994POPC   C2B36020  29.049  37.885   8.250
 5994POPC   C3B36021  29.089  37.925   7.950
 5994POPC   C4B36022  29.068  37.913   7.650
 5995POPC   NC336023  33.050  11.327   9.450
 5995POPC   PO436024  33.039  11.332   9.150
 5995POPC   GL136025  32.982  11.268   8.850
 5995POPC   GL236026  32.892  11.288   8.850
 5995POPC   C1A36027  33.044  11.339   8.550
 5995POPC   D2A36028  32.982  11.254   8.250
 5995POPC   C3A36029  33.036  11.306   7.950
 5995POPC   C4A36030  33.001  11.252   7.650
 5995POPC   C1B36031  32.757  11.253   8.550
 5995POPC   C2B36032  32.753  11.223   8.250
 5995POPC   C3B36033  32.742  11.177   7.950
 5995POPC   C4B36034  32.783  11.219   7.650
 5996POPC   NC336035  23.755  28.382   9.450
 5996POPC   PO436036  23.664  28.367   9.150
 5996POPC   GL136037  23.728  28.361   8.850
 5996POPC   GL236038  23.603  28.284   8.850
 5996POPC   C1A36039  23.678  28.332   8.550
 5996POPC   D2A36040  23.761  28.339   8.250
 5996POPC   C3A36041  23.684  28.401   7.950
 5996POPC   C4A36042  23.673  28.365   7.650
 5996POPC   C1B36043  23.571  28.196   8.550
 5996POPC   C2B36044  23.510  28.181   8.250
 5996POPC   C3B36045  23.570  28.171   7.950
 5996POPC   C4B36046  23.592  28.205   7.650
 5997POPC   NC336047  10.497  13.659   9.450
 5997POPC   PO436048  10.516  13.656   9.150
 5997POPC   GL136049  10.520  13.662   8.850
 5997POPC   GL236050  10.436  13.690   8.850
 5997POPC   C1A36051  10.568  13.610   8.550
 5997POPC   D2A36052  10.489  13.607   8.250
 5997POPC   C3A36053  10.510  13.600   7.950
 5997POPC   C4A36054  10.497  13.616   7.650
 5997POPC   C1B36055  10.441  13.885   8.550
 5997POPC   C2B36056  10.354  13.877   8.250
 5997POPC   C3B36057  10.409  13.809   7.950
 5997POPC   C4B36058  10.415  13.814   7.650
 5998POPC   NC336059  42.340   0.467   9.450
 5998POPC   PO436060  42.369   0.409   9.150
 5998POPC   GL136061  42.336   0.432   8.850
 5998POPC   GL236062  42.437   0.511   8.850
 5998POPC   C1A36063  42.317   0.434   8.550
 5998POPC   D2A36064  42.348   0.439   8.250
 5998POPC   C3A36065  42.299   0.404   7.950
 5998POPC   C4A36066  42.292   0.471   7.650
 5998POPC   C1B36067  42.482   0.671   8.550
 5998POPC   C2B36068  42.518   0.647   8.250
 5998POPC   C3B36069  42.465   0.607   7.950
 5998POPC   C4B36070  42.496   0.618   7.650
 5999POPC   NC336071  19.874   8.932   9.450
 5999POPC   PO436072  19.797   9.005   9.150
 5999POPC   GL136073  19.814   8.924   8.850
 5999POPC   GL236074  19.805   8.881   8.850
 5999POPC   C1A36075  19.853   9.017   8.550
 5999POPC   D2A36076  19.824   8.971   8.250
 5999POPC   C3A36077  19.796   8.990   7.950
 5999POPC   C4A36078  19.811   9.001   7.650
 5999POPC   C1B36079  19.871   8.775   8.550
 5999POPC   C2B36080  19.888   8.723   8.250
 5999POPC   C3B36081  19.874   8.714   7.950
 5999POPC   C4B36082  19.919   8.721   7.650
 6000POPC   NC336083   4.305  33.011   9.450
 6000POPC   PO436084   4.304  32.993   9.150
 6000POPC   GL136085   4.300  33.013   8.850
 6000POPC   GL236086   4.281  33.093   8.850
 6000POPC   C1A36087   4.281  33.000   8.550
 6000POPC   D2A36088   4.308  33.010   8.250
 6000POPC   C3A36089   4.343  33.054   7.950
 6000POPC   C4A36090   4.318  32.999   7.650
 6000POPC   C1B36091   4.171  33.286   8.550
 6000POPC   C2B36092   4.200  33.260   8.250
 6000POPC   C3B36093   4.167  33.295   7.950
 6000POPC   C4B36094   4.180  33.215   7.650
 6001POPC   NC336095  16.705  24.453   9.450
 6001POPC   PO436096  16.744  24.456   9.150
 6001POPC   GL136097  16.759  24.516   8.850
 6001POPC   GL236098  16.787  24.404   8.850
 6001POPC   C1A36099  16.757  24.487   8.550
 6001POPC   D2A36100  16.739  24.476   8.250
 6001POPC   C3A36101  16.780  24.446   7.950
 6001POPC   C4A36102  16.704  24.482   7.650
 6001POPC   C1B36103  16.936  24.314   8.550
 6001POPC   C2B36104  16.912  24.314   8.250
 6001POPC   C3B36105  16.944  24.343   7.950
 6001POPC   C4B36106  16.857  24.276   7.650
 6002POPC   NC336107  40.037  19.052   9.450
 6002POPC   PO436108  40.042  19.046   9.150
 6002POPC   GL136109  40.016  19.080   8.850
 6002POPC   GL236110  40.171  19.026   8.850
 6002POPC   C1A36111  40.003  19.026   8.550
 6002POPC   D2A36112  39.999  19.040   8.250
 6002POPC   C3A36113  40.056  19.080   7.950
 6002POPC   C4A36114  40.020  19.090   7.650
 6002POPC   C1B36115  40.269  19.073   8.550
 6002POPC   C2B36116  40.211  19.092   8.250
 6002POPC   C3B36117  40.249  19.016   7.950
 6002POPC   C4B36118  40.307  19.060   7.650
 6003POPC   NC336119  17.487  37.637   9.450
 6003POPC   PO436120  17.505  37.718   9.150
 6003POPC   GL136121  17.490  37.724   8.850
 6003POPC   GL236122  17.513  37.847   8.850
 6003POPC   C1A36123  17.500  37.687   8.550
 6003POPC   D2A36124  17.510  37.638   8.250
 6003POPC   C3A36125  17.515  37.687   7.950
 6003POPC   C4A36126  17.486  37.632   7.650
 6003POPC   C1B36127  17.555  37.952   8.550
 6003POPC   C2B36128  17.565  37.897   8.250
 6003POPC   C3B36129  17.534  37.971   7.950
 6003POPC   C4B36130  17.495  37.947   7.650
 6004POPC   NC336131   9.712  37.685   9.450
 6004POPC   PO436132   9.751  37.641   9.150
 6004POPC   GL136133   9.730  37.687   8.850
 6004POPC   GL236134   9.610  37.673   8.850
 6004POPC   C1A36135   9.790  37.706   8.550
 6004POPC   D2A36136   9.707  37.656   8.250
 6004POPC   C3A36137   9.744  37.697   7.950
 6004POPC   C4A36138   9.771  37.657   7.650
 6004POPC   C1B36139   9.521  37.696   8.550
 6004POPC   C2B36140   9.489  37.720   8.250
 6004POPC   C3B36141   9.522  37.748   7.950
 6004POPC   C4B36142   9.524  37.708   7.650
 6005POPC   NC336143  36.895  33.013   9.450
 6005POPC   PO436144  36.883  32.982   9.150
 6005POPC   GL136145  36.948  33.073   8.850
 6005POPC   GL236146  36.806  33.111   8.850
 6005POPC   C1A36147  36.910  32.995   8.550
 6005POPC   D2A36148  36.903  33.068   8.250
 6005POPC   C3A36149  36.900  33.014   7.950
 6005POPC   C4A36150  36.933  33.004   7.650
 6005POPC   C1B36151  36.713  33.178   8.550
 6005POPC   C2B36152  36.743  33.185   8.250
 6005POPC   C3B36153  36.717  33.218   7.950
 6005POPC   C4B36154  36.765  33.232   7.650
 6006POPC   NC336155  22.947  25.249   9.450
 6006POPC   PO436156  22.909  25.237   9.150
 6006POPC   GL136157  22.941  25.303   8.850
 6006POPC   GL236158  22.921  25.393   8.850
 6006POPC   C1A36159  22.915  25.255   8.550
 6006POPC   D2A36160  22.902  25.216   8.250
 6006POPC   C3A36161  22.899  25.249   7.950
 6006POPC   C4A36162  22.929  25.295   7.650
 6006POPC   C1B36163  23.010  25.534   8.550
 6006POPC   C2B36164  23.030  25.493   8.250
 6006POPC   C3B36165  23.035  25.461   7.950
 6006POPC   C4B36166  22.979  25.515   7.650
 6007POPC   NC336167  39.957  12.082   9.450
 6007POPC   PO436168  40.043  12.126   9.150
 6007POPC   GL136169  39.962  12.076   8.850
 6007POPC   GL236170  40.110  12.106   8.850
 6007POPC   C1A36171  40.054  12.081   8.550
 6007POPC   D2A36172  39.997  12.074   8.250
 6007POPC   C3A36173  40.025  12.108   7.950
 6007POPC   C4A36174  39.986  12.075   7.650
 6007POPC   C1B36175  40.186  12.167   8.550
 6007POPC   C2B36176  40.227  12.191   8.250
 6007POPC   C3B36177  40.208  12.192   7.950
 6007POPC   C4B36178  40.225  12.221   7.650
 6008POPC   NC336179  42.379  14.398   9.450
 6008POPC   PO436180  42.297  14.424   9.150
 6008POPC   GL136181  42.315  14.376   8.850
 6008POPC   GL236182  42.331  14.325   8.850
 6008POPC   C1A36183  42.308  14.386   8.550
 6008POPC   D2A36184  42.363  14.428   8.250
 6008POPC   C3A36185  42.331  14.440   7.950
 6008POPC   C4A36186  42.331  14.355   7.650
 6008POPC   C1B36187  42.349  14.149   8.550
 6008POPC   C2B36188  42.273  14.150   8.250
 6008POPC   C3B36189  42.260  14.201   7.950
 6008POPC   C4B36190  42.265  14.161   7.650
 6009POPC   NC336191  25.270  21.435   9.450
 6009POPC   PO436192  25.283  21.407   9.150
 6009POPC   GL136193  25.228  21.374   8.850
 6009POPC   GL236194  25.126  21.492   8.850
 6009POPC   C1A36195  25.257  21.354   8.550
 6009POPC   D2A36196  25.283  21.425   8.250
 6009POPC   C3A36197  25.243  21.398   7.950
 6009POPC   C4A36198  25.237  21.358   7.650
 6009POPC   C1B36199  25.056  21.553   8.550
 6009POPC   C2B36200  25.088  21.525   8.250
 6009POPC   C3B36201  25.028  21.567   7.950
 6009POPC   C4B36202  25.111  21.568   7.650
 6010POPC   NC336203  18.252  40.746   9.450
 6010POPC   PO436204  18.243  40.769   9.150
 6010POPC   GL136205  18.279  40.800   8.850
 6010POPC   GL236206  18.362  40.650   8.850
 6010POPC   C1A36207  18.256  40.831   8.550
 6010POPC   D2A36208  18.292  40.819   8.250
 6010POPC   C3A36209  18.261  40.784   7.950
 6010POPC   C4A36210  18.249  40.818   7.650
 6010POPC   C1B36211  18.438  40.605   8.550
 6010POPC   C2B36212  18.494  40.648   8.250
 6010POPC   C3B36213  18.424  40.575   7.950
 6010POPC   C4B36214  18.461  40.572   7.650
 6011POPC   NC336215  41.528  40.805   9.450
 6011POPC   PO436216  41.569  40.801   9.150
 6011POPC   GL136217  41.539  40.795   8.850
 6011POPC   GL236218  41.660  40.776   8.850
 6011POPC   C1A36219  41.550  40.750   8.550
 6011POPC   D2A36220  41.607  40.734   8.250
 6011POPC   C3A36221  41.511  40.778   7.950
 6011POPC   C4A36222  41.517  40.777   7.650
 6011POPC   C1B36223  41.801  40.868   8.550
 6011POPC   C2B36224  41.817  40.840   8.250
 6011POPC   C3B36225  41.820  40.878   7.950
 6011POPC   C4B36226  41.755  40.854   7.650
 6012POPC   NC336227  15.179  20.592   9.450
 6012POPC   PO436228  15.189  20.569   9.150
 6012POPC   GL136229  15.179  20.581   8.850
 6012POPC   GL236230  15.144  20.472   8.850
 6012POPC   C1A36231  15.200  20.594   8.550
 6012POPC   D2A36232  15.160  20.640   8.250
 6012POPC   C3A36233  15.224  20.565   7.950
 6012POPC   C4A36234  15.186  20.647   7.650
 6012POPC   C1B36235  15.156  20.348   8.550
 6012POPC   C2B36236  15.102  20.381   8.250
 6012POPC   C3B36237  15.089  20.348   7.950
 6012POPC   C4B36238  15.157  20.335   7.650
 6013POPC   NC336239  31.483  24.476   9.450
 6013POPC   PO436240  31.495  24.441   9.150
 6013POPC   GL136241  31.504  24.456   8.850
 6013POPC   GL236242  31.389  24.478   8.850
 6013POPC   C1A36243  31.450  24.468   8.550
 6013POPC   D2A36244  31.447  24.503   8.250
 6013POPC   C3A36245  31.477  24.483   7.950
 6013POPC   C4A36246  31.445  24.522   7.650
 6013POPC   C1B36247  31.240  24.375   8.550
 6013POPC   C2B36248  31.214  24.350   8.250
 6013POPC   C3B36249  31.291  24.340   7.950
 6013POPC   C4B36250  31.289  24.319   7.650
 6014POPC   NC336251   9.003  26.801   9.450
 6014POPC   PO436252   9.022  26.852   9.150
 6014POPC   GL136253   8.946  26.816   8.850
 6014POPC   GL236254   9.019  26.949   8.850
 6014POPC   C1A36255   8.996  26.816   8.550
 6014POPC   D2A36256   8.933  26.862   8.250
 6014POPC   C3A36257   8.954  26.856   7.950
 6014POPC   C4A36258   9.011  26.784   7.650
 6014POPC   C1B36259   9.011  27.020   8.550
 6014POPC   C2B36260   9.068  27.041   8.250
 6014POPC   C3B36261   9.086  27.082   7.950
 6014POPC   C4B36262   9.022  27.058   7.650
 6015POPC   NC336263   2.035  24.514   9.450
 6015POPC   PO436264   1.960  24.506   9.150
 6015POPC   GL136265   2.016  24.508   8.850
 6015POPC   GL236266   1.893  24.435   8.850
 6015POPC   C1A36267   2.014  24.515   8.550
 6015POPC   D2A36268   2.022  24.467   8.250
 6015POPC   C3A36269   2.002  24.489   7.950
 6015POPC   C4A36270   1.959  24.491   7.650
 6015POPC   C1B36271   1.737  24.372   8.550
 6015POPC   C2B36272   1.741  24.440   8.250
 6015POPC   C3B36273   1.773  24.393   7.950
 6015POPC   C4B36274   1.781  24.428   7.650
 6016POPC   NC336275   2.747   5.835   9.450
 6016POPC   PO436276   2.815   5.841   9.150
 6016POPC   GL136277   2.756   5.888   8.850
 6016POPC   GL236278   2.795   6.009   8.850
 6016POPC   C1A36279   2.780   5.893   8.550
 6016POPC   D2A36280   2.753   5.862   8.250
 6016POPC   C3A36281   2.722   5.877   7.950
 6016POPC   C4A36282   2.723   5.913   7.650
 6016POPC   C1B36283   2.730   6.151   8.550
 6016POPC   C2B36284   2.762   6.114   8.250
 6016POPC   C3B36285   2.779   6.131   7.950
 6016POPC   C4B36286   2.736   6.129   7.650
 6017POPC   NC336287  43.100  23.739   9.450
 6017POPC   PO436288  43.113  23.676   9.150
 6017POPC   GL136289  43.150  23.752   8.850
 6017POPC   GL236290  43.244  23.664   8.850
 6017POPC   C1A36291  43.149  23.704   8.550
 6017POPC   D2A36292  43.084  23.707   8.250
 6017POPC   C3A36293  43.134  23.744   7.950
 6017POPC   C4A36294  43.083  23.753   7.650
 6017POPC   C1B36295  43.310  23.523   8.550
 6017POPC   C2B36296  43.292  23.527   8.250
 6017POPC   C3B36297  43.265  23.541   7.950
 6017POPC   C4B36298  43.305  23.513   7.650
 6018POPC   NC336299  32.241  37.656   9.450
 6018POPC   PO436300  32.295  37.712   9.150
 6018POPC   GL136301  32.290  37.639   8.850
 6018POPC   GL236302  32.222  37.749   8.850
 6018POPC   C1A36303  32.213  37.676   8.550
 6018POPC   D2A36304  32.290  37.666   8.250
 6018POPC   C3A36305  32.226  37.689   7.950
 6018POPC   C4A36306  32.217  37.676   7.650
 6018POPC   C1B36307  32.205  37.964   8.550
 6018POPC   C2B36308  32.192  37.953   8.250
 6018POPC   C3B36309  32.135  37.895   7.950
 6018POPC   C4B36310  32.168  37.941   7.650
 6019POPC   NC336311   8.155  13.602   9.450
 6019POPC   PO436312   8.167  13.622   9.150
 6019POPC   GL136313   8.235  13.629   8.850
 6019POPC   GL236314   8.116  13.596   8.850
 6019POPC   C1A36315   8.209  13.633   8.550
 6019POPC   D2A36316   8.220  13.642   8.250
 6019POPC   C3A36317   8.239  13.629   7.950
 6019POPC   C4A36318   8.213  13.623   7.650
 6019POPC   C1B36319   7.911  13.642   8.550
 6019POPC   C2B36320   7.940  13.641   8.250
 6019POPC   C3B36321   7.991  13.680   7.950
 6019POPC   C4B36322   7.921  13.672   7.650
 6020POPC   NC336323   6.648  32.276   9.450
 6020POPC   PO436324   6.636  32.298   9.150
 6020POPC   GL136325   6.688  32.248   8.850
 6020POPC   GL236326   6.602  32.123   8.850
 6020POPC   C1A36327   6.623  32.213   8.550
 6020POPC   D2A36328   6.647  32.231   8.250
 6020POPC   C3A36329   6.668  32.256   7.950
 6020POPC   C4A36330   6.619  32.202   7.650
 6020POPC   C1B36331   6.571  32.048   8.550
 6020POPC   C2B36332   6.543  31.997   8.250
 6020POPC   C3B36333   6.611  32.038   7.950
 6020POPC   C4B36334   6.624  31.987   7.650
 6021POPC   NC336335   9.700  27.546   9.450
 6021POPC   PO436336   9.766  27.631   9.150
 6021POPC   GL136337   9.774  27.634   8.850
 6021POPC   GL236338   9.674  27.717   8.850
 6021POPC   C1A36339   9.711  27.569   8.550
 6021POPC   D2A36340   9.728  27.593   8.250
 6021POPC   C3A36341   9.795  27.548   7.950
 6021POPC   C4A36342   9.734  27.637   7.650
 6021POPC   C1B36343   9.627  27.798   8.550
 6021POPC   C2B36344   9.685  27.846   8.250
 6021POPC   C3B36345   9.643  27.847   7.950
 6021POPC   C4B36346   9.640  27.871   7.650
 6022POPC   NC336347  36.941  26.079   9.450
 6022POPC   PO436348  36.899  26.010   9.150
 6022POPC   GL136349  36.894  26.002   8.850
 6022POPC   GL236350  36.998  26.156   8.850
 6022POPC   C1A36351  36.907  25.992   8.550
 6022POPC   D2A36352  36.855  26.052   8.250
 6022POPC   C3A36353  36.881  26.085   7.950
 6022POPC   C4A36354  36.902  26.014   7.650
 6022POPC   C1B36355  37.062  26.256   8.550
 6022POPC   C2B36356  37.040  26.266   8.250
 6022POPC   C3B36357  37.063  26.223   7.950
 6022POPC   C4B36358  37.064  26.200   7.650
 6023POPC   NC336359  15.986  14.418   9.450
 6023POPC   PO436360  15.916  14.376   9.150
 6023POPC   GL136361  15.929  14.380   8.850
 6023POPC   GL236362  16.102  14.493   8.850
 6023POPC   C1A36363  15.934  14.445   8.550
 6023POPC   D2A36364  15.984  14.398   8.250
 6023POPC   C3A36365  15.921  14.371   7.950
 6023POPC   C4A36366  15.926  14.354   7.650
 6023POPC   C1B36367  16.152  14.598   8.550
 6023POPC   C2B36368  16.142  14.509   8.250
 6023POPC   C3B36369  16.144  14.606   7.950
 6023POPC   C4B36370  16.116  14.582   7.650
 6024POPC   NC336371  39.258   5.110   9.450
 6024POPC   PO436372  39.227   5.075   9.150
 6024POPC   GL136373  39.190   5.057   8.850
 6024POPC   GL236374  39.339   5.194   8.850
 6024POPC   C1A36375  39.214   5.077   8.550
 6024POPC   D2A36376  39.260   5.062   8.250
 6024POPC   C3A36377  39.200   5.069   7.950
 6024POPC   C4A36378  39.270   5.123   7.650
 6024POPC   C1B36379  39.490   5.268   8.550
 6024POPC   C2B36380  39.473   5.213   8.250
 6024POPC   C3B36381  39.469   5.209   7.950
 6024POPC   C4B36382  39.447   5.242   7.650
 6025POPC   NC336383  13.670   7.400   9.450
 6025POPC   PO436384  13.595   7.379   9.150
 6025POPC   GL136385  13.648   7.460   8.850
 6025POPC   GL236386  13.528   7.379   8.850
 6025POPC   C1A36387  13.623   7.420   8.550
 6025POPC   D2A36388  13.675   7.445   8.250
 6025POPC   C3A36389  13.630   7.444   7.950
 6025POPC   C4A36390  13.582   7.387   7.650
 6025POPC   C1B36391  13.390   7.393   8.550
 6025POPC   C2B36392  13.385   7.421   8.250
 6025POPC   C3B36393  13.349   7.369   7.950
 6025POPC   C4B36394  13.384   7.387   7.650
 6026POPC   NC336395  17.547  12.057   9.450
 6026POPC   PO436396  17.509  12.063   9.150
 6026POPC   GL136397  17.477  12.058   8.850
 6026POPC   GL236398  17.614  12.130   8.850
 6026POPC   C1A36399  17.538  12.095   8.550
 6026POPC   D2A36400  17.538  12.040   8.250
 6026POPC   C3A36401  17.486  12.100   7.950
 6026POPC   C4A36402  17.530  12.116   7.650
 6026POPC   C1B36403  17.765  12.144   8.550
 6026POPC   C2B36404  17.746  12.159   8.250
 6026POPC   C3B36405  17.717  12.126   7.950
 6026POPC   C4B36406  17.801  12.105   7.650
 6027POPC   NC336407  13.629  38.502   9.450
 6027POPC   PO436408  13.633  38.428   9.150
 6027POPC   GL136409  13.601  38.488   8.850
 6027POPC   GL236410  13.522  38.478   8.850
 6027POPC   C1A36411  13.666  38.485   8.550
 6027POPC   D2A36412  13.663  38.495   8.250
 6027POPC   C3A36413  13.675  38.425   7.950
 6027POPC   C4A36414  13.644  38.418   7.650
 6027POPC   C1B36415  13.410  38.458   8.550
 6027POPC   C2B36416  13.354  38.449   8.250
 6027POPC   C3B36417  13.392  38.504   7.950
 6027POPC   C4B36418  13.373  38.515   7.650
 6028POPC   NC336419   0.460  41.545   9.450
 6028POPC   PO436420   0.431  41.582   9.150
 6028POPC   GL136421   0.399  41.514   8.850
 6028POPC   GL236422   0.436  41.725   8.850
 6028POPC   C1A36423   0.441  41.561   8.550
 6028POPC   D2A36424   0.484  41.524   8.250
 6028POPC   C3A36425   0.434  41.572   7.950
 6028POPC   C4A36426   0.416  41.529   7.650
 6028POPC   C1B36427   0.527  41.797   8.550
 6028POPC   C2B36428   0.509  41.757   8.250
 6028POPC   C3B36429   0.470  41.775   7.950
 6028POPC   C4B36430   0.498  41.812   7.650
 6029POPC   NC336431  33.794  15.995   9.450
 6029POPC   PO436432  33.815  15.985   9.150
 6029POPC   GL136433  33.846  15.949   8.850
 6029POPC   GL236434  33.882  16.021   8.850
 6029POPC   C1A36435  33.826  15.989   8.550
 6029POPC   D2A36436  33.781  15.946   8.250
 6029POPC   C3A36437  33.841  16.003   7.950
 6029POPC   C4A36438  33.844  15.978   7.650
 6029POPC   C1B36439  34.013  16.124   8.550
 6029POPC   C2B36440  33.982  16.116   8.250
 6029POPC   C3B36441  34.053  16.063   7.950
 6029POPC   C4B36442  34.055  16.060   7.650
 6030POPC   NC336443  10.547  20.562   9.450
 6030POPC   PO436444  10.557  20.608   9.150
 6030POPC   GL136445  10.502  20.572   8.850
 6030POPC   GL236446  10.442  20.471   8.850
 6030POPC   C1A36447  10.501  20.588   8.550
 6030POPC   D2A36448  10.524  20.616   8.250
 6030POPC   C3A36449  10.539  20.646   7.950
 6030POPC   C4A36450  10.532  20.590   7.650
 6030POPC   C1B36451  10.356  20.385   8.550
 6030POPC   C2B36452  10.375  20.398   8.250
 6030POPC   C3B36453  10.359  20.414   7.950
 6030POPC   C4B36454  10.356  20.426   7.650
 6031POPC   NC336455  22.979  19.096   9.450
 6031POPC   PO436456  22.944  19.098   9.150
 6031POPC   GL136457  22.958  19.025   8.850
 6031POPC   GL236458  22.939  18.982   8.850
 6031POPC   C1A36459  22.968  19.017   8.550
 6031POPC   D2A36460  22.951  19.066   8.250
 6031POPC   C3A36461  22.900  19.068   7.950
 6031POPC   C4A36462  22.933  19.031   7.650
 6031POPC   C1B36463  23.009  18.805   8.550
 6031POPC   C2B36464  22.999  18.865   8.250
 6031POPC   C3B36465  22.992  18.836   7.950
 6031POPC   C4B36466  23.048  18.772   7.650
 6032POPC   NC336467  14.424  17.469   9.450
 6032POPC   PO436468  14.413  17.542   9.150
 6032POPC   GL136469  14.354  17.549   8.850
 6032POPC   GL236470  14.490  17.565   8.850
 6032POPC   C1A36471  14.427  17.476   8.550
 6032POPC   D2A36472  14.355  17.552   8.250
 6032POPC   C3A36473  14.424  17.461   7.950
 6032POPC   C4A36474  14.387  17.523   7.650
 6032POPC   C1B36475  14.561  17.659   8.550
 6032POPC   C2B36476  14.574  17.703   8.250
 6032POPC   C3B36477  14.563  17.730   7.950
 6032POPC   C4B36478  14.582  17.744   7.650
 6033POPC   NC336479   8.976   5.857   9.450
 6033POPC   PO436480   8.975   5.862   9.150
 6033POPC   GL136481   8.977   5.824   8.850
 6033POPC   GL236482   8.830   5.844   8.850
 6033POPC   C1A36483   8.968   5.821   8.550
 6033POPC   D2A36484   9.012   5.914   8.250
 6033POPC   C3A36485   8.972   5.916   7.950
 6033POPC   C4A36486   8.978   5.859   7.650
 6033POPC   C1B36487   8.708   5.834   8.550
 6033POPC   C2B36488   8.760   5.814   8.250
 6033POPC   C3B36489   8.767   5.739   7.950
 6033POPC   C4B36490   8.779   5.753   7.650
 6034POPC   NC336491  26.071  23.720   9.450
 6034POPC   PO436492  26.021  23.718   9.150
 6034POPC   GL136493  26.018  23.694   8.850
 6034POPC   GL236494  26.203  23.687   8.850
 6034POPC   C1A36495  26.077  23.717   8.550
 6034POPC   D2A36496  26.086  23.740   8.250
 6034POPC   C3A36497  26.081  23.677   7.950
 6034POPC   C4A36498  26.024  23.759   7.650
 6034POPC   C1B36499  26.304  23.622   8.550
 6034POPC   C2B36500  26.230  23.615   8.250
 6034POPC   C3B36501  26.280  23.618   7.950
 6034POPC   C4B36502  26.311  23.658   7.650
 6035POPC   NC336503  18.274  19.786   9.450
 6035POPC   PO436504  18.322  19.794   9.150
 6035POPC   GL136505  18.311  19.825   8.850
 6035POPC   GL236506  18.328  19.913   8.850
 6035POPC   C1A36507  18.258  19.828   8.550
 6035POPC   D2A36508  18.301  19.834   8.250
 6035POPC   C3A36509  18.321  19.855   7.950
 6035POPC   C4A36510  18.272  19.796   7.650
 6035POPC   C1B36511  18.279  20.064   8.550
 6035POPC   C2B36512  18.355  20.050   8.250
 6035POPC   C3B36513  18.320  20.036   7.950
 6035POPC   C4B36514  18.332  20.098   7.650
 6036POPC   NC336515   8.933  22.119   9.450
 6036POPC   PO436516   8.965  22.177   9.150
 6036POPC   GL136517   9.000  22.211   8.850
 6036POPC   GL236518   8.890  22.128   8.850
 6036POPC   C1A36519   8.956  22.190   8.550
 6036POPC   D2A36520   8.977  22.177   8.250
 6036POPC   C3A36521   8.971  22.201   7.950
 6036POPC   C4A36522   9.013  22.137   7.650
 6036POPC   C1B36523   8.687  22.105   8.550
 6036POPC   C2B36524   8.732  22.163   8.250
 6036POPC   C3B36525   8.723  22.167   7.950
 6036POPC   C4B36526   8.754  22.127   7.650
 6037POPC   NC336527  39.269  42.299   9.450
 6037POPC   PO436528  39.221  42.344   9.150
 6037POPC   GL136529  39.217  42.343   8.850
 6037POPC   GL236530  39.204  42.471   8.850
 6037POPC   C1A36531  39.217  42.303   8.550
 6037POPC   D2A36532  39.246  42.331   8.250
 6037POPC   C3A36533  39.255  42.380   7.950
 6037POPC   C4A36534  39.212  42.339   7.650
 6037POPC   C1B36535  39.088  42.557   8.550
 6037POPC   C2B36536  39.102  42.590   8.250
 6037POPC   C3B36537  39.082  42.529   7.950
 6037POPC   C4B36538  39.094  42.566   7.650
 6038POPC   NC336539  36.168  40.800   9.450
 6038POPC   PO436540  36.173  40.760   9.150
 6038POPC   GL136541  36.131  40.824   8.850
 6038POPC   GL236542  36.010  40.779   8.850
 6038POPC   C1A36543  36.126  40.816   8.550
 6038POPC   D2A36544  36.136  40.830   8.250
 6038POPC   C3A36545  36.081  40.816   7.950
 6038POPC   C4A36546  36.121  40.792   7.650
 6038POPC   C1B36547  35.908  40.730   8.550
 6038POPC   C2B36548  35.855  40.821   8.250
 6038POPC   C3B36549  35.883  40.732   7.950
 6038POPC   C4B36550  35.879  40.750   7.650
 6039POPC   NC336551  36.082  19.030   9.450
 6039POPC   PO436552  36.133  19.102   9.150
 6039POPC   GL136553  36.170  19.026   8.850
 6039POPC   GL236554  36.224  18.911   8.850
 6039POPC   C1A36555  36.146  19.047   8.550
 6039POPC   D2A36556  36.176  19.060   8.250
 6039POPC   C3A36557  36.168  19.060   7.950
 6039POPC   C4A36558  36.116  19.055   7.650
 6039POPC   C1B36559  36.206  18.873   8.550
 6039POPC   C2B36560  36.252  18.890   8.250
 6039POPC   C3B36561  36.261  18.795   7.950
 6039POPC   C4B36562  36.223  18.806   7.650
 6040POPC   NC336563  40.793   4.340   9.450
 6040POPC   PO436564  40.819   4.360   9.150
 6040POPC   GL136565  40.774   4.320   8.850
 6040POPC   GL236566  40.917   4.399   8.850
 6040POPC   C1A36567  40.811   4.315   8.550
 6040POPC   D2A36568  40.761   4.269   8.250
 6040POPC   C3A36569  40.749   4.344   7.950
 6040POPC   C4A36570  40.786   4.324   7.650
 6040POPC   C1B36571  41.012   4.399   8.550
 6040POPC   C2B36572  40.986   4.385   8.250
 6040POPC   C3B36573  41.047   4.461   7.950
 6040POPC   C4B36574  41.027   4.464   7.650
 6041POPC   NC336575  24.460   6.679   9.450
 6041POPC   PO436576  24.539   6.626   9.150
 6041POPC   GL136577  24.471   6.612   8.850
 6041POPC   GL236578  24.367   6.623   8.850
 6041POPC   C1A36579  24.449   6.616   8.550
 6041POPC   D2A36580  24.464   6.681   8.250
 6041POPC   C3A36581  24.505   6.643   7.950
 6041POPC   C4A36582  24.473   6.637   7.650
 6041POPC   C1B36583  24.225   6.712   8.550
 6041POPC   C2B36584  24.215   6.674   8.250
 6041POPC   C3B36585  24.209   6.676   7.950
 6041POPC   C4B36586  24.269   6.690   7.650
 6042POPC   NC336587  18.235  32.256   9.450
 6042POPC   PO436588  18.263  32.250   9.150
 6042POPC   GL136589  18.308  32.287   8.850
 6042POPC   GL236590  18.199  32.317   8.850
 6042POPC   C1A36591  18.260  32.260   8.550
 6042POPC   D2A36592  18.316  32.249   8.250
 6042POPC   C3A36593  18.261  32.251   7.950
 6042POPC   C4A36594  18.323  32.255   7.650
 6042POPC   C1B36595  18.046  32.442   8.550
 6042POPC   C2B36596  18.051  32.393   8.250
 6042POPC   C3B36597  18.068  32.440   7.950
 6042POPC   C4B36598  18.085  32.421   7.650
 6043POPC   NC336599  28.348   5.085   9.450
 6043POPC   PO436600  28.405   5.113   9.150
 6043POPC   GL136601  28.324   5.137   8.850
 6043POPC   GL236602  28.351   5.226   8.850
 6043POPC   C1A36603  28.417   5.065   8.550
 6043POPC   D2A36604  28.353   5.137   8.250
 6043POPC   C3A36605  28.375   5.123   7.950
 6043POPC   C4A36606  28.374   5.044   7.650
 6043POPC   C1B36607  28.340   5.293   8.550
 6043POPC   C2B36608  28.429   5.346   8.250
 6043POPC   C3B36609  28.382   5.299   7.950
 6043POPC   C4B36610  28.338   5.295   7.650
 6044POPC   NC336611  18.323  35.342   9.450
 6044POPC   PO436612  18.314  35.347   9.150
 6044POPC   GL136613  18.238  35.345   8.850
 6044POPC   GL236614  18.240  35.506   8.850
 6044POPC   C1A36615  18.234  35.359   8.550
 6044POPC   D2A36616  18.247  35.401   8.250
 6044POPC   C3A36617  18.298  35.369   7.950
 6044POPC   C4A36618  18.275  35.335   7.650
 6044POPC   C1B36619  18.245  35.618   8.550
 6044POPC   C2B36620  18.228  35.635   8.250
 6044POPC   C3B36621  18.177  35.583   7.950
 6044POPC   C4B36622  18.155  35.610   7.650
 6045POPC   NC336623  44.644   4.311   9.450
 6045POPC   PO436624  44.704   4.293   9.150
 6045POPC   GL136625  44.694   4.360   8.850
 6045POPC   GL236626  44.728   4.391   8.850
 6045POPC   C1A36627  44.654   4.367   8.550
 6045POPC   D2A36628  44.698   4.326   8.250
 6045POPC   C3A36629  44.624   4.278   7.950
 6045POPC   C4A36630  44.648   4.311   7.650
 6045POPC   C1B36631  44.835   4.494   8.550
 6045POPC   C2B36632  44.864   4.483   8.250
 6045POPC   C3B36633  44.807   4.485   7.950
 6045POPC   C4B36634  44.794   4.497   7.650
 6046POPC   NC336635  17.488  15.165   9.450
 6046POPC   PO436636  17.478  15.201   9.150
 6046POPC   GL136637  17.465  15.171   8.850
 6046POPC   GL236638  17.382  15.232   8.850
 6046POPC   C1A36639  17.507  15.162   8.550
 6046POPC   D2A36640  17.520  15.210   8.250
 6046POPC   C3A36641  17.460  15.130   7.950
 6046POPC   C4A36642  17.545  15.182   7.650
 6046POPC   C1B36643  17.288  15.293   8.550
 6046POPC   C2B36644  17.341  15.331   8.250
 6046POPC   C3B36645  17.306  15.267   7.950
 6046POPC   C4B36646  17.337  15.307   7.650
 6047POPC   NC336647  16.714  20.649   9.450
 6047POPC   PO436648  16.744  20.607   9.150
 6047POPC   GL136649  16.710  20.566   8.850
 6047POPC   GL236650  16.711  20.685   8.850
 6047POPC   C1A36651  16.709  20.566   8.550
 6047POPC   D2A36652  16.778  20.656   8.250
 6047POPC   C3A36653  16.708  20.620   7.950
 6047POPC   C4A36654  16.761  20.651   7.650
 6047POPC   C1B36655  16.617  20.875   8.550
 6047POPC   C2B36656  16.620  20.862   8.250
 6047POPC   C3B36657  16.639  20.787   7.950
 6047POPC   C4B36658  16.581  20.801   7.650
 6048POPC   NC336659   2.788   0.481   9.450
 6048POPC   PO436660   2.746   0.477   9.150
 6048POPC   GL136661   2.812   0.480   8.850
 6048POPC   GL236662   2.855   0.488   8.850
 6048POPC   C1A36663   2.748   0.457   8.550
 6048POPC   D2A36664   2.796   0.453   8.250
 6048POPC   C3A36665   2.756   0.487   7.950
 6048POPC   C4A36666   2.797   0.462   7.650
 6048POPC   C1B36667   2.982   0.569   8.550
 6048POPC   C2B36668   2.964   0.540   8.250
 6048POPC   C3B36669   3.034   0.521   7.950
 6048POPC   C4B36670   3.018   0.531   7.650
 6049POPC   NC336671  25.221  44.634   9.450
 6049POPC   PO436672  25.303  44.699   9.150
 6049POPC   GL136673  25.252  44.699   8.850
 6049POPC   GL236674  25.095  44.632   8.850
 6049POPC   C1A36675  25.223  44.655   8.550
 6049POPC   D2A36676  25.242  44.638   8.250
 6049POPC   C3A36677  25.277  44.651   7.950
 6049POPC   C4A36678  25.228  44.617   7.650
 6049POPC   C1B36679  24.988  44.655   8.550
 6049POPC   C2B36680  25.063  44.677   8.250
 6049POPC   C3B36681  25.042  44.642   7.950
 6049POPC   C4B36682  25.034  44.674   7.650
 6050POPC   NC336683  38.481  15.209   9.450
 6050POPC   PO436684  38.488  15.197   9.150
 6050POPC   GL136685  38.453  15.190   8.850
 6050POPC   GL236686  38.489  15.320   8.850
 6050POPC   C1A36687  38.440  15.180   8.550
 6050POPC   D2A36688  38.500  15.186   8.250
 6050POPC   C3A36689  38.442  15.208   7.950
 6050POPC   C4A36690  38.499  15.181   7.650
 6050POPC   C1B36691  38.587  15.454   8.550
 6050POPC   C2B36692  38.515  15.380   8.250
 6050POPC   C3B36693  38.589  15.398   7.950
 6050POPC   C4B36694  38.534  15.379   7.650
 6051POPC   NC336695  33.771  35.373   9.450
 6051POPC   PO436696  33.792  35.363   9.150
 6051POPC   GL136697  33.801  35.362   8.850
 6051POPC   GL236698  33.917  35.383   8.850
 6051POPC   C1A36699  33.825  35.356   8.550
 6051POPC   D2A36700  33.790  35.319   8.250
 6051POPC   C3A36701  33.837  35.379   7.950
 6051POPC   C4A36702  33.765  35.382   7.650
 6051POPC   C1B36703  33.952  35.467   8.550
 6051POPC   C2B36704  33.978  35.472   8.250
 6051POPC   C3B36705  34.000  35.474   7.950
 6051POPC   C4B36706  33.955  35.503   7.650
 6052POPC   NC336707   3.521   0.430   9.450
 6052POPC   PO436708   3.590   0.432   9.150
 6052POPC   GL136709   3.497   0.457   8.850
 6052POPC   GL236710   3.580   0.584   8.850
 6052POPC   C1A36711   3.546   0.456   8.550
 6052POPC   D2A36712   3.576   0.440   8.250
 6052POPC   C3A36713   3.548   0.425   7.950
 6052POPC   C4A36714   3.582   0.457   7.650
 6052POPC   C1B36715   3.622   0.682   8.550
 6052POPC   C2B36716   3.671   0.664   8.250
 6052POPC   C3B36717   3.641   0.628   7.950
 6052POPC   C4B36718   3.599   0.649   7.650
 6053POPC   NC336719  19.019  44.676   9.450
 6053POPC   PO436720  19.084  44.633   9.150
 6053POPC   GL136721  19.097  44.696   8.850
 6053POPC   GL236722  18.894  44.680   8.850
 6053POPC   C1A36723  19.101  44.627   8.550
 6053POPC   D2A36724  19.089  44.628   8.250
 6053POPC   C3A36725  19.085  44.690   7.950
 6053POPC   C4A36726  19.015  44.690   7.650
 6053POPC   C1B36727  18.813  44.726   8.550
 6053POPC   C2B36728  18.824  44.684   8.250
 6053POPC   C3B36729  18.797  44.714   7.950
 6053POPC   C4B36730  18.844  44.678   7.650
 6054POPC   NC336731  10.563  29.936   9.450
 6054POPC   PO436732  10.532  29.969   9.150
 6054POPC   GL136733  10.507  29.961   8.850
 6054POPC   GL236734  10.570  29.984   8.850
 6054POPC   C1A36735  10.554  29.928   8.550
 6054POPC   D2A36736  10.542  29.905   8.250
 6054POPC   C3A36737  10.477  29.884   7.950
 6054POPC   C4A36738  10.514  29.957   7.650
 6054POPC   C1B36739  10.678  30.163   8.550
 6054POPC   C2B36740  10.683  30.128   8.250
 6054POPC   C3B36741  10.649  30.112   7.950
 6054POPC   C4B36742  10.680  30.176   7.650
 6055POPC   NC336743   9.713  39.242   9.450
 6055POPC   PO436744   9.703  39.241   9.150
 6055POPC   GL136745   9.760  39.197   8.850
 6055POPC   GL236746   9.857  39.082   8.850
 6055POPC   C1A36747   9.700  39.238   8.550
 6055POPC   D2A36748   9.786  39.264   8.250
 6055POPC   C3A36749   9.743  39.203   7.950
 6055POPC   C4A36750   9.724  39.181   7.650
 6055POPC   C1B36751   9.901  39.042   8.550
 6055POPC   C2B36752   9.876  38.990   8.250
 6055POPC   C3B36753   9.896  38.988   7.950
 6055POPC   C4B36754   9.944  38.988   7.650
 6056POPC   NC336755  10.571   8.925   9.450
 6056POPC   PO436756  10.497   8.957   9.150
 6056POPC   GL136757  10.554   9.003   8.850
 6056POPC   GL236758  10.456   9.041   8.850
 6056POPC   C1A36759  10.567   9.000   8.550
 6056POPC   D2A36760  10.498   8.987   8.250
 6056POPC   C3A36761  10.514   9.011   7.950
 6056POPC   C4A36762  10.515   8.994   7.650
 6056POPC   C1B36763  10.341   9.160   8.550
 6056POPC   C2B36764  10.324   9.118   8.250
 6056POPC   C3B36765  10.332   9.167   7.950
 6056POPC   C4B36766  10.311   9.108   7.650
 6057POPC   NC336767  17.551  14.397   9.450
 6057POPC   PO436768  17.507  14.364   9.150
 6057POPC   GL136769  17.488  14.449   8.850
 6057POPC   GL236770  17.511  14.521   8.850
 6057POPC   C1A36771  17.482  14.429   8.550
 6057POPC   D2A36772  17.557  14.408   8.250
 6057POPC   C3A36773  17.501  14.373   7.950
 6057POPC   C4A36774  17.487  14.424   7.650
 6057POPC   C1B36775  17.595  14.644   8.550
 6057POPC   C2B36776  17.586  14.619   8.250
 6057POPC   C3B36777  17.550  14.695   7.950
 6057POPC   C4B36778  17.508  14.642   7.650
 6058POPC   NC336779   5.068  43.149   9.450
 6058POPC   PO436780   5.109  43.128   9.150
 6058POPC   GL136781   5.073  43.080   8.850
 6058POPC   GL236782   5.021  42.979   8.850
 6058POPC   C1A36783   5.110  43.113   8.550
 6058POPC   D2A36784   5.096  43.063   8.250
 6058POPC   C3A36785   5.083  43.156   7.950
 6058POPC   C4A36786   5.100  43.139   7.650
 6058POPC   C1B36787   4.946  42.944   8.550
 6058POPC   C2B36788   4.963  42.920   8.250
 6058POPC   C3B36789   4.955  42.857   7.950
 6058POPC   C4B36790   4.983  42.863   7.650
 6059POPC   NC336791   0.480  36.156   9.450
 6059POPC   PO436792   0.397  36.133   9.150
 6059POPC   GL136793   0.432  36.153   8.850
 6059POPC   GL236794   0.346  36.267   8.850
 6059POPC   C1A36795   0.484  36.083   8.550
 6059POPC   D2A36796   0.440  36.120   8.250
 6059POPC   C3A36797   0.426  36.086   7.950
 6059POPC   C4A36798   0.444  36.126   7.650
 6059POPC   C1B36799   0.355  36.359   8.550
 6059POPC   C2B36800   0.307  36.387   8.250
 6059POPC   C3B36801   0.289  36.349   7.950
 6059POPC   C4B36802   0.366  36.325   7.650
 6060POPC   NC336803   6.598  32.998   9.450
 6060POPC   PO436804   6.602  32.985   9.150
 6060POPC   GL136805   6.690  32.995   8.850
 6060POPC   GL236806   6.709  33.174   8.850
 6060POPC   C1A36807   6.658  32.997   8.550
 6060POPC   D2A36808   6.628  33.001   8.250
 6060POPC   C3A36809   6.692  33.062   7.950
 6060POPC   C4A36810   6.688  32.989   7.650
 6060POPC   C1B36811   6.795  33.242   8.550
 6060POPC   C2B36812   6.781  33.248   8.250
 6060POPC   C3B36813   6.740  33.211   7.950
 6060POPC   C4B36814   6.741  33.226   7.650
 6061POPC   NC336815   2.769  10.565   9.450
 6061POPC   PO436816   2.728  10.555   9.150
 6061POPC   GL136817   2.753  10.533   8.850
 6061POPC   GL236818   2.624  10.541   8.850
 6061POPC   C1A36819   2.791  10.518   8.550
 6061POPC   D2A36820   2.735  10.527   8.250
 6061POPC   C3A36821   2.804  10.554   7.950
 6061POPC   C4A36822   2.754  10.499   7.650
 6061POPC   C1B36823   2.532  10.525   8.550
 6061POPC   C2B36824   2.480  10.569   8.250
 6061POPC   C3B36825   2.547  10.556   7.950
 6061POPC   C4B36826   2.476  10.528   7.650
 6062POPC   NC336827   5.083  14.443   9.450
 6062POPC   PO436828   5.047  14.375   9.150
 6062POPC   GL136829   5.100  14.402   8.850
 6062POPC   GL236830   5.069  14.542   8.850
 6062POPC   C1A36831   5.044  14.439   8.550
 6062POPC   D2A36832   5.140  14.374   8.250
 6062POPC   C3A36833   5.062  14.452   7.950
 6062POPC   C4A36834   5.088  14.385   7.650
 6062POPC   C1B36835   4.940  14.583   8.550
 6062POPC   C2B36836   4.923  14.574   8.250
 6062POPC   C3B36837   4.946  14.593   7.950
 6062POPC   C4B36838   4.961  14.618   7.650
 6063POPC   NC336839  19.828   1.192   9.450
 6063POPC   PO436840  19.790   1.254   9.150
 6063POPC   GL136841  19.856   1.263   8.850
 6063POPC   GL236842  19.773   1.331   8.850
 6063POPC   C1A36843  19.878   1.214   8.550
 6063POPC   D2A36844  19.867   1.172   8.250
 6063POPC   C3A36845  19.867   1.196   7.950
 6063POPC   C4A36846  19.796   1.226   7.650
 6063POPC   C1B36847  19.789   1.433   8.550
 6063POPC   C2B36848  19.751   1.495   8.250
 6063POPC   C3B36849  19.794   1.424   7.950
 6063POPC   C4B36850  19.751   1.446   7.650
 6064POPC   NC336851  26.851  21.383   9.450
 6064POPC   PO436852  26.771  21.385   9.150
 6064POPC   GL136853  26.783  21.371   8.850
 6064POPC   GL236854  26.935  21.459   8.850
 6064POPC   C1A36855  26.855  21.409   8.550
 6064POPC   D2A36856  26.835  21.405   8.250
 6064POPC   C3A36857  26.790  21.427   7.950
 6064POPC   C4A36858  26.769  21.376   7.650
 6064POPC   C1B36859  27.025  21.474   8.550
 6064POPC   C2B36860  27.081  21.506   8.250
 6064POPC   C3B36861  27.093  21.438   7.950
 6064POPC   C4B36862  27.092  21.451   7.650
 6065POPC   NC336863   5.044  12.887   9.450
 6065POPC   PO436864   5.127  12.816   9.150
 6065POPC   GL136865   5.122  12.876   8.850
 6065POPC   GL236866   5.237  12.870   8.850
 6065POPC   C1A36867   5.114  12.893   8.550
 6065POPC   D2A36868   5.118  12.896   8.250
 6065POPC   C3A36869   5.116  12.824   7.950
 6065POPC   C4A36870   5.114  12.805   7.650
 6065POPC   C1B36871   5.305  12.898   8.550
 6065POPC   C2B36872   5.319  12.846   8.250
 6065POPC   C3B36873   5.385  12.904   7.950
 6065POPC   C4B36874   5.375  12.848   7.650
 6066POPC   NC336875  16.710  12.887   9.450
 6066POPC   PO436876  16.686  12.884   9.150
 6066POPC   GL136877  16.743  12.898   8.850
 6066POPC   GL236878  16.610  12.780   8.850
 6066POPC   C1A36879  16.727  12.829   8.550
 6066POPC   D2A36880  16.766  12.849   8.250
 6066POPC   C3A36881  16.744  12.877   7.950
 6066POPC   C4A36882  16.758  12.835   7.650
 6066POPC   C1B36883  16.540  12.772   8.550
 6066POPC   C2B36884  16.539  12.796   8.250
 6066POPC   C3B36885  16.490  12.799   7.950
 6066POPC   C4B36886  16.503  12.783   7.650
 6067POPC   NC336887  37.663   2.024   9.450
 6067POPC   PO436888  37.647   1.972   9.150
 6067POPC   GL136889  37.729   2.028   8.850
 6067POPC   GL236890  37.648   1.853   8.850
 6067POPC   C1A36891  37.680   1.962   8.550
 6067POPC   D2A36892  37.714   2.021   8.250
 6067POPC   C3A36893  37.702   1.971   7.950
 6067POPC   C4A36894  37.683   1.999   7.650
 6067POPC   C1B36895  37.546   1.821   8.550
 6067POPC   C2B36896  37.488   1.797   8.250
 6067POPC   C3B36897  37.537   1.738   7.950
 6067POPC   C4B36898  37.545   1.836   7.650
 6068POPC   NC336899  30.701  14.398   9.450
 6068POPC   PO436900  30.719  14.361   9.150
 6068POPC   GL136901  30.664  14.409   8.850
 6068POPC   GL236902  30.606  14.487   8.850
 6068POPC   C1A36903  30.664  14.385   8.550
 6068POPC   D2A36904  30.688  14.354   8.250
 6068POPC   C3A36905  30.648  14.451   7.950
 6068POPC   C4A36906  30.655  14.426   7.650
 6068POPC   C1B36907  30.556  14.617   8.550
 6068POPC   C2B36908  30.469  14.541   8.250
 6068POPC   C3B36909  30.487  14.575   7.950
 6068POPC   C4B36910  30.555  14.586   7.650
 6069POPC   NC336911  14.384   4.281   9.450
 6069POPC   PO436912  14.372   4.305   9.150
 6069POPC   GL136913  14.358   4.305   8.850
 6069POPC   GL236914  14.333   4.202   8.850
 6069POPC   C1A36915  14.409   4.334   8.550
 6069POPC   D2A36916  14.387   4.355   8.250
 6069POPC   C3A36917  14.408   4.292   7.950
 6069POPC   C4A36918  14.417   4.277   7.650
 6069POPC   C1B36919  14.185   4.141   8.550
 6069POPC   C2B36920  14.169   4.129   8.250
 6069POPC   C3B36921  14.238   4.149   7.950
 6069POPC   C4B36922  14.199   4.170   7.650
 6070POPC   NC336923  44.659  29.919   9.450
 6070POPC   PO436924  44.642  29.876   9.150
 6070POPC   GL136925  44.686  29.887   8.850
 6070POPC   GL236926  44.815  29.902   8.850
 6070POPC   C1A36927  44.640  29.889   8.550
 6070POPC   D2A36928  44.674  29.899   8.250
 6070POPC   C3A36929  44.699  29.927   7.950
 6070POPC   C4A36930  44.704  29.959   7.650
 6070POPC   C1B36931  44.931  29.847   8.550
 6070POPC   C2B36932  44.879  29.926   8.250
 6070POPC   C3B36933  44.881  29.912   7.950
 6070POPC   C4B36934  44.864  29.872   7.650
 6071POPC   NC336935  27.594  38.419   9.450
 6071POPC   PO436936  27.546  38.469   9.150
 6071POPC   GL136937  27.573  38.441   8.850
 6071POPC   GL236938  27.547  38.599   8.850
 6071POPC   C1A36939  27.584  38.496   8.550
 6071POPC   D2A36940  27.639  38.424   8.250
 6071POPC   C3A36941  27.602  38.423   7.950
 6071POPC   C4A36942  27.616  38.442   7.650
 6071POPC   C1B36943  27.477  38.685   8.550
 6071POPC   C2B36944  27.474  38.646   8.250
 6071POPC   C3B36945  27.446  38.724   7.950
 6071POPC   C4B36946  27.460  38.703   7.650
 6072POPC   NC336947  13.658  22.174   9.450
 6072POPC   PO436948  13.620  22.177   9.150
 6072POPC   GL136949  13.639  22.193   8.850
 6072POPC   GL236950  13.764  22.117   8.850
 6072POPC   C1A36951  13.596  22.200   8.550
 6072POPC   D2A36952  13.581  22.203   8.250
 6072POPC   C3A36953  13.662  22.206   7.950
 6072POPC   C4A36954  13.613  22.183   7.650
 6072POPC   C1B36955  13.816  22.095   8.550
 6072POPC   C2B36956  13.857  22.104   8.250
 6072POPC   C3B36957  13.841  22.111   7.950
 6072POPC   C4B36958  13.821  22.090   7.650
 6073POPC   NC336959   7.374  42.363   9.450
 6073POPC   PO436960   7.434  42.378   9.150
 6073POPC   GL136961   7.446  42.357   8.850
 6073POPC   GL236962   7.333  42.302   8.850
 6073POPC   C1A36963   7.466  42.336   8.550
 6073POPC   D2A36964   7.420  42.372   8.250
 6073POPC   C3A36965   7.430  42.297   7.950
 6073POPC   C4A36966   7.453  42.292   7.650
 6073POPC   C1B36967   7.204  42.218   8.550
 6073POPC   C2B36968   7.176  42.234   8.250
 6073POPC   C3B36969   7.199  42.218   7.950
 6073POPC   C4B36970   7.166  42.191   7.650
 6074POPC   NC336971  32.993   8.164   9.450
 6074POPC   PO436972  33.053   8.234   9.150
 6074POPC   GL136973  32.986   8.232   8.850
 6074POPC   GL236974  32.943   8.064   8.850
 6074POPC   C1A36975  33.067   8.188   8.550
 6074POPC   D2A36976  33.071   8.199   8.250
 6074POPC   C3A36977  32.975   8.212   7.950
 6074POPC   C4A36978  33.062   8.214   7.650
 6074POPC   C1B36979  32.860   7.950   8.550
 6074POPC   C2B36980  32.850   7.947   8.250
 6074POPC   C3B36981  32.879   8.008   7.950
 6074POPC   C4B36982  32.902   7.968   7.650
 6075POPC   NC336983  43.934  26.843   9.450
 6075POPC   PO436984  43.927  26.839   9.150
 6075POPC   GL136985  43.908  26.787   8.850
 6075POPC   GL236986  44.000  26.920   8.850
 6075POPC   C1A36987  43.919  26.847   8.550
 6075POPC   D2A36988  43.881  26.805   8.250
 6075POPC   C3A36989  43.838  26.773   7.950
 6075POPC   C4A36990  43.913  26.775   7.650
 6075POPC   C1B36991  44.050  26.992   8.550
 6075POPC   C2B36992  44.067  27.010   8.250
 6075POPC   C3B36993  44.090  27.008   7.950
 6075POPC   C4B36994  44.034  26.966   7.650
 6076POPC   NC336995  12.840  10.571   9.450
 6076POPC   PO436996  12.860  10.477   9.150
 6076POPC   GL136997  12.863  10.518   8.850
 6076POPC   GL236998  12.816  10.422   8.850
 6076POPC   C1A36999  12.858  10.490   8.550
 6076POPC   D2A37000  12.888  10.512   8.250
 6076POPC   C3A37001  12.879  10.560   7.950
 6076POPC   C4A37002  12.802  10.572   7.650
 6076POPC   C1B37003  12.867  10.272   8.550
 6076POPC   C2B37004  12.864  10.305   8.250
 6076POPC   C3B37005  12.891  10.241   7.950
 6076POPC   C4B37006  12.812  10.273   7.650
 6077POPC   NC337007  41.529  11.258   9.450
 6077POPC   PO437008  41.517  11.253   9.150
 6077POPC   GL137009  41.587  11.300   8.850
 6077POPC   GL237010  41.620  11.237   8.850
 6077POPC   C1A37011  41.593  11.264   8.550
 6077POPC   D2A37012  41.555  11.287   8.250
 6077POPC   C3A37013  41.555  11.294   7.950
 6077POPC   C4A37014  41.544  11.312   7.650
 6077POPC   C1B37015  41.699  11.093   8.550
 6077POPC   C2B37016  41.643  11.036   8.250
 6077POPC   C3B37017  41.718  11.070   7.950
 6077POPC   C4B37018  41.715  11.037   7.650
 6078POPC   NC337019  29.882  29.138   9.450
 6078POPC   PO437020  29.933  29.110   9.150
 6078POPC   GL137021  29.901  29.135   8.850
 6078POPC   GL237022  29.787  29.226   8.850
 6078POPC   C1A37023  29.912  29.113   8.550
 6078POPC   D2A37024  29.936  29.127   8.250
 6078POPC   C3A37025  29.966  29.177   7.950
 6078POPC   C4A37026  29.913  29.168   7.650
 6078POPC   C1B37027  29.647  29.172   8.550
 6078POPC   C2B37028  29.672  29.204   8.250
 6078POPC   C3B37029  29.649  29.223   7.950
 6078POPC   C4B37030  29.704  29.215   7.650
 6079POPC   NC337031   0.418  31.463   9.450
 6079POPC   PO437032   0.391  31.515   9.150
 6079POPC   GL137033   0.410  31.451   8.850
 6079POPC   GL237034   0.456  31.593   8.850
 6079POPC   C1A37035   0.405  31.466   8.550
 6079POPC   D2A37036   0.476  31.466   8.250
 6079POPC   C3A37037   0.454  31.458   7.950
 6079POPC   C4A37038   0.459  31.517   7.650
 6079POPC   C1B37039   0.395  31.761   8.550
 6079POPC   C2B37040   0.364  31.715   8.250
 6079POPC   C3B37041   0.354  31.750   7.950
 6079POPC   C4B37042   0.375  31.719   7.650
 6080POPC   NC337043  12.060  38.467   9.450
 6080POPC   PO437044  12.108  38.456   9.150
 6080POPC   GL137045  12.107  38.450   8.850
 6080POPC   GL237046  11.975  38.573   8.850
 6080POPC   C1A37047  12.122  38.460   8.550
 6080POPC   D2A37048  12.107  38.481   8.250
 6080POPC   C3A37049  12.083  38.453   7.950
 6080POPC   C4A37050  12.119  38.465   7.650
 6080POPC   C1B37051  11.975  38.674   8.550
 6080POPC   C2B37052  11.893  38.687   8.250
 6080POPC   C3B37053  11.960  38.678   7.950
 6080POPC   C4B37054  11.948  38.682   7.650
 6081POPC   NC337055   3.524  40.755   9.450
 6081POPC   PO437056   3.513  40.741   9.150
 6081POPC   GL137057   3.521  40.820   8.850
 6081POPC   GL237058   3.530  40.627   8.850
 6081POPC   C1A37059   3.546  40.832   8.550
 6081POPC   D2A37060   3.562  40.779   8.250
 6081POPC   C3A37061   3.549  40.787   7.950
 6081POPC   C4A37062   3.560  40.822   7.650
 6081POPC   C1B37063   3.510  40.522   8.550
 6081POPC   C2B37064   3.554  40.515   8.250
 6081POPC   C3B37065   3.531  40.582   7.950
 6081POPC   C4B37066   3.557  40.544   7.650
 6082POPC   NC337067  29.135  10.572   9.450
 6082POPC   PO437068  29.146  10.565   9.150
 6082POPC   GL137069  29.187  10.496   8.850
 6082POPC   GL237070  29.091  10.680   8.850
 6082POPC   C1A37071  29.097  10.538   8.550
 6082POPC   D2A37072  29.134  10.535   8.250
 6082POPC   C3A37073  29.103  10.571   7.950
 6082POPC   C4A37074  29.119  10.552   7.650
 6082POPC   C1B37075  29.151  10.728   8.550
 6082POPC   C2B37076  29.108  10.781   8.250
 6082POPC   C3B37077  29.143  10.769   7.950
 6082POPC   C4B37078  29.123  10.772   7.650
 6083POPC   NC337079  43.917  29.943   9.450
 6083POPC   PO437080  43.932  29.891   9.150
 6083POPC   GL137081  43.844  29.881   8.850
 6083POPC   GL237082  43.805  29.817   8.850
 6083POPC   C1A37083  43.904  29.945   8.550
 6083POPC   D2A37084  43.875  29.895   8.250
 6083POPC   C3A37085  43.890  29.939   7.950
 6083POPC   C4A37086  43.910  29.936   7.650
 6083POPC   C1B37087  43.758  29.722   8.550
 6083POPC   C2B37088  43.771  29.774   8.250
 6083POPC   C3B37089  43.746  29.728   7.950
 6083POPC   C4B37090  43.714  29.757   7.650
 6084POPC   NC337091  39.213  33.804   9.450
 6084POPC   PO437092  39.206  33.802   9.150
 6084POPC   GL137093  39.226  33.846   8.850
 6084POPC   GL237094  39.099  33.834   8.850
 6084POPC   C1A37095  39.279  33.794   8.550
 6084POPC   D2A37096  39.208  33.796   8.250
 6084POPC   C3A37097  39.263  33.799   7.950
 6084POPC   C4A37098  39.256  33.769   7.650
 6084POPC   C1B37099  39.082  33.968   8.550
 6084POPC   C2B37100  39.014  33.941   8.250
 6084POPC   C3B37101  39.067  33.927   7.950
 6084POPC   C4B37102  39.045  33.998   7.650
 6085POPC   NC337103  30.741   7.402   9.450
 6085POPC   PO437104  30.721   7.446   9.150
 6085POPC   GL137105  30.703   7.392   8.850
 6085POPC   GL237106  30.860   7.381   8.850
 6085POPC   C1A37107  30.737   7.464   8.550
 6085POPC   D2A37108  30.679   7.421   8.250
 6085POPC   C3A37109  30.649   7.454   7.950
 6085POPC   C4A37110  30.723   7.468   7.650
 6085POPC   C1B37111  30.929   7.380   8.550
 6085POPC   C2B37112  30.978   7.440   8.250
 6085POPC   C3B37113  30.897   7.433   7.950
 6085POPC   C4B37114  30.979   7.425   7.650
 6086POPC   NC337115  18.244  19.108   9.450
 6086POPC   PO437116  18.267  19.065   9.150
 6086POPC   GL137117  18.242  19.064   8.850
 6086POPC   GL237118  18.387  19.046   8.850
 6086POPC   C1A37119  18.271  19.018   8.550
 6086POPC   D2A37120  18.250  19.031   8.250
 6086POPC   C3A37121  18.259  19.040   7.950
 6086POPC   C4A37122  18.242  19.056   7.650
 6086POPC   C1B37123  18.542  18.950   8.550
 6086POPC   C2B37124  18.524  18.952   8.250
 6086POPC   C3B37125  18.483  18.975   7.950
 6086POPC   C4B37126  18.498  18.952   7.650
 6087POPC   NC337127  15.976   1.948   9.450
 6087POPC   PO437128  15.983   1.963   9.150
 6087POPC   GL137129  15.944   1.953   8.850
 6087POPC   GL237130  16.062   1.990   8.850
 6087POPC   C1A37131  16.001   2.035   8.550
 6087POPC   D2A37132  15.994   2.032   8.250
 6087POPC   C3A37133  15.920   2.025   7.950
 6087POPC   C4A37134  15.911   1.975   7.650
 6087POPC   C1B37135  16.165   1.918   8.550
 6087POPC   C2B37136  16.211   1.931   8.250
 6087POPC   C3B37137  16.178   1.940   7.950
 6087POPC   C4B37138  16.211   1.975   7.650
 6088POPC   NC337139  30.701  15.198   9.450
 6088POPC   PO437140  30.741  15.184   9.150
 6088POPC   GL137141  30.706  15.143   8.850
 6088POPC   GL237142  30.778  15.064   8.850
 6088POPC   C1A37143  30.728  15.161   8.550
 6088POPC   D2A37144  30.743  15.208   8.250
 6088POPC   C3A37145  30.659  15.174   7.950
 6088POPC   C4A37146  30.744  15.156   7.650
 6088POPC   C1B37147  30.869  15.004   8.550
 6088POPC   C2B37148  30.786  14.935   8.250
 6088POPC   C3B37149  30.812  14.933   7.950
 6088POPC   C4B37150  30.789  14.919   7.650
 6089POPC   NC337151  11.320   3.569   9.450
 6089POPC   PO437152  11.336   3.547   9.150
 6089POPC   GL137153  11.347   3.584   8.850
 6089POPC   GL237154  11.290   3.372   8.850
 6089POPC   C1A37155  11.323   3.546   8.550
 6089POPC   D2A37156  11.307   3.521   8.250
 6089POPC   C3A37157  11.310   3.492   7.950
 6089POPC   C4A37158  11.287   3.503   7.650
 6089POPC   C1B37159  11.244   3.272   8.550
 6089POPC   C2B37160  11.220   3.278   8.250
 6089POPC   C3B37161  11.278   3.262   7.950
 6089POPC   C4B37162  11.257   3.304   7.650
 6090POPC   NC337163  12.076  18.327   9.450
 6090POPC   PO437164  12.085  18.242   9.150
 6090POPC   GL137165  12.082  18.284   8.850
 6090POPC   GL237166  11.940  18.363   8.850
 6090POPC   C1A37167  12.115  18.315   8.550
 6090POPC   D2A37168  12.028  18.272   8.250
 6090POPC   C3A37169  12.092  18.234   7.950
 6090POPC   C4A37170  12.039  18.242   7.650
 6090POPC   C1B37171  11.810  18.332   8.550
 6090POPC   C2B37172  11.883  18.311   8.250
 6090POPC   C3B37173  11.813  18.300   7.950
 6090POPC   C4B37174  11.830  18.375   7.650
 6091POPC   NC337175   0.487   2.032   9.450
 6091POPC   PO437176   0.441   2.024   9.150
 6091POPC   GL137177   0.428   1.966   8.850
 6091POPC   GL237178   0.533   1.899   8.850
 6091POPC   C1A37179   0.467   2.034   8.550
 6091POPC   D2A37180   0.454   2.002   8.250
 6091POPC   C3A37181   0.461   2.036   7.950
 6091POPC   C4A37182   0.398   1.951   7.650
 6091POPC   C1B37183   0.641   1.848   8.550
 6091POPC   C2B37184   0.656   1.889   8.250
 6091POPC   C3B37185   0.692   1.871   7.950
 6091POPC   C4B37186   0.640   1.860   7.650
 6092POPC   NC337187  29.903  15.147   9.450
 6092POPC   PO437188  29.944  15.225   9.150
 6092POPC   GL137189  29.953  15.150   8.850
 6092POPC   GL237190  29.830  15.237   8.850
 6092POPC   C1A37191  29.969  15.188   8.550
 6092POPC   D2A37192  29.919  15.202   8.250
 6092POPC   C3A37193  29.964  15.141   7.950
 6092POPC   C4A37194  29.903  15.216   7.650
 6092POPC   C1B37195  29.733  15.411   8.550
 6092POPC   C2B37196  29.733  15.402   8.250
 6092POPC   C3B37197  29.721  15.366   7.950
 6092POPC   C4B37198  29.784  15.381   7.650
 6093POPC   NC337199  27.598  39.253   9.450
 6093POPC   PO437200  27.555  39.255   9.150
 6093POPC   GL137201  27.623  39.265   8.850
 6093POPC   GL237202  27.474  39.298   8.850
 6093POPC   C1A37203  27.566  39.194   8.550
 6093POPC   D2A37204  27.576  39.195   8.250
 6093POPC   C3A37205  27.610  39.220   7.950
 6093POPC   C4A37206  27.618  39.215   7.650
 6093POPC   C1B37207  27.384  39.463   8.550
 6093POPC   C2B37208  27.433  39.379   8.250
 6093POPC   C3B37209  27.441  39.451   7.950
 6093POPC   C4B37210  27.445  39.466   7.650
 6094POPC   NC337211  42.293   2.745   9.450
 6094POPC   PO437212  42.316   2.764   9.150
 6094POPC   GL137213  42.328   2.727   8.850
 6094POPC   GL237214  42.319   2.626   8.850
 6094POPC   C1A37215  42.316   2.782   8.550
 6094POPC   D2A37216  42.325   2.811   8.250
 6094POPC   C3A37217  42.341   2.759   7.950
 6094POPC   C4A37218  42.318   2.769   7.650
 6094POPC   C1B37219  42.297   2.519   8.550
 6094POPC   C2B37220  42.270   2.569   8.250
 6094POPC   C3B37221  42.223   2.534   7.950
 6094POPC   C4B37222  42.303   2.566   7.650
 6095POPC   NC337223  38.439   0.444   9.450
 6095POPC   PO437224  38.437   0.456   9.150
 6095POPC   GL137225  38.462   0.457   8.850
 6095POPC   GL237226  38.378   0.340   8.850
 6095POPC   C1A37227  38.485   0.423   8.550
 6095POPC   D2A37228  38.446   0.450   8.250
 6095POPC   C3A37229  38.493   0.464   7.950
 6095POPC   C4A37230  38.472   0.447   7.650
 6095POPC   C1B37231  38.250   0.282   8.550
 6095POPC   C2B37232  38.286   0.283   8.250
 6095POPC   C3B37233  38.222   0.260   7.950
 6095POPC   C4B37234  38.207   0.310   7.650
 6096POPC   NC337235  26.816  29.895   9.450
 6096POPC   PO437236  26.783  29.946   9.150
 6096POPC   GL137237  26.808  29.946   8.850
 6096POPC   GL237238  26.844  29.996   8.850
 6096POPC   C1A37239  26.795  29.872   8.550
 6096POPC   D2A37240  26.785  29.939   8.250
 6096POPC   C3A37241  26.815  29.940   7.950
 6096POPC   C4A37242  26.779  29.936   7.650
 6096POPC   C1B37243  26.898  30.196   8.550
 6096POPC   C2B37244  26.817  30.201   8.250
 6096POPC   C3B37245  26.808  30.121   7.950
 6096POPC   C4B37246  26.885  30.166   7.650
 6097POPC   NC337247  22.180  10.568   9.450
 6097POPC   PO437248  22.132  10.573   9.150
 6097POPC   GL137249  22.209  10.564   8.850
 6097POPC   GL237250  22.144  10.420   8.850
 6097POPC   C1A37251  22.120  10.489   8.550
 6097POPC   D2A37252  22.166  10.480   8.250
 6097POPC   C3A37253  22.137  10.484   7.950
 6097POPC   C4A37254  22.142  10.482   7.650
 6097POPC   C1B37255  21.989  10.357   8.550
 6097POPC   C2B37256  21.986  10.293   8.250
 6097POPC   C3B37257  22.011  10.274   7.950
 6097POPC   C4B37258  22.043  10.356   7.650
 6098POPC   NC337259  19.067   2.017   9.450
 6098POPC   PO437260  19.085   1.981   9.150
 6098POPC   GL137261  19.040   1.998   8.850
 6098POPC   GL237262  19.189   1.964   8.850
 6098POPC   C1A37263  19.075   2.008   8.550
 6098POPC   D2A37264  19.048   2.020   8.250
 6098POPC   C3A37265  19.011   1.992   7.950
 6098POPC   C4A37266  19.068   1.948   7.650
 6098POPC   C1B37267  19.302   1.840   8.550
 6098POPC   C2B37268  19.297   1.829   8.250
 6098POPC   C3B37269  19.238   1.850   7.950
 6098POPC   C4B37270  19.267   1.856   7.650
 6099POPC   NC337271  12.090  17.471   9.450
 6099POPC   PO437272  12.083  17.469   9.150
 6099POPC   GL137273  12.065  17.524   8.850
 6099POPC   GL237274  11.964  17.604   8.850
 6099POPC   C1A37275  12.090  17.555   8.550
 6099POPC   D2A37276  12.078  17.500   8.250
 6099POPC   C3A37277  12.126  17.499   7.950
 6099POPC   C4A37278  12.047  17.458   7.650
 6099POPC   C1B37279  11.971  17.683   8.550
 6099POPC   C2B37280  11.919  17.675   8.250
 6099POPC   C3B37281  11.873  17.671   7.950
 6099POPC   C4B37282  11.889  17.668   7.650
 6100POPC   NC337283  40.741  17.533   9.450
 6100POPC   PO437284  40.826  17.529   9.150
 6100POPC   GL137285  40.781  17.489   8.850
 6100POPC   GL237286  40.821  17.408   8.850
 6100POPC   C1A37287  40.777  17.506   8.550
 6100POPC   D2A37288  40.820  17.552   8.250
 6100POPC   C3A37289  40.803  17.471   7.950
 6100POPC   C4A37290  40.760  17.552   7.650
 6100POPC   C1B37291  40.878  17.341   8.550
 6100POPC   C2B37292  40.943  17.312   8.250
 6100POPC   C3B37293  40.958  17.259   7.950
 6100POPC   C4B37294  40.952  17.290   7.650
 6101POPC   NC337295   5.111  35.316   9.450
 6101POPC   PO437296   5.049  35.377   9.150
 6101POPC   GL137297   5.054  35.384   8.850
 6101POPC   GL237298   5.196  35.263   8.850
 6101POPC   C1A37299   5.093  35.344   8.550
 6101POPC   D2A37300   5.092  35.394   8.250
 6101POPC   C3A37301   5.124  35.372   7.950
 6101POPC   C4A37302   5.136  35.321   7.650
 6101POPC   C1B37303   5.313  35.198   8.550
 6101POPC   C2B37304   5.351  35.252   8.250
 6101POPC   C3B37305   5.308  35.191   7.950
 6101POPC   C4B37306   5.318  35.215   7.650
 6102POPC   NC337307  10.496   6.682   9.450
 6102POPC   PO437308  10.485   6.651   9.150
 6102POPC   GL137309  10.483   6.638   8.850
 6102POPC   GL237310  10.498   6.502   8.850
 6102POPC   C1A37311  10.477   6.656   8.550
 6102POPC   D2A37312  10.498   6.611   8.250
 6102POPC   C3A37313  10.484   6.646   7.950
 6102POPC   C4A37314  10.544   6.634   7.650
 6102POPC   C1B37315  10.511   6.431   8.550
 6102POPC   C2B37316  10.550   6.421   8.250
 6102POPC   C3B37317  10.519   6.370   7.950
 6102POPC   C4B37318  10.555   6.377   7.650
 6103POPC   NC337319  33.761  41.580   9.450
 6103POPC   PO437320  33.781  41.538   9.150
 6103POPC   GL137321  33.808  41.524   8.850
 6103POPC   GL237322  33.763  41.643   8.850
 6103POPC   C1A37323  33.801  41.568   8.550
 6103POPC   D2A37324  33.788  41.582   8.250
 6103POPC   C3A37325  33.837  41.518   7.950
 6103POPC   C4A37326  33.824  41.579   7.650
 6103POPC   C1B37327  33.684  41.799   8.550
 6103POPC   C2B37328  33.674  41.838   8.250
 6103POPC   C3B37329  33.728  41.755   7.950
 6103POPC   C4B37330  33.661  41.809   7.650
 6104POPC   NC337331  19.817  30.688   9.450
 6104POPC   PO437332  19.869  30.737   9.150
 6104POPC   GL137333  19.875  30.682   8.850
 6104POPC   GL237334  19.804  30.529   8.850
 6104POPC   C1A37335  19.876  30.688   8.550
 6104POPC   D2A37336  19.877  30.734   8.250
 6104POPC   C3A37337  19.810  30.674   7.950
 6104POPC   C4A37338  19.830  30.725   7.650
 6104POPC   C1B37339  19.764  30.417   8.550
 6104POPC   C2B37340  19.811  30.474   8.250
 6104POPC   C3B37341  19.850  30.479   7.950
 6104POPC   C4B37342  19.858  30.402   7.650
 6105POPC   NC337343  43.853  25.238   9.450
 6105POPC   PO437344  43.905  25.303   9.150
 6105POPC   GL137345  43.895  25.283   8.850
 6105POPC   GL237346  43.972  25.128   8.850
 6105POPC   C1A37347  43.843  25.224   8.550
 6105POPC   D2A37348  43.856  25.219   8.250
 6105POPC   C3A37349  43.862  25.255   7.950
 6105POPC   C4A37350  43.926  25.238   7.650
 6105POPC   C1B37351  44.015  25.086   8.550
 6105POPC   C2B37352  44.109  25.048   8.250
 6105POPC   C3B37353  44.087  25.121   7.950
 6105POPC   C4B37354  44.096  25.073   7.650
 6106POPC   NC337355  39.975   4.284   9.450
 6106POPC   PO437356  39.984   4.298   9.150
 6106POPC   GL137357  39.993   4.357   8.850
 6106POPC   GL237358  39.905   4.165   8.850
 6106POPC   C1A37359  40.032   4.275   8.550
 6106POPC   D2A37360  40.047   4.343   8.250
 6106POPC   C3A37361  39.967   4.332   7.950
 6106POPC   C4A37362  39.998   4.293   7.650
 6106POPC   C1B37363  39.889   4.051   8.550
 6106POPC   C2B37364  39.915   4.095   8.250
 6106POPC   C3B37365  39.852   4.149   7.950
 6106POPC   C4B37366  39.844   4.065   7.650
 6107POPC   NC337367  38.422  40.757   9.450
 6107POPC   PO437368  38.483  40.763   9.150
 6107POPC   GL137369  38.407  40.797   8.850
 6107POPC   GL237370  38.467  40.897   8.850
 6107POPC   C1A37371  38.426  40.799   8.550
 6107POPC   D2A37372  38.448  40.761   8.250
 6107POPC   C3A37373  38.487  40.764   7.950
 6107POPC   C4A37374  38.408  40.750   7.650
 6107POPC   C1B37375  38.451  41.009   8.550
 6107POPC   C2B37376  38.467  41.025   8.250
 6107POPC   C3B37377  38.458  40.998   7.950
 6107POPC   C4B37378  38.418  41.052   7.650
 6108POPC   NC337379  19.056  42.360   9.450
 6108POPC   PO437380  19.034  42.379   9.150
 6108POPC   GL137381  19.084  42.374   8.850
 6108POPC   GL237382  18.944  42.325   8.850
 6108POPC   C1A37383  19.108  42.354   8.550
 6108POPC   D2A37384  19.081  42.362   8.250
 6108POPC   C3A37385  19.102  42.311   7.950
 6108POPC   C4A37386  19.030  42.297   7.650
 6108POPC   C1B37387  18.846  42.355   8.550
 6108POPC   C2B37388  18.857  42.325   8.250
 6108POPC   C3B37389  18.786  42.294   7.950
 6108POPC   C4B37390  18.849  42.284   7.650
 6109POPC   NC337391  37.630  19.097   9.450
 6109POPC   PO437392  37.655  19.069   9.150
 6109POPC   GL137393  37.705  19.027   8.850
 6109POPC   GL237394  37.697  18.950   8.850
 6109POPC   C1A37395  37.693  19.097   8.550
 6109POPC   D2A37396  37.684  19.065   8.250
 6109POPC   C3A37397  37.703  19.087   7.950
 6109POPC   C4A37398  37.656  19.066   7.650
 6109POPC   C1B37399  37.679  18.766   8.550
 6109POPC   C2B37400  37.666  18.859   8.250
 6109POPC   C3B37401  37.652  18.783   7.950
 6109POPC   C4B37402  37.690  18.836   7.650
 6110POPC   NC337403  25.312  35.336   9.450
 6110POPC   PO437404  25.291  35.345   9.150
 6110POPC   GL137405  25.241  35.376   8.850
 6110POPC   GL237406  25.184  35.350   8.850
 6110POPC   C1A37407  25.219  35.371   8.550
 6110POPC   D2A37408  25.273  35.382   8.250
 6110POPC   C3A37409  25.278  35.384   7.950
 6110POPC   C4A37410  25.311  35.396   7.650
 6110POPC   C1B37411  25.002  35.438   8.550
 6110POPC   C2B37412  25.044  35.420   8.250
 6110POPC   C3B37413  25.053  35.396   7.950
 6110POPC   C4B37414  25.043  35.362   7.650
 6111POPC   NC337415  33.759  14.382   9.450
 6111POPC   PO437416  33.843  14.419   9.150
 6111POPC   GL137417  33.763  14.371   8.850
 6111POPC   GL237418  33.895  14.445   8.850
 6111POPC   C1A37419  33.841  14.374   8.550
 6111POPC   D2A37420  33.811  14.365   8.250
 6111POPC   C3A37421  33.847  14.429   7.950
 6111POPC   C4A37422  33.754  14.430   7.650
 6111POPC   C1B37423  34.026  14.442   8.550
 6111POPC   C2B37424  34.023  14.410   8.250
 6111POPC   C3B37425  34.045  14.407   7.950
 6111POPC   C4B37426  34.099  14.414   7.650
 6112POPC   NC337427   9.774   9.793   9.450
 6112POPC   PO437428   9.754   9.702   9.150
 6112POPC   GL137429   9.716   9.758   8.850
 6112POPC   GL237430   9.714   9.852   8.850
 6112POPC   C1A37431   9.721   9.776   8.550
 6112POPC   D2A37432   9.743   9.732   8.250
 6112POPC   C3A37433   9.779   9.712   7.950
 6112POPC   C4A37434   9.750   9.782   7.650
 6112POPC   C1B37435   9.717   9.969   8.550
 6112POPC   C2B37436   9.660   9.997   8.250
 6112POPC   C3B37437   9.694   9.944   7.950
 6112POPC   C4B37438   9.742   9.966   7.650
 6113POPC   NC337439  15.170  30.691   9.450
 6113POPC   PO437440  15.197  30.673   9.150
 6113POPC   GL137441  15.151  30.703   8.850
 6113POPC   GL237442  15.341  30.751   8.850
 6113POPC   C1A37443  15.173  30.704   8.550
 6113POPC   D2A37444  15.194  30.742   8.250
 6113POPC   C3A37445  15.224  30.739   7.950
 6113POPC   C4A37446  15.149  30.657   7.650
 6113POPC   C1B37447  15.427  30.748   8.550
 6113POPC   C2B37448  15.423  30.681   8.250
 6113POPC   C3B37449  15.390  30.727   7.950
 6113POPC   C4B37450  15.469  30.694   7.650
 6114POPC   NC337451  18.298  39.205   9.450
 6114POPC   PO437452  18.235  39.262   9.150
 6114POPC   GL137453  18.243  39.269   8.850
 6114POPC   GL237454  18.392  39.301   8.850
 6114POPC   C1A37455  18.325  39.240   8.550
 6114POPC   D2A37456  18.252  39.273   8.250
 6114POPC   C3A37457  18.327  39.251   7.950
 6114POPC   C4A37458  18.306  39.225   7.650
 6114POPC   C1B37459  18.481  39.308   8.550
 6114POPC   C2B37460  18.465  39.307   8.250
 6114POPC   C3B37461  18.543  39.344   7.950
 6114POPC   C4B37462  18.537  39.323   7.650
 6115POPC   NC337463  28.323  34.526   9.450
 6115POPC   PO437464  28.363  34.561   9.150
 6115POPC   GL137465  28.322  34.528   8.850
 6115POPC   GL237466  28.375  34.672   8.850
 6115POPC   C1A37467  28.401  34.576   8.550
 6115POPC   D2A37468  28.349  34.585   8.250
 6115POPC   C3A37469  28.381  34.623   7.950
 6115POPC   C4A37470  28.387  34.619   7.650
 6115POPC   C1B37471  28.452  34.811   8.550
 6115POPC   C2B37472  28.419  34.815   8.250
 6115POPC   C3B37473  28.472  34.802   7.950
 6115POPC   C4B37474  28.487  34.812   7.650
 6116POPC   NC337475  37.665   3.506   9.450
 6116POPC   PO437476  37.677   3.532   9.150
 6116POPC   GL137477  37.644   3.514   8.850
 6116POPC   GL237478  37.676   3.460   8.850
 6116POPC   C1A37479  37.676   3.547   8.550
 6116POPC   D2A37480  37.663   3.499   8.250
 6116POPC   C3A37481  37.663   3.537   7.950
 6116POPC   C4A37482  37.692   3.551   7.650
 6116POPC   C1B37483  37.651   3.300   8.550
 6116POPC   C2B37484  37.588   3.301   8.250
 6116POPC   C3B37485  37.629   3.338   7.950
 6116POPC   C4B37486  37.639   3.262   7.650
 6117POPC   NC337487  12.073  37.712   9.450
 6117POPC   PO437488  12.047  37.708   9.150
 6117POPC   GL137489  12.100  37.684   8.850
 6117POPC   GL237490  12.046  37.620   8.850
 6117POPC   C1A37491  12.036  37.647   8.550
 6117POPC   D2A37492  12.036  37.710   8.250
 6117POPC   C3A37493  12.041  37.693   7.950
 6117POPC   C4A37494  12.039  37.653   7.650
 6117POPC   C1B37495  11.940  37.453   8.550
 6117POPC   C2B37496  11.901  37.489   8.250
 6117POPC   C3B37497  11.962  37.473   7.950
 6117POPC   C4B37498  11.977  37.430   7.650
 6118POPC   NC337499  35.334  40.738   9.450
 6118POPC   PO437500  35.359  40.809   9.150
 6118POPC   GL137501  35.319  40.829   8.850
 6118POPC   GL237502  35.315  40.947   8.850
 6118POPC   C1A37503  35.361  40.766   8.550
 6118POPC   D2A37504  35.367  40.736   8.250
 6118POPC   C3A37505  35.400  40.779   7.950
 6118POPC   C4A37506  35.370  40.815   7.650
 6118POPC   C1B37507  35.280  41.014   8.550
 6118POPC   C2B37508  35.317  41.054   8.250
 6118POPC   C3B37509  35.297  41.021   7.950
 6118POPC   C4B37510  35.299  41.012   7.650
 6119POPC   NC337511  30.741  22.925   9.450
 6119POPC   PO437512  30.727  22.973   9.150
 6119POPC   GL137513  30.710  22.986   8.850
 6119POPC   GL237514  30.553  22.939   8.850
 6119POPC   C1A37515  30.744  22.950   8.550
 6119POPC   D2A37516  30.679  22.928   8.250
 6119POPC   C3A37517  30.699  22.969   7.950
 6119POPC   C4A37518  30.653  22.968   7.650
 6119POPC   C1B37519  30.419  22.823   8.550
 6119POPC   C2B37520  30.480  22.910   8.250
 6119POPC   C3B37521  30.488  22.837   7.950
 6119POPC   C4B37522  30.476  22.880   7.650
 6120POPC   NC337523  26.784   2.023   9.450
 6120POPC   PO437524  26.842   1.949   9.150
 6120POPC   GL137525  26.831   2.039   8.850
 6120POPC   GL237526  26.807   1.835   8.850
 6120POPC   C1A37527  26.829   1.980   8.550
 6120POPC   D2A37528  26.780   2.005   8.250
 6120POPC   C3A37529  26.795   2.004   7.950
 6120POPC   C4A37530  26.863   1.955   7.650
 6120POPC   C1B37531  26.845   1.700   8.550
 6120POPC   C2B37532  26.870   1.718   8.250
 6120POPC   C3B37533  26.825   1.732   7.950
 6120POPC   C4B37534  26.831   1.708   7.650
 6121POPC   NC337535  26.002  24.468   9.450
 6121POPC   PO437536  26.083  24.535   9.150
 6121POPC   GL137537  26.041  24.511   8.850
 6121POPC   GL237538  25.992  24.391   8.850
 6121POPC   C1A37539  26.045  24.482   8.550
 6121POPC   D2A37540  26.037  24.487   8.250
 6121POPC   C3A37541  26.073  24.500   7.950
 6121POPC   C4A37542  26.018  24.450   7.650
 6121POPC   C1B37543  25.986  24.258   8.550
 6121POPC   C2B37544  25.964  24.254   8.250
 6121POPC   C3B37545  26.006  24.260   7.950
 6121POPC   C4B37546  25.975  24.214   7.650
 6122POPC   NC337547  23.748  40.044   9.450
 6122POPC   PO437548  23.700  40.034   9.150
 6122POPC   GL137549  23.741  39.971   8.850
 6122POPC   GL237550  23.628  40.076   8.850
 6122POPC   C1A37551  23.695  39.984   8.550
 6122POPC   D2A37552  23.714  40.019   8.250
 6122POPC   C3A37553  23.665  39.963   7.950
 6122POPC   C4A37554  23.669  39.975   7.650
 6122POPC   C1B37555  23.576  40.228   8.550
 6122POPC   C2B37556  23.585  40.246   8.250
 6122POPC   C3B37557  23.618  40.275   7.950
 6122POPC   C4B37558  23.551  40.268   7.650
 6123POPC   NC337559  36.886  14.444   9.450
 6123POPC   PO437560  36.857  14.366   9.150
 6123POPC   GL137561  36.870  14.436   8.850
 6123POPC   GL237562  36.925  14.533   8.850
 6123POPC   C1A37563  36.906  14.383   8.550
 6123POPC   D2A37564  36.879  14.374   8.250
 6123POPC   C3A37565  36.860  14.419   7.950
 6123POPC   C4A37566  36.935  14.383   7.650
 6123POPC   C1B37567  37.009  14.579   8.550
 6123POPC   C2B37568  36.981  14.593   8.250
 6123POPC   C3B37569  37.057  14.589   7.950
 6123POPC   C4B37570  37.007  14.643   7.650
 6124POPC   NC337571  32.201  26.792   9.450
 6124POPC   PO437572  32.293  26.788   9.150
 6124POPC   GL137573  32.229  26.831   8.850
 6124POPC   GL237574  32.282  26.974   8.850
 6124POPC   C1A37575  32.205  26.817   8.550
 6124POPC   D2A37576  32.282  26.813   8.250
 6124POPC   C3A37577  32.250  26.842   7.950
 6124POPC   C4A37578  32.226  26.862   7.650
 6124POPC   C1B37579  32.326  27.034   8.550
 6124POPC   C2B37580  32.332  27.086   8.250
 6124POPC   C3B37581  32.297  27.087   7.950
 6124POPC   C4B37582  32.297  27.084   7.650
 6125POPC   NC337583  44.653  32.277   9.450
 6125POPC   PO437584  44.698  32.279   9.150
 6125POPC   GL137585  44.682  32.293   8.850
 6125POPC   GL237586  44.625  32.134   8.850
 6125POPC   C1A37587  44.612  32.256   8.550
 6125POPC   D2A37588  44.703  32.293   8.250
 6125POPC   C3A37589  44.689  32.280   7.950
 6125POPC   C4A37590  44.663  32.298   7.650
 6125POPC   C1B37591  44.554  32.073   8.550
 6125POPC   C2B37592  44.581  31.990   8.250
 6125POPC   C3B37593  44.581  32.019   7.950
 6125POPC   C4B37594  44.567  32.031   7.650
 6126POPC   NC337595  32.269   9.772   9.450
 6126POPC   PO437596  32.269   9.787   9.150
 6126POPC   GL137597  32.214   9.709   8.850
 6126POPC   GL237598  32.257   9.659   8.850
 6126POPC   C1A37599  32.232   9.785   8.550
 6126POPC   D2A37600  32.265   9.728   8.250
 6126POPC   C3A37601  32.266   9.782   7.950
 6126POPC   C4A37602  32.257   9.734   7.650
 6126POPC   C1B37603  32.365   9.540   8.550
 6126POPC   C2B37604  32.382   9.537   8.250
 6126POPC   C3B37605  32.332   9.524   7.950
 6126POPC   C4B37606  32.354   9.528   7.650
 6127POPC   NC337607  13.583   4.286   9.450
 6127POPC   PO437608  13.593   4.363   9.150
 6127POPC   GL137609  13.621   4.350   8.850
 6127POPC   GL237610  13.777   4.300   8.850
 6127POPC   C1A37611  13.585   4.325   8.550
 6127POPC   D2A37612  13.584   4.360   8.250
 6127POPC   C3A37613  13.642   4.268   7.950
 6127POPC   C4A37614  13.603   4.275   7.650
 6127POPC   C1B37615  13.831   4.264   8.550
 6127POPC   C2B37616  13.858   4.281   8.250
 6127POPC   C3B37617  13.881   4.309   7.950
 6127POPC   C4B37618  13.880   4.278   7.650
 6128POPC   NC337619  29.930  17.467   9.450
 6128POPC   PO437620  29.888  17.466   9.150
 6128POPC   GL137621  29.902  17.457   8.850
 6128POPC   GL237622  30.035  17.398   8.850
 6128POPC   C1A37623  29.938  17.537   8.550
 6128POPC   D2A37624  29.910  17.485   8.250
 6128POPC   C3A37625  29.905  17.535   7.950
 6128POPC   C4A37626  29.938  17.506   7.650
 6128POPC   C1B37627  30.110  17.331   8.550
 6128POPC   C2B37628  30.176  17.386   8.250
 6128POPC   C3B37629  30.106  17.358   7.950
 6128POPC   C4B37630  30.094  17.416   7.650
 6129POPC   NC337631  32.213  32.214   9.450
 6129POPC   PO437632  32.215  32.212   9.150
 6129POPC   GL137633  32.243  32.278   8.850
 6129POPC   GL237634  32.216  32.127   8.850
 6129POPC   C1A37635  32.217  32.293   8.550
 6129POPC   D2A37636  32.232  32.223   8.250
 6129POPC   C3A37637  32.285  32.217   7.950
 6129POPC   C4A37638  32.236  32.271   7.650
 6129POPC   C1B37639  32.153  32.020   8.550
 6129POPC   C2B37640  32.182  32.015   8.250
 6129POPC   C3B37641  32.124  31.988   7.950
 6129POPC   C4B37642  32.143  32.031   7.650
 6130POPC   NC337643  26.085  25.992   9.450
 6130POPC   PO437644  26.049  26.031   9.150
 6130POPC   GL137645  26.007  26.038   8.850
 6130POPC   GL237646  25.929  26.170   8.850
 6130POPC   C1A37647  26.057  26.012   8.550
 6130POPC   D2A37648  26.020  25.995   8.250
 6130POPC   C3A37649  26.072  26.024   7.950
 6130POPC   C4A37650  26.065  26.012   7.650
 6130POPC   C1B37651  25.831  26.237   8.550
 6130POPC   C2B37652  25.905  26.190   8.250
 6130POPC   C3B37653  25.817  26.188   7.950
 6130POPC   C4B37654  25.841  26.216   7.650
 6131POPC   NC337655  18.307  26.779   9.450
 6131POPC   PO437656  18.241  26.811   9.150
 6131POPC   GL137657  18.268  26.838   8.850
 6131POPC   GL237658  18.331  26.653   8.850
 6131POPC   C1A37659  18.239  26.792   8.550
 6131POPC   D2A37660  18.266  26.812   8.250
 6131POPC   C3A37661  18.259  26.775   7.950
 6131POPC   C4A37662  18.291  26.832   7.650
 6131POPC   C1B37663  18.357  26.572   8.550
 6131POPC   C2B37664  18.383  26.582   8.250
 6131POPC   C3B37665  18.362  26.529   7.950
 6131POPC   C4B37666  18.395  26.589   7.650
 6132POPC   NC337667  38.434   1.263   9.450
 6132POPC   PO437668  38.442   1.250   9.150
 6132POPC   GL137669  38.485   1.226   8.850
 6132POPC   GL237670  38.397   1.287   8.850
 6132POPC   C1A37671  38.500   1.235   8.550
 6132POPC   D2A37672  38.503   1.178   8.250
 6132POPC   C3A37673  38.478   1.257   7.950
 6132POPC   C4A37674  38.472   1.259   7.650
 6132POPC   C1B37675  38.282   1.354   8.550
 6132POPC   C2B37676  38.288   1.407   8.250
 6132POPC   C3B37677  38.252   1.407   7.950
 6132POPC   C4B37678  38.257   1.414   7.650
 6133POPC   NC337679  15.133  21.370   9.450
 6133POPC   PO437680  15.184  21.380   9.150
 6133POPC   GL137681  15.200  21.434   8.850
 6133POPC   GL237682  15.204  21.503   8.850
 6133POPC   C1A37683  15.165  21.357   8.550
 6133POPC   D2A37684  15.203  21.414   8.250
 6133POPC   C3A37685  15.176  21.418   7.950
 6133POPC   C4A37686  15.229  21.432   7.650
 6133POPC   C1B37687  15.267  21.637   8.550
 6133POPC   C2B37688  15.260  21.591   8.250
 6133POPC   C3B37689  15.196  21.641   7.950
 6133POPC   C4B37690  15.247  21.619   7.650
 6134POPC   NC337691  43.914  43.078   9.450
 6134POPC   PO437692  43.877  43.143   9.150
 6134POPC   GL137693  43.876  43.067   8.850
 6134POPC   GL237694  43.870  42.957   8.850
 6134POPC   C1A37695  43.840  43.137   8.550
 6134POPC   D2A37696  43.844  43.088   8.250
 6134POPC   C3A37697  43.850  43.157   7.950
 6134POPC   C4A37698  43.935  43.148   7.650
 6134POPC   C1B37699  43.824  42.882   8.550
 6134POPC   C2B37700  43.798  42.861   8.250
 6134POPC   C3B37701  43.828  42.851   7.950
 6134POPC   C4B37702  43.813  42.868   7.650
 6135POPC   NC337703  16.723   8.150   9.450
 6135POPC   PO437704  16.743   8.152   9.150
 6135POPC   GL137705  16.777   8.189   8.850
 6135POPC   GL237706  16.733   8.358   8.850
 6135POPC   C1A37707  16.780   8.194   8.550
 6135POPC   D2A37708  16.735   8.236   8.250
 6135POPC   C3A37709  16.683   8.197   7.950
 6135POPC   C4A37710  16.757   8.220   7.650
 6135POPC   C1B37711  16.651   8.444   8.550
 6135POPC   C2B37712  16.644   8.432   8.250
 6135POPC   C3B37713  16.669   8.412   7.950
 6135POPC   C4B37714  16.666   8.399   7.650
 6136POPC   NC337715   8.197  33.043   9.450
 6136POPC   PO437716   8.227  33.043   9.150
 6136POPC   GL137717   8.192  32.998   8.850
 6136POPC   GL237718   8.300  32.879   8.850
 6136POPC   C1A37719   8.203  33.016   8.550
 6136POPC   D2A37720   8.233  33.034   8.250
 6136POPC   C3A37721   8.196  33.031   7.950
 6136POPC   C4A37722   8.160  33.011   7.650
 6136POPC   C1B37723   8.334  32.781   8.550
 6136POPC   C2B37724   8.296  32.786   8.250
 6136POPC   C3B37725   8.340  32.780   7.950
 6136POPC   C4B37726   8.296  32.768   7.650
 6137POPC   NC337727  10.529  24.442   9.450
 6137POPC   PO437728  10.533  24.498   9.150
 6137POPC   GL137729  10.553  24.505   8.850
 6137POPC   GL237730  10.661  24.532   8.850
 6137POPC   C1A37731  10.526  24.444   8.550
 6137POPC   D2A37732  10.526  24.475   8.250
 6137POPC   C3A37733  10.549  24.528   7.950
 6137POPC   C4A37734  10.492  24.507   7.650
 6137POPC   C1B37735  10.735  24.678   8.550
 6137POPC   C2B37736  10.697  24.662   8.250
 6137POPC   C3B37737  10.681  24.651   7.950
 6137POPC   C4B37738  10.684  24.672   7.650
 6138POPC   NC337739  44.679   2.787   9.450
 6138POPC   PO437740  44.682   2.760   9.150
 6138POPC   GL137741  44.681   2.749   8.850
 6138POPC   GL237742  44.728   2.844   8.850
 6138POPC   C1A37743  44.698   2.764   8.550
 6138POPC   D2A37744  44.704   2.786   8.250
 6138POPC   C3A37745  44.625   2.772   7.950
 6138POPC   C4A37746  44.710   2.758   7.650
 6138POPC   C1B37747  44.700   3.020   8.550
 6138POPC   C2B37748  44.722   3.012   8.250
 6138POPC   C3B37749  44.773   2.966   7.950
 6138POPC   C4B37750  44.774   2.953   7.650
 6139POPC   NC337751   7.441  15.943   9.450
 6139POPC   PO437752   7.469  15.964   9.150
 6139POPC   GL137753   7.463  15.992   8.850
 6139POPC   GL237754   7.565  15.946   8.850
 6139POPC   C1A37755   7.376  15.997   8.550
 6139POPC   D2A37756   7.384  15.973   8.250
 6139POPC   C3A37757   7.444  15.953   7.950
 6139POPC   C4A37758   7.399  15.909   7.650
 6139POPC   C1B37759   7.684  15.972   8.550
 6139POPC   C2B37760   7.640  15.959   8.250
 6139POPC   C3B37761   7.655  15.916   7.950
 6139POPC   C4B37762   7.695  15.958   7.650
 6140POPC   NC337763   8.170  43.095   9.450
 6140POPC   PO437764   8.174  43.148   9.150
 6140POPC   GL137765   8.177  43.087   8.850
 6140POPC   GL237766   8.289  43.001   8.850
 6140POPC   C1A37767   8.201  43.068   8.550
 6140POPC   D2A37768   8.240  43.110   8.250
 6140POPC   C3A37769   8.234  43.141   7.950
 6140POPC   C4A37770   8.242  43.074   7.650
 6140POPC   C1B37771   8.297  42.876   8.550
 6140POPC   C2B37772   8.386  42.882   8.250
 6140POPC   C3B37773   8.371  42.875   7.950
 6140POPC   C4B37774   8.378  42.937   7.650
 6141POPC   NC337775  35.369  24.503   9.450
 6141POPC   PO437776  35.307  24.516   9.150
 6141POPC   GL137777  35.333  24.457   8.850
 6141POPC   GL237778  35.259  24.452   8.850
 6141POPC   C1A37779  35.341  24.456   8.550
 6141POPC   D2A37780  35.336  24.458   8.250
 6141POPC   C3A37781  35.370  24.520   7.950
 6141POPC   C4A37782  35.339  24.470   7.650
 6141POPC   C1B37783  35.095  24.402   8.550
 6141POPC   C2B37784  35.122  24.369   8.250
 6141POPC   C3B37785  35.159  24.398   7.950
 6141POPC   C4B37786  35.158  24.378   7.650
 6142POPC   NC337787  15.906  39.182   9.450
 6142POPC   PO437788  15.970  39.196   9.150
 6142POPC   GL137789  15.989  39.250   8.850
 6142POPC   GL237790  16.051  39.300   8.850
 6142POPC   C1A37791  15.955  39.208   8.550
 6142POPC   D2A37792  15.938  39.244   8.250
 6142POPC   C3A37793  15.972  39.181   7.950
 6142POPC   C4A37794  15.999  39.205   7.650
 6142POPC   C1B37795  16.189  39.392   8.550
 6142POPC   C2B37796  16.205  39.361   8.250
 6142POPC   C3B37797  16.145  39.327   7.950
 6142POPC   C4B37798  16.201  39.382   7.650
 6143POPC   NC337799  39.262  27.625   9.450
 6143POPC   PO437800  39.244  27.591   9.150
 6143POPC   GL137801  39.253  27.613   8.850
 6143POPC   GL237802  39.346  27.629   8.850
 6143POPC   C1A37803  39.189  27.630   8.550
 6143POPC   D2A37804  39.196  27.544   8.250
 6143POPC   C3A37805  39.183  27.595   7.950
 6143POPC   C4A37806  39.192  27.552   7.650
 6143POPC   C1B37807  39.471  27.695   8.550
 6143POPC   C2B37808  39.512  27.713   8.250
 6143POPC   C3B37809  39.478  27.629   7.950
 6143POPC   C4B37810  39.477  27.694   7.650
 6144POPC   NC337811   3.515  34.616   9.450
 6144POPC   PO437812   3.532  34.567   9.150
 6144POPC   GL137813   3.584  34.568   8.850
 6144POPC   GL237814   3.501  34.450   8.850
 6144POPC   C1A37815   3.540  34.527   8.550
 6144POPC   D2A37816   3.543  34.623   8.250
 6144POPC   C3A37817   3.538  34.537   7.950
 6144POPC   C4A37818   3.571  34.616   7.650
 6144POPC   C1B37819   3.373  34.337   8.550
 6144POPC   C2B37820   3.465  34.310   8.250
 6144POPC   C3B37821   3.376  34.361   7.950
 6144POPC   C4B37822   3.407  34.326   7.650
 6145POPC   NC337823  26.056  19.067   9.450
 6145POPC   PO437824  26.039  19.049   9.150
 6145POPC   GL137825  26.031  19.013   8.850
 6145POPC   GL237826  26.101  18.973   8.850
 6145POPC   C1A37827  26.069  19.022   8.550
 6145POPC   D2A37828  26.073  19.106   8.250
 6145POPC   C3A37829  26.045  19.037   7.950
 6145POPC   C4A37830  26.012  19.065   7.650
 6145POPC   C1B37831  26.090  18.862   8.550
 6145POPC   C2B37832  26.085  18.763   8.250
 6145POPC   C3B37833  26.074  18.792   7.950
 6145POPC   C4B37834  26.077  18.814   7.650
 6146POPC   NC337835  26.801  27.551   9.450
 6146POPC   PO437836  26.810  27.596   9.150
 6146POPC   GL137837  26.798  27.627   8.850
 6146POPC   GL237838  26.903  27.481   8.850
 6146POPC   C1A37839  26.814  27.599   8.550
 6146POPC   D2A37840  26.768  27.557   8.250
 6146POPC   C3A37841  26.791  27.577   7.950
 6146POPC   C4A37842  26.822  27.575   7.650
 6146POPC   C1B37843  27.042  27.469   8.550
 6146POPC   C2B37844  26.996  27.405   8.250
 6146POPC   C3B37845  27.027  27.467   7.950
 6146POPC   C4B37846  27.030  27.483   7.650
 6147POPC   NC337847   2.006  13.595   9.450
 6147POPC   PO437848   2.029  13.581   9.150
 6147POPC   GL137849   2.012  13.662   8.850
 6147POPC   GL237850   2.074  13.588   8.850
 6147POPC   C1A37851   2.011  13.652   8.550
 6147POPC   D2A37852   1.961  13.646   8.250
 6147POPC   C3A37853   1.954  13.613   7.950
 6147POPC   C4A37854   1.962  13.623   7.650
 6147POPC   C1B37855   2.145  13.438   8.550
 6147POPC   C2B37856   2.205  13.431   8.250
 6147POPC   C3B37857   2.213  13.511   7.950
 6147POPC   C4B37858   2.188  13.461   7.650
 6148POPC   NC337859  35.390   9.702   9.450
 6148POPC   PO437860  35.376   9.733   9.150
 6148POPC   GL137861  35.349   9.750   8.850
 6148POPC   GL237862  35.231   9.721   8.850
 6148POPC   C1A37863  35.308   9.775   8.550
 6148POPC   D2A37864  35.303   9.705   8.250
 6148POPC   C3A37865  35.324   9.788   7.950
 6148POPC   C4A37866  35.379   9.746   7.650
 6148POPC   C1B37867  35.155   9.729   8.550
 6148POPC   C2B37868  35.102   9.671   8.250
 6148POPC   C3B37869  35.140   9.707   7.950
 6148POPC   C4B37870  35.098   9.646   7.650
 6149POPC   NC337871  39.189   2.718   9.450
 6149POPC   PO437872  39.233   2.808   9.150
 6149POPC   GL137873  39.265   2.718   8.850
 6149POPC   GL237874  39.308   2.825   8.850
 6149POPC   C1A37875  39.279   2.786   8.550
 6149POPC   D2A37876  39.260   2.803   8.250
 6149POPC   C3A37877  39.189   2.755   7.950
 6149POPC   C4A37878  39.196   2.756   7.650
 6149POPC   C1B37879  39.314   2.954   8.550
 6149POPC   C2B37880  39.402   2.953   8.250
 6149POPC   C3B37881  39.406   3.017   7.950
 6149POPC   C4B37882  39.346   2.931   7.650
 6150POPC   NC337883  11.312  41.532   9.450
 6150POPC   PO437884  11.347  41.582   9.150
 6150POPC   GL137885  11.341  41.530   8.850
 6150POPC   GL237886  11.250  41.399   8.850
 6150POPC   C1A37887  11.328  41.521   8.550
 6150POPC   D2A37888  11.284  41.576   8.250
 6150POPC   C3A37889  11.290  41.537   7.950
 6150POPC   C4A37890  11.338  41.560   7.650
 6150POPC   C1B37891  11.198  41.308   8.550
 6150POPC   C2B37892  11.206  41.287   8.250
 6150POPC   C3B37893  11.171  41.315   7.950
 6150POPC   C4B37894  11.243  41.350   7.650
 6151POPC   NC337895  22.184  13.678   9.450
 6151POPC   PO437896  22.143  13.606   9.150
 6151POPC   GL137897  22.128  13.634   8.850
 6151POPC   GL237898  22.151  13.507   8.850
 6151POPC   C1A37899  22.139  13.621   8.550
 6151POPC   D2A37900  22.122  13.620   8.250
 6151POPC   C3A37901  22.184  13.621   7.950
 6151POPC   C4A37902  22.151  13.580   7.650
 6151POPC   C1B37903  22.128  13.409   8.550
 6151POPC   C2B37904  22.188  13.355   8.250
 6151POPC   C3B37905  22.156  13.423   7.950
 6151POPC   C4B37906  22.175  13.331   7.650
 6152POPC   NC337907  30.715   2.741   9.450
 6152POPC   PO437908  30.736   2.761   9.150
 6152POPC   GL137909  30.728   2.743   8.850
 6152POPC   GL237910  30.681   2.649   8.850
 6152POPC   C1A37911  30.703   2.768   8.550
 6152POPC   D2A37912  30.689   2.733   8.250
 6152POPC   C3A37913  30.742   2.742   7.950
 6152POPC   C4A37914  30.648   2.755   7.650
 6152POPC   C1B37915  30.624   2.515   8.550
 6152POPC   C2B37916  30.687   2.549   8.250
 6152POPC   C3B37917  30.667   2.541   7.950
 6152POPC   C4B37918  30.638   2.509   7.650
 6153POPC   NC337919  43.862   4.284   9.450
 6153POPC   PO437920  43.898   4.364   9.150
 6153POPC   GL137921  43.922   4.340   8.850
 6153POPC   GL237922  43.962   4.253   8.850
 6153POPC   C1A37923  43.872   4.277   8.550
 6153POPC   D2A37924  43.890   4.275   8.250
 6153POPC   C3A37925  43.842   4.344   7.950
 6153POPC   C4A37926  43.878   4.296   7.650
 6153POPC   C1B37927  44.072   4.148   8.550
 6153POPC   C2B37928  44.084   4.142   8.250
 6153POPC   C3B37929  44.086   4.117   7.950
 6153POPC   C4B37930  44.078   4.146   7.650
 6154POPC   NC337931   4.341  26.818   9.450
 6154POPC   PO437932   4.325  26.862   9.150
 6154POPC   GL137933   4.308  26.775   8.850
 6154POPC   GL237934   4.185  26.803   8.850
 6154POPC   C1A37935   4.364  26.796   8.550
 6154POPC   D2A37936   4.336  26.801   8.250
 6154POPC   C3A37937   4.357  26.772   7.950
 6154POPC   C4A37938   4.286  26.800   7.650
 6154POPC   C1B37939   4.117  26.839   8.550
 6154POPC   C2B37940   4.066  26.908   8.250
 6154POPC   C3B37941   4.033  26.902   7.950
 6154POPC   C4B37942   4.055  26.909   7.650
 6155POPC   NC337943  16.747  12.058   9.450
 6155POPC   PO437944  16.714  12.048   9.150
 6155POPC   GL137945  16.726  12.033   8.850
 6155POPC   GL237946  16.578  11.981   8.850
 6155POPC   C1A37947  16.697  12.119   8.550
 6155POPC   D2A37948  16.776  12.109   8.250
 6155POPC   C3A37949  16.764  12.030   7.950
 6155POPC   C4A37950  16.690  12.069   7.650
 6155POPC   C1B37951  16.554  11.888   8.550
 6155POPC   C2B37952  16.532  11.931   8.250
 6155POPC   C3B37953  16.476  11.890   7.950
 6155POPC   C4B37954  16.532  11.886   7.650
 6156POPC   NC337955  43.136  30.678   9.450
 6156POPC   PO437956  43.087  30.662   9.150
 6156POPC   GL137957  43.134  30.660   8.850
 6156POPC   GL237958  42.962  30.644   8.850
 6156POPC   C1A37959  43.086  30.744   8.550
 6156POPC   D2A37960  43.083  30.742   8.250
 6156POPC   C3A37961  43.093  30.659   7.950
 6156POPC   C4A37962  43.128  30.706   7.650
 6156POPC   C1B37963  42.907  30.640   8.550
 6156POPC   C2B37964  42.887  30.638   8.250
 6156POPC   C3B37965  42.886  30.690   7.950
 6156POPC   C4B37966  42.886  30.635   7.650
 6157POPC   NC337967   5.047  44.670   9.450
 6157POPC   PO437968   5.066  44.695   9.150
 6157POPC   GL137969   5.134  44.634   8.850
 6157POPC   GL237970   4.965  44.595   8.850
 6157POPC   C1A37971   5.111  44.707   8.550
 6157POPC   D2A37972   5.044  44.693   8.250
 6157POPC   C3A37973   5.077  44.658   7.950
 6157POPC   C4A37974   5.121  44.664   7.650
 6157POPC   C1B37975   4.840  44.630   8.550
 6157POPC   C2B37976   4.819  44.644   8.250
 6157POPC   C3B37977   4.840  44.629   7.950
 6157POPC   C4B37978   4.841  44.568   7.650
 6158POPC   NC337979  30.715  11.347   9.450
 6158POPC   PO437980  30.730  11.331   9.150
 6158POPC   GL137981  30.692  11.322   8.850
 6158POPC   GL237982  30.727  11.426   8.850
 6158POPC   C1A37983  30.728  11.302   8.550
 6158POPC   D2A37984  30.738  11.287   8.250
 6158POPC   C3A37985  30.725  11.340   7.950
 6158POPC   C4A37986  30.674  11.298   7.650
 6158POPC   C1B37987  30.833  11.502   8.550
 6158POPC   C2B37988  30.798  11.486   8.250
 6158POPC   C3B37989  30.822  11.574   7.950
 6158POPC   C4B37990  30.792  11.547   7.650
 6159POPC   NC337991  17.476  12.853   9.450
 6159POPC   PO437992  17.511  12.883   9.150
 6159POPC   GL137993  17.459  12.820   8.850
 6159POPC   GL237994  17.483  12.704   8.850
 6159POPC   C1A37995  17.485  12.858   8.550
 6159POPC   D2A37996  17.550  12.842   8.250
 6159POPC   C3A37997  17.479  12.810   7.950
 6159POPC   C4A37998  17.486  12.899   7.650
 6159POPC   C1B37999  17.533  12.649   8.550
 6159POPC   C2B38000  17.492  12.649   8.250
 6159POPC   C3B38001  17.525  12.615   7.950
 6159POPC   C4B38002  17.566  12.642   7.650
 6160POPC   NC338003  33.835  30.694   9.450
 6160POPC   PO438004  33.768  30.667   9.150
 6160POPC   GL138005  33.767  30.704   8.850
 6160POPC   GL238006  33.910  30.803   8.850
 6160POPC   C1A38007  33.791  30.704   8.550
 6160POPC   D2A38008  33.826  30.722   8.250
 6160POPC   C3A38009  33.779  30.731   7.950
 6160POPC   C4A38010  33.788  30.677   7.650
 6160POPC   C1B38011  33.970  30.884   8.550
 6160POPC   C2B38012  33.939  30.889   8.250
 6160POPC   C3B38013  33.942  30.890   7.950
 6160POPC   C4B38014  33.945  30.885   7.650
 6161POPC   NC338015  38.445  19.827   9.450
 6161POPC   PO438016  38.460  19.821   9.150
 6161POPC   GL138017  38.421  19.863   8.850
 6161POPC   GL238018  38.456  19.730   8.850
 6161POPC   C1A38019  38.429  19.811   8.550
 6161POPC   D2A38020  38.456  19.834   8.250
 6161POPC   C3A38021  38.469  19.849   7.950
 6161POPC   C4A38022  38.419  19.790   7.650
 6161POPC   C1B38023  38.467  19.620   8.550
 6161POPC   C2B38024  38.438  19.570   8.250
 6161POPC   C3B38025  38.406  19.573   7.950
 6161POPC   C4B38026  38.452  19.546   7.650
 6162POPC   NC338027  31.430   3.513   9.450
 6162POPC   PO438028  31.491   3.503   9.150
 6162POPC   GL138029  31.522   3.504   8.850
 6162POPC   GL238030  31.528   3.418   8.850
 6162POPC   C1A38031  31.485   3.576   8.550
 6162POPC   D2A38032  31.461   3.543   8.250
 6162POPC   C3A38033  31.488   3.548   7.950
 6162POPC   C4A38034  31.470   3.544   7.650
 6162POPC   C1B38035  31.497   3.335   8.550
 6162POPC   C2B38036  31.552   3.270   8.250
 6162POPC   C3B38037  31.513   3.293   7.950
 6162POPC   C4B38038  31.479   3.291   7.650
 6163POPC   NC338039  22.959  27.635   9.450
 6163POPC   PO438040  22.890  27.616   9.150
 6163POPC   GL138041  22.914  27.626   8.850
 6163POPC   GL238042  22.870  27.693   8.850
 6163POPC   C1A38043  22.905  27.599   8.550
 6163POPC   D2A38044  22.907  27.615   8.250
 6163POPC   C3A38045  22.909  27.554   7.950
 6163POPC   C4A38046  22.970  27.613   7.650
 6163POPC   C1B38047  22.890  27.829   8.550
 6163POPC   C2B38048  22.927  27.875   8.250
 6163POPC   C3B38049  22.912  27.810   7.950
 6163POPC   C4B38050  22.851  27.827   7.650
 6164POPC   NC338051  37.643   1.181   9.450
 6164POPC   PO438052  37.678   1.256   9.150
 6164POPC   GL138053  37.636   1.190   8.850
 6164POPC   GL238054  37.650   1.155   8.850
 6164POPC   C1A38055  37.685   1.254   8.550
 6164POPC   D2A38056  37.669   1.227   8.250
 6164POPC   C3A38057  37.706   1.191   7.950
 6164POPC   C4A38058  37.631   1.209   7.650
 6164POPC   C1B38059  37.556   0.986   8.550
 6164POPC   C2B38060  37.577   0.968   8.250
 6164POPC   C3B38061  37.514   1.012   7.950
 6164POPC   C4B38062  37.539   0.975   7.650
 6165POPC   NC338063  19.791   5.106   9.450
 6165POPC   PO438064  19.805   5.071   9.150
 6165POPC   GL138065  19.796   5.055   8.850
 6165POPC   GL238066  19.816   4.937   8.850
 6165POPC   C1A38067  19.790   5.063   8.550
 6165POPC   D2A38068  19.822   5.109   8.250
 6165POPC   C3A38069  19.861   5.085   7.950
 6165POPC   C4A38070  19.807   5.134   7.650
 6165POPC   C1B38071  19.848   4.805   8.550
 6165POPC   C2B38072  19.861   4.818   8.250
 6165POPC   C3B38073  19.823   4.797   7.950
 6165POPC   C4B38074  19.844   4.840   7.650
 6166POPC   NC338075  40.799  19.851   9.450
 6166POPC   PO438076  40.763  19.828   9.150
 6166POPC   GL138077  40.774  19.881   8.850
 6166POPC   GL238078  40.695  19.851   8.850
 6166POPC   C1A38079  40.803  19.808   8.550
 6166POPC   D2A38080  40.820  19.852   8.250
 6166POPC   C3A38081  40.822  19.875   7.950
 6166POPC   C4A38082  40.804  19.854   7.650
 6166POPC   C1B38083  40.578  19.719   8.550
 6166POPC   C2B38084  40.559  19.761   8.250
 6166POPC   C3B38085  40.519  19.760   7.950
 6166POPC   C4B38086  40.567  19.741   7.650
 6167POPC   NC338087   8.243  15.927   9.450
 6167POPC   PO438088   8.177  15.998   9.150
 6167POPC   GL138089   8.210  15.950   8.850
 6167POPC   GL238090   8.119  15.968   8.850
 6167POPC   C1A38091   8.231  15.959   8.550
 6167POPC   D2A38092   8.159  15.994   8.250
 6167POPC   C3A38093   8.209  15.919   7.950
 6167POPC   C4A38094   8.182  15.917   7.650
 6167POPC   C1B38095   7.907  15.984   8.550
 6167POPC   C2B38096   7.927  15.968   8.250
 6167POPC   C3B38097   7.987  15.985   7.950
 6167POPC   C4B38098   7.950  15.990   7.650
 6168POPC   NC338099  41.527   3.542   9.450
 6168POPC   PO438100  41.525   3.572   9.150
 6168POPC   GL138101  41.601   3.574   8.850
 6168POPC   GL238102  41.479   3.635   8.850
 6168POPC   C1A38103  41.528   3.514   8.550
 6168POPC   D2A38104  41.531   3.526   8.250
 6168POPC   C3A38105  41.608   3.504   7.950
 6168POPC   C4A38106  41.540   3.572   7.650
 6168POPC   C1B38107  41.301   3.686   8.550
 6168POPC   C2B38108  41.356   3.720   8.250
 6168POPC   C3B38109  41.370   3.719   7.950
 6168POPC   C4B38110  41.387   3.633   7.650
 6169POPC   NC338111  28.415   2.003   9.450
 6169POPC   PO438112  28.364   1.964   9.150
 6169POPC   GL138113  28.392   2.016   8.850
 6169POPC   GL238114  28.253   1.980   8.850
 6169POPC   C1A38115  28.355   1.975   8.550
 6169POPC   D2A38116  28.349   1.978   8.250
 6169POPC   C3A38117  28.412   1.959   7.950
 6169POPC   C4A38118  28.357   1.976   7.650
 6169POPC   C1B38119  28.162   1.887   8.550
 6169POPC   C2B38120  28.177   1.950   8.250
 6169POPC   C3B38121  28.173   1.884   7.950
 6169POPC   C4B38122  28.105   1.924   7.650
 6170POPC   NC338123  37.694  23.691   9.450
 6170POPC   PO438124  37.658  23.746   9.150
 6170POPC   GL138125  37.689  23.681   8.850
 6170POPC   GL238126  37.716  23.619   8.850
 6170POPC   C1A38127  37.701  23.758   8.550
 6170POPC   D2A38128  37.672  23.744   8.250
 6170POPC   C3A38129  37.689  23.687   7.950
 6170POPC   C4A38130  37.721  23.683   7.650
 6170POPC   C1B38131  37.729  23.461   8.550
 6170POPC   C2B38132  37.749  23.467   8.250
 6170POPC   C3B38133  37.681  23.481   7.950
 6170POPC   C4B38134  37.708  23.510   7.650
 6171POPC   NC338135  40.048  41.516   9.450
 6171POPC   PO438136  39.992  41.606   9.150
 6171POPC   GL138137  40.037  41.590   8.850
 6171POPC   GL238138  39.962  41.393   8.850
 6171POPC   C1A38139  40.014  41.517   8.550
 6171POPC   D2A38140  40.035  41.578   8.250
 6171POPC   C3A38141  40.019  41.598   7.950
 6171POPC   C4A38142  39.968  41.534   7.650
 6171POPC   C1B38143  40.007  41.296   8.550
 6171POPC   C2B38144  39.986  41.262   8.250
 6171POPC   C3B38145  39.996  41.342   7.950
 6171POPC   C4B38146  39.941  41.302   7.650
 6172POPC   NC338147  24.533  12.115   9.450
 6172POPC   PO438148  24.448  12.110   9.150
 6172POPC   GL138149  24.501  12.052   8.850
 6172POPC   GL238150  24.452  11.967   8.850
 6172POPC   C1A38151  24.453  12.047   8.550
 6172POPC   D2A38152  24.466  12.117   8.250
 6172POPC   C3A38153  24.452  12.100   7.950
 6172POPC   C4A38154  24.505  12.085   7.650
 6172POPC   C1B38155  24.382  11.877   8.550
 6172POPC   C2B38156  24.383  11.805   8.250
 6172POPC   C3B38157  24.449  11.879   7.950
 6172POPC   C4B38158  24.393  11.856   7.650
 6173POPC   NC338159  12.827   6.650   9.450
 6173POPC   PO438160  12.880   6.662   9.150
 6173POPC   GL138161  12.886   6.671   8.850
 6173POPC   GL238162  12.684   6.634   8.850
 6173POPC   C1A38163  12.860   6.599   8.550
 6173POPC   D2A38164  12.840   6.641   8.250
 6173POPC   C3A38165  12.897   6.611   7.950
 6173POPC   C4A38166  12.811   6.671   7.650
 6173POPC   C1B38167  12.564   6.692   8.550
 6173POPC   C2B38168  12.623   6.670   8.250
 6173POPC   C3B38169  12.565   6.683   7.950
 6173POPC   C4B38170  12.625   6.660   7.650
 6174POPC   NC338171   7.443  12.113   9.450
 6174POPC   PO438172   7.465  12.117   9.150
 6174POPC   GL138173   7.404  12.030   8.850
 6174POPC   GL238174   7.445  11.957   8.850
 6174POPC   C1A38175   7.443  12.082   8.550
 6174POPC   D2A38176   7.448  12.039   8.250
 6174POPC   C3A38177   7.384  12.121   7.950
 6174POPC   C4A38178   7.435  12.082   7.650
 6174POPC   C1B38179   7.473  11.778   8.550
 6174POPC   C2B38180   7.448  11.794   8.250
 6174POPC   C3B38181   7.377  11.787   7.950
 6174POPC   C4B38182   7.419  11.862   7.650
 6175POPC   NC338183  21.344   8.997   9.450
 6175POPC   PO438184  21.406   8.937   9.150
 6175POPC   GL138185  21.401   8.999   8.850
 6175POPC   GL238186  21.349   9.073   8.850
 6175POPC   C1A38187  21.366   8.949   8.550
 6175POPC   D2A38188  21.411   8.951   8.250
 6175POPC   C3A38189  21.396   9.014   7.950
 6175POPC   C4A38190  21.362   8.967   7.650
 6175POPC   C1B38191  21.313   9.175   8.550
 6175POPC   C2B38192  21.275   9.255   8.250
 6175POPC   C3B38193  21.258   9.175   7.950
 6175POPC   C4B38194  21.330   9.216   7.650
 6176POPC   NC338195  17.516  26.820   9.450
 6176POPC   PO438196  17.460  26.793   9.150
 6176POPC   GL138197  17.481  26.832   8.850
 6176POPC   GL238198  17.434  26.868   8.850
 6176POPC   C1A38199  17.533  26.775   8.550
 6176POPC   D2A38200  17.534  26.796   8.250
 6176POPC   C3A38201  17.544  26.798   7.950
 6176POPC   C4A38202  17.524  26.805   7.650
 6176POPC   C1B38203  17.297  27.013   8.550
 6176POPC   C2B38204  17.286  26.972   8.250
 6176POPC   C3B38205  17.367  26.988   7.950
 6176POPC   C4B38206  17.294  26.968   7.650
 6177POPC   NC338207  35.361  28.376   9.450
 6177POPC   PO438208  35.387  28.409   9.150
 6177POPC   GL138209  35.307  28.353   8.850
 6177POPC   GL238210  35.387  28.217   8.850
 6177POPC   C1A38211  35.303  28.346   8.550
 6177POPC   D2A38212  35.306  28.344   8.250
 6177POPC   C3A38213  35.314  28.417   7.950
 6177POPC   C4A38214  35.389  28.407   7.650
 6177POPC   C1B38215  35.302  28.078   8.550
 6177POPC   C2B38216  35.280  28.092   8.250
 6177POPC   C3B38217  35.340  28.148   7.950
 6177POPC   C4B38218  35.330  28.105   7.650
 6178POPC   NC338219  32.212  12.104   9.450
 6178POPC   PO438220  32.206  12.116   9.150
 6178POPC   GL138221  32.244  12.117   8.850
 6178POPC   GL238222  32.306  11.998   8.850
 6178POPC   C1A38223  32.265  12.085   8.550
 6178POPC   D2A38224  32.214  12.026   8.250
 6178POPC   C3A38225  32.292  12.061   7.950
 6178POPC   C4A38226  32.278  12.080   7.650
 6178POPC   C1B38227  32.459  11.931   8.550
 6178POPC   C2B38228  32.400  11.863   8.250
 6178POPC   C3B38229  32.434  11.936   7.950
 6178POPC   C4B38230  32.407  11.853   7.650
 6179POPC   NC338231  42.314   9.021   9.450
 6179POPC   PO438232  42.355   8.936   9.150
 6179POPC   GL138233  42.353   8.947   8.850
 6179POPC   GL238234  42.392   9.064   8.850
 6179POPC   C1A38235  42.303   9.022   8.550
 6179POPC   D2A38236  42.342   8.941   8.250
 6179POPC   C3A38237  42.358   8.985   7.950
 6179POPC   C4A38238  42.352   8.965   7.650
 6179POPC   C1B38239  42.541   9.105   8.550
 6179POPC   C2B38240  42.573   9.139   8.250
 6179POPC   C3B38241  42.576   9.106   7.950
 6179POPC   C4B38242  42.565   9.094   7.650
 6180POPC   NC338243  39.196  28.357   9.450
 6180POPC   PO438244  39.241  28.372   9.150
 6180POPC   GL138245  39.267  28.399   8.850
 6180POPC   GL238246  39.370  28.501   8.850
 6180POPC   C1A38247  39.252  28.354   8.550
 6180POPC   D2A38248  39.190  28.396   8.250
 6180POPC   C3A38249  39.189  28.343   7.950
 6180POPC   C4A38250  39.208  28.341   7.650
 6180POPC   C1B38251  39.411  28.575   8.550
 6180POPC   C2B38252  39.414  28.532   8.250
 6180POPC   C3B38253  39.414  28.586   7.950
 6180POPC   C4B38254  39.456  28.534   7.650
 6181POPC   NC338255  12.063  27.575   9.450
 6181POPC   PO438256  12.105  27.551   9.150
 6181POPC   GL138257  12.111  27.598   8.850
 6181POPC   GL238258  12.150  27.474   8.850
 6181POPC   C1A38259  12.034  27.607   8.550
 6181POPC   D2A38260  12.063  27.638   8.250
 6181POPC   C3A38261  12.084  27.572   7.950
 6181POPC   C4A38262  12.121  27.639   7.650
 6181POPC   C1B38263  12.187  27.420   8.550
 6181POPC   C2B38264  12.230  27.352   8.250
 6181POPC   C3B38265  12.169  27.347   7.950
 6181POPC   C4B38266  12.167  27.415   7.650
 6182POPC   NC338267  19.065   9.002   9.450
 6182POPC   PO438268  19.059   9.016   9.150
 6182POPC   GL138269  19.009   8.923   8.850
 6182POPC   GL238270  19.081   8.811   8.850
 6182POPC   C1A38271  19.073   8.942   8.550
 6182POPC   D2A38272  19.065   9.014   8.250
 6182POPC   C3A38273  19.069   8.941   7.950
 6182POPC   C4A38274  19.020   8.927   7.650
 6182POPC   C1B38275  19.135   8.751   8.550
 6182POPC   C2B38276  19.149   8.748   8.250
 6182POPC   C3B38277  19.061   8.680   7.950
 6182POPC   C4B38278  19.150   8.702   7.650
 6183POPC   NC338279  30.693  30.662   9.450
 6183POPC   PO438280  30.673  30.682   9.150
 6183POPC   GL138281  30.690  30.726   8.850
 6183POPC   GL238282  30.556  30.683   8.850
 6183POPC   C1A38283  30.703  30.680   8.550
 6183POPC   D2A38284  30.658  30.744   8.250
 6183POPC   C3A38285  30.672  30.677   7.950
 6183POPC   C4A38286  30.735  30.680   7.650
 6183POPC   C1B38287  30.415  30.769   8.550
 6183POPC   C2B38288  30.462  30.773   8.250
 6183POPC   C3B38289  30.456  30.780   7.950
 6183POPC   C4B38290  30.454  30.786   7.650
 6184POPC   NC338291  24.509  25.259   9.450
 6184POPC   PO438292  24.465  25.220   9.150
 6184POPC   GL138293  24.507  25.314   8.850
 6184POPC   GL238294  24.327  25.233   8.850
 6184POPC   C1A38295  24.523  25.224   8.550
 6184POPC   D2A38296  24.534  25.234   8.250
 6184POPC   C3A38297  24.444  25.251   7.950
 6184POPC   C4A38298  24.528  25.248   7.650
 6184POPC   C1B38299  24.197  25.226   8.550
 6184POPC   C2B38300  24.234  25.270   8.250
 6184POPC   C3B38301  24.217  25.275   7.950
 6184POPC   C4B38302  24.209  25.183   7.650
 6185POPC   NC338303   1.203  33.821   9.450
 6185POPC   PO438304   1.200  33.753   9.150
 6185POPC   GL138305   1.241  33.801   8.850
 6185POPC   GL238306   1.165  33.728   8.850
 6185POPC   C1A38307   1.199  33.810   8.550
 6185POPC   D2A38308   1.263  33.826   8.250
 6185POPC   C3A38309   1.228  33.823   7.950
 6185POPC   C4A38310   1.260  33.766   7.650
 6185POPC   C1B38311   1.012  33.681   8.550
 6185POPC   C2B38312   0.970  33.620   8.250
 6185POPC   C3B38313   1.047  33.690   7.950
 6185POPC   C4B38314   1.066  33.624   7.650
 6186POPC   NC338315  28.362  10.478   9.450
 6186POPC   PO438316  28.322  10.491   9.150
 6186POPC   GL138317  28.418  10.544   8.850
 6186POPC   GL238318  28.413  10.383   8.850
 6186POPC   C1A38319  28.359  10.509   8.550
 6186POPC   D2A38320  28.400  10.548   8.250
 6186POPC   C3A38321  28.377  10.500   7.950
 6186POPC   C4A38322  28.401  10.501   7.650
 6186POPC   C1B38323  28.428  10.328   8.550
 6186POPC   C2B38324  28.461  10.312   8.250
 6186POPC   C3B38325  28.476  10.334   7.950
 6186POPC   C4B38326  28.416  10.238   7.650
 6187POPC   NC338327  29.920  32.296   9.450
 6187POPC   PO438328  29.881  32.209   9.150
 6187POPC   GL138329  29.956  32.260   8.850
 6187POPC   GL238330  30.016  32.198   8.850
 6187POPC   C1A38331  29.940  32.260   8.550
 6187POPC   D2A38332  29.898  32.209   8.250
 6187POPC   C3A38333  29.901  32.280   7.950
 6187POPC   C4A38334  29.876  32.237   7.650
 6187POPC   C1B38335  30.117  32.047   8.550
 6187POPC   C2B38336  30.056  32.061   8.250
 6187POPC   C3B38337  30.128  32.067   7.950
 6187POPC   C4B38338  30.137  32.050   7.650
 6188POPC   NC338339  19.093  29.108   9.450
 6188POPC   PO438340  19.042  29.130   9.150
 6188POPC   GL138341  19.078  29.114   8.850
 6188POPC   GL238342  18.968  29.058   8.850
 6188POPC   C1A38343  19.094  29.097   8.550
 6188POPC   D2A38344  19.059  29.170   8.250
 6188POPC   C3A38345  19.073  29.120   7.950
 6188POPC   C4A38346  19.085  29.105   7.650
 6188POPC   C1B38347  18.877  29.005   8.550
 6188POPC   C2B38348  18.863  29.022   8.250
 6188POPC   C3B38349  18.813  28.996   7.950
 6188POPC   C4B38350  18.802  29.050   7.650
 6189POPC   NC338351   5.873   7.377   9.450
 6189POPC   PO438352   5.855   7.408   9.150
 6189POPC   GL138353   5.844   7.386   8.850
 6189POPC   GL238354   5.964   7.497   8.850
 6189POPC   C1A38355   5.917   7.380   8.550
 6189POPC   D2A38356   5.892   7.384   8.250
 6189POPC   C3A38357   5.913   7.427   7.950
 6189POPC   C4A38358   5.881   7.454   7.650
 6189POPC   C1B38359   6.102   7.509   8.550
 6189POPC   C2B38360   6.118   7.570   8.250
 6189POPC   C3B38361   6.068   7.546   7.950
 6189POPC   C4B38362   6.055   7.547   7.650
 6190POPC   NC338363  30.723  36.906   9.450
 6190POPC   PO438364  30.653  36.953   9.150
 6190POPC   GL138365  30.711  36.892   8.850
 6190POPC   GL238366  30.828  36.990   8.850
 6190POPC   C1A38367  30.720  36.896   8.550
 6190POPC   D2A38368  30.726  36.924   8.250
 6190POPC   C3A38369  30.743  36.908   7.950
 6190POPC   C4A38370  30.733  36.925   7.650
 6190POPC   C1B38371  30.885  37.007   8.550
 6190POPC   C2B38372  30.902  36.994   8.250
 6190POPC   C3B38373  30.941  37.020   7.950
 6190POPC   C4B38374  30.920  37.025   7.650
 6191POPC   NC338375  18.329  36.141   9.450
 6191POPC   PO438376  18.247  36.090   9.150
 6191POPC   GL138377  18.242  36.140   8.850
 6191POPC   GL238378  18.423  36.097   8.850
 6191POPC   C1A38379  18.280  36.152   8.550
 6191POPC   D2A38380  18.269  36.107   8.250
 6191POPC   C3A38381  18.285  36.145   7.950
 6191POPC   C4A38382  18.313  36.106   7.650
 6191POPC   C1B38383  18.481  36.035   8.550
 6191POPC   C2B38384  18.517  36.063   8.250
 6191POPC   C3B38385  18.495  36.072   7.950
 6191POPC   C4B38386  18.503  36.013   7.650
 6192POPC   NC338387   9.743  25.269   9.450
 6192POPC   PO438388   9.757  25.225   9.150
 6192POPC   GL138389   9.719  25.249   8.850
 6192POPC   GL238390   9.852  25.195   8.850
 6192POPC   C1A38391   9.780  25.293   8.550
 6192POPC   D2A38392   9.782  25.303   8.250
 6192POPC   C3A38393   9.791  25.237   7.950
 6192POPC   C4A38394   9.790  25.259   7.650
 6192POPC   C1B38395   9.983  25.200   8.550
 6192POPC   C2B38396   9.990  25.119   8.250
 6192POPC   C3B38397   9.935  25.201   7.950
 6192POPC   C4B38398   9.964  25.188   7.650
 6193POPC   NC338399  14.374  22.982   9.450
 6193POPC   PO438400  14.399  22.889   9.150
 6193POPC   GL138401  14.400  22.969   8.850
 6193POPC   GL238402  14.364  23.042   8.850
 6193POPC   C1A38403  14.427  22.980   8.550
 6193POPC   D2A38404  14.386  22.936   8.250
 6193POPC   C3A38405  14.414  22.964   7.950
 6193POPC   C4A38406  14.375  22.949   7.650
 6193POPC   C1B38407  14.305  23.170   8.550
 6193POPC   C2B38408  14.354  23.181   8.250
 6193POPC   C3B38409  14.311  23.151   7.950
 6193POPC   C4B38410  14.302  23.133   7.650
 6194POPC   NC338411  28.351  38.450   9.450
 6194POPC   PO438412  28.327  38.433   9.150
 6194POPC   GL138413  28.363  38.412   8.850
 6194POPC   GL238414  28.329  38.308   8.850
 6194POPC   C1A38415  28.352  38.433   8.550
 6194POPC   D2A38416  28.383  38.418   8.250
 6194POPC   C3A38417  28.387  38.437   7.950
 6194POPC   C4A38418  28.396  38.501   7.650
 6194POPC   C1B38419  28.341  38.179   8.550
 6194POPC   C2B38420  28.409  38.255   8.250
 6194POPC   C3B38421  28.379  38.224   7.950
 6194POPC   C4B38422  28.360  38.156   7.650
 6195POPC   NC338423  29.903  11.257   9.450
 6195POPC   PO438424  29.946  11.261   9.150
 6195POPC   GL138425  29.875  11.302   8.850
 6195POPC   GL238426  29.910  11.440   8.850
 6195POPC   C1A38427  29.883  11.299   8.550
 6195POPC   D2A38428  29.906  11.319   8.250
 6195POPC   C3A38429  29.938  11.297   7.950
 6195POPC   C4A38430  29.904  11.348   7.650
 6195POPC   C1B38431  29.929  11.579   8.550
 6195POPC   C2B38432  29.888  11.595   8.250
 6195POPC   C3B38433  29.932  11.511   7.950
 6195POPC   C4B38434  29.872  11.568   7.650
 6196POPC   NC338435   3.519  25.268   9.450
 6196POPC   PO438436   3.527  25.311   9.150
 6196POPC   GL138437   3.532  25.237   8.850
 6196POPC   GL238438   3.475  25.153   8.850
 6196POPC   C1A38439   3.523  25.255   8.550
 6196POPC   D2A38440   3.535  25.224   8.250
 6196POPC   C3A38441   3.523  25.246   7.950
 6196POPC   C4A38442   3.543  25.220   7.650
 6196POPC   C1B38443   3.370  25.128   8.550
 6196POPC   C2B38444   3.342  25.095   8.250
 6196POPC   C3B38445   3.306  25.078   7.950
 6196POPC   C4B38446   3.375  25.101   7.650
 6197POPC   NC338447  12.819   8.168   9.450
 6197POPC   PO438448  12.874   8.201   9.150
 6197POPC   GL138449  12.847   8.169   8.850
 6197POPC   GL238450  12.931   8.292   8.850
 6197POPC   C1A38451  12.890   8.175   8.550
 6197POPC   D2A38452  12.894   8.233   8.250
 6197POPC   C3A38453  12.828   8.171   7.950
 6197POPC   C4A38454  12.897   8.226   7.650
 6197POPC   C1B38455  12.928   8.421   8.550
 6197POPC   C2B38456  12.984   8.450   8.250
 6197POPC   C3B38457  12.935   8.422   7.950
 6197POPC   C4B38458  12.976   8.386   7.650
 6198POPC   NC338459  22.124  33.072   9.450
 6198POPC   PO438460  22.189  33.029   9.150
 6198POPC   GL138461  22.178  33.038   8.850
 6198POPC   GL238462  22.213  33.185   8.850
 6198POPC   C1A38463  22.165  33.030   8.550
 6198POPC   D2A38464  22.118  32.977   8.250
 6198POPC   C3A38465  22.182  33.059   7.950
 6198POPC   C4A38466  22.201  33.067   7.650
 6198POPC   C1B38467  22.261  33.220   8.550
 6198POPC   C2B38468  22.239  33.295   8.250
 6198POPC   C3B38469  22.233  33.241   7.950
 6198POPC   C4B38470  22.306  33.218   7.650
 6199POPC   NC338471  16.000  40.777   9.450
 6199POPC   PO438472  15.947  40.818   9.150
 6199POPC   GL138473  15.981  40.804   8.850
 6199POPC   GL238474  16.058  40.670   8.850
 6199POPC   C1A38475  15.993  40.785   8.550
 6199POPC   D2A38476  15.943  40.775   8.250
 6199POPC   C3A38477  15.996  40.773   7.950
 6199POPC   C4A38478  15.944  40.824   7.650
 6199POPC   C1B38479  16.113  40.573   8.550
 6199POPC   C2B38480  16.147  40.613   8.250
 6199POPC   C3B38481  16.122  40.588   7.950
 6199POPC   C4B38482  16.130  40.597   7.650
 6200POPC   NC338483  12.841  29.137   9.450
 6200POPC   PO438484  12.868  29.103   9.150
 6200POPC   GL138485  12.877  29.128   8.850
 6200POPC   GL238486  12.875  29.226   8.850
 6200POPC   C1A38487  12.884  29.103   8.550
 6200POPC   D2A38488  12.843  29.109   8.250
 6200POPC   C3A38489  12.878  29.119   7.950
 6200POPC   C4A38490  12.817  29.186   7.650
 6200POPC   C1B38491  12.904  29.345   8.550
 6200POPC   C2B38492  12.866  29.394   8.250
 6200POPC   C3B38493  12.863  29.409   7.950
 6200POPC   C4B38494  12.908  29.429   7.650
 6201POPC   NC338495  19.856  23.718   9.450
 6201POPC   PO438496  19.800  23.694   9.150
 6201POPC   GL138497  19.838  23.718   8.850
 6201POPC   GL238498  19.881  23.634   8.850
 6201POPC   C1A38499  19.864  23.688   8.550
 6201POPC   D2A38500  19.863  23.733   8.250
 6201POPC   C3A38501  19.842  23.738   7.950
 6201POPC   C4A38502  19.787  23.677   7.650
 6201POPC   C1B38503  19.848  23.503   8.550
 6201POPC   C2B38504  19.824  23.498   8.250
 6201POPC   C3B38505  19.828  23.435   7.950
 6201POPC   C4B38506  19.811  23.442   7.650
 6202POPC   NC338507  33.802  11.317   9.450
 6202POPC   PO438508  33.789  11.263   9.150
 6202POPC   GL138509  33.839  11.290   8.850
 6202POPC   GL238510  33.878  11.319   8.850
 6202POPC   C1A38511  33.798  11.341   8.550
 6202POPC   D2A38512  33.834  11.304   8.250
 6202POPC   C3A38513  33.850  11.297   7.950
 6202POPC   C4A38514  33.766  11.286   7.650
 6202POPC   C1B38515  34.094  11.352   8.550
 6202POPC   C2B38516  34.014  11.342   8.250
 6202POPC   C3B38517  34.069  11.292   7.950
 6202POPC   C4B38518  34.061  11.339   7.650
 6203POPC   NC338519  15.178   4.328   9.450
 6203POPC   PO438520  15.226   4.352   9.150
 6203POPC   GL138521  15.193   4.300   8.850
 6203POPC   GL238522  15.080   4.340   8.850
 6203POPC   C1A38523  15.148   4.319   8.550
 6203POPC   D2A38524  15.211   4.316   8.250
 6203POPC   C3A38525  15.187   4.364   7.950
 6203POPC   C4A38526  15.135   4.337   7.650
 6203POPC   C1B38527  14.908   4.372   8.550
 6203POPC   C2B38528  14.961   4.374   8.250
 6203POPC   C3B38529  14.972   4.320   7.950
 6203POPC   C4B38530  14.911   4.313   7.650
 6204POPC   NC338531   7.406  13.673   9.450
 6204POPC   PO438532   7.388  13.582   9.150
 6204POPC   GL138533   7.447  13.637   8.850
 6204POPC   GL238534   7.280  13.725   8.850
 6204POPC   C1A38535   7.445  13.597   8.550
 6204POPC   D2A38536   7.467  13.618   8.250
 6204POPC   C3A38537   7.461  13.596   7.950
 6204POPC   C4A38538   7.392  13.582   7.650
 6204POPC   C1B38539   7.168  13.772   8.550
 6204POPC   C2B38540   7.222  13.704   8.250
 6204POPC   C3B38541   7.183  13.771   7.950
 6204POPC   C4B38542   7.228  13.757   7.650
 6205POPC   NC338543  32.269   1.224   9.450
 6205POPC   PO438544  32.257   1.212   9.150
 6205POPC   GL138545  32.230   1.245   8.850
 6205POPC   GL238546  32.263   1.041   8.850
 6205POPC   C1A38547  32.257   1.242   8.550
 6205POPC   D2A38548  32.263   1.199   8.250
 6205POPC   C3A38549  32.270   1.243   7.950
 6205POPC   C4A38550  32.279   1.199   7.650
 6205POPC   C1B38551  32.261   0.920   8.550
 6205POPC   C2B38552  32.318   0.948   8.250
 6205POPC   C3B38553  32.329   0.996   7.950
 6205POPC   C4B38554  32.294   0.934   7.650
 6206POPC   NC338555  20.656  25.242   9.450
 6206POPC   PO438556  20.656  25.303   9.150
 6206POPC   GL138557  20.596  25.256   8.850
 6206POPC   GL238558  20.688  25.270   8.850
 6206POPC   C1A38559  20.570  25.305   8.550
 6206POPC   D2A38560  20.641  25.302   8.250
 6206POPC   C3A38561  20.612  25.223   7.950
 6206POPC   C4A38562  20.619  25.270   7.650
 6206POPC   C1B38563  20.844  25.231   8.550
 6206POPC   C2B38564  20.862  25.288   8.250
 6206POPC   C3B38565  20.816  25.222   7.950
 6206POPC   C4B38566  20.821  25.264   7.650
 6207POPC   NC338567  31.454   4.297   9.450
 6207POPC   PO438568  31.469   4.364   9.150
 6207POPC   GL138569  31.479   4.339   8.850
 6207POPC   GL238570  31.302   4.349   8.850
 6207POPC   C1A38571  31.457   4.343   8.550
 6207POPC   D2A38572  31.424   4.271   8.250
 6207POPC   C3A38573  31.511   4.352   7.950
 6207POPC   C4A38574  31.482   4.275   7.650
 6207POPC   C1B38575  31.223   4.254   8.550
 6207POPC   C2B38576  31.187   4.245   8.250
 6207POPC   C3B38577  31.237   4.286   7.950
 6207POPC   C4B38578  31.235   4.275   7.650
 6208POPC   NC338579  24.517   5.116   9.450
 6208POPC   PO438580  24.471   5.053   9.150
 6208POPC   GL138581  24.455   5.045   8.850
 6208POPC   GL238582  24.382   5.087   8.850
 6208POPC   C1A38583  24.492   5.061   8.550
 6208POPC   D2A38584  24.517   5.120   8.250
 6208POPC   C3A38585  24.471   5.138   7.950
 6208POPC   C4A38586  24.470   5.120   7.650
 6208POPC   C1B38587  24.193   5.172   8.550
 6208POPC   C2B38588  24.277   5.133   8.250
 6208POPC   C3B38589  24.220   5.146   7.950
 6208POPC   C4B38590  24.220   5.089   7.650
 6209POPC   NC338591  15.977  31.483   9.450
 6209POPC   PO438592  15.982  31.508   9.150
 6209POPC   GL138593  16.003  31.442   8.850
 6209POPC   GL238594  15.869  31.552   8.850
 6209POPC   C1A38595  15.919  31.449   8.550
 6209POPC   D2A38596  15.960  31.491   8.250
 6209POPC   C3A38597  15.949  31.488   7.950
 6209POPC   C4A38598  15.927  31.516   7.650
 6209POPC   C1B38599  15.703  31.587   8.550
 6209POPC   C2B38600  15.754  31.560   8.250
 6209POPC   C3B38601  15.776  31.565   7.950
 6209POPC   C4B38602  15.755  31.629   7.650
 6210POPC   NC338603  13.638   0.421   9.450
 6210POPC   PO438604  13.617   0.438   9.150
 6210POPC   GL138605  13.665   0.409   8.850
 6210POPC   GL238606  13.760   0.348   8.850
 6210POPC   C1A38607  13.612   0.394   8.550
 6210POPC   D2A38608  13.609   0.471   8.250
 6210POPC   C3A38609  13.583   0.414   7.950
 6210POPC   C4A38610  13.611   0.470   7.650
 6210POPC   C1B38611  13.809   0.360   8.550
 6210POPC   C2B38612  13.884   0.377   8.250
 6210POPC   C3B38613  13.809   0.322   7.950
 6210POPC   C4B38614  13.861   0.323   7.650
 6211POPC   NC338615  33.038  41.598   9.450
 6211POPC   PO438616  32.983  41.524   9.150
 6211POPC   GL138617  33.054  41.523   8.850
 6211POPC   GL238618  33.027  41.685   8.850
 6211POPC   C1A38619  33.008  41.548   8.550
 6211POPC   D2A38620  33.023  41.578   8.250
 6211POPC   C3A38621  33.024  41.594   7.950
 6211POPC   C4A38622  33.027  41.521   7.650
 6211POPC   C1B38623  33.109  41.790   8.550
 6211POPC   C2B38624  33.019  41.811   8.250
 6211POPC   C3B38625  33.061  41.799   7.950
 6211POPC   C4B38626  33.114  41.775   7.650
 6212POPC   NC338627  26.773  41.582   9.450
 6212POPC   PO438628  26.837  41.544   9.150
 6212POPC   GL138629  26.855  41.564   8.850
 6212POPC   GL238630  26.689  41.540   8.850
 6212POPC   C1A38631  26.788  41.577   8.550
 6212POPC   D2A38632  26.809  41.573   8.250
 6212POPC   C3A38633  26.774  41.513   7.950
 6212POPC   C4A38634  26.823  41.534   7.650
 6212POPC   C1B38635  26.593  41.378   8.550
 6212POPC   C2B38636  26.557  41.461   8.250
 6212POPC   C3B38637  26.598  41.391   7.950
 6212POPC   C4B38638  26.593  41.463   7.650
 6213POPC   NC338639  22.913  26.019   9.450
 6213POPC   PO438640  22.905  26.036   9.150
 6213POPC   GL138641  22.889  26.037   8.850
 6213POPC   GL238642  22.899  25.963   8.850
 6213POPC   C1A38643  22.919  26.010   8.550
 6213POPC   D2A38644  22.977  26.020   8.250
 6213POPC   C3A38645  22.962  26.008   7.950
 6213POPC   C4A38646  22.969  26.082   7.650
 6213POPC   C1B38647  22.842  25.820   8.550
 6213POPC   C2B38648  22.796  25.854   8.250
 6213POPC   C3B38649  22.853  25.816   7.950
 6213POPC   C4B38650  22.844  25.860   7.650
 6214POPC   NC338651  44.662  28.367   9.450
 6214POPC   PO438652  44.679  28.381   9.150
 6214POPC   GL138653  44.625  28.369   8.850
 6214POPC   GL238654  44.580  28.407   8.850
 6214POPC   C1A38655  44.637  28.381   8.550
 6214POPC   D2A38656  44.662  28.412   8.250
 6214POPC   C3A38657  44.650  28.387   7.950
 6214POPC   C4A38658  44.682  28.411   7.650
 6214POPC   C1B38659  44.376  28.390   8.550
 6214POPC   C2B38660  44.423  28.437   8.250
 6214POPC   C3B38661  44.375  28.395   7.950
 6214POPC   C4B38662  44.415  28.404   7.650
 6215POPC   NC338663  26.017  40.750   9.450
 6215POPC   PO438664  26.052  40.733   9.150
 6215POPC   GL138665  26.065  40.817   8.850
 6215POPC   GL238666  25.991  40.916   8.850
 6215POPC   C1A38667  26.063  40.757   8.550
 6215POPC   D2A38668  26.052  40.769   8.250
 6215POPC   C3A38669  26.091  40.792   7.950
 6215POPC   C4A38670  26.037  40.771   7.650
 6215POPC   C1B38671  25.926  40.965   8.550
 6215POPC   C2B38672  25.855  41.008   8.250
 6215POPC   C3B38673  25.891  40.937   7.950
 6215POPC   C4B38674  25.871  40.930   7.650
 6216POPC   NC338675  22.191  18.236   9.450
 6216POPC   PO438676  22.170  18.304   9.150
 6216POPC   GL138677  22.135  18.233   8.850
 6216POPC   GL238678  22.244  18.246   8.850
 6216POPC   C1A38679  22.184  18.240   8.550
 6216POPC   D2A38680  22.137  18.258   8.250
 6216POPC   C3A38681  22.195  18.251   7.950
 6216POPC   C4A38682  22.129  18.273   7.650
 6216POPC   C1B38683  22.424  18.302   8.550
 6216POPC   C2B38684  22.437  18.268   8.250
 6216POPC   C3B38685  22.428  18.232   7.950
 6216POPC   C4B38686  22.375  18.291   7.650
 6217POPC   NC338687  23.739   1.205   9.450
 6217POPC   PO438688  23.684   1.237   9.150
 6217POPC   GL138689  23.729   1.249   8.850
 6217POPC   GL238690  23.771   1.347   8.850
 6217POPC   C1A38691  23.675   1.243   8.550
 6217POPC   D2A38692  23.703   1.192   8.250
 6217POPC   C3A38693  23.704   1.206   7.950
 6217POPC   C4A38694  23.745   1.192   7.650
 6217POPC   C1B38695  23.879   1.417   8.550
 6217POPC   C2B38696  23.824   1.439   8.250
 6217POPC   C3B38697  23.863   1.475   7.950
 6217POPC   C4B38698  23.837   1.461   7.650
 6218POPC   NC338699  22.981  19.812   9.450
 6218POPC   PO438700  22.953  19.810   9.150
 6218POPC   GL138701  22.978  19.808   8.850
 6218POPC   GL238702  22.849  19.903   8.850
 6218POPC   C1A38703  22.946  19.850   8.550
 6218POPC   D2A38704  22.954  19.840   8.250
 6218POPC   C3A38705  22.945  19.843   7.950
 6218POPC   C4A38706  22.910  19.848   7.650
 6218POPC   C1B38707  22.734  19.895   8.550
 6218POPC   C2B38708  22.738  19.924   8.250
 6218POPC   C3B38709  22.712  19.935   7.950
 6218POPC   C4B38710  22.748  19.987   7.650
 6219POPC   NC338711  41.559  42.294   9.450
 6219POPC   PO438712  41.515  42.359   9.150
 6219POPC   GL138713  41.564  42.301   8.850
 6219POPC   GL238714  41.531  42.234   8.850
 6219POPC   C1A38715  41.550  42.323   8.550
 6219POPC   D2A38716  41.592  42.383   8.250
 6219POPC   C3A38717  41.590  42.372   7.950
 6219POPC   C4A38718  41.571  42.334   7.650
 6219POPC   C1B38719  41.489  42.142   8.550
 6219POPC   C2B38720  41.473  42.092   8.250
 6219POPC   C3B38721  41.512  42.064   7.950
 6219POPC   C4B38722  41.470  42.114   7.650
 6220POPC   NC338723  20.576  16.740   9.450
 6220POPC   PO438724  20.600  16.777   9.150
 6220POPC   GL138725  20.627  16.759   8.850
 6220POPC   GL238726  20.496  16.806   8.850
 6220POPC   C1A38727  20.604  16.751   8.550
 6220POPC   D2A38728  20.646  16.716   8.250
 6220POPC   C3A38729  20.591  16.707   7.950
 6220POPC   C4A38730  20.650  16.689   7.650
 6220POPC   C1B38731  20.465  16.905   8.550
 6220POPC   C2B38732  20.528  16.962   8.250
 6220POPC   C3B38733  20.465  16.938   7.950
 6220POPC   C4B38734  20.498  16.929   7.650
 6221POPC   NC338735  43.099   5.839   9.450
 6221POPC   PO438736  43.154   5.914   9.150
 6221POPC   GL138737  43.154   5.872   8.850
 6221POPC   GL238738  43.008   5.875   8.850
 6221POPC   C1A38739  43.126   5.893   8.550
 6221POPC   D2A38740  43.094   5.820   8.250
 6221POPC   C3A38741  43.127   5.825   7.950
 6221POPC   C4A38742  43.117   5.877   7.650
 6221POPC   C1B38743  42.933   5.957   8.550
 6221POPC   C2B38744  42.932   5.998   8.250
 6221POPC   C3B38745  42.854   6.002   7.950
 6221POPC   C4B38746  42.916   6.003   7.650
 6222POPC   NC338747  17.495   1.950   9.450
 6222POPC   PO438748  17.490   1.973   9.150
 6222POPC   GL138749  17.526   1.989   8.850
 6222POPC   GL238750  17.400   2.007   8.850
 6222POPC   C1A38751  17.475   1.999   8.550
 6222POPC   D2A38752  17.484   1.972   8.250
 6222POPC   C3A38753  17.549   1.968   7.950
 6222POPC   C4A38754  17.501   1.999   7.650
 6222POPC   C1B38755  17.300   1.984   8.550
 6222POPC   C2B38756  17.291   2.031   8.250
 6222POPC   C3B38757  17.306   2.008   7.950
 6222POPC   C4B38758  17.307   2.004   7.650
 6223POPC   NC338759  41.525  19.017   9.450
 6223POPC   PO438760  41.592  19.097   9.150
 6223POPC   GL138761  41.596  19.039   8.850
 6223POPC   GL238762  41.565  18.905   8.850
 6223POPC   C1A38763  41.525  19.019   8.550
 6223POPC   D2A38764  41.509  19.097   8.250
 6223POPC   C3A38765  41.556  19.067   7.950
 6223POPC   C4A38766  41.537  19.086   7.650
 6223POPC   C1B38767  41.546  18.825   8.550
 6223POPC   C2B38768  41.587  18.768   8.250
 6223POPC   C3B38769  41.571  18.762   7.950
 6223POPC   C4B38770  41.545  18.769   7.650
 6224POPC   NC338771  16.714  22.157   9.450
 6224POPC   PO438772  16.756  22.146   9.150
 6224POPC   GL138773  16.756  22.207   8.850
 6224POPC   GL238774  16.728  22.064   8.850
 6224POPC   C1A38775  16.707  22.118   8.550
 6224POPC   D2A38776  16.761  22.187   8.250
 6224POPC   C3A38777  16.713  22.128   7.950
 6224POPC   C4A38778  16.763  22.196   7.650
 6224POPC   C1B38779  16.806  21.870   8.550
 6224POPC   C2B38780  16.754  21.964   8.250
 6224POPC   C3B38781  16.806  21.868   7.950
 6224POPC   C4B38782  16.771  21.913   7.650
 6225POPC   NC338783   0.435  35.322   9.450
 6225POPC   PO438784   0.484  35.393   9.150
 6225POPC   GL138785   0.486  35.334   8.850
 6225POPC   GL238786   0.303  35.302   8.850
 6225POPC   C1A38787   0.435  35.365   8.550
 6225POPC   D2A38788   0.488  35.305   8.250
 6225POPC   C3A38789   0.463  35.302   7.950
 6225POPC   C4A38790   0.398  35.353   7.650
 6225POPC   C1B38791   0.203  35.207   8.550
 6225POPC   C2B38792   0.261  35.178   8.250
 6225POPC   C3B38793   0.242  35.246   7.950
 6225POPC   C4B38794   0.284  35.219   7.650
 6226POPC   NC338795  16.002  15.955   9.450
 6226POPC   PO438796  15.982  15.913   9.150
 6226POPC   GL138797  15.935  15.940   8.850
 6226POPC   GL238798  15.932  15.878   8.850
 6226POPC   C1A38799  15.987  15.937   8.550
 6226POPC   D2A38800  15.949  15.939   8.250
 6226POPC   C3A38801  15.971  15.977   7.950
 6226POPC   C4A38802  15.998  15.953   7.650
 6226POPC   C1B38803  15.904  15.676   8.550
 6226POPC   C2B38804  15.854  15.738   8.250
 6226POPC   C3B38805  15.885  15.721   7.950
 6226POPC   C4B38806  15.830  15.700   7.650
 6227POPC   NC338807  19.878  43.140   9.450
 6227POPC   PO438808  19.861  43.102   9.150
 6227POPC   GL138809  19.810  43.133   8.850
 6227POPC   GL238810  19.999  43.193   8.850
 6227POPC   C1A38811  19.815  43.105   8.550
 6227POPC   D2A38812  19.861  43.096   8.250
 6227POPC   C3A38813  19.811  43.063   7.950
 6227POPC   C4A38814  19.826  43.084   7.650
 6227POPC   C1B38815  20.090  43.184   8.550
 6227POPC   C2B38816  20.061  43.213   8.250
 6227POPC   C3B38817  20.047  43.220   7.950
 6227POPC   C4B38818  20.071  43.149   7.650
 6228POPC   NC338819   2.777   7.391   9.450
 6228POPC   PO438820   2.739   7.421   9.150
 6228POPC   GL138821   2.804   7.410   8.850
 6228POPC   GL238822   2.855   7.356   8.850
 6228POPC   C1A38823   2.774   7.378   8.550
 6228POPC   D2A38824   2.721   7.467   8.250
 6228POPC   C3A38825   2.747   7.452   7.950
 6228POPC   C4A38826   2.775   7.469   7.650
 6228POPC   C1B38827   2.891   7.186   8.550
 6228POPC   C2B38828   2.866   7.178   8.250
 6228POPC   C3B38829   2.932   7.234   7.950
 6228POPC   C4B38830   2.905   7.190   7.650
 6229POPC   NC338831  24.507  22.136   9.450
 6229POPC   PO438832  24.506  22.181   9.150
 6229POPC   GL138833  24.484  22.206   8.850
 6229POPC   GL238834  24.641  22.164   8.850
 6229POPC   C1A38835  24.462  22.154   8.550
 6229POPC   D2A38836  24.486  22.115   8.250
 6229POPC   C3A38837  24.491  22.121   7.950
 6229POPC   C4A38838  24.466  22.123   7.650
 6229POPC   C1B38839  24.766  22.224   8.550
 6229POPC   C2B38840  24.710  22.285   8.250
 6229POPC   C3B38841  24.717  22.263   7.950
 6229POPC   C4B38842  24.767  22.271   7.650
 6230POPC   NC338843   3.563  24.442   9.450
 6230POPC   PO438844   3.522  24.477   9.150
 6230POPC   GL138845   3.526  24.453   8.850
 6230POPC   GL238846   3.644  24.421   8.850
 6230POPC   C1A38847   3.541  24.503   8.550
 6230POPC   D2A38848   3.537  24.499   8.250
 6230POPC   C3A38849   3.588  24.446   7.950
 6230POPC   C4A38850   3.507  24.488   7.650
 6230POPC   C1B38851   3.664  24.271   8.550
 6230POPC   C2B38852   3.669  24.279   8.250
 6230POPC   C3B38853   3.720  24.245   7.950
 6230POPC   C4B38854   3.724  24.316   7.650
 6231POPC   NC338855  33.753   4.301   9.450
 6231POPC   PO438856  33.803   4.358   9.150
 6231POPC   GL138857  33.841   4.366   8.850
 6231POPC   GL238858  33.710   4.245   8.850
 6231POPC   C1A38859  33.804   4.314   8.550
 6231POPC   D2A38860  33.791   4.332   8.250
 6231POPC   C3A38861  33.784   4.324   7.950
 6231POPC   C4A38862  33.752   4.278   7.650
 6231POPC   C1B38863  33.576   4.191   8.550
 6231POPC   C2B38864  33.626   4.145   8.250
 6231POPC   C3B38865  33.605   4.197   7.950
 6231POPC   C4B38866  33.620   4.174   7.650
 6232POPC   NC338867  32.991  25.245   9.450
 6232POPC   PO438868  33.022  25.231   9.150
 6232POPC   GL138869  33.011  25.271   8.850
 6232POPC   GL238870  32.907  25.264   8.850
 6232POPC   C1A38871  33.011  25.243   8.550
 6232POPC   D2A38872  32.982  25.239   8.250
 6232POPC   C3A38873  33.036  25.264   7.950
 6232POPC   C4A38874  33.036  25.221   7.650
 6232POPC   C1B38875  32.761  25.230   8.550
 6232POPC   C2B38876  32.756  25.255   8.250
 6232POPC   C3B38877  32.736  25.227   7.950
 6232POPC   C4B38878  32.777  25.249   7.650
 6233POPC   NC338879   6.630  39.238   9.450
 6233POPC   PO438880   6.630  39.258   9.150
 6233POPC   GL138881   6.625  39.246   8.850
 6233POPC   GL238882   6.716  39.204   8.850
 6233POPC   C1A38883   6.597  39.277   8.550
 6233POPC   D2A38884   6.636  39.183   8.250
 6233POPC   C3A38885   6.647  39.256   7.950
 6233POPC   C4A38886   6.652  39.273   7.650
 6233POPC   C1B38887   6.882  39.085   8.550
 6233POPC   C2B38888   6.869  39.115   8.250
 6233POPC   C3B38889   6.886  39.107   7.950
 6233POPC   C4B38890   6.880  39.162   7.650
 6234POPC   NC338891  43.873  44.647   9.450
 6234POPC   PO438892  43.844  44.655   9.150
 6234POPC   GL138893  43.871  44.682   8.850
 6234POPC   GL238894  43.922  44.731   8.850
 6234POPC   C1A38895  43.922  44.645   8.550
 6234POPC   D2A38896  43.837  44.695   8.250
 6234POPC   C3A38897  43.891  44.617   7.950
 6234POPC   C4A38898  43.917  44.668   7.650
 6234POPC   C1B38899  44.032  44.855   8.550
 6234POPC   C2B38900  43.989  44.857   8.250
 6234POPC   C3B38901  44.045  44.927   7.950
 6234POPC   C4B38902  44.060  44.860   7.650
 6235POPC   NC338903  39.233  38.435   9.450
 6235POPC   PO438904  39.187  38.444   9.150
 6235POPC   GL138905  39.274  38.500   8.850
 6235POPC   GL238906  39.328  38.469   8.850
 6235POPC   C1A38907  39.209  38.435   8.550
 6235POPC   D2A38908  39.197  38.445   8.250
 6235POPC   C3A38909  39.279  38.473   7.950
 6235POPC   C4A38910  39.185  38.435   7.650
 6235POPC   C1B38911  39.531  38.433   8.550
 6235POPC   C2B38912  39.450  38.479   8.250
 6235POPC   C3B38913  39.435  38.453   7.950
 6235POPC   C4B38914  39.498  38.496   7.650
 6236POPC   NC338915  43.846   8.208   9.450
 6236POPC   PO438916  43.871   8.188   9.150
 6236POPC   GL138917  43.863   8.216   8.850
 6236POPC   GL238918  43.767   8.189   8.850
 6236POPC   C1A38919  43.844   8.198   8.550
 6236POPC   D2A38920  43.878   8.219   8.250
 6236POPC   C3A38921  43.906   8.194   7.950
 6236POPC   C4A38922  43.843   8.211   7.650
 6236POPC   C1B38923  43.612   8.195   8.550
 6236POPC   C2B38924  43.653   8.154   8.250
 6236POPC   C3B38925  43.642   8.207   7.950
 6236POPC   C4B38926  43.599   8.187   7.650
 6237POPC   NC338927  27.606   5.091   9.450
 6237POPC   PO438928  27.632   5.067   9.150
 6237POPC   GL138929  27.624   5.077   8.850
 6237POPC   GL238930  27.517   5.026   8.850
 6237POPC   C1A38931  27.631   5.143   8.550
 6237POPC   D2A38932  27.623   5.091   8.250
 6237POPC   C3A38933  27.628   5.065   7.950
 6237POPC   C4A38934  27.637   5.136   7.650
 6237POPC   C1B38935  27.403   4.960   8.550
 6237POPC   C2B38936  27.419   4.865   8.250
 6237POPC   C3B38937  27.440   4.898   7.950
 6237POPC   C4B38938  27.424   4.941   7.650
 6238POPC   NC338939  11.292  24.536   9.450
 6238POPC   PO438940  11.297  24.449   9.150
 6238POPC   GL138941  11.253  24.455   8.850
 6238POPC   GL238942  11.429  24.431   8.850
 6238POPC   C1A38943  11.311  24.515   8.550
 6238POPC   D2A38944  11.260  24.483   8.250
 6238POPC   C3A38945  11.336  24.466   7.950
 6238POPC   C4A38946  11.322  24.458   7.650
 6238POPC   C1B38947  11.504  24.435   8.550
 6238POPC   C2B38948  11.499  24.386   8.250
 6238POPC   C3B38949  11.551  24.411   7.950
 6238POPC   C4B38950  11.530  24.341   7.650
 6239POPC   NC338951  19.859  26.864   9.450
 6239POPC   PO438952  19.849  26.863   9.150
 6239POPC   GL138953  19.798  26.783   8.850
 6239POPC   GL238954  19.745  26.857   8.850
 6239POPC   C1A38955  19.860  26.855   8.550
 6239POPC   D2A38956  19.882  26.775   8.250
 6239POPC   C3A38957  19.869  26.842   7.950
 6239POPC   C4A38958  19.869  26.830   7.650
 6239POPC   C1B38959  19.567  26.844   8.550
 6239POPC   C2B38960  19.599  26.852   8.250
 6239POPC   C3B38961  19.559  26.814   7.950
 6239POPC   C4B38962  19.556  26.850   7.650
 6240POPC   NC338963  37.688  22.189   9.450
 6240POPC   PO438964  37.697  22.184   9.150
 6240POPC   GL138965  37.629  22.185   8.850
 6240POPC   GL238966  37.749  22.254   8.850
 6240POPC   C1A38967  37.700  22.150   8.550
 6240POPC   D2A38968  37.659  22.131   8.250
 6240POPC   C3A38969  37.641  22.159   7.950
 6240POPC   C4A38970  37.646  22.199   7.650
 6240POPC   C1B38971  37.951  22.286   8.550
 6240POPC   C2B38972  37.902  22.216   8.250
 6240POPC   C3B38973  37.875  22.292   7.950
 6240POPC   C4B38974  37.925  22.219   7.650
 6241POPC   NC338975  32.229  23.702   9.450
 6241POPC   PO438976  32.225  23.756   9.150
 6241POPC   GL138977  32.287  23.686   8.850
 6241POPC   GL238978  32.134  23.747   8.850
 6241POPC   C1A38979  32.207  23.747   8.550
 6241POPC   D2A38980  32.287  23.723   8.250
 6241POPC   C3A38981  32.262  23.706   7.950
 6241POPC   C4A38982  32.198  23.718   7.650
 6241POPC   C1B38983  31.986  23.728   8.550
 6241POPC   C2B38984  31.995  23.771   8.250
 6241POPC   C3B38985  32.023  23.749   7.950
 6241POPC   C4B38986  31.996  23.781   7.650
 6242POPC   NC338987   1.261   2.805   9.450
 6242POPC   PO438988   1.206   2.801   9.150
 6242POPC   GL138989   1.243   2.752   8.850
 6242POPC   GL238990   1.277   2.717   8.850
 6242POPC   C1A38991   1.165   2.763   8.550
 6242POPC   D2A38992   1.222   2.777   8.250
 6242POPC   C3A38993   1.166   2.783   7.950
 6242POPC   C4A38994   1.212   2.720   7.650
 6242POPC   C1B38995   1.384   2.607   8.550
 6242POPC   C2B38996   1.409   2.596   8.250
 6242POPC   C3B38997   1.364   2.611   7.950
 6242POPC   C4B38998   1.374   2.551   7.650
 6243POPC   NC338999  12.843  44.712   9.450
 6243POPC   PO439000  12.884  44.646   9.150
 6243POPC   GL139001  12.853  44.700   8.850
 6243POPC   GL239002  12.817  44.742   8.850
 6243POPC   C1A39003  12.806  44.694   8.550
 6243POPC   D2A39004  12.833  44.617   8.250
 6243POPC   C3A39005  12.863  44.617   7.950
 6243POPC   C4A39006  12.852  44.644   7.650
 6243POPC   C1B39007  12.769  44.917   8.550
 6243POPC   C2B39008  12.785  44.868   8.250
 6243POPC   C3B39009  12.722  44.935   7.950
 6243POPC   C4B39010  12.793  44.910   7.650
 6244POPC   NC339011   4.316  27.557   9.450
 6244POPC   PO439012   4.272  27.625   9.150
 6244POPC   GL139013   4.337  27.580   8.850
 6244POPC   GL239014   4.326  27.479   8.850
 6244POPC   C1A39015   4.349  27.634   8.550
 6244POPC   D2A39016   4.315  27.638   8.250
 6244POPC   C3A39017   4.324  27.598   7.950
 6244POPC   C4A39018   4.309  27.642   7.650
 6244POPC   C1B39019   4.250  27.360   8.550
 6244POPC   C2B39020   4.263  27.299   8.250
 6244POPC   C3B39021   4.248  27.330   7.950
 6244POPC   C4B39022   4.319  27.389   7.650
 6245POPC   NC339023  26.815   7.385   9.450
 6245POPC   PO439024  26.824   7.382   9.150
 6245POPC   GL139025  26.850   7.469   8.850
 6245POPC   GL239026  26.760   7.348   8.850
 6245POPC   C1A39027  26.866   7.466   8.550
 6245POPC   D2A39028  26.808   7.388   8.250
 6245POPC   C3A39029  26.859   7.381   7.950
 6245POPC   C4A39030  26.784   7.378   7.650
 6245POPC   C1B39031  26.652   7.247   8.550
 6245POPC   C2B39032  26.703   7.167   8.250
 6245POPC   C3B39033  26.686   7.211   7.950
 6245POPC   C4B39034  26.684   7.253   7.650
 6246POPC   NC339035  28.367  33.066   9.450
 6246POPC   PO439036  28.384  33.013   9.150
 6246POPC   GL139037  28.367  33.064   8.850
 6246POPC   GL239038  28.420  33.153   8.850
 6246POPC   C1A39039  28.336  33.006   8.550
 6246POPC   D2A39040  28.381  32.983   8.250
 6246POPC   C3A39041  28.343  33.024   7.950
 6246POPC   C4A39042  28.397  32.995   7.650
 6246POPC   C1B39043  28.371  33.242   8.550
 6246POPC   C2B39044  28.390  33.257   8.250
 6246POPC   C3B39045  28.378  33.319   7.950
 6246POPC   C4B39046  28.435  33.255   7.650
 6247POPC   NC339047  37.663  22.963   9.450
 6247POPC   PO439048  37.682  22.944   9.150
 6247POPC   GL139049  37.679  22.953   8.850
 6247POPC   GL239050  37.792  22.976   8.850
 6247POPC   C1A39051  37.708  22.926   8.550
 6247POPC   D2A39052  37.710  22.925   8.250
 6247POPC   C3A39053  37.681  22.893   7.950
 6247POPC   C4A39054  37.714  22.987   7.650
 6247POPC   C1B39055  37.931  23.054   8.550
 6247POPC   C2B39056  37.861  22.988   8.250
 6247POPC   C3B39057  37.950  23.059   7.950
 6247POPC   C4B39058  37.901  23.084   7.650
 6248POPC   NC339059  12.887   1.993   9.450
 6248POPC   PO439060  12.882   1.999   9.150
 6248POPC   GL139061  12.826   2.026   8.850
 6248POPC   GL239062  12.971   2.033   8.850
 6248POPC   C1A39063  12.877   1.983   8.550
 6248POPC   D2A39064  12.858   2.030   8.250
 6248POPC   C3A39065  12.854   2.012   7.950
 6248POPC   C4A39066  12.894   2.003   7.650
 6248POPC   C1B39067  13.094   2.114   8.550
 6248POPC   C2B39068  13.033   2.161   8.250
 6248POPC   C3B39069  13.036   2.145   7.950
 6248POPC   C4B39070  13.058   2.126   7.650
 6249POPC   NC339071   9.798  26.784   9.450
 6249POPC   PO439072   9.765  26.790   9.150
 6249POPC   GL139073   9.699  26.788   8.850
 6249POPC   GL239074   9.761  26.929   8.850
 6249POPC   C1A39075   9.762  26.779   8.550
 6249POPC   D2A39076   9.750  26.784   8.250
 6249POPC   C3A39077   9.750  26.854   7.950
 6249POPC   C4A39078   9.724  26.786   7.650
 6249POPC   C1B39079   9.756  27.021   8.550
 6249POPC   C2B39080   9.721  27.070   8.250
 6249POPC   C3B39081   9.809  27.032   7.950
 6249POPC   C4B39082   9.766  27.113   7.650
 6250POPC   NC339083   7.437   6.670   9.450
 6250POPC   PO439084   7.413   6.681   9.150
 6250POPC   GL139085   7.445   6.625   8.850
 6250POPC   GL239086   7.321   6.670   8.850
 6250POPC   C1A39087   7.423   6.654   8.550
 6250POPC   D2A39088   7.469   6.687   8.250
 6250POPC   C3A39089   7.401   6.631   7.950
 6250POPC   C4A39090   7.437   6.653   7.650
 6250POPC   C1B39091   7.202   6.819   8.550
 6250POPC   C2B39092   7.174   6.794   8.250
 6250POPC   C3B39093   7.222   6.755   7.950
 6250POPC   C4B39094   7.236   6.740   7.650
 6251POPC   NC339095  12.828  43.846   9.450
 6251POPC   PO439096  12.805  43.928   9.150
 6251POPC   GL139097  12.820  43.849   8.850
 6251POPC   GL239098  12.793  43.941   8.850
 6251POPC   C1A39099  12.857  43.844   8.550
 6251POPC   D2A39100  12.865  43.850   8.250
 6251POPC   C3A39101  12.874  43.894   7.950
 6251POPC   C4A39102  12.868  43.923   7.650
 6251POPC   C1B39103  12.684  44.104   8.550
 6251POPC   C2B39104  12.706  44.114   8.250
 6251POPC   C3B39105  12.715  44.095   7.950
 6251POPC   C4B39106  12.702  44.047   7.650
 6252POPC   NC339107  26.850  14.394   9.450
 6252POPC   PO439108  26.794  14.365   9.150
 6252POPC   GL139109  26.788  14.436   8.850
 6252POPC   GL239110  26.847  14.278   8.850
 6252POPC   C1A39111  26.780  14.443   8.550
 6252POPC   D2A39112  26.774  14.408   8.250
 6252POPC   C3A39113  26.816  14.424   7.950
 6252POPC   C4A39114  26.771  14.360   7.650
 6252POPC   C1B39115  26.950  14.151   8.550
 6252POPC   C2B39116  26.951  14.225   8.250
 6252POPC   C3B39117  26.935  14.161   7.950
 6252POPC   C4B39118  26.899  14.200   7.650
 6253POPC   NC339119   5.862  36.153   9.450
 6253POPC   PO439120   5.836  36.135   9.150
 6253POPC   GL139121   5.875  36.114   8.850
 6253POPC   GL239122   6.026  36.081   8.850
 6253POPC   C1A39123   5.831  36.090   8.550
 6253POPC   D2A39124   5.824  36.106   8.250
 6253POPC   C3A39125   5.831  36.083   7.950
 6253POPC   C4A39126   5.891  36.169   7.650
 6253POPC   C1B39127   6.155  36.082   8.550
 6253POPC   C2B39128   6.063  36.051   8.250
 6253POPC   C3B39129   6.105  36.008   7.950
 6253POPC   C4B39130   6.124  36.015   7.650
 6254POPC   NC339131   9.787  10.541   9.450
 6254POPC   PO439132   9.716  10.517   9.150
 6254POPC   GL139133   9.754  10.561   8.850
 6254POPC   GL239134   9.675  10.390   8.850
 6254POPC   C1A39135   9.796  10.510   8.550
 6254POPC   D2A39136   9.716  10.476   8.250
 6254POPC   C3A39137   9.793  10.531   7.950
 6254POPC   C4A39138   9.793  10.480   7.650
 6254POPC   C1B39139   9.639  10.240   8.550
 6254POPC   C2B39140   9.657  10.260   8.250
 6254POPC   C3B39141   9.692  10.326   7.950
 6254POPC   C4B39142   9.664  10.236   7.650
 6255POPC   NC339143  38.448   2.002   9.450
 6255POPC   PO439144  38.455   1.985   9.150
 6255POPC   GL139145  38.479   2.023   8.850
 6255POPC   GL239146  38.396   2.083   8.850
 6255POPC   C1A39147  38.496   1.950   8.550
 6255POPC   D2A39148  38.493   1.961   8.250
 6255POPC   C3A39149  38.459   1.975   7.950
 6255POPC   C4A39150  38.472   2.004   7.650
 6255POPC   C1B39151  38.357   2.229   8.550
 6255POPC   C2B39152  38.382   2.204   8.250
 6255POPC   C3B39153  38.363   2.188   7.950
 6255POPC   C4B39154  38.389   2.272   7.650
 6256POPC   NC339155  21.376  24.522   9.450
 6256POPC   PO439156  21.347  24.489   9.150
 6256POPC   GL139157  21.359  24.490   8.850
 6256POPC   GL239158  21.222  24.431   8.850
 6256POPC   C1A39159  21.431  24.447   8.550
 6256POPC   D2A39160  21.405  24.498   8.250
 6256POPC   C3A39161  21.406  24.445   7.950
 6256POPC   C4A39162  21.412  24.451   7.650
 6256POPC   C1B39163  21.137  24.453   8.550
 6256POPC   C2B39164  21.116  24.444   8.250
 6256POPC   C3B39165  21.183  24.425   7.950
 6256POPC   C4B39166  21.158  24.491   7.650
 6257POPC   NC339167  35.359  39.205   9.450
 6257POPC   PO439168  35.336  39.262   9.150
 6257POPC   GL139169  35.345  39.257   8.850
 6257POPC   GL239170  35.441  39.311   8.850
 6257POPC   C1A39171  35.370  39.218   8.550
 6257POPC   D2A39172  35.392  39.272   8.250
 6257POPC   C3A39173  35.382  39.249   7.950
 6257POPC   C4A39174  35.353  39.219   7.650
 6257POPC   C1B39175  35.544  39.274   8.550
 6257POPC   C2B39176  35.592  39.306   8.250
 6257POPC   C3B39177  35.595  39.281   7.950
 6257POPC   C4B39178  35.548  39.274   7.650
 6258POPC   NC339179   5.082  38.445   9.450
 6258POPC   PO439180   5.135  38.422   9.150
 6258POPC   GL139181   5.137  38.492   8.850
 6258POPC   GL239182   5.254  38.537   8.850
 6258POPC   C1A39183   5.112  38.487   8.550
 6258POPC   D2A39184   5.083  38.443   8.250
 6258POPC   C3A39185   5.072  38.433   7.950
 6258POPC   C4A39186   5.067  38.444   7.650
 6258POPC   C1B39187   5.369  38.534   8.550
 6258POPC   C2B39188   5.301  38.587   8.250
 6258POPC   C3B39189   5.303  38.584   7.950
 6258POPC   C4B39190   5.304  38.583   7.650
 6259POPC   NC339191   8.986  38.440   9.450
 6259POPC   PO439192   8.953  38.478   9.150
 6259POPC   GL139193   9.014  38.460   8.850
 6259POPC   GL239194   8.991  38.311   8.850
 6259POPC   C1A39195   8.974  38.465   8.550
 6259POPC   D2A39196   8.928  38.450   8.250
 6259POPC   C3A39197   8.973  38.494   7.950
 6259POPC   C4A39198   8.985  38.410   7.650
 6259POPC   C1B39199   8.867  38.182   8.550
 6259POPC   C2B39200   8.913  38.246   8.250
 6259POPC   C3B39201   8.955  38.205   7.950
 6259POPC   C4B39202   8.896  38.187   7.650
 6260POPC   NC339203  33.045  36.854   9.450
 6260POPC   PO439204  33.055  36.938   9.150
 6260POPC   GL139205  33.038  36.874   8.850
 6260POPC   GL239206  32.942  36.886   8.850
 6260POPC   C1A39207  32.975  36.886   8.550
 6260POPC   D2A39208  32.992  36.932   8.250
 6260POPC   C3A39209  32.977  36.866   7.950
 6260POPC   C4A39210  33.036  36.949   7.650
 6260POPC   C1B39211  32.753  36.891   8.550
 6260POPC   C2B39212  32.788  36.927   8.250
 6260POPC   C3B39213  32.822  36.958   7.950
 6260POPC   C4B39214  32.769  36.951   7.650
 6261POPC   NC339215  25.219  20.607   9.450
 6261POPC   PO439216  25.263  20.646   9.150
 6261POPC   GL139217  25.274  20.592   8.850
 6261POPC   GL239218  25.418  20.587   8.850
 6261POPC   C1A39219  25.252  20.592   8.550
 6261POPC   D2A39220  25.279  20.621   8.250
 6261POPC   C3A39221  25.226  20.615   7.950
 6261POPC   C4A39222  25.236  20.593   7.650
 6261POPC   C1B39223  25.524  20.536   8.550
 6261POPC   C2B39224  25.491  20.514   8.250
 6261POPC   C3B39225  25.495  20.575   7.950
 6261POPC   C4B39226  25.460  20.562   7.650
 6262POPC   NC339227  26.080   2.037   9.450
 6262POPC   PO439228  26.008   1.995   9.150
 6262POPC   GL139229  25.999   1.981   8.850
 6262POPC   GL239230  25.997   2.133   8.850
 6262POPC   C1A39231  26.029   2.022   8.550
 6262POPC   D2A39232  26.090   1.940   8.250
 6262POPC   C3A39233  26.006   1.962   7.950
 6262POPC   C4A39234  25.997   1.972   7.650
 6262POPC   C1B39235  25.949   2.230   8.550
 6262POPC   C2B39236  26.015   2.198   8.250
 6262POPC   C3B39237  25.997   2.246   7.950
 6262POPC   C4B39238  25.994   2.277   7.650
 6263POPC   NC339239  36.154  43.908   9.450
 6263POPC   PO439240  36.168  43.846   9.150
 6263POPC   GL139241  36.089  43.925   8.850
 6263POPC   GL239242  35.974  43.900   8.850
 6263POPC   C1A39243  36.133  43.846   8.550
 6263POPC   D2A39244  36.129  43.895   8.250
 6263POPC   C3A39245  36.094  43.916   7.950
 6263POPC   C4A39246  36.101  43.933   7.650
 6263POPC   C1B39247  35.869  43.981   8.550
 6263POPC   C2B39248  35.917  44.009   8.250
 6263POPC   C3B39249  35.919  43.989   7.950
 6263POPC   C4B39250  35.905  43.982   7.650
 6264POPC   NC339251  22.152  42.303   9.450
 6264POPC   PO439252  22.131  42.310   9.150
 6264POPC   GL139253  22.202  42.291   8.850
 6264POPC   GL239254  22.161  42.173   8.850
 6264POPC   C1A39255  22.176  42.361   8.550
 6264POPC   D2A39256  22.166  42.380   8.250
 6264POPC   C3A39257  22.187  42.351   7.950
 6264POPC   C4A39258  22.198  42.374   7.650
 6264POPC   C1B39259  22.266  42.142   8.550
 6264POPC   C2B39260  22.278  42.104   8.250
 6264POPC   C3B39261  22.250  42.114   7.950
 6264POPC   C4B39262  22.278  42.066   7.650
 6265POPC   NC339263  17.497  44.706   9.450
 6265POPC   PO439264  17.514  44.626   9.150
 6265POPC   GL139265  17.523  44.707   8.850
 6265POPC   GL239266  17.391  44.651   8.850
 6265POPC   C1A39267  17.485  44.663   8.550
 6265POPC   D2A39268  17.485  44.633   8.250
 6265POPC   C3A39269  17.523  44.663   7.950
 6265POPC   C4A39270  17.463  44.674   7.650
 6265POPC   C1B39271  17.272  44.583   8.550
 6265POPC   C2B39272  17.308  44.562   8.250
 6265POPC   C3B39273  17.325  44.589   7.950
 6265POPC   C4B39274  17.262  44.556   7.650
 6266POPC   NC339275  32.272  30.695   9.450
 6266POPC   PO439276  32.282  30.688   9.150
 6266POPC   GL139277  32.263  30.733   8.850
 6266POPC   GL239278  32.319  30.540   8.850
 6266POPC   C1A39279  32.202  30.739   8.550
 6266POPC   D2A39280  32.248  30.700   8.250
 6266POPC   C3A39281  32.272  30.673   7.950
 6266POPC   C4A39282  32.210  30.654   7.650
 6266POPC   C1B39283  32.341  30.470   8.550
 6266POPC   C2B39284  32.298  30.424   8.250
 6266POPC   C3B39285  32.295  30.458   7.950
 6266POPC   C4B39286  32.268  30.495   7.650
 6267POPC   NC339287  36.149   9.784   9.450
 6267POPC   PO439288  36.105   9.794   9.150
 6267POPC   GL139289  36.081   9.745   8.850
 6267POPC   GL239290  36.122   9.653   8.850
 6267POPC   C1A39291  36.145   9.699   8.550
 6267POPC   D2A39292  36.106   9.787   8.250
 6267POPC   C3A39293  36.115   9.788   7.950
 6267POPC   C4A39294  36.156   9.733   7.650
 6267POPC   C1B39295  36.102   9.536   8.550
 6267POPC   C2B39296  36.153   9.544   8.250
 6267POPC   C3B39297  36.148   9.515   7.950
 6267POPC   C4B39298  36.169   9.535   7.650
 6268POPC   NC339299  40.018  23.697   9.450
 6268POPC   PO439300  39.995  23.703   9.150
 6268POPC   GL139301  39.958  23.721   8.850
 6268POPC   GL239302  39.936  23.670   8.850
 6268POPC   C1A39303  39.962  23.667   8.550
 6268POPC   D2A39304  40.007  23.699   8.250
 6268POPC   C3A39305  40.024  23.703   7.950
 6268POPC   C4A39306  39.986  23.728   7.650
 6268POPC   C1B39307  39.763  23.639   8.550
 6268POPC   C2B39308  39.760  23.663   8.250
 6268POPC   C3B39309  39.784  23.649   7.950
 6268POPC   C4B39310  39.775  23.613   7.650
 6269POPC   NC339311  14.423  15.219   9.450
 6269POPC   PO439312  14.424  15.205   9.150
 6269POPC   GL139313  14.372  15.229   8.850
 6269POPC   GL239314  14.347  15.300   8.850
 6269POPC   C1A39315  14.449  15.185   8.550
 6269POPC   D2A39316  14.432  15.165   8.250
 6269POPC   C3A39317  14.450  15.183   7.950
 6269POPC   C4A39318  14.365  15.155   7.650
 6269POPC   C1B39319  14.309  15.369   8.550
 6269POPC   C2B39320  14.282  15.413   8.250
 6269POPC   C3B39321  14.335  15.443   7.950
 6269POPC   C4B39322  14.333  15.436   7.650
 6270POPC   NC339323  43.890   7.395   9.450
 6270POPC   PO439324  43.883   7.432   9.150
 6270POPC   GL139325  43.867   7.405   8.850
 6270POPC   GL239326  43.728   7.413   8.850
 6270POPC   C1A39327  43.848   7.440   8.550
 6270POPC   D2A39328  43.862   7.384   8.250
 6270POPC   C3A39329  43.911   7.406   7.950
 6270POPC   C4A39330  43.915   7.454   7.650
 6270POPC   C1B39331  43.596   7.493   8.550
 6270POPC   C2B39332  43.641   7.454   8.250
 6270POPC   C3B39333  43.653   7.429   7.950
 6270POPC   C4B39334  43.634   7.483   7.650
 6271POPC   NC339335  28.411  22.123   9.450
 6271POPC   PO439336  28.392  22.150   9.150
 6271POPC   GL139337  28.329  22.161   8.850
 6271POPC   GL239338  28.419  22.231   8.850
 6271POPC   C1A39339  28.385  22.115   8.550
 6271POPC   D2A39340  28.363  22.192   8.250
 6271POPC   C3A39341  28.394  22.191   7.950
 6271POPC   C4A39342  28.387  22.157   7.650
 6271POPC   C1B39343  28.525  22.322   8.550
 6271POPC   C2B39344  28.540  22.370   8.250
 6271POPC   C3B39345  28.564  22.382   7.950
 6271POPC   C4B39346  28.492  22.393   7.650
 6272POPC   NC339347   7.408   8.221   9.450
 6272POPC   PO439348   7.441   8.227   9.150
 6272POPC   GL139349   7.411   8.230   8.850
 6272POPC   GL239350   7.357   8.092   8.850
 6272POPC   C1A39351   7.449   8.172   8.550
 6272POPC   D2A39352   7.395   8.216   8.250
 6272POPC   C3A39353   7.402   8.217   7.950
 6272POPC   C4A39354   7.433   8.221   7.650
 6272POPC   C1B39355   7.282   8.003   8.550
 6272POPC   C2B39356   7.291   8.029   8.250
 6272POPC   C3B39357   7.334   7.988   7.950
 6272POPC   C4B39358   7.245   7.994   7.650
 6273POPC   NC339359  19.018  13.621   9.450
 6273POPC   PO439360  19.023  13.669   9.150
 6273POPC   GL139361  19.037  13.585   8.850
 6273POPC   GL239362  18.992  13.494   8.850
 6273POPC   C1A39363  19.018  13.580   8.550
 6273POPC   D2A39364  19.067  13.584   8.250
 6273POPC   C3A39365  19.097  13.626   7.950
 6273POPC   C4A39366  19.050  13.604   7.650
 6273POPC   C1B39367  18.944  13.435   8.550
 6273POPC   C2B39368  18.960  13.377   8.250
 6273POPC   C3B39369  18.911  13.439   7.950
 6273POPC   C4B39370  18.959  13.438   7.650
 6274POPC   NC339371  16.727  38.435   9.450
 6274POPC   PO439372  16.760  38.486   9.150
 6274POPC   GL139373  16.724  38.457   8.850
 6274POPC   GL239374  16.681  38.521   8.850
 6274POPC   C1A39375  16.683  38.439   8.550
 6274POPC   D2A39376  16.750  38.416   8.250
 6274POPC   C3A39377  16.718  38.465   7.950
 6274POPC   C4A39378  16.730  38.445   7.650
 6274POPC   C1B39379  16.590  38.636   8.550
 6274POPC   C2B39380  16.540  38.613   8.250
 6274POPC   C3B39381  16.532  38.590   7.950
 6274POPC   C4B39382  16.554  38.615   7.650
 6275POPC   NC339383  11.319  23.750   9.450
 6275POPC   PO439384  11.327  23.734   9.150
 6275POPC   GL139385  11.286  23.716   8.850
 6275POPC   GL239386  11.385  23.699   8.850
 6275POPC   C1A39387  11.266  23.726   8.550
 6275POPC   D2A39388  11.258  23.715   8.250
 6275POPC   C3A39389  11.316  23.689   7.950
 6275POPC   C4A39390  11.281  23.691   7.650
 6275POPC   C1B39391  11.552  23.630   8.550
 6275POPC   C2B39392  11.489  23.602   8.250
 6275POPC   C3B39393  11.515  23.601   7.950
 6275POPC   C4B39394  11.550  23.630   7.650
 6276POPC   NC339395   9.709  12.042   9.450
 6276POPC   PO439396   9.762  12.051   9.150
 6276POPC   GL139397   9.726  12.073   8.850
 6276POPC   GL239398   9.869  12.169   8.850
 6276POPC   C1A39399   9.781  12.073   8.550
 6276POPC   D2A39400   9.714  12.042   8.250
 6276POPC   C3A39401   9.798  12.125   7.950
 6276POPC   C4A39402   9.762  12.087   7.650
 6276POPC   C1B39403   9.986  12.198   8.550
 6276POPC   C2B39404   9.946  12.218   8.250
 6276POPC   C3B39405   9.979  12.254   7.950
 6276POPC   C4B39406   9.939  12.198   7.650
 6277POPC   NC339407  26.799  13.661   9.450
 6277POPC   PO439408  26.860  13.678   9.150
 6277POPC   GL139409  26.851  13.658   8.850
 6277POPC   GL239410  26.771  13.691   8.850
 6277POPC   C1A39411  26.848  13.643   8.550
 6277POPC   D2A39412  26.794  13.603   8.250
 6277POPC   C3A39413  26.854  13.651   7.950
 6277POPC   C4A39414  26.808  13.638   7.650
 6277POPC   C1B39415  26.624  13.806   8.550
 6277POPC   C2B39416  26.685  13.840   8.250
 6277POPC   C3B39417  26.625  13.769   7.950
 6277POPC   C4B39418  26.665  13.804   7.650
 6278POPC   NC339419  35.348   5.087   9.450
 6278POPC   PO439420  35.334   5.121   9.150
 6278POPC   GL139421  35.353   5.136   8.850
 6278POPC   GL239422  35.404   5.241   8.850
 6278POPC   C1A39423  35.397   5.106   8.550
 6278POPC   D2A39424  35.380   5.129   8.250
 6278POPC   C3A39425  35.377   5.075   7.950
 6278POPC   C4A39426  35.337   5.142   7.650
 6278POPC   C1B39427  35.354   5.321   8.550
 6278POPC   C2B39428  35.341   5.372   8.250
 6278POPC   C3B39429  35.348   5.338   7.950
 6278POPC   C4B39430  35.365   5.301   7.650
 6279POPC   NC339431  10.500  39.275   9.450
 6279POPC   PO439432  10.567  39.269   9.150
 6279POPC   GL139433  10.533  39.234   8.850
 6279POPC   GL239434  10.420  39.313   8.850
 6279POPC   C1A39435  10.539  39.259   8.550
 6279POPC   D2A39436  10.570  39.206   8.250
 6279POPC   C3A39437  10.526  39.187   7.950
 6279POPC   C4A39438  10.562  39.219   7.650
 6279POPC   C1B39439  10.402  39.407   8.550
 6279POPC   C2B39440  10.331  39.402   8.250
 6279POPC   C3B39441  10.349  39.468   7.950
 6279POPC   C4B39442  10.379  39.462   7.650
 6280POPC   NC339443  11.345  19.053   9.450
 6280POPC   PO439444  11.301  19.057   9.150
 6280POPC   GL139445  11.267  19.042   8.850
 6280POPC   GL239446  11.331  19.180   8.850
 6280POPC   C1A39447  11.257  19.090   8.550
 6280POPC   D2A39448  11.308  19.017   8.250
 6280POPC   C3A39449  11.336  19.079   7.950
 6280POPC   C4A39450  11.283  19.082   7.650
 6280POPC   C1B39451  11.237  19.344   8.550
 6280POPC   C2B39452  11.226  19.313   8.250
 6280POPC   C3B39453  11.262  19.349   7.950
 6280POPC   C4B39454  11.277  19.284   7.650
 6281POPC   NC339455  35.374   9.017   9.450
 6281POPC   PO439456  35.325   8.939   9.150
 6281POPC   GL139457  35.400   8.933   8.850
 6281POPC   GL239458  35.250   9.026   8.850
 6281POPC   C1A39459  35.348   9.011   8.550
 6281POPC   D2A39460  35.384   8.950   8.250
 6281POPC   C3A39461  35.334   9.019   7.950
 6281POPC   C4A39462  35.325   8.969   7.650
 6281POPC   C1B39463  35.155   9.099   8.550
 6281POPC   C2B39464  35.140   9.119   8.250
 6281POPC   C3B39465  35.145   9.033   7.950
 6281POPC   C4B39466  35.130   9.101   7.650
 6282POPC   NC339467  36.912  43.115   9.450
 6282POPC   PO439468  36.889  43.100   9.150
 6282POPC   GL139469  36.914  43.154   8.850
 6282POPC   GL239470  37.037  43.121   8.850
 6282POPC   C1A39471  36.922  43.070   8.550
 6282POPC   D2A39472  36.911  43.150   8.250
 6282POPC   C3A39473  36.924  43.115   7.950
 6282POPC   C4A39474  36.868  43.160   7.650
 6282POPC   C1B39475  37.141  43.137   8.550
 6282POPC   C2B39476  37.181  43.155   8.250
 6282POPC   C3B39477  37.127  43.090   7.950
 6282POPC   C4B39478  37.126  43.105   7.650
 6283POPC   NC339479  43.083  43.084   9.450
 6283POPC   PO439480  43.123  43.111   9.150
 6283POPC   GL139481  43.063  43.097   8.850
 6283POPC   GL239482  43.048  43.037   8.850
 6283POPC   C1A39483  43.116  43.095   8.550
 6283POPC   D2A39484  43.086  43.122   8.250
 6283POPC   C3A39485  43.142  43.160   7.950
 6283POPC   C4A39486  43.152  43.110   7.650
 6283POPC   C1B39487  42.995  42.894   8.550
 6283POPC   C2B39488  43.057  42.841   8.250
 6283POPC   C3B39489  42.993  42.870   7.950
 6283POPC   C4B39490  43.002  42.840   7.650
 6284POPC   NC339491  38.440  15.974   9.450
 6284POPC   PO439492  38.451  16.003   9.150
 6284POPC   GL139493  38.471  16.002   8.850
 6284POPC   GL239494  38.538  15.841   8.850
 6284POPC   C1A39495  38.458  15.943   8.550
 6284POPC   D2A39496  38.456  16.000   8.250
 6284POPC   C3A39497  38.482  15.997   7.950
 6284POPC   C4A39498  38.437  15.935   7.650
 6284POPC   C1B39499  38.523  15.751   8.550
 6284POPC   C2B39500  38.567  15.758   8.250
 6284POPC   C3B39501  38.568  15.757   7.950
 6284POPC   C4B39502  38.501  15.679   7.650
 6285POPC   NC339503   0.394  43.864   9.450
 6285POPC   PO439504   0.403  43.849   9.150
 6285POPC   GL139505   0.393  43.838   8.850
 6285POPC   GL239506   0.508  43.772   8.850
 6285POPC   C1A39507   0.423  43.933   8.550
 6285POPC   D2A39508   0.391  43.913   8.250
 6285POPC   C3A39509   0.408  43.903   7.950
 6285POPC   C4A39510   0.415  43.860   7.650
 6285POPC   C1B39511   0.527  43.615   8.550
 6285POPC   C2B39512   0.515  43.687   8.250
 6285POPC   C3B39513   0.542  43.665   7.950
 6285POPC   C4B39514   0.513  43.604   7.650
 6286POPC   NC339515  44.641  32.984   9.450
 6286POPC   PO439516  44.645  32.979   9.150
 6286POPC   GL139517  44.676  33.003   8.850
 6286POPC   GL239518  44.714  32.893   8.850
 6286POPC   C1A39519  44.616  33.018   8.550
 6286POPC   D2A39520  44.654  32.984   8.250
 6286POPC   C3A39521  44.640  33.065   7.950
 6286POPC   C4A39522  44.628  33.011   7.650
 6286POPC   C1B39523  44.679  32.765   8.550
 6286POPC   C2B39524  44.694  32.826   8.250
 6286POPC   C3B39525  44.722  32.735   7.950
 6286POPC   C4B39526  44.759  32.811   7.650
 6287POPC   NC339527  42.361  16.004   9.450
 6287POPC   PO439528  42.347  15.909   9.150
 6287POPC   GL139529  42.342  16.001   8.850
 6287POPC   GL239530  42.228  15.901   8.850
 6287POPC   C1A39531  42.342  15.944   8.550
 6287POPC   D2A39532  42.306  15.924   8.250
 6287POPC   C3A39533  42.343  15.983   7.950
 6287POPC   C4A39534  42.343  15.952   7.650
 6287POPC   C1B39535  42.121  15.768   8.550
 6287POPC   C2B39536  42.180  15.766   8.250
 6287POPC   C3B39537  42.121  15.803   7.950
 6287POPC   C4B39538  42.178  15.766   7.650
 6288POPC   NC339539  21.394  25.247   9.450
 6288POPC   PO439540  21.422  25.252   9.150
 6288POPC   GL139541  21.431  25.220   8.850
 6288POPC   GL239542  21.421  25.118   8.850
 6288POPC   C1A39543  21.384  25.217   8.550
 6288POPC   D2A39544  21.390  25.303   8.250
 6288POPC   C3A39545  21.350  25.283   7.950
 6288POPC   C4A39546  21.351  25.282   7.650
 6288POPC   C1B39547  21.420  25.036   8.550
 6288POPC   C2B39548  21.427  25.066   8.250
 6288POPC   C3B39549  21.399  25.050   7.950
 6288POPC   C4B39550  21.449  25.023   7.650
 6289POPC   NC339551  19.030  39.262   9.450
 6289POPC   PO439552  19.039  39.245   9.150
 6289POPC   GL139553  19.059  39.193   8.850
 6289POPC   GL239554  18.936  39.220   8.850
 6289POPC   C1A39555  19.055  39.216   8.550
 6289POPC   D2A39556  19.046  39.182   8.250
 6289POPC   C3A39557  19.043  39.192   7.950
 6289POPC   C4A39558  19.047  39.248   7.650
 6289POPC   C1B39559  18.776  39.250   8.550
 6289POPC   C2B39560  18.779  39.215   8.250
 6289POPC   C3B39561  18.811  39.207   7.950
 6289POPC   C4B39562  18.789  39.192   7.650
 6290POPC   NC339563  43.108  19.054   9.450
 6290POPC   PO439564  43.156  19.082   9.150
 6290POPC   GL139565  43.150  19.077   8.850
 6290POPC   GL239566  43.080  18.941   8.850
 6290POPC   C1A39567  43.087  19.105   8.550
 6290POPC   D2A39568  43.131  19.019   8.250
 6290POPC   C3A39569  43.065  19.037   7.950
 6290POPC   C4A39570  43.151  19.046   7.650
 6290POPC   C1B39571  43.093  18.761   8.550
 6290POPC   C2B39572  43.113  18.794   8.250
 6290POPC   C3B39573  43.109  18.787   7.950
 6290POPC   C4B39574  43.129  18.821   7.650
 6291POPC   NC339575   4.275  19.097   9.450
 6291POPC   PO439576   4.307  19.022   9.150
 6291POPC   GL139577   4.327  19.058   8.850
 6291POPC   GL239578   4.330  18.922   8.850
 6291POPC   C1A39579   4.305  19.075   8.550
 6291POPC   D2A39580   4.273  19.018   8.250
 6291POPC   C3A39581   4.361  19.061   7.950
 6291POPC   C4A39582   4.335  19.010   7.650
 6291POPC   C1B39583   4.389  18.840   8.550
 6291POPC   C2B39584   4.344  18.791   8.250
 6291POPC   C3B39585   4.334  18.849   7.950
 6291POPC   C4B39586   4.371  18.837   7.650
 6292POPC   NC339587   5.876  13.619   9.450
 6292POPC   PO439588   5.911  13.662   9.150
 6292POPC   GL139589   5.913  13.659   8.850
 6292POPC   GL239590   5.799  13.475   8.850
 6292POPC   C1A39591   5.840  13.591   8.550
 6292POPC   D2A39592   5.865  13.634   8.250
 6292POPC   C3A39593   5.913  13.648   7.950
 6292POPC   C4A39594   5.832  13.617   7.650
 6292POPC   C1B39595   5.770  13.470   8.550
 6292POPC   C2B39596   5.681  13.391   8.250
 6292POPC   C3B39597   5.685  13.458   7.950
 6292POPC   C4B39598   5.726  13.384   7.650
 6293POPC   NC339599  16.729  19.042   9.450
 6293POPC   PO439600  16.774  19.076   9.150
 6293POPC   GL139601  16.743  19.010   8.850
 6293POPC   GL239602  16.718  18.942   8.850
 6293POPC   C1A39603  16.740  19.087   8.550
 6293POPC   D2A39604  16.779  19.058   8.250
 6293POPC   C3A39605  16.713  19.009   7.950
 6293POPC   C4A39606  16.756  19.049   7.650
 6293POPC   C1B39607  16.685  18.813   8.550
 6293POPC   C2B39608  16.607  18.793   8.250
 6293POPC   C3B39609  16.705  18.803   7.950
 6293POPC   C4B39610  16.674  18.778   7.650
 6294POPC   NC339611  33.844  25.293   9.450
 6294POPC   PO439612  33.844  25.292   9.150
 6294POPC   GL139613  33.761  25.315   8.850
 6294POPC   GL239614  33.908  25.180   8.850
 6294POPC   C1A39615  33.779  25.311   8.550
 6294POPC   D2A39616  33.781  25.304   8.250
 6294POPC   C3A39617  33.765  25.254   7.950
 6294POPC   C4A39618  33.768  25.257   7.650
 6294POPC   C1B39619  33.983  25.064   8.550
 6294POPC   C2B39620  33.994  25.065   8.250
 6294POPC   C3B39621  33.923  25.028   7.950
 6294POPC   C4B39622  33.960  25.096   7.650
 6295POPC   NC339623  43.846   2.748   9.450
 6295POPC   PO439624  43.857   2.731   9.150
 6295POPC   GL139625  43.876   2.814   8.850
 6295POPC   GL239626  43.854   2.622   8.850
 6295POPC   C1A39627  43.915   2.803   8.550
 6295POPC   D2A39628  43.859   2.810   8.250
 6295POPC   C3A39629  43.884   2.773   7.950
 6295POPC   C4A39630  43.900   2.725   7.650
 6295POPC   C1B39631  43.769   2.564   8.550
 6295POPC   C2B39632  43.766   2.569   8.250
 6295POPC   C3B39633  43.851   2.508   7.950
 6295POPC   C4B39634  43.768   2.560   7.650
 6296POPC   NC339635  38.476   2.804   9.450
 6296POPC   PO439636  38.483   2.746   9.150
 6296POPC   GL139637  38.418   2.766   8.850
 6296POPC   GL239638  38.542   2.916   8.850
 6296POPC   C1A39639  38.412   2.744   8.550
 6296POPC   D2A39640  38.421   2.722   8.250
 6296POPC   C3A39641  38.456   2.802   7.950
 6296POPC   C4A39642  38.429   2.793   7.650
 6296POPC   C1B39643  38.573   2.932   8.550
 6296POPC   C2B39644  38.619   2.980   8.250
 6296POPC   C3B39645  38.557   2.995   7.950
 6296POPC   C4B39646  38.617   2.961   7.650
 6297POPC   NC339647   4.284  41.580   9.450
 6297POPC   PO439648   4.287  41.566   9.150
 6297POPC   GL139649   4.349  41.571   8.850
 6297POPC   GL239650   4.347  41.493   8.850
 6297POPC   C1A39651   4.277  41.581   8.550
 6297POPC   D2A39652   4.313  41.564   8.250
 6297POPC   C3A39653   4.272  41.543   7.950
 6297POPC   C4A39654   4.281  41.559   7.650
 6297POPC   C1B39655   4.428  41.336   8.550
 6297POPC   C2B39656   4.468  41.323   8.250
 6297POPC   C3B39657   4.450  41.380   7.950
 6297POPC   C4B39658   4.489  41.378   7.650
 6298POPC   NC339659  18.260  20.607   9.450
 6298POPC   PO439660  18.299  20.611   9.150
 6298POPC   GL139661  18.236  20.628   8.850
 6298POPC   GL239662  18.245  20.541   8.850
 6298POPC   C1A39663  18.290  20.574   8.550
 6298POPC   D2A39664  18.282  20.639   8.250
 6298POPC   C3A39665  18.320  20.627   7.950
 6298POPC   C4A39666  18.287  20.596   7.650
 6298POPC   C1B39667  18.134  20.367   8.550
 6298POPC   C2B39668  18.135  20.433   8.250
 6298POPC   C3B39669  18.152  20.430   7.950
 6298POPC   C4B39670  18.129  20.448   7.650
 6299POPC   NC339671  12.084  23.714   9.450
 6299POPC   PO439672  12.095  23.686   9.150
 6299POPC   GL139673  12.048  23.739   8.850
 6299POPC   GL239674  11.912  23.707   8.850
 6299POPC   C1A39675  12.034  23.724   8.550
 6299POPC   D2A39676  12.077  23.709   8.250
 6299POPC   C3A39677  12.108  23.686   7.950
 6299POPC   C4A39678  12.039  23.713   7.650
 6299POPC   C1B39679  11.847  23.657   8.550
 6299POPC   C2B39680  11.885  23.580   8.250
 6299POPC   C3B39681  11.840  23.605   7.950
 6299POPC   C4B39682  11.865  23.622   7.650
 6300POPC   NC339683  40.056   5.142   9.450
 6300POPC   PO439684  39.961   5.116   9.150
 6300POPC   GL139685  39.972   5.112   8.850
 6300POPC   GL239686  40.115   5.135   8.850
 6300POPC   C1A39687  40.036   5.058   8.550
 6300POPC   D2A39688  40.054   5.109   8.250
 6300POPC   C3A39689  39.987   5.108   7.950
 6300POPC   C4A39690  39.989   5.080   7.650
 6300POPC   C1B39691  40.182   5.209   8.550
 6300POPC   C2B39692  40.180   5.208   8.250
 6300POPC   C3B39693  40.186   5.210   7.950
 6300POPC   C4B39694  40.252   5.243   7.650
 6301POPC   NC339695   5.826   5.915   9.450
 6301POPC   PO439696   5.825   5.879   9.150
 6301POPC   GL139697   5.831   5.840   8.850
 6301POPC   GL239698   5.888   5.800   8.850
 6301POPC   C1A39699   5.848   5.916   8.550
 6301POPC   D2A39700   5.845   5.894   8.250
 6301POPC   C3A39701   5.867   5.878   7.950
 6301POPC   C4A39702   5.824   5.911   7.650
 6301POPC   C1B39703   6.001   5.682   8.550
 6301POPC   C2B39704   6.011   5.646   8.250
 6301POPC   C3B39705   6.023   5.656   7.950
 6301POPC   C4B39706   5.975   5.703   7.650
 6302POPC   NC339707   3.548  41.530   9.450
 6302POPC   PO439708   3.539  41.522   9.150
 6302POPC   GL139709   3.493  41.606   8.850
 6302POPC   GL239710   3.634  41.518   8.850
 6302POPC   C1A39711   3.544  41.597   8.550
 6302POPC   D2A39712   3.524  41.604   8.250
 6302POPC   C3A39713   3.526  41.543   7.950
 6302POPC   C4A39714   3.519  41.524   7.650
 6302POPC   C1B39715   3.788  41.498   8.550
 6302POPC   C2B39716   3.807  41.405   8.250
 6302POPC   C3B39717   3.798  41.478   7.950
 6302POPC   C4B39718   3.737  41.443   7.650
 6303POPC   NC339719  20.575  19.871   9.450
 6303POPC   PO439720  20.596  19.786   9.150
 6303POPC   GL139721  20.635  19.852   8.850
 6303POPC   GL239722  20.572  19.741   8.850
 6303POPC   C1A39723  20.596  19.815   8.550
 6303POPC   D2A39724  20.570  19.829   8.250
 6303POPC   C3A39725  20.600  19.873   7.950
 6303POPC   C4A39726  20.659  19.855   7.650
 6303POPC   C1B39727  20.597  19.564   8.550
 6303POPC   C2B39728  20.601  19.628   8.250
 6303POPC   C3B39729  20.559  19.619   7.950
 6303POPC   C4B39730  20.656  19.576   7.650
 6304POPC   NC339731  22.172   8.962   9.450
 6304POPC   PO439732  22.195   8.938   9.150
 6304POPC   GL139733  22.170   9.019   8.850
 6304POPC   GL239734  22.279   8.938   8.850
 6304POPC   C1A39735  22.145   8.988   8.550
 6304POPC   D2A39736  22.172   8.971   8.250
 6304POPC   C3A39737  22.148   8.926   7.950
 6304POPC   C4A39738  22.171   8.993   7.650
 6304POPC   C1B39739  22.423   8.887   8.550
 6304POPC   C2B39740  22.344   8.845   8.250
 6304POPC   C3B39741  22.413   8.909   7.950
 6304POPC   C4B39742  22.375   8.912   7.650
 6305POPC   NC339743  26.812  19.088   9.450
 6305POPC   PO439744  26.776  19.082   9.150
 6305POPC   GL139745  26.817  19.071   8.850
 6305POPC   GL239746  26.849  18.939   8.850
 6305POPC   C1A39747  26.857  19.044   8.550
 6305POPC   D2A39748  26.817  19.031   8.250
 6305POPC   C3A39749  26.805  19.058   7.950
 6305POPC   C4A39750  26.819  19.098   7.650
 6305POPC   C1B39751  26.887  18.778   8.550
 6305POPC   C2B39752  26.879  18.833   8.250
 6305POPC   C3B39753  26.922  18.860   7.950
 6305POPC   C4B39754  26.902  18.827   7.650
 6306POPC   NC339755  12.048   9.744   9.450
 6306POPC   PO439756  12.123   9.764   9.150
 6306POPC   GL139757  12.103   9.746   8.850
 6306POPC   GL239758  12.243   9.791   8.850
 6306POPC   C1A39759  12.088   9.703   8.550
 6306POPC   D2A39760  12.107   9.787   8.250
 6306POPC   C3A39761  12.116   9.768   7.950
 6306POPC   C4A39762  12.083   9.723   7.650
 6306POPC   C1B39763  12.315   9.747   8.550
 6306POPC   C2B39764  12.354   9.778   8.250
 6306POPC   C3B39765  12.338   9.740   7.950
 6306POPC   C4B39766  12.300   9.758   7.650
 6307POPC   NC339767  28.346  28.370   9.450
 6307POPC   PO439768  28.399  28.409   9.150
 6307POPC   GL139769  28.330  28.356   8.850
 6307POPC   GL239770  28.461  28.357   8.850
 6307POPC   C1A39771  28.382  28.344   8.550
 6307POPC   D2A39772  28.367  28.358   8.250
 6307POPC   C3A39773  28.347  28.382   7.950
 6307POPC   C4A39774  28.329  28.397   7.650
 6307POPC   C1B39775  28.611  28.412   8.550
 6307POPC   C2B39776  28.598  28.458   8.250
 6307POPC   C3B39777  28.572  28.377   7.950
 6307POPC   C4B39778  28.616  28.393   7.650
 6308POPC   NC339779  26.054   9.716   9.450
 6308POPC   PO439780  26.017   9.776   9.150
 6308POPC   GL139781  26.033   9.788   8.850
 6308POPC   GL239782  26.119   9.612   8.850
 6308POPC   C1A39783  25.997   9.773   8.550
 6308POPC   D2A39784  26.017   9.719   8.250
 6308POPC   C3A39785  26.055   9.734   7.950
 6308POPC   C4A39786  26.040   9.792   7.650
 6308POPC   C1B39787  26.164   9.522   8.550
 6308POPC   C2B39788  26.152   9.501   8.250
 6308POPC   C3B39789  26.192   9.554   7.950
 6308POPC   C4B39790  26.172   9.583   7.650
 6309POPC   NC339791  44.643  34.563   9.450
 6309POPC   PO439792  44.683  34.533   9.150
 6309POPC   GL139793  44.683  34.623   8.850
 6309POPC   GL239794  44.782  34.617   8.850
 6309POPC   C1A39795  44.648  34.594   8.550
 6309POPC   D2A39796  44.698  34.574   8.250
 6309POPC   C3A39797  44.661  34.562   7.950
 6309POPC   C4A39798  44.679  34.625   7.650
 6309POPC   C1B39799  44.922  34.745   8.550
 6309POPC   C2B39800  44.877  34.693   8.250
 6309POPC   C3B39801  44.838  34.716   7.950
 6309POPC   C4B39802  44.922  34.707   7.650
 6310POPC   NC339803   5.126  36.162   9.450
 6310POPC   PO439804   5.094  36.173   9.150
 6310POPC   GL139805   5.072  36.118   8.850
 6310POPC   GL239806   5.047  36.225   8.850
 6310POPC   C1A39807   5.134  36.110   8.550
 6310POPC   D2A39808   5.096  36.113   8.250
 6310POPC   C3A39809   5.131  36.140   7.950
 6310POPC   C4A39810   5.122  36.166   7.650
 6310POPC   C1B39811   5.079  36.410   8.550
 6310POPC   C2B39812   5.032  36.415   8.250
 6310POPC   C3B39813   5.039  36.327   7.950
 6310POPC   C4B39814   5.079  36.417   7.650
 6311POPC   NC339815  30.678  29.958   9.450
 6311POPC   PO439816  30.713  29.918   9.150
 6311POPC   GL139817  30.723  29.934   8.850
 6311POPC   GL239818  30.638  29.994   8.850
 6311POPC   C1A39819  30.689  29.928   8.550
 6311POPC   D2A39820  30.728  29.918   8.250
 6311POPC   C3A39821  30.703  29.919   7.950
 6311POPC   C4A39822  30.727  29.926   7.650
 6311POPC   C1B39823  30.593  30.125   8.550
 6311POPC   C2B39824  30.676  30.160   8.250
 6311POPC   C3B39825  30.593  30.122   7.950
 6311POPC   C4B39826  30.689  30.133   7.650
 6312POPC   NC339827  25.309  32.245   9.450
 6312POPC   PO439828  25.243  32.248   9.150
 6312POPC   GL139829  25.260  32.230   8.850
 6312POPC   GL239830  25.189  32.412   8.850
 6312POPC   C1A39831  25.250  32.233   8.550
 6312POPC   D2A39832  25.286  32.285   8.250
 6312POPC   C3A39833  25.243  32.276   7.950
 6312POPC   C4A39834  25.233  32.273   7.650
 6312POPC   C1B39835  25.241  32.456   8.550
 6312POPC   C2B39836  25.227  32.441   8.250
 6312POPC   C3B39837  25.204  32.537   7.950
 6312POPC   C4B39838  25.188  32.459   7.650
 6313POPC   NC339839  18.256   5.053   9.450
 6313POPC   PO439840  18.328   5.089   9.150
 6313POPC   GL139841  18.312   5.069   8.850
 6313POPC   GL239842  18.397   5.118   8.850
 6313POPC   C1A39843  18.261   5.111   8.550
 6313POPC   D2A39844  18.327   5.104   8.250
 6313POPC   C3A39845  18.249   5.118   7.950
 6313POPC   C4A39846  18.303   5.044   7.650
 6313POPC   C1B39847  18.544   5.165   8.550
 6313POPC   C2B39848  18.471   5.219   8.250
 6313POPC   C3B39849  18.478   5.161   7.950
 6313POPC   C4B39850  18.527   5.197   7.650
 6314POPC   NC339851  11.319   6.637   9.450
 6314POPC   PO439852  11.253   6.604   9.150
 6314POPC   GL139853  11.340   6.665   8.850
 6314POPC   GL239854  11.380   6.634   8.850
 6314POPC   C1A39855  11.316   6.668   8.550
 6314POPC   D2A39856  11.322   6.640   8.250
 6314POPC   C3A39857  11.250   6.670   7.950
 6314POPC   C4A39858  11.346   6.646   7.650
 6314POPC   C1B39859  11.509   6.722   8.550
 6314POPC   C2B39860  11.582   6.684   8.250
 6314POPC   C3B39861  11.572   6.726   7.950
 6314POPC   C4B39862  11.505   6.735   7.650
 6315POPC   NC339863  33.053  12.873   9.450
 6315POPC   PO439864  33.015  12.847   9.150
 6315POPC   GL139865  33.067  12.828   8.850
 6315POPC   GL239866  33.054  12.721   8.850
 6315POPC   C1A39867  33.049  12.816   8.550
 6315POPC   D2A39868  33.011  12.884   8.250
 6315POPC   C3A39869  33.013  12.866   7.950
 6315POPC   C4A39870  32.999  12.883   7.650
 6315POPC   C1B39871  32.995  12.574   8.550
 6315POPC   C2B39872  32.985  12.622   8.250
 6315POPC   C3B39873  33.009  12.642   7.950
 6315POPC   C4B39874  32.957  12.554   7.650
 6316POPC   NC339875   1.945  34.535   9.450
 6316POPC   PO439876   2.004  34.592   9.150
 6316POPC   GL139877   1.945  34.578   8.850
 6316POPC   GL239878   1.844  34.570   8.850
 6316POPC   C1A39879   1.978  34.614   8.550
 6316POPC   D2A39880   2.004  34.559   8.250
 6316POPC   C3A39881   1.969  34.617   7.950
 6316POPC   C4A39882   1.997  34.624   7.650
 6316POPC   C1B39883   1.733  34.583   8.550
 6316POPC   C2B39884   1.694  34.527   8.250
 6316POPC   C3B39885   1.759  34.555   7.950
 6316POPC   C4B39886   1.789  34.535   7.650
 6317POPC   NC339887  29.880  23.727   9.450
 6317POPC   PO439888  29.953  23.743   9.150
 6317POPC   GL139889  29.969  23.758   8.850
 6317POPC   GL239890  29.781  23.746   8.850
 6317POPC   C1A39891  29.960  23.713   8.550
 6317POPC   D2A39892  29.901  23.737   8.250
 6317POPC   C3A39893  29.920  23.737   7.950
 6317POPC   C4A39894  29.893  23.698   7.650
 6317POPC   C1B39895  29.681  23.650   8.550
 6317POPC   C2B39896  29.649  23.739   8.250
 6317POPC   C3B39897  29.659  23.702   7.950
 6317POPC   C4B39898  29.712  23.721   7.650
 6318POPC   NC339899  21.403  19.807   9.450
 6318POPC   PO439900  21.416  19.877   9.150
 6318POPC   GL139901  21.394  19.820   8.850
 6318POPC   GL239902  21.492  19.721   8.850
 6318POPC   C1A39903  21.417  19.834   8.550
 6318POPC   D2A39904  21.436  19.849   8.250
 6318POPC   C3A39905  21.433  19.832   7.950
 6318POPC   C4A39906  21.409  19.843   7.650
 6318POPC   C1B39907  21.550  19.679   8.550
 6318POPC   C2B39908  21.551  19.666   8.250
 6318POPC   C3B39909  21.523  19.694   7.950
 6318POPC   C4B39910  21.567  19.691   7.650
 6319POPC   NC339911  11.276  33.757   9.450
 6319POPC   PO439912  11.263  33.830   9.150
 6319POPC   GL139913  11.344  33.812   8.850
 6319POPC   GL239914  11.198  33.712   8.850
 6319POPC   C1A39915  11.252  33.755   8.550
 6319POPC   D2A39916  11.343  33.810   8.250
 6319POPC   C3A39917  11.315  33.849   7.950
 6319POPC   C4A39918  11.271  33.777   7.650
 6319POPC   C1B39919  11.077  33.705   8.550
 6319POPC   C2B39920  11.037  33.680   8.250
 6319POPC   C3B39921  11.056  33.712   7.950
 6319POPC   C4B39922  11.068  33.735   7.650
 6320POPC   NC339923  40.793  20.562   9.450
 6320POPC   PO439924  40.759  20.617   9.150
 6320POPC   GL139925  40.747  20.613   8.850
 6320POPC   GL239926  40.717  20.647   8.850
 6320POPC   C1A39927  40.749  20.656   8.550
 6320POPC   D2A39928  40.773  20.582   8.250
 6320POPC   C3A39929  40.746  20.624   7.950
 6320POPC   C4A39930  40.749  20.611   7.650
 6320POPC   C1B39931  40.608  20.771   8.550
 6320POPC   C2B39932  40.555  20.766   8.250
 6320POPC   C3B39933  40.592  20.768   7.950
 6320POPC   C4B39934  40.572  20.782   7.650
 6321POPC   NC339935  35.375  35.379   9.450
 6321POPC   PO439936  35.366  35.354   9.150
 6321POPC   GL139937  35.370  35.334   8.850
 6321POPC   GL239938  35.256  35.374   8.850
 6321POPC   C1A39939  35.363  35.335   8.550
 6321POPC   D2A39940  35.320  35.329   8.250
 6321POPC   C3A39941  35.334  35.395   7.950
 6321POPC   C4A39942  35.326  35.303   7.650
 6321POPC   C1B39943  35.086  35.519   8.550
 6321POPC   C2B39944  35.149  35.478   8.250
 6321POPC   C3B39945  35.096  35.472   7.950
 6321POPC   C4B39946  35.183  35.508   7.650
 6322POPC   NC339947  14.444   1.243   9.450
 6322POPC   PO439948  14.354   1.252   9.150
 6322POPC   GL139949  14.441   1.191   8.850
 6322POPC   GL239950  14.491   1.141   8.850
 6322POPC   C1A39951  14.400   1.212   8.550
 6322POPC   D2A39952  14.450   1.172   8.250
 6322POPC   C3A39953  14.434   1.242   7.950
 6322POPC   C4A39954  14.380   1.221   7.650
 6322POPC   C1B39955  14.458   0.998   8.550
 6322POPC   C2B39956  14.501   0.953   8.250
 6322POPC   C3B39957  14.486   0.990   7.950
 6322POPC   C4B39958  14.433   0.976   7.650
 6323POPC   NC339959  15.911   1.182   9.450
 6323POPC   PO439960  15.945   1.233   9.150
 6323POPC   GL139961  15.906   1.194   8.850
 6323POPC   GL239962  15.906   1.339   8.850
 6323POPC   C1A39963  15.954   1.263   8.550
 6323POPC   D2A39964  15.973   1.195   8.250
 6323POPC   C3A39965  15.954   1.234   7.950
 6323POPC   C4A39966  15.908   1.231   7.650
 6323POPC   C1B39967  15.804   1.335   8.550
 6323POPC   C2B39968  15.734   1.392   8.250
 6323POPC   C3B39969  15.770   1.398   7.950
 6323POPC   C4B39970  15.740   1.335   7.650
 6324POPC   NC339971  33.028  15.168   9.450
 6324POPC   PO439972  33.033  15.136   9.150
 6324POPC   GL139973  33.065  15.192   8.850
 6324POPC   GL239974  33.133  15.196   8.850
 6324POPC   C1A39975  33.009  15.142   8.550
 6324POPC   D2A39976  33.048  15.146   8.250
 6324POPC   C3A39977  33.019  15.149   7.950
 6324POPC   C4A39978  32.986  15.197   7.650
 6324POPC   C1B39979  33.230  15.118   8.550
 6324POPC   C2B39980  33.244  15.149   8.250
 6324POPC   C3B39981  33.274  15.125   7.950
 6324POPC   C4B39982  33.287  15.132   7.650
 6325POPC   NC339983  22.938   2.813   9.450
 6325POPC   PO439984  22.928   2.737   9.150
 6325POPC   GL139985  22.962   2.748   8.850
 6325POPC   GL239986  22.936   2.910   8.850
 6325POPC   C1A39987  22.917   2.729   8.550
 6325POPC   D2A39988  22.975   2.809   8.250
 6325POPC   C3A39989  22.941   2.745   7.950
 6325POPC   C4A39990  22.962   2.760   7.650
 6325POPC   C1B39991  22.897   2.965   8.550
 6325POPC   C2B39992  22.903   3.029   8.250
 6325POPC   C3B39993  22.905   3.041   7.950
 6325POPC   C4B39994  22.927   3.052   7.650
 6326POPC   NC339995  35.351  27.609   9.450
 6326POPC   PO439996  35.362  27.572   9.150
 6326POPC   GL139997  35.308  27.621   8.850
 6326POPC   GL239998  35.385  27.660   8.850
 6326POPC   C1A39999  35.338  27.626   8.550
 6326POPC   D2A40000  35.327  27.574   8.250
 6326POPC   C3A40001  35.377  27.588   7.950
 6326POPC   C4A40002  35.372  27.570   7.650
 6326POPC   C1B40003  35.456  27.753   8.550
 6326POPC   C2B40004  35.494  27.821   8.250
 6326POPC   C3B40005  35.457  27.809   7.950
 6326POPC   C4B40006  35.526  27.766   7.650
 6327POPC   NC340007  25.999  42.325   9.450
 6327POPC   PO440008  26.049  42.311   9.150
 6327POPC   GL140009  26.017  42.353   8.850
 6327POPC   GL240010  25.964  42.313   8.850
 6327POPC   C1A40011  26.040  42.349   8.550
 6327POPC   D2A40012  26.024  42.296   8.250
 6327POPC   C3A40013  26.042  42.324   7.950
 6327POPC   C4A40014  26.032  42.306   7.650
 6327POPC   C1B40015  25.780  42.243   8.550
 6327POPC   C2B40016  25.840  42.288   8.250
 6327POPC   C3B40017  25.774  42.224   7.950
 6327POPC   C4B40018  25.814  42.216   7.650
 6328POPC   NC340019  36.079  24.456   9.450
 6328POPC   PO440020  36.106  24.517   9.150
 6328POPC   GL140021  36.086  24.479   8.850
 6328POPC   GL240022  36.296  24.557   8.850
 6328POPC   C1A40023  36.151  24.491   8.550
 6328POPC   D2A40024  36.096  24.493   8.250
 6328POPC   C3A40025  36.116  24.471   7.950
 6328POPC   C4A40026  36.175  24.440   7.650
 6328POPC   C1B40027  36.407  24.569   8.550
 6328POPC   C2B40028  36.368  24.516   8.250
 6328POPC   C3B40029  36.404  24.509   7.950
 6328POPC   C4B40030  36.355  24.556   7.650
 6329POPC   NC340031   1.996  21.433   9.450
 6329POPC   PO440032   1.973  21.355   9.150
 6329POPC   GL140033   1.987  21.391   8.850
 6329POPC   GL240034   2.039  21.213   8.850
 6329POPC   C1A40035   1.977  21.348   8.550
 6329POPC   D2A40036   2.039  21.392   8.250
 6329POPC   C3A40037   2.025  21.364   7.950
 6329POPC   C4A40038   1.957  21.358   7.650
 6329POPC   C1B40039   1.997  21.112   8.550
 6329POPC   C2B40040   1.994  21.118   8.250
 6329POPC   C3B40041   2.077  21.176   7.950
 6329POPC   C4B40042   2.016  21.184   7.650
 6330POPC   NC340043  34.608   7.423   9.450
 6330POPC   PO440044  34.569   7.450   9.150
 6330POPC   GL140045  34.560   7.373   8.850
 6330POPC   GL240046  34.590   7.508   8.850
 6330POPC   C1A40047  34.530   7.458   8.550
 6330POPC   D2A40048  34.531   7.382   8.250
 6330POPC   C3A40049  34.590   7.449   7.950
 6330POPC   C4A40050  34.543   7.425   7.650
 6330POPC   C1B40051  34.647   7.711   8.550
 6330POPC   C2B40052  34.633   7.614   8.250
 6330POPC   C3B40053  34.602   7.652   7.950
 6330POPC   C4B40054  34.605   7.645   7.650
 6331POPC   NC340055  22.960  24.518   9.450
 6331POPC   PO440056  22.934  24.453   9.150
 6331POPC   GL140057  22.943  24.523   8.850
 6331POPC   GL240058  22.842  24.458   8.850
 6331POPC   C1A40059  22.967  24.487   8.550
 6331POPC   D2A40060  22.931  24.509   8.250
 6331POPC   C3A40061  22.981  24.460   7.950
 6331POPC   C4A40062  22.982  24.524   7.650
 6331POPC   C1B40063  22.658  24.428   8.550
 6331POPC   C2B40064  22.672  24.458   8.250
 6331POPC   C3B40065  22.727  24.482   7.950
 6331POPC   C4B40066  22.680  24.416   7.650
 6332POPC   NC340067  26.053  20.654   9.450
 6332POPC   PO440068  26.068  20.594   9.150
 6332POPC   GL140069  26.003  20.589   8.850
 6332POPC   GL240070  26.145  20.532   8.850
 6332POPC   C1A40071  26.031  20.627   8.550
 6332POPC   D2A40072  26.030  20.645   8.250
 6332POPC   C3A40073  26.072  20.619   7.950
 6332POPC   C4A40074  26.008  20.573   7.650
 6332POPC   C1B40075  26.196  20.470   8.550
 6332POPC   C2B40076  26.229  20.508   8.250
 6332POPC   C3B40077  26.242  20.503   7.950
 6332POPC   C4B40078  26.206  20.446   7.650
 6333POPC   NC340079  42.291  42.309   9.450
 6333POPC   PO440080  42.338  42.384   9.150
 6333POPC   GL140081  42.379  42.315   8.850
 6333POPC   GL240082  42.461  42.258   8.850
 6333POPC   C1A40083  42.330  42.290   8.550
 6333POPC   D2A40084  42.325  42.317   8.250
 6333POPC   C3A40085  42.348  42.371   7.950
 6333POPC   C4A40086  42.368  42.295   7.650
 6333POPC   C1B40087  42.510  42.132   8.550
 6333POPC   C2B40088  42.503  42.095   8.250
 6333POPC   C3B40089  42.512  42.141   7.950
 6333POPC   C4B40090  42.481  42.112   7.650
 6334POPC   NC340091  15.225   6.692   9.450
 6334POPC   PO440092  15.180   6.675   9.150
 6334POPC   GL140093  15.183   6.672   8.850
 6334POPC   GL240094  15.192   6.540   8.850
 6334POPC   C1A40095  15.163   6.643   8.550
 6334POPC   D2A40096  15.140   6.624   8.250
 6334POPC   C3A40097  15.208   6.599   7.950
 6334POPC   C4A40098  15.153   6.683   7.650
 6334POPC   C1B40099  15.194   6.367   8.550
 6334POPC   C2B40100  15.154   6.413   8.250
 6334POPC   C3B40101  15.113   6.433   7.950
 6334POPC   C4B40102  15.113   6.445   7.650
 6335POPC   NC340103   6.668  33.830   9.450
 6335POPC   PO440104   6.634  33.761   9.150
 6335POPC   GL140105   6.672  33.800   8.850
 6335POPC   GL240106   6.686  33.938   8.850
 6335POPC   C1A40107   6.635  33.827   8.550
 6335POPC   D2A40108   6.681  33.784   8.250
 6335POPC   C3A40109   6.653  33.846   7.950
 6335POPC   C4A40110   6.684  33.827   7.650
 6335POPC   C1B40111   6.812  33.980   8.550
 6335POPC   C2B40112   6.779  33.984   8.250
 6335POPC   C3B40113   6.762  34.011   7.950
 6335POPC   C4B40114   6.837  33.972   7.650
 6336POPC   NC340115  22.117  28.358   9.450
 6336POPC   PO440116  22.203  28.361   9.150
 6336POPC   GL140117  22.118  28.398   8.850
 6336POPC   GL240118  22.119  28.254   8.850
 6336POPC   C1A40119  22.140  28.417   8.550
 6336POPC   D2A40120  22.123  28.362   8.250
 6336POPC   C3A40121  22.185  28.365   7.950
 6336POPC   C4A40122  22.139  28.408   7.650
 6336POPC   C1B40123  22.058  28.144   8.550
 6336POPC   C2B40124  22.134  28.156   8.250
 6336POPC   C3B40125  22.101  28.084   7.950
 6336POPC   C4B40126  22.094  28.143   7.650
 6337POPC   NC340127  34.615  36.876   9.450
 6337POPC   PO440128  34.617  36.871   9.150
 6337POPC   GL140129  34.585  36.855   8.850
 6337POPC   GL240130  34.546  36.790   8.850
 6337POPC   C1A40131  34.542  36.892   8.550
 6337POPC   D2A40132  34.589  36.947   8.250
 6337POPC   C3A40133  34.608  36.934   7.950
 6337POPC   C4A40134  34.619  36.888   7.650
 6337POPC   C1B40135  34.518  36.689   8.550
 6337POPC   C2B40136  34.496  36.631   8.250
 6337POPC   C3B40137  34.579  36.645   7.950
 6337POPC   C4B40138  34.529  36.678   7.650
 6338POPC   NC340139  31.497  28.329   9.450
 6338POPC   PO440140  31.475  28.378   9.150
 6338POPC   GL140141  31.442  28.375   8.850
 6338POPC   GL240142  31.366  28.438   8.850
 6338POPC   C1A40143  31.462  28.401   8.550
 6338POPC   D2A40144  31.497  28.345   8.250
 6338POPC   C3A40145  31.513  28.381   7.950
 6338POPC   C4A40146  31.502  28.411   7.650
 6338POPC   C1B40147  31.242  28.463   8.550
 6338POPC   C2B40148  31.262  28.495   8.250
 6338POPC   C3B40149  31.189  28.415   7.950
 6338POPC   C4B40150  31.208  28.415   7.650
 6339POPC   NC340151   8.988   9.752   9.450
 6339POPC   PO440152   8.963   9.786   9.150
 6339POPC   GL140153   8.960   9.751   8.850
 6339POPC   GL240154   9.044   9.850   8.850
 6339POPC   C1A40155   9.018   9.787   8.550
 6339POPC   D2A40156   8.975   9.743   8.250
 6339POPC   C3A40157   8.975   9.715   7.950
 6339POPC   C4A40158   8.998   9.759   7.650
 6339POPC   C1B40159   9.151   9.882   8.550
 6339POPC   C2B40160   9.163   9.959   8.250
 6339POPC   C3B40161   9.114   9.943   7.950
 6339POPC   C4B40162   9.166   9.885   7.650
 6340POPC   NC340163  16.762  18.315   9.450
 6340POPC   PO440164  16.750  18.239   9.150
 6340POPC   GL140165  16.775  18.284   8.850
 6340POPC   GL240166  16.692  18.194   8.850
 6340POPC   C1A40167  16.715  18.254   8.550
 6340POPC   D2A40168  16.752  18.317   8.250
 6340POPC   C3A40169  16.740  18.245   7.950
 6340POPC   C4A40170  16.730  18.239   7.650
 6340POPC   C1B40171  16.683  18.085   8.550
 6340POPC   C2B40172  16.651  18.069   8.250
 6340POPC   C3B40173  16.640  18.006   7.950
 6340POPC   C4B40174  16.687  18.005   7.650
 6341POPC   NC340175   1.996  39.266   9.450
 6341POPC   PO440176   1.984  39.278   9.150
 6341POPC   GL140177   1.988  39.234   8.850
 6341POPC   GL240178   2.146  39.301   8.850
 6341POPC   C1A40179   2.018  39.253   8.550
 6341POPC   D2A40180   2.005  39.225   8.250
 6341POPC   C3A40181   1.954  39.232   7.950
 6341POPC   C4A40182   1.958  39.224   7.650
 6341POPC   C1B40183   2.211  39.341   8.550
 6341POPC   C2B40184   2.252  39.291   8.250
 6341POPC   C3B40185   2.262  39.300   7.950
 6341POPC   C4B40186   2.233  39.346   7.650
 6342POPC   NC340187  40.832  38.462   9.450
 6342POPC   PO440188  40.776  38.449   9.150
 6342POPC   GL140189  40.755  38.463   8.850
 6342POPC   GL240190  40.644  38.428   8.850
 6342POPC   C1A40191  40.811  38.414   8.550
 6342POPC   D2A40192  40.755  38.469   8.250
 6342POPC   C3A40193  40.749  38.477   7.950
 6342POPC   C4A40194  40.828  38.471   7.650
 6342POPC   C1B40195  40.584  38.371   8.550
 6342POPC   C2B40196  40.553  38.383   8.250
 6342POPC   C3B40197  40.548  38.357   7.950
 6342POPC   C4B40198  40.602  38.331   7.650
 6343POPC   NC340199  15.225  12.878   9.450
 6343POPC   PO440200  15.223  12.826   9.150
 6343POPC   GL140201  15.152  12.862   8.850
 6343POPC   GL240202  15.015  12.813   8.850
 6343POPC   C1A40203  15.137  12.874   8.550
 6343POPC   D2A40204  15.166  12.869   8.250
 6343POPC   C3A40205  15.139  12.895   7.950
 6343POPC   C4A40206  15.186  12.899   7.650
 6343POPC   C1B40207  14.893  12.848   8.550
 6343POPC   C2B40208  14.883  12.824   8.250
 6343POPC   C3B40209  14.892  12.847   7.950
 6343POPC   C4B40210  14.958  12.837   7.650
 6344POPC   NC340211   3.574   5.835   9.450
 6344POPC   PO440212   3.529   5.912   9.150
 6344POPC   GL140213   3.564   5.919   8.850
 6344POPC   GL240214   3.500   6.008   8.850
 6344POPC   C1A40215   3.509   5.829   8.550
 6344POPC   D2A40216   3.588   5.870   8.250
 6344POPC   C3A40217   3.576   5.884   7.950
 6344POPC   C4A40218   3.532   5.880   7.650
 6344POPC   C1B40219   3.392   6.043   8.550
 6344POPC   C2B40220   3.345   6.018   8.250
 6344POPC   C3B40221   3.383   6.077   7.950
 6344POPC   C4B40222   3.334   6.102   7.650
 6345POPC   NC340223  43.117   1.210   9.450
 6345POPC   PO440224  43.134   1.175   9.150
 6345POPC   GL140225  43.102   1.169   8.850
 6345POPC   GL240226  43.226   1.256   8.850
 6345POPC   C1A40227  43.129   1.188   8.550
 6345POPC   D2A40228  43.088   1.207   8.250
 6345POPC   C3A40229  43.154   1.194   7.950
 6345POPC   C4A40230  43.121   1.212   7.650
 6345POPC   C1B40231  43.312   1.194   8.550
 6345POPC   C2B40232  43.346   1.247   8.250
 6345POPC   C3B40233  43.375   1.168   7.950
 6345POPC   C4B40234  43.386   1.213   7.650
 6346POPC   NC340235  25.284  10.475   9.450
 6346POPC   PO440236  25.284  10.513   9.150
 6346POPC   GL140237  25.274  10.558   8.850
 6346POPC   GL240238  25.317  10.618   8.850
 6346POPC   C1A40239  25.223  10.506   8.550
 6346POPC   D2A40240  25.228  10.558   8.250
 6346POPC   C3A40241  25.310  10.485   7.950
 6346POPC   C4A40242  25.295  10.503   7.650
 6346POPC   C1B40243  25.397  10.728   8.550
 6346POPC   C2B40244  25.449  10.742   8.250
 6346POPC   C3B40245  25.432  10.735   7.950
 6346POPC   C4B40246  25.363  10.722   7.650
 6347POPC   NC340247  22.202   5.104   9.450
 6347POPC   PO440248  22.148   5.095   9.150
 6347POPC   GL140249  22.121   5.107   8.850
 6347POPC   GL240250  22.235   5.018   8.850
 6347POPC   C1A40251  22.209   5.062   8.550
 6347POPC   D2A40252  22.196   5.077   8.250
 6347POPC   C3A40253  22.206   5.062   7.950
 6347POPC   C4A40254  22.204   5.130   7.650
 6347POPC   C1B40255  22.420   4.969   8.550
 6347POPC   C2B40256  22.395   5.002   8.250
 6347POPC   C3B40257  22.434   5.017   7.950
 6347POPC   C4B40258  22.371   5.047   7.650
 6348POPC   NC340259  44.683  27.621   9.450
 6348POPC   PO440260  44.613  27.617   9.150
 6348POPC   GL140261  44.702  27.552   8.850
 6348POPC   GL240262  44.778  27.610   8.850
 6348POPC   C1A40263  44.666  27.558   8.550
 6348POPC   D2A40264  44.697  27.585   8.250
 6348POPC   C3A40265  44.660  27.594   7.950
 6348POPC   C4A40266  44.635  27.557   7.650
 6348POPC   C1B40267  44.914  27.606   8.550
 6348POPC   C2B40268  44.957  27.538   8.250
 6348POPC   C3B40269  44.958  27.556   7.950
 6348POPC   C4B40270  44.923  27.543   7.650
 6349POPC   NC340271  26.819  40.055   9.450
 6349POPC   PO440272  26.842  40.001   9.150
 6349POPC   GL140273  26.776  40.048   8.850
 6349POPC   GL240274  26.806  39.891   8.850
 6349POPC   C1A40275  26.808  39.969   8.550
 6349POPC   D2A40276  26.772  40.012   8.250
 6349POPC   C3A40277  26.818  39.995   7.950
 6349POPC   C4A40278  26.856  39.957   7.650
 6349POPC   C1B40279  26.731  39.718   8.550
 6349POPC   C2B40280  26.749  39.776   8.250
 6349POPC   C3B40281  26.767  39.727   7.950
 6349POPC   C4B40282  26.765  39.740   7.650
 6350POPC   NC340283  38.465  42.366   9.450
 6350POPC   PO440284  38.452  42.372   9.150
 6350POPC   GL140285  38.473  42.305   8.850
 6350POPC   GL240286  38.442  42.415   8.850
 6350POPC   C1A40287  38.453  42.383   8.550
 6350POPC   D2A40288  38.477  42.286   8.250
 6350POPC   C3A40289  38.496  42.379   7.950
 6350POPC   C4A40290  38.466  42.312   7.650
 6350POPC   C1B40291  38.527  42.606   8.550
 6350POPC   C2B40292  38.557  42.595   8.250
 6350POPC   C3B40293  38.560  42.563   7.950
 6350POPC   C4B40294  38.494  42.606   7.650
 6351POPC   NC340295   1.237  25.245   9.450
 6351POPC   PO440296   1.194  25.280   9.150
 6351POPC   GL140297   1.232  25.278   8.850
 6351POPC   GL240298   1.059  25.178   8.850
 6351POPC   C1A40299   1.208  25.226   8.550
 6351POPC   D2A40300   1.181  25.290   8.250
 6351POPC   C3A40301   1.254  25.262   7.950
 6351POPC   C4A40302   1.254  25.223   7.650
 6351POPC   C1B40303   1.026  25.169   8.550
 6351POPC   C2B40304   1.032  25.114   8.250
 6351POPC   C3B40305   1.040  25.181   7.950
 6351POPC   C4B40306   0.975  25.185   7.650
 6352POPC   NC340307  26.043  27.635   9.450
 6352POPC   PO440308  26.078  27.566   9.150
 6352POPC   GL140309  26.049  27.575   8.850
 6352POPC   GL240310  25.937  27.596   8.850
 6352POPC   C1A40311  26.091  27.599   8.550
 6352POPC   D2A40312  26.005  27.591   8.250
 6352POPC   C3A40313  26.009  27.598   7.950
 6352POPC   C4A40314  26.001  27.627   7.650
 6352POPC   C1B40315  25.810  27.592   8.550
 6352POPC   C2B40316  25.783  27.615   8.250
 6352POPC   C3B40317  25.810  27.578   7.950
 6352POPC   C4B40318  25.806  27.589   7.650
 6353POPC   NC340319  37.710  11.291   9.450
 6353POPC   PO440320  37.706  11.347   9.150
 6353POPC   GL140321  37.638  11.267   8.850
 6353POPC   GL240322  37.587  11.441   8.850
 6353POPC   C1A40323  37.694  11.253   8.550
 6353POPC   D2A40324  37.655  11.326   8.250
 6353POPC   C3A40325  37.701  11.327   7.950
 6353POPC   C4A40326  37.644  11.251   7.650
 6353POPC   C1B40327  37.580  11.493   8.550
 6353POPC   C2B40328  37.503  11.494   8.250
 6353POPC   C3B40329  37.552  11.468   7.950
 6353POPC   C4B40330  37.579  11.492   7.650
 6354POPC   NC340331  33.757  40.054   9.450
 6354POPC   PO440332  33.824  40.030   9.150
 6354POPC   GL140333  33.781  39.996   8.850
 6354POPC   GL240334  33.657  40.092   8.850
 6354POPC   C1A40335  33.781  40.020   8.550
 6354POPC   D2A40336  33.824  39.998   8.250
 6354POPC   C3A40337  33.818  40.032   7.950
 6354POPC   C4A40338  33.811  40.045   7.650
 6354POPC   C1B40339  33.576  40.084   8.550
 6354POPC   C2B40340  33.578  40.099   8.250
 6354POPC   C3B40341  33.599  40.082   7.950
 6354POPC   C4B40342  33.581  40.074   7.650
 6355POPC   NC340343  31.514   8.157   9.450
 6355POPC   PO440344  31.464   8.239   9.150
 6355POPC   GL140345  31.435   8.188   8.850
 6355POPC   GL240346  31.606   8.116   8.850
 6355POPC   C1A40347  31.427   8.159   8.550
 6355POPC   D2A40348  31.423   8.189   8.250
 6355POPC   C3A40349  31.476   8.239   7.950
 6355POPC   C4A40350  31.509   8.163   7.650
 6355POPC   C1B40351  31.601   8.001   8.550
 6355POPC   C2B40352  31.653   8.008   8.250
 6355POPC   C3B40353  31.648   8.054   7.950
 6355POPC   C4B40354  31.686   8.047   7.650
 6356POPC   NC340355  10.486  40.813   9.450
 6356POPC   PO440356  10.544  40.795   9.150
 6356POPC   GL140357  10.514  40.810   8.850
 6356POPC   GL240358  10.440  40.656   8.850
 6356POPC   C1A40359  10.574  40.805   8.550
 6356POPC   D2A40360  10.489  40.760   8.250
 6356POPC   C3A40361  10.570  40.765   7.950
 6356POPC   C4A40362  10.523  40.818   7.650
 6356POPC   C1B40363  10.393  40.602   8.550
 6356POPC   C2B40364  10.310  40.641   8.250
 6356POPC   C3B40365  10.351  40.559   7.950
 6356POPC   C4B40366  10.334  40.630   7.650
 6357POPC   NC340367  43.877  42.373   9.450
 6357POPC   PO440368  43.922  42.377   9.150
 6357POPC   GL140369  43.902  42.298   8.850
 6357POPC   GL240370  43.905  42.411   8.850
 6357POPC   C1A40371  43.865  42.333   8.550
 6357POPC   D2A40372  43.855  42.294   8.250
 6357POPC   C3A40373  43.904  42.361   7.950
 6357POPC   C4A40374  43.909  42.296   7.650
 6357POPC   C1B40375  44.018  42.529   8.550
 6357POPC   C2B40376  43.947  42.611   8.250
 6357POPC   C3B40377  43.950  42.535   7.950
 6357POPC   C4B40378  43.996  42.555   7.650
 6358POPC   NC340379  35.332  19.861   9.450
 6358POPC   PO440380  35.369  19.841   9.150
 6358POPC   GL140381  35.365  19.825   8.850
 6358POPC   GL240382  35.288  19.961   8.850
 6358POPC   C1A40383  35.376  19.852   8.550
 6358POPC   D2A40384  35.332  19.830   8.250
 6358POPC   C3A40385  35.324  19.875   7.950
 6358POPC   C4A40386  35.363  19.858   7.650
 6358POPC   C1B40387  35.286  20.036   8.550
 6358POPC   C2B40388  35.271  20.076   8.250
 6358POPC   C3B40389  35.228  20.019   7.950
 6358POPC   C4B40390  35.231  20.090   7.650
 6359POPC   NC340391  38.476  26.012   9.450
 6359POPC   PO440392  38.504  26.081   9.150
 6359POPC   GL140393  38.475  26.068   8.850
 6359POPC   GL240394  38.373  26.132   8.850
 6359POPC   C1A40395  38.428  26.000   8.550
 6359POPC   D2A40396  38.417  26.069   8.250
 6359POPC   C3A40397  38.496  26.044   7.950
 6359POPC   C4A40398  38.491  26.029   7.650
 6359POPC   C1B40399  38.255  26.248   8.550
 6359POPC   C2B40400  38.240  26.271   8.250
 6359POPC   C3B40401  38.270  26.215   7.950
 6359POPC   C4B40402  38.317  26.209   7.650
 6360POPC   NC340403  29.903  33.014   9.450
 6360POPC   PO440404  29.944  33.032   9.150
 6360POPC   GL140405  29.918  32.982   8.850
 6360POPC   GL240406  29.840  32.992   8.850
 6360POPC   C1A40407  29.880  33.022   8.550
 6360POPC   D2A40408  29.880  33.073   8.250
 6360POPC   C3A40409  29.904  32.997   7.950
 6360POPC   C4A40410  29.885  32.981   7.650
 6360POPC   C1B40411  29.700  32.905   8.550
 6360POPC   C2B40412  29.717  32.957   8.250
 6360POPC   C3B40413  29.687  32.894   7.950
 6360POPC   C4B40414  29.701  32.899   7.650
 6361POPC   NC340415  23.702  20.622   9.450
 6361POPC   PO440416  23.749  20.620   9.150
 6361POPC   GL140417  23.715  20.636   8.850
 6361POPC   GL240418  23.640  20.727   8.850
 6361POPC   C1A40419  23.716  20.571   8.550
 6361POPC   D2A40420  23.684  20.562   8.250
 6361POPC   C3A40421  23.756  20.592   7.950
 6361POPC   C4A40422  23.713  20.589   7.650
 6361POPC   C1B40423  23.577  20.771   8.550
 6361POPC   C2B40424  23.561  20.839   8.250
 6361POPC   C3B40425  23.536  20.837   7.950
 6361POPC   C4B40426  23.576  20.769   7.650
 6362POPC   NC340427   4.288   2.023   9.450
 6362POPC   PO440428   4.309   1.954   9.150
 6362POPC   GL140429   4.305   1.949   8.850
 6362POPC   GL240430   4.272   1.822   8.850
 6362POPC   C1A40431   4.311   1.972   8.550
 6362POPC   D2A40432   4.307   1.961   8.250
 6362POPC   C3A40433   4.333   1.978   7.950
 6362POPC   C4A40434   4.300   1.986   7.650
 6362POPC   C1B40435   4.317   1.736   8.550
 6362POPC   C2B40436   4.296   1.708   8.250
 6362POPC   C3B40437   4.313   1.773   7.950
 6362POPC   C4B40438   4.333   1.736   7.650
 6363POPC   NC340439   0.415   7.456   9.450
 6363POPC   PO440440   0.470   7.443   9.150
 6363POPC   GL140441   0.411   7.452   8.850
 6363POPC   GL240442   0.396   7.281   8.850
 6363POPC   C1A40443   0.426   7.385   8.550
 6363POPC   D2A40444   0.477   7.458   8.250
 6363POPC   C3A40445   0.470   7.378   7.950
 6363POPC   C4A40446   0.389   7.394   7.650
 6363POPC   C1B40447   0.395   7.222   8.550
 6363POPC   C2B40448   0.374   7.214   8.250
 6363POPC   C3B40449   0.366   7.204   7.950
 6363POPC   C4B40450   0.392   7.227   7.650
 6364POPC   NC340451  26.787   8.226   9.450
 6364POPC   PO440452  26.800   8.233   9.150
 6364POPC   GL140453  26.775   8.227   8.850
 6364POPC   GL240454  26.822   8.282   8.850
 6364POPC   C1A40455  26.848   8.240   8.550
 6364POPC   D2A40456  26.785   8.177   8.250
 6364POPC   C3A40457  26.797   8.205   7.950
 6364POPC   C4A40458  26.828   8.157   7.650
 6364POPC   C1B40459  26.761   8.445   8.550
 6364POPC   C2B40460  26.711   8.390   8.250
 6364POPC   C3B40461  26.755   8.458   7.950
 6364POPC   C4B40462  26.741   8.415   7.650
 6365POPC   NC340463  43.160  36.088   9.450
 6365POPC   PO440464  43.152  36.156   9.150
 6365POPC   GL140465  43.116  36.096   8.850
 6365POPC   GL240466  43.226  36.173   8.850
 6365POPC   C1A40467  43.102  36.153   8.550
 6365POPC   D2A40468  43.153  36.153   8.250
 6365POPC   C3A40469  43.154  36.152   7.950
 6365POPC   C4A40470  43.118  36.116   7.650
 6365POPC   C1B40471  43.401  36.120   8.550
 6365POPC   C2B40472  43.403  36.178   8.250
 6365POPC   C3B40473  43.317  36.183   7.950
 6365POPC   C4B40474  43.381  36.128   7.650
 6366POPC   NC340475  30.731  27.559   9.450
 6366POPC   PO440476  30.732  27.608   9.150
 6366POPC   GL140477  30.679  27.545   8.850
 6366POPC   GL240478  30.620  27.460   8.850
 6366POPC   C1A40479  30.721  27.609   8.550
 6366POPC   D2A40480  30.656  27.588   8.250
 6366POPC   C3A40481  30.654  27.627   7.950
 6366POPC   C4A40482  30.690  27.557   7.650
 6366POPC   C1B40483  30.636  27.315   8.550
 6366POPC   C2B40484  30.619  27.386   8.250
 6366POPC   C3B40485  30.686  27.363   7.950
 6366POPC   C4B40486  30.602  27.395   7.650
 6367POPC   NC340487  26.040  29.932   9.450
 6367POPC   PO440488  26.004  29.938   9.150
 6367POPC   GL140489  26.004  29.874   8.850
 6367POPC   GL240490  25.919  29.815   8.850
 6367POPC   C1A40491  25.998  29.875   8.550
 6367POPC   D2A40492  26.047  29.932   8.250
 6367POPC   C3A40493  26.010  29.895   7.950
 6367POPC   C4A40494  26.085  29.910   7.650
 6367POPC   C1B40495  25.837  29.789   8.550
 6367POPC   C2B40496  25.848  29.699   8.250
 6367POPC   C3B40497  25.832  29.760   7.950
 6367POPC   C4B40498  25.823  29.720   7.650
 6368POPC   NC340499  41.596  12.087   9.450
 6368POPC   PO440500  41.541  12.119   9.150
 6368POPC   GL140501  41.603  12.103   8.850
 6368POPC   GL240502  41.569  12.142   8.850
 6368POPC   C1A40503  41.538  12.061   8.550
 6368POPC   D2A40504  41.539  12.067   8.250
 6368POPC   C3A40505  41.554  12.126   7.950
 6368POPC   C4A40506  41.541  12.048   7.650
 6368POPC   C1B40507  41.722  12.264   8.550
 6368POPC   C2B40508  41.647  12.274   8.250
 6368POPC   C3B40509  41.627  12.315   7.950
 6368POPC   C4B40510  41.651  12.291   7.650
 6369POPC   NC340511  13.644  29.170   9.450
 6369POPC   PO440512  13.654  29.166   9.150
 6369POPC   GL140513  13.624  29.104   8.850
 6369POPC   GL240514  13.522  29.296   8.850
 6369POPC   C1A40515  13.613  29.130   8.550
 6369POPC   D2A40516  13.646  29.148   8.250
 6369POPC   C3A40517  13.592  29.155   7.950
 6369POPC   C4A40518  13.619  29.100   7.650
 6369POPC   C1B40519  13.441  29.304   8.550
 6369POPC   C2B40520  13.467  29.326   8.250
 6369POPC   C3B40521  13.440  29.345   7.950
 6369POPC   C4B40522  13.487  29.386   7.650
 6370POPC   NC340523  29.148  24.460   9.450
 6370POPC   PO440524  29.125  24.516   9.150
 6370POPC   GL140525  29.119  24.470   8.850
 6370POPC   GL240526  29.162  24.603   8.850
 6370POPC   C1A40527  29.125  24.512   8.550
 6370POPC   D2A40528  29.112  24.486   8.250
 6370POPC   C3A40529  29.157  24.495   7.950
 6370POPC   C4A40530  29.131  24.504   7.650
 6370POPC   C1B40531  29.232  24.772   8.550
 6370POPC   C2B40532  29.247  24.721   8.250
 6370POPC   C3B40533  29.206  24.706   7.950
 6370POPC   C4B40534  29.272  24.691   7.650
 6371POPC   NC340535  26.041  10.483   9.450
 6371POPC   PO440536  26.018  10.532   9.150
 6371POPC   GL140537  26.027  10.561   8.850
 6371POPC   GL240538  26.196  10.535   8.850
 6371POPC   C1A40539  26.024  10.480   8.550
 6371POPC   D2A40540  26.078  10.479   8.250
 6371POPC   C3A40541  25.993  10.541   7.950
 6371POPC   C4A40542  26.031  10.486   7.650
 6371POPC   C1B40543  26.322  10.649   8.550
 6371POPC   C2B40544  26.250  10.664   8.250
 6371POPC   C3B40545  26.301  10.637   7.950
 6371POPC   C4B40546  26.246  10.630   7.650
 6372POPC   NC340547   9.019  26.006   9.450
 6372POPC   PO440548   9.021  26.040   9.150
 6372POPC   GL140549   9.010  26.076   8.850
 6372POPC   GL240550   9.090  26.058   8.850
 6372POPC   C1A40551   8.929  26.079   8.550
 6372POPC   D2A40552   8.973  26.073   8.250
 6372POPC   C3A40553   8.949  25.996   7.950
 6372POPC   C4A40554   8.995  26.062   7.650
 6372POPC   C1B40555   9.187  26.034   8.550
 6372POPC   C2B40556   9.181  26.078   8.250
 6372POPC   C3B40557   9.187  26.059   7.950
 6372POPC   C4B40558   9.189  26.076   7.650
 6373POPC   NC340559  37.674  12.114   9.450
 6373POPC   PO440560  37.689  12.039   9.150
 6373POPC   GL140561  37.659  12.059   8.850
 6373POPC   GL240562  37.804  12.109   8.850
 6373POPC   C1A40563  37.716  12.120   8.550
 6373POPC   D2A40564  37.728  12.116   8.250
 6373POPC   C3A40565  37.689  12.073   7.950
 6373POPC   C4A40566  37.654  12.057   7.650
 6373POPC   C1B40567  37.938  12.178   8.550
 6373POPC   C2B40568  37.894  12.119   8.250
 6373POPC   C3B40569  37.964  12.201   7.950
 6373POPC   C4B40570  37.900  12.149   7.650
 6374POPC   NC340571  15.917  12.118   9.450
 6374POPC   PO440572  15.912  12.087   9.150
 6374POPC   GL140573  15.995  12.049   8.850
 6374POPC   GL240574  15.998  11.952   8.850
 6374POPC   C1A40575  15.934  12.118   8.550
 6374POPC   D2A40576  15.983  12.109   8.250
 6374POPC   C3A40577  15.984  12.095   7.950
 6374POPC   C4A40578  15.921  12.099   7.650
 6374POPC   C1B40579  16.127  11.864   8.550
 6374POPC   C2B40580  16.173  11.890   8.250
 6374POPC   C3B40581  16.147  11.887   7.950
 6374POPC   C4B40582  16.103  11.879   7.650
 6375POPC   NC340583  44.682   1.979   9.450
 6375POPC   PO440584  44.679   2.012   9.150
 6375POPC   GL140585  44.701   1.978   8.850
 6375POPC   GL240586  44.579   2.106   8.850
 6375POPC   C1A40587  44.693   1.992   8.550
 6375POPC   D2A40588  44.651   1.977   8.250
 6375POPC   C3A40589  44.635   2.004   7.950
 6375POPC   C4A40590  44.692   2.026   7.650
 6375POPC   C1B40591  44.498   2.219   8.550
 6375POPC   C2B40592  44.524   2.224   8.250
 6375POPC   C3B40593  44.529   2.183   7.950
 6375POPC   C4B40594  44.544   2.197   7.650
 6376POPC   NC340595   0.415  19.080   9.450
 6376POPC   PO440596   0.400  19.025   9.150
 6376POPC   GL140597   0.402  19.103   8.850
 6376POPC   GL240598   0.378  18.946   8.850
 6376POPC   C1A40599   0.423  19.036   8.550
 6376POPC   D2A40600   0.445  19.081   8.250
 6376POPC   C3A40601   0.461  19.103   7.950
 6376POPC   C4A40602   0.469  19.063   7.650
 6376POPC   C1B40603   0.209  18.848   8.550
 6376POPC   C2B40604   0.214  18.845   8.250
 6376POPC   C3B40605   0.266  18.908   7.950
 6376POPC   C4B40606   0.213  18.940   7.650
 6377POPC   NC340607  12.803  17.474   9.450
 6377POPC   PO440608  12.895  17.550   9.150
 6377POPC   GL140609  12.829  17.521   8.850
 6377POPC   GL240610  12.838  17.626   8.850
 6377POPC   C1A40611  12.886  17.517   8.550
 6377POPC   D2A40612  12.888  17.555   8.250
 6377POPC   C3A40613  12.818  17.485   7.950
 6377POPC   C4A40614  12.867  17.500   7.650
 6377POPC   C1B40615  12.871  17.744   8.550
 6377POPC   C2B40616  12.947  17.735   8.250
 6377POPC   C3B40617  12.893  17.783   7.950
 6377POPC   C4B40618  12.959  17.767   7.650
 6378POPC   NC340619  15.143   4.299   5.550
 6378POPC   PO440620  15.133   4.337   5.850
 6378POPC   GL140621  15.139   4.297   6.150
 6378POPC   GL240622  15.289   4.252   6.150
 6378POPC   C1A40623  15.139   4.291   6.450
 6378POPC   D2A40624  15.193   4.283   6.750
 6378POPC   C3A40625  15.221   4.365   7.050
 6378POPC   C4A40626  15.173   4.302   7.350
 6378POPC   C1B40627  15.342   4.106   6.450
 6378POPC   C2B40628  15.322   4.178   6.750
 6378POPC   C3B40629  15.305   4.175   7.050
 6378POPC   C4B40630  15.367   4.121   7.350
 6379POPC   NC340631  13.598  32.991   5.550
 6379POPC   PO440632  13.590  33.047   5.850
 6379POPC   GL140633  13.623  33.020   6.150
 6379POPC   GL240634  13.561  32.942   6.150
 6379POPC   C1A40635  13.664  33.046   6.450
 6379POPC   D2A40636  13.666  33.024   6.750
 6379POPC   C3A40637  13.610  32.992   7.050
 6379POPC   C4A40638  13.665  33.021   7.350
 6379POPC   C1B40639  13.402  32.870   6.450
 6379POPC   C2B40640  13.411  32.909   6.750
 6379POPC   C3B40641  13.466  32.883   7.050
 6379POPC   C4B40642  13.433  32.892   7.350
 6380POPC   NC340643  21.360  22.890   5.550
 6380POPC   PO440644  21.409  22.893   5.850
 6380POPC   GL140645  21.368  22.971   6.150
 6380POPC   GL240646  21.354  22.842   6.150
 6380POPC   C1A40647  21.338  22.931   6.450
 6380POPC   D2A40648  21.428  22.911   6.750
 6380POPC   C3A40649  21.353  22.979   7.050
 6380POPC   C4A40650  21.410  22.901   7.350
 6380POPC   C1B40651  21.405  22.731   6.450
 6380POPC   C2B40652  21.375  22.735   6.750
 6380POPC   C3B40653  21.424  22.677   7.050
 6380POPC   C4B40654  21.390  22.696   7.350
 6381POPC   NC340655  12.862  22.977   5.550
 6381POPC   PO440656  12.836  22.968   5.850
 6381POPC   GL140657  12.897  22.898   6.150
 6381POPC   GL240658  12.726  22.884   6.150
 6381POPC   C1A40659  12.850  22.953   6.450
 6381POPC   D2A40660  12.893  22.948   6.750
 6381POPC   C3A40661  12.849  22.971   7.050
 6381POPC   C4A40662  12.865  22.959   7.350
 6381POPC   C1B40663  12.670  22.799   6.450
 6381POPC   C2B40664  12.624  22.844   6.750
 6381POPC   C3B40665  12.656  22.839   7.050
 6381POPC   C4B40666  12.643  22.853   7.350
 6382POPC   NC340667   8.937   8.937   5.550
 6382POPC   PO440668   8.936   8.954   5.850
 6382POPC   GL140669   8.981   8.925   6.150
 6382POPC   GL240670   9.057   8.970   6.150
 6382POPC   C1A40671   8.975   9.018   6.450
 6382POPC   D2A40672   8.992   8.957   6.750
 6382POPC   C3A40673   8.947   8.942   7.050
 6382POPC   C4A40674   8.948   8.946   7.350
 6382POPC   C1B40675   9.255   9.028   6.450
 6382POPC   C2B40676   9.230   9.003   6.750
 6382POPC   C3B40677   9.242   9.036   7.050
 6382POPC   C4B40678   9.190   9.056   7.350
 6383POPC   NC340679  36.104  22.196   5.550
 6383POPC   PO440680  36.125  22.123   5.850
 6383POPC   GL140681  36.112  22.127   6.150
 6383POPC   GL240682  36.239  22.195   6.150
 6383POPC   C1A40683  36.116  22.206   6.450
 6383POPC   D2A40684  36.119  22.156   6.750
 6383POPC   C3A40685  36.166  22.149   7.050
 6383POPC   C4A40686  36.116  22.145   7.350
 6383POPC   C1B40687  36.401  22.098   6.450
 6383POPC   C2B40688  36.412  22.157   6.750
 6383POPC   C3B40689  36.406  22.170   7.050
 6383POPC   C4B40690  36.361  22.105   7.350
 6384POPC   NC340691  18.274  32.228   5.550
 6384POPC   PO440692  18.278  32.212   5.850
 6384POPC   GL140693  18.245  32.215   6.150
 6384POPC   GL240694  18.201  32.222   6.150
 6384POPC   C1A40695  18.267  32.209   6.450
 6384POPC   D2A40696  18.319  32.228   6.750
 6384POPC   C3A40697  18.235  32.261   7.050
 6384POPC   C4A40698  18.233  32.229   7.350
 6384POPC   C1B40699  18.043  32.112   6.450
 6384POPC   C2B40700  18.015  32.168   6.750
 6384POPC   C3B40701  18.096  32.143   7.050
 6384POPC   C4B40702  18.031  32.161   7.350
 6385POPC   NC340703  36.082  38.442   5.550
 6385POPC   PO440704  36.148  38.483   5.850
 6385POPC   GL140705  36.119  38.440   6.150
 6385POPC   GL240706  36.265  38.542   6.150
 6385POPC   C1A40707  36.100  38.489   6.450
 6385POPC   D2A40708  36.097  38.427   6.750
 6385POPC   C3A40709  36.145  38.465   7.050
 6385POPC   C4A40710  36.173  38.478   7.350
 6385POPC   C1B40711  36.318  38.674   6.450
 6385POPC   C2B40712  36.269  38.581   6.750
 6385POPC   C3B40713  36.305  38.617   7.050
 6385POPC   C4B40714  36.316  38.652   7.350
 6386POPC   NC340715  44.663  29.904   5.550
 6386POPC   PO440716  44.696  29.948   5.850
 6386POPC   GL140717  44.677  29.899   6.150
 6386POPC   GL240718  44.804  29.945   6.150
 6386POPC   C1A40719  44.698  29.941   6.450
 6386POPC   D2A40720  44.646  29.959   6.750
 6386POPC   C3A40721  44.619  29.943   7.050
 6386POPC   C4A40722  44.706  29.896   7.350
 6386POPC   C1B40723  44.902  30.060   6.450
 6386POPC   C2B40724  44.910  30.046   6.750
 6386POPC   C3B40725  44.910  29.989   7.050
 6386POPC   C4B40726  44.861  30.030   7.350
 6387POPC   NC340727  15.193  19.048   5.550
 6387POPC   PO440728  15.216  19.103   5.850
 6387POPC   GL140729  15.197  19.032   6.150
 6387POPC   GL240730  15.252  18.962   6.150
 6387POPC   C1A40731  15.187  19.056   6.450
 6387POPC   D2A40732  15.193  19.058   6.750
 6387POPC   C3A40733  15.168  19.092   7.050
 6387POPC   C4A40734  15.150  19.060   7.350
 6387POPC   C1B40735  15.288  18.813   6.450
 6387POPC   C2B40736  15.289  18.871   6.750
 6387POPC   C3B40737  15.318  18.896   7.050
 6387POPC   C4B40738  15.376  18.903   7.350
 6388POPC   NC340739  28.404  40.042   5.550
 6388POPC   PO440740  28.393  40.010   5.850
 6388POPC   GL140741  28.378  40.020   6.150
 6388POPC   GL240742  28.433  40.139   6.150
 6388POPC   C1A40743  28.343  40.022   6.450
 6388POPC   D2A40744  28.354  39.980   6.750
 6388POPC   C3A40745  28.346  39.989   7.050
 6388POPC   C4A40746  28.413  40.012   7.350
 6388POPC   C1B40747  28.435  40.212   6.450
 6388POPC   C2B40748  28.507  40.223   6.750
 6388POPC   C3B40749  28.506  40.183   7.050
 6388POPC   C4B40750  28.525  40.204   7.350
 6389POPC   NC340751  38.491  14.398   5.550
 6389POPC   PO440752  38.476  14.395   5.850
 6389POPC   GL140753  38.409  14.357   6.150
 6389POPC   GL240754  38.481  14.270   6.150
 6389POPC   C1A40755  38.484  14.380   6.450
 6389POPC   D2A40756  38.420  14.355   6.750
 6389POPC   C3A40757  38.441  14.386   7.050
 6389POPC   C4A40758  38.482  14.366   7.350
 6389POPC   C1B40759  38.473  14.147   6.450
 6389POPC   C2B40760  38.411  14.156   6.750
 6389POPC   C3B40761  38.391  14.153   7.050
 6389POPC   C4B40762  38.465  14.144   7.350
 6390POPC   NC340763  18.269  40.824   5.550
 6390POPC   PO440764  18.307  40.811   5.850
 6390POPC   GL140765  18.236  40.748   6.150
 6390POPC   GL240766  18.300  40.671   6.150
 6390POPC   C1A40767  18.312  40.820   6.450
 6390POPC   D2A40768  18.269  40.777   6.750
 6390POPC   C3A40769  18.283  40.805   7.050
 6390POPC   C4A40770  18.269  40.829   7.350
 6390POPC   C1B40771  18.281  40.567   6.450
 6390POPC   C2B40772  18.236  40.532   6.750
 6390POPC   C3B40773  18.295  40.545   7.050
 6390POPC   C4B40774  18.294  40.574   7.350
 6391POPC   NC340775  37.711  38.500   5.550
 6391POPC   PO440776  37.717  38.478   5.850
 6391POPC   GL140777  37.703  38.497   6.150
 6391POPC   GL240778  37.611  38.524   6.150
 6391POPC   C1A40779  37.683  38.409   6.450
 6391POPC   D2A40780  37.678  38.420   6.750
 6391POPC   C3A40781  37.672  38.477   7.050
 6391POPC   C4A40782  37.658  38.406   7.350
 6391POPC   C1B40783  37.518  38.704   6.450
 6391POPC   C2B40784  37.573  38.673   6.750
 6391POPC   C3B40785  37.519  38.644   7.050
 6391POPC   C4B40786  37.597  38.662   7.350
 6392POPC   NC340787  12.865  37.660   5.550
 6392POPC   PO440788  12.866  37.700   5.850
 6392POPC   GL140789  12.871  37.652   6.150
 6392POPC   GL240790  12.962  37.772   6.150
 6392POPC   C1A40791  12.835  37.630   6.450
 6392POPC   D2A40792  12.828  37.637   6.750
 6392POPC   C3A40793  12.876  37.649   7.050
 6392POPC   C4A40794  12.839  37.648   7.350
 6392POPC   C1B40795  13.067  37.770   6.450
 6392POPC   C2B40796  13.068  37.846   6.750
 6392POPC   C3B40797  13.069  37.796   7.050
 6392POPC   C4B40798  13.082  37.799   7.350
 6393POPC   NC340799  15.975   5.109   5.550
 6393POPC   PO440800  15.983   5.093   5.850
 6393POPC   GL140801  15.959   5.139   6.150
 6393POPC   GL240802  16.090   5.105   6.150
 6393POPC   C1A40803  16.005   5.053   6.450
 6393POPC   D2A40804  15.960   5.072   6.750
 6393POPC   C3A40805  15.965   5.058   7.050
 6393POPC   C4A40806  15.914   5.059   7.350
 6393POPC   C1B40807  16.224   5.126   6.450
 6393POPC   C2B40808  16.226   5.088   6.750
 6393POPC   C3B40809  16.211   5.116   7.050
 6393POPC   C4B40810  16.194   5.107   7.350
 6394POPC   NC340811  23.715  20.643   5.550
 6394POPC   PO440812  23.759  20.603   5.850
 6394POPC   GL140813  23.698  20.632   6.150
 6394POPC   GL240814  23.829  20.657   6.150
 6394POPC   C1A40815  23.697  20.655   6.450
 6394POPC   D2A40816  23.664  20.646   6.750
 6394POPC   C3A40817  23.669  20.607   7.050
 6394POPC   C4A40818  23.725  20.633   7.350
 6394POPC   C1B40819  23.981  20.672   6.450
 6394POPC   C2B40820  23.983  20.619   6.750
 6394POPC   C3B40821  23.947  20.584   7.050
 6394POPC   C4B40822  23.993  20.654   7.350
 6395POPC   NC340823   7.436  14.405   5.550
 6395POPC   PO440824   7.468  14.385   5.850
 6395POPC   GL140825   7.412  14.453   6.150
 6395POPC   GL240826   7.544  14.329   6.150
 6395POPC   C1A40827   7.425  14.450   6.450
 6395POPC   D2A40828   7.447  14.436   6.750
 6395POPC   C3A40829   7.420  14.402   7.050
 6395POPC   C4A40830   7.418  14.355   7.350
 6395POPC   C1B40831   7.634  14.227   6.450
 6395POPC   C2B40832   7.648  14.264   6.750
 6395POPC   C3B40833   7.598  14.249   7.050
 6395POPC   C4B40834   7.657  14.253   7.350
 6396POPC   NC340835  43.115  30.719   5.550
 6396POPC   PO440836  43.080  30.685   5.850
 6396POPC   GL140837  43.145  30.672   6.150
 6396POPC   GL240838  43.207  30.601   6.150
 6396POPC   C1A40839  43.082  30.724   6.450
 6396POPC   D2A40840  43.124  30.732   6.750
 6396POPC   C3A40841  43.070  30.712   7.050
 6396POPC   C4A40842  43.104  30.714   7.350
 6396POPC   C1B40843  43.309  30.506   6.450
 6396POPC   C2B40844  43.264  30.493   6.750
 6396POPC   C3B40845  43.318  30.488   7.050
 6396POPC   C4B40846  43.330  30.530   7.350
 6397POPC   NC340847  32.990  29.936   5.550
 6397POPC   PO440848  33.064  29.926   5.850
 6397POPC   GL140849  33.041  29.929   6.150
 6397POPC   GL240850  33.115  29.998   6.150
 6397POPC   C1A40851  33.039  29.914   6.450
 6397POPC   D2A40852  33.061  29.954   6.750
 6397POPC   C3A40853  33.021  29.941   7.050
 6397POPC   C4A40854  33.021  29.883   7.350
 6397POPC   C1B40855  33.212  30.085   6.450
 6397POPC   C2B40856  33.225  29.999   6.750
 6397POPC   C3B40857  33.283  30.069   7.050
 6397POPC   C4B40858  33.281  30.003   7.350
 6398POPC   NC340859   0.414  23.749   5.550
 6398POPC   PO440860   0.450  23.673   5.850
 6398POPC   GL140861   0.471  23.712   6.150
 6398POPC   GL240862   0.572  23.738   6.150
 6398POPC   C1A40863   0.445  23.742   6.450
 6398POPC   D2A40864   0.462  23.714   6.750
 6398POPC   C3A40865   0.419  23.763   7.050
 6398POPC   C4A40866   0.388  23.743   7.350
 6398POPC   C1B40867   0.670  23.769   6.450
 6398POPC   C2B40868   0.700  23.769   6.750
 6398POPC   C3B40869   0.646  23.675   7.050
 6398POPC   C4B40870   0.697  23.759   7.350
 6399POPC   NC340871  26.033  18.269   5.550
 6399POPC   PO440872  26.037  18.267   5.850
 6399POPC   GL140873  26.065  18.256   6.150
 6399POPC   GL240874  26.046  18.118   6.150
 6399POPC   C1A40875  26.068  18.282   6.450
 6399POPC   D2A40876  26.014  18.236   6.750
 6399POPC   C3A40877  26.082  18.327   7.050
 6399POPC   C4A40878  26.006  18.296   7.350
 6399POPC   C1B40879  25.962  18.046   6.450
 6399POPC   C2B40880  25.998  18.089   6.750
 6399POPC   C3B40881  25.963  18.065   7.050
 6399POPC   C4B40882  25.951  18.000   7.350
 6400POPC   NC340883   3.525  19.104   5.550
 6400POPC   PO440884   3.545  19.095   5.850
 6400POPC   GL140885   3.529  19.088   6.150
 6400POPC   GL240886   3.621  19.190   6.150
 6400POPC   C1A40887   3.571  19.054   6.450
 6400POPC   D2A40888   3.514  19.015   6.750
 6400POPC   C3A40889   3.523  19.019   7.050
 6400POPC   C4A40890   3.494  19.024   7.350
 6400POPC   C1B40891   3.670  19.258   6.450
 6400POPC   C2B40892   3.652  19.233   6.750
 6400POPC   C3B40893   3.693  19.241   7.050
 6400POPC   C4B40894   3.719  19.265   7.350
 6401POPC   NC340895  42.384  19.854   5.550
 6401POPC   PO440896  42.292  19.875   5.850
 6401POPC   GL140897  42.304  19.840   6.150
 6401POPC   GL240898  42.364  19.993   6.150
 6401POPC   C1A40899  42.376  19.858   6.450
 6401POPC   D2A40900  42.291  19.856   6.750
 6401POPC   C3A40901  42.312  19.790   7.050
 6401POPC   C4A40902  42.375  19.815   7.350
 6401POPC   C1B40903  42.453  20.041   6.450
 6401POPC   C2B40904  42.383  20.107   6.750
 6401POPC   C3B40905  42.384  20.030   7.050
 6401POPC   C4B40906  42.388  20.061   7.350
 6402POPC   NC340907   5.143  22.985   5.550
 6402POPC   PO440908   5.099  22.988   5.850
 6402POPC   GL140909   5.063  22.932   6.150
 6402POPC   GL240910   5.229  22.883   6.150
 6402POPC   C1A40911   5.050  22.901   6.450
 6402POPC   D2A40912   5.134  22.919   6.750
 6402POPC   C3A40913   5.130  22.983   7.050
 6402POPC   C4A40914   5.122  22.948   7.350
 6402POPC   C1B40915   5.271  22.775   6.450
 6402POPC   C2B40916   5.302  22.828   6.750
 6402POPC   C3B40917   5.290  22.768   7.050
 6402POPC   C4B40918   5.288  22.851   7.350
 6403POPC   NC340919  42.337  32.222   5.550
 6403POPC   PO440920  42.336  32.278   5.850
 6403POPC   GL140921  42.320  32.268   6.150
 6403POPC   GL240922  42.182  32.194   6.150
 6403POPC   C1A40923  42.337  32.270   6.450
 6403POPC   D2A40924  42.297  32.232   6.750
 6403POPC   C3A40925  42.347  32.221   7.050
 6403POPC   C4A40926  42.333  32.245   7.350
 6403POPC   C1B40927  42.128  32.092   6.450
 6403POPC   C2B40928  42.092  32.072   6.750
 6403POPC   C3B40929  42.117  32.097   7.050
 6403POPC   C4B40930  42.120  32.140   7.350
 6404POPC   NC340931  32.994  37.698   5.550
 6404POPC   PO440932  32.990  37.667   5.850
 6404POPC   GL140933  33.064  37.710   6.150
 6404POPC   GL240934  33.170  37.658   6.150
 6404POPC   C1A40935  33.007  37.668   6.450
 6404POPC   D2A40936  32.980  37.718   6.750
 6404POPC   C3A40937  33.031  37.665   7.050
 6404POPC   C4A40938  33.029  37.661   7.350
 6404POPC   C1B40939  33.306  37.646   6.450
 6404POPC   C2B40940  33.246  37.577   6.750
 6404POPC   C3B40941  33.253  37.622   7.050
 6404POPC   C4B40942  33.299  37.648   7.350
 6405POPC   NC340943  20.657  31.491   5.550
 6405POPC   PO440944  20.630  31.500   5.850
 6405POPC   GL140945  20.647  31.479   6.150
 6405POPC   GL240946  20.594  31.611   6.150
 6405POPC   C1A40947  20.632  31.518   6.450
 6405POPC   D2A40948  20.641  31.453   6.750
 6405POPC   C3A40949  20.651  31.447   7.050
 6405POPC   C4A40950  20.644  31.438   7.350
 6405POPC   C1B40951  20.444  31.719   6.450
 6405POPC   C2B40952  20.491  31.658   6.750
 6405POPC   C3B40953  20.469  31.649   7.050
 6405POPC   C4B40954  20.517  31.661   7.350
 6406POPC   NC340955  43.900   1.237   5.550
 6406POPC   PO440956  43.854   1.164   5.850
 6406POPC   GL140957  43.917   1.262   6.150
 6406POPC   GL240958  43.867   1.136   6.150
 6406POPC   C1A40959  43.926   1.261   6.450
 6406POPC   D2A40960  43.854   1.243   6.750
 6406POPC   C3A40961  43.915   1.219   7.050
 6406POPC   C4A40962  43.843   1.257   7.350
 6406POPC   C1B40963  43.964   0.932   6.450
 6406POPC   C2B40964  43.953   0.920   6.750
 6406POPC   C3B40965  43.920   0.920   7.050
 6406POPC   C4B40966  43.936   0.994   7.350
 6407POPC   NC340967  15.960   7.376   5.550
 6407POPC   PO440968  15.924   7.407   5.850
 6407POPC   GL140969  15.962   7.451   6.150
 6407POPC   GL240970  15.949   7.261   6.150
 6407POPC   C1A40971  15.990   7.418   6.450
 6407POPC   D2A40972  15.939   7.455   6.750
 6407POPC   C3A40973  15.984   7.396   7.050
 6407POPC   C4A40974  15.949   7.437   7.350
 6407POPC   C1B40975  15.901   7.210   6.450
 6407POPC   C2B40976  15.920   7.177   6.750
 6407POPC   C3B40977  15.899   7.179   7.050
 6407POPC   C4B40978  15.895   7.192   7.350
 6408POPC   NC340979  13.649  16.766   5.550
 6408POPC   PO440980  13.609  16.726   5.850
 6408POPC   GL140981  13.625  16.701   6.150
 6408POPC   GL240982  13.519  16.730   6.150
 6408POPC   C1A40983  13.582  16.687   6.450
 6408POPC   D2A40984  13.587  16.728   6.750
 6408POPC   C3A40985  13.669  16.777   7.050
 6408POPC   C4A40986  13.655  16.684   7.350
 6408POPC   C1B40987  13.379  16.746   6.450
 6408POPC   C2B40988  13.367  16.655   6.750
 6408POPC   C3B40989  13.403  16.656   7.050
 6408POPC   C4B40990  13.359  16.730   7.350
 6409POPC   NC340991  43.086  21.427   5.550
 6409POPC   PO440992  43.072  21.349   5.850
 6409POPC   GL140993  43.073  21.352   6.150
 6409POPC   GL240994  43.173  21.464   6.150
 6409POPC   C1A40995  43.093  21.363   6.450
 6409POPC   D2A40996  43.098  21.338   6.750
 6409POPC   C3A40997  43.159  21.368   7.050
 6409POPC   C4A40998  43.070  21.395   7.350
 6409POPC   C1B40999  43.339  21.588   6.450
 6409POPC   C2B41000  43.318  21.528   6.750
 6409POPC   C3B41001  43.317  21.586   7.050
 6409POPC   C4B41002  43.248  21.531   7.350
 6410POPC   NC341003  41.581  16.770   5.550
 6410POPC   PO441004  41.523  16.702   5.850
 6410POPC   GL141005  41.530  16.695   6.150
 6410POPC   GL241006  41.703  16.734   6.150
 6410POPC   C1A41007  41.593  16.714   6.450
 6410POPC   D2A41008  41.537  16.766   6.750
 6410POPC   C3A41009  41.608  16.762   7.050
 6410POPC   C4A41010  41.518  16.726   7.350
 6410POPC   C1B41011  41.809  16.732   6.450
 6410POPC   C2B41012  41.766  16.758   6.750
 6410POPC   C3B41013  41.856  16.700   7.050
 6410POPC   C4B41014  41.843  16.729   7.350
 6411POPC   NC341015  27.594   5.821   5.550
 6411POPC   PO441016  27.571   5.821   5.850
 6411POPC   GL141017  27.637   5.896   6.150
 6411POPC   GL241018  27.646   5.769   6.150
 6411POPC   C1A41019  27.560   5.865   6.450
 6411POPC   D2A41020  27.633   5.896   6.750
 6411POPC   C3A41021  27.600   5.885   7.050
 6411POPC   C4A41022  27.579   5.831   7.350
 6411POPC   C1B41023  27.701   5.609   6.450
 6411POPC   C2B41024  27.637   5.674   6.750
 6411POPC   C3B41025  27.662   5.628   7.050
 6411POPC   C4B41026  27.642   5.631   7.350
 6412POPC   NC341027  41.569  11.303   5.550
 6412POPC   PO441028  41.526  11.300   5.850
 6412POPC   GL141029  41.529  11.313   6.150
 6412POPC   GL241030  41.462  11.181   6.150
 6412POPC   C1A41031  41.603  11.290   6.450
 6412POPC   D2A41032  41.547  11.335   6.750
 6412POPC   C3A41033  41.584  11.258   7.050
 6412POPC   C4A41034  41.551  11.339   7.350
 6412POPC   C1B41035  41.346  11.135   6.450
 6412POPC   C2B41036  41.338  11.151   6.750
 6412POPC   C3B41037  41.387  11.112   7.050
 6412POPC   C4B41038  41.360  11.114   7.350
 6413POPC   NC341039  26.014  41.556   5.550
 6413POPC   PO441040  26.031  41.511   5.850
 6413POPC   GL141041  26.085  41.584   6.150
 6413POPC   GL241042  25.901  41.579   6.150
 6413POPC   C1A41043  26.005  41.540   6.450
 6413POPC   D2A41044  26.036  41.600   6.750
 6413POPC   C3A41045  26.018  41.546   7.050
 6413POPC   C4A41046  26.081  41.542   7.350
 6413POPC   C1B41047  25.749  41.610   6.450
 6413POPC   C2B41048  25.749  41.600   6.750
 6413POPC   C3B41049  25.771  41.543   7.050
 6413POPC   C4B41050  25.809  41.569   7.350
 6414POPC   NC341051  35.352  38.493   5.550
 6414POPC   PO441052  35.337  38.479   5.850
 6414POPC   GL141053  35.338  38.441   6.150
 6414POPC   GL241054  35.419  38.567   6.150
 6414POPC   C1A41055  35.362  38.444   6.450
 6414POPC   D2A41056  35.391  38.450   6.750
 6414POPC   C3A41057  35.353  38.419   7.050
 6414POPC   C4A41058  35.366  38.480   7.350
 6414POPC   C1B41059  35.522  38.626   6.450
 6414POPC   C2B41060  35.456  38.622   6.750
 6414POPC   C3B41061  35.477  38.620   7.050
 6414POPC   C4B41062  35.443  38.621   7.350
 6415POPC   NC341063   2.008  36.090   5.550
 6415POPC   PO441064   1.976  36.164   5.850
 6415POPC   GL141065   1.999  36.164   6.150
 6415POPC   GL241066   1.905  35.996   6.150
 6415POPC   C1A41067   2.016  36.128   6.450
 6415POPC   D2A41068   1.971  36.143   6.750
 6415POPC   C3A41069   1.980  36.150   7.050
 6415POPC   C4A41070   1.946  36.080   7.350
 6415POPC   C1B41071   1.811  35.970   6.450
 6415POPC   C2B41072   1.792  35.897   6.750
 6415POPC   C3B41073   1.874  35.906   7.050
 6415POPC   C4B41074   1.798  35.932   7.350
 6416POPC   NC341075  15.962  40.826   5.550
 6416POPC   PO441076  15.999  40.735   5.850
 6416POPC   GL141077  15.918  40.796   6.150
 6416POPC   GL241078  16.105  40.795   6.150
 6416POPC   C1A41079  15.913  40.788   6.450
 6416POPC   D2A41080  15.976  40.749   6.750
 6416POPC   C3A41081  15.989  40.780   7.050
 6416POPC   C4A41082  15.924  40.822   7.350
 6416POPC   C1B41083  16.182  40.900   6.450
 6416POPC   C2B41084  16.194  40.883   6.750
 6416POPC   C3B41085  16.216  40.882   7.050
 6416POPC   C4B41086  16.171  40.936   7.350
 6417POPC   NC341087  34.570  23.727   5.550
 6417POPC   PO441088  34.579  23.704   5.850
 6417POPC   GL141089  34.593  23.702   6.150
 6417POPC   GL241090  34.536  23.790   6.150
 6417POPC   C1A41091  34.606  23.740   6.450
 6417POPC   D2A41092  34.530  23.731   6.750
 6417POPC   C3A41093  34.571  23.689   7.050
 6417POPC   C4A41094  34.594  23.680   7.350
 6417POPC   C1B41095  34.594  23.975   6.450
 6417POPC   C2B41096  34.590  24.000   6.750
 6417POPC   C3B41097  34.589  23.962   7.050
 6417POPC   C4B41098  34.634  24.001   7.350
 6418POPC   NC341099  27.628  41.554   5.550
 6418POPC   PO441100  27.552  41.514   5.850
 6418POPC   GL141101  27.596  41.523   6.150
 6418POPC   GL241102  27.712  41.591   6.150
 6418POPC   C1A41103  27.620  41.512   6.450
 6418POPC   D2A41104  27.585  41.607   6.750
 6418POPC   C3A41105  27.600  41.556   7.050
 6418POPC   C4A41106  27.626  41.583   7.350
 6418POPC   C1B41107  27.825  41.630   6.450
 6418POPC   C2B41108  27.849  41.605   6.750
 6418POPC   C3B41109  27.794  41.590   7.050
 6418POPC   C4B41110  27.831  41.657   7.350
 6419POPC   NC341111  26.796  39.958   5.550
 6419POPC   PO441112  26.807  39.970   5.850
 6419POPC   GL141113  26.867  40.048   6.150
 6419POPC   GL241114  26.955  39.947   6.150
 6419POPC   C1A41115  26.772  40.050   6.450
 6419POPC   D2A41116  26.778  39.963   6.750
 6419POPC   C3A41117  26.801  40.007   7.050
 6419POPC   C4A41118  26.836  39.970   7.350
 6419POPC   C1B41119  26.994  39.861   6.450
 6419POPC   C2B41120  26.997  39.880   6.750
 6419POPC   C3B41121  27.035  39.823   7.050
 6419POPC   C4B41122  27.039  39.867   7.350
 6420POPC   NC341123   1.965  26.020   5.550
 6420POPC   PO441124   2.016  26.064   5.850
 6420POPC   GL141125   2.010  26.079   6.150
 6420POPC   GL241126   1.888  26.094   6.150
 6420POPC   C1A41127   1.954  26.068   6.450
 6420POPC   D2A41128   1.957  26.076   6.750
 6420POPC   C3A41129   2.033  26.081   7.050
 6420POPC   C4A41130   1.984  26.035   7.350
 6420POPC   C1B41131   1.823  26.173   6.450
 6420POPC   C2B41132   1.766  26.205   6.750
 6420POPC   C3B41133   1.756  26.252   7.050
 6420POPC   C4B41134   1.770  26.192   7.350
 6421POPC   NC341135  26.050  40.025   5.550
 6421POPC   PO441136  26.026  39.965   5.850
 6421POPC   GL141137  26.007  40.052   6.150
 6421POPC   GL241138  26.134  40.153   6.150
 6421POPC   C1A41139  26.050  40.012   6.450
 6421POPC   D2A41140  26.040  40.040   6.750
 6421POPC   C3A41141  26.032  40.051   7.050
 6421POPC   C4A41142  26.052  40.046   7.350
 6421POPC   C1B41143  26.178  40.174   6.450
 6421POPC   C2B41144  26.235  40.156   6.750
 6421POPC   C3B41145  26.226  40.181   7.050
 6421POPC   C4B41146  26.179  40.156   7.350
 6422POPC   NC341147  29.175  18.292   5.550
 6422POPC   PO441148  29.109  18.239   5.850
 6422POPC   GL141149  29.136  18.332   6.150
 6422POPC   GL241150  29.285  18.297   6.150
 6422POPC   C1A41151  29.118  18.235   6.450
 6422POPC   D2A41152  29.111  18.290   6.750
 6422POPC   C3A41153  29.115  18.270   7.050
 6422POPC   C4A41154  29.130  18.315   7.350
 6422POPC   C1B41155  29.352  18.372   6.450
 6422POPC   C2B41156  29.350  18.387   6.750
 6422POPC   C3B41157  29.337  18.345   7.050
 6422POPC   C4B41158  29.345  18.346   7.350
 6423POPC   NC341159   9.727  34.611   5.550
 6423POPC   PO441160   9.759  34.552   5.850
 6423POPC   GL141161   9.785  34.562   6.150
 6423POPC   GL241162   9.611  34.646   6.150
 6423POPC   C1A41163   9.736  34.527   6.450
 6423POPC   D2A41164   9.792  34.590   6.750
 6423POPC   C3A41165   9.777  34.555   7.050
 6423POPC   C4A41166   9.762  34.596   7.350
 6423POPC   C1B41167   9.491  34.685   6.450
 6423POPC   C2B41168   9.530  34.722   6.750
 6423POPC   C3B41169   9.560  34.716   7.050
 6423POPC   C4B41170   9.542  34.738   7.350
 6424POPC   NC341171  31.477  42.343   5.550
 6424POPC   PO441172  31.498  42.319   5.850
 6424POPC   GL141173  31.500  42.324   6.150
 6424POPC   GL241174  31.518  42.252   6.150
 6424POPC   C1A41175  31.509  42.315   6.450
 6424POPC   D2A41176  31.448  42.382   6.750
 6424POPC   C3A41177  31.442  42.318   7.050
 6424POPC   C4A41178  31.501  42.355   7.350
 6424POPC   C1B41179  31.539  42.087   6.450
 6424POPC   C2B41180  31.595  42.119   6.750
 6424POPC   C3B41181  31.536  42.084   7.050
 6424POPC   C4B41182  31.623  42.090   7.350
 6425POPC   NC341183  14.452  19.085   5.550
 6425POPC   PO441184  14.451  19.018   5.850
 6425POPC   GL141185  14.373  19.083   6.150
 6425POPC   GL241186  14.267  19.024   6.150
 6425POPC   C1A41187  14.411  19.052   6.450
 6425POPC   D2A41188  14.379  19.079   6.750
 6425POPC   C3A41189  14.422  19.023   7.050
 6425POPC   C4A41190  14.433  19.068   7.350
 6425POPC   C1B41191  14.184  19.074   6.450
 6425POPC   C2B41192  14.185  18.994   6.750
 6425POPC   C3B41193  14.199  19.015   7.050
 6425POPC   C4B41194  14.134  19.050   7.350
 6426POPC   NC341195  33.049  22.984   5.550
 6426POPC   PO441196  33.054  22.915   5.850
 6426POPC   GL141197  33.019  22.970   6.150
 6426POPC   GL241198  32.970  23.010   6.150
 6426POPC   C1A41199  33.041  22.945   6.450
 6426POPC   D2A41200  33.045  22.951   6.750
 6426POPC   C3A41201  33.013  22.899   7.050
 6426POPC   C4A41202  32.999  22.908   7.350
 6426POPC   C1B41203  32.935  23.208   6.450
 6426POPC   C2B41204  32.867  23.142   6.750
 6426POPC   C3B41205  32.952  23.204   7.050
 6426POPC   C4B41206  32.867  23.189   7.350
 6427POPC   NC341207   0.459  24.529   5.550
 6427POPC   PO441208   0.389  24.537   5.850
 6427POPC   GL141209   0.446  24.477   6.150
 6427POPC   GL241210   0.536  24.479   6.150
 6427POPC   C1A41211   0.435  24.531   6.450
 6427POPC   D2A41212   0.464  24.530   6.750
 6427POPC   C3A41213   0.461  24.538   7.050
 6427POPC   C4A41214   0.481  24.447   7.350
 6427POPC   C1B41215   0.716  24.364   6.450
 6427POPC   C2B41216   0.702  24.443   6.750
 6427POPC   C3B41217   0.679  24.397   7.050
 6427POPC   C4B41218   0.634  24.434   7.350
 6428POPC   NC341219  34.591  32.260   5.550
 6428POPC   PO441220  34.625  32.276   5.850
 6428POPC   GL141221  34.564  32.277   6.150
 6428POPC   GL241222  34.535  32.398   6.150
 6428POPC   C1A41223  34.533  32.249   6.450
 6428POPC   D2A41224  34.566  32.220   6.750
 6428POPC   C3A41225  34.607  32.230   7.050
 6428POPC   C4A41226  34.531  32.292   7.350
 6428POPC   C1B41227  34.556  32.513   6.450
 6428POPC   C2B41228  34.513  32.486   6.750
 6428POPC   C3B41229  34.541  32.507   7.050
 6428POPC   C4B41230  34.546  32.493   7.350
 6429POPC   NC341231  35.309  34.612   5.550
 6429POPC   PO441232  35.361  34.583   5.850
 6429POPC   GL141233  35.320  34.577   6.150
 6429POPC   GL241234  35.458  34.419   6.150
 6429POPC   C1A41235  35.386  34.571   6.450
 6429POPC   D2A41236  35.350  34.597   6.750
 6429POPC   C3A41237  35.378  34.587   7.050
 6429POPC   C4A41238  35.361  34.567   7.350
 6429POPC   C1B41239  35.453  34.336   6.450
 6429POPC   C2B41240  35.488  34.355   6.750
 6429POPC   C3B41241  35.522  34.320   7.050
 6429POPC   C4B41242  35.515  34.378   7.350
 6430POPC   NC341243  10.523   3.551   5.550
 6430POPC   PO441244  10.554   3.518   5.850
 6430POPC   GL141245  10.549   3.502   6.150
 6430POPC   GL241246  10.582   3.384   6.150
 6430POPC   C1A41247  10.514   3.494   6.450
 6430POPC   D2A41248  10.555   3.548   6.750
 6430POPC   C3A41249  10.496   3.564   7.050
 6430POPC   C4A41250  10.491   3.521   7.350
 6430POPC   C1B41251  10.666   3.342   6.450
 6430POPC   C2B41252  10.667   3.345   6.750
 6430POPC   C3B41253  10.611   3.335   7.050
 6430POPC   C4B41254  10.591   3.268   7.350
 6431POPC   NC341255  33.808  29.920   5.550
 6431POPC   PO441256  33.843  29.957   5.850
 6431POPC   GL141257  33.849  29.883   6.150
 6431POPC   GL241258  33.680  29.989   6.150
 6431POPC   C1A41259  33.773  29.895   6.450
 6431POPC   D2A41260  33.820  29.969   6.750
 6431POPC   C3A41261  33.770  29.882   7.050
 6431POPC   C4A41262  33.823  29.905   7.350
 6431POPC   C1B41263  33.678  30.108   6.450
 6431POPC   C2B41264  33.677  30.112   6.750
 6431POPC   C3B41265  33.593  30.118   7.050
 6431POPC   C4B41266  33.608  30.103   7.350
 6432POPC   NC341267   1.260  42.295   5.550
 6432POPC   PO441268   1.173  42.372   5.850
 6432POPC   GL141269   1.209  42.305   6.150
 6432POPC   GL241270   1.378  42.360   6.150
 6432POPC   C1A41271   1.190  42.297   6.450
 6432POPC   D2A41272   1.242  42.293   6.750
 6432POPC   C3A41273   1.189  42.366   7.050
 6432POPC   C4A41274   1.204  42.327   7.350
 6432POPC   C1B41275   1.484  42.309   6.450
 6432POPC   C2B41276   1.451  42.294   6.750
 6432POPC   C3B41277   1.513  42.338   7.050
 6432POPC   C4B41278   1.463  42.363   7.350
 6433POPC   NC341279   5.919   1.960   5.550
 6433POPC   PO441280   5.865   1.979   5.850
 6433POPC   GL141281   5.855   2.015   6.150
 6433POPC   GL241282   5.929   1.847   6.150
 6433POPC   C1A41283   5.856   2.001   6.450
 6433POPC   D2A41284   5.908   2.008   6.750
 6433POPC   C3A41285   5.823   1.996   7.050
 6433POPC   C4A41286   5.869   1.994   7.350
 6433POPC   C1B41287   6.023   1.773   6.450
 6433POPC   C2B41288   6.048   1.775   6.750
 6433POPC   C3B41289   5.990   1.748   7.050
 6433POPC   C4B41290   6.058   1.748   7.350
 6434POPC   NC341291  15.130   5.851   5.550
 6434POPC   PO441292  15.135   5.915   5.850
 6434POPC   GL141293  15.179   5.858   6.150
 6434POPC   GL241294  15.149   5.747   6.150
 6434POPC   C1A41295  15.149   5.880   6.450
 6434POPC   D2A41296  15.194   5.911   6.750
 6434POPC   C3A41297  15.195   5.819   7.050
 6434POPC   C4A41298  15.195   5.866   7.350
 6434POPC   C1B41299  15.156   5.642   6.450
 6434POPC   C2B41300  15.163   5.587   6.750
 6434POPC   C3B41301  15.115   5.665   7.050
 6434POPC   C4B41302  15.090   5.587   7.350
 6435POPC   NC341303  42.322  17.508   5.550
 6435POPC   PO441304  42.361  17.554   5.850
 6435POPC   GL141305  42.312  17.509   6.150
 6435POPC   GL241306  42.179  17.542   6.150
 6435POPC   C1A41307  42.346  17.484   6.450
 6435POPC   D2A41308  42.309  17.507   6.750
 6435POPC   C3A41309  42.309  17.501   7.050
 6435POPC   C4A41310  42.351  17.518   7.350
 6435POPC   C1B41311  42.121  17.615   6.450
 6435POPC   C2B41312  42.166  17.639   6.750
 6435POPC   C3B41313  42.150  17.676   7.050
 6435POPC   C4B41314  42.150  17.613   7.350
 6436POPC   NC341315   8.199  40.799   5.550
 6436POPC   PO441316   8.203  40.806   5.850
 6436POPC   GL141317   8.156  40.759   6.150
 6436POPC   GL241318   8.357  40.726   6.150
 6436POPC   C1A41319   8.241  40.750   6.450
 6436POPC   D2A41320   8.194  40.758   6.750
 6436POPC   C3A41321   8.244  40.803   7.050
 6436POPC   C4A41322   8.245  40.811   7.350
 6436POPC   C1B41323   8.475  40.737   6.450
 6436POPC   C2B41324   8.450  40.701   6.750
 6436POPC   C3B41325   8.394  40.669   7.050
 6436POPC   C4B41326   8.406  40.701   7.350
 6437POPC   NC341327  22.158   6.689   5.550
 6437POPC   PO441328  22.170   6.643   5.850
 6437POPC   GL141329  22.178   6.614   6.150
 6437POPC   GL241330  22.254   6.610   6.150
 6437POPC   C1A41331  22.117   6.615   6.450
 6437POPC   D2A41332  22.209   6.616   6.750
 6437POPC   C3A41333  22.154   6.604   7.050
 6437POPC   C4A41334  22.186   6.638   7.350
 6437POPC   C1B41335  22.336   6.491   6.450
 6437POPC   C2B41336  22.419   6.550   6.750
 6437POPC   C3B41337  22.417   6.484   7.050
 6437POPC   C4B41338  22.342   6.567   7.350
 6438POPC   NC341339  43.901  44.633   5.550
 6438POPC   PO441340  43.840  44.614   5.850
 6438POPC   GL141341  43.918  44.618   6.150
 6438POPC   GL241342  43.726  44.644   6.150
 6438POPC   C1A41343  43.856  44.623   6.450
 6438POPC   D2A41344  43.879  44.676   6.750
 6438POPC   C3A41345  43.847  44.622   7.050
 6438POPC   C4A41346  43.906  44.682   7.350
 6438POPC   C1B41347  43.617  44.618   6.450
 6438POPC   C2B41348  43.642  44.559   6.750
 6438POPC   C3B41349  43.691  44.605   7.050
 6438POPC   C4B41350  43.627  44.616   7.350
 6439POPC   NC341351  33.752  24.500   5.550
 6439POPC   PO441352  33.770  24.453   5.850
 6439POPC   GL141353  33.806  24.514   6.150
 6439POPC   GL241354  33.734  24.588   6.150
 6439POPC   C1A41355  33.760  24.465   6.450
 6439POPC   D2A41356  33.842  24.499   6.750
 6439POPC   C3A41357  33.789  24.449   7.050
 6439POPC   C4A41358  33.830  24.502   7.350
 6439POPC   C1B41359  33.679  24.686   6.450
 6439POPC   C2B41360  33.663  24.707   6.750
 6439POPC   C3B41361  33.715  24.711   7.050
 6439POPC   C4B41362  33.639  24.753   7.350
 6440POPC   NC341363  34.614  20.563   5.550
 6440POPC   PO441364  34.592  20.602   5.850
 6440POPC   GL141365  34.542  20.572   6.150
 6440POPC   GL241366  34.611  20.460   6.150
 6440POPC   C1A41367  34.574  20.571   6.450
 6440POPC   D2A41368  34.552  20.569   6.750
 6440POPC   C3A41369  34.583  20.577   7.050
 6440POPC   C4A41370  34.606  20.576   7.350
 6440POPC   C1B41371  34.621  20.372   6.450
 6440POPC   C2B41372  34.583  20.383   6.750
 6440POPC   C3B41373  34.627  20.385   7.050
 6440POPC   C4B41374  34.595  20.333   7.350
 6441POPC   NC341375   0.455  33.777   5.550
 6441POPC   PO441376   0.450  33.846   5.850
 6441POPC   GL141377   0.427  33.843   6.150
 6441POPC   GL241378   0.334  33.793   6.150
 6441POPC   C1A41379   0.440  33.766   6.450
 6441POPC   D2A41380   0.456  33.765   6.750
 6441POPC   C3A41381   0.479  33.767   7.050
 6441POPC   C4A41382   0.473  33.771   7.350
 6441POPC   C1B41383   0.238  33.786   6.450
 6441POPC   C2B41384   0.217  33.726   6.750
 6441POPC   C3B41385   0.194  33.738   7.050
 6441POPC   C4B41386   0.224  33.765   7.350
 6442POPC   NC341387  21.379  15.206   5.550
 6442POPC   PO441388  21.360  15.162   5.850
 6442POPC   GL141389  21.350  15.140   6.150
 6442POPC   GL241390  21.480  15.068   6.150
 6442POPC   C1A41391  21.422  15.138   6.450
 6442POPC   D2A41392  21.389  15.208   6.750
 6442POPC   C3A41393  21.338  15.153   7.050
 6442POPC   C4A41394  21.421  15.197   7.350
 6442POPC   C1B41395  21.488  14.960   6.450
 6442POPC   C2B41396  21.495  14.936   6.750
 6442POPC   C3B41397  21.560  14.965   7.050
 6442POPC   C4B41398  21.504  15.023   7.350
 6443POPC   NC341399  26.048   9.714   5.550
 6443POPC   PO441400  26.088   9.716   5.850
 6443POPC   GL141401  26.080   9.700   6.150
 6443POPC   GL241402  26.008   9.826   6.150
 6443POPC   C1A41403  25.993   9.744   6.450
 6443POPC   D2A41404  26.051   9.798   6.750
 6443POPC   C3A41405  26.085   9.751   7.050
 6443POPC   C4A41406  26.026   9.766   7.350
 6443POPC   C1B41407  26.040  10.046   6.450
 6443POPC   C2B41408  26.074  10.014   6.750
 6443POPC   C3B41409  26.007  10.047   7.050
 6443POPC   C4B41410  26.084  10.014   7.350
 6444POPC   NC341411   1.167   6.629   5.550
 6444POPC   PO441412   1.227   6.610   5.850
 6444POPC   GL141413   1.260   6.652   6.150
 6444POPC   GL241414   1.147   6.618   6.150
 6444POPC   C1A41415   1.216   6.668   6.450
 6444POPC   D2A41416   1.219   6.669   6.750
 6444POPC   C3A41417   1.166   6.651   7.050
 6444POPC   C4A41418   1.232   6.641   7.350
 6444POPC   C1B41419   1.027   6.505   6.450
 6444POPC   C2B41420   1.026   6.565   6.750
 6444POPC   C3B41421   0.973   6.511   7.050
 6444POPC   C4B41422   0.991   6.542   7.350
 6445POPC   NC341423  31.490  26.809   5.550
 6445POPC   PO441424  31.460  26.840   5.850
 6445POPC   GL141425  31.522  26.854   6.150
 6445POPC   GL241426  31.450  26.937   6.150
 6445POPC   C1A41427  31.493  26.847   6.450
 6445POPC   D2A41428  31.433  26.838   6.750
 6445POPC   C3A41429  31.428  26.810   7.050
 6445POPC   C4A41430  31.462  26.829   7.350
 6445POPC   C1B41431  31.324  27.019   6.450
 6445POPC   C2B41432  31.338  27.000   6.750
 6445POPC   C3B41433  31.328  27.037   7.050
 6445POPC   C4B41434  31.339  27.075   7.350
 6446POPC   NC341435  28.393  27.547   5.550
 6446POPC   PO441436  28.374  27.636   5.850
 6446POPC   GL141437  28.408  27.572   6.150
 6446POPC   GL241438  28.356  27.730   6.150
 6446POPC   C1A41439  28.322  27.623   6.450
 6446POPC   D2A41440  28.364  27.545   6.750
 6446POPC   C3A41441  28.349  27.626   7.050
 6446POPC   C4A41442  28.414  27.607   7.350
 6446POPC   C1B41443  28.357  27.842   6.450
 6446POPC   C2B41444  28.355  27.801   6.750
 6446POPC   C3B41445  28.338  27.793   7.050
 6446POPC   C4B41446  28.327  27.791   7.350
 6447POPC   NC341447  29.901  38.486   5.550
 6447POPC   PO441448  29.962  38.442   5.850
 6447POPC   GL141449  29.960  38.435   6.150
 6447POPC   GL241450  29.828  38.412   6.150
 6447POPC   C1A41451  29.896  38.414   6.450
 6447POPC   D2A41452  29.907  38.503   6.750
 6447POPC   C3A41453  29.925  38.475   7.050
 6447POPC   C4A41454  29.915  38.422   7.350
 6447POPC   C1B41455  29.765  38.271   6.450
 6447POPC   C2B41456  29.697  38.327   6.750
 6447POPC   C3B41457  29.776  38.276   7.050
 6447POPC   C4B41458  29.772  38.264   7.350
 6448POPC   NC341459  43.158  43.908   5.550
 6448POPC   PO441460  43.079  43.882   5.850
 6448POPC   GL141461  43.091  43.903   6.150
 6448POPC   GL241462  42.951  43.935   6.150
 6448POPC   C1A41463  43.117  43.845   6.450
 6448POPC   D2A41464  43.091  43.838   6.750
 6448POPC   C3A41465  43.062  43.857   7.050
 6448POPC   C4A41466  43.109  43.926   7.350
 6448POPC   C1B41467  42.853  43.848   6.450
 6448POPC   C2B41468  42.891  43.871   6.750
 6448POPC   C3B41469  42.815  43.925   7.050
 6448POPC   C4B41470  42.823  43.878   7.350
 6449POPC   NC341471  35.321  12.870   5.550
 6449POPC   PO441472  35.396  12.871   5.850
 6449POPC   GL141473  35.319  12.864   6.150
 6449POPC   GL241474  35.233  12.973   6.150
 6449POPC   C1A41475  35.328  12.867   6.450
 6449POPC   D2A41476  35.349  12.822   6.750
 6449POPC   C3A41477  35.332  12.803   7.050
 6449POPC   C4A41478  35.380  12.900   7.350
 6449POPC   C1B41479  35.188  13.043   6.450
 6449POPC   C2B41480  35.119  12.996   6.750
 6449POPC   C3B41481  35.131  12.968   7.050
 6449POPC   C4B41482  35.153  13.061   7.350
 6450POPC   NC341483  40.037   1.257   5.550
 6450POPC   PO441484  39.978   1.219   5.850
 6450POPC   GL141485  40.043   1.216   6.150
 6450POPC   GL241486  40.002   1.137   6.150
 6450POPC   C1A41487  39.993   1.189   6.450
 6450POPC   D2A41488  40.024   1.199   6.750
 6450POPC   C3A41489  40.006   1.227   7.050
 6450POPC   C4A41490  39.994   1.165   7.350
 6450POPC   C1B41491  40.004   0.989   6.450
 6450POPC   C2B41492  39.943   1.018   6.750
 6450POPC   C3B41493  39.993   0.937   7.050
 6450POPC   C4B41494  39.991   0.998   7.350
 6451POPC   NC341495  30.655   8.154   5.550
 6451POPC   PO441496  30.701   8.234   5.850
 6451POPC   GL141497  30.696   8.219   6.150
 6451POPC   GL241498  30.723   8.301   6.150
 6451POPC   C1A41499  30.738   8.194   6.450
 6451POPC   D2A41500  30.663   8.214   6.750
 6451POPC   C3A41501  30.652   8.239   7.050
 6451POPC   C4A41502  30.718   8.165   7.350
 6451POPC   C1B41503  30.774   8.440   6.450
 6451POPC   C2B41504  30.780   8.452   6.750
 6451POPC   C3B41505  30.833   8.418   7.050
 6451POPC   C4B41506  30.834   8.452   7.350
 6452POPC   NC341507   1.235   5.829   5.550
 6452POPC   PO441508   1.237   5.875   5.850
 6452POPC   GL141509   1.203   5.855   6.150
 6452POPC   GL241510   1.378   5.813   6.150
 6452POPC   C1A41511   1.218   5.882   6.450
 6452POPC   D2A41512   1.199   5.906   6.750
 6452POPC   C3A41513   1.237   5.848   7.050
 6452POPC   C4A41514   1.242   5.881   7.350
 6452POPC   C1B41515   1.408   5.776   6.450
 6452POPC   C2B41516   1.469   5.752   6.750
 6452POPC   C3B41517   1.470   5.837   7.050
 6452POPC   C4B41518   1.436   5.742   7.350
 6453POPC   NC341519  15.202  30.741   5.550
 6453POPC   PO441520  15.134  30.736   5.850
 6453POPC   GL141521  15.146  30.676   6.150
 6453POPC   GL241522  15.260  30.734   6.150
 6453POPC   C1A41523  15.131  30.716   6.450
 6453POPC   D2A41524  15.137  30.725   6.750
 6453POPC   C3A41525  15.137  30.668   7.050
 6453POPC   C4A41526  15.194  30.718   7.350
 6453POPC   C1B41527  15.344  30.800   6.450
 6453POPC   C2B41528  15.436  30.831   6.750
 6453POPC   C3B41529  15.362  30.825   7.050
 6453POPC   C4B41530  15.436  30.828   7.350
 6454POPC   NC341531  14.440  33.814   5.550
 6454POPC   PO441532  14.376  33.815   5.850
 6454POPC   GL141533  14.421  33.809   6.150
 6454POPC   GL241534  14.298  33.699   6.150
 6454POPC   C1A41535  14.433  33.799   6.450
 6454POPC   D2A41536  14.382  33.789   6.750
 6454POPC   C3A41537  14.378  33.827   7.050
 6454POPC   C4A41538  14.395  33.772   7.350
 6454POPC   C1B41539  14.263  33.626   6.450
 6454POPC   C2B41540  14.214  33.636   6.750
 6454POPC   C3B41541  14.269  33.597   7.050
 6454POPC   C4B41542  14.284  33.592   7.350
 6455POPC   NC341543  42.304   5.899   5.550
 6455POPC   PO441544  42.319   5.897   5.850
 6455POPC   GL141545  42.361   5.887   6.150
 6455POPC   GL241546  42.298   6.028   6.150
 6455POPC   C1A41547  42.306   5.860   6.450
 6455POPC   D2A41548  42.296   5.883   6.750
 6455POPC   C3A41549  42.314   5.873   7.050
 6455POPC   C4A41550  42.316   5.847   7.350
 6455POPC   C1B41551  42.204   6.087   6.450
 6455POPC   C2B41552  42.200   6.065   6.750
 6455POPC   C3B41553  42.223   6.056   7.050
 6455POPC   C4B41554  42.240   6.055   7.350
 6456POPC   NC341555  15.227  24.511   5.550
 6456POPC   PO441556  15.211  24.533   5.850
 6456POPC   GL141557  15.215  24.466   6.150
 6456POPC   GL241558  15.068  24.561   6.150
 6456POPC   C1A41559  15.142  24.521   6.450
 6456POPC   D2A41560  15.185  24.462   6.750
 6456POPC   C3A41561  15.168  24.465   7.050
 6456POPC   C4A41562  15.226  24.454   7.350
 6456POPC   C1B41563  15.045  24.718   6.450
 6456POPC   C2B41564  15.041  24.723   6.750
 6456POPC   C3B41565  15.008  24.722   7.050
 6456POPC   C4B41566  14.993  24.741   7.350
 6457POPC   NC341567   1.181  32.228   5.550
 6457POPC   PO441568   1.202  32.222   5.850
 6457POPC   GL141569   1.221  32.296   6.150
 6457POPC   GL241570   1.272  32.091   6.150
 6457POPC   C1A41571   1.223  32.286   6.450
 6457POPC   D2A41572   1.259  32.235   6.750
 6457POPC   C3A41573   1.214  32.282   7.050
 6457POPC   C4A41574   1.220  32.215   7.350
 6457POPC   C1B41575   1.297  32.032   6.450
 6457POPC   C2B41576   1.277  31.974   6.750
 6457POPC   C3B41577   1.250  32.041   7.050
 6457POPC   C4B41578   1.234  31.977   7.350
 6458POPC   NC341579  34.565   2.025   5.550
 6458POPC   PO441580  34.552   1.994   5.850
 6458POPC   GL141581  34.622   2.022   6.150
 6458POPC   GL241582  34.569   2.082   6.150
 6458POPC   C1A41583  34.551   1.960   6.450
 6458POPC   D2A41584  34.562   1.988   6.750
 6458POPC   C3A41585  34.574   2.025   7.050
 6458POPC   C4A41586  34.580   2.009   7.350
 6458POPC   C1B41587  34.483   2.198   6.450
 6458POPC   C2B41588  34.575   2.229   6.750
 6458POPC   C3B41589  34.495   2.283   7.050
 6458POPC   C4B41590  34.490   2.205   7.350
 6459POPC   NC341591  36.145  18.270   5.550
 6459POPC   PO441592  36.085  18.262   5.850
 6459POPC   GL141593  36.176  18.281   6.150
 6459POPC   GL241594  36.263  18.216   6.150
 6459POPC   C1A41595  36.170  18.317   6.450
 6459POPC   D2A41596  36.088  18.300   6.750
 6459POPC   C3A41597  36.083  18.321   7.050
 6459POPC   C4A41598  36.141  18.283   7.350
 6459POPC   C1B41599  36.329  18.153   6.450
 6459POPC   C2B41600  36.342  18.133   6.750
 6459POPC   C3B41601  36.283  18.174   7.050
 6459POPC   C4B41602  36.315  18.122   7.350
 6460POPC   NC341603   1.254  41.536   5.550
 6460POPC   PO441604   1.259  41.582   5.850
 6460POPC   GL141605   1.238  41.606   6.150
 6460POPC   GL241606   1.290  41.511   6.150
 6460POPC   C1A41607   1.246  41.577   6.450
 6460POPC   D2A41608   1.245  41.534   6.750
 6460POPC   C3A41609   1.255  41.519   7.050
 6460POPC   C4A41610   1.182  41.526   7.350
 6460POPC   C1B41611   1.491  41.509   6.450
 6460POPC   C2B41612   1.465  41.504   6.750
 6460POPC   C3B41613   1.412  41.545   7.050
 6460POPC   C4B41614   1.436  41.568   7.350
 6461POPC   NC341615  15.914  30.698   5.550
 6461POPC   PO441616  15.928  30.657   5.850
 6461POPC   GL141617  15.994  30.723   6.150
 6461POPC   GL241618  15.885  30.615   6.150
 6461POPC   C1A41619  15.984  30.652   6.450
 6461POPC   D2A41620  15.943  30.727   6.750
 6461POPC   C3A41621  15.936  30.667   7.050
 6461POPC   C4A41622  16.001  30.679   7.350
 6461POPC   C1B41623  15.675  30.643   6.450
 6461POPC   C2B41624  15.686  30.612   6.750
 6461POPC   C3B41625  15.745  30.648   7.050
 6461POPC   C4B41626  15.674  30.579   7.350
 6462POPC   NC341627  38.450   4.273   5.550
 6462POPC   PO441628  38.440   4.281   5.850
 6462POPC   GL141629  38.446   4.367   6.150
 6462POPC   GL241630  38.559   4.300   6.150
 6462POPC   C1A41631  38.483   4.286   6.450
 6462POPC   D2A41632  38.475   4.288   6.750
 6462POPC   C3A41633  38.414   4.317   7.050
 6462POPC   C4A41634  38.477   4.308   7.350
 6462POPC   C1B41635  38.730   4.311   6.450
 6462POPC   C2B41636  38.744   4.289   6.750
 6462POPC   C3B41637  38.711   4.258   7.050
 6462POPC   C4B41638  38.725   4.215   7.350
 6463POPC   NC341639  19.022  22.133   5.550
 6463POPC   PO441640  19.078  22.195   5.850
 6463POPC   GL141641  19.052  22.160   6.150
 6463POPC   GL241642  19.116  22.052   6.150
 6463POPC   C1A41643  19.106  22.159   6.450
 6463POPC   D2A41644  19.027  22.170   6.750
 6463POPC   C3A41645  19.043  22.163   7.050
 6463POPC   C4A41646  19.054  22.156   7.350
 6463POPC   C1B41647  19.117  21.893   6.450
 6463POPC   C2B41648  19.149  21.922   6.750
 6463POPC   C3B41649  19.118  21.954   7.050
 6463POPC   C4B41650  19.169  21.892   7.350
 6464POPC   NC341651   4.318  32.227   5.550
 6464POPC   PO441652   4.287  32.237   5.850
 6464POPC   GL141653   4.287  32.227   6.150
 6464POPC   GL241654   4.424  32.104   6.150
 6464POPC   C1A41655   4.358  32.273   6.450
 6464POPC   D2A41656   4.332  32.249   6.750
 6464POPC   C3A41657   4.301  32.213   7.050
 6464POPC   C4A41658   4.290  32.276   7.350
 6464POPC   C1B41659   4.419  32.038   6.450
 6464POPC   C2B41660   4.467  31.997   6.750
 6464POPC   C3B41661   4.465  32.080   7.050
 6464POPC   C4B41662   4.441  32.045   7.350
 6465POPC   NC341663  43.068   1.264   5.550
 6465POPC   PO441664  43.135   1.223   5.850
 6465POPC   GL141665  43.103   1.190   6.150
 6465POPC   GL241666  42.992   1.260   6.150
 6465POPC   C1A41667  43.155   1.231   6.450
 6465POPC   D2A41668  43.148   1.200   6.750
 6465POPC   C3A41669  43.135   1.244   7.050
 6465POPC   C4A41670  43.160   1.246   7.350
 6465POPC   C1B41671  42.878   1.323   6.450
 6465POPC   C2B41672  42.919   1.371   6.750
 6465POPC   C3B41673  42.851   1.328   7.050
 6465POPC   C4B41674  42.871   1.384   7.350
 6466POPC   NC341675  17.488  21.425   5.550
 6466POPC   PO441676  17.464  21.365   5.850
 6466POPC   GL141677  17.503  21.356   6.150
 6466POPC   GL241678  17.368  21.440   6.150
 6466POPC   C1A41679  17.525  21.430   6.450
 6466POPC   D2A41680  17.508  21.352   6.750
 6466POPC   C3A41681  17.459  21.427   7.050
 6466POPC   C4A41682  17.459  21.362   7.350
 6466POPC   C1B41683  17.369  21.561   6.450
 6466POPC   C2B41684  17.367  21.532   6.750
 6466POPC   C3B41685  17.291  21.529   7.050
 6466POPC   C4B41686  17.287  21.548   7.350
 6467POPC   NC341687  19.882  24.446   5.550
 6467POPC   PO441688  19.851  24.508   5.850
 6467POPC   GL141689  19.798  24.524   6.150
 6467POPC   GL241690  19.941  24.411   6.150
 6467POPC   C1A41691  19.803  24.490   6.450
 6467POPC   D2A41692  19.853  24.443   6.750
 6467POPC   C3A41693  19.821  24.450   7.050
 6467POPC   C4A41694  19.862  24.459   7.350
 6467POPC   C1B41695  20.019  24.420   6.450
 6467POPC   C2B41696  20.077  24.400   6.750
 6467POPC   C3B41697  20.091  24.396   7.050
 6467POPC   C4B41698  20.086  24.344   7.350
 6468POPC   NC341699  10.545   5.050   5.550
 6468POPC   PO441700  10.534   5.139   5.850
 6468POPC   GL141701  10.515   5.076   6.150
 6468POPC   GL241702  10.686   5.089   6.150
 6468POPC   C1A41703  10.487   5.119   6.450
 6468POPC   D2A41704  10.489   5.047   6.750
 6468POPC   C3A41705  10.554   5.091   7.050
 6468POPC   C4A41706  10.491   5.053   7.350
 6468POPC   C1B41707  10.705   4.990   6.450
 6468POPC   C2B41708  10.733   5.002   6.750
 6468POPC   C3B41709  10.748   4.951   7.050
 6468POPC   C4B41710  10.720   4.989   7.350
 6469POPC   NC341711  40.025  17.493   5.550
 6469POPC   PO441712  40.038  17.475   5.850
 6469POPC   GL141713  40.034  17.485   6.150
 6469POPC   GL241714  40.087  17.428   6.150
 6469POPC   C1A41715  40.046  17.507   6.450
 6469POPC   D2A41716  40.038  17.463   6.750
 6469POPC   C3A41717  40.015  17.528   7.050
 6469POPC   C4A41718  39.988  17.465   7.350
 6469POPC   C1B41719  40.227  17.283   6.450
 6469POPC   C2B41720  40.149  17.349   6.750
 6469POPC   C3B41721  40.136  17.285   7.050
 6469POPC   C4B41722  40.207  17.357   7.350
 6470POPC   NC341723   1.225   8.993   5.550
 6470POPC   PO441724   1.251   8.951   5.850
 6470POPC   GL141725   1.232   8.948   6.150
 6470POPC   GL241726   1.266   8.832   6.150
 6470POPC   C1A41727   1.236   8.969   6.450
 6470POPC   D2A41728   1.195   8.973   6.750
 6470POPC   C3A41729   1.255   8.968   7.050
 6470POPC   C4A41730   1.206   9.006   7.350
 6470POPC   C1B41731   1.424   8.749   6.450
 6470POPC   C2B41732   1.364   8.750   6.750
 6470POPC   C3B41733   1.431   8.803   7.050
 6470POPC   C4B41734   1.332   8.803   7.350
 6471POPC   NC341735  41.574  26.807   5.550
 6471POPC   PO441736  41.570  26.818   5.850
 6471POPC   GL141737  41.521  26.818   6.150
 6471POPC   GL241738  41.666  26.732   6.150
 6471POPC   C1A41739  41.515  26.795   6.450
 6471POPC   D2A41740  41.597  26.813   6.750
 6471POPC   C3A41741  41.587  26.824   7.050
 6471POPC   C4A41742  41.521  26.828   7.350
 6471POPC   C1B41743  41.718  26.617   6.450
 6471POPC   C2B41744  41.737  26.676   6.750
 6471POPC   C3B41745  41.764  26.687   7.050
 6471POPC   C4B41746  41.778  26.648   7.350
 6472POPC   NC341747  32.287  11.334   5.550
 6472POPC   PO441748  32.268  11.268   5.850
 6472POPC   GL141749  32.233  11.293   6.150
 6472POPC   GL241750  32.153  11.316   6.150
 6472POPC   C1A41751  32.272  11.310   6.450
 6472POPC   D2A41752  32.265  11.327   6.750
 6472POPC   C3A41753  32.275  11.263   7.050
 6472POPC   C4A41754  32.203  11.275   7.350
 6472POPC   C1B41755  32.011  11.322   6.450
 6472POPC   C2B41756  31.960  11.316   6.750
 6472POPC   C3B41757  32.029  11.348   7.050
 6472POPC   C4B41758  32.025  11.287   7.350
 6473POPC   NC341759  32.295   8.174   5.550
 6473POPC   PO441760  32.251   8.197   5.850
 6473POPC   GL141761  32.262   8.175   6.150
 6473POPC   GL241762  32.173   8.281   6.150
 6473POPC   C1A41763  32.292   8.212   6.450
 6473POPC   D2A41764  32.287   8.215   6.750
 6473POPC   C3A41765  32.212   8.195   7.050
 6473POPC   C4A41766  32.201   8.159   7.350
 6473POPC   C1B41767  32.077   8.355   6.450
 6473POPC   C2B41768  32.139   8.356   6.750
 6473POPC   C3B41769  32.124   8.425   7.050
 6473POPC   C4B41770  32.076   8.417   7.350
 6474POPC   NC341771  29.170  12.125   5.550
 6474POPC   PO441772  29.119  12.048   5.850
 6474POPC   GL141773  29.165  12.119   6.150
 6474POPC   GL241774  29.172  12.198   6.150
 6474POPC   C1A41775  29.111  12.027   6.450
 6474POPC   D2A41776  29.188  12.087   6.750
 6474POPC   C3A41777  29.158  12.062   7.050
 6474POPC   C4A41778  29.130  12.115   7.350
 6474POPC   C1B41779  29.253  12.302   6.450
 6474POPC   C2B41780  29.281  12.236   6.750
 6474POPC   C3B41781  29.321  12.280   7.050
 6474POPC   C4B41782  29.267  12.317   7.350
 6475POPC   NC341783  11.292  34.575   5.550
 6475POPC   PO441784  11.291  34.526   5.850
 6475POPC   GL141785  11.259  34.528   6.150
 6475POPC   GL241786  11.361  34.515   6.150
 6475POPC   C1A41787  11.326  34.574   6.450
 6475POPC   D2A41788  11.296  34.542   6.750
 6475POPC   C3A41789  11.269  34.537   7.050
 6475POPC   C4A41790  11.258  34.613   7.350
 6475POPC   C1B41791  11.467  34.374   6.450
 6475POPC   C2B41792  11.482  34.455   6.750
 6475POPC   C3B41793  11.455  34.452   7.050
 6475POPC   C4B41794  11.497  34.413   7.350
 6476POPC   NC341795  26.847   3.508   5.550
 6476POPC   PO441796  26.775   3.590   5.850
 6476POPC   GL141797  26.848   3.581   6.150
 6476POPC   GL241798  26.737   3.514   6.150
 6476POPC   C1A41799  26.848   3.559   6.450
 6476POPC   D2A41800  26.801   3.585   6.750
 6476POPC   C3A41801  26.829   3.520   7.050
 6476POPC   C4A41802  26.860   3.568   7.350
 6476POPC   C1B41803  26.555   3.522   6.450
 6476POPC   C2B41804  26.527   3.519   6.750
 6476POPC   C3B41805  26.570   3.592   7.050
 6476POPC   C4B41806  26.533   3.583   7.350
 6477POPC   NC341807  10.527   2.729   5.550
 6477POPC   PO441808  10.489   2.724   5.850
 6477POPC   GL141809  10.518   2.798   6.150
 6477POPC   GL241810  10.678   2.796   6.150
 6477POPC   C1A41811  10.543   2.725   6.450
 6477POPC   D2A41812  10.481   2.812   6.750
 6477POPC   C3A41813  10.487   2.774   7.050
 6477POPC   C4A41814  10.504   2.769   7.350
 6477POPC   C1B41815  10.805   2.800   6.450
 6477POPC   C2B41816  10.804   2.755   6.750
 6477POPC   C3B41817  10.820   2.733   7.050
 6477POPC   C4B41818  10.805   2.817   7.350
 6478POPC   NC341819  12.879   1.993   5.550
 6478POPC   PO441820  12.882   1.967   5.850
 6478POPC   GL141821  12.841   1.985   6.150
 6478POPC   GL241822  12.865   2.073   6.150
 6478POPC   C1A41823  12.826   1.965   6.450
 6478POPC   D2A41824  12.858   2.039   6.750
 6478POPC   C3A41825  12.862   1.957   7.050
 6478POPC   C4A41826  12.875   2.008   7.350
 6478POPC   C1B41827  12.894   2.232   6.450
 6478POPC   C2B41828  12.854   2.278   6.750
 6478POPC   C3B41829  12.837   2.289   7.050
 6478POPC   C4B41830  12.910   2.195   7.350
 6479POPC   NC341831  29.139  23.723   5.550
 6479POPC   PO441832  29.191  23.761   5.850
 6479POPC   GL141833  29.187  23.733   6.150
 6479POPC   GL241834  29.052  23.845   6.150
 6479POPC   C1A41835  29.110  23.713   6.450
 6479POPC   D2A41836  29.101  23.695   6.750
 6479POPC   C3A41837  29.160  23.668   7.050
 6479POPC   C4A41838  29.178  23.687   7.350
 6479POPC   C1B41839  29.012  23.922   6.450
 6479POPC   C2B41840  29.029  23.914   6.750
 6479POPC   C3B41841  28.982  23.898   7.050
 6479POPC   C4B41842  29.059  23.894   7.350
 6480POPC   NC341843  12.813  30.670   5.550
 6480POPC   PO441844  12.878  30.697   5.850
 6480POPC   GL141845  12.864  30.660   6.150
 6480POPC   GL241846  12.749  30.695   6.150
 6480POPC   C1A41847  12.824  30.731   6.450
 6480POPC   D2A41848  12.812  30.735   6.750
 6480POPC   C3A41849  12.880  30.705   7.050
 6480POPC   C4A41850  12.843  30.738   7.350
 6480POPC   C1B41851  12.632  30.746   6.450
 6480POPC   C2B41852  12.610  30.743   6.750
 6480POPC   C3B41853  12.607  30.740   7.050
 6480POPC   C4B41854  12.641  30.783   7.350
 6481POPC   NC341855   7.438  34.609   5.550
 6481POPC   PO441856   7.461  34.612   5.850
 6481POPC   GL141857   7.462  34.556   6.150
 6481POPC   GL241858   7.371  34.643   6.150
 6481POPC   C1A41859   7.428  34.560   6.450
 6481POPC   D2A41860   7.458  34.544   6.750
 6481POPC   C3A41861   7.376  34.552   7.050
 6481POPC   C4A41862   7.428  34.596   7.350
 6481POPC   C1B41863   7.267  34.827   6.450
 6481POPC   C2B41864   7.309  34.817   6.750
 6481POPC   C3B41865   7.275  34.806   7.050
 6481POPC   C4B41866   7.265  34.754   7.350
 6482POPC   NC341867   2.746  21.427   5.550
 6482POPC   PO441868   2.750  21.424   5.850
 6482POPC   GL141869   2.721  21.342   6.150
 6482POPC   GL241870   2.682  21.401   6.150
 6482POPC   C1A41871   2.802  21.401   6.450
 6482POPC   D2A41872   2.815  21.413   6.750
 6482POPC   C3A41873   2.778  21.375   7.050
 6482POPC   C4A41874   2.749  21.356   7.350
 6482POPC   C1B41875   2.481  21.273   6.450
 6482POPC   C2B41876   2.482  21.362   6.750
 6482POPC   C3B41877   2.554  21.290   7.050
 6482POPC   C4B41878   2.558  21.349   7.350
 6483POPC   NC341879  23.682  33.814   5.550
 6483POPC   PO441880  23.762  33.829   5.850
 6483POPC   GL141881  23.752  33.788   6.150
 6483POPC   GL241882  23.791  33.825   6.150
 6483POPC   C1A41883  23.745  33.773   6.450
 6483POPC   D2A41884  23.716  33.763   6.750
 6483POPC   C3A41885  23.756  33.819   7.050
 6483POPC   C4A41886  23.717  33.786   7.350
 6483POPC   C1B41887  24.010  33.826   6.450
 6483POPC   C2B41888  24.010  33.808   6.750
 6483POPC   C3B41889  24.004  33.802   7.050
 6483POPC   C4B41890  23.938  33.873   7.350
 6484POPC   NC341891  39.263  37.716   5.550
 6484POPC   PO441892  39.191  37.659   5.850
 6484POPC   GL141893  39.190  37.725   6.150
 6484POPC   GL241894  39.147  37.673   6.150
 6484POPC   C1A41895  39.266  37.719   6.450
 6484POPC   D2A41896  39.265  37.691   6.750
 6484POPC   C3A41897  39.205  37.674   7.050
 6484POPC   C4A41898  39.221  37.683   7.350
 6484POPC   C1B41899  38.938  37.713   6.450
 6484POPC   C2B41900  38.987  37.697   6.750
 6484POPC   C3B41901  39.030  37.714   7.050
 6484POPC   C4B41902  38.956  37.743   7.350
 6485POPC   NC341903  32.294  20.633   5.550
 6485POPC   PO441904  32.202  20.627   5.850
 6485POPC   GL141905  32.217  20.585   6.150
 6485POPC   GL241906  32.330  20.604   6.150
 6485POPC   C1A41907  32.219  20.634   6.450
 6485POPC   D2A41908  32.208  20.594   6.750
 6485POPC   C3A41909  32.234  20.574   7.050
 6485POPC   C4A41910  32.238  20.603   7.350
 6485POPC   C1B41911  32.461  20.554   6.450
 6485POPC   C2B41912  32.478  20.585   6.750
 6485POPC   C3B41913  32.484  20.587   7.050
 6485POPC   C4B41914  32.498  20.559   7.350
 6486POPC   NC341915  36.092  42.348   5.550
 6486POPC   PO441916  36.111  42.339   5.850
 6486POPC   GL141917  36.105  42.358   6.150
 6486POPC   GL241918  36.100  42.207   6.150
 6486POPC   C1A41919  36.151  42.317   6.450
 6486POPC   D2A41920  36.122  42.349   6.750
 6486POPC   C3A41921  36.102  42.290   7.050
 6486POPC   C4A41922  36.107  42.290   7.350
 6486POPC   C1B41923  36.115  42.124   6.450
 6486POPC   C2B41924  36.096  42.101   6.750
 6486POPC   C3B41925  36.105  42.113   7.050
 6486POPC   C4B41926  36.125  42.121   7.350
 6487POPC   NC341927   2.039  40.042   5.550
 6487POPC   PO441928   1.979  39.999   5.850
 6487POPC   GL141929   1.944  40.053   6.150
 6487POPC   GL241930   1.929  40.088   6.150
 6487POPC   C1A41931   1.990  39.994   6.450
 6487POPC   D2A41932   1.966  40.041   6.750
 6487POPC   C3A41933   2.030  39.986   7.050
 6487POPC   C4A41934   1.967  39.976   7.350
 6487POPC   C1B41935   1.854  40.269   6.450
 6487POPC   C2B41936   1.905  40.275   6.750
 6487POPC   C3B41937   1.938  40.213   7.050
 6487POPC   C4B41938   1.906  40.224   7.350
 6488POPC   NC341939  19.814  25.289   5.550
 6488POPC   PO441940  19.858  25.312   5.850
 6488POPC   GL141941  19.811  25.240   6.150
 6488POPC   GL241942  19.752  25.328   6.150
 6488POPC   C1A41943  19.830  25.256   6.450
 6488POPC   D2A41944  19.816  25.216   6.750
 6488POPC   C3A41945  19.858  25.253   7.050
 6488POPC   C4A41946  19.803  25.266   7.350
 6488POPC   C1B41947  19.601  25.431   6.450
 6488POPC   C2B41948  19.607  25.389   6.750
 6488POPC   C3B41949  19.621  25.436   7.050
 6488POPC   C4B41950  19.624  25.411   7.350
 6489POPC   NC341951  11.333  12.822   5.550
 6489POPC   PO441952  11.295  12.882   5.850
 6489POPC   GL141953  11.295  12.822   6.150
 6489POPC   GL241954  11.134  12.820   6.150
 6489POPC   C1A41955  11.273  12.876   6.450
 6489POPC   D2A41956  11.335  12.820   6.750
 6489POPC   C3A41957  11.320  12.841   7.050
 6489POPC   C4A41958  11.266  12.897   7.350
 6489POPC   C1B41959  11.040  12.844   6.450
 6489POPC   C2B41960  11.097  12.789   6.750
 6489POPC   C3B41961  11.067  12.867   7.050
 6489POPC   C4B41962  11.026  12.821   7.350
 6490POPC   NC341963  39.211  20.647   5.550
 6490POPC   PO441964  39.251  20.659   5.850
 6490POPC   GL141965  39.194  20.578   6.150
 6490POPC   GL241966  39.198  20.490   6.150
 6490POPC   C1A41967  39.232  20.622   6.450
 6490POPC   D2A41968  39.211  20.629   6.750
 6490POPC   C3A41969  39.265  20.577   7.050
 6490POPC   C4A41970  39.221  20.595   7.350
 6490POPC   C1B41971  39.026  20.387   6.450
 6490POPC   C2B41972  39.111  20.411   6.750
 6490POPC   C3B41973  39.057  20.470   7.050
 6490POPC   C4B41974  39.029  20.415   7.350
 6491POPC   NC341975  33.781  12.865   5.550
 6491POPC   PO441976  33.785  12.881   5.850
 6491POPC   GL141977  33.791  12.885   6.150
 6491POPC   GL241978  33.870  12.891   6.150
 6491POPC   C1A41979  33.832  12.866   6.450
 6491POPC   D2A41980  33.763  12.843   6.750
 6491POPC   C3A41981  33.830  12.863   7.050
 6491POPC   C4A41982  33.799  12.817   7.350
 6491POPC   C1B41983  34.065  12.885   6.450
 6491POPC   C2B41984  34.039  12.886   6.750
 6491POPC   C3B41985  34.000  12.883   7.050
 6491POPC   C4B41986  34.034  12.896   7.350
 6492POPC   NC341987   5.857  41.545   5.550
 6492POPC   PO441988   5.850  41.575   5.850
 6492POPC   GL141989   5.833  41.529   6.150
 6492POPC   GL241990   5.952  41.469   6.150
 6492POPC   C1A41991   5.822  41.564   6.450
 6492POPC   D2A41992   5.856  41.571   6.750
 6492POPC   C3A41993   5.848  41.594   7.050
 6492POPC   C4A41994   5.917  41.587   7.350
 6492POPC   C1B41995   6.002  41.299   6.450
 6492POPC   C2B41996   5.948  41.367   6.750
 6492POPC   C3B41997   5.949  41.326   7.050
 6492POPC   C4B41998   5.946  41.370   7.350
 6493POPC   NC341999   1.214  25.297   5.550
 6493POPC   PO442000   1.216  25.298   5.850
 6493POPC   GL142001   1.259  25.246   6.150
 6493POPC   GL242002   1.136  25.306   6.150
 6493POPC   C1A42003   1.230  25.258   6.450
 6493POPC   D2A42004   1.224  25.243   6.750
 6493POPC   C3A42005   1.213  25.225   7.050
 6493POPC   C4A42006   1.229  25.252   7.350
 6493POPC   C1B42007   0.972  25.302   6.450
 6493POPC   C2B42008   0.921  25.238   6.750
 6493POPC   C3B42009   0.977  25.262   7.050
 6493POPC   C4B42010   0.979  25.293   7.350
 6494POPC   NC342011  30.687  29.179   5.550
 6494POPC   PO442012  30.720  29.173   5.850
 6494POPC   GL142013  30.658  29.162   6.150
 6494POPC   GL242014  30.646  29.280   6.150
 6494POPC   C1A42015  30.652  29.187   6.450
 6494POPC   D2A42016  30.698  29.120   6.750
 6494POPC   C3A42017  30.675  29.138   7.050
 6494POPC   C4A42018  30.682  29.101   7.350
 6494POPC   C1B42019  30.603  29.393   6.450
 6494POPC   C2B42020  30.514  29.388   6.750
 6494POPC   C3B42021  30.536  29.342   7.050
 6494POPC   C4B42022  30.571  29.368   7.350
 6495POPC   NC342023   0.402  30.711   5.550
 6495POPC   PO442024   0.434  30.698   5.850
 6495POPC   GL142025   0.410  30.746   6.150
 6495POPC   GL242026   0.352  30.783   6.150
 6495POPC   C1A42027   0.403  30.687   6.450
 6495POPC   D2A42028   0.481  30.718   6.750
 6495POPC   C3A42029   0.410  30.746   7.050
 6495POPC   C4A42030   0.425  30.732   7.350
 6495POPC   C1B42031   0.382  30.968   6.450
 6495POPC   C2B42032   0.341  30.962   6.750
 6495POPC   C3B42033   0.325  30.939   7.050
 6495POPC   C4B42034   0.353  30.917   7.350
 6496POPC   NC342035  24.454   2.753   5.550
 6496POPC   PO442036  24.497   2.733   5.850
 6496POPC   GL142037  24.453   2.730   6.150
 6496POPC   GL242038  24.355   2.731   6.150
 6496POPC   C1A42039  24.539   2.766   6.450
 6496POPC   D2A42040  24.531   2.725   6.750
 6496POPC   C3A42041  24.445   2.729   7.050
 6496POPC   C4A42042  24.460   2.812   7.350
 6496POPC   C1B42043  24.270   2.681   6.450
 6496POPC   C2B42044  24.272   2.755   6.750
 6496POPC   C3B42045  24.272   2.721   7.050
 6496POPC   C4B42046  24.282   2.673   7.350
 6497POPC   NC342047  33.066  12.837   5.550
 6497POPC   PO442048  32.985  12.869   5.850
 6497POPC   GL142049  33.015  12.836   6.150
 6497POPC   GL242050  33.070  12.907   6.150
 6497POPC   C1A42051  33.021  12.887   6.450
 6497POPC   D2A42052  33.052  12.806   6.750
 6497POPC   C3A42053  33.068  12.891   7.050
 6497POPC   C4A42054  32.991  12.884   7.350
 6497POPC   C1B42055  33.158  13.069   6.450
 6497POPC   C2B42056  33.120  13.037   6.750
 6497POPC   C3B42057  33.216  13.023   7.050
 6497POPC   C4B42058  33.183  13.013   7.350
 6498POPC   NC342059   5.878  12.032   5.550
 6498POPC   PO442060   5.912  12.118   5.850
 6498POPC   GL142061   5.879  12.028   6.150
 6498POPC   GL242062   5.723  12.077   6.150
 6498POPC   C1A42063   5.882  12.036   6.450
 6498POPC   D2A42064   5.850  12.109   6.750
 6498POPC   C3A42065   5.884  12.109   7.050
 6498POPC   C4A42066   5.914  12.074   7.350
 6498POPC   C1B42067   5.583  12.056   6.450
 6498POPC   C2B42068   5.640  12.059   6.750
 6498POPC   C3B42069   5.642  12.001   7.050
 6498POPC   C4B42070   5.643  11.976   7.350
 6499POPC   NC342071   2.013  43.152   5.550
 6499POPC   PO442072   1.953  43.137   5.850
 6499POPC   GL142073   1.984  43.084   6.150
 6499POPC   GL242074   2.030  43.257   6.150
 6499POPC   C1A42075   2.013  43.060   6.450
 6499POPC   D2A42076   1.989  43.148   6.750
 6499POPC   C3A42077   1.967  43.062   7.050
 6499POPC   C4A42078   2.002  43.142   7.350
 6499POPC   C1B42079   2.099  43.331   6.450
 6499POPC   C2B42080   2.039  43.396   6.750
 6499POPC   C3B42081   2.049  43.317   7.050
 6499POPC   C4B42082   2.020  43.358   7.350
 6500POPC   NC342083  38.407  27.605   5.550
 6500POPC   PO442084  38.471  27.623   5.850
 6500POPC   GL142085  38.418  27.548   6.150
 6500POPC   GL242086  38.563  27.526   6.150
 6500POPC   C1A42087  38.474  27.570   6.450
 6500POPC   D2A42088  38.414  27.566   6.750
 6500POPC   C3A42089  38.495  27.592   7.050
 6500POPC   C4A42090  38.482  27.615   7.350
 6500POPC   C1B42091  38.690  27.498   6.450
 6500POPC   C2B42092  38.633  27.524   6.750
 6500POPC   C3B42093  38.636  27.486   7.050
 6500POPC   C4B42094  38.643  27.446   7.350
 6501POPC   NC342095  18.276  21.392   5.550
 6501POPC   PO442096  18.266  21.351   5.850
 6501POPC   GL142097  18.263  21.389   6.150
 6501POPC   GL242098  18.376  21.329   6.150
 6501POPC   C1A42099  18.280  21.357   6.450
 6501POPC   D2A42100  18.328  21.380   6.750
 6501POPC   C3A42101  18.265  21.433   7.050
 6501POPC   C4A42102  18.298  21.389   7.350
 6501POPC   C1B42103  18.494  21.306   6.450
 6501POPC   C2B42104  18.554  21.268   6.750
 6501POPC   C3B42105  18.542  21.265   7.050
 6501POPC   C4B42106  18.524  21.315   7.350
 6502POPC   NC342107  24.500   5.060   5.550
 6502POPC   PO442108  24.524   5.052   5.850
 6502POPC   GL142109  24.533   5.134   6.150
 6502POPC   GL242110  24.339   5.072   6.150
 6502POPC   C1A42111  24.491   5.097   6.450
 6502POPC   D2A42112  24.516   5.105   6.750
 6502POPC   C3A42113  24.501   5.070   7.050
 6502POPC   C4A42114  24.482   5.107   7.350
 6502POPC   C1B42115  24.258   5.056   6.450
 6502POPC   C2B42116  24.213   5.070   6.750
 6502POPC   C3B42117  24.215   5.089   7.050
 6502POPC   C4B42118  24.227   5.062   7.350
 6503POPC   NC342119  35.366  12.081   5.550
 6503POPC   PO442120  35.307  12.110   5.850
 6503POPC   GL142121  35.319  12.027   6.150
 6503POPC   GL242122  35.280  12.034   6.150
 6503POPC   C1A42123  35.384  12.121   6.450
 6503POPC   D2A42124  35.346  12.052   6.750
 6503POPC   C3A42125  35.350  12.100   7.050
 6503POPC   C4A42126  35.378  12.094   7.350
 6503POPC   C1B42127  35.077  12.016   6.450
 6503POPC   C2B42128  35.072  11.983   6.750
 6503POPC   C3B42129  35.160  12.020   7.050
 6503POPC   C4B42130  35.097  11.989   7.350
 6504POPC   NC342131   5.060  42.309   5.550
 6504POPC   PO442132   5.121  42.375   5.850
 6504POPC   GL142133   5.095  42.352   6.150
 6504POPC   GL242134   5.034  42.422   6.150
 6504POPC   C1A42135   5.140  42.337   6.450
 6504POPC   D2A42136   5.093  42.352   6.750
 6504POPC   C3A42137   5.085  42.299   7.050
 6504POPC   C4A42138   5.053  42.357   7.350
 6504POPC   C1B42139   5.032  42.614   6.450
 6504POPC   C2B42140   5.070  42.573   6.750
 6504POPC   C3B42141   5.112  42.576   7.050
 6504POPC   C4B42142   5.107  42.537   7.350
 6505POPC   NC342143  31.479  28.374   5.550
 6505POPC   PO442144  31.483  28.336   5.850
 6505POPC   GL142145  31.514  28.335   6.150
 6505POPC   GL242146  31.421  28.468   6.150
 6505POPC   C1A42147  31.490  28.405   6.450
 6505POPC   D2A42148  31.458  28.416   6.750
 6505POPC   C3A42149  31.495  28.347   7.050
 6505POPC   C4A42150  31.434  28.407   7.350
 6505POPC   C1B42151  31.332  28.549   6.450
 6505POPC   C2B42152  31.388  28.595   6.750
 6505POPC   C3B42153  31.372  28.568   7.050
 6505POPC   C4B42154  31.357  28.619   7.350
 6506POPC   NC342155  32.214  26.033   5.550
 6506POPC   PO442156  32.294  26.057   5.850
 6506POPC   GL142157  32.222  26.015   6.150
 6506POPC   GL242158  32.295  25.935   6.150
 6506POPC   C1A42159  32.230  26.063   6.450
 6506POPC   D2A42160  32.293  26.039   6.750
 6506POPC   C3A42161  32.289  26.037   7.050
 6506POPC   C4A42162  32.210  26.069   7.350
 6506POPC   C1B42163  32.397  25.856   6.450
 6506POPC   C2B42164  32.472  25.883   6.750
 6506POPC   C3B42165  32.417  25.875   7.050
 6506POPC   C4B42166  32.453  25.881   7.350
 6507POPC   NC342167  17.551   2.011   5.550
 6507POPC   PO442168  17.501   2.031   5.850
 6507POPC   GL142169  17.546   1.954   6.150
 6507POPC   GL242170  17.343   1.949   6.150
 6507POPC   C1A42171  17.503   1.966   6.450
 6507POPC   D2A42172  17.475   1.969   6.750
 6507POPC   C3A42173  17.498   1.975   7.050
 6507POPC   C4A42174  17.537   2.016   7.350
 6507POPC   C1B42175  17.244   1.976   6.450
 6507POPC   C2B42176  17.282   1.934   6.750
 6507POPC   C3B42177  17.225   1.973   7.050
 6507POPC   C4B42178  17.247   2.002   7.350
 6508POPC   NC342179  36.126  34.598   5.550
 6508POPC   PO442180  36.121  34.557   5.850
 6508POPC   GL142181  36.110  34.600   6.150
 6508POPC   GL242182  36.188  34.492   6.150
 6508POPC   C1A42183  36.143  34.534   6.450
 6508POPC   D2A42184  36.155  34.535   6.750
 6508POPC   C3A42185  36.173  34.593   7.050
 6508POPC   C4A42186  36.087  34.554   7.350
 6508POPC   C1B42187  36.113  34.348   6.450
 6508POPC   C2B42188  36.182  34.352   6.750
 6508POPC   C3B42189  36.160  34.285   7.050
 6508POPC   C4B42190  36.196  34.344   7.350
 6509POPC   NC342191  29.966  41.596   5.550
 6509POPC   PO442192  29.921  41.560   5.850
 6509POPC   GL142193  29.917  41.563   6.150
 6509POPC   GL242194  29.776  41.521   6.150
 6509POPC   C1A42195  29.927  41.601   6.450
 6509POPC   D2A42196  29.910  41.523   6.750
 6509POPC   C3A42197  29.969  41.575   7.050
 6509POPC   C4A42198  29.894  41.541   7.350
 6509POPC   C1B42199  29.683  41.598   6.450
 6509POPC   C2B42200  29.630  41.524   6.750
 6509POPC   C3B42201  29.624  41.595   7.050
 6509POPC   C4B42202  29.658  41.551   7.350
 6510POPC   NC342203  22.153   5.908   5.550
 6510POPC   PO442204  22.209   5.827   5.850
 6510POPC   GL142205  22.161   5.819   6.150
 6510POPC   GL242206  22.172   5.971   6.150
 6510POPC   C1A42207  22.118   5.829   6.450
 6510POPC   D2A42208  22.122   5.885   6.750
 6510POPC   C3A42209  22.161   5.862   7.050
 6510POPC   C4A42210  22.115   5.893   7.350
 6510POPC   C1B42211  22.115   6.159   6.450
 6510POPC   C2B42212  22.115   6.096   6.750
 6510POPC   C3B42213  22.205   6.085   7.050
 6510POPC   C4B42214  22.169   6.136   7.350
 6511POPC   NC342215  42.314  20.564   5.550
 6511POPC   PO442216  42.336  20.594   5.850
 6511POPC   GL142217  42.327  20.596   6.150
 6511POPC   GL242218  42.279  20.551   6.150
 6511POPC   C1A42219  42.293  20.581   6.450
 6511POPC   D2A42220  42.297  20.649   6.750
 6511POPC   C3A42221  42.351  20.592   7.050
 6511POPC   C4A42222  42.367  20.639   7.350
 6511POPC   C1B42223  42.141  20.413   6.450
 6511POPC   C2B42224  42.220  20.425   6.750
 6511POPC   C3B42225  42.187  20.376   7.050
 6511POPC   C4B42226  42.142  20.404   7.350
 6512POPC   NC342227  44.625  27.615   5.550
 6512POPC   PO442228  44.626  27.598   5.850
 6512POPC   GL142229  44.643  27.608   6.150
 6512POPC   GL242230  44.736  27.532   6.150
 6512POPC   C1A42231  44.695  27.579   6.450
 6512POPC   D2A42232  44.659  27.592   6.750
 6512POPC   C3A42233  44.651  27.606   7.050
 6512POPC   C4A42234  44.626  27.611   7.350
 6512POPC   C1B42235  44.924  27.541   6.450
 6512POPC   C2B42236  44.910  27.469   6.750
 6512POPC   C3B42237  44.930  27.506   7.050
 6512POPC   C4B42238  44.919  27.443   7.350
 6513POPC   NC342239  37.685  13.644   5.550
 6513POPC   PO442240  37.694  13.602   5.850
 6513POPC   GL142241  37.630  13.636   6.150
 6513POPC   GL242242  37.611  13.573   6.150
 6513POPC   C1A42243  37.686  13.585   6.450
 6513POPC   D2A42244  37.702  13.668   6.750
 6513POPC   C3A42245  37.712  13.658   7.050
 6513POPC   C4A42246  37.672  13.644   7.350
 6513POPC   C1B42247  37.479  13.459   6.450
 6513POPC   C2B42248  37.530  13.457   6.750
 6513POPC   C3B42249  37.476  13.487   7.050
 6513POPC   C4B42250  37.507  13.451   7.350
 6514POPC   NC342251  33.069   9.006   5.550
 6514POPC   PO442252  32.991   8.984   5.850
 6514POPC   GL142253  32.988   9.014   6.150
 6514POPC   GL242254  32.926   8.838   6.150
 6514POPC   C1A42255  32.992   8.954   6.450
 6514POPC   D2A42256  33.059   8.953   6.750
 6514POPC   C3A42257  32.985   8.968   7.050
 6514POPC   C4A42258  33.067   8.946   7.350
 6514POPC   C1B42259  32.875   8.793   6.450
 6514POPC   C2B42260  32.921   8.781   6.750
 6514POPC   C3B42261  32.884   8.767   7.050
 6514POPC   C4B42262  32.902   8.808   7.350
 6515POPC   NC342263  26.016  29.136   5.550
 6515POPC   PO442264  26.055  29.173   5.850
 6515POPC   GL142265  26.053  29.114   6.150
 6515POPC   GL242266  25.945  29.268   6.150
 6515POPC   C1A42267  26.058  29.122   6.450
 6515POPC   D2A42268  26.031  29.185   6.750
 6515POPC   C3A42269  26.073  29.121   7.050
 6515POPC   C4A42270  26.008  29.182   7.350
 6515POPC   C1B42271  25.866  29.318   6.450
 6515POPC   C2B42272  25.890  29.285   6.750
 6515POPC   C3B42273  25.833  29.270   7.050
 6515POPC   C4B42274  25.898  29.356   7.350
 6516POPC   NC342275   4.360  29.894   5.550
 6516POPC   PO442276   4.305  29.947   5.850
 6516POPC   GL142277   4.364  29.964   6.150
 6516POPC   GL242278   4.212  29.988   6.150
 6516POPC   C1A42279   4.287  29.966   6.450
 6516POPC   D2A42280   4.269  29.941   6.750
 6516POPC   C3A42281   4.302  29.875   7.050
 6516POPC   C4A42282   4.284  29.882   7.350
 6516POPC   C1B42283   4.045  30.047   6.450
 6516POPC   C2B42284   4.063  30.047   6.750
 6516POPC   C3B42285   4.110  30.049   7.050
 6516POPC   C4B42286   4.123  29.985   7.350
 6517POPC   NC342287  39.982   9.761   5.550
 6517POPC   PO442288  39.973   9.733   5.850
 6517POPC   GL142289  39.973   9.703   6.150
 6517POPC   GL242290  40.047   9.628   6.150
 6517POPC   C1A42291  40.039   9.791   6.450
 6517POPC   D2A42292  39.994   9.727   6.750
 6517POPC   C3A42293  40.022   9.771   7.050
 6517POPC   C4A42294  40.054   9.709   7.350
 6517POPC   C1B42295  39.967   9.462   6.450
 6517POPC   C2B42296  39.989   9.537   6.750
 6517POPC   C3B42297  39.986   9.500   7.050
 6517POPC   C4B42298  40.013   9.487   7.350
 6518POPC   NC342299   7.412  35.344   5.550
 6518POPC   PO442300   7.429  35.350   5.850
 6518POPC   GL142301   7.419  35.383   6.150
 6518POPC   GL242302   7.306  35.350   6.150
 6518POPC   C1A42303   7.455  35.363   6.450
 6518POPC   D2A42304   7.387  35.333   6.750
 6518POPC   C3A42305   7.454  35.385   7.050
 6518POPC   C4A42306   7.446  35.317   7.350
 6518POPC   C1B42307   7.153  35.416   6.450
 6518POPC   C2B42308   7.152  35.454   6.750
 6518POPC   C3B42309   7.128  35.382   7.050
 6518POPC   C4B42310   7.161  35.440   7.350
 6519POPC   NC342311   2.745   5.141   5.550
 6519POPC   PO442312   2.772   5.077   5.850
 6519POPC   GL142313   2.797   5.095   6.150
 6519POPC   GL242314   2.598   5.145   6.150
 6519POPC   C1A42315   2.793   5.111   6.450
 6519POPC   D2A42316   2.761   5.113   6.750
 6519POPC   C3A42317   2.730   5.127   7.050
 6519POPC   C4A42318   2.732   5.109   7.350
 6519POPC   C1B42319   2.535   5.145   6.450
 6519POPC   C2B42320   2.543   5.109   6.750
 6519POPC   C3B42321   2.525   5.092   7.050
 6519POPC   C4B42322   2.514   5.106   7.350
 6520POPC   NC342323  21.386   7.465   5.550
 6520POPC   PO442324  21.337   7.460   5.850
 6520POPC   GL142325  21.357   7.465   6.150
 6520POPC   GL242326  21.233   7.488   6.150
 6520POPC   C1A42327  21.407   7.393   6.450
 6520POPC   D2A42328  21.396   7.444   6.750
 6520POPC   C3A42329  21.361   7.457   7.050
 6520POPC   C4A42330  21.357   7.391   7.350
 6520POPC   C1B42331  21.200   7.493   6.450
 6520POPC   C2B42332  21.207   7.516   6.750
 6520POPC   C3B42333  21.192   7.486   7.050
 6520POPC   C4B42334  21.147   7.565   7.350
 6521POPC   NC342335  12.043  20.636   5.550
 6521POPC   PO442336  12.082  20.618   5.850
 6521POPC   GL142337  12.035  20.623   6.150
 6521POPC   GL242338  11.958  20.683   6.150
 6521POPC   C1A42339  12.083  20.572   6.450
 6521POPC   D2A42340  12.092  20.656   6.750
 6521POPC   C3A42341  12.037  20.634   7.050
 6521POPC   C4A42342  12.050  20.577   7.350
 6521POPC   C1B42343  11.819  20.695   6.450
 6521POPC   C2B42344  11.864  20.780   6.750
 6521POPC   C3B42345  11.872  20.766   7.050
 6521POPC   C4B42346  11.820  20.705   7.350
 6522POPC   NC342347   2.745  43.089   5.550
 6522POPC   PO442348   2.737  43.122   5.850
 6522POPC   GL142349   2.764  43.137   6.150
 6522POPC   GL242350   2.838  43.233   6.150
 6522POPC   C1A42351   2.811  43.131   6.450
 6522POPC   D2A42352   2.759  43.083   6.750
 6522POPC   C3A42353   2.725  43.061   7.050
 6522POPC   C4A42354   2.740  43.074   7.350
 6522POPC   C1B42355   2.891  43.319   6.450
 6522POPC   C2B42356   2.910  43.375   6.750
 6522POPC   C3B42357   2.843  43.292   7.050
 6522POPC   C4B42358   2.904  43.381   7.350
 6523POPC   NC342359  29.100  11.313   5.550
 6523POPC   PO442360  29.097  11.346   5.850
 6523POPC   GL142361  29.186  11.280   6.150
 6523POPC   GL242362  29.174  11.243   6.150
 6523POPC   C1A42363  29.115  11.334   6.450
 6523POPC   D2A42364  29.174  11.335   6.750
 6523POPC   C3A42365  29.153  11.323   7.050
 6523POPC   C4A42366  29.131  11.309   7.350
 6523POPC   C1B42367  29.267  11.141   6.450
 6523POPC   C2B42368  29.310  11.135   6.750
 6523POPC   C3B42369  29.286  11.083   7.050
 6523POPC   C4B42370  29.331  11.124   7.350
 6524POPC   NC342371  19.075  15.990   5.550
 6524POPC   PO442372  19.014  15.971   5.850
 6524POPC   GL142373  19.044  16.002   6.150
 6524POPC   GL242374  19.020  15.862   6.150
 6524POPC   C1A42375  19.048  15.996   6.450
 6524POPC   D2A42376  19.014  15.927   6.750
 6524POPC   C3A42377  19.041  15.914   7.050
 6524POPC   C4A42378  19.049  15.977   7.350
 6524POPC   C1B42379  19.055  15.684   6.450
 6524POPC   C2B42380  19.086  15.725   6.750
 6524POPC   C3B42381  19.065  15.734   7.050
 6524POPC   C4B42382  19.096  15.737   7.350
 6525POPC   NC342383  31.513  12.852   5.550
 6525POPC   PO442384  31.471  12.872   5.850
 6525POPC   GL142385  31.505  12.861   6.150
 6525POPC   GL242386  31.382  12.708   6.150
 6525POPC   C1A42387  31.457  12.818   6.450
 6525POPC   D2A42388  31.475  12.802   6.750
 6525POPC   C3A42389  31.499  12.877   7.050
 6525POPC   C4A42390  31.475  12.865   7.350
 6525POPC   C1B42391  31.307  12.634   6.450
 6525POPC   C2B42392  31.322  12.681   6.750
 6525POPC   C3B42393  31.355  12.623   7.050
 6525POPC   C4B42394  31.373  12.630   7.350
 6526POPC   NC342395   2.007   4.316   5.550
 6526POPC   PO442396   1.949   4.280   5.850
 6526POPC   GL142397   1.988   4.331   6.150
 6526POPC   GL242398   2.016   4.475   6.150
 6526POPC   C1A42399   1.975   4.299   6.450
 6526POPC   D2A42400   1.972   4.333   6.750
 6526POPC   C3A42401   1.986   4.314   7.050
 6526POPC   C4A42402   2.010   4.305   7.350
 6526POPC   C1B42403   1.917   4.607   6.450
 6526POPC   C2B42404   1.982   4.571   6.750
 6526POPC   C3B42405   1.960   4.589   7.050
 6526POPC   C4B42406   1.936   4.601   7.350
 6527POPC   NC342407  22.918  44.665   5.550
 6527POPC   PO442408  22.897  44.680   5.850
 6527POPC   GL142409  22.941  44.700   6.150
 6527POPC   GL242410  22.955  44.507   6.150
 6527POPC   C1A42411  22.939  44.659   6.450
 6527POPC   D2A42412  22.928  44.672   6.750
 6527POPC   C3A42413  22.895  44.620   7.050
 6527POPC   C4A42414  22.896  44.669   7.350
 6527POPC   C1B42415  22.975  44.382   6.450
 6527POPC   C2B42416  23.005  44.433   6.750
 6527POPC   C3B42417  23.036  44.455   7.050
 6527POPC   C4B42418  23.016  44.445   7.350
 6528POPC   NC342419   2.793   5.912   5.550
 6528POPC   PO442420   2.777   5.838   5.850
 6528POPC   GL142421   2.791   5.833   6.150
 6528POPC   GL242422   2.773   6.003   6.150
 6528POPC   C1A42423   2.806   5.918   6.450
 6528POPC   D2A42424   2.794   5.832   6.750
 6528POPC   C3A42425   2.779   5.834   7.050
 6528POPC   C4A42426   2.754   5.888   7.350
 6528POPC   C1B42427   2.820   6.058   6.450
 6528POPC   C2B42428   2.890   6.145   6.750
 6528POPC   C3B42429   2.830   6.128   7.050
 6528POPC   C4B42430   2.824   6.088   7.350
 6529POPC   NC342431   4.359  36.907   5.550
 6529POPC   PO442432   4.366  36.936   5.850
 6529POPC   GL142433   4.313  36.916   6.150
 6529POPC   GL242434   4.454  36.861   6.150
 6529POPC   C1A42435   4.335  36.910   6.450
 6529POPC   D2A42436   4.309  36.861   6.750
 6529POPC   C3A42437   4.324  36.951   7.050
 6529POPC   C4A42438   4.268  36.902   7.350
 6529POPC   C1B42439   4.529  36.776   6.450
 6529POPC   C2B42440   4.581  36.811   6.750
 6529POPC   C3B42441   4.490  36.811   7.050
 6529POPC   C4B42442   4.516  36.781   7.350
 6530POPC   NC342443  29.096  36.164   5.550
 6530POPC   PO442444  29.151  36.106   5.850
 6530POPC   GL142445  29.190  36.096   6.150
 6530POPC   GL242446  29.228  35.988   6.150
 6530POPC   C1A42447  29.127  36.128   6.450
 6530POPC   D2A42448  29.120  36.124   6.750
 6530POPC   C3A42449  29.160  36.116   7.050
 6530POPC   C4A42450  29.123  36.148   7.350
 6530POPC   C1B42451  29.271  35.925   6.450
 6530POPC   C2B42452  29.257  35.858   6.750
 6530POPC   C3B42453  29.247  35.873   7.050
 6530POPC   C4B42454  29.287  35.930   7.350
 6531POPC   NC342455  20.653  16.763   5.550
 6531POPC   PO442456  20.591  16.709   5.850
 6531POPC   GL142457  20.654  16.691   6.150
 6531POPC   GL242458  20.667  16.866   6.150
 6531POPC   C1A42459  20.571  16.770   6.450
 6531POPC   D2A42460  20.609  16.774   6.750
 6531POPC   C3A42461  20.634  16.771   7.050
 6531POPC   C4A42462  20.580  16.703   7.350
 6531POPC   C1B42463  20.821  16.938   6.450
 6531POPC   C2B42464  20.759  16.894   6.750
 6531POPC   C3B42465  20.747  16.931   7.050
 6531POPC   C4B42466  20.813  16.911   7.350
 6532POPC   NC342467  37.698   2.814   5.550
 6532POPC   PO442468  37.713   2.717   5.850
 6532POPC   GL142469  37.662   2.807   6.150
 6532POPC   GL242470  37.564   2.755   6.150
 6532POPC   C1A42471  37.722   2.758   6.450
 6532POPC   D2A42472  37.727   2.778   6.750
 6532POPC   C3A42473  37.680   2.753   7.050
 6532POPC   C4A42474  37.704   2.769   7.350
 6532POPC   C1B42475  37.465   2.740   6.450
 6532POPC   C2B42476  37.437   2.708   6.750
 6532POPC   C3B42477  37.456   2.692   7.050
 6532POPC   C4B42478  37.386   2.674   7.350
 6533POPC   NC342479  19.884   6.601   5.550
 6533POPC   PO442480  19.794   6.677   5.850
 6533POPC   GL142481  19.869   6.626   6.150
 6533POPC   GL242482  19.736   6.581   6.150
 6533POPC   C1A42483  19.862   6.609   6.450
 6533POPC   D2A42484  19.858   6.676   6.750
 6533POPC   C3A42485  19.809   6.668   7.050
 6533POPC   C4A42486  19.847   6.649   7.350
 6533POPC   C1B42487  19.673   6.506   6.450
 6533POPC   C2B42488  19.598   6.550   6.750
 6533POPC   C3B42489  19.616   6.494   7.050
 6533POPC   C4B42490  19.652   6.553   7.350
 6534POPC   NC342491  43.151  26.779   5.550
 6534POPC   PO442492  43.143  26.819   5.850
 6534POPC   GL142493  43.113  26.781   6.150
 6534POPC   GL242494  43.174  26.971   6.150
 6534POPC   C1A42495  43.157  26.809   6.450
 6534POPC   D2A42496  43.137  26.779   6.750
 6534POPC   C3A42497  43.061  26.848   7.050
 6534POPC   C4A42498  43.072  26.772   7.350
 6534POPC   C1B42499  43.290  27.049   6.450
 6534POPC   C2B42500  43.250  27.074   6.750
 6534POPC   C3B42501  43.248  27.014   7.050
 6534POPC   C4B42502  43.256  27.038   7.350
 6535POPC   NC342503  15.931  28.367   5.550
 6535POPC   PO442504  15.933  28.364   5.850
 6535POPC   GL142505  15.927  28.359   6.150
 6535POPC   GL242506  15.970  28.447   6.150
 6535POPC   C1A42507  15.921  28.339   6.450
 6535POPC   D2A42508  15.993  28.393   6.750
 6535POPC   C3A42509  16.003  28.347   7.050
 6535POPC   C4A42510  15.971  28.322   7.350
 6535POPC   C1B42511  15.931  28.586   6.450
 6535POPC   C2B42512  15.897  28.652   6.750
 6535POPC   C3B42513  15.887  28.593   7.050
 6535POPC   C4B42514  15.885  28.612   7.350
 6536POPC   NC342515  23.747  12.804   5.550
 6536POPC   PO442516  23.714  12.857   5.850
 6536POPC   GL142517  23.729  12.873   6.150
 6536POPC   GL242518  23.622  12.840   6.150
 6536POPC   C1A42519  23.669  12.854   6.450
 6536POPC   D2A42520  23.724  12.884   6.750
 6536POPC   C3A42521  23.726  12.815   7.050
 6536POPC   C4A42522  23.761  12.898   7.350
 6536POPC   C1B42523  23.463  12.707   6.450
 6536POPC   C2B42524  23.535  12.756   6.750
 6536POPC   C3B42525  23.460  12.753   7.050
 6536POPC   C4B42526  23.476  12.747   7.350
 6537POPC   NC342527  30.732   8.938   5.550
 6537POPC   PO442528  30.731   8.986   5.850
 6537POPC   GL142529  30.649   9.007   6.150
 6537POPC   GL242530  30.624   9.034   6.150
 6537POPC   C1A42531  30.650   8.989   6.450
 6537POPC   D2A42532  30.675   9.011   6.750
 6537POPC   C3A42533  30.660   8.958   7.050
 6537POPC   C4A42534  30.661   8.996   7.350
 6537POPC   C1B42535  30.438   9.013   6.450
 6537POPC   C2B42536  30.437   9.044   6.750
 6537POPC   C3B42537  30.489   9.103   7.050
 6537POPC   C4B42538  30.467   9.042   7.350
 6538POPC   NC342539  16.765  36.093   5.550
 6538POPC   PO442540  16.772  36.150   5.850
 6538POPC   GL142541  16.765  36.108   6.150
 6538POPC   GL242542  16.859  36.128   6.150
 6538POPC   C1A42543  16.685  36.126   6.450
 6538POPC   D2A42544  16.688  36.106   6.750
 6538POPC   C3A42545  16.746  36.080   7.050
 6538POPC   C4A42546  16.715  36.096   7.350
 6538POPC   C1B42547  17.003  36.091   6.450
 6538POPC   C2B42548  16.994  36.130   6.750
 6538POPC   C3B42549  16.990  36.170   7.050
 6538POPC   C4B42550  16.999  36.098   7.350
 6539POPC   NC342551  16.727  23.665   5.550
 6539POPC   PO442552  16.710  23.664   5.850
 6539POPC   GL142553  16.772  23.725   6.150
 6539POPC   GL242554  16.572  23.723   6.150
 6539POPC   C1A42555  16.738  23.699   6.450
 6539POPC   D2A42556  16.754  23.713   6.750
 6539POPC   C3A42557  16.739  23.700   7.050
 6539POPC   C4A42558  16.769  23.736   7.350
 6539POPC   C1B42559  16.533  23.735   6.450
 6539POPC   C2B42560  16.519  23.806   6.750
 6539POPC   C3B42561  16.456  23.733   7.050
 6539POPC   C4B42562  16.512  23.749   7.350
 6540POPC   NC342563   2.812  29.125   5.550
 6540POPC   PO442564   2.785  29.119   5.850
 6540POPC   GL142565   2.815  29.160   6.150
 6540POPC   GL242566   2.869  29.294   6.150
 6540POPC   C1A42567   2.782  29.164   6.450
 6540POPC   D2A42568   2.803  29.151   6.750
 6540POPC   C3A42569   2.804  29.141   7.050
 6540POPC   C4A42570   2.794  29.095   7.350
 6540POPC   C1B42571   2.839  29.321   6.450
 6540POPC   C2B42572   2.929  29.370   6.750
 6540POPC   C3B42573   2.877  29.361   7.050
 6540POPC   C4B42574   2.837  29.412   7.350
 6541POPC   NC342575  18.301  20.578   5.550
 6541POPC   PO442576  18.312  20.568   5.850
 6541POPC   GL142577  18.242  20.639   6.150
 6541POPC   GL242578  18.157  20.687   6.150
 6541POPC   C1A42579  18.264  20.642   6.450
 6541POPC   D2A42580  18.321  20.570   6.750
 6541POPC   C3A42581  18.267  20.617   7.050
 6541POPC   C4A42582  18.292  20.617   7.350
 6541POPC   C1B42583  18.022  20.723   6.450
 6541POPC   C2B42584  18.021  20.705   6.750
 6541POPC   C3B42585  18.061  20.691   7.050
 6541POPC   C4B42586  18.044  20.710   7.350
 6542POPC   NC342587  19.031  26.079   5.550
 6542POPC   PO442588  19.017  26.087   5.850
 6542POPC   GL142589  19.023  25.998   6.150
 6542POPC   GL242590  19.012  25.978   6.150
 6542POPC   C1A42591  19.052  26.081   6.450
 6542POPC   D2A42592  19.017  26.052   6.750
 6542POPC   C3A42593  19.081  26.005   7.050
 6542POPC   C4A42594  19.019  26.074   7.350
 6542POPC   C1B42595  18.931  25.821   6.450
 6542POPC   C2B42596  18.849  25.832   6.750
 6542POPC   C3B42597  18.904  25.894   7.050
 6542POPC   C4B42598  18.905  25.837   7.350
 6543POPC   NC342599  28.335  13.604   5.550
 6543POPC   PO442600  28.352  13.628   5.850
 6543POPC   GL142601  28.346  13.654   6.150
 6543POPC   GL242602  28.372  13.733   6.150
 6543POPC   C1A42603  28.321  13.616   6.450
 6543POPC   D2A42604  28.410  13.672   6.750
 6543POPC   C3A42605  28.337  13.628   7.050
 6543POPC   C4A42606  28.320  13.632   7.350
 6543POPC   C1B42607  28.384  13.896   6.450
 6543POPC   C2B42608  28.357  13.838   6.750
 6543POPC   C3B42609  28.385  13.860   7.050
 6543POPC   C4B42610  28.387  13.876   7.350
 6544POPC   NC342611  31.465   4.305   5.550
 6544POPC   PO442612  31.482   4.342   5.850
 6544POPC   GL142613  31.436   4.352   6.150
 6544POPC   GL242614  31.396   4.443   6.150
 6544POPC   C1A42615  31.467   4.329   6.450
 6544POPC   D2A42616  31.506   4.351   6.750
 6544POPC   C3A42617  31.452   4.319   7.050
 6544POPC   C4A42618  31.469   4.318   7.350
 6544POPC   C1B42619  31.368   4.487   6.450
 6544POPC   C2B42620  31.369   4.543   6.750
 6544POPC   C3B42621  31.312   4.539   7.050
 6544POPC   C4B42622  31.371   4.578   7.350
 6545POPC   NC342623  29.914  10.571   5.550
 6545POPC   PO442624  29.920  10.499   5.850
 6545POPC   GL142625  29.874  10.514   6.150
 6545POPC   GL242626  29.831  10.669   6.150
 6545POPC   C1A42627  29.916  10.506   6.450
 6545POPC   D2A42628  29.897  10.559   6.750
 6545POPC   C3A42629  29.878  10.570   7.050
 6545POPC   C4A42630  29.880  10.554   7.350
 6545POPC   C1B42631  29.715  10.723   6.450
 6545POPC   C2B42632  29.796  10.741   6.750
 6545POPC   C3B42633  29.714  10.743   7.050
 6545POPC   C4B42634  29.793  10.710   7.350
 6546POPC   NC342635   7.432  12.899   5.550
 6546POPC   PO442636   7.458  12.823   5.850
 6546POPC   GL142637   7.391  12.817   6.150
 6546POPC   GL242638   7.584  12.813   6.150
 6546POPC   C1A42639   7.409  12.900   6.450
 6546POPC   D2A42640   7.454  12.870   6.750
 6546POPC   C3A42641   7.392  12.828   7.050
 6546POPC   C4A42642   7.460  12.828   7.350
 6546POPC   C1B42643   7.703  12.760   6.450
 6546POPC   C2B42644   7.647  12.801   6.750
 6546POPC   C3B42645   7.659  12.789   7.050
 6546POPC   C4B42646   7.656  12.810   7.350
 6547POPC   NC342647   0.438  43.155   5.550
 6547POPC   PO442648   0.433  43.132   5.850
 6547POPC   GL142649   0.433  43.061   6.150
 6547POPC   GL242650   0.488  43.282   6.150
 6547POPC   C1A42651   0.405  43.141   6.450
 6547POPC   D2A42652   0.467  43.084   6.750
 6547POPC   C3A42653   0.449  43.106   7.050
 6547POPC   C4A42654   0.424  43.068   7.350
 6547POPC   C1B42655   0.518  43.331   6.450
 6547POPC   C2B42656   0.537  43.326   6.750
 6547POPC   C3B42657   0.502  43.385   7.050
 6547POPC   C4B42658   0.495  43.336   7.350
 6548POPC   NC342659  22.138   7.457   5.550
 6548POPC   PO442660  22.151   7.401   5.850
 6548POPC   GL142661  22.122   7.454   6.150
 6548POPC   GL242662  22.039   7.494   6.150
 6548POPC   C1A42663  22.173   7.467   6.450
 6548POPC   D2A42664  22.194   7.441   6.750
 6548POPC   C3A42665  22.179   7.405   7.050
 6548POPC   C4A42666  22.118   7.420   7.350
 6548POPC   C1B42667  21.944   7.546   6.450
 6548POPC   C2B42668  22.006   7.596   6.750
 6548POPC   C3B42669  21.965   7.581   7.050
 6548POPC   C4B42670  22.020   7.590   7.350
 6549POPC   NC342671   0.483  15.184   5.550
 6549POPC   PO442672   0.464  15.178   5.850
 6549POPC   GL142673   0.476  15.163   6.150
 6549POPC   GL242674   0.412  15.322   6.150
 6549POPC   C1A42675   0.408  15.151   6.450
 6549POPC   D2A42676   0.398  15.229   6.750
 6549POPC   C3A42677   0.471  15.197   7.050
 6549POPC   C4A42678   0.429  15.177   7.350
 6549POPC   C1B42679   0.369  15.421   6.450
 6549POPC   C2B42680   0.325  15.418   6.750
 6549POPC   C3B42681   0.274  15.383   7.050
 6549POPC   C4B42682   0.328  15.410   7.350
 6550POPC   NC342683  24.453   8.208   5.550
 6550POPC   PO442684  24.539   8.187   5.850
 6550POPC   GL142685  24.475   8.186   6.150
 6550POPC   GL242686  24.587   8.252   6.150
 6550POPC   C1A42687  24.471   8.165   6.450
 6550POPC   D2A42688  24.471   8.148   6.750
 6550POPC   C3A42689  24.510   8.195   7.050
 6550POPC   C4A42690  24.515   8.173   7.350
 6550POPC   C1B42691  24.656   8.340   6.450
 6550POPC   C2B42692  24.715   8.383   6.750
 6550POPC   C3B42693  24.674   8.333   7.050
 6550POPC   C4B42694  24.642   8.381   7.350
 6551POPC   NC342695  26.810  37.692   5.550
 6551POPC   PO442696  26.808  37.672   5.850
 6551POPC   GL142697  26.816  37.655   6.150
 6551POPC   GL242698  26.682  37.796   6.150
 6551POPC   C1A42699  26.861  37.630   6.450
 6551POPC   D2A42700  26.866  37.660   6.750
 6551POPC   C3A42701  26.784  37.667   7.050
 6551POPC   C4A42702  26.848  37.691   7.350
 6551POPC   C1B42703  26.629  37.791   6.450
 6551POPC   C2B42704  26.642  37.842   6.750
 6551POPC   C3B42705  26.583  37.791   7.050
 6551POPC   C4B42706  26.645  37.859   7.350
 6552POPC   NC342707   7.407  10.522   5.550
 6552POPC   PO442708   7.417  10.507   5.850
 6552POPC   GL142709   7.451  10.549   6.150
 6552POPC   GL242710   7.271  10.575   6.150
 6552POPC   C1A42711   7.380  10.501   6.450
 6552POPC   D2A42712   7.405  10.500   6.750
 6552POPC   C3A42713   7.409  10.561   7.050
 6552POPC   C4A42714   7.429  10.555   7.350
 6552POPC   C1B42715   7.192  10.552   6.450
 6552POPC   C2B42716   7.142  10.492   6.750
 6552POPC   C3B42717   7.219  10.581   7.050
 6552POPC   C4B42718   7.204  10.571   7.350
 6553POPC   NC342719  13.625   1.237   5.550
 6553POPC   PO442720  13.583   1.228   5.850
 6553POPC   GL142721  13.609   1.187   6.150
 6553POPC   GL242722  13.638   1.120   6.150
 6553POPC   C1A42723  13.586   1.193   6.450
 6553POPC   D2A42724  13.618   1.225   6.750
 6553POPC   C3A42725  13.666   1.186   7.050
 6553POPC   C4A42726  13.623   1.204   7.350
 6553POPC   C1B42727  13.556   0.949   6.450
 6553POPC   C2B42728  13.577   0.985   6.750
 6553POPC   C3B42729  13.613   0.933   7.050
 6553POPC   C4B42730  13.594   0.956   7.350
 6554POPC   NC342731  35.334  16.708   5.550
 6554POPC   PO442732  35.318  16.698   5.850
 6554POPC   GL142733  35.336  16.735   6.150
 6554POPC   GL242734  35.253  16.765   6.150
 6554POPC   C1A42735  35.387  16.696   6.450
 6554POPC   D2A42736  35.302  16.718   6.750
 6554POPC   C3A42737  35.368  16.700   7.050
 6554POPC   C4A42738  35.339  16.694   7.350
 6554POPC   C1B42739  35.154  16.819   6.450
 6554POPC   C2B42740  35.100  16.835   6.750
 6554POPC   C3B42741  35.169  16.840   7.050
 6554POPC   C4B42742  35.139  16.851   7.350
 6555POPC   NC342743  33.005   4.337   5.550
 6555POPC   PO442744  33.049   4.366   5.850
 6555POPC   GL142745  33.042   4.291   6.150
 6555POPC   GL242746  32.987   4.429   6.150
 6555POPC   C1A42747  32.983   4.352   6.450
 6555POPC   D2A42748  33.013   4.340   6.750
 6555POPC   C3A42749  32.979   4.291   7.050
 6555POPC   C4A42750  32.990   4.364   7.350
 6555POPC   C1B42751  32.849   4.528   6.450
 6555POPC   C2B42752  32.808   4.457   6.750
 6555POPC   C3B42753  32.847   4.482   7.050
 6555POPC   C4B42754  32.821   4.496   7.350
 6556POPC   NC342755  10.524  43.858   5.550
 6556POPC   PO442756  10.502  43.923   5.850
 6556POPC   GL142757  10.517  43.904   6.150
 6556POPC   GL242758  10.635  44.020   6.150
 6556POPC   C1A42759  10.561  43.918   6.450
 6556POPC   D2A42760  10.551  43.882   6.750
 6556POPC   C3A42761  10.550  43.854   7.050
 6556POPC   C4A42762  10.524  43.894   7.350
 6556POPC   C1B42763  10.705  44.122   6.450
 6556POPC   C2B42764  10.645  44.097   6.750
 6556POPC   C3B42765  10.689  44.047   7.050
 6556POPC   C4B42766  10.634  44.059   7.350
 6557POPC   NC342767  29.102  40.742   5.550
 6557POPC   PO442768  29.097  40.793   5.850
 6557POPC   GL142769  29.096  40.750   6.150
 6557POPC   GL242770  29.257  40.641   6.150
 6557POPC   C1A42771  29.166  40.775   6.450
 6557POPC   D2A42772  29.140  40.744   6.750
 6557POPC   C3A42773  29.109  40.817   7.050
 6557POPC   C4A42774  29.142  40.740   7.350
 6557POPC   C1B42775  29.328  40.587   6.450
 6557POPC   C2B42776  29.276  40.587   6.750
 6557POPC   C3B42777  29.339  40.632   7.050
 6557POPC   C4B42778  29.283  40.568   7.350
 6558POPC   NC342779  16.004  43.152   5.550
 6558POPC   PO442780  15.923  43.088   5.850
 6558POPC   GL142781  15.983  43.074   6.150
 6558POPC   GL242782  15.858  43.170   6.150
 6558POPC   C1A42783  15.935  43.095   6.450
 6558POPC   D2A42784  15.909  43.108   6.750
 6558POPC   C3A42785  15.931  43.063   7.050
 6558POPC   C4A42786  15.983  43.101   7.350
 6558POPC   C1B42787  15.750  43.144   6.450
 6558POPC   C2B42788  15.682  43.206   6.750
 6558POPC   C3B42789  15.692  43.193   7.050
 6558POPC   C4B42790  15.744  43.155   7.350
 6559POPC   NC342791  24.484  41.597   5.550
 6559POPC   PO442792  24.483  41.515   5.850
 6559POPC   GL142793  24.471  41.570   6.150
 6559POPC   GL242794  24.569  41.649   6.150
 6559POPC   C1A42795  24.535  41.516   6.450
 6559POPC   D2A42796  24.497  41.569   6.750
 6559POPC   C3A42797  24.451  41.523   7.050
 6559POPC   C4A42798  24.535  41.542   7.350
 6559POPC   C1B42799  24.698  41.627   6.450
 6559POPC   C2B42800  24.695  41.663   6.750
 6559POPC   C3B42801  24.770  41.671   7.050
 6559POPC   C4B42802  24.756  41.593   7.350
 6560POPC   NC342803  32.284  42.330   5.550
 6560POPC   PO442804  32.229  42.326   5.850
 6560POPC   GL142805  32.249  42.316   6.150
 6560POPC   GL242806  32.281  42.470   6.150
 6560POPC   C1A42807  32.236  42.367   6.450
 6560POPC   D2A42808  32.288  42.383   6.750
 6560POPC   C3A42809  32.278  42.365   7.050
 6560POPC   C4A42810  32.211  42.374   7.350
 6560POPC   C1B42811  32.345  42.522   6.450
 6560POPC   C2B42812  32.373  42.583   6.750
 6560POPC   C3B42813  32.372  42.575   7.050
 6560POPC   C4B42814  32.367  42.561   7.350
 6561POPC   NC342815  39.961  26.836   5.550
 6561POPC   PO442816  40.002  26.796   5.850
 6561POPC   GL142817  39.988  26.812   6.150
 6561POPC   GL242818  40.035  26.674   6.150
 6561POPC   C1A42819  39.984  26.784   6.450
 6561POPC   D2A42820  39.983  26.795   6.750
 6561POPC   C3A42821  39.959  26.784   7.050
 6561POPC   C4A42822  39.979  26.853   7.350
 6561POPC   C1B42823  40.106  26.573   6.450
 6561POPC   C2B42824  40.128  26.590   6.750
 6561POPC   C3B42825  40.126  26.602   7.050
 6561POPC   C4B42826  40.139  26.636   7.350
 6562POPC   NC342827  39.187  34.596   5.550
 6562POPC   PO442828  39.261  34.559   5.850
 6562POPC   GL142829  39.278  34.582   6.150
 6562POPC   GL242830  39.346  34.535   6.150
 6562POPC   C1A42831  39.262  34.583   6.450
 6562POPC   D2A42832  39.207  34.592   6.750
 6562POPC   C3A42833  39.186  34.563   7.050
 6562POPC   C4A42834  39.242  34.539   7.350
 6562POPC   C1B42835  39.512  34.541   6.450
 6562POPC   C2B42836  39.507  34.534   6.750
 6562POPC   C3B42837  39.508  34.539   7.050
 6562POPC   C4B42838  39.511  34.564   7.350
 6563POPC   NC342839   2.815  40.819   5.550
 6563POPC   PO442840   2.781  40.806   5.850
 6563POPC   GL142841   2.736  40.799   6.150
 6563POPC   GL242842   2.897  40.789   6.150
 6563POPC   C1A42843   2.780  40.780   6.450
 6563POPC   D2A42844   2.771  40.793   6.750
 6563POPC   C3A42845   2.755  40.807   7.050
 6563POPC   C4A42846   2.801  40.819   7.350
 6563POPC   C1B42847   3.038  40.716   6.450
 6563POPC   C2B42848   2.970  40.723   6.750
 6563POPC   C3B42849   2.970  40.717   7.050
 6563POPC   C4B42850   3.008  40.723   7.350
 6564POPC   NC342851  18.324  18.245   5.550
 6564POPC   PO442852  18.256  18.278   5.850
 6564POPC   GL142853  18.250  18.269   6.150
 6564POPC   GL242854  18.298  18.439   6.150
 6564POPC   C1A42855  18.285  18.278   6.450
 6564POPC   D2A42856  18.243  18.312   6.750
 6564POPC   C3A42857  18.256  18.257   7.050
 6564POPC   C4A42858  18.273  18.252   7.350
 6564POPC   C1B42859  18.386  18.535   6.450
 6564POPC   C2B42860  18.423  18.504   6.750
 6564POPC   C3B42861  18.399  18.547   7.050
 6564POPC   C4B42862  18.411  18.492   7.350
 6565POPC   NC342863   5.089  43.091   5.550
 6565POPC   PO442864   5.134  43.079   5.850
 6565POPC   GL142865   5.115  43.126   6.150
 6565POPC   GL242866   5.198  43.093   6.150
 6565POPC   C1A42867   5.070  43.091   6.450
 6565POPC   D2A42868   5.135  43.095   6.750
 6565POPC   C3A42869   5.064  43.093   7.050
 6565POPC   C4A42870   5.046  43.139   7.350
 6565POPC   C1B42871   5.321  43.044   6.450
 6565POPC   C2B42872   5.312  43.004   6.750
 6565POPC   C3B42873   5.302  43.046   7.050
 6565POPC   C4B42874   5.362  43.062   7.350
 6566POPC   NC342875  13.628  36.087   5.550
 6566POPC   PO442876  13.642  36.129   5.850
 6566POPC   GL142877  13.620  36.090   6.150
 6566POPC   GL242878  13.615  36.002   6.150
 6566POPC   C1A42879  13.586  36.131   6.450
 6566POPC   D2A42880  13.661  36.087   6.750
 6566POPC   C3A42881  13.663  36.144   7.050
 6566POPC   C4A42882  13.599  36.108   7.350
 6566POPC   C1B42883  13.518  35.935   6.450
 6566POPC   C2B42884  13.548  35.870   6.750
 6566POPC   C3B42885  13.532  35.886   7.050
 6566POPC   C4B42886  13.472  35.924   7.350
 6567POPC   NC342887  22.146   0.460   5.550
 6567POPC   PO442888  22.187   0.456   5.850
 6567POPC   GL142889  22.200   0.417   6.150
 6567POPC   GL242890  22.203   0.570   6.150
 6567POPC   C1A42891  22.201   0.449   6.450
 6567POPC   D2A42892  22.161   0.402   6.750
 6567POPC   C3A42893  22.167   0.452   7.050
 6567POPC   C4A42894  22.212   0.471   7.350
 6567POPC   C1B42895  22.286   0.604   6.450
 6567POPC   C2B42896  22.322   0.676   6.750
 6567POPC   C3B42897  22.337   0.637   7.050
 6567POPC   C4B42898  22.300   0.638   7.350
 6568POPC   NC342899   0.396  15.968   5.550
 6568POPC   PO442900   0.485  15.992   5.850
 6568POPC   GL142901   0.428  15.927   6.150
 6568POPC   GL242902   0.409  16.037   6.150
 6568POPC   C1A42903   0.391  15.905   6.450
 6568POPC   D2A42904   0.429  16.000   6.750
 6568POPC   C3A42905   0.429  15.972   7.050
 6568POPC   C4A42906   0.421  16.005   7.350
 6568POPC   C1B42907   0.287  16.128   6.450
 6568POPC   C2B42908   0.316  16.172   6.750
 6568POPC   C3B42909   0.327  16.209   7.050
 6568POPC   C4B42910   0.279  16.200   7.350
 6569POPC   NC342911   5.868   0.479   5.550
 6569POPC   PO442912   5.909   0.393   5.850
 6569POPC   GL142913   5.841   0.403   6.150
 6569POPC   GL242914   6.008   0.495   6.150
 6569POPC   C1A42915   5.914   0.481   6.450
 6569POPC   D2A42916   5.870   0.447   6.750
 6569POPC   C3A42917   5.914   0.411   7.050
 6569POPC   C4A42918   5.886   0.414   7.350
 6569POPC   C1B42919   6.097   0.643   6.450
 6569POPC   C2B42920   6.087   0.633   6.750
 6569POPC   C3B42921   6.102   0.631   7.050
 6569POPC   C4B42922   6.052   0.587   7.350
 6570POPC   NC342923  37.689   4.337   5.550
 6570POPC   PO442924  37.665   4.337   5.850
 6570POPC   GL142925  37.634   4.326   6.150
 6570POPC   GL242926  37.639   4.469   6.150
 6570POPC   C1A42927  37.641   4.334   6.450
 6570POPC   D2A42928  37.667   4.353   6.750
 6570POPC   C3A42929  37.660   4.290   7.050
 6570POPC   C4A42930  37.683   4.325   7.350
 6570POPC   C1B42931  37.527   4.519   6.450
 6570POPC   C2B42932  37.550   4.523   6.750
 6570POPC   C3B42933  37.575   4.546   7.050
 6570POPC   C4B42934  37.590   4.582   7.350
 6571POPC   NC342935  43.914  19.062   5.550
 6571POPC   PO442936  43.897  19.095   5.850
 6571POPC   GL142937  43.864  19.037   6.150
 6571POPC   GL242938  43.961  19.167   6.150
 6571POPC   C1A42939  43.897  19.051   6.450
 6571POPC   D2A42940  43.901  19.050   6.750
 6571POPC   C3A42941  43.913  19.108   7.050
 6571POPC   C4A42942  43.849  19.009   7.350
 6571POPC   C1B42943  43.947  19.315   6.450
 6571POPC   C2B42944  43.960  19.314   6.750
 6571POPC   C3B42945  43.933  19.344   7.050
 6571POPC   C4B42946  43.967  19.284   7.350
 6572POPC   NC342947  36.160  43.074   5.550
 6572POPC   PO442948  36.104  43.145   5.850
 6572POPC   GL142949  36.082  43.133   6.150
 6572POPC   GL242950  36.224  43.198   6.150
 6572POPC   C1A42951  36.143  43.141   6.450
 6572POPC   D2A42952  36.177  43.082   6.750
 6572POPC   C3A42953  36.130  43.096   7.050
 6572POPC   C4A42954  36.116  43.119   7.350
 6572POPC   C1B42955  36.342  43.221   6.450
 6572POPC   C2B42956  36.388  43.218   6.750
 6572POPC   C3B42957  36.327  43.244   7.050
 6572POPC   C4B42958  36.328  43.263   7.350
 6573POPC   NC342959  28.395   2.791   5.550
 6573POPC   PO442960  28.356   2.779   5.850
 6573POPC   GL142961  28.369   2.726   6.150
 6573POPC   GL242962  28.434   2.665   6.150
 6573POPC   C1A42963  28.402   2.740   6.450
 6573POPC   D2A42964  28.332   2.731   6.750
 6573POPC   C3A42965  28.400   2.786   7.050
 6573POPC   C4A42966  28.357   2.787   7.350
 6573POPC   C1B42967  28.514   2.614   6.450
 6573POPC   C2B42968  28.494   2.594   6.750
 6573POPC   C3B42969  28.508   2.546   7.050
 6573POPC   C4B42970  28.567   2.581   7.350
 6574POPC   NC342971  32.272  22.153   5.550
 6574POPC   PO442972  32.290  22.132   5.850
 6574POPC   GL142973  32.297  22.207   6.150
 6574POPC   GL242974  32.201  22.231   6.150
 6574POPC   C1A42975  32.250  22.137   6.450
 6574POPC   D2A42976  32.218  22.181   6.750
 6574POPC   C3A42977  32.218  22.180   7.050
 6574POPC   C4A42978  32.262  22.136   7.350
 6574POPC   C1B42979  32.196  22.393   6.450
 6574POPC   C2B42980  32.198  22.439   6.750
 6574POPC   C3B42981  32.162  22.408   7.050
 6574POPC   C4B42982  32.159  22.378   7.350
 6575POPC   NC342983   1.986   8.936   5.550
 6575POPC   PO442984   1.963   8.928   5.850
 6575POPC   GL142985   1.967   9.001   6.150
 6575POPC   GL242986   1.921   9.018   6.150
 6575POPC   C1A42987   1.948   8.947   6.450
 6575POPC   D2A42988   2.012   8.985   6.750
 6575POPC   C3A42989   2.023   8.991   7.050
 6575POPC   C4A42990   1.971   8.930   7.350
 6575POPC   C1B42991   1.739   9.146   6.450
 6575POPC   C2B42992   1.797   9.105   6.750
 6575POPC   C3B42993   1.751   9.133   7.050
 6575POPC   C4B42994   1.734   9.122   7.350
 6576POPC   NC342995  19.845  20.650   5.550
 6576POPC   PO442996  19.876  20.618   5.850
 6576POPC   GL142997  19.815  20.646   6.150
 6576POPC   GL242998  19.686  20.538   6.150
 6576POPC   C1A42999  19.785  20.621   6.450
 6576POPC   D2A43000  19.796  20.636   6.750
 6576POPC   C3A43001  19.884  20.640   7.050
 6576POPC   C4A43002  19.815  20.610   7.350
 6576POPC   C1B43003  19.654  20.465   6.450
 6576POPC   C2B43004  19.668  20.480   6.750
 6576POPC   C3B43005  19.674  20.503   7.050
 6576POPC   C4B43006  19.678  20.432   7.350
 6577POPC   NC343007  29.122  27.616   5.550
 6577POPC   PO443008  29.141  27.568   5.850
 6577POPC   GL143009  29.121  27.572   6.150
 6577POPC   GL243010  29.271  27.534   6.150
 6577POPC   C1A43011  29.183  27.592   6.450
 6577POPC   D2A43012  29.189  27.607   6.750
 6577POPC   C3A43013  29.150  27.572   7.050
 6577POPC   C4A43014  29.163  27.562   7.350
 6577POPC   C1B43015  29.398  27.446   6.450
 6577POPC   C2B43016  29.378  27.505   6.750
 6577POPC   C3B43017  29.403  27.479   7.050
 6577POPC   C4B43018  29.312  27.464   7.350
 6578POPC   NC343019  15.910  32.992   5.550
 6578POPC   PO443020  16.004  33.062   5.850
 6578POPC   GL143021  15.994  33.006   6.150
 6578POPC   GL243022  15.856  33.068   6.150
 6578POPC   C1A43023  15.914  33.010   6.450
 6578POPC   D2A43024  15.961  33.031   6.750
 6578POPC   C3A43025  15.987  33.052   7.050
 6578POPC   C4A43026  15.947  32.994   7.350
 6578POPC   C1B43027  15.687  33.058   6.450
 6578POPC   C2B43028  15.717  33.030   6.750
 6578POPC   C3B43029  15.677  33.067   7.050
 6578POPC   C4B43030  15.734  33.024   7.350
 6579POPC   NC343031  41.607  22.963   5.550
 6579POPC   PO443032  41.568  22.889   5.850
 6579POPC   GL143033  41.600  22.979   6.150
 6579POPC   GL243034  41.489  22.881   6.150
 6579POPC   C1A43035  41.509  22.981   6.450
 6579POPC   D2A43036  41.585  22.923   6.750
 6579POPC   C3A43037  41.589  22.913   7.050
 6579POPC   C4A43038  41.523  22.891   7.350
 6579POPC   C1B43039  41.344  22.799   6.450
 6579POPC   C2B43040  41.386  22.844   6.750
 6579POPC   C3B43041  41.349  22.849   7.050
 6579POPC   C4B43042  41.360  22.817   7.350
 6580POPC   NC343043  40.783  43.901   5.550
 6580POPC   PO443044  40.759  43.868   5.850
 6580POPC   GL143045  40.830  43.921   6.150
 6580POPC   GL243046  40.656  43.907   6.150
 6580POPC   C1A43047  40.750  43.849   6.450
 6580POPC   D2A43048  40.790  43.868   6.750
 6580POPC   C3A43049  40.757  43.876   7.050
 6580POPC   C4A43050  40.819  43.847   7.350
 6580POPC   C1B43051  40.570  43.865   6.450
 6580POPC   C2B43052  40.496  43.850   6.750
 6580POPC   C3B43053  40.496  43.816   7.050
 6580POPC   C4B43054  40.490  43.847   7.350
 6581POPC   NC343055   3.515  14.453   5.550
 6581POPC   PO443056   3.563  14.398   5.850
 6581POPC   GL143057   3.516  14.453   6.150
 6581POPC   GL243058   3.635  14.299   6.150
 6581POPC   C1A43059   3.555  14.444   6.450
 6581POPC   D2A43060   3.581  14.387   6.750
 6581POPC   C3A43061   3.579  14.443   7.050
 6581POPC   C4A43062   3.519  14.422   7.350
 6581POPC   C1B43063   3.708  14.189   6.450
 6581POPC   C2B43064   3.632  14.202   6.750
 6581POPC   C3B43065   3.702  14.195   7.050
 6581POPC   C4B43066   3.629  14.176   7.350
 6582POPC   NC343067  35.354  22.182   5.550
 6582POPC   PO443068  35.306  22.212   5.850
 6582POPC   GL143069  35.389  22.170   6.150
 6582POPC   GL243070  35.242  22.127   6.150
 6582POPC   C1A43071  35.371  22.185   6.450
 6582POPC   D2A43072  35.401  22.194   6.750
 6582POPC   C3A43073  35.343  22.118   7.050
 6582POPC   C4A43074  35.320  22.147   7.350
 6582POPC   C1B43075  35.162  21.970   6.450
 6582POPC   C2B43076  35.116  21.999   6.750
 6582POPC   C3B43077  35.104  22.038   7.050
 6582POPC   C4B43078  35.179  21.986   7.350
 6583POPC   NC343079  38.422  33.753   5.550
 6583POPC   PO443080  38.423  33.762   5.850
 6583POPC   GL143081  38.415  33.783   6.150
 6583POPC   GL243082  38.365  33.755   6.150
 6583POPC   C1A43083  38.452  33.775   6.450
 6583POPC   D2A43084  38.438  33.849   6.750
 6583POPC   C3A43085  38.465  33.779   7.050
 6583POPC   C4A43086  38.441  33.815   7.350
 6583POPC   C1B43087  38.237  33.808   6.450
 6583POPC   C2B43088  38.191  33.822   6.750
 6583POPC   C3B43089  38.201  33.750   7.050
 6583POPC   C4B43090  38.231  33.820   7.350
 6584POPC   NC343091  29.153  36.895   5.550
 6584POPC   PO443092  29.192  36.910   5.850
 6584POPC   GL143093  29.180  36.874   6.150
 6584POPC   GL243094  29.091  36.985   6.150
 6584POPC   C1A43095  29.110  36.920   6.450
 6584POPC   D2A43096  29.154  36.872   6.750
 6584POPC   C3A43097  29.136  36.909   7.050
 6584POPC   C4A43098  29.128  36.883   7.350
 6584POPC   C1B43099  29.037  37.157   6.450
 6584POPC   C2B43100  29.086  37.095   6.750
 6584POPC   C3B43101  29.043  37.099   7.050
 6584POPC   C4B43102  29.099  37.100   7.350
 6585POPC   NC343103  25.314  37.694   5.550
 6585POPC   PO443104  25.284  37.652   5.850
 6585POPC   GL143105  25.221  37.650   6.150
 6585POPC   GL243106  25.379  37.595   6.150
 6585POPC   C1A43107  25.290  37.640   6.450
 6585POPC   D2A43108  25.254  37.693   6.750
 6585POPC   C3A43109  25.295  37.726   7.050
 6585POPC   C4A43110  25.255  37.692   7.350
 6585POPC   C1B43111  25.537  37.608   6.450
 6585POPC   C2B43112  25.470  37.580   6.750
 6585POPC   C3B43113  25.505  37.581   7.050
 6585POPC   C4B43114  25.509  37.554   7.350
 6586POPC   NC343115  15.926  13.585   5.550
 6586POPC   PO443116  16.004  13.593   5.850
 6586POPC   GL143117  15.984  13.643   6.150
 6586POPC   GL243118  15.888  13.712   6.150
 6586POPC   C1A43119  15.954  13.675   6.450
 6586POPC   D2A43120  15.916  13.624   6.750
 6586POPC   C3A43121  15.983  13.670   7.050
 6586POPC   C4A43122  15.984  13.599   7.350
 6586POPC   C1B43123  15.817  13.830   6.450
 6586POPC   C2B43124  15.806  13.844   6.750
 6586POPC   C3B43125  15.792  13.842   7.050
 6586POPC   C4B43126  15.738  13.825   7.350
 6587POPC   NC343127  21.388  20.562   5.550
 6587POPC   PO443128  21.383  20.591   5.850
 6587POPC   GL143129  21.412  20.563   6.150
 6587POPC   GL243130  21.287  20.676   6.150
 6587POPC   C1A43131  21.352  20.652   6.450
 6587POPC   D2A43132  21.405  20.561   6.750
 6587POPC   C3A43133  21.434  20.584   7.050
 6587POPC   C4A43134  21.376  20.561   7.350
 6587POPC   C1B43135  21.278  20.784   6.450
 6587POPC   C2B43136  21.303  20.814   6.750
 6587POPC   C3B43137  21.239  20.863   7.050
 6587POPC   C4B43138  21.281  20.819   7.350
 6588POPC   NC343139  26.810  33.765   5.550
 6588POPC   PO443140  26.866  33.763   5.850
 6588POPC   GL143141  26.866  33.770   6.150
 6588POPC   GL243142  26.871  33.672   6.150
 6588POPC   C1A43143  26.792  33.782   6.450
 6588POPC   D2A43144  26.863  33.781   6.750
 6588POPC   C3A43145  26.830  33.805   7.050
 6588POPC   C4A43146  26.826  33.766   7.350
 6588POPC   C1B43147  26.911  33.617   6.450
 6588POPC   C2B43148  26.911  33.639   6.750
 6588POPC   C3B43149  26.944  33.609   7.050
 6588POPC   C4B43150  26.953  33.555   7.350
 6589POPC   NC343151  13.670  26.799   5.550
 6589POPC   PO443152  13.581  26.775   5.850
 6589POPC   GL143153  13.649  26.824   6.150
 6589POPC   GL243154  13.535  26.885   6.150
 6589POPC   C1A43155  13.640  26.833   6.450
 6589POPC   D2A43156  13.661  26.867   6.750
 6589POPC   C3A43157  13.646  26.786   7.050
 6589POPC   C4A43158  13.639  26.853   7.350
 6589POPC   C1B43159  13.388  26.847   6.450
 6589POPC   C2B43160  13.350  26.914   6.750
 6589POPC   C3B43161  13.340  26.850   7.050
 6589POPC   C4B43162  13.351  26.897   7.350
 6590POPC   NC343163   7.471  22.118   5.550
 6590POPC   PO443164   7.374  22.150   5.850
 6590POPC   GL143165   7.443  22.117   6.150
 6590POPC   GL243166   7.408  22.076   6.150
 6590POPC   C1A43167   7.392  22.176   6.450
 6590POPC   D2A43168   7.442  22.154   6.750
 6590POPC   C3A43169   7.381  22.143   7.050
 6590POPC   C4A43170   7.461  22.206   7.350
 6590POPC   C1B43171   7.355  21.943   6.450
 6590POPC   C2B43172   7.324  21.960   6.750
 6590POPC   C3B43173   7.312  21.927   7.050
 6590POPC   C4B43174   7.356  21.928   7.350
 6591POPC   NC343175  43.935  30.729   5.550
 6591POPC   PO443176  43.936  30.671   5.850
 6591POPC   GL143177  43.895  30.682   6.150
 6591POPC   GL243178  44.007  30.756   6.150
 6591POPC   C1A43179  43.889  30.672   6.450
 6591POPC   D2A43180  43.867  30.662   6.750
 6591POPC   C3A43181  43.894  30.700   7.050
 6591POPC   C4A43182  43.911  30.707   7.350
 6591POPC   C1B43183  44.052  30.934   6.450
 6591POPC   C2B43184  44.005  30.876   6.750
 6591POPC   C3B43185  44.057  30.886   7.050
 6591POPC   C4B43186  44.010  30.911   7.350
 6592POPC   NC343187  32.207  44.710   5.550
 6592POPC   PO443188  32.228  44.641   5.850
 6592POPC   GL143189  32.263  44.656   6.150
 6592POPC   GL243190  32.125  44.625   6.150
 6592POPC   C1A43191  32.213  44.705   6.450
 6592POPC   D2A43192  32.276  44.679   6.750
 6592POPC   C3A43193  32.240  44.637   7.050
 6592POPC   C4A43194  32.238  44.709   7.350
 6592POPC   C1B43195  31.995  44.643   6.450
 6592POPC   C2B43196  31.953  44.610   6.750
 6592POPC   C3B43197  32.006  44.613   7.050
 6592POPC   C4B43198  31.991  44.639   7.350
 6593POPC   NC343199  13.640  28.387   5.550
 6593POPC   PO443200  13.617  28.343   5.850
 6593POPC   GL143201  13.650  28.326   6.150
 6593POPC   GL243202  13.559  28.380   6.150
 6593POPC   C1A43203  13.616  28.381   6.450
 6593POPC   D2A43204  13.589  28.397   6.750
 6593POPC   C3A43205  13.587  28.394   7.050
 6593POPC   C4A43206  13.600  28.374   7.350
 6593POPC   C1B43207  13.417  28.464   6.450
 6593POPC   C2B43208  13.377  28.418   6.750
 6593POPC   C3B43209  13.409  28.442   7.050
 6593POPC   C4B43210  13.431  28.468   7.350
 6594POPC   NC343211  43.889   9.727   5.550
 6594POPC   PO443212  43.871   9.763   5.850
 6594POPC   GL143213  43.846   9.708   6.150
 6594POPC   GL243214  43.781   9.594   6.150
 6594POPC   C1A43215  43.934   9.770   6.450
 6594POPC   D2A43216  43.844   9.726   6.750
 6594POPC   C3A43217  43.869   9.716   7.050
 6594POPC   C4A43218  43.847   9.710   7.350
 6594POPC   C1B43219  43.740   9.571   6.450
 6594POPC   C2B43220  43.732   9.540   6.750
 6594POPC   C3B43221  43.778   9.524   7.050
 6594POPC   C4B43222  43.741   9.555   7.350
 6595POPC   NC343223  13.658  40.744   5.550
 6595POPC   PO443224  13.660  40.803   5.850
 6595POPC   GL143225  13.619  40.773   6.150
 6595POPC   GL243226  13.538  40.849   6.150
 6595POPC   C1A43227  13.628  40.801   6.450
 6595POPC   D2A43228  13.653  40.749   6.750
 6595POPC   C3A43229  13.582  40.819   7.050
 6595POPC   C4A43230  13.656  40.750   7.350
 6595POPC   C1B43231  13.461  41.019   6.450
 6595POPC   C2B43232  13.452  41.004   6.750
 6595POPC   C3B43233  13.429  40.926   7.050
 6595POPC   C4B43234  13.415  40.970   7.350
 6596POPC   NC343235   0.478  35.355   5.550
 6596POPC   PO443236   0.398  35.362   5.850
 6596POPC   GL143237   0.398  35.320   6.150
 6596POPC   GL243238   0.597  35.302   6.150
 6596POPC   C1A43239   0.456  35.390   6.450
 6596POPC   D2A43240   0.399  35.329   6.750
 6596POPC   C3A43241   0.475  35.369   7.050
 6596POPC   C4A43242   0.424  35.392   7.350
 6596POPC   C1B43243   0.682  35.378   6.450
 6596POPC   C2B43244   0.685  35.368   6.750
 6596POPC   C3B43245   0.650  35.337   7.050
 6596POPC   C4B43246   0.719  35.318   7.350
 6597POPC   NC343247  29.910  33.009   5.550
 6597POPC   PO443248  29.882  33.036   5.850
 6597POPC   GL143249  29.924  33.028   6.150
 6597POPC   GL243250  30.012  33.044   6.150
 6597POPC   C1A43251  29.903  33.039   6.450
 6597POPC   D2A43252  29.952  33.036   6.750
 6597POPC   C3A43253  29.928  32.990   7.050
 6597POPC   C4A43254  29.954  33.069   7.350
 6597POPC   C1B43255  30.137  33.134   6.450
 6597POPC   C2B43256  30.152  33.168   6.750
 6597POPC   C3B43257  30.131  33.187   7.050
 6597POPC   C4B43258  30.153  33.102   7.350
 6598POPC   NC343259  36.120  32.996   5.550
 6598POPC   PO443260  36.162  33.068   5.850
 6598POPC   GL143261  36.078  33.017   6.150
 6598POPC   GL243262  36.204  33.069   6.150
 6598POPC   C1A43263  36.140  33.064   6.450
 6598POPC   D2A43264  36.087  33.031   6.750
 6598POPC   C3A43265  36.117  32.987   7.050
 6598POPC   C4A43266  36.138  33.004   7.350
 6598POPC   C1B43267  36.346  32.978   6.450
 6598POPC   C2B43268  36.389  33.063   6.750
 6598POPC   C3B43269  36.360  32.970   7.050
 6598POPC   C4B43270  36.360  33.060   7.350
 6599POPC   NC343271  27.598  38.462   5.550
 6599POPC   PO443272  27.620  38.482   5.850
 6599POPC   GL143273  27.629  38.460   6.150
 6599POPC   GL243274  27.438  38.385   6.150
 6599POPC   C1A43275  27.572  38.440   6.450
 6599POPC   D2A43276  27.555  38.422   6.750
 6599POPC   C3A43277  27.593  38.450   7.050
 6599POPC   C4A43278  27.547  38.443   7.350
 6599POPC   C1B43279  27.338  38.401   6.450
 6599POPC   C2B43280  27.395  38.444   6.750
 6599POPC   C3B43281  27.353  38.365   7.050
 6599POPC   C4B43282  27.301  38.433   7.350
 6600POPC   NC343283  34.623   5.130   5.550
 6600POPC   PO443284  34.594   5.142   5.850
 6600POPC   GL143285  34.539   5.044   6.150
 6600POPC   GL243286  34.706   5.009   6.150
 6600POPC   C1A43287  34.564   5.142   6.450
 6600POPC   D2A43288  34.583   5.080   6.750
 6600POPC   C3A43289  34.539   5.082   7.050
 6600POPC   C4A43290  34.611   5.052   7.350
 6600POPC   C1B43291  34.779   4.948   6.450
 6600POPC   C2B43292  34.720   4.880   6.750
 6600POPC   C3B43293  34.750   4.901   7.050
 6600POPC   C4B43294  34.787   4.889   7.350
 6601POPC   NC343295  12.110   1.227   5.550
 6601POPC   PO443296  12.114   1.229   5.850
 6601POPC   GL143297  12.111   1.183   6.150
 6601POPC   GL243298  12.195   1.179   6.150
 6601POPC   C1A43299  12.074   1.236   6.450
 6601POPC   D2A43300  12.036   1.170   6.750
 6601POPC   C3A43301  12.034   1.178   7.050
 6601POPC   C4A43302  12.095   1.218   7.350
 6601POPC   C1B43303  12.288   1.220   6.450
 6601POPC   C2B43304  12.309   1.138   6.750
 6601POPC   C3B43305  12.341   1.163   7.050
 6601POPC   C4B43306  12.309   1.228   7.350
 6602POPC   NC343307  24.463  13.611   5.550
 6602POPC   PO443308  24.442  13.605   5.850
 6602POPC   GL143309  24.463  13.606   6.150
 6602POPC   GL243310  24.605  13.661   6.150
 6602POPC   C1A43311  24.488  13.624   6.450
 6602POPC   D2A43312  24.524  13.676   6.750
 6602POPC   C3A43313  24.515  13.636   7.050
 6602POPC   C4A43314  24.520  13.599   7.350
 6602POPC   C1B43315  24.692  13.814   6.450
 6602POPC   C2B43316  24.659  13.785   6.750
 6602POPC   C3B43317  24.634  13.794   7.050
 6602POPC   C4B43318  24.631  13.797   7.350
 6603POPC   NC343319  13.598  38.495   5.550
 6603POPC   PO443320  13.676  38.495   5.850
 6603POPC   GL143321  13.646  38.420   6.150
 6603POPC   GL243322  13.726  38.420   6.150
 6603POPC   C1A43323  13.596  38.467   6.450
 6603POPC   D2A43324  13.652  38.493   6.750
 6603POPC   C3A43325  13.642  38.437   7.050
 6603POPC   C4A43326  13.673  38.431   7.350
 6603POPC   C1B43327  13.840  38.326   6.450
 6603POPC   C2B43328  13.837  38.381   6.750
 6603POPC   C3B43329  13.857  38.317   7.050
 6603POPC   C4B43330  13.838  38.331   7.350
 6604POPC   NC343331  12.848  43.911   5.550
 6604POPC   PO443332  12.871  43.873   5.850
 6604POPC   GL143333  12.823  43.895   6.150
 6604POPC   GL243334  12.896  44.000   6.150
 6604POPC   C1A43335  12.829  43.927   6.450
 6604POPC   D2A43336  12.836  43.853   6.750
 6604POPC   C3A43337  12.862  43.868   7.050
 6604POPC   C4A43338  12.873  43.922   7.350
 6604POPC   C1B43339  12.999  44.124   6.450
 6604POPC   C2B43340  12.916  44.078   6.750
 6604POPC   C3B43341  12.954  44.099   7.050
 6604POPC   C4B43342  12.940  44.112   7.350
 6605POPC   NC343343  32.285   3.509   5.550
 6605POPC   PO443344  32.201   3.493   5.850
 6605POPC   GL143345  32.282   3.527   6.150
 6605POPC   GL243346  32.409   3.521   6.150
 6605POPC   C1A43347  32.226   3.557   6.450
 6605POPC   D2A43348  32.211   3.584   6.750
 6605POPC   C3A43349  32.276   3.549   7.050
 6605POPC   C4A43350  32.269   3.543   7.350
 6605POPC   C1B43351  32.535   3.462   6.450
 6605POPC   C2B43352  32.509   3.457   6.750
 6605POPC   C3B43353  32.521   3.480   7.050
 6605POPC   C4B43354  32.538   3.510   7.350
 6606POPC   NC343355  18.327  39.189   5.550
 6606POPC   PO443356  18.319  39.242   5.850
 6606POPC   GL143357  18.272  39.229   6.150
 6606POPC   GL243358  18.315  39.076   6.150
 6606POPC   C1A43359  18.296  39.275   6.450
 6606POPC   D2A43360  18.244  39.257   6.750
 6606POPC   C3A43361  18.291  39.265   7.050
 6606POPC   C4A43362  18.254  39.274   7.350
 6606POPC   C1B43363  18.214  39.016   6.450
 6606POPC   C2B43364  18.230  39.027   6.750
 6606POPC   C3B43365  18.275  39.001   7.050
 6606POPC   C4B43366  18.253  38.993   7.350
 6607POPC   NC343367  24.532  10.557   5.550
 6607POPC   PO443368  24.456  10.571   5.850
 6607POPC   GL143369  24.519  10.520   6.150
 6607POPC   GL243370  24.507  10.375   6.150
 6607POPC   C1A43371  24.500  10.486   6.450
 6607POPC   D2A43372  24.457  10.513   6.750
 6607POPC   C3A43373  24.463  10.555   7.050
 6607POPC   C4A43374  24.441  10.533   7.350
 6607POPC   C1B43375  24.467  10.285   6.450
 6607POPC   C2B43376  24.409  10.320   6.750
 6607POPC   C3B43377  24.422  10.256   7.050
 6607POPC   C4B43378  24.384  10.246   7.350
 6608POPC   NC343379  35.313  19.865   5.550
 6608POPC   PO443380  35.336  19.882   5.850
 6608POPC   GL143381  35.367  19.871   6.150
 6608POPC   GL243382  35.403  19.971   6.150
 6608POPC   C1A43383  35.358  19.872   6.450
 6608POPC   D2A43384  35.380  19.828   6.750
 6608POPC   C3A43385  35.348  19.867   7.050
 6608POPC   C4A43386  35.356  19.821   7.350
 6608POPC   C1B43387  35.413  20.038   6.450
 6608POPC   C2B43388  35.449  20.084   6.750
 6608POPC   C3B43389  35.421  20.061   7.050
 6608POPC   C4B43390  35.399  20.065   7.350
 6609POPC   NC343391  40.764   3.526   5.550
 6609POPC   PO443392  40.780   3.548   5.850
 6609POPC   GL143393  40.758   3.514   6.150
 6609POPC   GL243394  40.793   3.409   6.150
 6609POPC   C1A43395  40.771   3.546   6.450
 6609POPC   D2A43396  40.802   3.576   6.750
 6609POPC   C3A43397  40.817   3.532   7.050
 6609POPC   C4A43398  40.751   3.581   7.350
 6609POPC   C1B43399  40.745   3.263   6.450
 6609POPC   C2B43400  40.760   3.289   6.750
 6609POPC   C3B43401  40.789   3.304   7.050
 6609POPC   C4B43402  40.755   3.315   7.350
 6610POPC   NC343403  40.051  22.951   5.550
 6610POPC   PO443404  39.961  22.917   5.850
 6610POPC   GL143405  39.974  22.914   6.150
 6610POPC   GL243406  39.877  22.899   6.150
 6610POPC   C1A43407  40.042  22.912   6.450
 6610POPC   D2A43408  40.003  22.897   6.750
 6610POPC   C3A43409  39.989  22.951   7.050
 6610POPC   C4A43410  40.011  22.898   7.350
 6610POPC   C1B43411  39.789  22.925   6.450
 6610POPC   C2B43412  39.740  22.873   6.750
 6610POPC   C3B43413  39.725  22.896   7.050
 6610POPC   C4B43414  39.716  22.870   7.350
 6611POPC   NC343415   4.358  14.412   5.550
 6611POPC   PO443416   4.362  14.415   5.850
 6611POPC   GL143417   4.358  14.403   6.150
 6611POPC   GL243418   4.377  14.481   6.150
 6611POPC   C1A43419   4.311  14.396   6.450
 6611POPC   D2A43420   4.321  14.398   6.750
 6611POPC   C3A43421   4.278  14.406   7.050
 6611POPC   C4A43422   4.358  14.450   7.350
 6611POPC   C1B43423   4.501  14.615   6.450
 6611POPC   C2B43424   4.494  14.642   6.750
 6611POPC   C3B43425   4.410  14.628   7.050
 6611POPC   C4B43426   4.436  14.604   7.350
 6612POPC   NC343427  14.409  35.400   5.550
 6612POPC   PO443428  14.405  35.339   5.850
 6612POPC   GL143429  14.404  35.360   6.150
 6612POPC   GL243430  14.563  35.391   6.150
 6612POPC   C1A43431  14.431  35.370   6.450
 6612POPC   D2A43432  14.389  35.400   6.750
 6612POPC   C3A43433  14.359  35.317   7.050
 6612POPC   C4A43434  14.443  35.355   7.350
 6612POPC   C1B43435  14.669  35.415   6.450
 6612POPC   C2B43436  14.661  35.433   6.750
 6612POPC   C3B43437  14.650  35.410   7.050
 6612POPC   C4B43438  14.650  35.364   7.350
 6613POPC   NC343439  24.477  19.830   5.550
 6613POPC   PO443440  24.448  19.808   5.850
 6613POPC   GL143441  24.443  19.794   6.150
 6613POPC   GL243442  24.537  19.938   6.150
 6613POPC   C1A43443  24.485  19.808   6.450
 6613POPC   D2A43444  24.487  19.848   6.750
 6613POPC   C3A43445  24.461  19.859   7.050
 6613POPC   C4A43446  24.464  19.793   7.350
 6613POPC   C1B43447  24.600  20.036   6.450
 6613POPC   C2B43448  24.557  20.054   6.750
 6613POPC   C3B43449  24.552  20.043   7.050
 6613POPC   C4B43450  24.610  20.025   7.350
 6614POPC   NC343451   2.762  15.165   5.550
 6614POPC   PO443452   2.761  15.160   5.850
 6614POPC   GL143453   2.807  15.173   6.150
 6614POPC   GL243454   2.635  15.164   6.150
 6614POPC   C1A43455   2.788  15.134   6.450
 6614POPC   D2A43456   2.809  15.183   6.750
 6614POPC   C3A43457   2.719  15.182   7.050
 6614POPC   C4A43458   2.798  15.222   7.350
 6614POPC   C1B43459   2.483  15.110   6.450
 6614POPC   C2B43460   2.560  15.105   6.750
 6614POPC   C3B43461   2.515  15.153   7.050
 6614POPC   C4B43462   2.568  15.101   7.350
 6615POPC   NC343463  19.872  21.430   5.550
 6615POPC   PO443464  19.842  21.372   5.850
 6615POPC   GL143465  19.869  21.424   6.150
 6615POPC   GL243466  19.735  21.487   6.150
 6615POPC   C1A43467  19.861  21.423   6.450
 6615POPC   D2A43468  19.836  21.409   6.750
 6615POPC   C3A43469  19.854  21.417   7.050
 6615POPC   C4A43470  19.818  21.358   7.350
 6615POPC   C1B43471  19.691  21.549   6.450
 6615POPC   C2B43472  19.667  21.512   6.750
 6615POPC   C3B43473  19.691  21.545   7.050
 6615POPC   C4B43474  19.691  21.582   7.350
 6616POPC   NC343475  36.107  12.084   5.550
 6616POPC   PO443476  36.171  12.042   5.850
 6616POPC   GL143477  36.102  12.042   6.150
 6616POPC   GL243478  36.284  12.057   6.150
 6616POPC   C1A43479  36.167  12.063   6.450
 6616POPC   D2A43480  36.111  12.110   6.750
 6616POPC   C3A43481  36.120  12.079   7.050
 6616POPC   C4A43482  36.135  12.077   7.350
 6616POPC   C1B43483  36.405  11.947   6.450
 6616POPC   C2B43484  36.397  12.015   6.750
 6616POPC   C3B43485  36.314  11.995   7.050
 6616POPC   C4B43486  36.341  11.957   7.350
 6617POPC   NC343487  36.889   5.133   5.550
 6617POPC   PO443488  36.906   5.118   5.850
 6617POPC   GL143489  36.891   5.086   6.150
 6617POPC   GL243490  36.912   5.212   6.150
 6617POPC   C1A43491  36.856   5.115   6.450
 6617POPC   D2A43492  36.929   5.089   6.750
 6617POPC   C3A43493  36.891   5.096   7.050
 6617POPC   C4A43494  36.857   5.070   7.350
 6617POPC   C1B43495  36.940   5.323   6.450
 6617POPC   C2B43496  37.005   5.356   6.750
 6617POPC   C3B43497  36.938   5.321   7.050
 6617POPC   C4B43498  36.994   5.376   7.350
 6618POPC   NC343499  22.923  36.131   5.550
 6618POPC   PO443500  22.919  36.087   5.850
 6618POPC   GL143501  22.986  36.169   6.150
 6618POPC   GL243502  22.807  36.155   6.150
 6618POPC   C1A43503  22.977  36.150   6.450
 6618POPC   D2A43504  22.897  36.086   6.750
 6618POPC   C3A43505  22.943  36.084   7.050
 6618POPC   C4A43506  22.935  36.088   7.350
 6618POPC   C1B43507  22.765  36.286   6.450
 6618POPC   C2B43508  22.774  36.310   6.750
 6618POPC   C3B43509  22.680  36.300   7.050
 6618POPC   C4B43510  22.723  36.290   7.350
 6619POPC   NC343511   4.356   6.653   5.550
 6619POPC   PO443512   4.288   6.608   5.850
 6619POPC   GL143513   4.279   6.692   6.150
 6619POPC   GL243514   4.241   6.482   6.150
 6619POPC   C1A43515   4.272   6.677   6.450
 6619POPC   D2A43516   4.275   6.682   6.750
 6619POPC   C3A43517   4.311   6.629   7.050
 6619POPC   C4A43518   4.278   6.621   7.350
 6619POPC   C1B43519   4.261   6.461   6.450
 6619POPC   C2B43520   4.228   6.376   6.750
 6619POPC   C3B43521   4.221   6.376   7.050
 6619POPC   C4B43522   4.165   6.416   7.350
 6620POPC   NC343523  26.026  22.200   5.550
 6620POPC   PO443524  26.080  22.137   5.850
 6620POPC   GL143525  26.054  22.197   6.150
 6620POPC   GL243526  25.987  22.284   6.150
 6620POPC   C1A43527  26.022  22.197   6.450
 6620POPC   D2A43528  26.058  22.191   6.750
 6620POPC   C3A43529  26.063  22.206   7.050
 6620POPC   C4A43530  26.043  22.150   7.350
 6620POPC   C1B43531  25.896  22.400   6.450
 6620POPC   C2B43532  25.901  22.424   6.750
 6620POPC   C3B43533  25.922  22.393   7.050
 6620POPC   C4B43534  25.885  22.342   7.350
 6621POPC   NC343535  20.632  19.870   5.550
 6621POPC   PO443536  20.597  19.837   5.850
 6621POPC   GL143537  20.646  19.837   6.150
 6621POPC   GL243538  20.747  19.775   6.150
 6621POPC   C1A43539  20.643  19.815   6.450
 6621POPC   D2A43540  20.593  19.824   6.750
 6621POPC   C3A43541  20.586  19.788   7.050
 6621POPC   C4A43542  20.629  19.851   7.350
 6621POPC   C1B43543  20.821  19.712   6.450
 6621POPC   C2B43544  20.811  19.694   6.750
 6621POPC   C3B43545  20.808  19.716   7.050
 6621POPC   C4B43546  20.810  19.706   7.350
 6622POPC   NC343547  18.264  33.766   5.550
 6622POPC   PO443548  18.290  33.753   5.850
 6622POPC   GL143549  18.290  33.811   6.150
 6622POPC   GL243550  18.166  33.722   6.150
 6622POPC   C1A43551  18.324  33.800   6.450
 6622POPC   D2A43552  18.267  33.769   6.750
 6622POPC   C3A43553  18.310  33.815   7.050
 6622POPC   C4A43554  18.257  33.830   7.350
 6622POPC   C1B43555  18.003  33.775   6.450
 6622POPC   C2B43556  18.040  33.705   6.750
 6622POPC   C3B43557  18.066  33.727   7.050
 6622POPC   C4B43558  18.065  33.771   7.350
 6623POPC   NC343559  42.302  15.968   5.550
 6623POPC   PO443560  42.350  15.932   5.850
 6623POPC   GL143561  42.312  15.907   6.150
 6623POPC   GL243562  42.239  15.932   6.150
 6623POPC   C1A43563  42.344  15.975   6.450
 6623POPC   D2A43564  42.305  15.957   6.750
 6623POPC   C3A43565  42.322  15.956   7.050
 6623POPC   C4A43566  42.309  15.932   7.350
 6623POPC   C1B43567  42.060  15.873   6.450
 6623POPC   C2B43568  42.115  15.848   6.750
 6623POPC   C3B43569  42.087  15.861   7.050
 6623POPC   C4B43570  42.098  15.860   7.350
 6624POPC   NC343571  29.911  42.323   5.550
 6624POPC   PO443572  29.871  42.359   5.850
 6624POPC   GL143573  29.943  42.334   6.150
 6624POPC   GL243574  29.780  42.363   6.150
 6624POPC   C1A43575  29.918  42.366   6.450
 6624POPC   D2A43576  29.908  42.360   6.750
 6624POPC   C3A43577  29.952  42.330   7.050
 6624POPC   C4A43578  29.874  42.364   7.350
 6624POPC   C1B43579  29.658  42.367   6.450
 6624POPC   C2B43580  29.717  42.344   6.750
 6624POPC   C3B43581  29.678  42.431   7.050
 6624POPC   C4B43582  29.701  42.394   7.350
 6625POPC   NC343583  14.429  20.638   5.550
 6625POPC   PO443584  14.404  20.593   5.850
 6625POPC   GL143585  14.450  20.588   6.150
 6625POPC   GL243586  14.369  20.453   6.150
 6625POPC   C1A43587  14.366  20.610   6.450
 6625POPC   D2A43588  14.378  20.566   6.750
 6625POPC   C3A43589  14.374  20.611   7.050
 6625POPC   C4A43590  14.408  20.580   7.350
 6625POPC   C1B43591  14.413  20.397   6.450
 6625POPC   C2B43592  14.445  20.324   6.750
 6625POPC   C3B43593  14.417  20.356   7.050
 6625POPC   C4B43594  14.456  20.328   7.350
 6626POPC   NC343595  30.708  15.142   5.550
 6626POPC   PO443596  30.707  15.227   5.850
 6626POPC   GL143597  30.732  15.184   6.150
 6626POPC   GL243598  30.784  15.184   6.150
 6626POPC   C1A43599  30.715  15.227   6.450
 6626POPC   D2A43600  30.683  15.179   6.750
 6626POPC   C3A43601  30.699  15.179   7.050
 6626POPC   C4A43602  30.685  15.217   7.350
 6626POPC   C1B43603  30.969  15.156   6.450
 6626POPC   C2B43604  30.940  15.196   6.750
 6626POPC   C3B43605  30.942  15.184   7.050
 6626POPC   C4B43606  30.952  15.161   7.350
 6627POPC   NC343607  29.175  41.566   5.550
 6627POPC   PO443608  29.164  41.597   5.850
 6627POPC   GL143609  29.107  41.578   6.150
 6627POPC   GL243610  29.250  41.522   6.150
 6627POPC   C1A43611  29.098  41.539   6.450
 6627POPC   D2A43612  29.183  41.577   6.750
 6627POPC   C3A43613  29.190  41.539   7.050
 6627POPC   C4A43614  29.123  41.536   7.350
 6627POPC   C1B43615  29.353  41.394   6.450
 6627POPC   C2B43616  29.350  41.455   6.750
 6627POPC   C3B43617  29.329  41.402   7.050
 6627POPC   C4B43618  29.372  41.431   7.350
 6628POPC   NC343619   1.988   5.130   5.550
 6628POPC   PO443620   1.973   5.113   5.850
 6628POPC   GL143621   1.961   5.094   6.150
 6628POPC   GL243622   2.100   5.030   6.150
 6628POPC   C1A43623   2.019   5.140   6.450
 6628POPC   D2A43624   2.009   5.119   6.750
 6628POPC   C3A43625   2.005   5.058   7.050
 6628POPC   C4A43626   2.035   5.046   7.350
 6628POPC   C1B43627   2.214   5.042   6.450
 6628POPC   C2B43628   2.174   5.009   6.750
 6628POPC   C3B43629   2.173   4.952   7.050
 6628POPC   C4B43630   2.176   5.021   7.350
 6629POPC   NC343631  32.279  19.799   5.550
 6629POPC   PO443632  32.269  19.839   5.850
 6629POPC   GL143633  32.260  19.812   6.150
 6629POPC   GL243634  32.346  19.760   6.150
 6629POPC   C1A43635  32.222  19.835   6.450
 6629POPC   D2A43636  32.199  19.852   6.750
 6629POPC   C3A43637  32.280  19.806   7.050
 6629POPC   C4A43638  32.286  19.790   7.350
 6629POPC   C1B43639  32.450  19.805   6.450
 6629POPC   C2B43640  32.501  19.760   6.750
 6629POPC   C3B43641  32.437  19.742   7.050
 6629POPC   C4B43642  32.463  19.719   7.350
 6630POPC   NC343643   1.947  15.133   5.550
 6630POPC   PO443644   2.022  15.157   5.850
 6630POPC   GL143645   1.981  15.158   6.150
 6630POPC   GL243646   1.900  15.220   6.150
 6630POPC   C1A43647   2.038  15.130   6.450
 6630POPC   D2A43648   1.990  15.159   6.750
 6630POPC   C3A43649   2.031  15.183   7.050
 6630POPC   C4A43650   1.996  15.199   7.350
 6630POPC   C1B43651   1.774  15.249   6.450
 6630POPC   C2B43652   1.768  15.189   6.750
 6630POPC   C3B43653   1.713  15.250   7.050
 6630POPC   C4B43654   1.724  15.218   7.350
 6631POPC   NC343655  40.027  16.682   5.550
 6631POPC   PO443656  39.988  16.700   5.850
 6631POPC   GL143657  40.004  16.768   6.150
 6631POPC   GL243658  40.038  16.818   6.150
 6631POPC   C1A43659  39.974  16.738   6.450
 6631POPC   D2A43660  40.056  16.704   6.750
 6631POPC   C3A43661  39.999  16.704   7.050
 6631POPC   C4A43662  40.018  16.739   7.350
 6631POPC   C1B43663  40.110  16.938   6.450
 6631POPC   C2B43664  40.123  16.926   6.750
 6631POPC   C3B43665  40.080  16.948   7.050
 6631POPC   C4B43666  40.084  16.946   7.350
 6632POPC   NC343667  33.766   2.813   5.550
 6632POPC   PO443668  33.822   2.741   5.850
 6632POPC   GL143669  33.815   2.781   6.150
 6632POPC   GL243670  33.701   2.713   6.150
 6632POPC   C1A43671  33.828   2.810   6.450
 6632POPC   D2A43672  33.757   2.720   6.750
 6632POPC   C3A43673  33.821   2.806   7.050
 6632POPC   C4A43674  33.848   2.737   7.350
 6632POPC   C1B43675  33.584   2.623   6.450
 6632POPC   C2B43676  33.650   2.562   6.750
 6632POPC   C3B43677  33.635   2.597   7.050
 6632POPC   C4B43678  33.583   2.631   7.350
 6633POPC   NC343679  42.352  41.557   5.550
 6633POPC   PO443680  42.294  41.586   5.850
 6633POPC   GL143681  42.311  41.551   6.150
 6633POPC   GL243682  42.414  41.462   6.150
 6633POPC   C1A43683  42.377  41.533   6.450
 6633POPC   D2A43684  42.312  41.537   6.750
 6633POPC   C3A43685  42.376  41.534   7.050
 6633POPC   C4A43686  42.332  41.592   7.350
 6633POPC   C1B43687  42.508  41.317   6.450
 6633POPC   C2B43688  42.513  41.359   6.750
 6633POPC   C3B43689  42.461  41.368   7.050
 6633POPC   C4B43690  42.477  41.376   7.350
 6634POPC   NC343691   3.505   4.293   5.550
 6634POPC   PO443692   3.579   4.316   5.850
 6634POPC   GL143693   3.549   4.362   6.150
 6634POPC   GL243694   3.544   4.233   6.150
 6634POPC   C1A43695   3.573   4.366   6.450
 6634POPC   D2A43696   3.515   4.299   6.750
 6634POPC   C3A43697   3.562   4.331   7.050
 6634POPC   C4A43698   3.533   4.283   7.350
 6634POPC   C1B43699   3.614   4.051   6.450
 6634POPC   C2B43700   3.540   4.100   6.750
 6634POPC   C3B43701   3.556   4.031   7.050
 6634POPC   C4B43702   3.555   4.036   7.350
 6635POPC   NC343703  33.031  23.758   5.550
 6635POPC   PO443704  33.041  23.680   5.850
 6635POPC   GL143705  33.031  23.670   6.150
 6635POPC   GL243706  33.114  23.776   6.150
 6635POPC   C1A43707  33.026  23.697   6.450
 6635POPC   D2A43708  33.049  23.762   6.750
 6635POPC   C3A43709  32.991  23.743   7.050
 6635POPC   C4A43710  32.982  23.754   7.350
 6635POPC   C1B43711  33.139  23.916   6.450
 6635POPC   C2B43712  33.095  23.957   6.750
 6635POPC   C3B43713  33.166  23.898   7.050
 6635POPC   C4B43714  33.148  23.942   7.350
 6636POPC   NC343715  31.472  12.071   5.550
 6636POPC   PO443716  31.458  12.109   5.850
 6636POPC   GL143717  31.465  12.046   6.150
 6636POPC   GL243718  31.315  12.122   6.150
 6636POPC   C1A43719  31.430  12.053   6.450
 6636POPC   D2A43720  31.434  12.068   6.750
 6636POPC   C3A43721  31.506  12.081   7.050
 6636POPC   C4A43722  31.487  12.120   7.350
 6636POPC   C1B43723  31.208  12.115   6.450
 6636POPC   C2B43724  31.243  12.117   6.750
 6636POPC   C3B43725  31.243  12.118   7.050
 6636POPC   C4B43726  31.225  12.142   7.350
 6637POPC   NC343727  12.028   0.444   5.550
 6637POPC   PO443728  12.117   0.482   5.850
 6637POPC   GL143729  12.046   0.435   6.150
 6637POPC   GL243730  12.069   0.306   6.150
 6637POPC   C1A43731  12.053   0.450   6.450
 6637POPC   D2A43732  12.059   0.392   6.750
 6637POPC   C3A43733  12.069   0.480   7.050
 6637POPC   C4A43734  12.096   0.402   7.350
 6637POPC   C1B43735  11.993   0.167   6.450
 6637POPC   C2B43736  11.968   0.255   6.750
 6637POPC   C3B43737  11.995   0.176   7.050
 6637POPC   C4B43738  11.994   0.194   7.350
 6638POPC   NC343739  23.672  11.313   5.550
 6638POPC   PO443740  23.732  11.254   5.850
 6638POPC   GL143741  23.744  11.260   6.150
 6638POPC   GL243742  23.735  11.153   6.150
 6638POPC   C1A43743  23.753  11.300   6.450
 6638POPC   D2A43744  23.731  11.308   6.750
 6638POPC   C3A43745  23.719  11.258   7.050
 6638POPC   C4A43746  23.752  11.332   7.350
 6638POPC   C1B43747  23.714  11.054   6.450
 6638POPC   C2B43748  23.745  11.037   6.750
 6638POPC   C3B43749  23.768  11.004   7.050
 6638POPC   C4B43750  23.771  11.021   7.350
 6639POPC   NC343751  20.589  25.994   5.550
 6639POPC   PO443752  20.613  26.031   5.850
 6639POPC   GL143753  20.632  25.994   6.150
 6639POPC   GL243754  20.483  26.001   6.150
 6639POPC   C1A43755  20.571  26.027   6.450
 6639POPC   D2A43756  20.601  26.043   6.750
 6639POPC   C3A43757  20.653  26.052   7.050
 6639POPC   C4A43758  20.658  26.081   7.350
 6639POPC   C1B43759  20.361  25.964   6.450
 6639POPC   C2B43760  20.384  26.034   6.750
 6639POPC   C3B43761  20.389  25.968   7.050
 6639POPC   C4B43762  20.344  25.995   7.350
 6640POPC   NC343763  33.835  40.052   5.550
 6640POPC   PO443764  33.758  39.989   5.850
 6640POPC   GL143765  33.796  39.981   6.150
 6640POPC   GL243766  33.675  40.084   6.150
 6640POPC   C1A43767  33.815  39.991   6.450
 6640POPC   D2A43768  33.769  39.987   6.750
 6640POPC   C3A43769  33.753  39.959   7.050
 6640POPC   C4A43770  33.759  40.048   7.350
 6640POPC   C1B43771  33.560  40.095   6.450
 6640POPC   C2B43772  33.591  40.080   6.750
 6640POPC   C3B43773  33.524  40.159   7.050
 6640POPC   C4B43774  33.560  40.081   7.350
 6641POPC   NC343775  38.413  40.766   5.550
 6641POPC   PO443776  38.442  40.805   5.850
 6641POPC   GL143777  38.437  40.788   6.150
 6641POPC   GL243778  38.446  40.609   6.150
 6641POPC   C1A43779  38.461  40.737   6.450
 6641POPC   D2A43780  38.418  40.772   6.750
 6641POPC   C3A43781  38.471  40.807   7.050
 6641POPC   C4A43782  38.430  40.741   7.350
 6641POPC   C1B43783  38.476  40.508   6.450
 6641POPC   C2B43784  38.453  40.511   6.750
 6641POPC   C3B43785  38.409  40.577   7.050
 6641POPC   C4B43786  38.426  40.569   7.350
 6642POPC   NC343787  36.122  36.868   5.550
 6642POPC   PO443788  36.100  36.884   5.850
 6642POPC   GL143789  36.123  36.894   6.150
 6642POPC   GL243790  36.110  36.998   6.150
 6642POPC   C1A43791  36.119  36.946   6.450
 6642POPC   D2A43792  36.165  36.888   6.750
 6642POPC   C3A43793  36.121  36.905   7.050
 6642POPC   C4A43794  36.145  36.893   7.350
 6642POPC   C1B43795  36.115  37.191   6.450
 6642POPC   C2B43796  36.030  37.104   6.750
 6642POPC   C3B43797  36.109  37.146   7.050
 6642POPC   C4B43798  36.093  37.169   7.350
 6643POPC   NC343799  43.855  12.067   5.550
 6643POPC   PO443800  43.883  12.086   5.850
 6643POPC   GL143801  43.925  12.104   6.150
 6643POPC   GL243802  43.896  11.988   6.150
 6643POPC   C1A43803  43.915  12.087   6.450
 6643POPC   D2A43804  43.882  12.122   6.750
 6643POPC   C3A43805  43.867  12.051   7.050
 6643POPC   C4A43806  43.855  12.068   7.350
 6643POPC   C1B43807  43.860  11.799   6.450
 6643POPC   C2B43808  43.832  11.880   6.750
 6643POPC   C3B43809  43.783  11.842   7.050
 6643POPC   C4B43810  43.832  11.832   7.350
 6644POPC   NC343811  25.297   6.638   5.550
 6644POPC   PO443812  25.255   6.663   5.850
 6644POPC   GL143813  25.227   6.666   6.150
 6644POPC   GL243814  25.192   6.800   6.150
 6644POPC   C1A43815  25.266   6.652   6.450
 6644POPC   D2A43816  25.292   6.603   6.750
 6644POPC   C3A43817  25.312   6.628   7.050
 6644POPC   C4A43818  25.308   6.661   7.350
 6644POPC   C1B43819  25.161   6.889   6.450
 6644POPC   C2B43820  25.198   6.855   6.750
 6644POPC   C3B43821  25.219   6.906   7.050
 6644POPC   C4B43822  25.187   6.912   7.350
 6645POPC   NC343823  33.752  38.475   5.550
 6645POPC   PO443824  33.754  38.424   5.850
 6645POPC   GL143825  33.835  38.479   6.150
 6645POPC   GL243826  33.932  38.410   6.150
 6645POPC   C1A43827  33.799  38.459   6.450
 6645POPC   D2A43828  33.807  38.411   6.750
 6645POPC   C3A43829  33.835  38.473   7.050
 6645POPC   C4A43830  33.753  38.441   7.350
 6645POPC   C1B43831  33.961  38.281   6.450
 6645POPC   C2B43832  33.927  38.319   6.750
 6645POPC   C3B43833  34.010  38.327   7.050
 6645POPC   C4B43834  34.024  38.259   7.350
 6646POPC   NC343835  29.189   4.332   5.550
 6646POPC   PO443836  29.123   4.281   5.850
 6646POPC   GL143837  29.192   4.330   6.150
 6646POPC   GL243838  29.041   4.300   6.150
 6646POPC   C1A43839  29.157   4.335   6.450
 6646POPC   D2A43840  29.188   4.363   6.750
 6646POPC   C3A43841  29.173   4.350   7.050
 6646POPC   C4A43842  29.188   4.275   7.350
 6646POPC   C1B43843  28.914   4.345   6.450
 6646POPC   C2B43844  28.945   4.338   6.750
 6646POPC   C3B43845  28.910   4.383   7.050
 6646POPC   C4B43846  28.938   4.315   7.350
 6647POPC   NC343847  11.301  18.262   5.550
 6647POPC   PO443848  11.267  18.291   5.850
 6647POPC   GL143849  11.303  18.321   6.150
 6647POPC   GL243850  11.345  18.407   6.150
 6647POPC   C1A43851  11.276  18.283   6.450
 6647POPC   D2A43852  11.339  18.325   6.750
 6647POPC   C3A43853  11.298  18.242   7.050
 6647POPC   C4A43854  11.318  18.267   7.350
 6647POPC   C1B43855  11.474  18.499   6.450
 6647POPC   C2B43856  11.495  18.453   6.750
 6647POPC   C3B43857  11.501  18.470   7.050
 6647POPC   C4B43858  11.475  18.475   7.350
 6648POPC   NC343859  24.489  36.883   5.550
 6648POPC   PO443860  24.539  36.935   5.850
 6648POPC   GL143861  24.516  36.855   6.150
 6648POPC   GL243862  24.325  36.950   6.150
 6648POPC   C1A43863  24.441  36.914   6.450
 6648POPC   D2A43864  24.477  36.875   6.750
 6648POPC   C3A43865  24.504  36.915   7.050
 6648POPC   C4A43866  24.440  36.900   7.350
 6648POPC   C1B43867  24.297  37.024   6.450
 6648POPC   C2B43868  24.261  37.035   6.750
 6648POPC   C3B43869  24.218  36.956   7.050
 6648POPC   C4B43870  24.236  37.027   7.350
 6649POPC   NC343871  41.589  20.573   5.550
 6649POPC   PO443872  41.531  20.612   5.850
 6649POPC   GL143873  41.595  20.567   6.150
 6649POPC   GL243874  41.500  20.739   6.150
 6649POPC   C1A43875  41.561  20.660   6.450
 6649POPC   D2A43876  41.512  20.647   6.750
 6649POPC   C3A43877  41.559  20.577   7.050
 6649POPC   C4A43878  41.514  20.601   7.350
 6649POPC   C1B43879  41.466  20.847   6.450
 6649POPC   C2B43880  41.477  20.871   6.750
 6649POPC   C3B43881  41.426  20.832   7.050
 6649POPC   C4B43882  41.459  20.823   7.350
 6650POPC   NC343883  29.912  35.339   5.550
 6650POPC   PO443884  29.894  35.382   5.850
 6650POPC   GL143885  29.873  35.358   6.150
 6650POPC   GL243886  29.853  35.192   6.150
 6650POPC   C1A43887  29.879  35.350   6.450
 6650POPC   D2A43888  29.911  35.320   6.750
 6650POPC   C3A43889  29.919  35.330   7.050
 6650POPC   C4A43890  29.910  35.304   7.350
 6650POPC   C1B43891  29.867  35.101   6.450
 6650POPC   C2B43892  29.928  35.078   6.750
 6650POPC   C3B43893  29.852  35.079   7.050
 6650POPC   C4B43894  29.926  35.070   7.350
 6651POPC   NC343895  38.420   2.807   5.550
 6651POPC   PO443896  38.447   2.795   5.850
 6651POPC   GL143897  38.446   2.737   6.150
 6651POPC   GL243898  38.562   2.885   6.150
 6651POPC   C1A43899  38.446   2.732   6.450
 6651POPC   D2A43900  38.435   2.752   6.750
 6651POPC   C3A43901  38.492   2.797   7.050
 6651POPC   C4A43902  38.466   2.769   7.350
 6651POPC   C1B43903  38.598   2.966   6.450
 6651POPC   C2B43904  38.601   2.913   6.750
 6651POPC   C3B43905  38.629   2.929   7.050
 6651POPC   C4B43906  38.643   2.929   7.350
 6652POPC   NC343907  32.250  43.147   5.550
 6652POPC   PO443908  32.251  43.102   5.850
 6652POPC   GL143909  32.217  43.086   6.150
 6652POPC   GL243910  32.362  43.122   6.150
 6652POPC   C1A43911  32.245  43.125   6.450
 6652POPC   D2A43912  32.218  43.127   6.750
 6652POPC   C3A43913  32.211  43.068   7.050
 6652POPC   C4A43914  32.217  43.086   7.350
 6652POPC   C1B43915  32.502  43.249   6.450
 6652POPC   C2B43916  32.484  43.245   6.750
 6652POPC   C3B43917  32.478  43.260   7.050
 6652POPC   C4B43918  32.424  43.180   7.350
 6653POPC   NC343919  29.962   8.977   5.550
 6653POPC   PO443920  29.958   9.014   5.850
 6653POPC   GL143921  29.929   8.973   6.150
 6653POPC   GL243922  29.884   8.859   6.150
 6653POPC   C1A43923  29.880   8.968   6.450
 6653POPC   D2A43924  29.944   8.940   6.750
 6653POPC   C3A43925  29.949   8.938   7.050
 6653POPC   C4A43926  29.871   8.950   7.350
 6653POPC   C1B43927  29.922   8.701   6.450
 6653POPC   C2B43928  29.966   8.757   6.750
 6653POPC   C3B43929  29.970   8.714   7.050
 6653POPC   C4B43930  29.919   8.699   7.350
 6654POPC   NC343931  22.921   7.463   5.550
 6654POPC   PO443932  22.893   7.405   5.850
 6654POPC   GL143933  22.959   7.422   6.150
 6654POPC   GL243934  23.078   7.497   6.150
 6654POPC   C1A43935  22.926   7.394   6.450
 6654POPC   D2A43936  22.943   7.432   6.750
 6654POPC   C3A43937  22.973   7.431   7.050
 6654POPC   C4A43938  22.912   7.383   7.350
 6654POPC   C1B43939  23.216   7.541   6.450
 6654POPC   C2B43940  23.148   7.450   6.750
 6654POPC   C3B43941  23.220   7.528   7.050
 6654POPC   C4B43942  23.210   7.502   7.350
 6655POPC   NC343943  43.142   7.460   5.550
 6655POPC   PO443944  43.140   7.417   5.850
 6655POPC   GL143945  43.128   7.468   6.150
 6655POPC   GL243946  43.190   7.523   6.150
 6655POPC   C1A43947  43.125   7.413   6.450
 6655POPC   D2A43948  43.104   7.453   6.750
 6655POPC   C3A43949  43.073   7.373   7.050
 6655POPC   C4A43950  43.103   7.372   7.350
 6655POPC   C1B43951  43.364   7.588   6.450
 6655POPC   C2B43952  43.357   7.557   6.750
 6655POPC   C3B43953  43.351   7.517   7.050
 6655POPC   C4B43954  43.353   7.518   7.350
 6656POPC   NC343955  36.941  26.063   5.550
 6656POPC   PO443956  36.896  26.008   5.850
 6656POPC   GL143957  36.858  26.010   6.150
 6656POPC   GL243958  36.826  26.083   6.150
 6656POPC   C1A43959  36.888  26.074   6.450
 6656POPC   D2A43960  36.913  26.052   6.750
 6656POPC   C3A43961  36.858  26.017   7.050
 6656POPC   C4A43962  36.916  26.044   7.350
 6656POPC   C1B43963  36.722  26.198   6.450
 6656POPC   C2B43964  36.729  26.205   6.750
 6656POPC   C3B43965  36.676  26.186   7.050
 6656POPC   C4B43966  36.746  26.242   7.350
 6657POPC   NC343967  19.106   6.602   5.550
 6657POPC   PO443968  19.061   6.656   5.850
 6657POPC   GL143969  19.092   6.691   6.150
 6657POPC   GL243970  19.198   6.627   6.150
 6657POPC   C1A43971  19.036   6.634   6.450
 6657POPC   D2A43972  19.061   6.643   6.750
 6657POPC   C3A43973  19.092   6.607   7.050
 6657POPC   C4A43974  19.092   6.635   7.350
 6657POPC   C1B43975  19.278   6.676   6.450
 6657POPC   C2B43976  19.252   6.685   6.750
 6657POPC   C3B43977  19.255   6.698   7.050
 6657POPC   C4B43978  19.262   6.687   7.350
 6658POPC   NC343979  30.691  39.970   5.550
 6658POPC   PO443980  30.729  39.964   5.850
 6658POPC   GL143981  30.722  39.968   6.150
 6658POPC   GL243982  30.643  39.846   6.150
 6658POPC   C1A43983  30.668  40.040   6.450
 6658POPC   D2A43984  30.733  40.041   6.750
 6658POPC   C3A43985  30.712  39.959   7.050
 6658POPC   C4A43986  30.671  40.009   7.350
 6658POPC   C1B43987  30.609  39.791   6.450
 6658POPC   C2B43988  30.599  39.777   6.750
 6658POPC   C3B43989  30.598  39.785   7.050
 6658POPC   C4B43990  30.604  39.777   7.350
 6659POPC   NC343991   5.888  36.894   5.550
 6659POPC   PO443992   5.866  36.899   5.850
 6659POPC   GL143993   5.834  36.884   6.150
 6659POPC   GL243994   5.976  36.937   6.150
 6659POPC   C1A43995   5.839  36.884   6.450
 6659POPC   D2A43996   5.907  36.937   6.750
 6659POPC   C3A43997   5.910  36.885   7.050
 6659POPC   C4A43998   5.834  36.911   7.350
 6659POPC   C1B43999   6.049  37.097   6.450
 6659POPC   C2B44000   6.062  37.115   6.750
 6659POPC   C3B44001   6.034  37.110   7.050
 6659POPC   C4B44002   6.073  37.065   7.350
 6660POPC   NC344003   9.779  35.397   5.550
 6660POPC   PO444004   9.784  35.360   5.850
 6660POPC   GL144005   9.763  35.315   6.150
 6660POPC   GL244006   9.628  35.354   6.150
 6660POPC   C1A44007   9.783  35.385   6.450
 6660POPC   D2A44008   9.710  35.371   6.750
 6660POPC   C3A44009   9.751  35.385   7.050
 6660POPC   C4A44010   9.783  35.372   7.350
 6660POPC   C1B44011   9.554  35.435   6.450
 6660POPC   C2B44012   9.510  35.454   6.750
 6660POPC   C3B44013   9.526  35.435   7.050
 6660POPC   C4B44014   9.531  35.425   7.350
 6661POPC   NC344015   5.074  30.664   5.550
 6661POPC   PO444016   5.112  30.700   5.850
 6661POPC   GL144017   5.125  30.722   6.150
 6661POPC   GL244018   5.261  30.727   6.150
 6661POPC   C1A44019   5.092  30.675   6.450
 6661POPC   D2A44020   5.122  30.731   6.750
 6661POPC   C3A44021   5.107  30.690   7.050
 6661POPC   C4A44022   5.066  30.656   7.350
 6661POPC   C1B44023   5.357  30.632   6.450
 6661POPC   C2B44024   5.295  30.636   6.750
 6661POPC   C3B44025   5.377  30.704   7.050
 6661POPC   C4B44026   5.388  30.712   7.350
 6662POPC   NC344027  14.394  37.716   5.550
 6662POPC   PO444028  14.363  37.660   5.850
 6662POPC   GL144029  14.371  37.649   6.150
 6662POPC   GL244030  14.288  37.581   6.150
 6662POPC   C1A44031  14.444  37.682   6.450
 6662POPC   D2A44032  14.428  37.684   6.750
 6662POPC   C3A44033  14.379  37.689   7.050
 6662POPC   C4A44034  14.444  37.645   7.350
 6662POPC   C1B44035  14.284  37.506   6.450
 6662POPC   C2B44036  14.211  37.468   6.750
 6662POPC   C3B44037  14.223  37.502   7.050
 6662POPC   C4B44038  14.274  37.498   7.350
 6663POPC   NC344039  27.605   9.793   5.550
 6663POPC   PO444040  27.558   9.752   5.850
 6663POPC   GL144041  27.611   9.699   6.150
 6663POPC   GL244042  27.664   9.847   6.150
 6663POPC   C1A44043  27.596   9.795   6.450
 6663POPC   D2A44044  27.567   9.732   6.750
 6663POPC   C3A44045  27.615   9.721   7.050
 6663POPC   C4A44046  27.607   9.731   7.350
 6663POPC   C1B44047  27.813   9.908   6.450
 6663POPC   C2B44048  27.811   9.840   6.750
 6663POPC   C3B44049  27.791   9.904   7.050
 6663POPC   C4B44050  27.801   9.921   7.350
 6664POPC   NC344051  36.098  28.325   5.550
 6664POPC   PO444052  36.145  28.417   5.850
 6664POPC   GL144053  36.164  28.410   6.150
 6664POPC   GL244054  36.215  28.253   6.150
 6664POPC   C1A44055  36.103  28.335   6.450
 6664POPC   D2A44056  36.110  28.347   6.750
 6664POPC   C3A44057  36.161  28.351   7.050
 6664POPC   C4A44058  36.112  28.372   7.350
 6664POPC   C1B44059  36.246  28.192   6.450
 6664POPC   C2B44060  36.303  28.217   6.750
 6664POPC   C3B44061  36.300  28.212   7.050
 6664POPC   C4B44062  36.302  28.188   7.350
 6665POPC   NC344063  16.695  29.942   5.550
 6665POPC   PO444064  16.732  29.962   5.850
 6665POPC   GL144065  16.708  29.888   6.150
 6665POPC   GL244066  16.819  29.954   6.150
 6665POPC   C1A44067  16.741  29.916   6.450
 6665POPC   D2A44068  16.750  29.879   6.750
 6665POPC   C3A44069  16.701  29.900   7.050
 6665POPC   C4A44070  16.776  29.882   7.350
 6665POPC   C1B44071  16.941  29.851   6.450
 6665POPC   C2B44072  17.007  29.926   6.750
 6665POPC   C3B44073  16.986  29.911   7.050
 6665POPC   C4B44074  17.019  29.927   7.350
 6666POPC   NC344075  12.867  38.414   5.550
 6666POPC   PO444076  12.866  38.422   5.850
 6666POPC   GL144077  12.808  38.407   6.150
 6666POPC   GL244078  12.734  38.447   6.150
 6666POPC   C1A44079  12.820  38.463   6.450
 6666POPC   D2A44080  12.857  38.477   6.750
 6666POPC   C3A44081  12.858  38.405   7.050
 6666POPC   C4A44082  12.842  38.456   7.350
 6666POPC   C1B44083  12.590  38.538   6.450
 6666POPC   C2B44084  12.646  38.444   6.750
 6666POPC   C3B44085  12.576  38.529   7.050
 6666POPC   C4B44086  12.650  38.439   7.350
 6667POPC   NC344087  16.780  11.322   5.550
 6667POPC   PO444088  16.705  11.256   5.850
 6667POPC   GL144089  16.713  11.259   6.150
 6667POPC   GL244090  16.867  11.240   6.150
 6667POPC   C1A44091  16.700  11.310   6.450
 6667POPC   D2A44092  16.779  11.343   6.750
 6667POPC   C3A44093  16.739  11.332   7.050
 6667POPC   C4A44094  16.692  11.323   7.350
 6667POPC   C1B44095  16.981  11.305   6.450
 6667POPC   C2B44096  16.935  11.292   6.750
 6667POPC   C3B44097  16.982  11.272   7.050
 6667POPC   C4B44098  16.933  11.252   7.350
 6668POPC   NC344099  29.104  29.918   5.550
 6668POPC   PO444100  29.152  29.931   5.850
 6668POPC   GL144101  29.137  29.897   6.150
 6668POPC   GL244102  29.224  29.958   6.150
 6668POPC   C1A44103  29.139  29.893   6.450
 6668POPC   D2A44104  29.179  29.943   6.750
 6668POPC   C3A44105  29.194  29.873   7.050
 6668POPC   C4A44106  29.182  29.963   7.350
 6668POPC   C1B44107  29.397  29.990   6.450
 6668POPC   C2B44108  29.388  30.087   6.750
 6668POPC   C3B44109  29.324  30.044   7.050
 6668POPC   C4B44110  29.356  30.022   7.350
 6669POPC   NC344111  18.261   9.758   5.550
 6669POPC   PO444112  18.324   9.728   5.850
 6669POPC   GL144113  18.310   9.714   6.150
 6669POPC   GL244114  18.156   9.649   6.150
 6669POPC   C1A44115  18.306   9.705   6.450
 6669POPC   D2A44116  18.320   9.737   6.750
 6669POPC   C3A44117  18.257   9.768   7.050
 6669POPC   C4A44118  18.279   9.796   7.350
 6669POPC   C1B44119  18.052   9.596   6.450
 6669POPC   C2B44120  18.116   9.563   6.750
 6669POPC   C3B44121  18.099   9.550   7.050
 6669POPC   C4B44122  18.046   9.629   7.350
 6670POPC   NC344123  13.667  26.089   5.550
 6670POPC   PO444124  13.581  26.071   5.850
 6670POPC   GL144125  13.656  26.060   6.150
 6670POPC   GL244126  13.657  26.171   6.150
 6670POPC   C1A44127  13.580  26.087   6.450
 6670POPC   D2A44128  13.581  26.051   6.750
 6670POPC   C3A44129  13.620  26.005   7.050
 6670POPC   C4A44130  13.624  26.071   7.350
 6670POPC   C1B44131  13.552  26.261   6.450
 6670POPC   C2B44132  13.564  26.272   6.750
 6670POPC   C3B44133  13.542  26.283   7.050
 6670POPC   C4B44134  13.637  26.251   7.350
 6671POPC   NC344135  18.314   1.221   5.550
 6671POPC   PO444136  18.250   1.190   5.850
 6671POPC   GL144137  18.321   1.248   6.150
 6671POPC   GL244138  18.319   1.051   6.150
 6671POPC   C1A44139  18.269   1.238   6.450
 6671POPC   D2A44140  18.316   1.190   6.750
 6671POPC   C3A44141  18.284   1.227   7.050
 6671POPC   C4A44142  18.282   1.183   7.350
 6671POPC   C1B44143  18.322   1.006   6.450
 6671POPC   C2B44144  18.370   1.005   6.750
 6671POPC   C3B44145  18.308   0.957   7.050
 6671POPC   C4B44146  18.387   0.957   7.350
 6672POPC   NC344147   4.349  35.321   5.550
 6672POPC   PO444148   4.328  35.371   5.850
 6672POPC   GL144149   4.328  35.312   6.150
 6672POPC   GL244150   4.159  35.394   6.150
 6672POPC   C1A44151   4.363  35.377   6.450
 6672POPC   D2A44152   4.334  35.311   6.750
 6672POPC   C3A44153   4.321  35.311   7.050
 6672POPC   C4A44154   4.350  35.302   7.350
 6672POPC   C1B44155   4.055  35.432   6.450
 6672POPC   C2B44156   4.093  35.434   6.750
 6672POPC   C3B44157   4.124  35.381   7.050
 6672POPC   C4B44158   4.077  35.420   7.350
 6673POPC   NC344159  32.982  21.422   5.550
 6673POPC   PO444160  33.038  21.360   5.850
 6673POPC   GL144161  33.063  21.362   6.150
 6673POPC   GL244162  32.936  21.392   6.150
 6673POPC   C1A44163  33.049  21.395   6.450
 6673POPC   D2A44164  33.001  21.416   6.750
 6673POPC   C3A44165  33.066  21.383   7.050
 6673POPC   C4A44166  33.013  21.412   7.350
 6673POPC   C1B44167  32.767  21.337   6.450
 6673POPC   C2B44168  32.774  21.321   6.750
 6673POPC   C3B44169  32.829  21.319   7.050
 6673POPC   C4B44170  32.762  21.290   7.350
 6674POPC   NC344171  36.911  24.501   5.550
 6674POPC   PO444172  36.908  24.452   5.850
 6674POPC   GL144173  36.913  24.535   6.150
 6674POPC   GL244174  37.029  24.390   6.150
 6674POPC   C1A44175  36.953  24.466   6.450
 6674POPC   D2A44176  36.949  24.463   6.750
 6674POPC   C3A44177  36.903  24.466   7.050
 6674POPC   C4A44178  36.860  24.534   7.350
 6674POPC   C1B44179  37.152  24.372   6.450
 6674POPC   C2B44180  37.102  24.397   6.750
 6674POPC   C3B44181  37.147  24.355   7.050
 6674POPC   C4B44182  37.143  24.336   7.350
 6675POPC   NC344183  21.362  24.538   5.550
 6675POPC   PO444184  21.380  24.535   5.850
 6675POPC   GL144185  21.361  24.522   6.150
 6675POPC   GL244186  21.498  24.514   6.150
 6675POPC   C1A44187  21.365  24.525   6.450
 6675POPC   D2A44188  21.421  24.529   6.750
 6675POPC   C3A44189  21.400  24.451   7.050
 6675POPC   C4A44190  21.362  24.441   7.350
 6675POPC   C1B44191  21.657  24.488   6.450
 6675POPC   C2B44192  21.614  24.531   6.750
 6675POPC   C3B44193  21.655  24.560   7.050
 6675POPC   C4B44194  21.674  24.491   7.350
 6676POPC   NC344195  26.826  12.870   5.550
 6676POPC   PO444196  26.814  12.863   5.850
 6676POPC   GL144197  26.841  12.855   6.150
 6676POPC   GL244198  26.713  12.841   6.150
 6676POPC   C1A44199  26.806  12.900   6.450
 6676POPC   D2A44200  26.807  12.859   6.750
 6676POPC   C3A44201  26.851  12.858   7.050
 6676POPC   C4A44202  26.847  12.895   7.350
 6676POPC   C1B44203  26.552  12.702   6.450
 6676POPC   C2B44204  26.570  12.712   6.750
 6676POPC   C3B44205  26.639  12.689   7.050
 6676POPC   C4B44206  26.588  12.783   7.350
 6677POPC   NC344207  19.032  12.860   5.550
 6677POPC   PO444208  19.091  12.861   5.850
 6677POPC   GL144209  19.009  12.803   6.150
 6677POPC   GL244210  19.033  12.697   6.150
 6677POPC   C1A44211  19.077  12.813   6.450
 6677POPC   D2A44212  19.017  12.873   6.750
 6677POPC   C3A44213  19.086  12.849   7.050
 6677POPC   C4A44214  19.058  12.893   7.350
 6677POPC   C1B44215  19.008  12.566   6.450
 6677POPC   C2B44216  18.961  12.570   6.750
 6677POPC   C3B44217  19.042  12.587   7.050
 6677POPC   C4B44218  19.005  12.600   7.350
 6678POPC   NC344219  10.484  35.401   5.550
 6678POPC   PO444220  10.549  35.387   5.850
 6678POPC   GL144221  10.508  35.358   6.150
 6678POPC   GL244222  10.489  35.446   6.150
 6678POPC   C1A44223  10.558  35.389   6.450
 6678POPC   D2A44224  10.505  35.355   6.750
 6678POPC   C3A44225  10.539  35.392   7.050
 6678POPC   C4A44226  10.537  35.326   7.350
 6678POPC   C1B44227  10.524  35.645   6.450
 6678POPC   C2B44228  10.542  35.569   6.750
 6678POPC   C3B44229  10.518  35.587   7.050
 6678POPC   C4B44230  10.550  35.649   7.350
 6679POPC   NC344231  36.873  39.995   5.550
 6679POPC   PO444232  36.950  40.012   5.850
 6679POPC   GL144233  36.952  40.036   6.150
 6679POPC   GL244234  37.037  39.950   6.150
 6679POPC   C1A44235  36.872  40.020   6.450
 6679POPC   D2A44236  36.858  40.030   6.750
 6679POPC   C3A44237  36.870  40.023   7.050
 6679POPC   C4A44238  36.860  40.040   7.350
 6679POPC   C1B44239  37.147  39.903   6.450
 6679POPC   C2B44240  37.092  39.870   6.750
 6679POPC   C3B44241  37.095  39.881   7.050
 6679POPC   C4B44242  37.157  39.868   7.350
 6680POPC   NC344243   7.392   9.709   5.550
 6680POPC   PO444244   7.441   9.764   5.850
 6680POPC   GL144245   7.447   9.705   6.150
 6680POPC   GL244246   7.289   9.637   6.150
 6680POPC   C1A44247   7.421   9.795   6.450
 6680POPC   D2A44248   7.398   9.700   6.750
 6680POPC   C3A44249   7.441   9.735   7.050
 6680POPC   C4A44250   7.463   9.709   7.350
 6680POPC   C1B44251   7.208   9.548   6.450
 6680POPC   C2B44252   7.223   9.627   6.750
 6680POPC   C3B44253   7.214   9.548   7.050
 6680POPC   C4B44254   7.228   9.629   7.350
 6681POPC   NC344255  19.097   7.381   5.550
 6681POPC   PO444256  19.078   7.452   5.850
 6681POPC   GL144257  19.013   7.460   6.150
 6681POPC   GL244258  19.119   7.544   6.150
 6681POPC   C1A44259  19.021   7.401   6.450
 6681POPC   D2A44260  19.087   7.459   6.750
 6681POPC   C3A44261  19.013   7.419   7.050
 6681POPC   C4A44262  19.026   7.432   7.350
 6681POPC   C1B44263  19.109   7.663   6.450
 6681POPC   C2B44264  19.086   7.666   6.750
 6681POPC   C3B44265  19.064   7.619   7.050
 6681POPC   C4B44266  19.094   7.688   7.350
 6682POPC   NC344267  29.960  17.464   5.550
 6682POPC   PO444268  29.877  17.540   5.850
 6682POPC   GL144269  29.887  17.481   6.150
 6682POPC   GL244270  29.829  17.581   6.150
 6682POPC   C1A44271  29.959  17.475   6.450
 6682POPC   D2A44272  29.922  17.506   6.750
 6682POPC   C3A44273  29.890  17.518   7.050
 6682POPC   C4A44274  29.946  17.512   7.350
 6682POPC   C1B44275  29.721  17.634   6.450
 6682POPC   C2B44276  29.764  17.676   6.750
 6682POPC   C3B44277  29.718  17.652   7.050
 6682POPC   C4B44278  29.712  17.698   7.350
 6683POPC   NC344279  43.080  15.914   5.550
 6683POPC   PO444280  43.113  15.934   5.850
 6683POPC   GL144281  43.064  15.999   6.150
 6683POPC   GL244282  42.983  15.932   6.150
 6683POPC   C1A44283  43.147  15.961   6.450
 6683POPC   D2A44284  43.158  16.001   6.750
 6683POPC   C3A44285  43.062  15.931   7.050
 6683POPC   C4A44286  43.099  15.962   7.350
 6683POPC   C1B44287  42.895  15.878   6.450
 6683POPC   C2B44288  42.906  15.882   6.750
 6683POPC   C3B44289  42.843  15.811   7.050
 6683POPC   C4B44290  42.863  15.874   7.350
 6684POPC   NC344291   7.380   0.400   5.550
 6684POPC   PO444292   7.435   0.463   5.850
 6684POPC   GL144293   7.415   0.477   6.150
 6684POPC   GL244294   7.553   0.354   6.150
 6684POPC   C1A44295   7.380   0.404   6.450
 6684POPC   D2A44296   7.446   0.487   6.750
 6684POPC   C3A44297   7.448   0.395   7.050
 6684POPC   C4A44298   7.440   0.438   7.350
 6684POPC   C1B44299   7.592   0.264   6.450
 6684POPC   C2B44300   7.639   0.313   6.750
 6684POPC   C3B44301   7.580   0.332   7.050
 6684POPC   C4B44302   7.620   0.278   7.350
 6685POPC   NC344303   0.458  39.959   5.550
 6685POPC   PO444304   0.426  40.030   5.850
 6685POPC   GL144305   0.418  39.998   6.150
 6685POPC   GL244306   0.554  39.917   6.150
 6685POPC   C1A44307   0.396  39.978   6.450
 6685POPC   D2A44308   0.399  39.966   6.750
 6685POPC   C3A44309   0.399  40.035   7.050
 6685POPC   C4A44310   0.454  40.055   7.350
 6685POPC   C1B44311   0.640  39.918   6.450
 6685POPC   C2B44312   0.704  39.871   6.750
 6685POPC   C3B44313   0.654  39.901   7.050
 6685POPC   C4B44314   0.690  39.910   7.350
 6686POPC   NC344315  24.478  39.196   5.550
 6686POPC   PO444316  24.456  39.201   5.850
 6686POPC   GL144317  24.457  39.235   6.150
 6686POPC   GL244318  24.511  39.082   6.150
 6686POPC   C1A44319  24.506  39.200   6.450
 6686POPC   D2A44320  24.474  39.234   6.750
 6686POPC   C3A44321  24.516  39.240   7.050
 6686POPC   C4A44322  24.443  39.215   7.350
 6686POPC   C1B44323  24.618  39.012   6.450
 6686POPC   C2B44324  24.648  38.994   6.750
 6686POPC   C3B44325  24.617  38.996   7.050
 6686POPC   C4B44326  24.598  39.026   7.350
 6687POPC   NC344327  39.220  12.073   5.550
 6687POPC   PO444328  39.272  12.121   5.850
 6687POPC   GL144329  39.272  12.079   6.150
 6687POPC   GL244330  39.171  12.149   6.150
 6687POPC   C1A44331  39.227  12.121   6.450
 6687POPC   D2A44332  39.201  12.042   6.750
 6687POPC   C3A44333  39.235  12.088   7.050
 6687POPC   C4A44334  39.274  12.124   7.350
 6687POPC   C1B44335  39.096  12.273   6.450
 6687POPC   C2B44336  39.022  12.280   6.750
 6687POPC   C3B44337  39.037  12.295   7.050
 6687POPC   C4B44338  39.046  12.292   7.350
 6688POPC   NC344339  40.816  29.939   5.550
 6688POPC   PO444340  40.748  29.916   5.850
 6688POPC   GL144341  40.767  29.905   6.150
 6688POPC   GL244342  40.902  29.808   6.150
 6688POPC   C1A44343  40.743  29.906   6.450
 6688POPC   D2A44344  40.768  29.896   6.750
 6688POPC   C3A44345  40.830  29.888   7.050
 6688POPC   C4A44346  40.761  29.892   7.350
 6688POPC   C1B44347  41.009  29.755   6.450
 6688POPC   C2B44348  40.996  29.768   6.750
 6688POPC   C3B44349  40.990  29.798   7.050
 6688POPC   C4B44350  41.029  29.753   7.350
 6689POPC   NC344351  43.160  42.327   5.550
 6689POPC   PO444352  43.074  42.288   5.850
 6689POPC   GL144353  43.122  42.351   6.150
 6689POPC   GL244354  43.025  42.447   6.150
 6689POPC   C1A44355  43.066  42.360   6.450
 6689POPC   D2A44356  43.129  42.322   6.750
 6689POPC   C3A44357  43.129  42.358   7.050
 6689POPC   C4A44358  43.111  42.345   7.350
 6689POPC   C1B44359  43.015  42.526   6.450
 6689POPC   C2B44360  42.995  42.520   6.750
 6689POPC   C3B44361  42.994  42.580   7.050
 6689POPC   C4B44362  42.953  42.553   7.350
 6690POPC   NC344363   7.462  22.922   5.550
 6690POPC   PO444364   7.374  22.944   5.850
 6690POPC   GL144365   7.440  22.925   6.150
 6690POPC   GL244366   7.276  22.879   6.150
 6690POPC   C1A44367   7.386  22.905   6.450
 6690POPC   D2A44368   7.449  22.932   6.750
 6690POPC   C3A44369   7.373  22.920   7.050
 6690POPC   C4A44370   7.438  22.974   7.350
 6690POPC   C1B44371   7.202  22.793   6.450
 6690POPC   C2B44372   7.153  22.871   6.750
 6690POPC   C3B44373   7.227  22.879   7.050
 6690POPC   C4B44374   7.242  22.878   7.350
 6691POPC   NC344375   2.798  19.873   5.550
 6691POPC   PO444376   2.754  19.806   5.850
 6691POPC   GL144377   2.764  19.823   6.150
 6691POPC   GL244378   2.673  19.936   6.150
 6691POPC   C1A44379   2.770  19.850   6.450
 6691POPC   D2A44380   2.788  19.791   6.750
 6691POPC   C3A44381   2.808  19.878   7.050
 6691POPC   C4A44382   2.788  19.876   7.350
 6691POPC   C1B44383   2.534  20.000   6.450
 6691POPC   C2B44384   2.585  19.961   6.750
 6691POPC   C3B44385   2.578  20.024   7.050
 6691POPC   C4B44386   2.577  20.004   7.350
 6692POPC   NC344387  27.545  39.211   5.550
 6692POPC   PO444388  27.555  39.254   5.850
 6692POPC   GL144389  27.635  39.205   6.150
 6692POPC   GL244390  27.683  39.278   6.150
 6692POPC   C1A44391  27.630  39.203   6.450
 6692POPC   D2A44392  27.577  39.206   6.750
 6692POPC   C3A44393  27.609  39.199   7.050
 6692POPC   C4A44394  27.630  39.246   7.350
 6692POPC   C1B44395  27.828  39.323   6.450
 6692POPC   C2B44396  27.810  39.339   6.750
 6692POPC   C3B44397  27.843  39.295   7.050
 6692POPC   C4B44398  27.866  39.310   7.350
 6693POPC   NC344399  41.534  35.397   5.550
 6693POPC   PO444400  41.589  35.394   5.850
 6693POPC   GL144401  41.545  35.344   6.150
 6693POPC   GL244402  41.573  35.189   6.150
 6693POPC   C1A44403  41.514  35.393   6.450
 6693POPC   D2A44404  41.560  35.390   6.750
 6693POPC   C3A44405  41.537  35.334   7.050
 6693POPC   C4A44406  41.557  35.396   7.350
 6693POPC   C1B44407  41.660  35.098   6.450
 6693POPC   C2B44408  41.586  35.071   6.750
 6693POPC   C3B44409  41.605  35.153   7.050
 6693POPC   C4B44410  41.662  35.075   7.350
 6694POPC   NC344411  24.488  35.311   5.550
 6694POPC   PO444412  24.536  35.395   5.850
 6694POPC   GL144413  24.500  35.364   6.150
 6694POPC   GL244414  24.584  35.417   6.150
 6694POPC   C1A44415  24.523  35.332   6.450
 6694POPC   D2A44416  24.476  35.331   6.750
 6694POPC   C3A44417  24.501  35.382   7.050
 6694POPC   C4A44418  24.512  35.356   7.350
 6694POPC   C1B44419  24.651  35.613   6.450
 6694POPC   C2B44420  24.595  35.616   6.750
 6694POPC   C3B44421  24.638  35.554   7.050
 6694POPC   C4B44422  24.586  35.563   7.350
 6695POPC   NC344423  31.439  30.682   5.550
 6695POPC   PO444424  31.487  30.718   5.850
 6695POPC   GL144425  31.496  30.697   6.150
 6695POPC   GL244426  31.390  30.622   6.150
 6695POPC   C1A44427  31.518  30.663   6.450
 6695POPC   D2A44428  31.440  30.703   6.750
 6695POPC   C3A44429  31.426  30.711   7.050
 6695POPC   C4A44430  31.490  30.698   7.350
 6695POPC   C1B44431  31.233  30.677   6.450
 6695POPC   C2B44432  31.251  30.586   6.750
 6695POPC   C3B44433  31.245  30.639   7.050
 6695POPC   C4B44434  31.219  30.649   7.350
 6696POPC   NC344435  17.533   1.248   5.550
 6696POPC   PO444436  17.464   1.249   5.850
 6696POPC   GL144437  17.478   1.205   6.150
 6696POPC   GL244438  17.604   1.255   6.150
 6696POPC   C1A44439  17.464   1.205   6.450
 6696POPC   D2A44440  17.475   1.183   6.750
 6696POPC   C3A44441  17.467   1.243   7.050
 6696POPC   C4A44442  17.494   1.245   7.350
 6696POPC   C1B44443  17.730   1.370   6.450
 6696POPC   C2B44444  17.706   1.317   6.750
 6696POPC   C3B44445  17.682   1.332   7.050
 6696POPC   C4B44446  17.680   1.310   7.350
 6697POPC   NC344447  14.387   6.662   5.550
 6697POPC   PO444448  14.421   6.623   5.850
 6697POPC   GL144449  14.433   6.618   6.150
 6697POPC   GL244450  14.504   6.716   6.150
 6697POPC   C1A44451  14.416   6.669   6.450
 6697POPC   D2A44452  14.425   6.600   6.750
 6697POPC   C3A44453  14.410   6.684   7.050
 6697POPC   C4A44454  14.400   6.607   7.350
 6697POPC   C1B44455  14.619   6.767   6.450
 6697POPC   C2B44456  14.608   6.772   6.750
 6697POPC   C3B44457  14.600   6.747   7.050
 6697POPC   C4B44458  14.619   6.776   7.350
 6698POPC   NC344459  39.233  22.128   5.550
 6698POPC   PO444460  39.201  22.208   5.850
 6698POPC   GL144461  39.198  22.128   6.150
 6698POPC   GL244462  39.157  22.285   6.150
 6698POPC   C1A44463  39.186  22.156   6.450
 6698POPC   D2A44464  39.219  22.198   6.750
 6698POPC   C3A44465  39.256  22.171   7.050
 6698POPC   C4A44466  39.211  22.204   7.350
 6698POPC   C1B44467  39.137  22.357   6.450
 6698POPC   C2B44468  39.142  22.411   6.750
 6698POPC   C3B44469  39.153  22.364   7.050
 6698POPC   C4B44470  39.184  22.349   7.350
 6699POPC   NC344471  39.247  13.588   5.550
 6699POPC   PO444472  39.198  13.670   5.850
 6699POPC   GL144473  39.197  13.601   6.150
 6699POPC   GL244474  39.160  13.469   6.150
 6699POPC   C1A44475  39.213  13.595   6.450
 6699POPC   D2A44476  39.275  13.617   6.750
 6699POPC   C3A44477  39.251  13.632   7.050
 6699POPC   C4A44478  39.246  13.633   7.350
 6699POPC   C1B44479  39.216  13.425   6.450
 6699POPC   C2B44480  39.202  13.360   6.750
 6699POPC   C3B44481  39.193  13.429   7.050
 6699POPC   C4B44482  39.153  13.373   7.350
 6700POPC   NC344483  39.985  25.291   5.550
 6700POPC   PO444484  40.020  25.232   5.850
 6700POPC   GL144485  39.992  25.235   6.150
 6700POPC   GL244486  39.883  25.199   6.150
 6700POPC   C1A44487  40.044  25.287   6.450
 6700POPC   D2A44488  40.034  25.219   6.750
 6700POPC   C3A44489  39.971  25.296   7.050
 6700POPC   C4A44490  39.970  25.282   7.350
 6700POPC   C1B44491  39.908  25.068   6.450
 6700POPC   C2B44492  39.821  25.043   6.750
 6700POPC   C3B44493  39.816  25.027   7.050
 6700POPC   C4B44494  39.890  25.083   7.350
 6701POPC   NC344495  12.857  34.527   5.550
 6701POPC   PO444496  12.814  34.616   5.850
 6701POPC   GL144497  12.807  34.563   6.150
 6701POPC   GL244498  12.902  34.445   6.150
 6701POPC   C1A44499  12.860  34.585   6.450
 6701POPC   D2A44500  12.840  34.621   6.750
 6701POPC   C3A44501  12.821  34.573   7.050
 6701POPC   C4A44502  12.815  34.575   7.350
 6701POPC   C1B44503  12.985  34.373   6.450
 6701POPC   C2B44504  12.949  34.335   6.750
 6701POPC   C3B44505  12.973  34.354   7.050
 6701POPC   C4B44506  12.955  34.347   7.350
 6702POPC   NC344507  11.268   8.940   5.550
 6702POPC   PO444508  11.257   8.958   5.850
 6702POPC   GL144509  11.313   9.019   6.150
 6702POPC   GL244510  11.409   8.914   6.150
 6702POPC   C1A44511  11.286   8.954   6.450
 6702POPC   D2A44512  11.267   8.957   6.750
 6702POPC   C3A44513  11.263   8.961   7.050
 6702POPC   C4A44514  11.286   9.022   7.350
 6702POPC   C1B44515  11.442   8.724   6.450
 6702POPC   C2B44516  11.489   8.723   6.750
 6702POPC   C3B44517  11.439   8.795   7.050
 6702POPC   C4B44518  11.399   8.726   7.350
 6703POPC   NC344519  36.145   5.103   5.550
 6703POPC   PO444520  36.107   5.074   5.850
 6703POPC   GL144521  36.080   5.120   6.150
 6703POPC   GL244522  36.173   4.982   6.150
 6703POPC   C1A44523  36.099   5.101   6.450
 6703POPC   D2A44524  36.094   5.069   6.750
 6703POPC   C3A44525  36.151   5.045   7.050
 6703POPC   C4A44526  36.124   5.046   7.350
 6703POPC   C1B44527  36.245   4.943   6.450
 6703POPC   C2B44528  36.262   4.942   6.750
 6703POPC   C3B44529  36.300   4.949   7.050
 6703POPC   C4B44530  36.317   4.868   7.350
 6704POPC   NC344531  44.712  15.140   5.550
 6704POPC   PO444532  44.670  15.197   5.850
 6704POPC   GL144533  44.673  15.168   6.150
 6704POPC   GL244534  44.700  15.067   6.150
 6704POPC   C1A44535  44.638  15.136   6.450
 6704POPC   D2A44536  44.630  15.187   6.750
 6704POPC   C3A44537  44.634  15.167   7.050
 6704POPC   C4A44538  44.683  15.179   7.350
 6704POPC   C1B44539  44.788  14.945   6.450
 6704POPC   C2B44540  44.826  15.023   6.750
 6704POPC   C3B44541  44.858  14.938   7.050
 6704POPC   C4B44542  44.799  14.965   7.350
 6705POPC   NC344543  33.038  43.137   5.550
 6705POPC   PO444544  33.026  43.148   5.850
 6705POPC   GL144545  32.995  43.157   6.150
 6705POPC   GL244546  33.006  43.031   6.150
 6705POPC   C1A44547  33.054  43.156   6.450
 6705POPC   D2A44548  32.978  43.100   6.750
 6705POPC   C3A44549  33.023  43.153   7.050
 6705POPC   C4A44550  33.060  43.152   7.350
 6705POPC   C1B44551  33.120  42.845   6.450
 6705POPC   C2B44552  33.116  42.865   6.750
 6705POPC   C3B44553  33.057  42.889   7.050
 6705POPC   C4B44554  33.028  42.816   7.350
 6706POPC   NC344555  10.522  40.800   5.550
 6706POPC   PO444556  10.475  40.802   5.850
 6706POPC   GL144557  10.532  40.773   6.150
 6706POPC   GL244558  10.608  40.891   6.150
 6706POPC   C1A44559  10.490  40.832   6.450
 6706POPC   D2A44560  10.570  40.832   6.750
 6706POPC   C3A44561  10.549  40.806   7.050
 6706POPC   C4A44562  10.526  40.749   7.350
 6706POPC   C1B44563  10.628  41.001   6.450
 6706POPC   C2B44564  10.575  41.030   6.750
 6706POPC   C3B44565  10.588  41.002   7.050
 6706POPC   C4B44566  10.652  40.977   7.350
 6707POPC   NC344567  18.255  39.985   5.550
 6707POPC   PO444568  18.287  40.001   5.850
 6707POPC   GL144569  18.271  40.007   6.150
 6707POPC   GL244570  18.137  40.048   6.150
 6707POPC   C1A44571  18.331  39.999   6.450
 6707POPC   D2A44572  18.311  40.026   6.750
 6707POPC   C3A44573  18.314  40.007   7.050
 6707POPC   C4A44574  18.260  39.995   7.350
 6707POPC   C1B44575  18.025  40.079   6.450
 6707POPC   C2B44576  18.000  40.123   6.750
 6707POPC   C3B44577  18.045  40.098   7.050
 6707POPC   C4B44578  18.079  40.101   7.350
 6708POPC   NC344579  26.031   8.214   5.550
 6708POPC   PO444580  25.992   8.240   5.850
 6708POPC   GL144581  26.007   8.178   6.150
 6708POPC   GL244582  26.011   8.078   6.150
 6708POPC   C1A44583  26.036   8.234   6.450
 6708POPC   D2A44584  26.022   8.183   6.750
 6708POPC   C3A44585  26.026   8.163   7.050
 6708POPC   C4A44586  26.025   8.179   7.350
 6708POPC   C1B44587  25.918   7.931   6.450
 6708POPC   C2B44588  25.936   7.950   6.750
 6708POPC   C3B44589  25.877   7.953   7.050
 6708POPC   C4B44590  25.936   7.974   7.350
 6709POPC   NC344591  36.892   3.507   5.550
 6709POPC   PO444592  36.936   3.572   5.850
 6709POPC   GL144593  36.937   3.582   6.150
 6709POPC   GL244594  37.059   3.579   6.150
 6709POPC   C1A44595  36.900   3.562   6.450
 6709POPC   D2A44596  36.856   3.548   6.750
 6709POPC   C3A44597  36.872   3.540   7.050
 6709POPC   C4A44598  36.923   3.495   7.350
 6709POPC   C1B44599  37.156   3.516   6.450
 6709POPC   C2B44600  37.123   3.555   6.750
 6709POPC   C3B44601  37.199   3.476   7.050
 6709POPC   C4B44602  37.145   3.528   7.350
 6710POPC   NC344603  14.420  32.288   5.550
 6710POPC   PO444604  14.428  32.231   5.850
 6710POPC   GL144605  14.371  32.220   6.150
 6710POPC   GL244606  14.323  32.409   6.150
 6710POPC   C1A44607  14.372  32.264   6.450
 6710POPC   D2A44608  14.359  32.213   6.750
 6710POPC   C3A44609  14.439  32.217   7.050
 6710POPC   C4A44610  14.384  32.243   7.350
 6710POPC   C1B44611  14.313  32.511   6.450
 6710POPC   C2B44612  14.327  32.499   6.750
 6710POPC   C3B44613  14.271  32.499   7.050
 6710POPC   C4B44614  14.281  32.473   7.350
 6711POPC   NC344615  31.485   0.433   5.550
 6711POPC   PO444616  31.454   0.434   5.850
 6711POPC   GL144617  31.488   0.434   6.150
 6711POPC   GL244618  31.499   0.356   6.150
 6711POPC   C1A44619  31.432   0.405   6.450
 6711POPC   D2A44620  31.467   0.424   6.750
 6711POPC   C3A44621  31.435   0.429   7.050
 6711POPC   C4A44622  31.438   0.401   7.350
 6711POPC   C1B44623  31.493   0.196   6.450
 6711POPC   C2B44624  31.523   0.214   6.750
 6711POPC   C3B44625  31.527   0.201   7.050
 6711POPC   C4B44626  31.527   0.184   7.350
 6712POPC   NC344627  33.831  15.993   5.550
 6712POPC   PO444628  33.807  15.924   5.850
 6712POPC   GL144629  33.841  15.973   6.150
 6712POPC   GL244630  33.892  16.103   6.150
 6712POPC   C1A44631  33.803  15.996   6.450
 6712POPC   D2A44632  33.771  15.955   6.750
 6712POPC   C3A44633  33.759  15.955   7.050
 6712POPC   C4A44634  33.765  15.995   7.350
 6712POPC   C1B44635  33.942  16.181   6.450
 6712POPC   C2B44636  33.866  16.174   6.750
 6712POPC   C3B44637  33.874  16.181   7.050
 6712POPC   C4B44638  33.944  16.226   7.350
 6713POPC   NC344639  44.658  31.457   5.550
 6713POPC   PO444640  44.694  31.480   5.850
 6713POPC   GL144641  44.617  31.521   6.150
 6713POPC   GL244642  44.743  31.332   6.150
 6713POPC   C1A44643  44.667  31.485   6.450
 6713POPC   D2A44644  44.710  31.479   6.750
 6713POPC   C3A44645  44.617  31.445   7.050
 6713POPC   C4A44646  44.704  31.503   7.350
 6713POPC   C1B44647  44.818  31.257   6.450
 6713POPC   C2B44648  44.799  31.221   6.750
 6713POPC   C3B44649  44.837  31.254   7.050
 6713POPC   C4B44650  44.800  31.253   7.350
 6714POPC   NC344651  12.079  22.931   5.550
 6714POPC   PO444652  12.058  22.895   5.850
 6714POPC   GL144653  12.067  22.931   6.150
 6714POPC   GL244654  12.213  22.909   6.150
 6714POPC   C1A44655  12.090  22.973   6.450
 6714POPC   D2A44656  12.077  22.915   6.750
 6714POPC   C3A44657  12.046  22.945   7.050
 6714POPC   C4A44658  12.124  22.942   7.350
 6714POPC   C1B44659  12.266  22.864   6.450
 6714POPC   C2B44660  12.344  22.866   6.750
 6714POPC   C3B44661  12.313  22.876   7.050
 6714POPC   C4B44662  12.329  22.820   7.350
 6715POPC   NC344663  11.300  44.680   5.550
 6715POPC   PO444664  11.319  44.619   5.850
 6715POPC   GL144665  11.330  44.679   6.150
 6715POPC   GL244666  11.371  44.623   6.150
 6715POPC   C1A44667  11.345  44.704   6.450
 6715POPC   D2A44668  11.292  44.641   6.750
 6715POPC   C3A44669  11.313  44.621   7.050
 6715POPC   C4A44670  11.343  44.697   7.350
 6715POPC   C1B44671  11.568  44.546   6.450
 6715POPC   C2B44672  11.514  44.614   6.750
 6715POPC   C3B44673  11.585  44.621   7.050
 6715POPC   C4B44674  11.508  44.560   7.350
 6716POPC   NC344675  21.343  11.336   5.550
 6716POPC   PO444676  21.434  11.273   5.850
 6716POPC   GL144677  21.386  11.331   6.150
 6716POPC   GL244678  21.503  11.210   6.150
 6716POPC   C1A44679  21.428  11.323   6.450
 6716POPC   D2A44680  21.368  11.293   6.750
 6716POPC   C3A44681  21.389  11.337   7.050
 6716POPC   C4A44682  21.339  11.255   7.350
 6716POPC   C1B44683  21.560  11.106   6.450
 6716POPC   C2B44684  21.555  11.107   6.750
 6716POPC   C3B44685  21.555  11.148   7.050
 6716POPC   C4B44686  21.600  11.148   7.350
 6717POPC   NC344687  12.854  19.870   5.550
 6717POPC   PO444688  12.855  19.870   5.850
 6717POPC   GL144689  12.840  19.834   6.150
 6717POPC   GL244690  12.835  19.962   6.150
 6717POPC   C1A44691  12.834  19.792   6.450
 6717POPC   D2A44692  12.819  19.868   6.750
 6717POPC   C3A44693  12.892  19.855   7.050
 6717POPC   C4A44694  12.900  19.830   7.350
 6717POPC   C1B44695  12.707  20.058   6.450
 6717POPC   C2B44696  12.687  20.091   6.750
 6717POPC   C3B44697  12.777  20.086   7.050
 6717POPC   C4B44698  12.710  20.047   7.350
 6718POPC   NC344699  16.752  22.921   5.550
 6718POPC   PO444700  16.703  22.915   5.850
 6718POPC   GL144701  16.683  22.936   6.150
 6718POPC   GL244702  16.777  22.845   6.150
 6718POPC   C1A44703  16.780  22.889   6.450
 6718POPC   D2A44704  16.752  22.923   6.750
 6718POPC   C3A44705  16.738  22.953   7.050
 6718POPC   C4A44706  16.691  22.964   7.350
 6718POPC   C1B44707  16.760  22.703   6.450
 6718POPC   C2B44708  16.746  22.727   6.750
 6718POPC   C3B44709  16.805  22.737   7.050
 6718POPC   C4B44710  16.805  22.650   7.350
 6719POPC   NC344711  26.077  22.911   5.550
 6719POPC   PO444712  26.033  22.981   5.850
 6719POPC   GL144713  26.082  22.928   6.150
 6719POPC   GL244714  26.035  22.775   6.150
 6719POPC   C1A44715  26.000  22.940   6.450
 6719POPC   D2A44716  26.020  22.935   6.750
 6719POPC   C3A44717  26.072  22.952   7.050
 6719POPC   C4A44718  26.046  22.915   7.350
 6719POPC   C1B44719  26.110  22.651   6.450
 6719POPC   C2B44720  26.130  22.695   6.750
 6719POPC   C3B44721  26.108  22.729   7.050
 6719POPC   C4B44722  26.069  22.654   7.350
 6720POPC   NC344723  27.570  34.545   5.550
 6720POPC   PO444724  27.630  34.613   5.850
 6720POPC   GL144725  27.608  34.533   6.150
 6720POPC   GL244726  27.652  34.499   6.150
 6720POPC   C1A44727  27.553  34.568   6.450
 6720POPC   D2A44728  27.615  34.624   6.750
 6720POPC   C3A44729  27.623  34.618   7.050
 6720POPC   C4A44730  27.550  34.562   7.350
 6720POPC   C1B44731  27.726  34.339   6.450
 6720POPC   C2B44732  27.749  34.399   6.750
 6720POPC   C3B44733  27.693  34.331   7.050
 6720POPC   C4B44734  27.672  34.356   7.350
 6721POPC   NC344735  15.206  13.670   5.550
 6721POPC   PO444736  15.170  13.634   5.850
 6721POPC   GL144737  15.169  13.643   6.150
 6721POPC   GL244738  15.112  13.615   6.150
 6721POPC   C1A44739  15.176  13.664   6.450
 6721POPC   D2A44740  15.212  13.600   6.750
 6721POPC   C3A44741  15.166  13.639   7.050
 6721POPC   C4A44742  15.163  13.647   7.350
 6721POPC   C1B44743  14.927  13.565   6.450
 6721POPC   C2B44744  14.925  13.567   6.750
 6721POPC   C3B44745  14.911  13.489   7.050
 6721POPC   C4B44746  14.953  13.521   7.350
 6722POPC   NC344747   5.884  42.328   5.550
 6722POPC   PO444748   5.902  42.318   5.850
 6722POPC   GL144749   5.890  42.372   6.150
 6722POPC   GL244750   5.910  42.194   6.150
 6722POPC   C1A44751   5.908  42.293   6.450
 6722POPC   D2A44752   5.834  42.379   6.750
 6722POPC   C3A44753   5.862  42.291   7.050
 6722POPC   C4A44754   5.834  42.363   7.350
 6722POPC   C1B44755   5.850  42.091   6.450
 6722POPC   C2B44756   5.885  42.105   6.750
 6722POPC   C3B44757   5.878  42.068   7.050
 6722POPC   C4B44758   5.854  42.088   7.350
 6723POPC   NC344759  35.304  18.266   5.550
 6723POPC   PO444760  35.393  18.258   5.850
 6723POPC   GL144761  35.303  18.295   6.150
 6723POPC   GL244762  35.296  18.208   6.150
 6723POPC   C1A44763  35.331  18.260   6.450
 6723POPC   D2A44764  35.399  18.270   6.750
 6723POPC   C3A44765  35.350  18.309   7.050
 6723POPC   C4A44766  35.375  18.296   7.350
 6723POPC   C1B44767  35.177  18.157   6.450
 6723POPC   C2B44768  35.174  18.120   6.750
 6723POPC   C3B44769  35.188  18.096   7.050
 6723POPC   C4B44770  35.186  18.082   7.350
 6724POPC   NC344771  20.656  12.811   5.550
 6724POPC   PO444772  20.642  12.807   5.850
 6724POPC   GL144773  20.561  12.819   6.150
 6724POPC   GL244774  20.733  12.868   6.150
 6724POPC   C1A44775  20.585  12.899   6.450
 6724POPC   D2A44776  20.604  12.805   6.750
 6724POPC   C3A44777  20.576  12.839   7.050
 6724POPC   C4A44778  20.628  12.830   7.350
 6724POPC   C1B44779  20.872  12.889   6.450
 6724POPC   C2B44780  20.814  12.836   6.750
 6724POPC   C3B44781  20.809  12.885   7.050
 6724POPC   C4B44782  20.871  12.929   7.350
 6725POPC   NC344783  39.959  39.226   5.550
 6725POPC   PO444784  40.025  39.248   5.850
 6725POPC   GL144785  39.976  39.279   6.150
 6725POPC   GL244786  40.111  39.264   6.150
 6725POPC   C1A44787  40.025  39.195   6.450
 6725POPC   D2A44788  39.958  39.213   6.750
 6725POPC   C3A44789  39.968  39.272   7.050
 6725POPC   C4A44790  40.043  39.279   7.350
 6725POPC   C1B44791  40.287  39.254   6.450
 6725POPC   C2B44792  40.217  39.266   6.750
 6725POPC   C3B44793  40.239  39.208   7.050
 6725POPC   C4B44794  40.295  39.298   7.350
 6726POPC   NC344795  44.641  18.316   5.550
 6726POPC   PO444796  44.637  18.330   5.850
 6726POPC   GL144797  44.618  18.301   6.150
 6726POPC   GL244798  44.712  18.431   6.150
 6726POPC   C1A44799  44.667  18.308   6.450
 6726POPC   D2A44800  44.711  18.283   6.750
 6726POPC   C3A44801  44.698  18.269   7.050
 6726POPC   C4A44802  44.635  18.256   7.350
 6726POPC   C1B44803  44.693  18.527   6.450
 6726POPC   C2B44804  44.742  18.534   6.750
 6726POPC   C3B44805  44.704  18.535   7.050
 6726POPC   C4B44806  44.700  18.555   7.350
 6727POPC   NC344807  39.980  23.742   5.550
 6727POPC   PO444808  40.024  23.744   5.850
 6727POPC   GL144809  39.975  23.763   6.150
 6727POPC   GL244810  40.070  23.831   6.150
 6727POPC   C1A44811  39.985  23.697   6.450
 6727POPC   D2A44812  40.026  23.664   6.750
 6727POPC   C3A44813  39.978  23.722   7.050
 6727POPC   C4A44814  39.987  23.701   7.350
 6727POPC   C1B44815  40.200  23.897   6.450
 6727POPC   C2B44816  40.234  23.869   6.750
 6727POPC   C3B44817  40.233  23.920   7.050
 6727POPC   C4B44818  40.192  23.909   7.350
 6728POPC   NC344819  33.811  18.272   5.550
 6728POPC   PO444820  33.761  18.311   5.850
 6728POPC   GL144821  33.797  18.269   6.150
 6728POPC   GL244822  33.717  18.386   6.150
 6728POPC   C1A44823  33.802  18.304   6.450
 6728POPC   D2A44824  33.753  18.284   6.750
 6728POPC   C3A44825  33.844  18.285   7.050
 6728POPC   C4A44826  33.822  18.317   7.350
 6728POPC   C1B44827  33.623  18.438   6.450
 6728POPC   C2B44828  33.662  18.450   6.750
 6728POPC   C3B44829  33.614  18.499   7.050
 6728POPC   C4B44830  33.605  18.425   7.350
 6729POPC   NC344831  27.552  29.179   5.550
 6729POPC   PO444832  27.582  29.151   5.850
 6729POPC   GL144833  27.629  29.124   6.150
 6729POPC   GL244834  27.443  29.231   6.150
 6729POPC   C1A44835  27.621  29.126   6.450
 6729POPC   D2A44836  27.593  29.099   6.750
 6729POPC   C3A44837  27.643  29.151   7.050
 6729POPC   C4A44838  27.622  29.165   7.350
 6729POPC   C1B44839  27.408  29.226   6.450
 6729POPC   C2B44840  27.338  29.249   6.750
 6729POPC   C3B44841  27.316  29.293   7.050
 6729POPC   C4B44842  27.399  29.266   7.350
 6730POPC   NC344843  36.880  40.809   5.550
 6730POPC   PO444844  36.873  40.810   5.850
 6730POPC   GL144845  36.941  40.821   6.150
 6730POPC   GL244846  37.026  40.741   6.150
 6730POPC   C1A44847  36.947  40.814   6.450
 6730POPC   D2A44848  36.914  40.764   6.750
 6730POPC   C3A44849  36.926  40.831   7.050
 6730POPC   C4A44850  36.925  40.788   7.350
 6730POPC   C1B44851  37.135  40.741   6.450
 6730POPC   C2B44852  37.109  40.721   6.750
 6730POPC   C3B44853  37.177  40.772   7.050
 6730POPC   C4B44854  37.138  40.701   7.350
 6731POPC   NC344855  11.312  35.361   5.550
 6731POPC   PO444856  11.316  35.325   5.850
 6731POPC   GL144857  11.314  35.373   6.150
 6731POPC   GL244858  11.219  35.448   6.150
 6731POPC   C1A44859  11.347  35.388   6.450
 6731POPC   D2A44860  11.316  35.339   6.750
 6731POPC   C3A44861  11.345  35.337   7.050
 6731POPC   C4A44862  11.294  35.370   7.350
 6731POPC   C1B44863  11.118  35.496   6.450
 6731POPC   C2B44864  11.041  35.469   6.750
 6731POPC   C3B44865  11.122  35.441   7.050
 6731POPC   C4B44866  11.126  35.450   7.350
 6732POPC   NC344867  10.530  19.065   5.550
 6732POPC   PO444868  10.567  19.081   5.850
 6732POPC   GL144869  10.561  19.026   6.150
 6732POPC   GL244870  10.547  18.958   6.150
 6732POPC   C1A44871  10.516  19.019   6.450
 6732POPC   D2A44872  10.497  19.091   6.750
 6732POPC   C3A44873  10.547  19.026   7.050
 6732POPC   C4A44874  10.518  19.067   7.350
 6732POPC   C1B44875  10.622  18.824   6.450
 6732POPC   C2B44876  10.636  18.842   6.750
 6732POPC   C3B44877  10.613  18.824   7.050
 6732POPC   C4B44878  10.617  18.778   7.350
 6733POPC   NC344879  22.160  20.593   5.550
 6733POPC   PO444880  22.186  20.631   5.850
 6733POPC   GL144881  22.137  20.646   6.150
 6733POPC   GL244882  22.275  20.681   6.150
 6733POPC   C1A44883  22.184  20.604   6.450
 6733POPC   D2A44884  22.122  20.645   6.750
 6733POPC   C3A44885  22.139  20.569   7.050
 6733POPC   C4A44886  22.139  20.643   7.350
 6733POPC   C1B44887  22.401  20.802   6.450
 6733POPC   C2B44888  22.357  20.719   6.750
 6733POPC   C3B44889  22.315  20.793   7.050
 6733POPC   C4B44890  22.392  20.800   7.350
 6734POPC   NC344891  13.579  29.904   5.550
 6734POPC   PO444892  13.623  29.942   5.850
 6734POPC   GL144893  13.579  29.885   6.150
 6734POPC   GL244894  13.760  29.903   6.150
 6734POPC   C1A44895  13.599  29.905   6.450
 6734POPC   D2A44896  13.665  29.896   6.750
 6734POPC   C3A44897  13.629  29.925   7.050
 6734POPC   C4A44898  13.675  29.929   7.350
 6734POPC   C1B44899  13.830  29.874   6.450
 6734POPC   C2B44900  13.919  29.931   6.750
 6734POPC   C3B44901  13.903  29.913   7.050
 6734POPC   C4B44902  13.835  29.887   7.350
 6735POPC   NC344903  43.081  13.606   5.550
 6735POPC   PO444904  43.089  13.644   5.850
 6735POPC   GL144905  43.073  13.586   6.150
 6735POPC   GL244906  43.173  13.503   6.150
 6735POPC   C1A44907  43.149  13.638   6.450
 6735POPC   D2A44908  43.070  13.597   6.750
 6735POPC   C3A44909  43.159  13.656   7.050
 6735POPC   C4A44910  43.151  13.671   7.350
 6735POPC   C1B44911  43.163  13.359   6.450
 6735POPC   C2B44912  43.118  13.384   6.750
 6735POPC   C3B44913  43.147  13.391   7.050
 6735POPC   C4B44914  43.164  13.347   7.350
 6736POPC   NC344915  37.717  19.842   5.550
 6736POPC   PO444916  37.698  19.843   5.850
 6736POPC   GL144917  37.702  19.881   6.150
 6736POPC   GL244918  37.807  19.755   6.150
 6736POPC   C1A44919  37.652  19.833   6.450
 6736POPC   D2A44920  37.668  19.845   6.750
 6736POPC   C3A44921  37.679  19.871   7.050
 6736POPC   C4A44922  37.698  19.867   7.350
 6736POPC   C1B44923  37.867  19.626   6.450
 6736POPC   C2B44924  37.880  19.626   6.750
 6736POPC   C3B44925  37.866  19.624   7.050
 6736POPC   C4B44926  37.891  19.687   7.350
 6737POPC   NC344927   2.785  25.280   5.550
 6737POPC   PO444928   2.755  25.252   5.850
 6737POPC   GL144929   2.800  25.240   6.150
 6737POPC   GL244930   2.842  25.118   6.150
 6737POPC   C1A44931   2.802  25.285   6.450
 6737POPC   D2A44932   2.718  25.304   6.750
 6737POPC   C3A44933   2.807  25.231   7.050
 6737POPC   C4A44934   2.745  25.232   7.350
 6737POPC   C1B44935   2.863  25.001   6.450
 6737POPC   C2B44936   2.829  24.979   6.750
 6737POPC   C3B44937   2.829  25.027   7.050
 6737POPC   C4B44938   2.823  24.998   7.350
 6738POPC   NC344939  33.043  18.297   5.550
 6738POPC   PO444940  33.001  18.282   5.850
 6738POPC   GL144941  33.073  18.245   6.150
 6738POPC   GL244942  33.047  18.404   6.150
 6738POPC   C1A44943  33.059  18.296   6.450
 6738POPC   D2A44944  33.069  18.235   6.750
 6738POPC   C3A44945  33.057  18.295   7.050
 6738POPC   C4A44946  32.989  18.241   7.350
 6738POPC   C1B44947  33.040  18.520   6.450
 6738POPC   C2B44948  33.060  18.559   6.750
 6738POPC   C3B44949  32.978  18.562   7.050
 6738POPC   C4B44950  33.021  18.521   7.350
 6739POPC   NC344951   8.937  15.148   5.550
 6739POPC   PO444952   8.922  15.145   5.850
 6739POPC   GL144953   8.937  15.218   6.150
 6739POPC   GL244954   8.911  15.227   6.150
 6739POPC   C1A44955   8.961  15.203   6.450
 6739POPC   D2A44956   8.982  15.178   6.750
 6739POPC   C3A44957   9.004  15.140   7.050
 6739POPC   C4A44958   9.000  15.141   7.350
 6739POPC   C1B44959   8.737  15.328   6.450
 6739POPC   C2B44960   8.789  15.316   6.750
 6739POPC   C3B44961   8.733  15.343   7.050
 6739POPC   C4B44962   8.730  15.295   7.350
 6740POPC   NC344963   3.500  18.306   5.550
 6740POPC   PO444964   3.523  18.320   5.850
 6740POPC   GL144965   3.587  18.299   6.150
 6740POPC   GL244966   3.449  18.294   6.150
 6740POPC   C1A44967   3.499  18.245   6.450
 6740POPC   D2A44968   3.516  18.255   6.750
 6740POPC   C3A44969   3.551  18.290   7.050
 6740POPC   C4A44970   3.548  18.295   7.350
 6740POPC   C1B44971   3.280  18.417   6.450
 6740POPC   C2B44972   3.290  18.354   6.750
 6740POPC   C3B44973   3.300  18.349   7.050
 6740POPC   C4B44974   3.322  18.357   7.350
 6741POPC   NC344975   3.535  21.383   5.550
 6741POPC   PO444976   3.556  21.359   5.850
 6741POPC   GL144977   3.503  21.384   6.150
 6741POPC   GL244978   3.588  21.536   6.150
 6741POPC   C1A44979   3.565  21.358   6.450
 6741POPC   D2A44980   3.499  21.341   6.750
 6741POPC   C3A44981   3.548  21.392   7.050
 6741POPC   C4A44982   3.563  21.365   7.350
 6741POPC   C1B44983   3.688  21.613   6.450
 6741POPC   C2B44984   3.668  21.630   6.750
 6741POPC   C3B44985   3.641  21.568   7.050
 6741POPC   C4B44986   3.625  21.574   7.350
 6742POPC   NC344987  33.764  31.446   5.550
 6742POPC   PO444988  33.780  31.443   5.850
 6742POPC   GL144989  33.844  31.446   6.150
 6742POPC   GL244990  33.736  31.340   6.150
 6742POPC   C1A44991  33.837  31.462   6.450
 6742POPC   D2A44992  33.827  31.494   6.750
 6742POPC   C3A44993  33.795  31.499   7.050
 6742POPC   C4A44994  33.844  31.465   7.350
 6742POPC   C1B44995  33.781  31.261   6.450
 6742POPC   C2B44996  33.751  31.202   6.750
 6742POPC   C3B44997  33.709  31.237   7.050
 6742POPC   C4B44998  33.768  31.201   7.350
 6743POPC   NC344999  34.591  25.294   5.550
 6743POPC   PO445000  34.576  25.227   5.850
 6743POPC   GL145001  34.616  25.289   6.150
 6743POPC   GL245002  34.446  25.319   6.150
 6743POPC   C1A45003  34.580  25.238   6.450
 6743POPC   D2A45004  34.566  25.281   6.750
 6743POPC   C3A45005  34.548  25.258   7.050
 6743POPC   C4A45006  34.583  25.256   7.350
 6743POPC   C1B45007  34.406  25.383   6.450
 6743POPC   C2B45008  34.363  25.350   6.750
 6743POPC   C3B45009  34.350  25.397   7.050
 6743POPC   C4B45010  34.341  25.343   7.350
 6744POPC   NC345011  38.492  28.362   5.550
 6744POPC   PO445012  38.448  28.363   5.850
 6744POPC   GL145013  38.414  28.355   6.150
 6744POPC   GL245014  38.549  28.260   6.150
 6744POPC   C1A45015  38.413  28.397   6.450
 6744POPC   D2A45016  38.431  28.323   6.750
 6744POPC   C3A45017  38.414  28.341   7.050
 6744POPC   C4A45018  38.474  28.397   7.350
 6744POPC   C1B45019  38.542  28.145   6.450
 6744POPC   C2B45020  38.619  28.167   6.750
 6744POPC   C3B45021  38.633  28.165   7.050
 6744POPC   C4B45022  38.558  28.161   7.350
 6745POPC   NC345023  19.802   7.435   5.550
 6745POPC   PO445024  19.876   7.392   5.850
 6745POPC   GL145025  19.813   7.410   6.150
 6745POPC   GL245026  19.935   7.412   6.150
 6745POPC   C1A45027  19.825   7.413   6.450
 6745POPC   D2A45028  19.804   7.412   6.750
 6745POPC   C3A45029  19.828   7.459   7.050
 6745POPC   C4A45030  19.878   7.404   7.350
 6745POPC   C1B45031  20.035   7.393   6.450
 6745POPC   C2B45032  20.132   7.433   6.750
 6745POPC   C3B45033  20.088   7.428   7.050
 6745POPC   C4B45034  20.043   7.396   7.350
 6746POPC   NC345035  26.077   1.185   5.550
 6746POPC   PO445036  26.091   1.253   5.850
 6746POPC   GL145037  26.055   1.184   6.150
 6746POPC   GL245038  26.139   1.350   6.150
 6746POPC   C1A45039  26.066   1.213   6.450
 6746POPC   D2A45040  26.078   1.262   6.750
 6746POPC   C3A45041  26.026   1.194   7.050
 6746POPC   C4A45042  25.995   1.231   7.350
 6746POPC   C1B45043  26.206   1.481   6.450
 6746POPC   C2B45044  26.186   1.440   6.750
 6746POPC   C3B45045  26.137   1.456   7.050
 6746POPC   C4B45046  26.122   1.419   7.350
 6747POPC   NC345047  40.040  29.121   5.550
 6747POPC   PO445048  39.972  29.173   5.850
 6747POPC   GL145049  40.030  29.131   6.150
 6747POPC   GL245050  40.104  29.076   6.150
 6747POPC   C1A45051  40.001  29.103   6.450
 6747POPC   D2A45052  40.054  29.191   6.750
 6747POPC   C3A45053  40.016  29.188   7.050
 6747POPC   C4A45054  39.979  29.123   7.350
 6747POPC   C1B45055  40.219  29.014   6.450
 6747POPC   C2B45056  40.211  29.031   6.750
 6747POPC   C3B45057  40.249  29.016   7.050
 6747POPC   C4B45058  40.260  29.070   7.350
 6748POPC   NC345059  34.565  42.287   5.550
 6748POPC   PO445060  34.613  42.341   5.850
 6748POPC   GL145061  34.573  42.350   6.150
 6748POPC   GL245062  34.411  42.293   6.150
 6748POPC   C1A45063  34.589  42.369   6.450
 6748POPC   D2A45064  34.624  42.309   6.750
 6748POPC   C3A45065  34.544  42.318   7.050
 6748POPC   C4A45066  34.592  42.376   7.350
 6748POPC   C1B45067  34.306  42.303   6.450
 6748POPC   C2B45068  34.339  42.219   6.750
 6748POPC   C3B45069  34.312  42.306   7.050
 6748POPC   C4B45070  34.333  42.216   7.350
 6749POPC   NC345071   5.889  26.785   5.550
 6749POPC   PO445072   5.829  26.824   5.850
 6749POPC   GL145073   5.859  26.862   6.150
 6749POPC   GL245074   5.817  26.927   6.150
 6749POPC   C1A45075   5.866  26.794   6.450
 6749POPC   D2A45076   5.857  26.823   6.750
 6749POPC   C3A45077   5.900  26.768   7.050
 6749POPC   C4A45078   5.841  26.835   7.350
 6749POPC   C1B45079   5.668  27.057   6.450
 6749POPC   C2B45080   5.741  26.996   6.750
 6749POPC   C3B45081   5.714  27.000   7.050
 6749POPC   C4B45082   5.723  27.053   7.350
 6750POPC   NC345083  19.852   1.243   5.550
 6750POPC   PO445084  19.802   1.174   5.850
 6750POPC   GL145085  19.854   1.218   6.150
 6750POPC   GL245086  19.725   1.127   6.150
 6750POPC   C1A45087  19.812   1.229   6.450
 6750POPC   D2A45088  19.821   1.255   6.750
 6750POPC   C3A45089  19.834   1.213   7.050
 6750POPC   C4A45090  19.829   1.238   7.350
 6750POPC   C1B45091  19.619   1.120   6.450
 6750POPC   C2B45092  19.651   1.074   6.750
 6750POPC   C3B45093  19.598   1.064   7.050
 6750POPC   C4B45094  19.655   1.125   7.350
 6751POPC   NC345095  21.382   2.779   5.550
 6751POPC   PO445096  21.361   2.740   5.850
 6751POPC   GL145097  21.422   2.775   6.150
 6751POPC   GL245098  21.553   2.810   6.150
 6751POPC   C1A45099  21.384   2.758   6.450
 6751POPC   D2A45100  21.432   2.812   6.750
 6751POPC   C3A45101  21.427   2.794   7.050
 6751POPC   C4A45102  21.376   2.737   7.350
 6751POPC   C1B45103  21.685   2.747   6.450
 6751POPC   C2B45104  21.635   2.826   6.750
 6751POPC   C3B45105  21.679   2.799   7.050
 6751POPC   C4B45106  21.680   2.765   7.350
 6752POPC   NC345107  21.394  36.162   5.550
 6752POPC   PO445108  21.435  36.090   5.850
 6752POPC   GL145109  21.351  36.088   6.150
 6752POPC   GL245110  21.247  36.171   6.150
 6752POPC   C1A45111  21.353  36.117   6.450
 6752POPC   D2A45112  21.376  36.119   6.750
 6752POPC   C3A45113  21.371  36.108   7.050
 6752POPC   C4A45114  21.342  36.166   7.350
 6752POPC   C1B45115  21.230  36.238   6.450
 6752POPC   C2B45116  21.173  36.285   6.750
 6752POPC   C3B45117  21.141  36.249   7.050
 6752POPC   C4B45118  21.225  36.278   7.350
 6753POPC   NC345119  26.793  11.297   5.550
 6753POPC   PO445120  26.776  11.251   5.850
 6753POPC   GL145121  26.814  11.284   6.150
 6753POPC   GL245122  26.691  11.341   6.150
 6753POPC   C1A45123  26.768  11.254   6.450
 6753POPC   D2A45124  26.787  11.349   6.750
 6753POPC   C3A45125  26.864  11.306   7.050
 6753POPC   C4A45126  26.790  11.314   7.350
 6753POPC   C1B45127  26.576  11.400   6.450
 6753POPC   C2B45128  26.552  11.402   6.750
 6753POPC   C3B45129  26.635  11.436   7.050
 6753POPC   C4B45130  26.576  11.424   7.350
 6754POPC   NC345131  32.259  33.014   5.550
 6754POPC   PO445132  32.253  32.989   5.850
 6754POPC   GL145133  32.238  33.018   6.150
 6754POPC   GL245134  32.414  33.010   6.150
 6754POPC   C1A45135  32.224  33.062   6.450
 6754POPC   D2A45136  32.202  33.007   6.750
 6754POPC   C3A45137  32.297  33.028   7.050
 6754POPC   C4A45138  32.208  33.014   7.350
 6754POPC   C1B45139  32.521  32.933   6.450
 6754POPC   C2B45140  32.489  32.932   6.750
 6754POPC   C3B45141  32.470  32.959   7.050
 6754POPC   C4B45142  32.458  33.015   7.350
 6755POPC   NC345143  12.067  17.459   5.550
 6755POPC   PO445144  12.048  17.510   5.850
 6755POPC   GL145145  12.085  17.459   6.150
 6755POPC   GL245146  12.090  17.357   6.150
 6755POPC   C1A45147  12.054  17.458   6.450
 6755POPC   D2A45148  12.042  17.549   6.750
 6755POPC   C3A45149  12.079  17.469   7.050
 6755POPC   C4A45150  12.069  17.553   7.350
 6755POPC   C1B45151  12.084  17.263   6.450
 6755POPC   C2B45152  12.086  17.269   6.750
 6755POPC   C3B45153  12.014  17.291   7.050
 6755POPC   C4B45154  12.024  17.263   7.350
 6756POPC   NC345155  23.754  40.735   5.550
 6756POPC   PO445156  23.761  40.786   5.850
 6756POPC   GL145157  23.691  40.801   6.150
 6756POPC   GL245158  23.747  40.643   6.150
 6756POPC   C1A45159  23.729  40.739   6.450
 6756POPC   D2A45160  23.698  40.764   6.750
 6756POPC   C3A45161  23.731  40.783   7.050
 6756POPC   C4A45162  23.750  40.779   7.350
 6756POPC   C1B45163  23.853  40.557   6.450
 6756POPC   C2B45164  23.832  40.568   6.750
 6756POPC   C3B45165  23.843  40.617   7.050
 6756POPC   C4B45166  23.886  40.629   7.350
 6757POPC   NC345167  22.964  36.886   5.550
 6757POPC   PO445168  22.978  36.878   5.850
 6757POPC   GL145169  22.946  36.896   6.150
 6757POPC   GL245170  22.915  36.982   6.150
 6757POPC   C1A45171  22.900  36.876   6.450
 6757POPC   D2A45172  22.918  36.947   6.750
 6757POPC   C3A45173  22.982  36.868   7.050
 6757POPC   C4A45174  22.897  36.933   7.350
 6757POPC   C1B45175  22.919  37.201   6.450
 6757POPC   C2B45176  22.948  37.195   6.750
 6757POPC   C3B45177  22.898  37.141   7.050
 6757POPC   C4B45178  22.980  37.176   7.350
 6758POPC   NC345179  22.127   1.950   5.550
 6758POPC   PO445180  22.140   1.953   5.850
 6758POPC   GL145181  22.132   1.993   6.150
 6758POPC   GL245182  22.051   2.079   6.150
 6758POPC   C1A45183  22.133   2.010   6.450
 6758POPC   D2A45184  22.118   2.004   6.750
 6758POPC   C3A45185  22.118   1.950   7.050
 6758POPC   C4A45186  22.209   1.973   7.350
 6758POPC   C1B45187  21.949   2.148   6.450
 6758POPC   C2B45188  21.985   2.135   6.750
 6758POPC   C3B45189  22.007   2.174   7.050
 6758POPC   C4B45190  21.955   2.131   7.350
 6759POPC   NC345191  10.483  21.370   5.550
 6759POPC   PO445192  10.516  21.385   5.850
 6759POPC   GL145193  10.516  21.423   6.150
 6759POPC   GL245194  10.490  21.537   6.150
 6759POPC   C1A45195  10.533  21.394   6.450
 6759POPC   D2A45196  10.484  21.358   6.750
 6759POPC   C3A45197  10.523  21.412   7.050
 6759POPC   C4A45198  10.537  21.357   7.350
 6759POPC   C1B45199  10.351  21.634   6.450
 6759POPC   C2B45200  10.423  21.556   6.750
 6759POPC   C3B45201  10.387  21.566   7.050
 6759POPC   C4B45202  10.367  21.636   7.350
 6760POPC   NC345203  20.644   2.719   5.550
 6760POPC   PO445204  20.648   2.786   5.850
 6760POPC   GL145205  20.627   2.717   6.150
 6760POPC   GL245206  20.747   2.754   6.150
 6760POPC   C1A45207  20.660   2.762   6.450
 6760POPC   D2A45208  20.572   2.718   6.750
 6760POPC   C3A45209  20.616   2.798   7.050
 6760POPC   C4A45210  20.615   2.716   7.350
 6760POPC   C1B45211  20.864   2.832   6.450
 6760POPC   C2B45212  20.894   2.767   6.750
 6760POPC   C3B45213  20.815   2.784   7.050
 6760POPC   C4B45214  20.884   2.830   7.350
 6761POPC   NC345215  24.538  44.642   5.550
 6761POPC   PO445216  24.534  44.625   5.850
 6761POPC   GL145217  24.470  44.632   6.150
 6761POPC   GL245218  24.483  44.835   6.150
 6761POPC   C1A45219  24.456  44.675   6.450
 6761POPC   D2A45220  24.478  44.628   6.750
 6761POPC   C3A45221  24.505  44.708   7.050
 6761POPC   C4A45222  24.494  44.699   7.350
 6761POPC   C1B45223  24.537  44.903   6.450
 6761POPC   C2B45224  24.538  44.884   6.750
 6761POPC   C3B45225  24.535  44.892   7.050
 6761POPC   C4B45226  24.520  44.902   7.350
 6762POPC   NC345227  19.874  31.506   5.550
 6762POPC   PO445228  19.811  31.494   5.850
 6762POPC   GL145229  19.869  31.463   6.150
 6762POPC   GL245230  19.932  31.408   6.150
 6762POPC   C1A45231  19.880  31.512   6.450
 6762POPC   D2A45232  19.860  31.504   6.750
 6762POPC   C3A45233  19.841  31.475   7.050
 6762POPC   C4A45234  19.825  31.473   7.350
 6762POPC   C1B45235  20.084  31.338   6.450
 6762POPC   C2B45236  20.083  31.294   6.750
 6762POPC   C3B45237  20.047  31.318   7.050
 6762POPC   C4B45238  20.027  31.333   7.350
 6763POPC   NC345239  19.013  34.540   5.550
 6763POPC   PO445240  19.052  34.552   5.850
 6763POPC   GL145241  19.016  34.576   6.150
 6763POPC   GL245242  19.162  34.575   6.150
 6763POPC   C1A45243  19.077  34.585   6.450
 6763POPC   D2A45244  19.097  34.537   6.750
 6763POPC   C3A45245  19.009  34.572   7.050
 6763POPC   C4A45246  19.077  34.565   7.350
 6763POPC   C1B45247  19.324  34.504   6.450
 6763POPC   C2B45248  19.278  34.477   6.750
 6763POPC   C3B45249  19.254  34.530   7.050
 6763POPC   C4B45250  19.295  34.494   7.350
 6764POPC   NC345251   3.534  31.504   5.550
 6764POPC   PO445252   3.588  31.447   5.850
 6764POPC   GL145253   3.559  31.445   6.150
 6764POPC   GL245254   3.666  31.565   6.150
 6764POPC   C1A45255   3.503  31.461   6.450
 6764POPC   D2A45256   3.539  31.450   6.750
 6764POPC   C3A45257   3.566  31.434   7.050
 6764POPC   C4A45258   3.493  31.499   7.350
 6764POPC   C1B45259   3.787  31.527   6.450
 6764POPC   C2B45260   3.794  31.549   6.750
 6764POPC   C3B45261   3.815  31.577   7.050
 6764POPC   C4B45262   3.780  31.529   7.350
 6765POPC   NC345263   1.994  35.378   5.550
 6765POPC   PO445264   1.979  35.313   5.850
 6765POPC   GL145265   2.000  35.359   6.150
 6765POPC   GL245266   2.018  35.276   6.150
 6765POPC   C1A45267   2.030  35.395   6.450
 6765POPC   D2A45268   1.957  35.353   6.750
 6765POPC   C3A45269   1.966  35.382   7.050
 6765POPC   C4A45270   2.035  35.313   7.350
 6765POPC   C1B45271   2.036  35.096   6.450
 6765POPC   C2B45272   2.045  35.144   6.750
 6765POPC   C3B45273   2.090  35.110   7.050
 6765POPC   C4B45274   1.995  35.067   7.350
 6766POPC   NC345275  28.378  35.377   5.550
 6766POPC   PO445276  28.345  35.386   5.850
 6766POPC   GL145277  28.398  35.343   6.150
 6766POPC   GL245278  28.328  35.445   6.150
 6766POPC   C1A45279  28.418  35.339   6.450
 6766POPC   D2A45280  28.418  35.346   6.750
 6766POPC   C3A45281  28.330  35.374   7.050
 6766POPC   C4A45282  28.321  35.394   7.350
 6766POPC   C1B45283  28.271  35.586   6.450
 6766POPC   C2B45284  28.273  35.582   6.750
 6766POPC   C3B45285  28.259  35.549   7.050
 6766POPC   C4B45286  28.276  35.582   7.350
 6767POPC   NC345287  44.677  43.847   5.550
 6767POPC   PO445288  44.648  43.885   5.850
 6767POPC   GL145289  44.617  43.922   6.150
 6767POPC   GL245290  44.824  43.856   6.150
 6767POPC   C1A45291  44.650  43.926   6.450
 6767POPC   D2A45292  44.706  43.862   6.750
 6767POPC   C3A45293  44.633  43.851   7.050
 6767POPC   C4A45294  44.692  43.873   7.350
 6767POPC   C1B45295  44.879  43.889   6.450
 6767POPC   C2B45296  44.944  43.822   6.750
 6767POPC   C3B45297  44.883  43.827   7.050
 6767POPC   C4B45298  44.916  43.833   7.350
 6768POPC   NC345299  11.296   7.446   5.550
 6768POPC   PO445300  11.287   7.415   5.850
 6768POPC   GL145301  11.323   7.435   6.150
 6768POPC   GL245302  11.372   7.335   6.150
 6768POPC   C1A45303  11.348   7.461   6.450
 6768POPC   D2A45304  11.257   7.392   6.750
 6768POPC   C3A45305  11.339   7.378   7.050
 6768POPC   C4A45306  11.275   7.402   7.350
 6768POPC   C1B45307  11.399   7.158   6.450
 6768POPC   C2B45308  11.335   7.213   6.750
 6768POPC   C3B45309  11.313   7.202   7.050
 6768POPC   C4B45310  11.358   7.134   7.350
 6769POPC   NC345311  43.126  37.710   5.550
 6769POPC   PO445312  43.126  37.637   5.850
 6769POPC   GL145313  43.151  37.638   6.150
 6769POPC   GL245314  43.088  37.751   6.150
 6769POPC   C1A45315  43.152  37.658   6.450
 6769POPC   D2A45316  43.088  37.652   6.750
 6769POPC   C3A45317  43.126  37.634   7.050
 6769POPC   C4A45318  43.119  37.638   7.350
 6769POPC   C1B45319  42.963  37.941   6.450
 6769POPC   C2B45320  43.012  37.909   6.750
 6769POPC   C3B45321  43.017  37.871   7.050
 6769POPC   C4B45322  43.022  37.899   7.350
 6770POPC   NC345323   2.007  44.707   5.550
 6770POPC   PO445324   2.028  44.613   5.850
 6770POPC   GL145325   1.966  44.620   6.150
 6770POPC   GL245326   1.951  44.772   6.150
 6770POPC   C1A45327   1.992  44.708   6.450
 6770POPC   D2A45328   2.007  44.673   6.750
 6770POPC   C3A45329   2.012  44.688   7.050
 6770POPC   C4A45330   1.997  44.693   7.350
 6770POPC   C1B45331   1.859  44.837   6.450
 6770POPC   C2B45332   1.899  44.856   6.750
 6770POPC   C3B45333   1.889  44.884   7.050
 6770POPC   C4B45334   1.913  44.927   7.350
 6771POPC   NC345335  33.074  27.561   5.550
 6771POPC   PO445336  32.985  27.618   5.850
 6771POPC   GL145337  33.030  27.562   6.150
 6771POPC   GL245338  32.972  27.712   6.150
 6771POPC   C1A45339  32.989  27.624   6.450
 6771POPC   D2A45340  33.027  27.610   6.750
 6771POPC   C3A45341  33.038  27.547   7.050
 6771POPC   C4A45342  32.991  27.576   7.350
 6771POPC   C1B45343  32.898  27.749   6.450
 6771POPC   C2B45344  32.825  27.831   6.750
 6771POPC   C3B45345  32.903  27.832   7.050
 6771POPC   C4B45346  32.876  27.812   7.350
 6772POPC   NC345347   2.005  20.609   5.550
 6772POPC   PO445348   1.994  20.567   5.850
 6772POPC   GL145349   2.029  20.619   6.150
 6772POPC   GL245350   2.097  20.729   6.150
 6772POPC   C1A45351   1.997  20.659   6.450
 6772POPC   D2A45352   1.993  20.654   6.750
 6772POPC   C3A45353   2.006  20.634   7.050
 6772POPC   C4A45354   2.016  20.569   7.350
 6772POPC   C1B45355   2.176  20.738   6.450
 6772POPC   C2B45356   2.230  20.744   6.750
 6772POPC   C3B45357   2.239  20.732   7.050
 6772POPC   C4B45358   2.184  20.808   7.350
 6773POPC   NC345359  42.319  35.388   5.550
 6773POPC   PO445360  42.338  35.317   5.850
 6773POPC   GL145361  42.321  35.341   6.150
 6773POPC   GL245362  42.201  35.365   6.150
 6773POPC   C1A45363  42.307  35.369   6.450
 6773POPC   D2A45364  42.308  35.352   6.750
 6773POPC   C3A45365  42.369  35.397   7.050
 6773POPC   C4A45366  42.322  35.392   7.350
 6773POPC   C1B45367  42.112  35.349   6.450
 6773POPC   C2B45368  42.123  35.346   6.750
 6773POPC   C3B45369  42.047  35.348   7.050
 6773POPC   C4B45370  42.133  35.362   7.350
 6774POPC   NC345371   7.436  15.150   5.550
 6774POPC   PO445372   7.439  15.219   5.850
 6774POPC   GL145373   7.380  15.192   6.150
 6774POPC   GL245374   7.492  15.174   6.150
 6774POPC   C1A45375   7.422  15.164   6.450
 6774POPC   D2A45376   7.424  15.175   6.750
 6774POPC   C3A45377   7.373  15.143   7.050
 6774POPC   C4A45378   7.399  15.225   7.350
 6774POPC   C1B45379   7.647  15.084   6.450
 6774POPC   C2B45380   7.697  15.145   6.750
 6774POPC   C3B45381   7.666  15.117   7.050
 6774POPC   C4B45382   7.673  15.107   7.350
 6775POPC   NC345383  40.741  18.269   5.550
 6775POPC   PO445384  40.790  18.288   5.850
 6775POPC   GL145385  40.747  18.244   6.150
 6775POPC   GL245386  40.789  18.451   6.150
 6775POPC   C1A45387  40.825  18.274   6.450
 6775POPC   D2A45388  40.768  18.262   6.750
 6775POPC   C3A45389  40.747  18.247   7.050
 6775POPC   C4A45390  40.784  18.236   7.350
 6775POPC   C1B45391  40.759  18.502   6.450
 6775POPC   C2B45392  40.731  18.505   6.750
 6775POPC   C3B45393  40.789  18.544   7.050
 6775POPC   C4B45394  40.761  18.506   7.350
 6776POPC   NC345395  15.132  21.402   5.550
 6776POPC   PO445396  15.172  21.421   5.850
 6776POPC   GL145397  15.140  21.420   6.150
 6776POPC   GL245398  15.200  21.486   6.150
 6776POPC   C1A45399  15.221  21.391   6.450
 6776POPC   D2A45400  15.159  21.394   6.750
 6776POPC   C3A45401  15.175  21.356   7.050
 6776POPC   C4A45402  15.140  21.384   7.350
 6776POPC   C1B45403  15.082  21.645   6.450
 6776POPC   C2B45404  15.169  21.648   6.750
 6776POPC   C3B45405  15.090  21.587   7.050
 6776POPC   C4B45406  15.135  21.678   7.350
 6777POPC   NC345407  18.299  41.543   5.550
 6777POPC   PO445408  18.288  41.518   5.850
 6777POPC   GL145409  18.238  41.592   6.150
 6777POPC   GL245410  18.271  41.441   6.150
 6777POPC   C1A45411  18.250  41.571   6.450
 6777POPC   D2A45412  18.288  41.573   6.750
 6777POPC   C3A45413  18.286  41.549   7.050
 6777POPC   C4A45414  18.256  41.557   7.350
 6777POPC   C1B45415  18.290  41.326   6.450
 6777POPC   C2B45416  18.272  41.267   6.750
 6777POPC   C3B45417  18.268  41.301   7.050
 6777POPC   C4B45418  18.321  41.294   7.350
 6778POPC   NC345419   8.965  22.179   5.550
 6778POPC   PO445420   8.991  22.200   5.850
 6778POPC   GL145421   8.928  22.181   6.150
 6778POPC   GL245422   9.073  22.029   6.150
 6778POPC   C1A45423   8.937  22.164   6.450
 6778POPC   D2A45424   8.949  22.211   6.750
 6778POPC   C3A45425   8.994  22.130   7.050
 6778POPC   C4A45426   8.995  22.177   7.350
 6778POPC   C1B45427   9.057  21.907   6.450
 6778POPC   C2B45428   9.087  21.962   6.750
 6778POPC   C3B45429   9.074  21.937   7.050
 6778POPC   C4B45430   9.120  21.916   7.350
 6779POPC   NC345431   5.851  31.453   5.550
 6779POPC   PO445432   5.885  31.475   5.850
 6779POPC   GL145433   5.852  31.472   6.150
 6779POPC   GL245434   5.951  31.404   6.150
 6779POPC   C1A45435   5.829  31.476   6.450
 6779POPC   D2A45436   5.846  31.494   6.750
 6779POPC   C3A45437   5.892  31.519   7.050
 6779POPC   C4A45438   5.837  31.431   7.350
 6779POPC   C1B45439   6.045  31.324   6.450
 6779POPC   C2B45440   6.121  31.346   6.750
 6779POPC   C3B45441   6.107  31.301   7.050
 6779POPC   C4B45442   6.098  31.287   7.350
 6780POPC   NC345443  35.394   4.331   5.550
 6780POPC   PO445444  35.380   4.362   5.850
 6780POPC   GL145445  35.355   4.297   6.150
 6780POPC   GL245446  35.202   4.205   6.150
 6780POPC   C1A45447  35.319   4.354   6.450
 6780POPC   D2A45448  35.369   4.271   6.750
 6780POPC   C3A45449  35.397   4.323   7.050
 6780POPC   C4A45450  35.310   4.299   7.350
 6780POPC   C1B45451  35.183   4.210   6.450
 6780POPC   C2B45452  35.160   4.190   6.750
 6780POPC   C3B45453  35.137   4.188   7.050
 6780POPC   C4B45454  35.198   4.170   7.350
 6781POPC   NC345455   4.280  21.433   5.550
 6781POPC   PO445456   4.315  21.401   5.850
 6781POPC   GL145457   4.356  21.432   6.150
 6781POPC   GL245458   4.265  21.468   6.150
 6781POPC   C1A45459   4.341  21.342   6.450
 6781POPC   D2A45460   4.345  21.349   6.750
 6781POPC   C3A45461   4.285  21.340   7.050
 6781POPC   C4A45462   4.321  21.403   7.350
 6781POPC   C1B45463   4.119  21.608   6.450
 6781POPC   C2B45464   4.162  21.547   6.750
 6781POPC   C3B45465   4.159  21.517   7.050
 6781POPC   C4B45466   4.187  21.605   7.350
 6782POPC   NC345467  22.202  10.510   5.550
 6782POPC   PO445468  22.146  10.513   5.850
 6782POPC   GL145469  22.209  10.496   6.150
 6782POPC   GL245470  22.156  10.417   6.150
 6782POPC   C1A45471  22.198  10.547   6.450
 6782POPC   D2A45472  22.192  10.509   6.750
 6782POPC   C3A45473  22.134  10.574   7.050
 6782POPC   C4A45474  22.119  10.556   7.350
 6782POPC   C1B45475  22.207  10.257   6.450
 6782POPC   C2B45476  22.193  10.314   6.750
 6782POPC   C3B45477  22.173  10.306   7.050
 6782POPC   C4B45478  22.155  10.300   7.350
 6783POPC   NC345479  42.306  28.410   5.550
 6783POPC   PO445480  42.337  28.381   5.850
 6783POPC   GL145481  42.368  28.331   6.150
 6783POPC   GL245482  42.280  28.267   6.150
 6783POPC   C1A45483  42.359  28.372   6.450
 6783POPC   D2A45484  42.383  28.362   6.750
 6783POPC   C3A45485  42.369  28.320   7.050
 6783POPC   C4A45486  42.381  28.328   7.350
 6783POPC   C1B45487  42.284  28.084   6.450
 6783POPC   C2B45488  42.295  28.167   6.750
 6783POPC   C3B45489  42.272  28.129   7.050
 6783POPC   C4B45490  42.359  28.165   7.350
 6784POPC   NC345491  12.051  11.327   5.550
 6784POPC   PO445492  12.074  11.299   5.850
 6784POPC   GL145493  12.058  11.292   6.150
 6784POPC   GL245494  11.943  11.392   6.150
 6784POPC   C1A45495  12.064  11.282   6.450
 6784POPC   D2A45496  12.122  11.341   6.750
 6784POPC   C3A45497  12.074  11.331   7.050
 6784POPC   C4A45498  12.110  11.318   7.350
 6784POPC   C1B45499  11.833  11.432   6.450
 6784POPC   C2B45500  11.883  11.427   6.750
 6784POPC   C3B45501  11.912  11.423   7.050
 6784POPC   C4B45502  11.910  11.479   7.350
 6785POPC   NC345503  29.929  36.869   5.550
 6785POPC   PO445504  29.881  36.878   5.850
 6785POPC   GL145505  29.955  36.887   6.150
 6785POPC   GL245506  30.083  36.905   6.150
 6785POPC   C1A45507  29.903  36.916   6.450
 6785POPC   D2A45508  29.906  36.922   6.750
 6785POPC   C3A45509  29.923  36.889   7.050
 6785POPC   C4A45510  29.962  36.946   7.350
 6785POPC   C1B45511  30.174  36.796   6.450
 6785POPC   C2B45512  30.144  36.816   6.750
 6785POPC   C3B45513  30.192  36.872   7.050
 6785POPC   C4B45514  30.183  36.866   7.350
 6786POPC   NC345515  35.392  15.173   5.550
 6786POPC   PO445516  35.347  15.201   5.850
 6786POPC   GL145517  35.354  15.197   6.150
 6786POPC   GL245518  35.426  15.299   6.150
 6786POPC   C1A45519  35.346  15.176   6.450
 6786POPC   D2A45520  35.362  15.213   6.750
 6786POPC   C3A45521  35.366  15.131   7.050
 6786POPC   C4A45522  35.392  15.170   7.350
 6786POPC   C1B45523  35.490  15.336   6.450
 6786POPC   C2B45524  35.545  15.335   6.750
 6786POPC   C3B45525  35.508  15.364   7.050
 6786POPC   C4B45526  35.533  15.313   7.350
 6787POPC   NC345527  12.049  34.532   5.550
 6787POPC   PO445528  12.115  34.551   5.850
 6787POPC   GL145529  12.040  34.550   6.150
 6787POPC   GL245530  11.945  34.558   6.150
 6787POPC   C1A45531  12.115  34.573   6.450
 6787POPC   D2A45532  12.042  34.624   6.750
 6787POPC   C3A45533  12.064  34.556   7.050
 6787POPC   C4A45534  12.042  34.604   7.350
 6787POPC   C1B45535  11.834  34.668   6.450
 6787POPC   C2B45536  11.849  34.580   6.750
 6787POPC   C3B45537  11.850  34.609   7.050
 6787POPC   C4B45538  11.853  34.673   7.350
 6788POPC   NC345539   2.034   8.149   5.550
 6788POPC   PO445540   1.998   8.147   5.850
 6788POPC   GL145541   1.990   8.220   6.150
 6788POPC   GL245542   1.986   8.080   6.150
 6788POPC   C1A45543   1.989   8.245   6.450
 6788POPC   D2A45544   1.951   8.162   6.750
 6788POPC   C3A45545   1.970   8.231   7.050
 6788POPC   C4A45546   1.997   8.180   7.350
 6788POPC   C1B45547   1.898   7.954   6.450
 6788POPC   C2B45548   1.957   7.952   6.750
 6788POPC   C3B45549   1.876   7.970   7.050
 6788POPC   C4B45550   1.951   7.922   7.350
 6789POPC   NC345551  22.931  11.289   5.550
 6789POPC   PO445552  22.897  11.256   5.850
 6789POPC   GL145553  22.983  11.276   6.150
 6789POPC   GL245554  22.852  11.266   6.150
 6789POPC   C1A45555  22.964  11.254   6.450
 6789POPC   D2A45556  22.981  11.321   6.750
 6789POPC   C3A45557  22.988  11.273   7.050
 6789POPC   C4A45558  22.947  11.336   7.350
 6789POPC   C1B45559  22.736  11.168   6.450
 6789POPC   C2B45560  22.696  11.184   6.750
 6789POPC   C3B45561  22.701  11.174   7.050
 6789POPC   C4B45562  22.666  11.206   7.350
 6790POPC   NC345563  43.118   2.025   5.550
 6790POPC   PO445564  43.090   1.946   5.850
 6790POPC   GL145565  43.129   2.031   6.150
 6790POPC   GL245566  43.068   2.086   6.150
 6790POPC   C1A45567  43.146   2.001   6.450
 6790POPC   D2A45568  43.068   1.992   6.750
 6790POPC   C3A45569  43.102   1.972   7.050
 6790POPC   C4A45570  43.129   1.974   7.350
 6790POPC   C1B45571  42.958   2.173   6.450
 6790POPC   C2B45572  43.002   2.200   6.750
 6790POPC   C3B45573  42.986   2.221   7.050
 6790POPC   C4B45574  42.973   2.212   7.350
 6791POPC   NC345575   3.528  22.197   5.550
 6791POPC   PO445576   3.564  22.179   5.850
 6791POPC   GL145577   3.561  22.207   6.150
 6791POPC   GL245578   3.614  22.099   6.150
 6791POPC   C1A45579   3.522  22.153   6.450
 6791POPC   D2A45580   3.511  22.114   6.750
 6791POPC   C3A45581   3.530  22.133   7.050
 6791POPC   C4A45582   3.550  22.155   7.350
 6791POPC   C1B45583   3.753  22.077   6.450
 6791POPC   C2B45584   3.745  22.086   6.750
 6791POPC   C3B45585   3.742  22.021   7.050
 6791POPC   C4B45586   3.756  22.028   7.350
 6792POPC   NC345587  31.515  43.839   5.550
 6792POPC   PO445588  31.427  43.881   5.850
 6792POPC   GL145589  31.507  43.860   6.150
 6792POPC   GL245590  31.500  44.055   6.150
 6792POPC   C1A45591  31.484  43.842   6.450
 6792POPC   D2A45592  31.473  43.873   6.750
 6792POPC   C3A45593  31.471  43.851   7.050
 6792POPC   C4A45594  31.464  43.877   7.350
 6792POPC   C1B45595  31.522  44.104   6.450
 6792POPC   C2B45596  31.491  44.159   6.750
 6792POPC   C3B45597  31.520  44.136   7.050
 6792POPC   C4B45598  31.528  44.165   7.350
 6793POPC   NC345599  40.029  15.980   5.550
 6793POPC   PO445600  40.018  15.986   5.850
 6793POPC   GL145601  39.981  15.963   6.150
 6793POPC   GL245602  39.897  15.853   6.150
 6793POPC   C1A45603  39.993  16.002   6.450
 6793POPC   D2A45604  40.056  15.957   6.750
 6793POPC   C3A45605  39.969  15.929   7.050
 6793POPC   C4A45606  40.033  15.942   7.350
 6793POPC   C1B45607  39.752  15.848   6.450
 6793POPC   C2B45608  39.826  15.868   6.750
 6793POPC   C3B45609  39.816  15.843   7.050
 6793POPC   C4B45610  39.774  15.830   7.350
 6794POPC   NC345611  30.703  16.696   5.550
 6794POPC   PO445612  30.688  16.696   5.850
 6794POPC   GL145613  30.663  16.698   6.150
 6794POPC   GL245614  30.769  16.615   6.150
 6794POPC   C1A45615  30.706  16.714   6.450
 6794POPC   D2A45616  30.737  16.722   6.750
 6794POPC   C3A45617  30.701  16.705   7.050
 6794POPC   C4A45618  30.707  16.725   7.350
 6794POPC   C1B45619  30.760  16.529   6.450
 6794POPC   C2B45620  30.834  16.496   6.750
 6794POPC   C3B45621  30.848  16.539   7.050
 6794POPC   C4B45622  30.761  16.481   7.350
 6795POPC   NC345623  26.826  36.088   5.550
 6795POPC   PO445624  26.857  36.110   5.850
 6795POPC   GL145625  26.808  36.119   6.150
 6795POPC   GL245626  26.759  36.228   6.150
 6795POPC   C1A45627  26.778  36.087   6.450
 6795POPC   D2A45628  26.813  36.163   6.750
 6795POPC   C3A45629  26.832  36.120   7.050
 6795POPC   C4A45630  26.783  36.153   7.350
 6795POPC   C1B45631  26.779  36.352   6.450
 6795POPC   C2B45632  26.704  36.361   6.750
 6795POPC   C3B45633  26.707  36.413   7.050
 6795POPC   C4B45634  26.749  36.334   7.350
 6796POPC   NC345635  35.308   5.058   5.550
 6796POPC   PO445636  35.344   5.113   5.850
 6796POPC   GL145637  35.327   5.084   6.150
 6796POPC   GL245638  35.274   5.094   6.150
 6796POPC   C1A45639  35.325   5.122   6.450
 6796POPC   D2A45640  35.385   5.053   6.750
 6796POPC   C3A45641  35.367   5.055   7.050
 6796POPC   C4A45642  35.338   5.136   7.350
 6796POPC   C1B45643  35.097   5.072   6.450
 6796POPC   C2B45644  35.089   5.113   6.750
 6796POPC   C3B45645  35.139   5.049   7.050
 6796POPC   C4B45646  35.151   5.094   7.350
 6797POPC   NC345647  15.227  15.166   5.550
 6797POPC   PO445648  15.184  15.208   5.850
 6797POPC   GL145649  15.217  15.229   6.150
 6797POPC   GL245650  15.188  15.282   6.150
 6797POPC   C1A45651  15.187  15.215   6.450
 6797POPC   D2A45652  15.226  15.151   6.750
 6797POPC   C3A45653  15.163  15.207   7.050
 6797POPC   C4A45654  15.164  15.185   7.350
 6797POPC   C1B45655  15.226  15.474   6.450
 6797POPC   C2B45656  15.258  15.420   6.750
 6797POPC   C3B45657  15.222  15.443   7.050
 6797POPC   C4B45658  15.254  15.378   7.350
 6798POPC   NC345659   8.232  33.831   5.550
 6798POPC   PO445660   8.153  33.824   5.850
 6798POPC   GL145661   8.241  33.777   6.150
 6798POPC   GL245662   8.200  33.721   6.150
 6798POPC   C1A45663   8.174  33.789   6.450
 6798POPC   D2A45664   8.225  33.827   6.750
 6798POPC   C3A45665   8.201  33.844   7.050
 6798POPC   C4A45666   8.196  33.758   7.350
 6798POPC   C1B45667   8.151  33.598   6.450
 6798POPC   C2B45668   8.153  33.518   6.750
 6798POPC   C3B45669   8.134  33.573   7.050
 6798POPC   C4B45670   8.142  33.568   7.350
 6799POPC   NC345671  30.733  35.303   5.550
 6799POPC   PO445672  30.745  35.332   5.850
 6799POPC   GL145673  30.719  35.368   6.150
 6799POPC   GL245674  30.798  35.419   6.150
 6799POPC   C1A45675  30.664  35.328   6.450
 6799POPC   D2A45676  30.710  35.375   6.750
 6799POPC   C3A45677  30.672  35.391   7.050
 6799POPC   C4A45678  30.679  35.345   7.350
 6799POPC   C1B45679  30.872  35.520   6.450
 6799POPC   C2B45680  30.902  35.520   6.750
 6799POPC   C3B45681  30.900  35.465   7.050
 6799POPC   C4B45682  30.846  35.543   7.350
 6800POPC   NC345683   5.109  44.629   5.550
 6800POPC   PO445684   5.130  44.687   5.850
 6800POPC   GL145685   5.104  44.629   6.150
 6800POPC   GL245686   5.180  44.810   6.150
 6800POPC   C1A45687   5.128  44.633   6.450
 6800POPC   D2A45688   5.045  44.701   6.750
 6800POPC   C3A45689   5.096  44.659   7.050
 6800POPC   C4A45690   5.091  44.653   7.350
 6800POPC   C1B45691   5.188  44.924   6.450
 6800POPC   C2B45692   5.222  44.923   6.750
 6800POPC   C3B45693   5.134  44.860   7.050
 6800POPC   C4B45694   5.145  44.867   7.350
 6801POPC   NC345695  26.073   2.023   5.550
 6801POPC   PO445696  26.014   1.979   5.850
 6801POPC   GL145697  26.068   2.020   6.150
 6801POPC   GL245698  25.989   2.127   6.150
 6801POPC   C1A45699  26.021   1.980   6.450
 6801POPC   D2A45700  26.000   2.037   6.750
 6801POPC   C3A45701  26.026   2.039   7.050
 6801POPC   C4A45702  26.055   2.019   7.350
 6801POPC   C1B45703  25.982   2.249   6.450
 6801POPC   C2B45704  25.930   2.257   6.750
 6801POPC   C3B45705  25.948   2.233   7.050
 6801POPC   C4B45706  25.946   2.254   7.350
 6802POPC   NC345707  28.396  26.023   5.550
 6802POPC   PO445708  28.373  26.067   5.850
 6802POPC   GL145709  28.370  26.037   6.150
 6802POPC   GL245710  28.279  26.120   6.150
 6802POPC   C1A45711  28.389  26.016   6.450
 6802POPC   D2A45712  28.413  26.067   6.750
 6802POPC   C3A45713  28.417  26.034   7.050
 6802POPC   C4A45714  28.387  26.053   7.350
 6802POPC   C1B45715  28.112  26.210   6.450
 6802POPC   C2B45716  28.129  26.158   6.750
 6802POPC   C3B45717  28.176  26.161   7.050
 6802POPC   C4B45718  28.131  26.182   7.350
 6803POPC   NC345719  39.220  19.849   5.550
 6803POPC   PO445720  39.237  19.850   5.850
 6803POPC   GL145721  39.270  19.785   6.150
 6803POPC   GL245722  39.143  19.943   6.150
 6803POPC   C1A45723  39.198  19.836   6.450
 6803POPC   D2A45724  39.278  19.792   6.750
 6803POPC   C3A45725  39.277  19.839   7.050
 6803POPC   C4A45726  39.199  19.845   7.350
 6803POPC   C1B45727  39.019  20.015   6.450
 6803POPC   C2B45728  39.043  19.979   6.750
 6803POPC   C3B45729  39.071  20.022   7.050
 6803POPC   C4B45730  39.057  19.950   7.350
 6804POPC   NC345731  44.664  36.855   5.550
 6804POPC   PO445732  44.616  36.920   5.850
 6804POPC   GL145733  44.676  36.912   6.150
 6804POPC   GL245734  44.772  36.796   6.150
 6804POPC   C1A45735  44.667  36.858   6.450
 6804POPC   D2A45736  44.617  36.857   6.750
 6804POPC   C3A45737  44.669  36.901   7.050
 6804POPC   C4A45738  44.676  36.936   7.350
 6804POPC   C1B45739  44.791  36.704   6.450
 6804POPC   C2B45740  44.809  36.674   6.750
 6804POPC   C3B45741  44.854  36.712   7.050
 6804POPC   C4B45742  44.838  36.725   7.350
 6805POPC   NC345743  42.378  39.231   5.550
 6805POPC   PO445744  42.373  39.256   5.850
 6805POPC   GL145745  42.320  39.255   6.150
 6805POPC   GL245746  42.402  39.335   6.150
 6805POPC   C1A45747  42.354  39.261   6.450
 6805POPC   D2A45748  42.364  39.200   6.750
 6805POPC   C3A45749  42.288  39.235   7.050
 6805POPC   C4A45750  42.317  39.229   7.350
 6805POPC   C1B45751  42.561  39.325   6.450
 6805POPC   C2B45752  42.557  39.368   6.750
 6805POPC   C3B45753  42.492  39.370   7.050
 6805POPC   C4B45754  42.552  39.345   7.350
 6806POPC   NC345755  19.831  19.831   5.550
 6806POPC   PO445756  19.839  19.802   5.850
 6806POPC   GL145757  19.872  19.829   6.150
 6806POPC   GL245758  19.856  19.983   6.150
 6806POPC   C1A45759  19.845  19.883   6.450
 6806POPC   D2A45760  19.829  19.807   6.750
 6806POPC   C3A45761  19.809  19.822   7.050
 6806POPC   C4A45762  19.799  19.803   7.350
 6806POPC   C1B45763  19.832  20.072   6.450
 6806POPC   C2B45764  19.860  20.085   6.750
 6806POPC   C3B45765  19.797  20.048   7.050
 6806POPC   C4B45766  19.808  20.122   7.350
 6807POPC   NC345767  16.725  34.576   5.550
 6807POPC   PO445768  16.703  34.621   5.850
 6807POPC   GL145769  16.707  34.624   6.150
 6807POPC   GL245770  16.810  34.452   6.150
 6807POPC   C1A45771  16.708  34.615   6.450
 6807POPC   D2A45772  16.770  34.559   6.750
 6807POPC   C3A45773  16.728  34.604   7.050
 6807POPC   C4A45774  16.728  34.575   7.350
 6807POPC   C1B45775  16.904  34.361   6.450
 6807POPC   C2B45776  16.888  34.421   6.750
 6807POPC   C3B45777  16.951  34.366   7.050
 6807POPC   C4B45778  16.924  34.405   7.350
 6808POPC   NC345779  39.959  41.558   5.550
 6808POPC   PO445780  40.007  41.605   5.850
 6808POPC   GL145781  39.982  41.564   6.150
 6808POPC   GL245782  40.126  41.644   6.150
 6808POPC   C1A45783  40.049  41.540   6.450
 6808POPC   D2A45784  40.004  41.563   6.750
 6808POPC   C3A45785  39.958  41.590   7.050
 6808POPC   C4A45786  40.012  41.568   7.350
 6808POPC   C1B45787  40.237  41.621   6.450
 6808POPC   C2B45788  40.294  41.618   6.750
 6808POPC   C3B45789  40.273  41.654   7.050
 6808POPC   C4B45790  40.207  41.603   7.350
 6809POPC   NC345791  36.883  21.397   5.550
 6809POPC   PO445792  36.876  21.404   5.850
 6809POPC   GL145793  36.868  21.343   6.150
 6809POPC   GL245794  36.840  21.338   6.150
 6809POPC   C1A45795  36.944  21.362   6.450
 6809POPC   D2A45796  36.881  21.385   6.750
 6809POPC   C3A45797  36.930  21.408   7.050
 6809POPC   C4A45798  36.854  21.374   7.350
 6809POPC   C1B45799  36.668  21.273   6.450
 6809POPC   C2B45800  36.723  21.302   6.750
 6809POPC   C3B45801  36.639  21.241   7.050
 6809POPC   C4B45802  36.706  21.245   7.350
 6810POPC   NC345803  27.578  40.005   5.550
 6810POPC   PO445804  27.614  40.047   5.850
 6810POPC   GL145805  27.563  40.035   6.150
 6810POPC   GL245806  27.512  39.954   6.150
 6810POPC   C1A45807  27.604  40.015   6.450
 6810POPC   D2A45808  27.640  39.972   6.750
 6810POPC   C3A45809  27.590  40.055   7.050
 6810POPC   C4A45810  27.566  39.985   7.350
 6810POPC   C1B45811  27.354  39.921   6.450
 6810POPC   C2B45812  27.400  39.892   6.750
 6810POPC   C3B45813  27.359  39.903   7.050
 6810POPC   C4B45814  27.304  39.965   7.350
 6811POPC   NC345815  41.522  25.259   5.550
 6811POPC   PO445816  41.604  25.256   5.850
 6811POPC   GL145817  41.546  25.278   6.150
 6811POPC   GL245818  41.573  25.337   6.150
 6811POPC   C1A45819  41.544  25.222   6.450
 6811POPC   D2A45820  41.536  25.263   6.750
 6811POPC   C3A45821  41.585  25.249   7.050
 6811POPC   C4A45822  41.562  25.282   7.350
 6811POPC   C1B45823  41.619  25.492   6.450
 6811POPC   C2B45824  41.678  25.510   6.750
 6811POPC   C3B45825  41.627  25.545   7.050
 6811POPC   C4B45826  41.646  25.554   7.350
 6812POPC   NC345827  36.946  19.860   5.550
 6812POPC   PO445828  36.924  19.851   5.850
 6812POPC   GL145829  36.866  19.874   6.150
 6812POPC   GL245830  36.828  19.747   6.150
 6812POPC   C1A45831  36.915  19.799   6.450
 6812POPC   D2A45832  36.898  19.839   6.750
 6812POPC   C3A45833  36.939  19.866   7.050
 6812POPC   C4A45834  36.901  19.821   7.350
 6812POPC   C1B45835  36.836  19.577   6.450
 6812POPC   C2B45836  36.799  19.591   6.750
 6812POPC   C3B45837  36.793  19.608   7.050
 6812POPC   C4B45838  36.804  19.565   7.350
 6813POPC   NC345839   7.401  40.820   5.550
 6813POPC   PO445840   7.389  40.779   5.850
 6813POPC   GL145841   7.441  40.766   6.150
 6813POPC   GL245842   7.316  40.784   6.150
 6813POPC   C1A45843   7.432  40.817   6.450
 6813POPC   D2A45844   7.441  40.768   6.750
 6813POPC   C3A45845   7.433  40.799   7.050
 6813POPC   C4A45846   7.394  40.738   7.350
 6813POPC   C1B45847   7.182  40.820   6.450
 6813POPC   C2B45848   7.199  40.775   6.750
 6813POPC   C3B45849   7.138  40.814   7.050
 6813POPC   C4B45850   7.134  40.862   7.350
 6814POPC   NC345851   3.545  12.809   5.550
 6814POPC   PO445852   3.546  12.875   5.850
 6814POPC   GL145853   3.518  12.882   6.150
 6814POPC   GL245854   3.498  12.974   6.150
 6814POPC   C1A45855   3.501  12.842   6.450
 6814POPC   D2A45856   3.515  12.806   6.750
 6814POPC   C3A45857   3.554  12.876   7.050
 6814POPC   C4A45858   3.531  12.815   7.350
 6814POPC   C1B45859   3.558  13.132   6.450
 6814POPC   C2B45860   3.596  13.095   6.750
 6814POPC   C3B45861   3.513  13.144   7.050
 6814POPC   C4B45862   3.529  13.105   7.350
 6815POPC   NC345863  39.979  22.136   5.550
 6815POPC   PO445864  40.002  22.191   5.850
 6815POPC   GL145865  39.959  22.186   6.150
 6815POPC   GL245866  40.090  22.023   6.150
 6815POPC   C1A45867  40.013  22.179   6.450
 6815POPC   D2A45868  40.014  22.135   6.750
 6815POPC   C3A45869  40.014  22.121   7.050
 6815POPC   C4A45870  40.039  22.151   7.350
 6815POPC   C1B45871  40.169  21.977   6.450
 6815POPC   C2B45872  40.103  21.990   6.750
 6815POPC   C3B45873  40.148  22.001   7.050
 6815POPC   C4B45874  40.146  21.912   7.350
 6816POPC   NC345875   2.744  38.431   5.550
 6816POPC   PO445876   2.780  38.486   5.850
 6816POPC   GL145877   2.761  38.488   6.150
 6816POPC   GL245878   2.645  38.518   6.150
 6816POPC   C1A45879   2.725  38.486   6.450
 6816POPC   D2A45880   2.798  38.468   6.750
 6816POPC   C3A45881   2.793  38.415   7.050
 6816POPC   C4A45882   2.795  38.477   7.350
 6816POPC   C1B45883   2.525  38.524   6.450
 6816POPC   C2B45884   2.560  38.537   6.750
 6816POPC   C3B45885   2.495  38.525   7.050
 6816POPC   C4B45886   2.556  38.565   7.350
 6817POPC   NC345887  34.562  43.846   5.550
 6817POPC   PO445888  34.582  43.852   5.850
 6817POPC   GL145889  34.616  43.858   6.150
 6817POPC   GL245890  34.484  43.816   6.150
 6817POPC   C1A45891  34.599  43.921   6.450
 6817POPC   D2A45892  34.561  43.859   6.750
 6817POPC   C3A45893  34.573  43.846   7.050
 6817POPC   C4A45894  34.542  43.925   7.350
 6817POPC   C1B45895  34.408  43.745   6.450
 6817POPC   C2B45896  34.409  43.753   6.750
 6817POPC   C3B45897  34.430  43.708   7.050
 6817POPC   C4B45898  34.420  43.754   7.350
 6818POPC   NC345899  32.994  38.431   5.550
 6818POPC   PO445900  32.992  38.434   5.850
 6818POPC   GL145901  33.000  38.462   6.150
 6818POPC   GL245902  33.049  38.369   6.150
 6818POPC   C1A45903  33.014  38.410   6.450
 6818POPC   D2A45904  32.999  38.422   6.750
 6818POPC   C3A45905  33.058  38.455   7.050
 6818POPC   C4A45906  33.041  38.448   7.350
 6818POPC   C1B45907  32.926  38.191   6.450
 6818POPC   C2B45908  32.946  38.165   6.750
 6818POPC   C3B45909  32.952  38.205   7.050
 6818POPC   C4B45910  32.965  38.216   7.350
 6819POPC   NC345911  43.121   4.350   5.550
 6819POPC   PO445912  43.065   4.329   5.850
 6819POPC   GL145913  43.119   4.273   6.150
 6819POPC   GL245914  43.081   4.448   6.150
 6819POPC   C1A45915  43.110   4.344   6.450
 6819POPC   D2A45916  43.081   4.336   6.750
 6819POPC   C3A45917  43.125   4.334   7.050
 6819POPC   C4A45918  43.144   4.304   7.350
 6819POPC   C1B45919  43.124   4.558   6.450
 6819POPC   C2B45920  43.078   4.604   6.750
 6819POPC   C3B45921  43.080   4.573   7.050
 6819POPC   C4B45922  43.081   4.532   7.350
 6820POPC   NC345923  43.072  12.116   5.550
 6820POPC   PO445924  43.113  12.097   5.850
 6820POPC   GL145925  43.071  12.027   6.150
 6820POPC   GL245926  43.182  12.124   6.150
 6820POPC   C1A45927  43.078  12.052   6.450
 6820POPC   D2A45928  43.150  12.045   6.750
 6820POPC   C3A45929  43.062  12.114   7.050
 6820POPC   C4A45930  43.078  12.068   7.350
 6820POPC   C1B45931  43.298  12.277   6.450
 6820POPC   C2B45932  43.273  12.238   6.750
 6820POPC   C3B45933  43.256  12.194   7.050
 6820POPC   C4B45934  43.317  12.216   7.350
 6821POPC   NC345935  11.311  15.194   5.550
 6821POPC   PO445936  11.293  15.228   5.850
 6821POPC   GL145937  11.298  15.156   6.150
 6821POPC   GL245938  11.395  15.231   6.150
 6821POPC   C1A45939  11.281  15.157   6.450
 6821POPC   D2A45940  11.345  15.176   6.750
 6821POPC   C3A45941  11.254  15.175   7.050
 6821POPC   C4A45942  11.288  15.192   7.350
 6821POPC   C1B45943  11.454  15.323   6.450
 6821POPC   C2B45944  11.488  15.359   6.750
 6821POPC   C3B45945  11.459  15.342   7.050
 6821POPC   C4B45946  11.523  15.312   7.350
 6822POPC   NC345947   9.010  37.669   5.550
 6822POPC   PO445948   8.959  37.642   5.850
 6822POPC   GL145949   8.925  37.642   6.150
 6822POPC   GL245950   8.812  37.674   6.150
 6822POPC   C1A45951   8.986  37.635   6.450
 6822POPC   D2A45952   8.999  37.728   6.750
 6822POPC   C3A45953   8.985  37.727   7.050
 6822POPC   C4A45954   8.981  37.713   7.350
 6822POPC   C1B45955   8.719  37.735   6.450
 6822POPC   C2B45956   8.692  37.752   6.750
 6822POPC   C3B45957   8.758  37.781   7.050
 6822POPC   C4B45958   8.737  37.762   7.350
 6823POPC   NC345959  34.622  19.018   5.550
 6823POPC   PO445960  34.538  19.052   5.850
 6823POPC   GL145961  34.546  19.075   6.150
 6823POPC   GL245962  34.499  19.141   6.150
 6823POPC   C1A45963  34.604  19.027   6.450
 6823POPC   D2A45964  34.585  19.024   6.750
 6823POPC   C3A45965  34.607  19.063   7.050
 6823POPC   C4A45966  34.590  19.082   7.350
 6823POPC   C1B45967  34.427  19.221   6.450
 6823POPC   C2B45968  34.364  19.235   6.750
 6823POPC   C3B45969  34.398  19.231   7.050
 6823POPC   C4B45970  34.383  19.265   7.350
 6824POPC   NC345971  31.446  36.122   5.550
 6824POPC   PO445972  31.481  36.127   5.850
 6824POPC   GL145973  31.462  36.123   6.150
 6824POPC   GL245974  31.607  36.058   6.150
 6824POPC   C1A45975  31.515  36.125   6.450
 6824POPC   D2A45976  31.498  36.100   6.750
 6824POPC   C3A45977  31.452  36.079   7.050
 6824POPC   C4A45978  31.428  36.173   7.350
 6824POPC   C1B45979  31.721  36.013   6.450
 6824POPC   C2B45980  31.749  36.034   6.750
 6824POPC   C3B45981  31.751  36.022   7.050
 6824POPC   C4B45982  31.683  36.065   7.350
 6825POPC   NC345983  22.136  43.136   5.550
 6825POPC   PO445984  22.205  43.062   5.850
 6825POPC   GL145985  22.208  43.118   6.150
 6825POPC   GL245986  22.066  43.162   6.150
 6825POPC   C1A45987  22.167  43.154   6.450
 6825POPC   D2A45988  22.124  43.117   6.750
 6825POPC   C3A45989  22.160  43.082   7.050
 6825POPC   C4A45990  22.148  43.094   7.350
 6825POPC   C1B45991  21.922  43.162   6.450
 6825POPC   C2B45992  21.936  43.129   6.750
 6825POPC   C3B45993  21.905  43.209   7.050
 6825POPC   C4B45994  21.900  43.195   7.350
 6826POPC   NC345995  34.545  26.854   5.550
 6826POPC   PO445996  34.557  26.845   5.850
 6826POPC   GL145997  34.610  26.805   6.150
 6826POPC   GL245998  34.538  26.716   6.150
 6826POPC   C1A45999  34.616  26.856   6.450
 6826POPC   D2A46000  34.596  26.791   6.750
 6826POPC   C3A46001  34.539  26.856   7.050
 6826POPC   C4A46002  34.613  26.809   7.350
 6826POPC   C1B46003  34.524  26.569   6.450
 6826POPC   C2B46004  34.465  26.541   6.750
 6826POPC   C3B46005  34.552  26.539   7.050
 6826POPC   C4B46006  34.516  26.569   7.350
 6827POPC   NC346007   1.174  43.871   5.550
 6827POPC   PO446008   1.168  43.873   5.850
 6827POPC   GL146009   1.180  43.920   6.150
 6827POPC   GL246010   1.316  43.824   6.150
 6827POPC   C1A46011   1.209  43.861   6.450
 6827POPC   D2A46012   1.189  43.917   6.750
 6827POPC   C3A46013   1.256  43.920   7.050
 6827POPC   C4A46014   1.220  43.915   7.350
 6827POPC   C1B46015   1.344  43.652   6.450
 6827POPC   C2B46016   1.378  43.704   6.750
 6827POPC   C3B46017   1.351  43.681   7.050
 6827POPC   C4B46018   1.324  43.703   7.350
 6828POPC   NC346019  32.979   8.168   5.550
 6828POPC   PO446020  33.067   8.196   5.850
 6828POPC   GL146021  33.004   8.165   6.150
 6828POPC   GL246022  33.100   8.191   6.150
 6828POPC   C1A46023  33.074   8.196   6.450
 6828POPC   D2A46024  33.016   8.234   6.750
 6828POPC   C3A46025  33.010   8.205   7.050
 6828POPC   C4A46026  33.074   8.162   7.350
 6828POPC   C1B46027  33.312   8.225   6.450
 6828POPC   C2B46028  33.247   8.233   6.750
 6828POPC   C3B46029  33.311   8.157   7.050
 6828POPC   C4B46030  33.266   8.179   7.350
 6829POPC   NC346031   5.912   9.770   5.550
 6829POPC   PO446032   5.844   9.743   5.850
 6829POPC   GL146033   5.902   9.705   6.150
 6829POPC   GL246034   5.917   9.641   6.150
 6829POPC   C1A46035   5.876   9.751   6.450
 6829POPC   D2A46036   5.858   9.725   6.750
 6829POPC   C3A46037   5.828   9.721   7.050
 6829POPC   C4A46038   5.858   9.777   7.350
 6829POPC   C1B46039   5.994   9.512   6.450
 6829POPC   C2B46040   5.914   9.503   6.750
 6829POPC   C3B46041   5.987   9.537   7.050
 6829POPC   C4B46042   5.939   9.511   7.350
 6830POPC   NC346043  10.551   8.982   5.550
 6830POPC   PO446044  10.561   8.942   5.850
 6830POPC   GL146045  10.568   8.925   6.150
 6830POPC   GL246046  10.624   9.000   6.150
 6830POPC   C1A46047  10.492   9.002   6.450
 6830POPC   D2A46048  10.559   8.960   6.750
 6830POPC   C3A46049  10.495   8.949   7.050
 6830POPC   C4A46050  10.529   8.999   7.350
 6830POPC   C1B46051  10.773   9.088   6.450
 6830POPC   C2B46052  10.774   9.077   6.750
 6830POPC   C3B46053  10.808   9.076   7.050
 6830POPC   C4B46054  10.781   9.009   7.350
 6831POPC   NC346055  12.806   5.894   5.550
 6831POPC   PO446056  12.806   5.828   5.850
 6831POPC   GL146057  12.814   5.908   6.150
 6831POPC   GL246058  12.818   5.712   6.150
 6831POPC   C1A46059  12.885   5.840   6.450
 6831POPC   D2A46060  12.891   5.898   6.750
 6831POPC   C3A46061  12.862   5.859   7.050
 6831POPC   C4A46062  12.815   5.827   7.350
 6831POPC   C1B46063  12.877   5.582   6.450
 6831POPC   C2B46064  12.823   5.648   6.750
 6831POPC   C3B46065  12.878   5.667   7.050
 6831POPC   C4B46066  12.809   5.646   7.350
 6832POPC   NC346067  38.461  19.798   5.550
 6832POPC   PO446068  38.470  19.805   5.850
 6832POPC   GL146069  38.430  19.791   6.150
 6832POPC   GL246070  38.302  19.734   6.150
 6832POPC   C1A46071  38.441  19.795   6.450
 6832POPC   D2A46072  38.490  19.828   6.750
 6832POPC   C3A46073  38.496  19.844   7.050
 6832POPC   C4A46074  38.491  19.846   7.350
 6832POPC   C1B46075  38.210  19.743   6.450
 6832POPC   C2B46076  38.283  19.688   6.750
 6832POPC   C3B46077  38.287  19.678   7.050
 6832POPC   C4B46078  38.214  19.715   7.350
 6833POPC   NC346079  32.290   2.722   5.550
 6833POPC   PO446080  32.248   2.727   5.850
 6833POPC   GL146081  32.282   2.758   6.150
 6833POPC   GL246082  32.359   2.650   6.150
 6833POPC   C1A46083  32.236   2.756   6.450
 6833POPC   D2A46084  32.198   2.805   6.750
 6833POPC   C3A46085  32.240   2.746   7.050
 6833POPC   C4A46086  32.264   2.729   7.350
 6833POPC   C1B46087  32.474   2.667   6.450
 6833POPC   C2B46088  32.447   2.642   6.750
 6833POPC   C3B46089  32.484   2.598   7.050
 6833POPC   C4B46090  32.503   2.582   7.350
 6834POPC   NC346091  28.358  41.541   5.550
 6834POPC   PO446092  28.330  41.509   5.850
 6834POPC   GL146093  28.369  41.522   6.150
 6834POPC   GL246094  28.516  41.454   6.150
 6834POPC   C1A46095  28.333  41.560   6.450
 6834POPC   D2A46096  28.403  41.534   6.750
 6834POPC   C3A46097  28.398  41.517   7.050
 6834POPC   C4A46098  28.352  41.522   7.350
 6834POPC   C1B46099  28.540  41.412   6.450
 6834POPC   C2B46100  28.564  41.415   6.750
 6834POPC   C3B46101  28.558  41.387   7.050
 6834POPC   C4B46102  28.601  41.416   7.350
 6835POPC   NC346103  19.075  24.462   5.550
 6835POPC   PO446104  19.046  24.478   5.850
 6835POPC   GL146105  19.083  24.531   6.150
 6835POPC   GL246106  19.068  24.643   6.150
 6835POPC   C1A46107  19.055  24.482   6.450
 6835POPC   D2A46108  19.064  24.474   6.750
 6835POPC   C3A46109  19.043  24.480   7.050
 6835POPC   C4A46110  19.037  24.527   7.350
 6835POPC   C1B46111  19.157  24.678   6.450
 6835POPC   C2B46112  19.131  24.716   6.750
 6835POPC   C3B46113  19.150  24.726   7.050
 6835POPC   C4B46114  19.093  24.694   7.350
 6836POPC   NC346115   2.716  42.373   5.550
 6836POPC   PO446116   2.758  42.351   5.850
 6836POPC   GL146117   2.800  42.331   6.150
 6836POPC   GL246118   2.791  42.233   6.150
 6836POPC   C1A46119   2.813  42.381   6.450
 6836POPC   D2A46120   2.811  42.364   6.750
 6836POPC   C3A46121   2.804  42.360   7.050
 6836POPC   C4A46122   2.734  42.315   7.350
 6836POPC   C1B46123   2.748  42.103   6.450
 6836POPC   C2B46124   2.792  42.097   6.750
 6836POPC   C3B46125   2.736  42.113   7.050
 6836POPC   C4B46126   2.745  42.125   7.350
 6837POPC   NC346127  43.843  26.809   5.550
 6837POPC   PO446128  43.918  26.826   5.850
 6837POPC   GL146129  43.864  26.818   6.150
 6837POPC   GL246130  43.986  26.861   6.150
 6837POPC   C1A46131  43.914  26.825   6.450
 6837POPC   D2A46132  43.840  26.825   6.750
 6837POPC   C3A46133  43.908  26.849   7.050
 6837POPC   C4A46134  43.901  26.838   7.350
 6837POPC   C1B46135  44.115  26.881   6.450
 6837POPC   C2B46136  44.153  26.837   6.750
 6837POPC   C3B46137  44.148  26.856   7.050
 6837POPC   C4B46138  44.132  26.790   7.350
 6838POPC   NC346139  15.951  26.026   5.550
 6838POPC   PO446140  15.974  26.062   5.850
 6838POPC   GL146141  15.951  26.021   6.150
 6838POPC   GL246142  15.794  26.083   6.150
 6838POPC   C1A46143  15.987  25.997   6.450
 6838POPC   D2A46144  15.987  26.062   6.750
 6838POPC   C3A46145  15.979  26.049   7.050
 6838POPC   C4A46146  15.930  26.036   7.350
 6838POPC   C1B46147  15.747  26.067   6.450
 6838POPC   C2B46148  15.739  26.005   6.750
 6838POPC   C3B46149  15.715  26.071   7.050
 6838POPC   C4B46150  15.679  26.036   7.350
 6839POPC   NC346151   9.787  41.522   5.550
 6839POPC   PO446152   9.760  41.536   5.850
 6839POPC   GL146153   9.739  41.583   6.150
 6839POPC   GL246154   9.746  41.431   6.150
 6839POPC   C1A46155   9.709  41.601   6.450
 6839POPC   D2A46156   9.781  41.537   6.750
 6839POPC   C3A46157   9.742  41.534   7.050
 6839POPC   C4A46158   9.785  41.598   7.350
 6839POPC   C1B46159   9.760  41.303   6.450
 6839POPC   C2B46160   9.686  41.327   6.750
 6839POPC   C3B46161   9.706  41.284   7.050
 6839POPC   C4B46162   9.713  41.343   7.350
 6840POPC   NC346163   8.996  32.275   5.550
 6840POPC   PO446164   8.959  32.296   5.850
 6840POPC   GL146165   8.926  32.264   6.150
 6840POPC   GL246166   9.027  32.357   6.150
 6840POPC   C1A46167   8.968  32.207   6.450
 6840POPC   D2A46168   8.939  32.201   6.750
 6840POPC   C3A46169   8.930  32.266   7.050
 6840POPC   C4A46170   8.931  32.224   7.350
 6840POPC   C1B46171   9.124  32.364   6.450
 6840POPC   C2B46172   9.209  32.350   6.750
 6840POPC   C3B46173   9.182  32.414   7.050
 6840POPC   C4B46174   9.172  32.423   7.350
 6841POPC   NC346175   5.053  18.259   5.550
 6841POPC   PO446176   5.101  18.266   5.850
 6841POPC   GL146177   5.064  18.322   6.150
 6841POPC   GL246178   5.078  18.137   6.150
 6841POPC   C1A46179   5.082  18.330   6.450
 6841POPC   D2A46180   5.140  18.258   6.750
 6841POPC   C3A46181   5.070  18.320   7.050
 6841POPC   C4A46182   5.051  18.268   7.350
 6841POPC   C1B46183   5.077  18.008   6.450
 6841POPC   C2B46184   5.078  18.000   6.750
 6841POPC   C3B46185   5.055  18.054   7.050
 6841POPC   C4B46186   5.015  18.063   7.350
 6842POPC   NC346187  36.910  18.243   5.550
 6842POPC   PO446188  36.889  18.285   5.850
 6842POPC   GL146189  36.910  18.315   6.150
 6842POPC   GL246190  36.855  18.175   6.150
 6842POPC   C1A46191  36.856  18.319   6.450
 6842POPC   D2A46192  36.936  18.327   6.750
 6842POPC   C3A46193  36.938  18.262   7.050
 6842POPC   C4A46194  36.899  18.259   7.350
 6842POPC   C1B46195  36.758  18.099   6.450
 6842POPC   C2B46196  36.805  18.043   6.750
 6842POPC   C3B46197  36.807  18.042   7.050
 6842POPC   C4B46198  36.782  18.083   7.350
 6843POPC   NC346199  26.017  29.905   5.550
 6843POPC   PO446200  26.038  29.936   5.850
 6843POPC   GL146201  26.022  29.930   6.150
 6843POPC   GL246202  26.025  29.786   6.150
 6843POPC   C1A46203  26.016  29.923   6.450
 6843POPC   D2A46204  25.996  29.942   6.750
 6843POPC   C3A46205  26.066  29.922   7.050
 6843POPC   C4A46206  26.012  29.937   7.350
 6843POPC   C1B46207  25.881  29.675   6.450
 6843POPC   C2B46208  25.872  29.669   6.750
 6843POPC   C3B46209  25.874  29.670   7.050
 6843POPC   C4B46210  25.922  29.705   7.350
 6844POPC   NC346211   2.717  43.877   5.550
 6844POPC   PO446212   2.802  43.867   5.850
 6844POPC   GL146213   2.722  43.866   6.150
 6844POPC   GL246214   2.808  44.055   6.150
 6844POPC   C1A46215   2.746  43.890   6.450
 6844POPC   D2A46216   2.717  43.886   6.750
 6844POPC   C3A46217   2.720  43.870   7.050
 6844POPC   C4A46218   2.778  43.840   7.350
 6844POPC   C1B46219   2.818  44.116   6.450
 6844POPC   C2B46220   2.854  44.114   6.750
 6844POPC   C3B46221   2.879  44.168   7.050
 6844POPC   C4B46222   2.842  44.100   7.350
 6845POPC   NC346223  36.141  14.446   5.550
 6845POPC   PO446224  36.080  14.364   5.850
 6845POPC   GL146225  36.098  14.429   6.150
 6845POPC   GL246226  36.106  14.502   6.150
 6845POPC   C1A46227  36.133  14.417   6.450
 6845POPC   D2A46228  36.128  14.398   6.750
 6845POPC   C3A46229  36.126  14.379   7.050
 6845POPC   C4A46230  36.094  14.368   7.350
 6845POPC   C1B46231  36.088  14.683   6.450
 6845POPC   C2B46232  36.056  14.649   6.750
 6845POPC   C3B46233  36.112  14.618   7.050
 6845POPC   C4B46234  36.126  14.627   7.350
 6846POPC   NC346235   0.400  39.227   5.550
 6846POPC   PO446236   0.442  39.249   5.850
 6846POPC   GL146237   0.473  39.183   6.150
 6846POPC   GL246238   0.519  39.148   6.150
 6846POPC   C1A46239   0.426  39.187   6.450
 6846POPC   D2A46240   0.465  39.239   6.750
 6846POPC   C3A46241   0.427  39.192   7.050
 6846POPC   C4A46242   0.485  39.277   7.350
 6846POPC   C1B46243   0.522  39.050   6.450
 6846POPC   C2B46244   0.542  39.055   6.750
 6846POPC   C3B46245   0.566  39.056   7.050
 6846POPC   C4B46246   0.572  38.994   7.350
 6847POPC   NC346247  27.582  26.005   5.550
 6847POPC   PO446248  27.608  26.021   5.850
 6847POPC   GL146249  27.548  26.076   6.150
 6847POPC   GL246250  27.508  26.057   6.150
 6847POPC   C1A46251  27.580  26.078   6.450
 6847POPC   D2A46252  27.565  26.048   6.750
 6847POPC   C3A46253  27.588  26.023   7.050
 6847POPC   C4A46254  27.589  26.025   7.350
 6847POPC   C1B46255  27.357  25.982   6.450
 6847POPC   C2B46256  27.381  25.992   6.750
 6847POPC   C3B46257  27.384  26.051   7.050
 6847POPC   C4B46258  27.345  26.004   7.350
 6848POPC   NC346259   8.992  40.823   5.550
 6848POPC   PO446260   8.929  40.796   5.850
 6848POPC   GL146261   8.994  40.827   6.150
 6848POPC   GL246262   8.868  40.817   6.150
 6848POPC   C1A46263   8.963  40.761   6.450
 6848POPC   D2A46264   9.002  40.751   6.750
 6848POPC   C3A46265   8.983  40.803   7.050
 6848POPC   C4A46266   8.992  40.762   7.350
 6848POPC   C1B46267   8.715  40.856   6.450
 6848POPC   C2B46268   8.754  40.803   6.750
 6848POPC   C3B46269   8.750  40.880   7.050
 6848POPC   C4B46270   8.716  40.857   7.350
 6849POPC   NC346271   4.333  40.765   5.550
 6849POPC   PO446272   4.319  40.778   5.850
 6849POPC   GL146273   4.333  40.779   6.150
 6849POPC   GL246274   4.302  40.878   6.150
 6849POPC   C1A46275   4.272  40.817   6.450
 6849POPC   D2A46276   4.367  40.814   6.750
 6849POPC   C3A46277   4.271  40.757   7.050
 6849POPC   C4A46278   4.329  40.755   7.350
 6849POPC   C1B46279   4.313  41.075   6.450
 6849POPC   C2B46280   4.385  40.998   6.750
 6849POPC   C3B46281   4.327  41.029   7.050
 6849POPC   C4B46282   4.340  40.988   7.350
 6850POPC   NC346283  33.006  44.692   5.550
 6850POPC   PO446284  33.049  44.629   5.850
 6850POPC   GL146285  32.995  44.699   6.150
 6850POPC   GL246286  32.932  44.767   6.150
 6850POPC   C1A46287  33.025  44.649   6.450
 6850POPC   D2A46288  33.042  44.697   6.750
 6850POPC   C3A46289  33.065  44.649   7.050
 6850POPC   C4A46290  33.058  44.624   7.350
 6850POPC   C1B46291  32.869  44.856   6.450
 6850POPC   C2B46292  32.834  44.843   6.750
 6850POPC   C3B46293  32.854  44.794   7.050
 6850POPC   C4B46294  32.848  44.857   7.350
 6851POPC   NC346295  23.667   5.907   5.550
 6851POPC   PO446296  23.697   5.862   5.850
 6851POPC   GL146297  23.743   5.831   6.150
 6851POPC   GL246298  23.847   5.979   6.150
 6851POPC   C1A46299  23.679   5.870   6.450
 6851POPC   D2A46300  23.668   5.863   6.750
 6851POPC   C3A46301  23.744   5.821   7.050
 6851POPC   C4A46302  23.751   5.918   7.350
 6851POPC   C1B46303  23.856   6.083   6.450
 6851POPC   C2B46304  23.916   5.999   6.750
 6851POPC   C3B46305  23.897   6.063   7.050
 6851POPC   C4B46306  23.887   5.984   7.350
 6852POPC   NC346307  44.672  40.051   5.550
 6852POPC   PO446308  44.623  39.978   5.850
 6852POPC   GL146309  44.639  40.017   6.150
 6852POPC   GL246310  44.677  39.923   6.150
 6852POPC   C1A46311  44.690  40.009   6.450
 6852POPC   D2A46312  44.664  39.968   6.750
 6852POPC   C3A46313  44.621  40.039   7.050
 6852POPC   C4A46314  44.708  40.005   7.350
 6852POPC   C1B46315  44.797  39.749   6.450
 6852POPC   C2B46316  44.784  39.802   6.750
 6852POPC   C3B46317  44.757  39.787   7.050
 6852POPC   C4B46318  44.705  39.748   7.350
 6853POPC   NC346319  29.115  21.399   5.550
 6853POPC   PO446320  29.096  21.383   5.850
 6853POPC   GL146321  29.121  21.421   6.150
 6853POPC   GL246322  29.237  21.401   6.150
 6853POPC   C1A46323  29.121  21.400   6.450
 6853POPC   D2A46324  29.167  21.427   6.750
 6853POPC   C3A46325  29.185  21.378   7.050
 6853POPC   C4A46326  29.107  21.433   7.350
 6853POPC   C1B46327  29.346  21.469   6.450
 6853POPC   C2B46328  29.357  21.437   6.750
 6853POPC   C3B46329  29.423  21.439   7.050
 6853POPC   C4B46330  29.348  21.500   7.350
 6854POPC   NC346331  19.077  36.873   5.550
 6854POPC   PO446332  19.084  36.899   5.850
 6854POPC   GL146333  19.096  36.888   6.150
 6854POPC   GL246334  18.969  36.841   6.150
 6854POPC   C1A46335  19.014  36.857   6.450
 6854POPC   D2A46336  19.033  36.880   6.750
 6854POPC   C3A46337  19.042  36.927   7.050
 6854POPC   C4A46338  19.025  36.912   7.350
 6854POPC   C1B46339  18.863  36.685   6.450
 6854POPC   C2B46340  18.888  36.708   6.750
 6854POPC   C3B46341  18.921  36.779   7.050
 6854POPC   C4B46342  18.862  36.723   7.350
 6855POPC   NC346343   3.519  36.917   5.550
 6855POPC   PO446344   3.519  36.901   5.850
 6855POPC   GL146345   3.548  36.942   6.150
 6855POPC   GL246346   3.578  37.043   6.150
 6855POPC   C1A46347   3.549  36.890   6.450
 6855POPC   D2A46348   3.554  36.865   6.750
 6855POPC   C3A46349   3.536  36.886   7.050
 6855POPC   C4A46350   3.493  36.945   7.350
 6855POPC   C1B46351   3.620  37.172   6.450
 6855POPC   C2B46352   3.606  37.170   6.750
 6855POPC   C3B46353   3.532  37.187   7.050
 6855POPC   C4B46354   3.561  37.192   7.350
 6856POPC   NC346355  26.072  27.635   5.550
 6856POPC   PO446356  26.086  27.595   5.850
 6856POPC   GL146357  26.043  27.601   6.150
 6856POPC   GL246358  25.969  27.572   6.150
 6856POPC   C1A46359  25.999  27.577   6.450
 6856POPC   D2A46360  26.085  27.626   6.750
 6856POPC   C3A46361  26.051  27.607   7.050
 6856POPC   C4A46362  26.049  27.562   7.350
 6856POPC   C1B46363  25.844  27.507   6.450
 6856POPC   C2B46364  25.848  27.483   6.750
 6856POPC   C3B46365  25.813  27.500   7.050
 6856POPC   C4B46366  25.791  27.422   7.350
 6857POPC   NC346367  30.651  11.281   5.550
 6857POPC   PO446368  30.744  11.330   5.850
 6857POPC   GL146369  30.738  11.304   6.150
 6857POPC   GL246370  30.725  11.442   6.150
 6857POPC   C1A46371  30.715  11.278   6.450
 6857POPC   D2A46372  30.716  11.278   6.750
 6857POPC   C3A46373  30.687  11.274   7.050
 6857POPC   C4A46374  30.668  11.283   7.350
 6857POPC   C1B46375  30.718  11.582   6.450
 6857POPC   C2B46376  30.773  11.522   6.750
 6857POPC   C3B46377  30.724  11.594   7.050
 6857POPC   C4B46378  30.681  11.525   7.350
 6858POPC   NC346379  44.680  42.328   5.550
 6858POPC   PO446380  44.692  42.380   5.850
 6858POPC   GL146381  44.630  42.290   6.150
 6858POPC   GL246382  44.550  42.441   6.150
 6858POPC   C1A46383  44.681  42.298   6.450
 6858POPC   D2A46384  44.698  42.321   6.750
 6858POPC   C3A46385  44.614  42.314   7.050
 6858POPC   C4A46386  44.661  42.292   7.350
 6858POPC   C1B46387  44.516  42.486   6.450
 6858POPC   C2B46388  44.461  42.474   6.750
 6858POPC   C3B46389  44.482  42.470   7.050
 6858POPC   C4B46390  44.471  42.476   7.350
 6859POPC   NC346391  28.393  14.367   5.550
 6859POPC   PO446392  28.406  14.376   5.850
 6859POPC   GL146393  28.384  14.397   6.150
 6859POPC   GL246394  28.485  14.462   6.150
 6859POPC   C1A46395  28.394  14.439   6.450
 6859POPC   D2A46396  28.319  14.439   6.750
 6859POPC   C3A46397  28.394  14.375   7.050
 6859POPC   C4A46398  28.367  14.362   7.350
 6859POPC   C1B46399  28.570  14.496   6.450
 6859POPC   C2B46400  28.563  14.446   6.750
 6859POPC   C3B46401  28.587  14.446   7.050
 6859POPC   C4B46402  28.602  14.511   7.350
 6860POPC   NC346403  40.768   2.013   5.550
 6860POPC   PO446404  40.767   2.015   5.850
 6860POPC   GL146405  40.801   2.006   6.150
 6860POPC   GL246406  40.711   1.946   6.150
 6860POPC   C1A46407  40.738   1.980   6.450
 6860POPC   D2A46408  40.811   1.964   6.750
 6860POPC   C3A46409  40.783   2.031   7.050
 6860POPC   C4A46410  40.764   1.976   7.350
 6860POPC   C1B46411  40.571   1.844   6.450
 6860POPC   C2B46412  40.553   1.844   6.750
 6860POPC   C3B46413  40.530   1.920   7.050
 6860POPC   C4B46414  40.571   1.863   7.350
 6861POPC   NC346415   5.835  18.304   5.550
 6861POPC   PO446416   5.900  18.236   5.850
 6861POPC   GL146417   5.885  18.305   6.150
 6861POPC   GL246418   5.802  18.194   6.150
 6861POPC   C1A46419   5.847  18.294   6.450
 6861POPC   D2A46420   5.894  18.244   6.750
 6861POPC   C3A46421   5.830  18.313   7.050
 6861POPC   C4A46422   5.893  18.246   7.350
 6861POPC   C1B46423   5.670  18.123   6.450
 6861POPC   C2B46424   5.703  18.054   6.750
 6861POPC   C3B46425   5.678  18.043   7.050
 6861POPC   C4B46426   5.723  18.117   7.350
 6862POPC   NC346427   7.430  36.078   5.550
 6862POPC   PO446428   7.377  36.116   5.850
 6862POPC   GL146429   7.465  36.146   6.150
 6862POPC   GL246430   7.456  35.984   6.150
 6862POPC   C1A46431   7.404  36.175   6.450
 6862POPC   D2A46432   7.451  36.119   6.750
 6862POPC   C3A46433   7.378  36.108   7.050
 6862POPC   C4A46434   7.455  36.148   7.350
 6862POPC   C1B46435   7.537  35.886   6.450
 6862POPC   C2B46436   7.509  35.933   6.750
 6862POPC   C3B46437   7.531  35.863   7.050
 6862POPC   C4B46438   7.474  35.905   7.350
 6863POPC   NC346439  35.365   2.785   5.550
 6863POPC   PO446440  35.305   2.781   5.850
 6863POPC   GL146441  35.390   2.786   6.150
 6863POPC   GL246442  35.288   2.619   6.150
 6863POPC   C1A46443  35.399   2.755   6.450
 6863POPC   D2A46444  35.314   2.734   6.750
 6863POPC   C3A46445  35.325   2.777   7.050
 6863POPC   C4A46446  35.304   2.814   7.350
 6863POPC   C1B46447  35.331   2.509   6.450
 6863POPC   C2B46448  35.360   2.542   6.750
 6863POPC   C3B46449  35.342   2.514   7.050
 6863POPC   C4B46450  35.296   2.497   7.350
 6864POPC   NC346451  21.405  12.064   5.550
 6864POPC   PO446452  21.369  12.097   5.850
 6864POPC   GL146453  21.338  12.057   6.150
 6864POPC   GL246454  21.246  12.139   6.150
 6864POPC   C1A46455  21.430  12.061   6.450
 6864POPC   D2A46456  21.405  12.051   6.750
 6864POPC   C3A46457  21.357  12.034   7.050
 6864POPC   C4A46458  21.395  12.068   7.350
 6864POPC   C1B46459  21.181  12.204   6.450
 6864POPC   C2B46460  21.214  12.219   6.750
 6864POPC   C3B46461  21.134  12.205   7.050
 6864POPC   C4B46462  21.136  12.197   7.350
 6865POPC   NC346463   2.718   1.997   5.550
 6865POPC   PO446464   2.807   1.990   5.850
 6865POPC   GL146465   2.743   1.954   6.150
 6865POPC   GL246466   2.855   2.060   6.150
 6865POPC   C1A46467   2.794   2.027   6.450
 6865POPC   D2A46468   2.777   1.960   6.750
 6865POPC   C3A46469   2.751   2.018   7.050
 6865POPC   C4A46470   2.773   2.007   7.350
 6865POPC   C1B46471   2.922   2.203   6.450
 6865POPC   C2B46472   2.962   2.130   6.750
 6865POPC   C3B46473   2.951   2.205   7.050
 6865POPC   C4B46474   2.975   2.163   7.350
 6866POPC   NC346475  26.053  10.544   5.550
 6866POPC   PO446476  26.027  10.486   5.850
 6866POPC   GL146477  26.022  10.509   6.150
 6866POPC   GL246478  26.085  10.454   6.150
 6866POPC   C1A46479  26.040  10.529   6.450
 6866POPC   D2A46480  26.066  10.524   6.750
 6866POPC   C3A46481  25.999  10.568   7.050
 6866POPC   C4A46482  26.025  10.570   7.350
 6866POPC   C1B46483  26.191  10.363   6.450
 6866POPC   C2B46484  26.198  10.337   6.750
 6866POPC   C3B46485  26.176  10.364   7.050
 6866POPC   C4B46486  26.244  10.390   7.350
 6867POPC   NC346487  33.776  39.243   5.550
 6867POPC   PO446488  33.774  39.189   5.850
 6867POPC   GL146489  33.824  39.236   6.150
 6867POPC   GL246490  33.685  39.151   6.150
 6867POPC   C1A46491  33.827  39.248   6.450
 6867POPC   D2A46492  33.809  39.235   6.750
 6867POPC   C3A46493  33.792  39.182   7.050
 6867POPC   C4A46494  33.798  39.266   7.350
 6867POPC   C1B46495  33.628  39.085   6.450
 6867POPC   C2B46496  33.556  39.061   6.750
 6867POPC   C3B46497  33.622  39.147   7.050
 6867POPC   C4B46498  33.621  39.108   7.350
 6868POPC   NC346499   5.075  32.246   5.550
 6868POPC   PO446500   5.132  32.237   5.850
 6868POPC   GL146501   5.084  32.212   6.150
 6868POPC   GL246502   5.008  32.107   6.150
 6868POPC   C1A46503   5.063  32.235   6.450
 6868POPC   D2A46504   5.056  32.254   6.750
 6868POPC   C3A46505   5.086  32.260   7.050
 6868POPC   C4A46506   5.093  32.207   7.350
 6868POPC   C1B46507   5.042  32.003   6.450
 6868POPC   C2B46508   5.031  31.979   6.750
 6868POPC   C3B46509   4.984  32.042   7.050
 6868POPC   C4B46510   4.997  31.969   7.350
 6869POPC   NC346511  29.883   5.088   5.550
 6869POPC   PO446512  29.965   5.116   5.850
 6869POPC   GL146513  29.928   5.121   6.150
 6869POPC   GL246514  29.971   4.943   6.150
 6869POPC   C1A46515  29.892   5.099   6.450
 6869POPC   D2A46516  29.879   5.054   6.750
 6869POPC   C3A46517  29.898   5.111   7.050
 6869POPC   C4A46518  29.924   5.076   7.350
 6869POPC   C1B46519  30.056   4.833   6.450
 6869POPC   C2B46520  30.033   4.892   6.750
 6869POPC   C3B46521  30.054   4.819   7.050
 6869POPC   C4B46522  29.991   4.889   7.350
 6870POPC   NC346523   7.462  26.784   5.550
 6870POPC   PO446524   7.402  26.824   5.850
 6870POPC   GL146525   7.401  26.776   6.150
 6870POPC   GL246526   7.505  26.908   6.150
 6870POPC   C1A46527   7.436  26.776   6.450
 6870POPC   D2A46528   7.398  26.825   6.750
 6870POPC   C3A46529   7.470  26.822   7.050
 6870POPC   C4A46530   7.379  26.794   7.350
 6870POPC   C1B46531   7.695  26.945   6.450
 6870POPC   C2B46532   7.601  26.954   6.750
 6870POPC   C3B46533   7.609  26.902   7.050
 6870POPC   C4B46534   7.629  26.959   7.350
 6871POPC   NC346535  36.092  15.153   5.550
 6871POPC   PO446536  36.083  15.222   5.850
 6871POPC   GL146537  36.157  15.192   6.150
 6871POPC   GL246538  36.160  15.095   6.150
 6871POPC   C1A46539  36.149  15.210   6.450
 6871POPC   D2A46540  36.122  15.189   6.750
 6871POPC   C3A46541  36.138  15.187   7.050
 6871POPC   C4A46542  36.127  15.170   7.350
 6871POPC   C1B46543  36.138  14.928   6.450
 6871POPC   C2B46544  36.197  14.926   6.750
 6871POPC   C3B46545  36.201  14.930   7.050
 6871POPC   C4B46546  36.151  14.923   7.350
 6872POPC   NC346547  36.921  19.087   5.550
 6872POPC   PO446548  36.913  19.068   5.850
 6872POPC   GL146549  36.898  19.066   6.150
 6872POPC   GL246550  37.030  18.959   6.150
 6872POPC   C1A46551  36.858  19.100   6.450
 6872POPC   D2A46552  36.917  19.021   6.750
 6872POPC   C3A46553  36.865  19.015   7.050
 6872POPC   C4A46554  36.893  19.069   7.350
 6872POPC   C1B46555  37.097  18.921   6.450
 6872POPC   C2B46556  37.118  18.965   6.750
 6872POPC   C3B46557  37.129  18.956   7.050
 6872POPC   C4B46558  37.117  18.966   7.350
 6873POPC   NC346559  40.786   4.356   5.550
 6873POPC   PO446560  40.744   4.344   5.850
 6873POPC   GL146561  40.775   4.333   6.150
 6873POPC   GL246562  40.635   4.348   6.150
 6873POPC   C1A46563  40.760   4.344   6.450
 6873POPC   D2A46564  40.805   4.284   6.750
 6873POPC   C3A46565  40.808   4.332   7.050
 6873POPC   C4A46566  40.747   4.338   7.350
 6873POPC   C1B46567  40.571   4.496   6.450
 6873POPC   C2B46568  40.601   4.429   6.750
 6873POPC   C3B46569  40.620   4.419   7.050
 6873POPC   C4B46570  40.566   4.446   7.350
 6874POPC   NC346571  26.810  15.209   5.550
 6874POPC   PO446572  26.802  15.203   5.850
 6874POPC   GL146573  26.822  15.209   6.150
 6874POPC   GL246574  26.940  15.140   6.150
 6874POPC   C1A46575  26.802  15.140   6.450
 6874POPC   D2A46576  26.823  15.180   6.750
 6874POPC   C3A46577  26.816  15.184   7.050
 6874POPC   C4A46578  26.856  15.202   7.350
 6874POPC   C1B46579  27.037  15.153   6.450
 6874POPC   C2B46580  27.115  15.142   6.750
 6874POPC   C3B46581  27.056  15.143   7.050
 6874POPC   C4B46582  27.079  15.123   7.350
 6875POPC   NC346583  36.929  15.984   5.550
 6875POPC   PO446584  36.910  15.950   5.850
 6875POPC   GL146585  36.885  15.907   6.150
 6875POPC   GL246586  36.819  15.842   6.150
 6875POPC   C1A46587  36.875  15.920   6.450
 6875POPC   D2A46588  36.879  15.960   6.750
 6875POPC   C3A46589  36.872  15.964   7.050
 6875POPC   C4A46590  36.932  15.920   7.350
 6875POPC   C1B46591  36.685  15.779   6.450
 6875POPC   C2B46592  36.673  15.845   6.750
 6875POPC   C3B46593  36.718  15.819   7.050
 6875POPC   C4B46594  36.685  15.796   7.350
 6876POPC   NC346595   5.863  15.962   5.550
 6876POPC   PO446596   5.849  15.916   5.850
 6876POPC   GL146597   5.874  15.935   6.150
 6876POPC   GL246598   5.820  16.051   6.150
 6876POPC   C1A46599   5.894  15.994   6.450
 6876POPC   D2A46600   5.869  15.978   6.750
 6876POPC   C3A46601   5.841  15.964   7.050
 6876POPC   C4A46602   5.864  15.967   7.350
 6876POPC   C1B46603   5.758  16.214   6.450
 6876POPC   C2B46604   5.810  16.174   6.750
 6876POPC   C3B46605   5.812  16.214   7.050
 6876POPC   C4B46606   5.812  16.222   7.350
 6877POPC   NC346607  41.575   5.909   5.550
 6877POPC   PO446608  41.561   5.860   5.850
 6877POPC   GL146609  41.608   5.831   6.150
 6877POPC   GL246610  41.646   5.753   6.150
 6877POPC   C1A46611  41.579   5.919   6.450
 6877POPC   D2A46612  41.584   5.857   6.750
 6877POPC   C3A46613  41.568   5.890   7.050
 6877POPC   C4A46614  41.603   5.894   7.350
 6877POPC   C1B46615  41.770   5.671   6.450
 6877POPC   C2B46616  41.731   5.744   6.750
 6877POPC   C3B46617  41.720   5.711   7.050
 6877POPC   C4B46618  41.712   5.669   7.350
 6878POPC   NC346619  10.490  17.542   5.550
 6878POPC   PO446620  10.524  17.482   5.850
 6878POPC   GL146621  10.522  17.473   6.150
 6878POPC   GL246622  10.501  17.421   6.150
 6878POPC   C1A46623  10.491  17.541   6.450
 6878POPC   D2A46624  10.491  17.526   6.750
 6878POPC   C3A46625  10.533  17.537   7.050
 6878POPC   C4A46626  10.526  17.482   7.350
 6878POPC   C1B46627  10.550  17.224   6.450
 6878POPC   C2B46628  10.535  17.248   6.750
 6878POPC   C3B46629  10.566  17.236   7.050
 6878POPC   C4B46630  10.581  17.224   7.350
 6879POPC   NC346631   5.051  19.069   5.550
 6879POPC   PO446632   5.080  19.099   5.850
 6879POPC   GL146633   5.084  19.070   6.150
 6879POPC   GL246634   5.046  18.954   6.150
 6879POPC   C1A46635   5.090  19.082   6.450
 6879POPC   D2A46636   5.132  19.075   6.750
 6879POPC   C3A46637   5.046  19.034   7.050
 6879POPC   C4A46638   5.138  19.100   7.350
 6879POPC   C1B46639   4.986  18.823   6.450
 6879POPC   C2B46640   4.960  18.889   6.750
 6879POPC   C3B46641   4.939  18.845   7.050
 6879POPC   C4B46642   5.001  18.841   7.350
 6880POPC   NC346643   8.986  34.569   5.550
 6880POPC   PO446644   8.958  34.617   5.850
 6880POPC   GL146645   8.998  34.578   6.150
 6880POPC   GL246646   8.925  34.708   6.150
 6880POPC   C1A46647   8.996  34.548   6.450
 6880POPC   D2A46648   9.010  34.547   6.750
 6880POPC   C3A46649   9.014  34.547   7.050
 6880POPC   C4A46650   8.974  34.572   7.350
 6880POPC   C1B46651   8.779  34.790   6.450
 6880POPC   C2B46652   8.766  34.701   6.750
 6880POPC   C3B46653   8.817  34.774   7.050
 6880POPC   C4B46654   8.770  34.710   7.350
 6881POPC   NC346655  23.670  19.046   5.550
 6881POPC   PO446656  23.704  19.074   5.850
 6881POPC   GL146657  23.687  19.100   6.150
 6881POPC   GL246658  23.690  18.955   6.150
 6881POPC   C1A46659  23.757  19.052   6.450
 6881POPC   D2A46660  23.693  19.077   6.750
 6881POPC   C3A46661  23.756  19.104   7.050
 6881POPC   C4A46662  23.749  19.102   7.350
 6881POPC   C1B46663  23.721  18.816   6.450
 6881POPC   C2B46664  23.746  18.792   6.750
 6881POPC   C3B46665  23.659  18.851   7.050
 6881POPC   C4B46666  23.701  18.815   7.350
 6882POPC   NC346667  30.694   1.246   5.550
 6882POPC   PO446668  30.715   1.210   5.850
 6882POPC   GL146669  30.674   1.261   6.150
 6882POPC   GL246670  30.779   1.276   6.150
 6882POPC   C1A46671  30.702   1.187   6.450
 6882POPC   D2A46672  30.654   1.245   6.750
 6882POPC   C3A46673  30.716   1.203   7.050
 6882POPC   C4A46674  30.729   1.223   7.350
 6882POPC   C1B46675  30.940   1.317   6.450
 6882POPC   C2B46676  30.906   1.303   6.750
 6882POPC   C3B46677  30.868   1.345   7.050
 6882POPC   C4B46678  30.868   1.381   7.350
 6883POPC   NC346679   0.407   1.178   5.550
 6883POPC   PO446680   0.420   1.196   5.850
 6883POPC   GL146681   0.408   1.258   6.150
 6883POPC   GL246682   0.343   1.334   6.150
 6883POPC   C1A46683   0.408   1.206   6.450
 6883POPC   D2A46684   0.427   1.183   6.750
 6883POPC   C3A46685   0.471   1.178   7.050
 6883POPC   C4A46686   0.421   1.194   7.350
 6883POPC   C1B46687   0.267   1.428   6.450
 6883POPC   C2B46688   0.342   1.469   6.750
 6883POPC   C3B46689   0.289   1.440   7.050
 6883POPC   C4B46690   0.260   1.447   7.350
 6884POPC   NC346691  22.128  33.072   5.550
 6884POPC   PO446692  22.175  33.036   5.850
 6884POPC   GL146693  22.172  33.024   6.150
 6884POPC   GL246694  22.247  32.939   6.150
 6884POPC   C1A46695  22.173  33.040   6.450
 6884POPC   D2A46696  22.116  32.982   6.750
 6884POPC   C3A46697  22.132  32.990   7.050
 6884POPC   C4A46698  22.151  33.061   7.350
 6884POPC   C1B46699  22.273  32.779   6.450
 6884POPC   C2B46700  22.285  32.755   6.750
 6884POPC   C3B46701  22.297  32.801   7.050
 6884POPC   C4B46702  22.252  32.766   7.350
 6885POPC   NC346703  30.698  12.899   5.550
 6885POPC   PO446704  30.724  12.865   5.850
 6885POPC   GL146705  30.737  12.880   6.150
 6885POPC   GL246706  30.794  12.738   6.150
 6885POPC   C1A46707  30.737  12.845   6.450
 6885POPC   D2A46708  30.681  12.843   6.750
 6885POPC   C3A46709  30.731  12.828   7.050
 6885POPC   C4A46710  30.740  12.876   7.350
 6885POPC   C1B46711  30.877  12.717   6.450
 6885POPC   C2B46712  30.856  12.666   6.750
 6885POPC   C3B46713  30.906  12.730   7.050
 6885POPC   C4B46714  30.897  12.699   7.350
 6886POPC   NC346715  28.412  24.444   5.550
 6886POPC   PO446716  28.413  24.507   5.850
 6886POPC   GL146717  28.412  24.478   6.150
 6886POPC   GL246718  28.496  24.524   6.150
 6886POPC   C1A46719  28.402  24.470   6.450
 6886POPC   D2A46720  28.378  24.472   6.750
 6886POPC   C3A46721  28.363  24.508   7.050
 6886POPC   C4A46722  28.322  24.446   7.350
 6886POPC   C1B46723  28.626  24.499   6.450
 6886POPC   C2B46724  28.635  24.479   6.750
 6886POPC   C3B46725  28.606  24.554   7.050
 6886POPC   C4B46726  28.576  24.501   7.350
 6887POPC   NC346727  15.997  26.777   5.550
 6887POPC   PO446728  15.996  26.812   5.850
 6887POPC   GL146729  15.988  26.850   6.150
 6887POPC   GL246730  15.852  26.724   6.150
 6887POPC   C1A46731  15.927  26.808   6.450
 6887POPC   D2A46732  15.911  26.810   6.750
 6887POPC   C3A46733  15.910  26.854   7.050
 6887POPC   C4A46734  15.906  26.771   7.350
 6887POPC   C1B46735  15.799  26.604   6.450
 6887POPC   C2B46736  15.836  26.617   6.750
 6887POPC   C3B46737  15.850  26.667   7.050
 6887POPC   C4B46738  15.783  26.597   7.350
 6888POPC   NC346739   7.459  39.248   5.550
 6888POPC   PO446740   7.402  39.268   5.850
 6888POPC   GL146741   7.444  39.259   6.150
 6888POPC   GL246742   7.408  39.121   6.150
 6888POPC   C1A46743   7.463  39.251   6.450
 6888POPC   D2A46744   7.464  39.184   6.750
 6888POPC   C3A46745   7.448  39.252   7.050
 6888POPC   C4A46746   7.446  39.270   7.350
 6888POPC   C1B46747   7.430  38.958   6.450
 6888POPC   C2B46748   7.446  39.022   6.750
 6888POPC   C3B46749   7.439  39.014   7.050
 6888POPC   C4B46750   7.460  38.988   7.350
 6889POPC   NC346751  30.696   9.710   5.550
 6889POPC   PO446752  30.665   9.795   5.850
 6889POPC   GL146753  30.742   9.741   6.150
 6889POPC   GL246754  30.587   9.711   6.150
 6889POPC   C1A46755  30.714   9.714   6.450
 6889POPC   D2A46756  30.666   9.735   6.750
 6889POPC   C3A46757  30.692   9.702   7.050
 6889POPC   C4A46758  30.687   9.704   7.350
 6889POPC   C1B46759  30.451   9.756   6.450
 6889POPC   C2B46760  30.438   9.751   6.750
 6889POPC   C3B46761  30.459   9.766   7.050
 6889POPC   C4B46762  30.480   9.708   7.350
 6890POPC   NC346763  10.511  42.329   5.550
 6890POPC   PO446764  10.566  42.357   5.850
 6890POPC   GL146765  10.561  42.338   6.150
 6890POPC   GL246766  10.565  42.229   6.150
 6890POPC   C1A46767  10.534  42.326   6.450
 6890POPC   D2A46768  10.518  42.355   6.750
 6890POPC   C3A46769  10.510  42.307   7.050
 6890POPC   C4A46770  10.509  42.294   7.350
 6890POPC   C1B46771  10.587  42.126   6.450
 6890POPC   C2B46772  10.665  42.156   6.750
 6890POPC   C3B46773  10.670  42.118   7.050
 6890POPC   C4B46774  10.586  42.096   7.350
 6891POPC   NC346775  36.137   9.728   5.550
 6891POPC   PO446776  36.128   9.749   5.850
 6891POPC   GL146777  36.106   9.736   6.150
 6891POPC   GL246778  36.007   9.802   6.150
 6891POPC   C1A46779  36.112   9.704   6.450
 6891POPC   D2A46780  36.086   9.762   6.750
 6891POPC   C3A46781  36.095   9.706   7.050
 6891POPC   C4A46782  36.162   9.797   7.350
 6891POPC   C1B46783  35.833   9.828   6.450
 6891POPC   C2B46784  35.899   9.832   6.750
 6891POPC   C3B46785  35.865   9.811   7.050
 6891POPC   C4B46786  35.867   9.775   7.350
 6892POPC   NC346787  26.835  39.199   5.550
 6892POPC   PO446788  26.806  39.191   5.850
 6892POPC   GL146789  26.828  39.252   6.150
 6892POPC   GL246790  26.656  39.188   6.150
 6892POPC   C1A46791  26.822  39.194   6.450
 6892POPC   D2A46792  26.770  39.188   6.750
 6892POPC   C3A46793  26.836  39.269   7.050
 6892POPC   C4A46794  26.791  39.270   7.350
 6892POPC   C1B46795  26.535  39.142   6.450
 6892POPC   C2B46796  26.569  39.166   6.750
 6892POPC   C3B46797  26.546  39.131   7.050
 6892POPC   C4B46798  26.543  39.181   7.350
 6893POPC   NC346799  34.584  13.609   5.550
 6893POPC   PO446800  34.534  13.587   5.850
 6893POPC   GL146801  34.540  13.607   6.150
 6893POPC   GL246802  34.711  13.639   6.150
 6893POPC   C1A46803  34.568  13.614   6.450
 6893POPC   D2A46804  34.589  13.645   6.750
 6893POPC   C3A46805  34.557  13.653   7.050
 6893POPC   C4A46806  34.620  13.641   7.350
 6893POPC   C1B46807  34.809  13.606   6.450
 6893POPC   C2B46808  34.839  13.607   6.750
 6893POPC   C3B46809  34.805  13.525   7.050
 6893POPC   C4B46810  34.849  13.592   7.350
 6894POPC   NC346811  31.474  22.117   5.550
 6894POPC   PO446812  31.515  22.212   5.850
 6894POPC   GL146813  31.497  22.204   6.150
 6894POPC   GL246814  31.376  22.276   6.150
 6894POPC   C1A46815  31.462  22.154   6.450
 6894POPC   D2A46816  31.443  22.192   6.750
 6894POPC   C3A46817  31.444  22.154   7.050
 6894POPC   C4A46818  31.428  22.164   7.350
 6894POPC   C1B46819  31.228  22.269   6.450
 6894POPC   C2B46820  31.218  22.249   6.750
 6894POPC   C3B46821  31.222  22.328   7.050
 6894POPC   C4B46822  31.217  22.317   7.350
 6895POPC   NC346823  31.453   3.546   5.550
 6895POPC   PO446824  31.477   3.504   5.850
 6895POPC   GL146825  31.522   3.591   6.150
 6895POPC   GL246826  31.505   3.429   6.150
 6895POPC   C1A46827  31.491   3.511   6.450
 6895POPC   D2A46828  31.452   3.526   6.750
 6895POPC   C3A46829  31.427   3.527   7.050
 6895POPC   C4A46830  31.502   3.589   7.350
 6895POPC   C1B46831  31.537   3.267   6.450
 6895POPC   C2B46832  31.488   3.291   6.750
 6895POPC   C3B46833  31.539   3.255   7.050
 6895POPC   C4B46834  31.464   3.311   7.350
 6896POPC   NC346835  26.083  12.094   5.550
 6896POPC   PO446836  26.077  12.119   5.850
 6896POPC   GL146837  26.072  12.064   6.150
 6896POPC   GL246838  25.953  12.016   6.150
 6896POPC   C1A46839  26.066  12.122   6.450
 6896POPC   D2A46840  26.069  12.114   6.750
 6896POPC   C3A46841  26.056  12.087   7.050
 6896POPC   C4A46842  26.076  12.105   7.350
 6896POPC   C1B46843  25.808  11.979   6.450
 6896POPC   C2B46844  25.835  11.976   6.750
 6896POPC   C3B46845  25.842  11.959   7.050
 6896POPC   C4B46846  25.829  11.958   7.350
 6897POPC   NC346847   1.218  13.613   5.550
 6897POPC   PO446848   1.183  13.583   5.850
 6897POPC   GL146849   1.237  13.587   6.150
 6897POPC   GL246850   1.362  13.656   6.150
 6897POPC   C1A46851   1.197  13.600   6.450
 6897POPC   D2A46852   1.261  13.624   6.750
 6897POPC   C3A46853   1.171  13.578   7.050
 6897POPC   C4A46854   1.190  13.640   7.350
 6897POPC   C1B46855   1.420  13.740   6.450
 6897POPC   C2B46856   1.424  13.779   6.750
 6897POPC   C3B46857   1.483  13.707   7.050
 6897POPC   C4B46858   1.477  13.718   7.350
 6898POPC   NC346859  31.464  32.206   5.550
 6898POPC   PO446860  31.517  32.226   5.850
 6898POPC   GL146861  31.495  32.207   6.150
 6898POPC   GL246862  31.548  32.290   6.150
 6898POPC   C1A46863  31.502  32.272   6.450
 6898POPC   D2A46864  31.423  32.245   6.750
 6898POPC   C3A46865  31.492  32.203   7.050
 6898POPC   C4A46866  31.454  32.206   7.350
 6898POPC   C1B46867  31.748  32.211   6.450
 6898POPC   C2B46868  31.680  32.278   6.750
 6898POPC   C3B46869  31.685  32.301   7.050
 6898POPC   C4B46870  31.682  32.228   7.350
 6899POPC   NC346871  39.202  35.320   5.550
 6899POPC   PO446872  39.277  35.400   5.850
 6899POPC   GL146873  39.206  35.375   6.150
 6899POPC   GL246874  39.308  35.363   6.150
 6899POPC   C1A46875  39.250  35.361   6.450
 6899POPC   D2A46876  39.202  35.377   6.750
 6899POPC   C3A46877  39.280  35.306   7.050
 6899POPC   C4A46878  39.183  35.372   7.350
 6899POPC   C1B46879  39.446  35.314   6.450
 6899POPC   C2B46880  39.488  35.345   6.750
 6899POPC   C3B46881  39.503  35.280   7.050
 6899POPC   C4B46882  39.482  35.339   7.350
 6900POPC   NC346883  18.242  25.242   5.550
 6900POPC   PO446884  18.313  25.246   5.850
 6900POPC   GL146885  18.310  25.310   6.150
 6900POPC   GL246886  18.225  25.182   6.150
 6900POPC   C1A46887  18.280  25.251   6.450
 6900POPC   D2A46888  18.309  25.310   6.750
 6900POPC   C3A46889  18.253  25.242   7.050
 6900POPC   C4A46890  18.240  25.220   7.350
 6900POPC   C1B46891  18.177  25.010   6.450
 6900POPC   C2B46892  18.218  25.016   6.750
 6900POPC   C3B46893  18.197  25.057   7.050
 6900POPC   C4B46894  18.244  24.994   7.350
 6901POPC   NC346895  21.402   9.759   5.550
 6901POPC   PO446896  21.364   9.729   5.850
 6901POPC   GL146897  21.426   9.734   6.150
 6901POPC   GL246898  21.283   9.702   6.150
 6901POPC   C1A46899  21.376   9.776   6.450
 6901POPC   D2A46900  21.409   9.770   6.750
 6901POPC   C3A46901  21.372   9.724   7.050
 6901POPC   C4A46902  21.407   9.719   7.350
 6901POPC   C1B46903  21.146   9.619   6.450
 6901POPC   C2B46904  21.172   9.655   6.750
 6901POPC   C3B46905  21.109   9.667   7.050
 6901POPC   C4B46906  21.116   9.667   7.350
 6902POPC   NC346907   2.757  26.852   5.550
 6902POPC   PO446908   2.769  26.846   5.850
 6902POPC   GL146909   2.750  26.770   6.150
 6902POPC   GL246910   2.832  26.718   6.150
 6902POPC   C1A46911   2.800  26.799   6.450
 6902POPC   D2A46912   2.723  26.863   6.750
 6902POPC   C3A46913   2.785  26.818   7.050
 6902POPC   C4A46914   2.763  26.836   7.350
 6902POPC   C1B46915   2.870  26.655   6.450
 6902POPC   C2B46916   2.908  26.609   6.750
 6902POPC   C3B46917   2.956  26.576   7.050
 6902POPC   C4B46918   2.883  26.625   7.350
 6903POPC   NC346919  12.051  40.016   5.550
 6903POPC   PO446920  12.085  40.045   5.850
 6903POPC   GL146921  12.114  40.002   6.150
 6903POPC   GL246922  12.001  40.101   6.150
 6903POPC   C1A46923  12.097  39.973   6.450
 6903POPC   D2A46924  12.036  39.971   6.750
 6903POPC   C3A46925  12.101  39.966   7.050
 6903POPC   C4A46926  12.090  40.009   7.350
 6903POPC   C1B46927  11.983  40.285   6.450
 6903POPC   C2B46928  11.972  40.207   6.750
 6903POPC   C3B46929  12.007  40.253   7.050
 6903POPC   C4B46930  11.966  40.253   7.350
 6904POPC   NC346931  12.109  28.339   5.550
 6904POPC   PO446932  12.059  28.390   5.850
 6904POPC   GL146933  12.036  28.325   6.150
 6904POPC   GL246934  12.225  28.413   6.150
 6904POPC   C1A46935  12.089  28.404   6.450
 6904POPC   D2A46936  12.098  28.358   6.750
 6904POPC   C3A46937  12.038  28.392   7.050
 6904POPC   C4A46938  12.052  28.392   7.350
 6904POPC   C1B46939  12.293  28.389   6.450
 6904POPC   C2B46940  12.292  28.443   6.750
 6904POPC   C3B46941  12.322  28.387   7.050
 6904POPC   C4B46942  12.356  28.437   7.350
 6905POPC   NC346943   5.118   1.166   5.550
 6905POPC   PO446944   5.105   1.174   5.850
 6905POPC   GL146945   5.125   1.236   6.150
 6905POPC   GL246946   5.201   1.184   6.150
 6905POPC   C1A46947   5.050   1.218   6.450
 6905POPC   D2A46948   5.130   1.262   6.750
 6905POPC   C3A46949   5.082   1.221   7.050
 6905POPC   C4A46950   5.119   1.233   7.350
 6905POPC   C1B46951   5.298   1.208   6.450
 6905POPC   C2B46952   5.382   1.184   6.750
 6905POPC   C3B46953   5.312   1.125   7.050
 6905POPC   C4B46954   5.386   1.179   7.350
 6906POPC   NC346955  20.619  15.987   5.550
 6906POPC   PO446956  20.578  15.909   5.850
 6906POPC   GL146957  20.627  15.991   6.150
 6906POPC   GL246958  20.534  16.015   6.150
 6906POPC   C1A46959  20.630  15.908   6.450
 6906POPC   D2A46960  20.577  15.966   6.750
 6906POPC   C3A46961  20.612  15.985   7.050
 6906POPC   C4A46962  20.628  16.002   7.350
 6906POPC   C1B46963  20.381  16.115   6.450
 6906POPC   C2B46964  20.419  16.098   6.750
 6906POPC   C3B46965  20.391  16.048   7.050
 6906POPC   C4B46966  20.398  16.136   7.350
 6907POPC   NC346967  35.304  28.401   5.550
 6907POPC   PO446968  35.355  28.326   5.850
 6907POPC   GL146969  35.353  28.391   6.150
 6907POPC   GL246970  35.290  28.271   6.150
 6907POPC   C1A46971  35.401  28.416   6.450
 6907POPC   D2A46972  35.362  28.408   6.750
 6907POPC   C3A46973  35.357  28.330   7.050
 6907POPC   C4A46974  35.312  28.347   7.350
 6907POPC   C1B46975  35.167  28.242   6.450
 6907POPC   C2B46976  35.145  28.207   6.750
 6907POPC   C3B46977  35.114  28.227   7.050
 6907POPC   C4B46978  35.122  28.205   7.350
 6908POPC   NC346979  32.207  27.612   5.550
 6908POPC   PO446980  32.239  27.560   5.850
 6908POPC   GL146981  32.268  27.561   6.150
 6908POPC   GL246982  32.269  27.762   6.150
 6908POPC   C1A46983  32.209  27.637   6.450
 6908POPC   D2A46984  32.270  27.605   6.750
 6908POPC   C3A46985  32.207  27.613   7.050
 6908POPC   C4A46986  32.270  27.627   7.350
 6908POPC   C1B46987  32.276  27.873   6.450
 6908POPC   C2B46988  32.280  27.819   6.750
 6908POPC   C3B46989  32.283  27.852   7.050
 6908POPC   C4B46990  32.287  27.827   7.350
 6909POPC   NC346991  40.047  40.823   5.550
 6909POPC   PO446992  40.010  40.812   5.850
 6909POPC   GL146993  40.052  40.830   6.150
 6909POPC   GL246994  39.948  40.835   6.150
 6909POPC   C1A46995  40.045  40.747   6.450
 6909POPC   D2A46996  40.009  40.825   6.750
 6909POPC   C3A46997  40.040  40.743   7.050
 6909POPC   C4A46998  39.969  40.828   7.350
 6909POPC   C1B46999  39.838  41.007   6.450
 6909POPC   C2B47000  39.863  41.006   6.750
 6909POPC   C3B47001  39.826  40.952   7.050
 6909POPC   C4B47002  39.789  40.947   7.350
 6910POPC   NC347003   8.148  42.344   5.550
 6910POPC   PO447004   8.207  42.381   5.850
 6910POPC   GL147005   8.202  42.361   6.150
 6910POPC   GL247006   8.214  42.221   6.150
 6910POPC   C1A47007   8.160  42.352   6.450
 6910POPC   D2A47008   8.175  42.297   6.750
 6910POPC   C3A47009   8.160  42.311   7.050
 6910POPC   C4A47010   8.205  42.288   7.350
 6910POPC   C1B47011   8.326  42.143   6.450
 6910POPC   C2B47012   8.327  42.146   6.750
 6910POPC   C3B47013   8.242  42.146   7.050
 6910POPC   C4B47014   8.273  42.124   7.350
 6911POPC   NC347015  19.065  44.697   5.550
 6911POPC   PO447016  19.063  44.655   5.850
 6911POPC   GL147017  19.075  44.619   6.150
 6911POPC   GL247018  18.998  44.501   6.150
 6911POPC   C1A47019  19.051  44.678   6.450
 6911POPC   D2A47020  19.016  44.626   6.750
 6911POPC   C3A47021  19.084  44.688   7.050
 6911POPC   C4A47022  19.025  44.672   7.350
 6911POPC   C1B47023  18.979  44.390   6.450
 6911POPC   C2B47024  19.046  44.384   6.750
 6911POPC   C3B47025  18.974  44.370   7.050
 6911POPC   C4B47026  18.985  44.439   7.350
 6912POPC   NC347027   3.572   2.743   5.550
 6912POPC   PO447028   3.527   2.748   5.850
 6912POPC   GL147029   3.566   2.723   6.150
 6912POPC   GL247030   3.616   2.758   6.150
 6912POPC   C1A47031   3.498   2.773   6.450
 6912POPC   D2A47032   3.515   2.731   6.750
 6912POPC   C3A47033   3.544   2.768   7.050
 6912POPC   C4A47034   3.538   2.763   7.350
 6912POPC   C1B47035   3.742   2.767   6.450
 6912POPC   C2B47036   3.826   2.718   6.750
 6912POPC   C3B47037   3.776   2.764   7.050
 6912POPC   C4B47038   3.778   2.742   7.350
 6913POPC   NC347039  39.256  38.457   5.550
 6913POPC   PO447040  39.182  38.485   5.850
 6913POPC   GL147041  39.184  38.505   6.150
 6913POPC   GL247042  39.313  38.356   6.150
 6913POPC   C1A47043  39.196  38.415   6.450
 6913POPC   D2A47044  39.181  38.431   6.750
 6913POPC   C3A47045  39.266  38.475   7.050
 6913POPC   C4A47046  39.211  38.465   7.350
 6913POPC   C1B47047  39.333  38.228   6.450
 6913POPC   C2B47048  39.334  38.223   6.750
 6913POPC   C3B47049  39.374  38.193   7.050
 6913POPC   C4B47050  39.326  38.185   7.350
 6914POPC   NC347051   0.410  37.718   5.550
 6914POPC   PO447052   0.452  37.646   5.850
 6914POPC   GL147053   0.406  37.684   6.150
 6914POPC   GL247054   0.583  37.696   6.150
 6914POPC   C1A47055   0.468  37.661   6.450
 6914POPC   D2A47056   0.449  37.636   6.750
 6914POPC   C3A47057   0.444  37.714   7.050
 6914POPC   C4A47058   0.462  37.709   7.350
 6914POPC   C1B47059   0.647  37.673   6.450
 6914POPC   C2B47060   0.709  37.733   6.750
 6914POPC   C3B47061   0.713  37.686   7.050
 6914POPC   C4B47062   0.644  37.706   7.350
 6915POPC   NC347063   6.679  37.654   5.550
 6915POPC   PO447064   6.684  37.711   5.850
 6915POPC   GL147065   6.677  37.695   6.150
 6915POPC   GL247066   6.576  37.596   6.150
 6915POPC   C1A47067   6.599  37.706   6.450
 6915POPC   D2A47068   6.627  37.698   6.750
 6915POPC   C3A47069   6.628  37.727   7.050
 6915POPC   C4A47070   6.626  37.701   7.350
 6915POPC   C1B47071   6.463  37.577   6.450
 6915POPC   C2B47072   6.394  37.539   6.750
 6915POPC   C3B47073   6.431  37.532   7.050
 6915POPC   C4B47074   6.420  37.591   7.350
 6916POPC   NC347075  19.066  37.702   5.550
 6916POPC   PO447076  19.067  37.700   5.850
 6916POPC   GL147077  19.066  37.643   6.150
 6916POPC   GL247078  19.043  37.824   6.150
 6916POPC   C1A47079  19.060  37.703   6.450
 6916POPC   D2A47080  19.011  37.688   6.750
 6916POPC   C3A47081  19.047  37.646   7.050
 6916POPC   C4A47082  19.035  37.728   7.350
 6916POPC   C1B47083  19.041  37.956   6.450
 6916POPC   C2B47084  19.091  37.974   6.750
 6916POPC   C3B47085  19.113  37.935   7.050
 6916POPC   C4B47086  19.120  37.918   7.350
 6917POPC   NC347087  42.342  26.834   5.550
 6917POPC   PO447088  42.285  26.775   5.850
 6917POPC   GL147089  42.318  26.774   6.150
 6917POPC   GL247090  42.377  26.723   6.150
 6917POPC   C1A47091  42.327  26.851   6.450
 6917POPC   D2A47092  42.378  26.832   6.750
 6917POPC   C3A47093  42.382  26.770   7.050
 6917POPC   C4A47094  42.326  26.785   7.350
 6917POPC   C1B47095  42.430  26.563   6.450
 6917POPC   C2B47096  42.350  26.581   6.750
 6917POPC   C3B47097  42.350  26.543   7.050
 6917POPC   C4B47098  42.388  26.542   7.350
 6918POPC   NC347099   0.416   9.744   5.550
 6918POPC   PO447100   0.417   9.721   5.850
 6918POPC   GL147101   0.428   9.738   6.150
 6918POPC   GL247102   0.395   9.843   6.150
 6918POPC   C1A47103   0.417   9.733   6.450
 6918POPC   D2A47104   0.396   9.757   6.750
 6918POPC   C3A47105   0.447   9.705   7.050
 6918POPC   C4A47106   0.482   9.796   7.350
 6918POPC   C1B47107   0.264   9.889   6.450
 6918POPC   C2B47108   0.285   9.939   6.750
 6918POPC   C3B47109   0.282   9.972   7.050
 6918POPC   C4B47110   0.282   9.953   7.350
 6919POPC   NC347111  12.805  41.531   5.550
 6919POPC   PO447112  12.875  41.592   5.850
 6919POPC   GL147113  12.814  41.554   6.150
 6919POPC   GL247114  12.789  41.412   6.150
 6919POPC   C1A47115  12.877  41.603   6.450
 6919POPC   D2A47116  12.871  41.545   6.750
 6919POPC   C3A47117  12.858  41.586   7.050
 6919POPC   C4A47118  12.836  41.530   7.350
 6919POPC   C1B47119  12.738  41.359   6.450
 6919POPC   C2B47120  12.758  41.358   6.750
 6919POPC   C3B47121  12.801  41.347   7.050
 6919POPC   C4B47122  12.769  41.347   7.350
 6920POPC   NC347123  26.060  34.548   5.550
 6920POPC   PO447124  26.014  34.545   5.850
 6920POPC   GL147125  26.003  34.599   6.150
 6920POPC   GL247126  26.078  34.470   6.150
 6920POPC   C1A47127  26.091  34.620   6.450
 6920POPC   D2A47128  26.010  34.562   6.750
 6920POPC   C3A47129  26.050  34.528   7.050
 6920POPC   C4A47130  26.041  34.582   7.350
 6920POPC   C1B47131  26.184  34.382   6.450
 6920POPC   C2B47132  26.159  34.389   6.750
 6920POPC   C3B47133  26.215  34.346   7.050
 6920POPC   C4B47134  26.248  34.434   7.350
 6921POPC   NC347135  27.616  13.615   5.550
 6921POPC   PO447136  27.568  13.651   5.850
 6921POPC   GL147137  27.584  13.611   6.150
 6921POPC   GL247138  27.681  13.693   6.150
 6921POPC   C1A47139  27.609  13.641   6.450
 6921POPC   D2A47140  27.616  13.613   6.750
 6921POPC   C3A47141  27.642  13.667   7.050
 6921POPC   C4A47142  27.546  13.663   7.350
 6921POPC   C1B47143  27.752  13.808   6.450
 6921POPC   C2B47144  27.740  13.868   6.750
 6921POPC   C3B47145  27.701  13.804   7.050
 6921POPC   C4B47146  27.791  13.802   7.350
 6922POPC   NC347147  42.382   0.449   5.550
 6922POPC   PO447148  42.328   0.413   5.850
 6922POPC   GL147149  42.320   0.398   6.150
 6922POPC   GL247150  42.374   0.572   6.150
 6922POPC   C1A47151  42.322   0.449   6.450
 6922POPC   D2A47152  42.304   0.392   6.750
 6922POPC   C3A47153  42.332   0.390   7.050
 6922POPC   C4A47154  42.374   0.464   7.350
 6922POPC   C1B47155  42.296   0.650   6.450
 6922POPC   C2B47156  42.335   0.668   6.750
 6922POPC   C3B47157  42.338   0.688   7.050
 6922POPC   C4B47158  42.276   0.713   7.350
 6923POPC   NC347159  34.577  10.548   5.550
 6923POPC   PO447160  34.569  10.491   5.850
 6923POPC   GL147161  34.563  10.537   6.150
 6923POPC   GL247162  34.422  10.554   6.150
 6923POPC   C1A47163  34.586  10.508   6.450
 6923POPC   D2A47164  34.551  10.534   6.750
 6923POPC   C3A47165  34.602  10.571   7.050
 6923POPC   C4A47166  34.615  10.564   7.350
 6923POPC   C1B47167  34.340  10.601   6.450
 6923POPC   C2B47168  34.372  10.572   6.750
 6923POPC   C3B47169  34.354  10.600   7.050
 6923POPC   C4B47170  34.358  10.560   7.350
 6924POPC   NC347171  26.835  40.770   5.550
 6924POPC   PO447172  26.850  40.760   5.850
 6924POPC   GL147173  26.807  40.812   6.150
 6924POPC   GL247174  26.726  40.880   6.150
 6924POPC   C1A47175  26.862  40.789   6.450
 6924POPC   D2A47176  26.860  40.756   6.750
 6924POPC   C3A47177  26.827  40.779   7.050
 6924POPC   C4A47178  26.855  40.746   7.350
 6924POPC   C1B47179  26.572  40.864   6.450
 6924POPC   C2B47180  26.584  40.856   6.750
 6924POPC   C3B47181  26.594  40.893   7.050
 6924POPC   C4B47182  26.548  40.851   7.350
 6925POPC   NC347183  15.201   6.607   5.550
 6925POPC   PO447184  15.207   6.688   5.850
 6925POPC   GL147185  15.149   6.658   6.150
 6925POPC   GL247186  15.057   6.665   6.150
 6925POPC   C1A47187  15.196   6.690   6.450
 6925POPC   D2A47188  15.130   6.623   6.750
 6925POPC   C3A47189  15.162   6.669   7.050
 6925POPC   C4A47190  15.208   6.624   7.350
 6925POPC   C1B47191  14.993   6.763   6.450
 6925POPC   C2B47192  14.939   6.803   6.750
 6925POPC   C3B47193  14.962   6.752   7.050
 6925POPC   C4B47194  14.946   6.813   7.350
 6926POPC   NC347195  44.624  33.818   5.550
 6926POPC   PO447196  44.676  33.760   5.850
 6926POPC   GL147197  44.662  33.761   6.150
 6926POPC   GL247198  44.778  33.832   6.150
 6926POPC   C1A47199  44.657  33.826   6.450
 6926POPC   D2A47200  44.684  33.810   6.750
 6926POPC   C3A47201  44.613  33.787   7.050
 6926POPC   C4A47202  44.662  33.807   7.350
 6926POPC   C1B47203  44.857  33.988   6.450
 6926POPC   C2B47204  44.814  34.004   6.750
 6926POPC   C3B47205  44.811  33.969   7.050
 6926POPC   C4B47206  44.832  33.981   7.350
 6927POPC   NC347207  33.812  19.863   5.550
 6927POPC   PO447208  33.838  19.866   5.850
 6927POPC   GL147209  33.788  19.826   6.150
 6927POPC   GL247210  33.696  19.740   6.150
 6927POPC   C1A47211  33.766  19.822   6.450
 6927POPC   D2A47212  33.790  19.878   6.750
 6927POPC   C3A47213  33.808  19.862   7.050
 6927POPC   C4A47214  33.756  19.795   7.350
 6927POPC   C1B47215  33.622  19.601   6.450
 6927POPC   C2B47216  33.693  19.646   6.750
 6927POPC   C3B47217  33.652  19.677   7.050
 6927POPC   C4B47218  33.680  19.641   7.350
 6928POPC   NC347219  20.598  43.138   5.550
 6928POPC   PO447220  20.658  43.070   5.850
 6928POPC   GL147221  20.635  43.140   6.150
 6928POPC   GL247222  20.648  43.021   6.150
 6928POPC   C1A47223  20.644  43.105   6.450
 6928POPC   D2A47224  20.617  43.090   6.750
 6928POPC   C3A47225  20.621  43.074   7.050
 6928POPC   C4A47226  20.563  43.087   7.350
 6928POPC   C1B47227  20.715  42.909   6.450
 6928POPC   C2B47228  20.696  42.904   6.750
 6928POPC   C3B47229  20.660  42.869   7.050
 6928POPC   C4B47230  20.688  42.906   7.350
 6929POPC   NC347231  13.648  30.739   5.550
 6929POPC   PO447232  13.619  30.658   5.850
 6929POPC   GL147233  13.633  30.717   6.150
 6929POPC   GL247234  13.529  30.745   6.150
 6929POPC   C1A47235  13.674  30.672   6.450
 6929POPC   D2A47236  13.613  30.727   6.750
 6929POPC   C3A47237  13.621  30.684   7.050
 6929POPC   C4A47238  13.595  30.676   7.350
 6929POPC   C1B47239  13.404  30.824   6.450
 6929POPC   C2B47240  13.429  30.871   6.750
 6929POPC   C3B47241  13.425  30.866   7.050
 6929POPC   C4B47242  13.440  30.828   7.350
 6930POPC   NC347243  11.325   6.610   5.550
 6930POPC   PO447244  11.251   6.620   5.850
 6930POPC   GL147245  11.340   6.600   6.150
 6930POPC   GL247246  11.172   6.597   6.150
 6930POPC   C1A47247  11.257   6.655   6.450
 6930POPC   D2A47248  11.267   6.685   6.750
 6930POPC   C3A47249  11.264   6.693   7.050
 6930POPC   C4A47250  11.344   6.611   7.350
 6930POPC   C1B47251  11.010   6.633   6.450
 6930POPC   C2B47252  11.053   6.594   6.750
 6930POPC   C3B47253  11.030   6.550   7.050
 6930POPC   C4B47254  11.056   6.592   7.350
 6931POPC   NC347255  12.072  18.275   5.550
 6931POPC   PO447256  12.106  18.325   5.850
 6931POPC   GL147257  12.111  18.234   6.150
 6931POPC   GL247258  11.969  18.312   6.150
 6931POPC   C1A47259  12.032  18.296   6.450
 6931POPC   D2A47260  12.109  18.313   6.750
 6931POPC   C3A47261  12.082  18.248   7.050
 6931POPC   C4A47262  12.039  18.233   7.350
 6931POPC   C1B47263  11.816  18.373   6.450
 6931POPC   C2B47264  11.855  18.370   6.750
 6931POPC   C3B47265  11.868  18.365   7.050
 6931POPC   C4B47266  11.849  18.453   7.350
 6932POPC   NC347267   4.347   2.769   5.550
 6932POPC   PO447268   4.315   2.768   5.850
 6932POPC   GL147269   4.289   2.742   6.150
 6932POPC   GL247270   4.301   2.606   6.150
 6932POPC   C1A47271   4.315   2.740   6.450
 6932POPC   D2A47272   4.285   2.753   6.750
 6932POPC   C3A47273   4.353   2.777   7.050
 6932POPC   C4A47274   4.285   2.778   7.350
 6932POPC   C1B47275   4.313   2.489   6.450
 6932POPC   C2B47276   4.294   2.503   6.750
 6932POPC   C3B47277   4.248   2.560   7.050
 6932POPC   C4B47278   4.285   2.553   7.350
 6933POPC   NC347279  10.496  22.929   5.550
 6933POPC   PO447280  10.488  22.966   5.850
 6933POPC   GL147281  10.504  22.978   6.150
 6933POPC   GL247282  10.593  22.857   6.150
 6933POPC   C1A47283  10.519  22.946   6.450
 6933POPC   D2A47284  10.507  22.958   6.750
 6933POPC   C3A47285  10.475  22.922   7.050
 6933POPC   C4A47286  10.517  22.922   7.350
 6933POPC   C1B47287  10.581  22.751   6.450
 6933POPC   C2B47288  10.615  22.682   6.750
 6933POPC   C3B47289  10.573  22.655   7.050
 6933POPC   C4B47290  10.587  22.688   7.350
 6934POPC   NC347291   4.324  43.139   5.550
 6934POPC   PO447292   4.315  43.095   5.850
 6934POPC   GL147293   4.292  43.137   6.150
 6934POPC   GL247294   4.360  43.272   6.150
 6934POPC   C1A47295   4.304  43.102   6.450
 6934POPC   D2A47296   4.328  43.073   6.750
 6934POPC   C3A47297   4.294  43.150   7.050
 6934POPC   C4A47298   4.346  43.106   7.350
 6934POPC   C1B47299   4.336  43.320   6.450
 6934POPC   C2B47300   4.387  43.360   6.750
 6934POPC   C3B47301   4.311  43.327   7.050
 6934POPC   C4B47302   4.397  43.372   7.350
 6935POPC   NC347303   8.150  15.953   5.550
 6935POPC   PO447304   8.194  15.988   5.850
 6935POPC   GL147305   8.201  15.975   6.150
 6935POPC   GL247306   8.221  15.841   6.150
 6935POPC   C1A47307   8.157  15.935   6.450
 6935POPC   D2A47308   8.156  15.996   6.750
 6935POPC   C3A47309   8.244  15.980   7.050
 6935POPC   C4A47310   8.152  15.961   7.350
 6935POPC   C1B47311   8.322  15.733   6.450
 6935POPC   C2B47312   8.339  15.674   6.750
 6935POPC   C3B47313   8.259  15.767   7.050
 6935POPC   C4B47314   8.248  15.756   7.350
 6936POPC   NC347315   8.985   9.742   5.550
 6936POPC   PO447316   8.985   9.713   5.850
 6936POPC   GL147317   8.977   9.719   6.150
 6936POPC   GL247318   9.050   9.813   6.150
 6936POPC   C1A47319   8.928   9.797   6.450
 6936POPC   D2A47320   9.001   9.752   6.750
 6936POPC   C3A47321   8.989   9.797   7.050
 6936POPC   C4A47322   9.002   9.725   7.350
 6936POPC   C1B47323   9.153   9.865   6.450
 6936POPC   C2B47324   9.189   9.914   6.750
 6936POPC   C3B47325   9.135   9.920   7.050
 6936POPC   C4B47326   9.190   9.847   7.350
 6937POPC   NC347327  13.589  15.209   5.550
 6937POPC   PO447328  13.669  15.186   5.850
 6937POPC   GL147329  13.624  15.156   6.150
 6937POPC   GL247330  13.566  15.257   6.150
 6937POPC   C1A47331  13.606  15.206   6.450
 6937POPC   D2A47332  13.596  15.208   6.750
 6937POPC   C3A47333  13.589  15.193   7.050
 6937POPC   C4A47334  13.646  15.131   7.350
 6937POPC   C1B47335  13.508  15.434   6.450
 6937POPC   C2B47336  13.584  15.426   6.750
 6937POPC   C3B47337  13.550  15.426   7.050
 6937POPC   C4B47338  13.569  15.416   7.350
 6938POPC   NC347339   1.227  29.163   5.550
 6938POPC   PO447340   1.218  29.155   5.850
 6938POPC   GL147341   1.238  29.161   6.150
 6938POPC   GL247342   1.177  28.998   6.150
 6938POPC   C1A47343   1.259  29.175   6.450
 6938POPC   D2A47344   1.227  29.135   6.750
 6938POPC   C3A47345   1.260  29.120   7.050
 6938POPC   C4A47346   1.180  29.096   7.350
 6938POPC   C1B47347   1.232  28.862   6.450
 6938POPC   C2B47348   1.206  28.902   6.750
 6938POPC   C3B47349   1.227  28.906   7.050
 6938POPC   C4B47350   1.171  28.852   7.350
 6939POPC   NC347351   1.208  15.967   5.550
 6939POPC   PO447352   1.165  15.974   5.850
 6939POPC   GL147353   1.190  15.942   6.150
 6939POPC   GL247354   1.344  15.854   6.150
 6939POPC   C1A47355   1.210  15.963   6.450
 6939POPC   D2A47356   1.213  15.906   6.750
 6939POPC   C3A47357   1.218  16.004   7.050
 6939POPC   C4A47358   1.243  15.934   7.350
 6939POPC   C1B47359   1.391  15.808   6.450
 6939POPC   C2B47360   1.395  15.779   6.750
 6939POPC   C3B47361   1.440  15.764   7.050
 6939POPC   C4B47362   1.417  15.824   7.350
 6940POPC   NC347363   5.133  35.353   5.550
 6940POPC   PO447364   5.090  35.341   5.850
 6940POPC   GL147365   5.067  35.401   6.150
 6940POPC   GL247366   4.974  35.419   6.150
 6940POPC   C1A47367   5.142  35.335   6.450
 6940POPC   D2A47368   5.094  35.385   6.750
 6940POPC   C3A47369   5.073  35.335   7.050
 6940POPC   C4A47370   5.120  35.384   7.350
 6940POPC   C1B47371   4.833  35.419   6.450
 6940POPC   C2B47372   4.894  35.421   6.750
 6940POPC   C3B47373   4.869  35.465   7.050
 6940POPC   C4B47374   4.812  35.390   7.350
 6941POPC   NC347375  29.932  24.448   5.550
 6941POPC   PO447376  29.912  24.477   5.850
 6941POPC   GL147377  29.955  24.508   6.150
 6941POPC   GL247378  29.777  24.439   6.150
 6941POPC   C1A47379  29.907  24.487   6.450
 6941POPC   D2A47380  29.910  24.521   6.750
 6941POPC   C3A47381  29.929  24.484   7.050
 6941POPC   C4A47382  29.875  24.523   7.350
 6941POPC   C1B47383  29.736  24.324   6.450
 6941POPC   C2B47384  29.701  24.326   6.750
 6941POPC   C3B47385  29.698  24.398   7.050
 6941POPC   C4B47386  29.688  24.316   7.350
 6942POPC   NC347387   1.194  35.316   5.550
 6942POPC   PO447388   1.183  35.362   5.850
 6942POPC   GL147389   1.235  35.320   6.150
 6942POPC   GL247390   1.378  35.395   6.150
 6942POPC   C1A47391   1.250  35.377   6.450
 6942POPC   D2A47392   1.224  35.322   6.750
 6942POPC   C3A47393   1.227  35.383   7.050
 6942POPC   C4A47394   1.230  35.370   7.350
 6942POPC   C1B47395   1.471  35.395   6.450
 6942POPC   C2B47396   1.498  35.380   6.750
 6942POPC   C3B47397   1.434  35.366   7.050
 6942POPC   C4B47398   1.506  35.412   7.350
 6943POPC   NC347399  17.531  29.967   5.550
 6943POPC   PO447400  17.479  29.945   5.850
 6943POPC   GL147401  17.535  29.890   6.150
 6943POPC   GL247402  17.369  29.973   6.150
 6943POPC   C1A47403  17.552  29.879   6.450
 6943POPC   D2A47404  17.523  29.890   6.750
 6943POPC   C3A47405  17.482  29.925   7.050
 6943POPC   C4A47406  17.539  29.920   7.350
 6943POPC   C1B47407  17.273  30.032   6.450
 6943POPC   C2B47408  17.279  30.008   6.750
 6943POPC   C3B47409  17.294  30.049   7.050
 6943POPC   C4B47410  17.322  30.045   7.350
 6944POPC   NC347411  41.517  29.111   5.550
 6944POPC   PO447412  41.583  29.163   5.850
 6944POPC   GL147413  41.513  29.114   6.150
 6944POPC   GL247414  41.469  29.067   6.150
 6944POPC   C1A47415  41.537  29.183   6.450
 6944POPC   D2A47416  41.571  29.163   6.750
 6944POPC   C3A47417  41.534  29.108   7.050
 6944POPC   C4A47418  41.562  29.145   7.350
 6944POPC   C1B47419  41.308  29.008   6.450
 6944POPC   C2B47420  41.385  29.022   6.750
 6944POPC   C3B47421  41.391  29.009   7.050
 6944POPC   C4B47422  41.376  29.046   7.350
 6945POPC   NC347423  36.860  36.098   5.550
 6945POPC   PO447424  36.895  36.135   5.850
 6945POPC   GL147425  36.911  36.111   6.150
 6945POPC   GL247426  36.788  36.122   6.150
 6945POPC   C1A47427  36.865  36.144   6.450
 6945POPC   D2A47428  36.889  36.141   6.750
 6945POPC   C3A47429  36.931  36.169   7.050
 6945POPC   C4A47430  36.895  36.117   7.350
 6945POPC   C1B47431  36.615  36.150   6.450
 6945POPC   C2B47432  36.673  36.149   6.750
 6945POPC   C3B47433  36.681  36.145   7.050
 6945POPC   C4B47434  36.625  36.087   7.350
 6946POPC   NC347435  12.862  11.321   5.550
 6946POPC   PO447436  12.813  11.297   5.850
 6946POPC   GL147437  12.858  11.350   6.150
 6946POPC   GL247438  12.871  11.372   6.150
 6946POPC   C1A47439  12.824  11.339   6.450
 6946POPC   D2A47440  12.843  11.346   6.750
 6946POPC   C3A47441  12.840  11.340   7.050
 6946POPC   C4A47442  12.842  11.254   7.350
 6946POPC   C1B47443  12.917  11.562   6.450
 6946POPC   C2B47444  13.006  11.484   6.750
 6946POPC   C3B47445  12.972  11.518   7.050
 6946POPC   C4B47446  12.978  11.557   7.350
 6947POPC   NC347447  37.652  43.120   5.550
 6947POPC   PO447448  37.653  43.139   5.850
 6947POPC   GL147449  37.705  43.147   6.150
 6947POPC   GL247450  37.803  43.168   6.150
 6947POPC   C1A47451  37.718  43.105   6.450
 6947POPC   D2A47452  37.660  43.121   6.750
 6947POPC   C3A47453  37.697  43.145   7.050
 6947POPC   C4A47454  37.706  43.158   7.350
 6947POPC   C1B47455  37.948  43.166   6.450
 6947POPC   C2B47456  37.953  43.170   6.750
 6947POPC   C3B47457  37.897  43.114   7.050
 6947POPC   C4B47458  37.929  43.110   7.350
 6948POPC   NC347459  40.803  35.398   5.550
 6948POPC   PO447460  40.805  35.338   5.850
 6948POPC   GL147461  40.765  35.339   6.150
 6948POPC   GL247462  40.719  35.422   6.150
 6948POPC   C1A47463  40.799  35.322   6.450
 6948POPC   D2A47464  40.747  35.352   6.750
 6948POPC   C3A47465  40.761  35.329   7.050
 6948POPC   C4A47466  40.800  35.335   7.350
 6948POPC   C1B47467  40.646  35.598   6.450
 6948POPC   C2B47468  40.632  35.584   6.750
 6948POPC   C3B47469  40.657  35.533   7.050
 6948POPC   C4B47470  40.591  35.564   7.350
 6949POPC   NC347471  21.425  15.977   5.550
 6949POPC   PO447472  21.417  16.005   5.850
 6949POPC   GL147473  21.396  15.959   6.150
 6949POPC   GL247474  21.259  15.957   6.150
 6949POPC   C1A47475  21.434  15.919   6.450
 6949POPC   D2A47476  21.367  15.980   6.750
 6949POPC   C3A47477  21.382  15.926   7.050
 6949POPC   C4A47478  21.356  15.976   7.350
 6949POPC   C1B47479  21.127  16.061   6.450
 6949POPC   C2B47480  21.141  16.078   6.750
 6949POPC   C3B47481  21.176  16.087   7.050
 6949POPC   C4B47482  21.123  16.057   7.350
 6950POPC   NC347483   0.408  27.594   5.550
 6950POPC   PO447484   0.415  27.614   5.850
 6950POPC   GL147485   0.438  27.625   6.150
 6950POPC   GL247486   0.474  27.507   6.150
 6950POPC   C1A47487   0.417  27.569   6.450
 6950POPC   D2A47488   0.434  27.597   6.750
 6950POPC   C3A47489   0.483  27.631   7.050
 6950POPC   C4A47490   0.454  27.642   7.350
 6950POPC   C1B47491   0.483  27.347   6.450
 6950POPC   C2B47492   0.491  27.350   6.750
 6950POPC   C3B47493   0.469  27.319   7.050
 6950POPC   C4B47494   0.450  27.363   7.350
 6951POPC   NC347495   8.148  43.891   5.550
 6951POPC   PO447496   8.187  43.874   5.850
 6951POPC   GL147497   8.229  43.853   6.150
 6951POPC   GL247498   8.065  43.941   6.150
 6951POPC   C1A47499   8.166  43.870   6.450
 6951POPC   D2A47500   8.182  43.856   6.750
 6951POPC   C3A47501   8.152  43.864   7.050
 6951POPC   C4A47502   8.181  43.898   7.350
 6951POPC   C1B47503   8.043  44.081   6.450
 6951POPC   C2B47504   8.034  44.080   6.750
 6951POPC   C3B47505   7.978  44.034   7.050
 6951POPC   C4B47506   8.024  44.011   7.350
 6952POPC   NC347507  14.435  23.665   5.550
 6952POPC   PO447508  14.433  23.712   5.850
 6952POPC   GL147509  14.379  23.733   6.150
 6952POPC   GL247510  14.525  23.769   6.150
 6952POPC   C1A47511  14.429  23.763   6.450
 6952POPC   D2A47512  14.413  23.710   6.750
 6952POPC   C3A47513  14.430  23.750   7.050
 6952POPC   C4A47514  14.360  23.711   7.350
 6952POPC   C1B47515  14.680  23.711   6.450
 6952POPC   C2B47516  14.632  23.758   6.750
 6952POPC   C3B47517  14.616  23.725   7.050
 6952POPC   C4B47518  14.615  23.714   7.350
 6953POPC   NC347519  25.297  38.474   5.550
 6953POPC   PO447520  25.298  38.429   5.850
 6953POPC   GL147521  25.228  38.457   6.150
 6953POPC   GL247522  25.303  38.520   6.150
 6953POPC   C1A47523  25.238  38.483   6.450
 6953POPC   D2A47524  25.266  38.419   6.750
 6953POPC   C3A47525  25.228  38.426   7.050
 6953POPC   C4A47526  25.217  38.462   7.350
 6953POPC   C1B47527  25.477  38.670   6.450
 6953POPC   C2B47528  25.432  38.592   6.750
 6953POPC   C3B47529  25.390  38.599   7.050
 6953POPC   C4B47530  25.396  38.607   7.350
 6954POPC   NC347531  40.010  29.945   5.550
 6954POPC   PO447532  39.986  29.908   5.850
 6954POPC   GL147533  40.046  29.887   6.150
 6954POPC   GL247534  40.071  29.777   6.150
 6954POPC   C1A47535  40.011  29.948   6.450
 6954POPC   D2A47536  40.029  29.891   6.750
 6954POPC   C3A47537  40.022  29.908   7.050
 6954POPC   C4A47538  40.015  29.934   7.350
 6954POPC   C1B47539  40.078  29.657   6.450
 6954POPC   C2B47540  39.995  29.718   6.750
 6954POPC   C3B47541  40.044  29.630   7.050
 6954POPC   C4B47542  40.051  29.703   7.350
 6955POPC   NC347543  12.833  15.964   5.550
 6955POPC   PO447544  12.855  15.919   5.850
 6955POPC   GL147545  12.880  15.986   6.150
 6955POPC   GL247546  12.824  15.858   6.150
 6955POPC   C1A47547  12.890  15.936   6.450
 6955POPC   D2A47548  12.877  16.001   6.750
 6955POPC   C3A47549  12.856  15.944   7.050
 6955POPC   C4A47550  12.804  15.949   7.350
 6955POPC   C1B47551  12.850  15.700   6.450
 6955POPC   C2B47552  12.895  15.750   6.750
 6955POPC   C3B47553  12.847  15.684   7.050
 6955POPC   C4B47554  12.819  15.718   7.350
 6956POPC   NC347555  29.905  23.746   5.550
 6956POPC   PO447556  29.932  23.680   5.850
 6956POPC   GL147557  29.916  23.721   6.150
 6956POPC   GL247558  30.043  23.784   6.150
 6956POPC   C1A47559  29.903  23.763   6.450
 6956POPC   D2A47560  29.878  23.758   6.750
 6956POPC   C3A47561  29.960  23.727   7.050
 6956POPC   C4A47562  29.872  23.694   7.350
 6956POPC   C1B47563  30.121  23.892   6.450
 6956POPC   C2B47564  30.108  23.879   6.750
 6956POPC   C3B47565  30.131  23.904   7.050
 6956POPC   C4B47566  30.080  23.889   7.350
 6957POPC   NC347567  43.924  22.114   5.550
 6957POPC   PO447568  43.891  22.181   5.850
 6957POPC   GL147569  43.859  22.157   6.150
 6957POPC   GL247570  43.733  22.126   6.150
 6957POPC   C1A47571  43.879  22.203   6.450
 6957POPC   D2A47572  43.870  22.127   6.750
 6957POPC   C3A47573  43.893  22.167   7.050
 6957POPC   C4A47574  43.930  22.196   7.350
 6957POPC   C1B47575  43.666  22.121   6.450
 6957POPC   C2B47576  43.621  22.090   6.750
 6957POPC   C3B47577  43.591  22.114   7.050
 6957POPC   C4B47578  43.664  22.137   7.350
 6958POPC   NC347579  32.225   5.097   5.550
 6958POPC   PO447580  32.204   5.132   5.850
 6958POPC   GL147581  32.295   5.102   6.150
 6958POPC   GL247582  32.337   5.191   6.150
 6958POPC   C1A47583  32.259   5.048   6.450
 6958POPC   D2A47584  32.215   5.089   6.750
 6958POPC   C3A47585  32.296   5.074   7.050
 6958POPC   C4A47586  32.281   5.065   7.350
 6958POPC   C1B47587  32.293   5.344   6.450
 6958POPC   C2B47588  32.331   5.314   6.750
 6958POPC   C3B47589  32.286   5.372   7.050
 6958POPC   C4B47590  32.343   5.351   7.350
 6959POPC   NC347591  19.099   3.528   5.550
 6959POPC   PO447592  19.047   3.503   5.850
 6959POPC   GL147593  19.048   3.502   6.150
 6959POPC   GL247594  19.070   3.429   6.150
 6959POPC   C1A47595  19.041   3.586   6.450
 6959POPC   D2A47596  19.047   3.584   6.750
 6959POPC   C3A47597  19.042   3.579   7.050
 6959POPC   C4A47598  19.043   3.575   7.350
 6959POPC   C1B47599  19.100   3.315   6.450
 6959POPC   C2B47600  19.106   3.330   6.750
 6959POPC   C3B47601  19.074   3.322   7.050
 6959POPC   C4B47602  19.095   3.335   7.350
 6960POPC   NC347603   8.191  33.001   5.550
 6960POPC   PO447604   8.168  33.005   5.850
 6960POPC   GL147605   8.210  33.017   6.150
 6960POPC   GL247606   8.175  32.905   6.150
 6960POPC   C1A47607   8.218  33.017   6.450
 6960POPC   D2A47608   8.223  33.066   6.750
 6960POPC   C3A47609   8.172  33.006   7.050
 6960POPC   C4A47610   8.199  33.040   7.350
 6960POPC   C1B47611   8.104  32.849   6.450
 6960POPC   C2B47612   8.094  32.809   6.750
 6960POPC   C3B47613   8.081  32.811   7.050
 6960POPC   C4B47614   8.093  32.825   7.350
 6961POPC   NC347615  37.710  39.274   5.550
 6961POPC   PO447616  37.661  39.205   5.850
 6961POPC   GL147617  37.717  39.184   6.150
 6961POPC   GL247618  37.729  39.380   6.150
 6961POPC   C1A47619  37.668  39.279   6.450
 6961POPC   D2A47620  37.715  39.227   6.750
 6961POPC   C3A47621  37.717  39.210   7.050
 6961POPC   C4A47622  37.705  39.247   7.350
 6961POPC   C1B47623  37.808  39.477   6.450
 6961POPC   C2B47624  37.812  39.464   6.750
 6961POPC   C3B47625  37.763  39.435   7.050
 6961POPC   C4B47626  37.775  39.505   7.350
 6962POPC   NC347627  10.532  15.936   5.550
 6962POPC   PO447628  10.498  15.944   5.850
 6962POPC   GL147629  10.481  15.987   6.150
 6962POPC   GL247630  10.571  15.838   6.150
 6962POPC   C1A47631  10.527  15.969   6.450
 6962POPC   D2A47632  10.497  15.964   6.750
 6962POPC   C3A47633  10.540  15.971   7.050
 6962POPC   C4A47634  10.564  15.924   7.350
 6962POPC   C1B47635  10.676  15.755   6.450
 6962POPC   C2B47636  10.697  15.767   6.750
 6962POPC   C3B47637  10.701  15.791   7.050
 6962POPC   C4B47638  10.727  15.752   7.350
 6963POPC   NC347639  25.289  26.780   5.550
 6963POPC   PO447640  25.281  26.833   5.850
 6963POPC   GL147641  25.286  26.842   6.150
 6963POPC   GL247642  25.337  26.696   6.150
 6963POPC   C1A47643  25.279  26.832   6.450
 6963POPC   D2A47644  25.303  26.795   6.750
 6963POPC   C3A47645  25.303  26.859   7.050
 6963POPC   C4A47646  25.306  26.768   7.350
 6963POPC   C1B47647  25.321  26.544   6.450
 6963POPC   C2B47648  25.382  26.586   6.750
 6963POPC   C3B47649  25.371  26.586   7.050
 6963POPC   C4B47650  25.306  26.603   7.350
 6964POPC   NC347651   4.322  19.843   5.550
 6964POPC   PO447652   4.294  19.836   5.850
 6964POPC   GL147653   4.283  19.815   6.150
 6964POPC   GL247654   4.344  19.981   6.150
 6964POPC   C1A47655   4.362  19.882   6.450
 6964POPC   D2A47656   4.352  19.883   6.750
 6964POPC   C3A47657   4.271  19.873   7.050
 6964POPC   C4A47658   4.310  19.787   7.350
 6964POPC   C1B47659   4.413  20.092   6.450
 6964POPC   C2B47660   4.435  20.013   6.750
 6964POPC   C3B47661   4.454  20.061   7.050
 6964POPC   C4B47662   4.397  20.012   7.350
 6965POPC   NC347663  14.357  22.148   5.550
 6965POPC   PO447664  14.448  22.133   5.850
 6965POPC   GL147665  14.430  22.162   6.150
 6965POPC   GL247666  14.463  22.053   6.150
 6965POPC   C1A47667  14.367  22.118   6.450
 6965POPC   D2A47668  14.360  22.115   6.750
 6965POPC   C3A47669  14.367  22.159   7.050
 6965POPC   C4A47670  14.404  22.142   7.350
 6965POPC   C1B47671  14.570  22.005   6.450
 6965POPC   C2B47672  14.539  21.942   6.750
 6965POPC   C3B47673  14.598  21.936   7.050
 6965POPC   C4B47674  14.567  21.922   7.350
 6966POPC   NC347675  40.754  38.471   5.550
 6966POPC   PO447676  40.825  38.495   5.850
 6966POPC   GL147677  40.784  38.412   6.150
 6966POPC   GL247678  40.870  38.548   6.150
 6966POPC   C1A47679  40.795  38.448   6.450
 6966POPC   D2A47680  40.801  38.480   6.750
 6966POPC   C3A47681  40.742  38.464   7.050
 6966POPC   C4A47682  40.735  38.442   7.350
 6966POPC   C1B47683  40.975  38.536   6.450
 6966POPC   C2B47684  40.995  38.526   6.750
 6966POPC   C3B47685  41.034  38.539   7.050
 6966POPC   C4B47686  40.993  38.558   7.350
 6967POPC   NC347687  18.321   5.907   5.550
 6967POPC   PO447688  18.328   5.847   5.850
 6967POPC   GL147689  18.274   5.822   6.150
 6967POPC   GL247690  18.318   6.001   6.150
 6967POPC   C1A47691  18.330   5.903   6.450
 6967POPC   D2A47692  18.264   5.885   6.750
 6967POPC   C3A47693  18.309   5.866   7.050
 6967POPC   C4A47694  18.285   5.885   7.350
 6967POPC   C1B47695  18.372   6.093   6.450
 6967POPC   C2B47696  18.294   6.133   6.750
 6967POPC   C3B47697  18.317   6.114   7.050
 6967POPC   C4B47698  18.357   6.073   7.350
 6968POPC   NC347699  32.274  10.519   5.550
 6968POPC   PO447700  32.245  10.487   5.850
 6968POPC   GL147701  32.239  10.511   6.150
 6968POPC   GL247702  32.349  10.432   6.150
 6968POPC   C1A47703  32.270  10.520   6.450
 6968POPC   D2A47704  32.205  10.569   6.750
 6968POPC   C3A47705  32.201  10.546   7.050
 6968POPC   C4A47706  32.297  10.522   7.350
 6968POPC   C1B47707  32.363  10.260   6.450
 6968POPC   C2B47708  32.380  10.308   6.750
 6968POPC   C3B47709  32.408  10.322   7.050
 6968POPC   C4B47710  32.360  10.300   7.350
 6969POPC   NC347711  40.798   7.430   5.550
 6969POPC   PO447712  40.802   7.409   5.850
 6969POPC   GL147713  40.767   7.451   6.150
 6969POPC   GL247714  40.906   7.347   6.150
 6969POPC   C1A47715  40.752   7.454   6.450
 6969POPC   D2A47716  40.768   7.397   6.750
 6969POPC   C3A47717  40.747   7.401   7.050
 6969POPC   C4A47718  40.769   7.402   7.350
 6969POPC   C1B47719  40.986   7.228   6.450
 6969POPC   C2B47720  40.988   7.210   6.750
 6969POPC   C3B47721  41.005   7.267   7.050
 6969POPC   C4B47722  40.979   7.221   7.350
 6970POPC   NC347723  44.670   3.566   5.550
 6970POPC   PO447724  44.661   3.584   5.850
 6970POPC   GL147725  44.634   3.582   6.150
 6970POPC   GL247726  44.554   3.479   6.150
 6970POPC   C1A47727  44.644   3.522   6.450
 6970POPC   D2A47728  44.626   3.522   6.750
 6970POPC   C3A47729  44.674   3.578   7.050
 6970POPC   C4A47730  44.676   3.520   7.350
 6970POPC   C1B47731  44.447   3.489   6.450
 6970POPC   C2B47732  44.404   3.468   6.750
 6970POPC   C3B47733  44.468   3.487   7.050
 6970POPC   C4B47734  44.426   3.535   7.350
 6971POPC   NC347735   4.326   3.504   5.550
 6971POPC   PO447736   4.309   3.579   5.850
 6971POPC   GL147737   4.327   3.538   6.150
 6971POPC   GL247738   4.342   3.393   6.150
 6971POPC   C1A47739   4.275   3.555   6.450
 6971POPC   D2A47740   4.272   3.515   6.750
 6971POPC   C3A47741   4.349   3.537   7.050
 6971POPC   C4A47742   4.363   3.508   7.350
 6971POPC   C1B47743   4.438   3.374   6.450
 6971POPC   C2B47744   4.418   3.314   6.750
 6971POPC   C3B47745   4.494   3.332   7.050
 6971POPC   C4B47746   4.410   3.358   7.350
 6972POPC   NC347747  22.896   3.503   5.550
 6972POPC   PO447748  22.914   3.525   5.850
 6972POPC   GL147749  22.949   3.534   6.150
 6972POPC   GL247750  22.841   3.474   6.150
 6972POPC   C1A47751  22.920   3.502   6.450
 6972POPC   D2A47752  22.943   3.498   6.750
 6972POPC   C3A47753  22.923   3.523   7.050
 6972POPC   C4A47754  22.927   3.565   7.350
 6972POPC   C1B47755  22.702   3.428   6.450
 6972POPC   C2B47756  22.662   3.505   6.750
 6972POPC   C3B47757  22.657   3.439   7.050
 6972POPC   C4B47758  22.715   3.471   7.350
 6973POPC   NC347759  12.850  12.803   5.550
 6973POPC   PO447760  12.863  12.813   5.850
 6973POPC   GL147761  12.819  12.828   6.150
 6973POPC   GL247762  12.710  12.879   6.150
 6973POPC   C1A47763  12.876  12.854   6.450
 6973POPC   D2A47764  12.836  12.889   6.750
 6973POPC   C3A47765  12.896  12.860   7.050
 6973POPC   C4A47766  12.826  12.882   7.350
 6973POPC   C1B47767  12.600  12.917   6.450
 6973POPC   C2B47768  12.588  12.967   6.750
 6973POPC   C3B47769  12.602  12.958   7.050
 6973POPC   C4B47770  12.574  12.903   7.350
 6974POPC   NC347771  42.316  15.213   5.550
 6974POPC   PO447772  42.352  15.205   5.850
 6974POPC   GL147773  42.343  15.195   6.150
 6974POPC   GL247774  42.279  15.300   6.150
 6974POPC   C1A47775  42.324  15.220   6.450
 6974POPC   D2A47776  42.285  15.150   6.750
 6974POPC   C3A47777  42.330  15.219   7.050
 6974POPC   C4A47778  42.306  15.221   7.350
 6974POPC   C1B47779  42.278  15.424   6.450
 6974POPC   C2B47780  42.295  15.408   6.750
 6974POPC   C3B47781  42.306  15.452   7.050
 6974POPC   C4B47782  42.288  15.416   7.350
 6975POPC   NC347783  12.892   0.468   5.550
 6975POPC   PO447784  12.898   0.402   5.850
 6975POPC   GL147785  12.827   0.397   6.150
 6975POPC   GL247786  12.828   0.289   6.150
 6975POPC   C1A47787  12.823   0.478   6.450
 6975POPC   D2A47788  12.887   0.484   6.750
 6975POPC   C3A47789  12.877   0.456   7.050
 6975POPC   C4A47790  12.802   0.413   7.350
 6975POPC   C1B47791  12.793   0.198   6.450
 6975POPC   C2B47792  12.784   0.190   6.750
 6975POPC   C3B47793  12.753   0.148   7.050
 6975POPC   C4B47794  12.780   0.242   7.350
 6976POPC   NC347795  36.889  16.686   5.550
 6976POPC   PO447796  36.906  16.778   5.850
 6976POPC   GL147797  36.900  16.731   6.150
 6976POPC   GL247798  36.851  16.871   6.150
 6976POPC   C1A47799  36.898  16.743   6.450
 6976POPC   D2A47800  36.889  16.717   6.750
 6976POPC   C3A47801  36.932  16.766   7.050
 6976POPC   C4A47802  36.894  16.689   7.350
 6976POPC   C1B47803  36.747  16.967   6.450
 6976POPC   C2B47804  36.729  16.937   6.750
 6976POPC   C3B47805  36.704  16.925   7.050
 6976POPC   C4B47806  36.727  16.957   7.350
 6977POPC   NC347807  14.404   0.388   5.550
 6977POPC   PO447808  14.433   0.457   5.850
 6977POPC   GL147809  14.393   0.449   6.150
 6977POPC   GL247810  14.554   0.339   6.150
 6977POPC   C1A47811  14.396   0.479   6.450
 6977POPC   D2A47812  14.385   0.432   6.750
 6977POPC   C3A47813  14.397   0.396   7.050
 6977POPC   C4A47814  14.450   0.404   7.350
 6977POPC   C1B47815  14.586   0.290   6.450
 6977POPC   C2B47816  14.657   0.294   6.750
 6977POPC   C3B47817  14.650   0.341   7.050
 6977POPC   C4B47818  14.656   0.310   7.350
 6978POPC   NC347819  23.717  26.810   5.550
 6978POPC   PO447820  23.731  26.859   5.850
 6978POPC   GL147821  23.693  26.825   6.150
 6978POPC   GL247822  23.760  26.774   6.150
 6978POPC   C1A47823  23.671  26.775   6.450
 6978POPC   D2A47824  23.736  26.786   6.750
 6978POPC   C3A47825  23.692  26.806   7.050
 6978POPC   C4A47826  23.679  26.790   7.350
 6978POPC   C1B47827  23.904  26.687   6.450
 6978POPC   C2B47828  23.889  26.633   6.750
 6978POPC   C3B47829  23.934  26.696   7.050
 6978POPC   C4B47830  23.930  26.670   7.350
 6979POPC   NC347831   1.205  29.942   5.550
 6979POPC   PO447832   1.250  29.892   5.850
 6979POPC   GL147833   1.218  29.901   6.150
 6979POPC   GL247834   1.354  30.029   6.150
 6979POPC   C1A47835   1.179  29.926   6.450
 6979POPC   D2A47836   1.235  29.961   6.750
 6979POPC   C3A47837   1.212  29.947   7.050
 6979POPC   C4A47838   1.217  29.917   7.350
 6979POPC   C1B47839   1.415  30.044   6.450
 6979POPC   C2B47840   1.386  30.089   6.750
 6979POPC   C3B47841   1.376  30.127   7.050
 6979POPC   C4B47842   1.453  30.099   7.350
 6980POPC   NC347843  20.581  40.782   5.550
 6980POPC   PO447844  20.631  40.773   5.850
 6980POPC   GL147845  20.639  40.808   6.150
 6980POPC   GL247846  20.560  40.652   6.150
 6980POPC   C1A47847  20.656  40.735   6.450
 6980POPC   D2A47848  20.581  40.798   6.750
 6980POPC   C3A47849  20.657  40.734   7.050
 6980POPC   C4A47850  20.622  40.823   7.350
 6980POPC   C1B47851  20.480  40.612   6.450
 6980POPC   C2B47852  20.517  40.578   6.750
 6980POPC   C3B47853  20.458  40.551   7.050
 6980POPC   C4B47854  20.518  40.569   7.350
 6981POPC   NC347855  36.107  39.208   5.550
 6981POPC   PO447856  36.083  39.274   5.850
 6981POPC   GL147857  36.158  39.228   6.150
 6981POPC   GL247858  36.131  39.308   6.150
 6981POPC   C1A47859  36.145  39.197   6.450
 6981POPC   D2A47860  36.161  39.239   6.750
 6981POPC   C3A47861  36.121  39.214   7.050
 6981POPC   C4A47862  36.130  39.243   7.350
 6981POPC   C1B47863  36.058  39.473   6.450
 6981POPC   C2B47864  36.070  39.447   6.750
 6981POPC   C3B47865  36.034  39.517   7.050
 6981POPC   C4B47866  36.025  39.502   7.350
 6982POPC   NC347867  13.599  35.362   5.550
 6982POPC   PO447868  13.650  35.319   5.850
 6982POPC   GL147869  13.632  35.392   6.150
 6982POPC   GL247870  13.545  35.370   6.150
 6982POPC   C1A47871  13.624  35.400   6.450
 6982POPC   D2A47872  13.636  35.381   6.750
 6982POPC   C3A47873  13.638  35.384   7.050
 6982POPC   C4A47874  13.605  35.332   7.350
 6982POPC   C1B47875  13.426  35.302   6.450
 6982POPC   C2B47876  13.421  35.260   6.750
 6982POPC   C3B47877  13.401  35.320   7.050
 6982POPC   C4B47878  13.417  35.260   7.350
 6983POPC   NC347879  42.299  24.515   5.550
 6983POPC   PO447880  42.368  24.490   5.850
 6983POPC   GL147881  42.338  24.450   6.150
 6983POPC   GL247882  42.357  24.412   6.150
 6983POPC   C1A47883  42.319  24.505   6.450
 6983POPC   D2A47884  42.285  24.446   6.750
 6983POPC   C3A47885  42.360  24.501   7.050
 6983POPC   C4A47886  42.316  24.524   7.350
 6983POPC   C1B47887  42.469  24.221   6.450
 6983POPC   C2B47888  42.417  24.298   6.750
 6983POPC   C3B47889  42.479  24.304   7.050
 6983POPC   C4B47890  42.485  24.263   7.350
 6984POPC   NC347891  38.420   2.017   5.550
 6984POPC   PO447892  38.502   1.980   5.850
 6984POPC   GL147893  38.415   1.958   6.150
 6984POPC   GL247894  38.341   1.994   6.150
 6984POPC   C1A47895  38.487   2.021   6.450
 6984POPC   D2A47896  38.447   1.991   6.750
 6984POPC   C3A47897  38.415   2.011   7.050
 6984POPC   C4A47898  38.446   2.011   7.350
 6984POPC   C1B47899  38.190   2.074   6.450
 6984POPC   C2B47900  38.219   2.040   6.750
 6984POPC   C3B47901  38.259   2.050   7.050
 6984POPC   C4B47902  38.247   2.064   7.350
 6985POPC   NC347903  39.998   2.735   5.550
 6985POPC   PO447904  40.054   2.772   5.850
 6985POPC   GL147905  39.973   2.776   6.150
 6985POPC   GL247906  39.898   2.810   6.150
 6985POPC   C1A47907  40.007   2.791   6.450
 6985POPC   D2A47908  39.969   2.795   6.750
 6985POPC   C3A47909  39.997   2.755   7.050
 6985POPC   C4A47910  39.965   2.746   7.350
 6985POPC   C1B47911  39.857   2.922   6.450
 6985POPC   C2B47912  39.791   2.888   6.750
 6985POPC   C3B47913  39.794   2.897   7.050
 6985POPC   C4B47914  39.778   2.973   7.350
 6986POPC   NC347915   1.169   7.448   5.550
 6986POPC   PO447916   1.212   7.463   5.850
 6986POPC   GL147917   1.249   7.384   6.150
 6986POPC   GL247918   1.155   7.346   6.150
 6986POPC   C1A47919   1.209   7.397   6.450
 6986POPC   D2A47920   1.220   7.394   6.750
 6986POPC   C3A47921   1.165   7.402   7.050
 6986POPC   C4A47922   1.198   7.444   7.350
 6986POPC   C1B47923   1.136   7.200   6.450
 6986POPC   C2B47924   1.111   7.194   6.750
 6986POPC   C3B47925   1.094   7.172   7.050
 6986POPC   C4B47926   1.171   7.155   7.350
 6987POPC   NC347927   2.717  14.378   5.550
 6987POPC   PO447928   2.743  14.395   5.850
 6987POPC   GL147929   2.742  14.442   6.150
 6987POPC   GL247930   2.756  14.528   6.150
 6987POPC   C1A47931   2.757  14.383   6.450
 6987POPC   D2A47932   2.813  14.413   6.750
 6987POPC   C3A47933   2.805  14.374   7.050
 6987POPC   C4A47934   2.751  14.375   7.350
 6987POPC   C1B47935   2.672  14.624   6.450
 6987POPC   C2B47936   2.628  14.586   6.750
 6987POPC   C3B47937   2.635  14.664   7.050
 6987POPC   C4B47938   2.633  14.584   7.350
 6988POPC   NC347939  16.690  33.752   5.550
 6988POPC   PO447940  16.701  33.766   5.850
 6988POPC   GL147941  16.731  33.844   6.150
 6988POPC   GL247942  16.809  33.758   6.150
 6988POPC   C1A47943  16.700  33.841   6.450
 6988POPC   D2A47944  16.699  33.843   6.750
 6988POPC   C3A47945  16.731  33.830   7.050
 6988POPC   C4A47946  16.701  33.823   7.350
 6988POPC   C1B47947  16.944  33.786   6.450
 6988POPC   C2B47948  16.976  33.787   6.750
 6988POPC   C3B47949  16.975  33.788   7.050
 6988POPC   C4B47950  16.987  33.775   7.350
 6989POPC   NC347951  15.169  23.749   5.550
 6989POPC   PO447952  15.151  23.713   5.850
 6989POPC   GL147953  15.221  23.749   6.150
 6989POPC   GL247954  15.026  23.664   6.150
 6989POPC   C1A47955  15.209  23.723   6.450
 6989POPC   D2A47956  15.211  23.733   6.750
 6989POPC   C3A47957  15.145  23.736   7.050
 6989POPC   C4A47958  15.212  23.758   7.350
 6989POPC   C1B47959  14.960  23.727   6.450
 6989POPC   C2B47960  14.934  23.722   6.750
 6989POPC   C3B47961  14.968  23.662   7.050
 6989POPC   C4B47962  14.937  23.669   7.350
 6990POPC   NC347963  29.188  15.214   5.550
 6990POPC   PO447964  29.165  15.159   5.850
 6990POPC   GL147965  29.126  15.153   6.150
 6990POPC   GL247966  29.044  15.108   6.150
 6990POPC   C1A47967  29.149  15.209   6.450
 6990POPC   D2A47968  29.190  15.217   6.750
 6990POPC   C3A47969  29.152  15.159   7.050
 6990POPC   C4A47970  29.106  15.173   7.350
 6990POPC   C1B47971  28.947  14.997   6.450
 6990POPC   C2B47972  29.018  15.033   6.750
 6990POPC   C3B47973  28.992  14.954   7.050
 6990POPC   C4B47974  28.954  15.016   7.350
 6991POPC   NC347975  12.895   3.570   5.550
 6991POPC   PO447976  12.832   3.559   5.850
 6991POPC   GL147977  12.818   3.589   6.150
 6991POPC   GL247978  12.899   3.497   6.150
 6991POPC   C1A47979  12.833   3.583   6.450
 6991POPC   D2A47980  12.811   3.569   6.750
 6991POPC   C3A47981  12.809   3.551   7.050
 6991POPC   C4A47982  12.816   3.563   7.350
 6991POPC   C1B47983  13.005   3.359   6.450
 6991POPC   C2B47984  12.988   3.392   6.750
 6991POPC   C3B47985  12.994   3.391   7.050
 6991POPC   C4B47986  13.012   3.321   7.350
 6992POPC   NC347987   2.808  37.652   5.550
 6992POPC   PO447988   2.777  37.702   5.850
 6992POPC   GL147989   2.782  37.667   6.150
 6992POPC   GL247990   2.652  37.785   6.150
 6992POPC   C1A47991   2.736  37.706   6.450
 6992POPC   D2A47992   2.784  37.714   6.750
 6992POPC   C3A47993   2.770  37.641   7.050
 6992POPC   C4A47994   2.795  37.638   7.350
 6992POPC   C1B47995   2.532  37.815   6.450
 6992POPC   C2B47996   2.615  37.860   6.750
 6992POPC   C3B47997   2.569  37.818   7.050
 6992POPC   C4B47998   2.552  37.863   7.350
 6993POPC   NC347999  37.663  12.830   5.550
 6993POPC   PO448000  37.723  12.811   5.850
 6993POPC   GL148001  37.663  12.823   6.150
 6993POPC   GL248002  37.605  12.695   6.150
 6993POPC   C1A48003  37.632  12.880   6.450
 6993POPC   D2A48004  37.631  12.885   6.750
 6993POPC   C3A48005  37.636  12.803   7.050
 6993POPC   C4A48006  37.687  12.882   7.350
 6993POPC   C1B48007  37.537  12.625   6.450
 6993POPC   C2B48008  37.532  12.627   6.750
 6993POPC   C3B48009  37.558  12.611   7.050
 6993POPC   C4B48010  37.582  12.629   7.350
 6994POPC   NC348011  14.422  19.788   5.550
 6994POPC   PO448012  14.366  19.829   5.850
 6994POPC   GL148013  14.412  19.828   6.150
 6994POPC   GL248014  14.530  19.870   6.150
 6994POPC   C1A48015  14.409  19.826   6.450
 6994POPC   D2A48016  14.394  19.823   6.750
 6994POPC   C3A48017  14.453  19.877   7.050
 6994POPC   C4A48018  14.424  19.872   7.350
 6994POPC   C1B48019  14.643  19.858   6.450
 6994POPC   C2B48020  14.669  19.825   6.750
 6994POPC   C3B48021  14.613  19.870   7.050
 6994POPC   C4B48022  14.664  19.869   7.350
 6995POPC   NC348023  28.348   8.150   5.550
 6995POPC   PO448024  28.339   8.175   5.850
 6995POPC   GL148025  28.343   8.224   6.150
 6995POPC   GL248026  28.388   8.032   6.150
 6995POPC   C1A48027  28.361   8.183   6.450
 6995POPC   D2A48028  28.373   8.148   6.750
 6995POPC   C3A48029  28.366   8.159   7.050
 6995POPC   C4A48030  28.349   8.227   7.350
 6995POPC   C1B48031  28.322   7.957   6.450
 6995POPC   C2B48032  28.343   7.986   6.750
 6995POPC   C3B48033  28.418   7.944   7.050
 6995POPC   C4B48034  28.352   7.917   7.350
 6996POPC   NC348035  12.094  42.376   5.550
 6996POPC   PO448036  12.062  42.322   5.850
 6996POPC   GL148037  12.095  42.380   6.150
 6996POPC   GL248038  12.166  42.323   6.150
 6996POPC   C1A48039  12.054  42.369   6.450
 6996POPC   D2A48040  12.048  42.343   6.750
 6996POPC   C3A48041  12.085  42.292   7.050
 6996POPC   C4A48042  12.055  42.331   7.350
 6996POPC   C1B48043  12.265  42.208   6.450
 6996POPC   C2B48044  12.296  42.198   6.750
 6996POPC   C3B48045  12.261  42.221   7.050
 6996POPC   C4B48046  12.297  42.222   7.350
 6997POPC   NC348047  43.144  16.692   5.550
 6997POPC   PO448048  43.123  16.704   5.850
 6997POPC   GL148049  43.073  16.778   6.150
 6997POPC   GL248050  43.215  16.691   6.150
 6997POPC   C1A48051  43.108  16.753   6.450
 6997POPC   D2A48052  43.099  16.775   6.750
 6997POPC   C3A48053  43.092  16.744   7.050
 6997POPC   C4A48054  43.100  16.773   7.350
 6997POPC   C1B48055  43.311  16.566   6.450
 6997POPC   C2B48056  43.314  16.573   6.750
 6997POPC   C3B48057  43.354  16.543   7.050
 6997POPC   C4B48058  43.322  16.583   7.350
 6998POPC   NC348059  23.711  36.915   5.550
 6998POPC   PO448060  23.742  36.894   5.850
 6998POPC   GL148061  23.713  36.931   6.150
 6998POPC   GL248062  23.801  36.869   6.150
 6998POPC   C1A48063  23.739  36.902   6.450
 6998POPC   D2A48064  23.751  36.953   6.750
 6998POPC   C3A48065  23.732  36.901   7.050
 6998POPC   C4A48066  23.756  36.939   7.350
 6998POPC   C1B48067  23.966  36.851   6.450
 6998POPC   C2B48068  23.949  36.794   6.750
 6998POPC   C3B48069  23.936  36.863   7.050
 6998POPC   C4B48070  23.985  36.862   7.350
 6999POPC   NC348071   5.051  12.106   5.550
 6999POPC   PO448072   5.130  12.083   5.850
 6999POPC   GL148073   5.069  12.111   6.150
 6999POPC   GL248074   4.961  12.138   6.150
 6999POPC   C1A48075   5.080  12.115   6.450
 6999POPC   D2A48076   5.044  12.064   6.750
 6999POPC   C3A48077   5.077  12.036   7.050
 6999POPC   C4A48078   5.046  12.040   7.350
 6999POPC   C1B48079   4.844  12.080   6.450
 6999POPC   C2B48080   4.858  12.086   6.750
 6999POPC   C3B48081   4.816  12.146   7.050
 6999POPC   C4B48082   4.829  12.064   7.350
 7000POPC   NC348083  19.067  18.248   5.550
 7000POPC   PO448084  19.068  18.233   5.850
 7000POPC   GL148085  19.076  18.295   6.150
 7000POPC   GL248086  19.126  18.361   6.150
 7000POPC   C1A48087  19.067  18.243   6.450
 7000POPC   D2A48088  19.053  18.323   6.750
 7000POPC   C3A48089  19.046  18.278   7.050
 7000POPC   C4A48090  19.093  18.332   7.350
 7000POPC   C1B48091  19.248  18.428   6.450
 7000POPC   C2B48092  19.234  18.437   6.750
 7000POPC   C3B48093  19.250  18.365   7.050
 7000POPC   C4B48094  19.277  18.449   7.350
 7001POPC   NC348095  14.374  31.484   5.550
 7001POPC   PO448096  14.420  31.496   5.850
 7001POPC   GL148097  14.379  31.446   6.150
 7001POPC   GL248098  14.419  31.366   6.150
 7001POPC   C1A48099  14.396  31.453   6.450
 7001POPC   D2A48100  14.384  31.521   6.750
 7001POPC   C3A48101  14.379  31.454   7.050
 7001POPC   C4A48102  14.411  31.496   7.350
 7001POPC   C1B48103  14.500  31.229   6.450
 7001POPC   C2B48104  14.452  31.267   6.750
 7001POPC   C3B48105  14.498  31.192   7.050
 7001POPC   C4B48106  14.459  31.250   7.350
 7002POPC   NC348107  24.514  33.062   5.550
 7002POPC   PO448108  24.505  33.063   5.850
 7002POPC   GL148109  24.537  33.045   6.150
 7002POPC   GL248110  24.578  32.994   6.150
 7002POPC   C1A48111  24.446  33.012   6.450
 7002POPC   D2A48112  24.440  33.036   6.750
 7002POPC   C3A48113  24.497  33.028   7.050
 7002POPC   C4A48114  24.492  32.991   7.350
 7002POPC   C1B48115  24.765  32.974   6.450
 7002POPC   C2B48116  24.743  32.938   6.750
 7002POPC   C3B48117  24.721  32.936   7.050
 7002POPC   C4B48118  24.765  32.935   7.350
 7003POPC   NC348119  33.027  40.042   5.550
 7003POPC   PO448120  32.975  40.014   5.850
 7003POPC   GL148121  33.000  40.006   6.150
 7003POPC   GL248122  33.161  40.000   6.150
 7003POPC   C1A48123  32.989  40.005   6.450
 7003POPC   D2A48124  33.065  39.966   6.750
 7003POPC   C3A48125  33.020  40.000   7.050
 7003POPC   C4A48126  33.062  40.015   7.350
 7003POPC   C1B48127  33.273  39.999   6.450
 7003POPC   C2B48128  33.305  40.041   6.750
 7003POPC   C3B48129  33.224  40.037   7.050
 7003POPC   C4B48130  33.255  40.011   7.350
 7004POPC   NC348131   2.769   9.746   5.550
 7004POPC   PO448132   2.793   9.727   5.850
 7004POPC   GL148133   2.742   9.739   6.150
 7004POPC   GL248134   2.880   9.698   6.150
 7004POPC   C1A48135   2.786   9.719   6.450
 7004POPC   D2A48136   2.726   9.701   6.750
 7004POPC   C3A48137   2.736   9.740   7.050
 7004POPC   C4A48138   2.730   9.702   7.350
 7004POPC   C1B48139   2.960   9.599   6.450
 7004POPC   C2B48140   2.922   9.593   6.750
 7004POPC   C3B48141   2.927   9.546   7.050
 7004POPC   C4B48142   2.934   9.581   7.350
 7005POPC   NC348143  38.436  43.842   5.550
 7005POPC   PO448144  38.445  43.891   5.850
 7005POPC   GL148145  38.442  43.865   6.150
 7005POPC   GL248146  38.426  43.757   6.150
 7005POPC   C1A48147  38.416  43.841   6.450
 7005POPC   D2A48148  38.473  43.876   6.750
 7005POPC   C3A48149  38.436  43.862   7.050
 7005POPC   C4A48150  38.479  43.907   7.350
 7005POPC   C1B48151  38.529  43.592   6.450
 7005POPC   C2B48152  38.490  43.655   6.750
 7005POPC   C3B48153  38.523  43.623   7.050
 7005POPC   C4B48154  38.518  43.658   7.350
 7006POPC   NC348155   3.540  19.804   5.550
 7006POPC   PO448156   3.591  19.839   5.850
 7006POPC   GL148157   3.521  19.808   6.150
 7006POPC   GL248158   3.664  19.746   6.150
 7006POPC   C1A48159   3.500  19.850   6.450
 7006POPC   D2A48160   3.567  19.876   6.750
 7006POPC   C3A48161   3.572  19.818   7.050
 7006POPC   C4A48162   3.575  19.804   7.350
 7006POPC   C1B48163   3.775  19.724   6.450
 7006POPC   C2B48164   3.749  19.744   6.750
 7006POPC   C3B48165   3.820  19.785   7.050
 7006POPC   C4B48166   3.762  19.760   7.350
 7007POPC   NC348167   7.413  40.005   5.550
 7007POPC   PO448168   7.407  39.958   5.850
 7007POPC   GL148169   7.424  40.029   6.150
 7007POPC   GL248170   7.478  40.154   6.150
 7007POPC   C1A48171   7.469  39.991   6.450
 7007POPC   D2A48172   7.467  39.958   6.750
 7007POPC   C3A48173   7.415  40.036   7.050
 7007POPC   C4A48174   7.406  40.022   7.350
 7007POPC   C1B48175   7.511  40.202   6.450
 7007POPC   C2B48176   7.554  40.281   6.750
 7007POPC   C3B48177   7.493  40.271   7.050
 7007POPC   C4B48178   7.518  40.214   7.350
 7008POPC   NC348179  37.723  36.133   5.550
 7008POPC   PO448180  37.681  36.114   5.850
 7008POPC   GL148181  37.647  36.133   6.150
 7008POPC   GL248182  37.775  36.139   6.150
 7008POPC   C1A48183  37.634  36.140   6.450
 7008POPC   D2A48184  37.641  36.094   6.750
 7008POPC   C3A48185  37.663  36.119   7.050
 7008POPC   C4A48186  37.643  36.173   7.350
 7008POPC   C1B48187  37.886  36.130   6.450
 7008POPC   C2B48188  37.978  36.107   6.750
 7008POPC   C3B48189  37.915  36.082   7.050
 7008POPC   C4B48190  37.888  36.120   7.350
 7009POPC   NC348191  19.823   5.121   5.550
 7009POPC   PO448192  19.814   5.065   5.850
 7009POPC   GL148193  19.853   5.047   6.150
 7009POPC   GL248194  19.937   5.007   6.150
 7009POPC   C1A48195  19.840   5.105   6.450
 7009POPC   D2A48196  19.859   5.049   6.750
 7009POPC   C3A48197  19.861   5.054   7.050
 7009POPC   C4A48198  19.877   5.091   7.350
 7009POPC   C1B48199  19.949   4.856   6.450
 7009POPC   C2B48200  19.920   4.830   6.750
 7009POPC   C3B48201  19.962   4.894   7.050
 7009POPC   C4B48202  19.979   4.868   7.350
 7010POPC   NC348203  28.327  31.509   5.550
 7010POPC   PO448204  28.367  31.500   5.850
 7010POPC   GL148205  28.335  31.504   6.150
 7010POPC   GL248206  28.209  31.470   6.150
 7010POPC   C1A48207  28.418  31.476   6.450
 7010POPC   D2A48208  28.369  31.471   6.750
 7010POPC   C3A48209  28.325  31.493   7.050
 7010POPC   C4A48210  28.394  31.472   7.350
 7010POPC   C1B48211  28.160  31.369   6.450
 7010POPC   C2B48212  28.078  31.455   6.750
 7010POPC   C3B48213  28.132  31.462   7.050
 7010POPC   C4B48214  28.101  31.445   7.350
 7011POPC   NC348215  39.240  11.342   5.550
 7011POPC   PO448216  39.217  11.345   5.850
 7011POPC   GL148217  39.223  11.273   6.150
 7011POPC   GL248218  39.138  11.370   6.150
 7011POPC   C1A48219  39.245  11.315   6.450
 7011POPC   D2A48220  39.221  11.296   6.750
 7011POPC   C3A48221  39.225  11.348   7.050
 7011POPC   C4A48222  39.229  11.265   7.350
 7011POPC   C1B48223  39.001  11.488   6.450
 7011POPC   C2B48224  39.003  11.482   6.750
 7011POPC   C3B48225  39.036  11.434   7.050
 7011POPC   C4B48226  39.077  11.482   7.350
 7012POPC   NC348227  27.562  28.368   5.550
 7012POPC   PO448228  27.545  28.339   5.850
 7012POPC   GL148229  27.616  28.395   6.150
 7012POPC   GL248230  27.438  28.343   6.150
 7012POPC   C1A48231  27.591  28.339   6.450
 7012POPC   D2A48232  27.642  28.382   6.750
 7012POPC   C3A48233  27.570  28.406   7.050
 7012POPC   C4A48234  27.594  28.397   7.350
 7012POPC   C1B48235  27.415  28.228   6.450
 7012POPC   C2B48236  27.332  28.237   6.750
 7012POPC   C3B48237  27.388  28.237   7.050
 7012POPC   C4B48238  27.361  28.282   7.350
 7013POPC   NC348239  14.388  27.580   5.550
 7013POPC   PO448240  14.382  27.575   5.850
 7013POPC   GL148241  14.373  27.548   6.150
 7013POPC   GL248242  14.330  27.577   6.150
 7013POPC   C1A48243  14.375  27.630   6.450
 7013POPC   D2A48244  14.366  27.571   6.750
 7013POPC   C3A48245  14.378  27.580   7.050
 7013POPC   C4A48246  14.427  27.619   7.350
 7013POPC   C1B48247  14.140  27.665   6.450
 7013POPC   C2B48248  14.192  27.644   6.750
 7013POPC   C3B48249  14.134  27.654   7.050
 7013POPC   C4B48250  14.151  27.610   7.350
 7014POPC   NC348251   7.460  42.305   5.550
 7014POPC   PO448252   7.401  42.326   5.850
 7014POPC   GL148253   7.418  42.382   6.150
 7014POPC   GL248254   7.321  42.278   6.150
 7014POPC   C1A48255   7.385  42.326   6.450
 7014POPC   D2A48256   7.425  42.302   6.750
 7014POPC   C3A48257   7.398  42.369   7.050
 7014POPC   C4A48258   7.444  42.319   7.350
 7014POPC   C1B48259   7.234  42.149   6.450
 7014POPC   C2B48260   7.229  42.122   6.750
 7014POPC   C3B48261   7.262  42.186   7.050
 7014POPC   C4B48262   7.229  42.096   7.350
 7015POPC   NC348263  33.832  21.387   5.550
 7015POPC   PO448264  33.837  21.351   5.850
 7015POPC   GL148265  33.833  21.393   6.150
 7015POPC   GL248266  33.683  21.329   6.150
 7015POPC   C1A48267  33.754  21.357   6.450
 7015POPC   D2A48268  33.806  21.378   6.750
 7015POPC   C3A48269  33.819  21.421   7.050
 7015POPC   C4A48270  33.832  21.430   7.350
 7015POPC   C1B48271  33.584  21.277   6.450
 7015POPC   C2B48272  33.614  21.308   6.750
 7015POPC   C3B48273  33.587  21.252   7.050
 7015POPC   C4B48274  33.554  21.303   7.350
 7016POPC   NC348275  23.689   4.314   5.550
 7016POPC   PO448276  23.711   4.309   5.850
 7016POPC   GL148277  23.696   4.305   6.150
 7016POPC   GL248278  23.543   4.299   6.150
 7016POPC   C1A48279  23.749   4.304   6.450
 7016POPC   D2A48280  23.751   4.335   6.750
 7016POPC   C3A48281  23.704   4.358   7.050
 7016POPC   C4A48282  23.711   4.331   7.350
 7016POPC   C1B48283  23.451   4.281   6.450
 7016POPC   C2B48284  23.498   4.323   6.750
 7016POPC   C3B48285  23.510   4.288   7.050
 7016POPC   C4B48286  23.437   4.355   7.350
 7017POPC   NC348287  15.170  38.413   5.550
 7017POPC   PO448288  15.218  38.504   5.850
 7017POPC   GL148289  15.167  38.460   6.150
 7017POPC   GL248290  15.213  38.353   6.150
 7017POPC   C1A48291  15.200  38.427   6.450
 7017POPC   D2A48292  15.174  38.431   6.750
 7017POPC   C3A48293  15.157  38.470   7.050
 7017POPC   C4A48294  15.229  38.481   7.350
 7017POPC   C1B48295  15.217  38.170   6.450
 7017POPC   C2B48296  15.217  38.211   6.750
 7017POPC   C3B48297  15.169  38.169   7.050
 7017POPC   C4B48298  15.256  38.244   7.350
 7018POPC   NC348299   8.162   1.235   5.550
 7018POPC   PO448300   8.190   1.251   5.850
 7018POPC   GL148301   8.193   1.192   6.150
 7018POPC   GL248302   8.029   1.273   6.150
 7018POPC   C1A48303   8.184   1.263   6.450
 7018POPC   D2A48304   8.215   1.170   6.750
 7018POPC   C3A48305   8.246   1.258   7.050
 7018POPC   C4A48306   8.194   1.175   7.350
 7018POPC   C1B48307   7.965   1.281   6.450
 7018POPC   C2B48308   7.916   1.329   6.750
 7018POPC   C3B48309   7.979   1.257   7.050
 7018POPC   C4B48310   7.930   1.306   7.350
 7019POPC   NC348311  31.477   6.604   5.550
 7019POPC   PO448312  31.506   6.598   5.850
 7019POPC   GL148313  31.447   6.693   6.150
 7019POPC   GL248314  31.351   6.543   6.150
 7019POPC   C1A48315  31.463   6.646   6.450
 7019POPC   D2A48316  31.457   6.610   6.750
 7019POPC   C3A48317  31.436   6.627   7.050
 7019POPC   C4A48318  31.494   6.688   7.350
 7019POPC   C1B48319  31.314   6.459   6.450
 7019POPC   C2B48320  31.256   6.510   6.750
 7019POPC   C3B48321  31.257   6.510   7.050
 7019POPC   C4B48322  31.319   6.532   7.350
 7020POPC   NC348323   9.004   5.905   5.550
 7020POPC   PO448324   9.006   5.915   5.850
 7020POPC   GL148325   8.923   5.884   6.150
 7020POPC   GL248326   8.993   5.942   6.150
 7020POPC   C1A48327   8.957   5.844   6.450
 7020POPC   D2A48328   8.978   5.824   6.750
 7020POPC   C3A48329   8.999   5.841   7.050
 7020POPC   C4A48330   8.992   5.877   7.350
 7020POPC   C1B48331   8.903   6.139   6.450
 7020POPC   C2B48332   8.888   6.112   6.750
 7020POPC   C3B48333   8.938   6.110   7.050
 7020POPC   C4B48334   8.939   6.079   7.350
 7021POPC   NC348335  29.097  19.867   5.550
 7021POPC   PO448336  29.183  19.817   5.850
 7021POPC   GL148337  29.134  19.823   6.150
 7021POPC   GL248338  29.021  19.699   6.150
 7021POPC   C1A48339  29.176  19.846   6.450
 7021POPC   D2A48340  29.146  19.884   6.750
 7021POPC   C3A48341  29.164  19.826   7.050
 7021POPC   C4A48342  29.191  19.809   7.350
 7021POPC   C1B48343  28.972  19.673   6.450
 7021POPC   C2B48344  28.985  19.606   6.750
 7021POPC   C3B48345  29.041  19.600   7.050
 7021POPC   C4B48346  28.986  19.669   7.350
 7022POPC   NC348347   5.102   9.770   5.550
 7022POPC   PO448348   5.102   9.775   5.850
 7022POPC   GL148349   5.092   9.769   6.150
 7022POPC   GL248350   4.965   9.720   6.150
 7022POPC   C1A48351   5.094   9.772   6.450
 7022POPC   D2A48352   5.051   9.713   6.750
 7022POPC   C3A48353   5.140   9.746   7.050
 7022POPC   C4A48354   5.048   9.717   7.350
 7022POPC   C1B48355   4.840   9.730   6.450
 7022POPC   C2B48356   4.842   9.748   6.750
 7022POPC   C3B48357   4.802   9.710   7.050
 7022POPC   C4B48358   4.887   9.689   7.350
 7023POPC   NC348359  30.725   6.623   5.550
 7023POPC   PO448360  30.695   6.653   5.850
 7023POPC   GL148361  30.684   6.638   6.150
 7023POPC   GL248362  30.850   6.691   6.150
 7023POPC   C1A48363  30.668   6.613   6.450
 7023POPC   D2A48364  30.675   6.661   6.750
 7023POPC   C3A48365  30.728   6.666   7.050
 7023POPC   C4A48366  30.744   6.660   7.350
 7023POPC   C1B48367  30.924   6.694   6.450
 7023POPC   C2B48368  30.948   6.685   6.750
 7023POPC   C3B48369  30.938   6.664   7.050
 7023POPC   C4B48370  30.982   6.710   7.350
 7024POPC   NC348371  31.470   5.073   5.550
 7024POPC   PO448372  31.446   5.094   5.850
 7024POPC   GL148373  31.455   5.117   6.150
 7024POPC   GL248374  31.462   5.264   6.150
 7024POPC   C1A48375  31.428   5.124   6.450
 7024POPC   D2A48376  31.491   5.057   6.750
 7024POPC   C3A48377  31.494   5.050   7.050
 7024POPC   C4A48378  31.436   5.063   7.350
 7024POPC   C1B48379  31.558   5.351   6.450
 7024POPC   C2B48380  31.555   5.303   6.750
 7024POPC   C3B48381  31.546   5.297   7.050
 7024POPC   C4B48382  31.523   5.377   7.350
 7025POPC   NC348383  23.748   8.149   5.550
 7025POPC   PO448384  23.670   8.190   5.850
 7025POPC   GL148385  23.756   8.181   6.150
 7025POPC   GL248386  23.760   8.111   6.150
 7025POPC   C1A48387  23.704   8.238   6.450
 7025POPC   D2A48388  23.694   8.229   6.750
 7025POPC   C3A48389  23.744   8.203   7.050
 7025POPC   C4A48390  23.721   8.223   7.350
 7025POPC   C1B48391  23.807   7.957   6.450
 7025POPC   C2B48392  23.799   7.959   6.750
 7025POPC   C3B48393  23.849   7.965   7.050
 7025POPC   C4B48394  23.879   7.933   7.350
 7026POPC   NC348395  27.544   6.604   5.550
 7026POPC   PO448396  27.588   6.628   5.850
 7026POPC   GL148397  27.597   6.614   6.150
 7026POPC   GL248398  27.704   6.603   6.150
 7026POPC   C1A48399  27.590   6.658   6.450
 7026POPC   D2A48400  27.600   6.693   6.750
 7026POPC   C3A48401  27.548   6.642   7.050
 7026POPC   C4A48402  27.632   6.667   7.350
 7026POPC   C1B48403  27.805   6.605   6.450
 7026POPC   C2B48404  27.872   6.603   6.750
 7026POPC   C3B48405  27.811   6.598   7.050
 7026POPC   C4B48406  27.810   6.533   7.350
 7027POPC   NC348407  44.628  17.546   5.550
 7027POPC   PO448408  44.646  17.521   5.850
 7027POPC   GL148409  44.688  17.474   6.150
 7027POPC   GL248410  44.736  17.551   6.150
 7027POPC   C1A48411  44.699  17.470   6.450
 7027POPC   D2A48412  44.691  17.505   6.750
 7027POPC   C3A48413  44.684  17.459   7.050
 7027POPC   C4A48414  44.690  17.547   7.350
 7027POPC   C1B48415  44.792  17.684   6.450
 7027POPC   C2B48416  44.876  17.707   6.750
 7027POPC   C3B48417  44.825  17.709   7.050
 7027POPC   C4B48418  44.833  17.695   7.350
 7028POPC   NC348419  22.203  28.406   5.550
 7028POPC   PO448420  22.157  28.334   5.850
 7028POPC   GL148421  22.177  28.418   6.150
 7028POPC   GL248422  22.220  28.304   6.150
 7028POPC   C1A48423  22.151  28.397   6.450
 7028POPC   D2A48424  22.135  28.410   6.750
 7028POPC   C3A48425  22.205  28.321   7.050
 7028POPC   C4A48426  22.161  28.384   7.350
 7028POPC   C1B48427  22.294  28.208   6.450
 7028POPC   C2B48428  22.306  28.203   6.750
 7028POPC   C3B48429  22.350  28.202   7.050
 7028POPC   C4B48430  22.337  28.135   7.350
 7029POPC   NC348431  12.849  39.267   5.550
 7029POPC   PO448432  12.846  39.252   5.850
 7029POPC   GL148433  12.826  39.208   6.150
 7029POPC   GL248434  12.724  39.127   6.150
 7029POPC   C1A48435  12.804  39.206   6.450
 7029POPC   D2A48436  12.857  39.211   6.750
 7029POPC   C3A48437  12.844  39.230   7.050
 7029POPC   C4A48438  12.880  39.220   7.350
 7029POPC   C1B48439  12.684  39.009   6.450
 7029POPC   C2B48440  12.721  39.074   6.750
 7029POPC   C3B48441  12.648  39.004   7.050
 7029POPC   C4B48442  12.673  39.047   7.350
 7030POPC   NC348443  24.533   6.682   5.550
 7030POPC   PO448444  24.505   6.658   5.850
 7030POPC   GL148445  24.529   6.651   6.150
 7030POPC   GL248446  24.561   6.744   6.150
 7030POPC   C1A48447  24.468   6.616   6.450
 7030POPC   D2A48448  24.480   6.688   6.750
 7030POPC   C3A48449  24.527   6.644   7.050
 7030POPC   C4A48450  24.529   6.681   7.350
 7030POPC   C1B48451  24.612   6.867   6.450
 7030POPC   C2B48452  24.706   6.789   6.750
 7030POPC   C3B48453  24.660   6.865   7.050
 7030POPC   C4B48454  24.651   6.821   7.350
 7031POPC   NC348455  16.710  25.302   5.550
 7031POPC   PO448456  16.759  25.239   5.850
 7031POPC   GL148457  16.732  25.265   6.150
 7031POPC   GL248458  16.755  25.188   6.150
 7031POPC   C1A48459  16.685  25.217   6.450
 7031POPC   D2A48460  16.758  25.309   6.750
 7031POPC   C3A48461  16.775  25.296   7.050
 7031POPC   C4A48462  16.718  25.218   7.350
 7031POPC   C1B48463  16.830  25.054   6.450
 7031POPC   C2B48464  16.813  25.041   6.750
 7031POPC   C3B48465  16.815  25.030   7.050
 7031POPC   C4B48466  16.761  24.988   7.350
 7032POPC   NC348467  30.717  40.748   5.550
 7032POPC   PO448468  30.711  40.761   5.850
 7032POPC   GL148469  30.739  40.735   6.150
 7032POPC   GL248470  30.860  40.757   6.150
 7032POPC   C1A48471  30.656  40.816   6.450
 7032POPC   D2A48472  30.703  40.790   6.750
 7032POPC   C3A48473  30.732  40.749   7.050
 7032POPC   C4A48474  30.712  40.741   7.350
 7032POPC   C1B48475  30.982  40.828   6.450
 7032POPC   C2B48476  30.970  40.812   6.750
 7032POPC   C3B48477  30.958  40.800   7.050
 7032POPC   C4B48478  30.914  40.755   7.350
 7033POPC   NC348479  44.699   6.640   5.550
 7033POPC   PO448480  44.665   6.640   5.850
 7033POPC   GL148481  44.656   6.656   6.150
 7033POPC   GL248482  44.572   6.573   6.150
 7033POPC   C1A48483  44.694   6.678   6.450
 7033POPC   D2A48484  44.628   6.692   6.750
 7033POPC   C3A48485  44.686   6.598   7.050
 7033POPC   C4A48486  44.694   6.595   7.350
 7033POPC   C1B48487  44.453   6.535   6.450
 7033POPC   C2B48488  44.417   6.552   6.750
 7033POPC   C3B48489  44.406   6.573   7.050
 7033POPC   C4B48490  44.409   6.501   7.350
 7034POPC   NC348491   5.058  40.755   5.550
 7034POPC   PO448492   5.050  40.758   5.850
 7034POPC   GL148493   5.046  40.776   6.150
 7034POPC   GL248494   5.193  40.731   6.150
 7034POPC   C1A48495   5.055  40.766   6.450
 7034POPC   D2A48496   5.130  40.800   6.750
 7034POPC   C3A48497   5.050  40.823   7.050
 7034POPC   C4A48498   5.126  40.811   7.350
 7034POPC   C1B48499   5.286  40.625   6.450
 7034POPC   C2B48500   5.306  40.631   6.750
 7034POPC   C3B48501   5.269  40.596   7.050
 7034POPC   C4B48502   5.334  40.653   7.350
 7035POPC   NC348503  36.110  12.811   5.550
 7035POPC   PO448504  36.162  12.815   5.850
 7035POPC   GL148505  36.170  12.883   6.150
 7035POPC   GL248506  35.984  12.936   6.150
 7035POPC   C1A48507  36.124  12.838   6.450
 7035POPC   D2A48508  36.175  12.889   6.750
 7035POPC   C3A48509  36.149  12.855   7.050
 7035POPC   C4A48510  36.116  12.811   7.350
 7035POPC   C1B48511  35.915  13.054   6.450
 7035POPC   C2B48512  35.896  13.035   6.750
 7035POPC   C3B48513  35.935  13.043   7.050
 7035POPC   C4B48514  35.974  12.967   7.350
 7036POPC   NC348515   8.199   7.446   5.550
 7036POPC   PO448516   8.237   7.380   5.850
 7036POPC   GL148517   8.157   7.468   6.150
 7036POPC   GL248518   8.130   7.319   6.150
 7036POPC   C1A48519   8.178   7.401   6.450
 7036POPC   D2A48520   8.179   7.389   6.750
 7036POPC   C3A48521   8.153   7.415   7.050
 7036POPC   C4A48522   8.188   7.381   7.350
 7036POPC   C1B48523   7.993   7.257   6.450
 7036POPC   C2B48524   8.029   7.285   6.750
 7036POPC   C3B48525   8.023   7.241   7.050
 7036POPC   C4B48526   7.979   7.233   7.350
 7037POPC   NC348527  36.891  38.496   5.550
 7037POPC   PO448528  36.924  38.408   5.850
 7037POPC   GL148529  36.853  38.503   6.150
 7037POPC   GL248530  37.068  38.452   6.150
 7037POPC   C1A48531  36.895  38.473   6.450
 7037POPC   D2A48532  36.869  38.418   6.750
 7037POPC   C3A48533  36.940  38.505   7.050
 7037POPC   C4A48534  36.947  38.452   7.350
 7037POPC   C1B48535  37.110  38.333   6.450
 7037POPC   C2B48536  37.122  38.407   6.750
 7037POPC   C3B48537  37.109  38.397   7.050
 7037POPC   C4B48538  37.113  38.348   7.350
 7038POPC   NC348539   5.094  34.563   5.550
 7038POPC   PO448540   5.049  34.578   5.850
 7038POPC   GL148541   5.131  34.548   6.150
 7038POPC   GL248542   5.205  34.445   6.150
 7038POPC   C1A48543   5.118  34.620   6.450
 7038POPC   D2A48544   5.063  34.616   6.750
 7038POPC   C3A48545   5.077  34.566   7.050
 7038POPC   C4A48546   5.135  34.535   7.350
 7038POPC   C1B48547   5.293  34.434   6.450
 7038POPC   C2B48548   5.242  34.398   6.750
 7038POPC   C3B48549   5.219  34.361   7.050
 7038POPC   C4B48550   5.276  34.428   7.350
 7039POPC   NC348551  24.492  19.033   5.550
 7039POPC   PO448552  24.509  19.057   5.850
 7039POPC   GL148553  24.517  19.038   6.150
 7039POPC   GL248554  24.379  19.115   6.150
 7039POPC   C1A48555  24.481  19.038   6.450
 7039POPC   D2A48556  24.534  19.086   6.750
 7039POPC   C3A48557  24.513  19.053   7.050
 7039POPC   C4A48558  24.451  19.036   7.350
 7039POPC   C1B48559  24.321  19.297   6.450
 7039POPC   C2B48560  24.369  19.287   6.750
 7039POPC   C3B48561  24.389  19.238   7.050
 7039POPC   C4B48562  24.304  19.264   7.350
 7040POPC   NC348563  28.383  22.985   5.550
 7040POPC   PO448564  28.405  22.961   5.850
 7040POPC   GL148565  28.344  22.906   6.150
 7040POPC   GL248566  28.287  22.808   6.150
 7040POPC   C1A48567  28.322  22.943   6.450
 7040POPC   D2A48568  28.375  22.951   6.750
 7040POPC   C3A48569  28.339  22.906   7.050
 7040POPC   C4A48570  28.343  22.964   7.350
 7040POPC   C1B48571  28.243  22.692   6.450
 7040POPC   C2B48572  28.280  22.691   6.750
 7040POPC   C3B48573  28.270  22.702   7.050
 7040POPC   C4B48574  28.300  22.726   7.350
 7041POPC   NC348575  32.987   7.419   5.550
 7041POPC   PO448576  32.981   7.445   5.850
 7041POPC   GL148577  33.067   7.406   6.150
 7041POPC   GL248578  33.120   7.268   6.150
 7041POPC   C1A48579  33.045   7.382   6.450
 7041POPC   D2A48580  33.024   7.388   6.750
 7041POPC   C3A48581  33.046   7.404   7.050
 7041POPC   C4A48582  33.074   7.442   7.350
 7041POPC   C1B48583  33.181   7.219   6.450
 7041POPC   C2B48584  33.134   7.201   6.750
 7041POPC   C3B48585  33.139   7.190   7.050
 7041POPC   C4B48586  33.138   7.173   7.350
 7042POPC   NC348587  38.417  42.349   5.550
 7042POPC   PO448588  38.416  42.322   5.850
 7042POPC   GL148589  38.460  42.333   6.150
 7042POPC   GL248590  38.533  42.226   6.150
 7042POPC   C1A48591  38.502  42.352   6.450
 7042POPC   D2A48592  38.409  42.298   6.750
 7042POPC   C3A48593  38.420  42.311   7.050
 7042POPC   C4A48594  38.496  42.343   7.350
 7042POPC   C1B48595  38.574  42.113   6.450
 7042POPC   C2B48596  38.592  42.135   6.750
 7042POPC   C3B48597  38.629  42.133   7.050
 7042POPC   C4B48598  38.578  42.139   7.350
 7043POPC   NC348599  17.495  18.237   5.550
 7043POPC   PO448600  17.521  18.260   5.850
 7043POPC   GL148601  17.470  18.236   6.150
 7043POPC   GL248602  17.423  18.309   6.150
 7043POPC   C1A48603  17.464  18.238   6.450
 7043POPC   D2A48604  17.528  18.297   6.750
 7043POPC   C3A48605  17.489  18.234   7.050
 7043POPC   C4A48606  17.464  18.256   7.350
 7043POPC   C1B48607  17.248  18.197   6.450
 7043POPC   C2B48608  17.214  18.193   6.750
 7043POPC   C3B48609  17.269  18.229   7.050
 7043POPC   C4B48610  17.221  18.266   7.350
 7044POPC   NC348611   2.040  11.308   5.550
 7044POPC   PO448612   2.018  11.330   5.850
 7044POPC   GL148613   1.987  11.296   6.150
 7044POPC   GL248614   2.114  11.415   6.150
 7044POPC   C1A48615   1.978  11.278   6.450
 7044POPC   D2A48616   2.011  11.267   6.750
 7044POPC   C3A48617   2.025  11.312   7.050
 7044POPC   C4A48618   1.989  11.318   7.350
 7044POPC   C1B48619   2.140  11.489   6.450
 7044POPC   C2B48620   2.138  11.508   6.750
 7044POPC   C3B48621   2.170  11.503   7.050
 7044POPC   C4B48622   2.148  11.447   7.350
 7045POPC   NC348623  19.089  43.111   5.550
 7045POPC   PO448624  19.108  43.141   5.850
 7045POPC   GL148625  19.098  43.095   6.150
 7045POPC   GL248626  19.218  43.124   6.150
 7045POPC   C1A48627  19.099  43.140   6.450
 7045POPC   D2A48628  19.036  43.064   6.750
 7045POPC   C3A48629  19.076  43.076   7.050
 7045POPC   C4A48630  19.075  43.107   7.350
 7045POPC   C1B48631  19.333  43.164   6.450
 7045POPC   C2B48632  19.294  43.169   6.750
 7045POPC   C3B48633  19.277  43.204   7.050
 7045POPC   C4B48634  19.333  43.259   7.350
 7046POPC   NC348635  33.825  20.583   5.550
 7046POPC   PO448636  33.762  20.580   5.850
 7046POPC   GL148637  33.761  20.572   6.150
 7046POPC   GL248638  33.688  20.640   6.150
 7046POPC   C1A48639  33.774  20.624   6.450
 7046POPC   D2A48640  33.777  20.586   6.750
 7046POPC   C3A48641  33.849  20.623   7.050
 7046POPC   C4A48642  33.847  20.597   7.350
 7046POPC   C1B48643  33.566  20.784   6.450
 7046POPC   C2B48644  33.592  20.782   6.750
 7046POPC   C3B48645  33.617  20.758   7.050
 7046POPC   C4B48646  33.612  20.755   7.350
 7047POPC   NC348647  19.820  19.028   5.550
 7047POPC   PO448648  19.876  19.043   5.850
 7047POPC   GL148649  19.832  19.057   6.150
 7047POPC   GL248650  19.960  18.919   6.150
 7047POPC   C1A48651  19.796  19.086   6.450
 7047POPC   D2A48652  19.877  19.032   6.750
 7047POPC   C3A48653  19.847  19.092   7.050
 7047POPC   C4A48654  19.879  19.098   7.350
 7047POPC   C1B48655  19.977  18.879   6.450
 7047POPC   C2B48656  20.001  18.866   6.750
 7047POPC   C3B48657  19.973  18.873   7.050
 7047POPC   C4B48658  19.985  18.859   7.350
 7048POPC   NC348659  18.286  43.060   5.550
 7048POPC   PO448660  18.263  43.094   5.850
 7048POPC   GL148661  18.275  43.150   6.150
 7048POPC   GL248662  18.132  43.018   6.150
 7048POPC   C1A48663  18.281  43.065   6.450
 7048POPC   D2A48664  18.311  43.158   6.750
 7048POPC   C3A48665  18.267  43.070   7.050
 7048POPC   C4A48666  18.328  43.061   7.350
 7048POPC   C1B48667  18.027  42.984   6.450
 7048POPC   C2B48668  18.055  42.967   6.750
 7048POPC   C3B48669  18.073  43.030   7.050
 7048POPC   C4B48670  18.084  42.982   7.350
 7049POPC   NC348671  30.712  26.011   5.550
 7049POPC   PO448672  30.667  26.021   5.850
 7049POPC   GL148673  30.695  26.025   6.150
 7049POPC   GL248674  30.576  25.963   6.150
 7049POPC   C1A48675  30.658  26.062   6.450
 7049POPC   D2A48676  30.746  26.049   6.750
 7049POPC   C3A48677  30.709  26.038   7.050
 7049POPC   C4A48678  30.710  26.019   7.350
 7049POPC   C1B48679  30.445  25.863   6.450
 7049POPC   C2B48680  30.443  25.863   6.750
 7049POPC   C3B48681  30.445  25.940   7.050
 7049POPC   C4B48682  30.500  25.899   7.350
 7050POPC   NC348683  40.768  21.389   5.550
 7050POPC   PO448684  40.762  21.433   5.850
 7050POPC   GL148685  40.736  21.396   6.150
 7050POPC   GL248686  40.674  21.252   6.150
 7050POPC   C1A48687  40.793  21.390   6.450
 7050POPC   D2A48688  40.744  21.396   6.750
 7050POPC   C3A48689  40.742  21.379   7.050
 7050POPC   C4A48690  40.829  21.367   7.350
 7050POPC   C1B48691  40.620  21.246   6.450
 7050POPC   C2B48692  40.599  21.197   6.750
 7050POPC   C3B48693  40.596  21.223   7.050
 7050POPC   C4B48694  40.563  21.194   7.350
 7051POPC   NC348695  27.597  26.823   5.550
 7051POPC   PO448696  27.561  26.835   5.850
 7051POPC   GL148697  27.591  26.805   6.150
 7051POPC   GL248698  27.448  26.758   6.150
 7051POPC   C1A48699  27.633  26.854   6.450
 7051POPC   D2A48700  27.610  26.795   6.750
 7051POPC   C3A48701  27.606  26.771   7.050
 7051POPC   C4A48702  27.588  26.789   7.350
 7051POPC   C1B48703  27.316  26.679   6.450
 7051POPC   C2B48704  27.405  26.750   6.750
 7051POPC   C3B48705  27.396  26.754   7.050
 7051POPC   C4B48706  27.403  26.744   7.350
 7052POPC   NC348707   9.015  31.483   5.550
 7052POPC   PO448708   8.976  31.476   5.850
 7052POPC   GL148709   8.981  31.438   6.150
 7052POPC   GL248710   8.902  31.347   6.150
 7052POPC   C1A48711   9.007  31.522   6.450
 7052POPC   D2A48712   8.937  31.423   6.750
 7052POPC   C3A48713   8.924  31.426   7.050
 7052POPC   C4A48714   8.946  31.458   7.350
 7052POPC   C1B48715   8.825  31.307   6.450
 7052POPC   C2B48716   8.814  31.265   6.750
 7052POPC   C3B48717   8.814  31.281   7.050
 7052POPC   C4B48718   8.762  31.241   7.350
 7053POPC   NC348719  25.298  22.932   5.550
 7053POPC   PO448720  25.235  22.982   5.850
 7053POPC   GL148721  25.235  22.912   6.150
 7053POPC   GL248722  25.189  22.957   6.150
 7053POPC   C1A48723  25.241  22.978   6.450
 7053POPC   D2A48724  25.305  22.934   6.750
 7053POPC   C3A48725  25.217  22.907   7.050
 7053POPC   C4A48726  25.239  22.921   7.350
 7053POPC   C1B48727  25.000  23.074   6.450
 7053POPC   C2B48728  25.056  23.083   6.750
 7053POPC   C3B48729  25.013  23.055   7.050
 7053POPC   C4B48730  25.078  23.082   7.350
 7054POPC   NC348731  29.924  19.058   5.550
 7054POPC   PO448732  29.903  19.077   5.850
 7054POPC   GL148733  29.965  19.043   6.150
 7054POPC   GL248734  29.803  19.098   6.150
 7054POPC   C1A48735  29.953  19.079   6.450
 7054POPC   D2A48736  29.912  19.027   6.750
 7054POPC   C3A48737  29.950  19.096   7.050
 7054POPC   C4A48738  29.919  19.071   7.350
 7054POPC   C1B48739  29.649  19.099   6.450
 7054POPC   C2B48740  29.679  19.097   6.750
 7054POPC   C3B48741  29.660  19.025   7.050
 7054POPC   C4B48742  29.718  19.100   7.350
 7055POPC   NC348743   5.851  19.092   5.550
 7055POPC   PO448744   5.915  19.090   5.850
 7055POPC   GL148745   5.827  19.088   6.150
 7055POPC   GL248746   5.883  18.940   6.150
 7055POPC   C1A48747   5.907  19.012   6.450
 7055POPC   D2A48748   5.865  19.076   6.750
 7055POPC   C3A48749   5.832  19.028   7.050
 7055POPC   C4A48750   5.917  19.046   7.350
 7055POPC   C1B48751   5.817  18.814   6.450
 7055POPC   C2B48752   5.827  18.788   6.750
 7055POPC   C3B48753   5.872  18.776   7.050
 7055POPC   C4B48754   5.861  18.821   7.350
 7056POPC   NC348755  34.570  28.342   5.550
 7056POPC   PO448756  34.607  28.351   5.850
 7056POPC   GL148757  34.622  28.385   6.150
 7056POPC   GL248758  34.589  28.229   6.150
 7056POPC   C1A48759  34.549  28.393   6.450
 7056POPC   D2A48760  34.623  28.401   6.750
 7056POPC   C3A48761  34.568  28.368   7.050
 7056POPC   C4A48762  34.536  28.347   7.350
 7056POPC   C1B48763  34.655  28.144   6.450
 7056POPC   C2B48764  34.605  28.168   6.750
 7056POPC   C3B48765  34.566  28.121   7.050
 7056POPC   C4B48766  34.582  28.163   7.350
 7057POPC   NC348767  10.567  16.699   5.550
 7057POPC   PO448768  10.508  16.711   5.850
 7057POPC   GL148769  10.550  16.765   6.150
 7057POPC   GL248770  10.391  16.818   6.150
 7057POPC   C1A48771  10.474  16.747   6.450
 7057POPC   D2A48772  10.523  16.767   6.750
 7057POPC   C3A48773  10.562  16.734   7.050
 7057POPC   C4A48774  10.552  16.781   7.350
 7057POPC   C1B48775  10.303  16.910   6.450
 7057POPC   C2B48776  10.301  16.852   6.750
 7057POPC   C3B48777  10.290  16.818   7.050
 7057POPC   C4B48778  10.353  16.917   7.350
 7058POPC   NC348779  31.511  13.603   5.550
 7058POPC   PO448780  31.518  13.655   5.850
 7058POPC   GL148781  31.425  13.583   6.150
 7058POPC   GL248782  31.326  13.569   6.150
 7058POPC   C1A48783  31.444  13.610   6.450
 7058POPC   D2A48784  31.461  13.605   6.750
 7058POPC   C3A48785  31.464  13.601   7.050
 7058POPC   C4A48786  31.496  13.647   7.350
 7058POPC   C1B48787  31.262  13.519   6.450
 7058POPC   C2B48788  31.248  13.503   6.750
 7058POPC   C3B48789  31.233  13.569   7.050
 7058POPC   C4B48790  31.261  13.579   7.350
 7059POPC   NC348791  18.259   7.401   5.550
 7059POPC   PO448792  18.306   7.383   5.850
 7059POPC   GL148793  18.328   7.401   6.150
 7059POPC   GL248794  18.450   7.360   6.150
 7059POPC   C1A48795  18.267   7.386   6.450
 7059POPC   D2A48796  18.240   7.373   6.750
 7059POPC   C3A48797  18.266   7.455   7.050
 7059POPC   C4A48798  18.256   7.455   7.350
 7059POPC   C1B48799  18.551   7.368   6.450
 7059POPC   C2B48800  18.509   7.349   6.750
 7059POPC   C3B48801  18.570   7.386   7.050
 7059POPC   C4B48802  18.545   7.395   7.350
 7060POPC   NC348803   2.036  31.441   5.550
 7060POPC   PO448804   1.945  31.516   5.850
 7060POPC   GL148805   1.965  31.512   6.150
 7060POPC   GL248806   1.843  31.452   6.150
 7060POPC   C1A48807   2.017  31.498   6.450
 7060POPC   D2A48808   2.006  31.514   6.750
 7060POPC   C3A48809   2.008  31.478   7.050
 7060POPC   C4A48810   1.980  31.438   7.350
 7060POPC   C1B48811   1.716  31.498   6.450
 7060POPC   C2B48812   1.788  31.504   6.750
 7060POPC   C3B48813   1.764  31.518   7.050
 7060POPC   C4B48814   1.764  31.470   7.350
 7061POPC   NC348815   8.202  16.721   5.550
 7061POPC   PO448816   8.220  16.700   5.850
 7061POPC   GL148817   8.243  16.689   6.150
 7061POPC   GL248818   8.092  16.729   6.150
 7061POPC   C1A48819   8.244  16.749   6.450
 7061POPC   D2A48820   8.195  16.686   6.750
 7061POPC   C3A48821   8.173  16.712   7.050
 7061POPC   C4A48822   8.202  16.775   7.350
 7061POPC   C1B48823   7.900  16.730   6.450
 7061POPC   C2B48824   7.977  16.795   6.750
 7061POPC   C3B48825   7.919  16.773   7.050
 7061POPC   C4B48826   7.962  16.807   7.350
 7062POPC   NC348827  12.091  15.145   5.550
 7062POPC   PO448828  12.069  15.153   5.850
 7062POPC   GL148829  12.103  15.179   6.150
 7062POPC   GL248830  12.067  15.064   6.150
 7062POPC   C1A48831  12.075  15.184   6.450
 7062POPC   D2A48832  12.056  15.222   6.750
 7062POPC   C3A48833  12.126  15.222   7.050
 7062POPC   C4A48834  12.113  15.208   7.350
 7062POPC   C1B48835  12.163  14.907   6.450
 7062POPC   C2B48836  12.167  14.956   6.750
 7062POPC   C3B48837  12.180  14.906   7.050
 7062POPC   C4B48838  12.150  14.946   7.350
 7063POPC   NC348839  30.692  41.563   5.550
 7063POPC   PO448840  30.711  41.585   5.850
 7063POPC   GL148841  30.678  41.566   6.150
 7063POPC   GL248842  30.568  41.624   6.150
 7063POPC   C1A48843  30.676  41.578   6.450
 7063POPC   D2A48844  30.707  41.536   6.750
 7063POPC   C3A48845  30.704  41.511   7.050
 7063POPC   C4A48846  30.720  41.509   7.350
 7063POPC   C1B48847  30.564  41.767   6.450
 7063POPC   C2B48848  30.560  41.729   6.750
 7063POPC   C3B48849  30.560  41.702   7.050
 7063POPC   C4B48850  30.485  41.735   7.350
 7064POPC   NC348851  22.956  25.297   5.550
 7064POPC   PO448852  22.911  25.236   5.850
 7064POPC   GL148853  22.945  25.267   6.150
 7064POPC   GL248854  22.899  25.391   6.150
 7064POPC   C1A48855  22.927  25.273   6.450
 7064POPC   D2A48856  22.916  25.248   6.750
 7064POPC   C3A48857  22.927  25.307   7.050
 7064POPC   C4A48858  22.916  25.283   7.350
 7064POPC   C1B48859  22.850  25.523   6.450
 7064POPC   C2B48860  22.823  25.493   6.750
 7064POPC   C3B48861  22.814  25.486   7.050
 7064POPC   C4B48862  22.789  25.525   7.350
 7065POPC   NC348863  17.540  26.067   5.550
 7065POPC   PO448864  17.506  26.059   5.850
 7065POPC   GL148865  17.495  26.028   6.150
 7065POPC   GL248866  17.538  25.932   6.150
 7065POPC   C1A48867  17.492  26.072   6.450
 7065POPC   D2A48868  17.473  26.067   6.750
 7065POPC   C3A48869  17.516  26.004   7.050
 7065POPC   C4A48870  17.462  26.086   7.350
 7065POPC   C1B48871  17.606  25.789   6.450
 7065POPC   C2B48872  17.638  25.799   6.750
 7065POPC   C3B48873  17.639  25.783   7.050
 7065POPC   C4B48874  17.593  25.852   7.350
 7066POPC   NC348875  14.362  21.402   5.550
 7066POPC   PO448876  14.431  21.400   5.850
 7066POPC   GL148877  14.415  21.346   6.150
 7066POPC   GL248878  14.298  21.277   6.150
 7066POPC   C1A48879  14.437  21.391   6.450
 7066POPC   D2A48880  14.429  21.344   6.750
 7066POPC   C3A48881  14.377  21.424   7.050
 7066POPC   C4A48882  14.450  21.336   7.350
 7066POPC   C1B48883  14.236  21.172   6.450
 7066POPC   C2B48884  14.201  21.239   6.750
 7066POPC   C3B48885  14.255  21.211   7.050
 7066POPC   C4B48886  14.193  21.173   7.350
 7067POPC   NC348887  41.571  14.367   5.550
 7067POPC   PO448888  41.591  14.416   5.850
 7067POPC   GL148889  41.555  14.418   6.150
 7067POPC   GL248890  41.685  14.402   6.150
 7067POPC   C1A48891  41.581  14.381   6.450
 7067POPC   D2A48892  41.598  14.364   6.750
 7067POPC   C3A48893  41.603  14.399   7.050
 7067POPC   C4A48894  41.536  14.411   7.350
 7067POPC   C1B48895  41.775  14.353   6.450
 7067POPC   C2B48896  41.812  14.364   6.750
 7067POPC   C3B48897  41.827  14.349   7.050
 7067POPC   C4B48898  41.817  14.430   7.350
 7068POPC   NC348899  38.406  23.702   5.550
 7068POPC   PO448900  38.464  23.763   5.850
 7068POPC   GL148901  38.492  23.722   6.150
 7068POPC   GL248902  38.341  23.564   6.150
 7068POPC   C1A48903  38.477  23.711   6.450
 7068POPC   D2A48904  38.487  23.756   6.750
 7068POPC   C3A48905  38.484  23.753   7.050
 7068POPC   C4A48906  38.476  23.666   7.350
 7068POPC   C1B48907  38.284  23.485   6.450
 7068POPC   C2B48908  38.360  23.557   6.750
 7068POPC   C3B48909  38.353  23.543   7.050
 7068POPC   C4B48910  38.271  23.480   7.350
 7069POPC   NC348911  11.301  42.297   5.550
 7069POPC   PO448912  11.325  42.359   5.850
 7069POPC   GL148913  11.263  42.291   6.150
 7069POPC   GL248914  11.376  42.264   6.150
 7069POPC   C1A48915  11.280  42.299   6.450
 7069POPC   D2A48916  11.296  42.356   6.750
 7069POPC   C3A48917  11.282  42.329   7.050
 7069POPC   C4A48918  11.291  42.308   7.350
 7069POPC   C1B48919  11.471  42.176   6.450
 7069POPC   C2B48920  11.428  42.184   6.750
 7069POPC   C3B48921  11.476  42.113   7.050
 7069POPC   C4B48922  11.495  42.159   7.350
 7070POPC   NC348923  29.893   1.956   5.550
 7070POPC   PO448924  29.873   1.986   5.850
 7070POPC   GL148925  29.898   1.976   6.150
 7070POPC   GL248926  30.015   2.048   6.150
 7070POPC   C1A48927  29.875   1.955   6.450
 7070POPC   D2A48928  29.908   1.998   6.750
 7070POPC   C3A48929  29.938   1.988   7.050
 7070POPC   C4A48930  29.918   1.943   7.350
 7070POPC   C1B48931  30.028   2.244   6.450
 7070POPC   C2B48932  30.055   2.224   6.750
 7070POPC   C3B48933  30.094   2.173   7.050
 7070POPC   C4B48934  30.038   2.193   7.350
 7071POPC   NC348935  34.552  17.541   5.550
 7071POPC   PO448936  34.609  17.537   5.850
 7071POPC   GL148937  34.563  17.487   6.150
 7071POPC   GL248938  34.478  17.478   6.150
 7071POPC   C1A48939  34.625  17.499   6.450
 7071POPC   D2A48940  34.531  17.480   6.750
 7071POPC   C3A48941  34.625  17.554   7.050
 7071POPC   C4A48942  34.559  17.540   7.350
 7071POPC   C1B48943  34.362  17.356   6.450
 7071POPC   C2B48944  34.397  17.437   6.750
 7071POPC   C3B48945  34.349  17.424   7.050
 7071POPC   C4B48946  34.398  17.394   7.350
 7072POPC   NC348947   3.508  16.685   5.550
 7072POPC   PO448948   3.510  16.739   5.850
 7072POPC   GL148949   3.522  16.699   6.150
 7072POPC   GL248950   3.651  16.729   6.150
 7072POPC   C1A48951   3.529  16.743   6.450
 7072POPC   D2A48952   3.502  16.767   6.750
 7072POPC   C3A48953   3.548  16.763   7.050
 7072POPC   C4A48954   3.505  16.720   7.350
 7072POPC   C1B48955   3.792  16.727   6.450
 7072POPC   C2B48956   3.825  16.718   6.750
 7072POPC   C3B48957   3.772  16.694   7.050
 7072POPC   C4B48958   3.805  16.695   7.350
 7073POPC   NC348959  24.446  36.149   5.550
 7073POPC   PO448960  24.534  36.175   5.850
 7073POPC   GL148961  24.530  36.121   6.150
 7073POPC   GL248962  24.413  36.139   6.150
 7073POPC   C1A48963  24.453  36.171   6.450
 7073POPC   D2A48964  24.446  36.081   6.750
 7073POPC   C3A48965  24.513  36.132   7.050
 7073POPC   C4A48966  24.523  36.124   7.350
 7073POPC   C1B48967  24.227  36.177   6.450
 7073POPC   C2B48968  24.207  36.232   6.750
 7073POPC   C3B48969  24.282  36.161   7.050
 7073POPC   C4B48970  24.284  36.197   7.350
 7074POPC   NC348971  38.434  11.314   5.550
 7074POPC   PO448972  38.442  11.271   5.850
 7074POPC   GL148973  38.469  11.257   6.150
 7074POPC   GL248974  38.502  11.172   6.150
 7074POPC   C1A48975  38.467  11.263   6.450
 7074POPC   D2A48976  38.465  11.259   6.750
 7074POPC   C3A48977  38.414  11.299   7.050
 7074POPC   C4A48978  38.482  11.255   7.350
 7074POPC   C1B48979  38.500  11.069   6.450
 7074POPC   C2B48980  38.589  11.056   6.750
 7074POPC   C3B48981  38.527  11.049   7.050
 7074POPC   C4B48982  38.585  11.031   7.350
 7075POPC   NC348983  44.679  16.765   5.550
 7075POPC   PO448984  44.615  16.722   5.850
 7075POPC   GL148985  44.700  16.763   6.150
 7075POPC   GL248986  44.766  16.785   6.150
 7075POPC   C1A48987  44.679  16.699   6.450
 7075POPC   D2A48988  44.636  16.752   6.750
 7075POPC   C3A48989  44.679  16.714   7.050
 7075POPC   C4A48990  44.678  16.720   7.350
 7075POPC   C1B48991  44.901  16.867   6.450
 7075POPC   C2B48992  44.849  16.918   6.750
 7075POPC   C3B48993  44.902  16.880   7.050
 7075POPC   C4B48994  44.846  16.901   7.350
 7076POPC   NC348995  44.670  19.034   5.550
 7076POPC   PO448996  44.619  19.090   5.850
 7076POPC   GL148997  44.622  19.071   6.150
 7076POPC   GL248998  44.803  18.998   6.150
 7076POPC   C1A48999  44.681  19.090   6.450
 7076POPC   D2A49000  44.673  19.095   6.750
 7076POPC   C3A49001  44.692  19.034   7.050
 7076POPC   C4A49002  44.654  19.012   7.350
 7076POPC   C1B49003  44.912  18.881   6.450
 7076POPC   C2B49004  44.898  18.874   6.750
 7076POPC   C3B49005  44.882  18.940   7.050
 7076POPC   C4B49006  44.823  18.898   7.350
 7077POPC   NC349007  40.039   4.349   5.550
 7077POPC   PO449008  40.038   4.278   5.850
 7077POPC   GL149009  40.051   4.320   6.150
 7077POPC   GL249010  39.979   4.464   6.150
 7077POPC   C1A49011  40.029   4.286   6.450
 7077POPC   D2A49012  40.023   4.304   6.750
 7077POPC   C3A49013  39.966   4.325   7.050
 7077POPC   C4A49014  40.029   4.361   7.350
 7077POPC   C1B49015  39.918   4.569   6.450
 7077POPC   C2B49016  39.874   4.512   6.750
 7077POPC   C3B49017  39.892   4.568   7.050
 7077POPC   C4B49018  39.864   4.516   7.350
 7078POPC   NC349019  35.340  42.328   5.550
 7078POPC   PO449020  35.339  42.334   5.850
 7078POPC   GL149021  35.359  42.296   6.150
 7078POPC   GL249022  35.451  42.259   6.150
 7078POPC   C1A49023  35.329  42.379   6.450
 7078POPC   D2A49024  35.355  42.372   6.750
 7078POPC   C3A49025  35.381  42.307   7.050
 7078POPC   C4A49026  35.338  42.332   7.350
 7078POPC   C1B49027  35.483  42.139   6.450
 7078POPC   C2B49028  35.474  42.090   6.750
 7078POPC   C3B49029  35.466  42.089   7.050
 7078POPC   C4B49030  35.482  42.114   7.350
 7079POPC   NC349031  41.574   8.965   5.550
 7079POPC   PO449032  41.555   8.941   5.850
 7079POPC   GL149033  41.517   8.972   6.150
 7079POPC   GL249034  41.586   8.868   6.150
 7079POPC   C1A49035  41.550   8.942   6.450
 7079POPC   D2A49036  41.536   8.993   6.750
 7079POPC   C3A49037  41.603   8.927   7.050
 7079POPC   C4A49038  41.536   9.001   7.350
 7079POPC   C1B49039  41.670   8.730   6.450
 7079POPC   C2B49040  41.723   8.735   6.750
 7079POPC   C3B49041  41.720   8.778   7.050
 7079POPC   C4B49042  41.630   8.761   7.350
 7080POPC   NC349043   2.802  23.675   5.550
 7080POPC   PO449044   2.737  23.738   5.850
 7080POPC   GL149045   2.737  23.698   6.150
 7080POPC   GL249046   2.804  23.625   6.150
 7080POPC   C1A49047   2.723  23.701   6.450
 7080POPC   D2A49048   2.753  23.756   6.750
 7080POPC   C3A49049   2.806  23.680   7.050
 7080POPC   C4A49050   2.811  23.711   7.350
 7080POPC   C1B49051   2.842  23.472   6.450
 7080POPC   C2B49052   2.813  23.459   6.750
 7080POPC   C3B49053   2.811  23.476   7.050
 7080POPC   C4B49054   2.790  23.470   7.350
 7081POPC   NC349055  25.248   7.395   5.550
 7081POPC   PO449056  25.309   7.375   5.850
 7081POPC   GL149057  25.299   7.412   6.150
 7081POPC   GL249058  25.172   7.479   6.150
 7081POPC   C1A49059  25.261   7.431   6.450
 7081POPC   D2A49060  25.259   7.399   6.750
 7081POPC   C3A49061  25.289   7.384   7.050
 7081POPC   C4A49062  25.261   7.378   7.350
 7081POPC   C1B49063  25.040   7.528   6.450
 7081POPC   C2B49064  25.063   7.555   6.750
 7081POPC   C3B49065  25.063   7.546   7.050
 7081POPC   C4B49066  25.097   7.595   7.350
 7082POPC   NC349067  36.101   2.721   5.550
 7082POPC   PO449068  36.166   2.746   5.850
 7082POPC   GL149069  36.092   2.797   6.150
 7082POPC   GL249070  36.230   2.689   6.150
 7082POPC   C1A49071  36.118   2.792   6.450
 7082POPC   D2A49072  36.166   2.766   6.750
 7082POPC   C3A49073  36.085   2.720   7.050
 7082POPC   C4A49074  36.129   2.721   7.350
 7082POPC   C1B49075  36.315   2.624   6.450
 7082POPC   C2B49076  36.274   2.570   6.750
 7082POPC   C3B49077  36.298   2.586   7.050
 7082POPC   C4B49078  36.316   2.635   7.350
 7083POPC   NC349079  12.028   2.721   5.550
 7083POPC   PO449080  12.039   2.719   5.850
 7083POPC   GL149081  12.104   2.789   6.150
 7083POPC   GL249082  12.212   2.804   6.150
 7083POPC   C1A49083  12.064   2.744   6.450
 7083POPC   D2A49084  12.075   2.728   6.750
 7083POPC   C3A49085  12.033   2.724   7.050
 7083POPC   C4A49086  12.109   2.774   7.350
 7083POPC   C1B49087  12.341   2.842   6.450
 7083POPC   C2B49088  12.303   2.826   6.750
 7083POPC   C3B49089  12.275   2.838   7.050
 7083POPC   C4B49090  12.341   2.818   7.350
 7084POPC   NC349091   2.789   8.924   5.550
 7084POPC   PO449092   2.784   8.986   5.850
 7084POPC   GL149093   2.781   9.022   6.150
 7084POPC   GL249094   2.850   9.000   6.150
 7084POPC   C1A49095   2.740   8.931   6.450
 7084POPC   D2A49096   2.763   8.958   6.750
 7084POPC   C3A49097   2.808   8.983   7.050
 7084POPC   C4A49098   2.754   8.990   7.350
 7084POPC   C1B49099   3.053   8.940   6.450
 7084POPC   C2B49100   2.982   8.904   6.750
 7084POPC   C3B49101   3.017   8.966   7.050
 7084POPC   C4B49102   3.006   8.924   7.350
 7085POPC   NC349103   5.837  30.649   5.550
 7085POPC   PO449104   5.876  30.671   5.850
 7085POPC   GL149105   5.839  30.652   6.150
 7085POPC   GL249106   5.945  30.610   6.150
 7085POPC   C1A49107   5.874  30.723   6.450
 7085POPC   D2A49108   5.849  30.660   6.750
 7085POPC   C3A49109   5.862  30.666   7.050
 7085POPC   C4A49110   5.871  30.724   7.350
 7085POPC   C1B49111   6.058  30.476   6.450
 7085POPC   C2B49112   6.000  30.529   6.750
 7085POPC   C3B49113   6.086  30.536   7.050
 7085POPC   C4B49114   6.073  30.516   7.350
 7086POPC   NC349115  26.028  40.752   5.550
 7086POPC   PO449116  26.013  40.821   5.850
 7086POPC   GL149117  26.078  40.761   6.150
 7086POPC   GL249118  25.999  40.631   6.150
 7086POPC   C1A49119  26.027  40.829   6.450
 7086POPC   D2A49120  26.077  40.792   6.750
 7086POPC   C3A49121  26.064  40.828   7.050
 7086POPC   C4A49122  26.007  40.756   7.350
 7086POPC   C1B49123  25.898  40.585   6.450
 7086POPC   C2B49124  25.878  40.593   6.750
 7086POPC   C3B49125  25.936  40.577   7.050
 7086POPC   C4B49126  25.947  40.548   7.350
 7087POPC   NC349127  19.105  40.750   5.550
 7087POPC   PO449128  19.049  40.766   5.850
 7087POPC   GL149129  19.096  40.739   6.150
 7087POPC   GL249130  18.900  40.816   6.150
 7087POPC   C1A49131  19.024  40.828   6.450
 7087POPC   D2A49132  19.104  40.800   6.750
 7087POPC   C3A49133  19.010  40.782   7.050
 7087POPC   C4A49134  19.033  40.807   7.350
 7087POPC   C1B49135  18.791  40.877   6.450
 7087POPC   C2B49136  18.801  40.847   6.750
 7087POPC   C3B49137  18.795  40.834   7.050
 7087POPC   C4B49138  18.822  40.905   7.350
 7088POPC   NC349139  12.885  42.328   5.550
 7088POPC   PO449140  12.864  42.294   5.850
 7088POPC   GL149141  12.852  42.333   6.150
 7088POPC   GL249142  12.738  42.293   6.150
 7088POPC   C1A49143  12.897  42.288   6.450
 7088POPC   D2A49144  12.874  42.370   6.750
 7088POPC   C3A49145  12.819  42.322   7.050
 7088POPC   C4A49146  12.868  42.336   7.350
 7088POPC   C1B49147  12.571  42.249   6.450
 7088POPC   C2B49148  12.583  42.310   6.750
 7088POPC   C3B49149  12.591  42.305   7.050
 7088POPC   C4B49150  12.612  42.277   7.350
 7089POPC   NC349151   2.738  31.498   5.550
 7089POPC   PO449152   2.754  31.512   5.850
 7089POPC   GL149153   2.780  31.468   6.150
 7089POPC   GL249154   2.635  31.370   6.150
 7089POPC   C1A49155   2.765  31.489   6.450
 7089POPC   D2A49156   2.726  31.470   6.750
 7089POPC   C3A49157   2.733  31.477   7.050
 7089POPC   C4A49158   2.724  31.488   7.350
 7089POPC   C1B49159   2.565  31.252   6.450
 7089POPC   C2B49160   2.635  31.253   6.750
 7089POPC   C3B49161   2.572  31.321   7.050
 7089POPC   C4B49162   2.562  31.333   7.350
 7090POPC   NC349163   1.230  39.210   5.550
 7090POPC   PO449164   1.252  39.243   5.850
 7090POPC   GL149165   1.261  39.277   6.150
 7090POPC   GL249166   1.174  39.097   6.150
 7090POPC   C1A49167   1.202  39.193   6.450
 7090POPC   D2A49168   1.181  39.256   6.750
 7090POPC   C3A49169   1.170  39.220   7.050
 7090POPC   C4A49170   1.253  39.218   7.350
 7090POPC   C1B49171   1.105  39.005   6.450
 7090POPC   C2B49172   1.110  38.993   6.750
 7090POPC   C3B49173   1.038  39.065   7.050
 7090POPC   C4B49174   1.030  39.004   7.350
 7091POPC   NC349175  36.112  39.984   5.550
 7091POPC   PO449176  36.098  40.053   5.850
 7091POPC   GL149177  36.090  39.983   6.150
 7091POPC   GL249178  36.194  40.106   6.150
 7091POPC   C1A49179  36.170  40.020   6.450
 7091POPC   D2A49180  36.082  39.964   6.750
 7091POPC   C3A49181  36.086  39.988   7.050
 7091POPC   C4A49182  36.088  39.996   7.350
 7091POPC   C1B49183  36.260  40.259   6.450
 7091POPC   C2B49184  36.181  40.230   6.750
 7091POPC   C3B49185  36.248  40.288   7.050
 7091POPC   C4B49186  36.240  40.257   7.350
 7092POPC   NC349187  35.317   6.603   5.550
 7092POPC   PO449188  35.371   6.622   5.850
 7092POPC   GL149189  35.380   6.663   6.150
 7092POPC   GL249190  35.310   6.488   6.150
 7092POPC   C1A49191  35.351   6.635   6.450
 7092POPC   D2A49192  35.322   6.651   6.750
 7092POPC   C3A49193  35.330   6.651   7.050
 7092POPC   C4A49194  35.345   6.668   7.350
 7092POPC   C1B49195  35.295   6.360   6.450
 7092POPC   C2B49196  35.317   6.364   6.750
 7092POPC   C3B49197  35.360   6.378   7.050
 7092POPC   C4B49198  35.326   6.347   7.350
 7093POPC   NC349199   2.805  15.921   5.550
 7093POPC   PO449200   2.736  15.919   5.850
 7093POPC   GL149201   2.738  15.948   6.150
 7093POPC   GL249202   2.887  16.023   6.150
 7093POPC   C1A49203   2.770  15.935   6.450
 7093POPC   D2A49204   2.741  15.965   6.750
 7093POPC   C3A49205   2.740  15.959   7.050
 7093POPC   C4A49206   2.762  15.971   7.350
 7093POPC   C1B49207   2.899  16.158   6.450
 7093POPC   C2B49208   2.879  16.168   6.750
 7093POPC   C3B49209   2.957  16.123   7.050
 7093POPC   C4B49210   2.935  16.153   7.350
 7094POPC   NC349211   1.243   1.192   5.550
 7094POPC   PO449212   1.205   1.204   5.850
 7094POPC   GL149213   1.179   1.203   6.150
 7094POPC   GL249214   1.278   1.067   6.150
 7094POPC   C1A49215   1.262   1.260   6.450
 7094POPC   D2A49216   1.210   1.222   6.750
 7094POPC   C3A49217   1.224   1.205   7.050
 7094POPC   C4A49218   1.204   1.197   7.350
 7094POPC   C1B49219   1.292   1.015   6.450
 7094POPC   C2B49220   1.388   1.005   6.750
 7094POPC   C3B49221   1.292   0.950   7.050
 7094POPC   C4B49222   1.298   1.037   7.350
 7095POPC   NC349223  40.796   6.645   5.550
 7095POPC   PO449224  40.823   6.612   5.850
 7095POPC   GL149225  40.735   6.653   6.150
 7095POPC   GL249226  40.646   6.616   6.150
 7095POPC   C1A49227  40.747   6.663   6.450
 7095POPC   D2A49228  40.733   6.602   6.750
 7095POPC   C3A49229  40.783   6.661   7.050
 7095POPC   C4A49230  40.764   6.621   7.350
 7095POPC   C1B49231  40.558   6.654   6.450
 7095POPC   C2B49232  40.496   6.655   6.750
 7095POPC   C3B49233  40.490   6.669   7.050
 7095POPC   C4B49234  40.536   6.634   7.350
 7096POPC   NC349235   9.008   1.259   5.550
 7096POPC   PO449236   9.007   1.177   5.850
 7096POPC   GL149237   8.962   1.256   6.150
 7096POPC   GL249238   9.007   1.069   6.150
 7096POPC   C1A49239   8.991   1.173   6.450
 7096POPC   D2A49240   9.012   1.209   6.750
 7096POPC   C3A49241   8.945   1.208   7.050
 7096POPC   C4A49242   9.009   1.175   7.350
 7096POPC   C1B49243   9.042   1.007   6.450
 7096POPC   C2B49244   9.044   0.933   6.750
 7096POPC   C3B49245   9.003   1.018   7.050
 7096POPC   C4B49246   8.995   0.967   7.350
 7097POPC   NC349247   8.938  36.146   5.550
 7097POPC   PO449248   8.987  36.130   5.850
 7097POPC   GL149249   9.013  36.149   6.150
 7097POPC   GL249250   9.088  36.037   6.150
 7097POPC   C1A49251   8.991  36.130   6.450
 7097POPC   D2A49252   8.991  36.117   6.750
 7097POPC   C3A49253   8.925  36.176   7.050
 7097POPC   C4A49254   8.948  36.083   7.350
 7097POPC   C1B49255   9.222  35.989   6.450
 7097POPC   C2B49256   9.221  36.039   6.750
 7097POPC   C3B49257   9.196  35.991   7.050
 7097POPC   C4B49258   9.202  36.064   7.350
 7098POPC   NC349259  15.908   1.181   5.550
 7098POPC   PO449260  15.976   1.183   5.850
 7098POPC   GL149261  15.944   1.166   6.150
 7098POPC   GL249262  16.042   1.112   6.150
 7098POPC   C1A49263  15.996   1.215   6.450
 7098POPC   D2A49264  15.986   1.220   6.750
 7098POPC   C3A49265  15.922   1.203   7.050
 7098POPC   C4A49266  16.002   1.181   7.350
 7098POPC   C1B49267  16.207   1.022   6.450
 7098POPC   C2B49268  16.137   1.096   6.750
 7098POPC   C3B49269  16.169   1.047   7.050
 7098POPC   C4B49270  16.127   1.120   7.350
 7099POPC   NC349271  24.529  42.289   5.550
 7099POPC   PO449272  24.532  42.374   5.850
 7099POPC   GL149273  24.487  42.289   6.150
 7099POPC   GL249274  24.471  42.423   6.150
 7099POPC   C1A49275  24.474  42.305   6.450
 7099POPC   D2A49276  24.468  42.378   6.750
 7099POPC   C3A49277  24.531  42.372   7.050
 7099POPC   C4A49278  24.441  42.318   7.350
 7099POPC   C1B49279  24.390  42.619   6.450
 7099POPC   C2B49280  24.443  42.603   6.750
 7099POPC   C3B49281  24.448  42.532   7.050
 7099POPC   C4B49282  24.411  42.588   7.350
 7100POPC   NC349283  25.254  32.256   5.550
 7100POPC   PO449284  25.286  32.246   5.850
 7100POPC   GL149285  25.221  32.258   6.150
 7100POPC   GL249286  25.166  32.140   6.150
 7100POPC   C1A49287  25.276  32.207   6.450
 7100POPC   D2A49288  25.302  32.279   6.750
 7100POPC   C3A49289  25.300  32.220   7.050
 7100POPC   C4A49290  25.260  32.246   7.350
 7100POPC   C1B49291  25.099  32.013   6.450
 7100POPC   C2B49292  25.149  32.082   6.750
 7100POPC   C3B49293  25.165  32.052   7.050
 7100POPC   C4B49294  25.093  32.075   7.350
 7101POPC   NC349295  21.414  19.809   5.550
 7101POPC   PO449296  21.384  19.786   5.850
 7101POPC   GL149297  21.345  19.803   6.150
 7101POPC   GL249298  21.308  19.778   6.150
 7101POPC   C1A49299  21.374  19.820   6.450
 7101POPC   D2A49300  21.345  19.874   6.750
 7101POPC   C3A49301  21.393  19.848   7.050
 7101POPC   C4A49302  21.359  19.793   7.350
 7101POPC   C1B49303  21.167  19.711   6.450
 7101POPC   C2B49304  21.169  19.703   6.750
 7101POPC   C3B49305  21.141  19.728   7.050
 7101POPC   C4B49306  21.211  19.704   7.350
 7102POPC   NC349307  10.550  24.440   5.550
 7102POPC   PO449308  10.539  24.508   5.850
 7102POPC   GL149309  10.510  24.481   6.150
 7102POPC   GL249310  10.634  24.529   6.150
 7102POPC   C1A49311  10.542  24.530   6.450
 7102POPC   D2A49312  10.510  24.499   6.750
 7102POPC   C3A49313  10.506  24.495   7.050
 7102POPC   C4A49314  10.562  24.490   7.350
 7102POPC   C1B49315  10.767  24.467   6.450
 7102POPC   C2B49316  10.747  24.515   6.750
 7102POPC   C3B49317  10.752  24.496   7.050
 7102POPC   C4B49318  10.766  24.467   7.350
 7103POPC   NC349319  36.920  33.809   5.550
 7103POPC   PO449320  36.915  33.820   5.850
 7103POPC   GL149321  36.934  33.791   6.150
 7103POPC   GL249322  36.996  33.805   6.150
 7103POPC   C1A49323  36.950  33.838   6.450
 7103POPC   D2A49324  36.940  33.815   6.750
 7103POPC   C3A49325  36.887  33.756   7.050
 7103POPC   C4A49326  36.862  33.833   7.350
 7103POPC   C1B49327  37.119  33.743   6.450
 7103POPC   C2B49328  37.125  33.757   6.750
 7103POPC   C3B49329  37.163  33.743   7.050
 7103POPC   C4B49330  37.203  33.790   7.350
 7104POPC   NC349331  39.227  32.255   5.550
 7104POPC   PO449332  39.260  32.259   5.850
 7104POPC   GL149333  39.254  32.263   6.150
 7104POPC   GL249334  39.342  32.226   6.150
 7104POPC   C1A49335  39.262  32.274   6.450
 7104POPC   D2A49336  39.267  32.293   6.750
 7104POPC   C3A49337  39.256  32.227   7.050
 7104POPC   C4A49338  39.222  32.292   7.350
 7104POPC   C1B49339  39.459  32.232   6.450
 7104POPC   C2B49340  39.518  32.205   6.750
 7104POPC   C3B49341  39.524  32.214   7.050
 7104POPC   C4B49342  39.510  32.291   7.350
 7105POPC   NC349343   9.019  11.271   5.550
 7105POPC   PO449344   8.990  11.265   5.850
 7105POPC   GL149345   9.001  11.283   6.150
 7105POPC   GL249346   9.076  11.288   6.150
 7105POPC   C1A49347   8.935  11.254   6.450
 7105POPC   D2A49348   8.959  11.267   6.750
 7105POPC   C3A49349   8.927  11.308   7.050
 7105POPC   C4A49350   8.930  11.307   7.350
 7105POPC   C1B49351   9.202  11.197   6.450
 7105POPC   C2B49352   9.224  11.244   6.750
 7105POPC   C3B49353   9.249  11.180   7.050
 7105POPC   C4B49354   9.259  11.214   7.350
 7106POPC   NC349355  42.315   1.206   5.550
 7106POPC   PO449356  42.301   1.198   5.850
 7106POPC   GL149357  42.338   1.258   6.150
 7106POPC   GL249358  42.400   1.092   6.150
 7106POPC   C1A49359  42.345   1.238   6.450
 7106POPC   D2A49360  42.316   1.168   6.750
 7106POPC   C3A49361  42.344   1.189   7.050
 7106POPC   C4A49362  42.361   1.165   7.350
 7106POPC   C1B49363  42.455   0.980   6.450
 7106POPC   C2B49364  42.438   0.951   6.750
 7106POPC   C3B49365  42.440   0.945   7.050
 7106POPC   C4B49366  42.407   0.988   7.350
 7107POPC   NC349367  17.506  17.491   5.550
 7107POPC   PO449368  17.544  17.462   5.850
 7107POPC   GL149369  17.554  17.528   6.150
 7107POPC   GL249370  17.504  17.666   6.150
 7107POPC   C1A49371  17.544  17.471   6.450
 7107POPC   D2A49372  17.544  17.470   6.750
 7107POPC   C3A49373  17.503  17.486   7.050
 7107POPC   C4A49374  17.530  17.556   7.350
 7107POPC   C1B49375  17.526  17.726   6.450
 7107POPC   C2B49376  17.549  17.761   6.750
 7107POPC   C3B49377  17.588  17.782   7.050
 7107POPC   C4B49378  17.583  17.739   7.350
 7108POPC   NC349379  27.580   2.737   5.550
 7108POPC   PO449380  27.555   2.769   5.850
 7108POPC   GL149381  27.590   2.730   6.150
 7108POPC   GL249382  27.580   2.849   6.150
 7108POPC   C1A49383  27.577   2.739   6.450
 7108POPC   D2A49384  27.587   2.758   6.750
 7108POPC   C3A49385  27.548   2.743   7.050
 7108POPC   C4A49386  27.636   2.797   7.350
 7108POPC   C1B49387  27.622   2.993   6.450
 7108POPC   C2B49388  27.646   3.035   6.750
 7108POPC   C3B49389  27.614   3.044   7.050
 7108POPC   C4B49390  27.634   2.993   7.350
 7109POPC   NC349391  37.698   1.985   5.550
 7109POPC   PO449392  37.699   1.985   5.850
 7109POPC   GL149393  37.686   1.943   6.150
 7109POPC   GL249394  37.534   2.035   6.150
 7109POPC   C1A49395  37.676   2.027   6.450
 7109POPC   D2A49396  37.717   1.958   6.750
 7109POPC   C3A49397  37.679   1.982   7.050
 7109POPC   C4A49398  37.650   1.976   7.350
 7109POPC   C1B49399  37.460   2.103   6.450
 7109POPC   C2B49400  37.425   2.103   6.750
 7109POPC   C3B49401  37.491   2.156   7.050
 7109POPC   C4B49402  37.431   2.083   7.350
 7110POPC   NC349403  29.169  14.411   5.550
 7110POPC   PO449404  29.136  14.388   5.850
 7110POPC   GL149405  29.123  14.440   6.150
 7110POPC   GL249406  29.080  14.474   6.150
 7110POPC   C1A49407  29.108  14.432   6.450
 7110POPC   D2A49408  29.109  14.424   6.750
 7110POPC   C3A49409  29.107  14.429   7.050
 7110POPC   C4A49410  29.115  14.384   7.350
 7110POPC   C1B49411  28.930  14.518   6.450
 7110POPC   C2B49412  28.882  14.524   6.750
 7110POPC   C3B49413  28.943  14.530   7.050
 7110POPC   C4B49414  28.902  14.538   7.350
 7111POPC   NC349415  44.643   8.233   5.550
 7111POPC   PO449416  44.701   8.161   5.850
 7111POPC   GL149417  44.651   8.170   6.150
 7111POPC   GL249418  44.692   8.316   6.150
 7111POPC   C1A49419  44.631   8.205   6.450
 7111POPC   D2A49420  44.698   8.205   6.750
 7111POPC   C3A49421  44.641   8.190   7.050
 7111POPC   C4A49422  44.613   8.202   7.350
 7111POPC   C1B49423  44.630   8.491   6.450
 7111POPC   C2B49424  44.618   8.478   6.750
 7111POPC   C3B49425  44.669   8.448   7.050
 7111POPC   C4B49426  44.612   8.454   7.350
 7112POPC   NC349427  32.245  26.800   5.550
 7112POPC   PO449428  32.199  26.821   5.850
 7112POPC   GL149429  32.224  26.827   6.150
 7112POPC   GL249430  32.392  26.784   6.150
 7112POPC   C1A49431  32.235  26.792   6.450
 7112POPC   D2A49432  32.203  26.822   6.750
 7112POPC   C3A49433  32.230  26.827   7.050
 7112POPC   C4A49434  32.256  26.786   7.350
 7112POPC   C1B49435  32.393  26.683   6.450
 7112POPC   C2B49436  32.480  26.622   6.750
 7112POPC   C3B49437  32.465  26.679   7.050
 7112POPC   C4B49438  32.451  26.690   7.350
 7113POPC   NC349439  22.176  41.517   5.550
 7113POPC   PO449440  22.196  41.530   5.850
 7113POPC   GL149441  22.154  41.566   6.150
 7113POPC   GL249442  22.123  41.632   6.150
 7113POPC   C1A49443  22.138  41.530   6.450
 7113POPC   D2A49444  22.138  41.601   6.750
 7113POPC   C3A49445  22.178  41.595   7.050
 7113POPC   C4A49446  22.173  41.587   7.350
 7113POPC   C1B49447  22.014  41.818   6.450
 7113POPC   C2B49448  22.043  41.722   6.750
 7113POPC   C3B49449  22.030  41.784   7.050
 7113POPC   C4B49450  21.997  41.769   7.350
 7114POPC   NC349451  19.860  18.294   5.550
 7114POPC   PO449452  19.850  18.240   5.850
 7114POPC   GL149453  19.873  18.328   6.150
 7114POPC   GL249454  19.742  18.393   6.150
 7114POPC   C1A49455  19.806  18.318   6.450
 7114POPC   D2A49456  19.806  18.325   6.750
 7114POPC   C3A49457  19.860  18.267   7.050
 7114POPC   C4A49458  19.817  18.245   7.350
 7114POPC   C1B49459  19.632  18.481   6.450
 7114POPC   C2B49460  19.629  18.430   6.750
 7114POPC   C3B49461  19.674  18.431   7.050
 7114POPC   C4B49462  19.691  18.437   7.350
 7115POPC   NC349463  11.291  29.116   5.550
 7115POPC   PO449464  11.315  29.129   5.850
 7115POPC   GL149465  11.316  29.173   6.150
 7115POPC   GL249466  11.422  29.156   6.150
 7115POPC   C1A49467  11.285  29.149   6.450
 7115POPC   D2A49468  11.306  29.175   6.750
 7115POPC   C3A49469  11.283  29.096   7.050
 7115POPC   C4A49470  11.319  29.138   7.350
 7115POPC   C1B49471  11.534  29.252   6.450
 7115POPC   C2B49472  11.511  29.225   6.750
 7115POPC   C3B49473  11.566  29.181   7.050
 7115POPC   C4B49474  11.557  29.176   7.350
 7116POPC   NC349475  12.884  29.931   5.550
 7116POPC   PO449476  12.868  29.971   5.850
 7116POPC   GL149477  12.805  29.938   6.150
 7116POPC   GL249478  13.010  29.859   6.150
 7116POPC   C1A49479  12.874  29.961   6.450
 7116POPC   D2A49480  12.870  29.889   6.750
 7116POPC   C3A49481  12.894  29.930   7.050
 7116POPC   C4A49482  12.899  29.953   7.350
 7116POPC   C1B49483  13.126  29.872   6.450
 7116POPC   C2B49484  13.068  29.830   6.750
 7116POPC   C3B49485  13.108  29.818   7.050
 7116POPC   C4B49486  13.097  29.851   7.350
 7117POPC   NC349487   0.461  29.161   5.550
 7117POPC   PO449488   0.474  29.143   5.850
 7117POPC   GL149489   0.438  29.118   6.150
 7117POPC   GL249490   0.444  29.025   6.150
 7117POPC   C1A49491   0.429  29.165   6.450
 7117POPC   D2A49492   0.454  29.153   6.750
 7117POPC   C3A49493   0.440  29.183   7.050
 7117POPC   C4A49494   0.421  29.158   7.350
 7117POPC   C1B49495   0.319  28.916   6.450
 7117POPC   C2B49496   0.326  28.907   6.750
 7117POPC   C3B49497   0.318  28.953   7.050
 7117POPC   C4B49498   0.327  28.944   7.350
 7118POPC   NC349499  33.042  32.245   5.550
 7118POPC   PO449500  33.027  32.294   5.850
 7118POPC   GL149501  33.071  32.234   6.150
 7118POPC   GL249502  33.126  32.369   6.150
 7118POPC   C1A49503  33.002  32.211   6.450
 7118POPC   D2A49504  32.991  32.293   6.750
 7118POPC   C3A49505  33.037  32.199   7.050
 7118POPC   C4A49506  33.019  32.239   7.350
 7118POPC   C1B49507  33.241  32.451   6.450
 7118POPC   C2B49508  33.222  32.382   6.750
 7118POPC   C3B49509  33.262  32.383   7.050
 7118POPC   C4B49510  33.233  32.419   7.350
 7119POPC   NC349511   0.395  22.145   5.550
 7119POPC   PO449512   0.412  22.211   5.850
 7119POPC   GL149513   0.468  22.128   6.150
 7119POPC   GL249514   0.487  21.998   6.150
 7119POPC   C1A49515   0.486  22.159   6.450
 7119POPC   D2A49516   0.486  22.187   6.750
 7119POPC   C3A49517   0.440  22.121   7.050
 7119POPC   C4A49518   0.402  22.184   7.350
 7119POPC   C1B49519   0.447  21.884   6.450
 7119POPC   C2B49520   0.438  21.914   6.750
 7119POPC   C3B49521   0.463  21.948   7.050
 7119POPC   C4B49522   0.523  21.894   7.350
 7120POPC   NC349523   6.623   6.596   5.550
 7120POPC   PO449524   6.597   6.637   5.850
 7120POPC   GL149525   6.643   6.691   6.150
 7120POPC   GL249526   6.776   6.634   6.150
 7120POPC   C1A49527   6.664   6.639   6.450
 7120POPC   D2A49528   6.602   6.631   6.750
 7120POPC   C3A49529   6.606   6.620   7.050
 7120POPC   C4A49530   6.644   6.636   7.350
 7120POPC   C1B49531   6.902   6.708   6.450
 7120POPC   C2B49532   6.872   6.740   6.750
 7120POPC   C3B49533   6.849   6.691   7.050
 7120POPC   C4B49534   6.852   6.718   7.350
 7121POPC   NC349535   9.702   8.982   5.550
 7121POPC   PO449536   9.768   8.926   5.850
 7121POPC   GL149537   9.756   8.945   6.150
 7121POPC   GL249538   9.777   9.127   6.150
 7121POPC   C1A49539   9.788   8.928   6.450
 7121POPC   D2A49540   9.768   8.952   6.750
 7121POPC   C3A49541   9.732   8.928   7.050
 7121POPC   C4A49542   9.784   8.932   7.350
 7121POPC   C1B49543   9.809   9.162   6.450
 7121POPC   C2B49544   9.826   9.225   6.750
 7121POPC   C3B49545   9.846   9.251   7.050
 7121POPC   C4B49546   9.845   9.231   7.350
 7122POPC   NC349547  38.497  39.210   5.550
 7122POPC   PO449548  38.470  39.238   5.850
 7122POPC   GL149549  38.461  39.194   6.150
 7122POPC   GL249550  38.497  39.357   6.150
 7122POPC   C1A49551  38.485  39.269   6.450
 7122POPC   D2A49552  38.408  39.182   6.750
 7122POPC   C3A49553  38.454  39.277   7.050
 7122POPC   C4A49554  38.440  39.279   7.350
 7122POPC   C1B49555  38.626  39.395   6.450
 7122POPC   C2B49556  38.616  39.421   6.750
 7122POPC   C3B49557  38.608  39.395   7.050
 7122POPC   C4B49558  38.556  39.466   7.350
 7123POPC   NC349559  43.127  29.953   5.550
 7123POPC   PO449560  43.117  29.915   5.850
 7123POPC   GL149561  43.136  29.953   6.150
 7123POPC   GL249562  42.998  29.993   6.150
 7123POPC   C1A49563  43.133  29.941   6.450
 7123POPC   D2A49564  43.148  29.945   6.750
 7123POPC   C3A49565  43.114  29.875   7.050
 7123POPC   C4A49566  43.075  29.893   7.350
 7123POPC   C1B49567  42.886  30.036   6.450
 7123POPC   C2B49568  42.890  30.024   6.750
 7123POPC   C3B49569  42.913  30.003   7.050
 7123POPC   C4B49570  42.900  30.007   7.350
 7124POPC   NC349571  17.513  25.308   5.550
 7124POPC   PO449572  17.473  25.267   5.850
 7124POPC   GL149573  17.523  25.244   6.150
 7124POPC   GL249574  17.489  25.426   6.150
 7124POPC   C1A49575  17.538  25.283   6.450
 7124POPC   D2A49576  17.489  25.275   6.750
 7124POPC   C3A49577  17.492  25.281   7.050
 7124POPC   C4A49578  17.550  25.276   7.350
 7124POPC   C1B49579  17.498  25.466   6.450
 7124POPC   C2B49580  17.545  25.498   6.750
 7124POPC   C3B49581  17.527  25.519   7.050
 7124POPC   C4B49582  17.552  25.469   7.350
 7125POPC   NC349583  43.141  10.536   5.550
 7125POPC   PO449584  43.094  10.551   5.850
 7125POPC   GL149585  43.095  10.522   6.150
 7125POPC   GL249586  43.256  10.494   6.150
 7125POPC   C1A49587  43.086  10.569   6.450
 7125POPC   D2A49588  43.100  10.545   6.750
 7125POPC   C3A49589  43.104  10.504   7.050
 7125POPC   C4A49590  43.074  10.475   7.350
 7125POPC   C1B49591  43.379  10.524   6.450
 7125POPC   C2B49592  43.394  10.484   6.750
 7125POPC   C3B49593  43.333  10.558   7.050
 7125POPC   C4B49594  43.328  10.481   7.350
 7126POPC   NC349595  35.378  19.044   5.550
 7126POPC   PO449596  35.364  19.077   5.850
 7126POPC   GL149597  35.375  19.096   6.150
 7126POPC   GL249598  35.324  18.959   6.150
 7126POPC   C1A49599  35.346  19.107   6.450
 7126POPC   D2A49600  35.336  19.089   6.750
 7126POPC   C3A49601  35.352  19.103   7.050
 7126POPC   C4A49602  35.348  19.063   7.350
 7126POPC   C1B49603  35.321  18.815   6.450
 7126POPC   C2B49604  35.275  18.804   6.750
 7126POPC   C3B49605  35.290  18.840   7.050
 7126POPC   C4B49606  35.240  18.802   7.350
 7127POPC   NC349607  16.744  44.652   5.550
 7127POPC   PO449608  16.695  44.711   5.850
 7127POPC   GL149609  16.716  44.647   6.150
 7127POPC   GL249610  16.583  44.605   6.150
 7127POPC   C1A49611  16.716  44.620   6.450
 7127POPC   D2A49612  16.687  44.652   6.750
 7127POPC   C3A49613  16.769  44.695   7.050
 7127POPC   C4A49614  16.752  44.642   7.350
 7127POPC   C1B49615  16.488  44.518   6.450
 7127POPC   C2B49616  16.487  44.608   6.750
 7127POPC   C3B49617  16.501  44.573   7.050
 7127POPC   C4B49618  16.532  44.602   7.350
 7128POPC   NC349619  26.777  22.186   5.550
 7128POPC   PO449620  26.801  22.125   5.850
 7128POPC   GL149621  26.835  22.187   6.150
 7128POPC   GL249622  26.912  22.073   6.150
 7128POPC   C1A49623  26.866  22.134   6.450
 7128POPC   D2A49624  26.799  22.123   6.750
 7128POPC   C3A49625  26.850  22.118   7.050
 7128POPC   C4A49626  26.815  22.113   7.350
 7128POPC   C1B49627  26.912  21.963   6.450
 7128POPC   C2B49628  26.977  21.929   6.750
 7128POPC   C3B49629  26.925  21.952   7.050
 7128POPC   C4B49630  26.948  21.972   7.350
 7129POPC   NC349631   8.159  13.655   5.550
 7129POPC   PO449632   8.184  13.658   5.850
 7129POPC   GL149633   8.167  13.676   6.150
 7129POPC   GL249634   8.228  13.516   6.150
 7129POPC   C1A49635   8.210  13.597   6.450
 7129POPC   D2A49636   8.180  13.654   6.750
 7129POPC   C3A49637   8.235  13.596   7.050
 7129POPC   C4A49638   8.173  13.621   7.350
 7129POPC   C1B49639   8.260  13.426   6.450
 7129POPC   C2B49640   8.253  13.423   6.750
 7129POPC   C3B49641   8.310  13.372   7.050
 7129POPC   C4B49642   8.324  13.433   7.350
 7130POPC   NC349643  43.861  41.555   5.550
 7130POPC   PO449644  43.837  41.513   5.850
 7130POPC   GL149645  43.914  41.521   6.150
 7130POPC   GL249646  43.959  41.427   6.150
 7130POPC   C1A49647  43.886  41.560   6.450
 7130POPC   D2A49648  43.916  41.542   6.750
 7130POPC   C3A49649  43.865  41.587   7.050
 7130POPC   C4A49650  43.883  41.549   7.350
 7130POPC   C1B49651  44.068  41.390   6.450
 7130POPC   C2B49652  43.979  41.366   6.750
 7130POPC   C3B49653  44.029  41.326   7.050
 7130POPC   C4B49654  44.032  41.399   7.350
 7131POPC   NC349655  31.424  40.011   5.550
 7131POPC   PO449656  31.474  40.042   5.850
 7131POPC   GL149657  31.448  40.002   6.150
 7131POPC   GL249658  31.454  39.923   6.150
 7131POPC   C1A49659  31.449  39.963   6.450
 7131POPC   D2A49660  31.510  40.017   6.750
 7131POPC   C3A49661  31.428  40.048   7.050
 7131POPC   C4A49662  31.510  39.962   7.350
 7131POPC   C1B49663  31.426  39.759   6.450
 7131POPC   C2B49664  31.516  39.761   6.750
 7131POPC   C3B49665  31.475  39.787   7.050
 7131POPC   C4B49666  31.469  39.760   7.350
 7132POPC   NC349667  33.779  33.054   5.550
 7132POPC   PO449668  33.804  33.053   5.850
 7132POPC   GL149669  33.773  32.988   6.150
 7132POPC   GL249670  33.886  32.976   6.150
 7132POPC   C1A49671  33.804  33.019   6.450
 7132POPC   D2A49672  33.763  33.014   6.750
 7132POPC   C3A49673  33.787  32.984   7.050
 7132POPC   C4A49674  33.805  33.019   7.350
 7132POPC   C1B49675  34.093  33.054   6.450
 7132POPC   C2B49676  34.052  33.030   6.750
 7132POPC   C3B49677  34.087  33.011   7.050
 7132POPC   C4B49678  34.009  33.036   7.350
 7133POPC   NC349679   5.840  19.861   5.550
 7133POPC   PO449680   5.821  19.844   5.850
 7133POPC   GL149681   5.825  19.795   6.150
 7133POPC   GL249682   5.932  19.695   6.150
 7133POPC   C1A49683   5.828  19.844   6.450
 7133POPC   D2A49684   5.892  19.883   6.750
 7133POPC   C3A49685   5.918  19.852   7.050
 7133POPC   C4A49686   5.875  19.842   7.350
 7133POPC   C1B49687   5.965  19.564   6.450
 7133POPC   C2B49688   6.008  19.602   6.750
 7133POPC   C3B49689   5.935  19.614   7.050
 7133POPC   C4B49690   5.968  19.599   7.350
 7134POPC   NC349691  35.386  33.821   5.550
 7134POPC   PO449692  35.328  33.823   5.850
 7134POPC   GL149693  35.383  33.768   6.150
 7134POPC   GL249694  35.271  33.820   6.150
 7134POPC   C1A49695  35.383  33.811   6.450
 7134POPC   D2A49696  35.348  33.784   6.750
 7134POPC   C3A49697  35.353  33.757   7.050
 7134POPC   C4A49698  35.327  33.837   7.350
 7134POPC   C1B49699  35.150  33.878   6.450
 7134POPC   C2B49700  35.099  33.912   6.750
 7134POPC   C3B49701  35.095  33.864   7.050
 7134POPC   C4B49702  35.114  33.880   7.350
 7135POPC   NC349703  19.847  36.128   5.550
 7135POPC   PO449704  19.874  36.135   5.850
 7135POPC   GL149705  19.835  36.111   6.150
 7135POPC   GL249706  19.729  36.135   6.150
 7135POPC   C1A49707  19.810  36.109   6.450
 7135POPC   D2A49708  19.883  36.176   6.750
 7135POPC   C3A49709  19.827  36.094   7.050
 7135POPC   C4A49710  19.868  36.144   7.350
 7135POPC   C1B49711  19.624  36.101   6.450
 7135POPC   C2B49712  19.580  36.046   6.750
 7135POPC   C3B49713  19.617  36.131   7.050
 7135POPC   C4B49714  19.626  36.089   7.350
 7136POPC   NC349715  39.968  36.158   5.550
 7136POPC   PO449716  39.963  36.146   5.850
 7136POPC   GL149717  40.027  36.171   6.150
 7136POPC   GL249718  40.105  36.061   6.150
 7136POPC   C1A49719  40.050  36.143   6.450
 7136POPC   D2A49720  40.041  36.157   6.750
 7136POPC   C3A49721  39.973  36.112   7.050
 7136POPC   C4A49722  39.972  36.112   7.350
 7136POPC   C1B49723  40.249  35.999   6.450
 7136POPC   C2B49724  40.198  35.967   6.750
 7136POPC   C3B49725  40.163  35.978   7.050
 7136POPC   C4B49726  40.216  36.035   7.350
 7137POPC   NC349727  13.674  41.525   5.550
 7137POPC   PO449728  13.608  41.557   5.850
 7137POPC   GL149729  13.604  41.532   6.150
 7137POPC   GL249730  13.768  41.668   6.150
 7137POPC   C1A49731  13.634  41.541   6.450
 7137POPC   D2A49732  13.667  41.533   6.750
 7137POPC   C3A49733  13.625  41.555   7.050
 7137POPC   C4A49734  13.583  41.606   7.350
 7137POPC   C1B49735  13.804  41.694   6.450
 7137POPC   C2B49736  13.792  41.679   6.750
 7137POPC   C3B49737  13.763  41.715   7.050
 7137POPC   C4B49738  13.843  41.711   7.350
 7138POPC   NC349739   9.739  21.350   5.550
 7138POPC   PO449740   9.758  21.350   5.850
 7138POPC   GL149741   9.794  21.428   6.150
 7138POPC   GL249742   9.746  21.247   6.150
 7138POPC   C1A49743   9.778  21.414   6.450
 7138POPC   D2A49744   9.765  21.371   6.750
 7138POPC   C3A49745   9.791  21.368   7.050
 7138POPC   C4A49746   9.749  21.376   7.350
 7138POPC   C1B49747   9.765  21.100   6.450
 7138POPC   C2B49748   9.823  21.172   6.750
 7138POPC   C3B49749   9.814  21.173   7.050
 7138POPC   C4B49750   9.797  21.168   7.350
 7139POPC   NC349751  18.247   3.566   5.550
 7139POPC   PO449752  18.240   3.532   5.850
 7139POPC   GL149753  18.244   3.529   6.150
 7139POPC   GL249754  18.289   3.688   6.150
 7139POPC   C1A49755  18.244   3.513   6.450
 7139POPC   D2A49756  18.296   3.515   6.750
 7139POPC   C3A49757  18.278   3.529   7.050
 7139POPC   C4A49758  18.327   3.537   7.350
 7139POPC   C1B49759  18.283   3.767   6.450
 7139POPC   C2B49760  18.311   3.770   6.750
 7139POPC   C3B49761  18.298   3.795   7.050
 7139POPC   C4B49762  18.254   3.794   7.350
 7140POPC   NC349763  31.479  33.823   5.550
 7140POPC   PO449764  31.470  33.769   5.850
 7140POPC   GL149765  31.500  33.796   6.150
 7140POPC   GL249766  31.504  33.659   6.150
 7140POPC   C1A49767  31.426  33.817   6.450
 7140POPC   D2A49768  31.489  33.820   6.750
 7140POPC   C3A49769  31.441  33.835   7.050
 7140POPC   C4A49770  31.504  33.825   7.350
 7140POPC   C1B49771  31.514  33.529   6.450
 7140POPC   C2B49772  31.511  33.579   6.750
 7140POPC   C3B49773  31.535  33.579   7.050
 7140POPC   C4B49774  31.485  33.591   7.350
 7141POPC   NC349775  25.273  36.938   5.550
 7141POPC   PO449776  25.298  36.943   5.850
 7141POPC   GL149777  25.285  36.907   6.150
 7141POPC   GL249778  25.359  36.870   6.150
 7141POPC   C1A49779  25.252  36.912   6.450
 7141POPC   D2A49780  25.299  36.900   6.750
 7141POPC   C3A49781  25.303  36.866   7.050
 7141POPC   C4A49782  25.258  36.902   7.350
 7141POPC   C1B49783  25.525  36.803   6.450
 7141POPC   C2B49784  25.519  36.793   6.750
 7141POPC   C3B49785  25.487  36.753   7.050
 7141POPC   C4B49786  25.492  36.737   7.350
 7142POPC   NC349787  42.366   3.585   5.550
 7142POPC   PO449788  42.367   3.508   5.850
 7142POPC   GL149789  42.308   3.527   6.150
 7142POPC   GL249790  42.168   3.604   6.150
 7142POPC   C1A49791  42.360   3.558   6.450
 7142POPC   D2A49792  42.365   3.586   6.750
 7142POPC   C3A49793  42.369   3.584   7.050
 7142POPC   C4A49794  42.300   3.589   7.350
 7142POPC   C1B49795  42.105   3.606   6.450
 7142POPC   C2B49796  42.075   3.596   6.750
 7142POPC   C3B49797  42.100   3.591   7.050
 7142POPC   C4B49798  42.136   3.592   7.350
 7143POPC   NC349799  13.595   0.410   5.550
 7143POPC   PO449800  13.613   0.477   5.850
 7143POPC   GL149801  13.637   0.419   6.150
 7143POPC   GL249802  13.688   0.520   6.150
 7143POPC   C1A49803  13.594   0.441   6.450
 7143POPC   D2A49804  13.619   0.479   6.750
 7143POPC   C3A49805  13.608   0.425   7.050
 7143POPC   C4A49806  13.633   0.389   7.350
 7143POPC   C1B49807  13.867   0.590   6.450
 7143POPC   C2B49808  13.888   0.618   6.750
 7143POPC   C3B49809  13.791   0.554   7.050
 7143POPC   C4B49810  13.848   0.620   7.350
 7144POPC   NC349811  32.296  41.583   5.550
 7144POPC   PO449812  32.249  41.585   5.850
 7144POPC   GL149813  32.242  41.555   6.150
 7144POPC   GL249814  32.369  41.622   6.150
 7144POPC   C1A49815  32.248  41.532   6.450
 7144POPC   D2A49816  32.206  41.605   6.750
 7144POPC   C3A49817  32.279  41.534   7.050
 7144POPC   C4A49818  32.219  41.588   7.350
 7144POPC   C1B49819  32.480  41.596   6.450
 7144POPC   C2B49820  32.492  41.603   6.750
 7144POPC   C3B49821  32.460  41.663   7.050
 7144POPC   C4B49822  32.514  41.577   7.350
 7145POPC   NC349823  17.469  42.364   5.550
 7145POPC   PO449824  17.492  42.285   5.850
 7145POPC   GL149825  17.477  42.340   6.150
 7145POPC   GL249826  17.411  42.229   6.150
 7145POPC   C1A49827  17.523  42.336   6.450
 7145POPC   D2A49828  17.475  42.334   6.750
 7145POPC   C3A49829  17.538  42.372   7.050
 7145POPC   C4A49830  17.496  42.345   7.350
 7145POPC   C1B49831  17.283  42.153   6.450
 7145POPC   C2B49832  17.260  42.224   6.750
 7145POPC   C3B49833  17.341  42.171   7.050
 7145POPC   C4B49834  17.283  42.154   7.350
 7146POPC   NC349835  36.109  26.022   5.550
 7146POPC   PO449836  36.121  26.067   5.850
 7146POPC   GL149837  36.171  26.071   6.150
 7146POPC   GL249838  36.211  25.942   6.150
 7146POPC   C1A49839  36.160  26.035   6.450
 7146POPC   D2A49840  36.113  26.005   6.750
 7146POPC   C3A49841  36.157  26.000   7.050
 7146POPC   C4A49842  36.113  26.079   7.350
 7146POPC   C1B49843  36.251  25.858   6.450
 7146POPC   C2B49844  36.199  25.820   6.750
 7146POPC   C3B49845  36.239  25.823   7.050
 7146POPC   C4B49846  36.256  25.776   7.350
 7147POPC   NC349847  20.631  30.683   5.550
 7147POPC   PO449848  20.616  30.725   5.850
 7147POPC   GL149849  20.651  30.728   6.150
 7147POPC   GL249850  20.517  30.746   6.150
 7147POPC   C1A49851  20.644  30.693   6.450
 7147POPC   D2A49852  20.656  30.704   6.750
 7147POPC   C3A49853  20.627  30.706   7.050
 7147POPC   C4A49854  20.597  30.679   7.350
 7147POPC   C1B49855  20.423  30.810   6.450
 7147POPC   C2B49856  20.438  30.875   6.750
 7147POPC   C3B49857  20.388  30.862   7.050
 7147POPC   C4B49858  20.447  30.811   7.350
 7148POPC   NC349859  36.111  31.445   5.550
 7148POPC   PO449860  36.097  31.490   5.850
 7148POPC   GL149861  36.165  31.456   6.150
 7148POPC   GL249862  36.265  31.360   6.150
 7148POPC   C1A49863  36.089  31.426   6.450
 7148POPC   D2A49864  36.123  31.489   6.750
 7148POPC   C3A49865  36.137  31.499   7.050
 7148POPC   C4A49866  36.097  31.481   7.350
 7148POPC   C1B49867  36.347  31.363   6.450
 7148POPC   C2B49868  36.337  31.354   6.750
 7148POPC   C3B49869  36.294  31.286   7.050
 7148POPC   C4B49870  36.330  31.339   7.350
 7149POPC   NC349871  27.620  33.049   5.550
 7149POPC   PO449872  27.586  32.976   5.850
 7149POPC   GL149873  27.590  33.057   6.150
 7149POPC   GL249874  27.639  33.100   6.150
 7149POPC   C1A49875  27.631  33.022   6.450
 7149POPC   D2A49876  27.574  33.073   6.750
 7149POPC   C3A49877  27.635  33.048   7.050
 7149POPC   C4A49878  27.600  32.978   7.350
 7149POPC   C1B49879  27.693  33.292   6.450
 7149POPC   C2B49880  27.666  33.251   6.750
 7149POPC   C3B49881  27.698  33.215   7.050
 7149POPC   C4B49882  27.667  33.265   7.350
 7150POPC   NC349883   0.474   5.131   5.550
 7150POPC   PO449884   0.409   5.109   5.850
 7150POPC   GL149885   0.457   5.125   6.150
 7150POPC   GL249886   0.522   5.018   6.150
 7150POPC   C1A49887   0.451   5.106   6.450
 7150POPC   D2A49888   0.450   5.140   6.750
 7150POPC   C3A49889   0.472   5.074   7.050
 7150POPC   C4A49890   0.400   5.110   7.350
 7150POPC   C1B49891   0.649   4.956   6.450
 7150POPC   C2B49892   0.700   5.006   6.750
 7150POPC   C3B49893   0.629   4.992   7.050
 7150POPC   C4B49894   0.639   5.009   7.350
 7151POPC   NC349895   5.854  17.508   5.550
 7151POPC   PO449896   5.820  17.552   5.850
 7151POPC   GL149897   5.887  17.516   6.150
 7151POPC   GL249898   5.884  17.335   6.150
 7151POPC   C1A49899   5.831  17.522   6.450
 7151POPC   D2A49900   5.848  17.467   6.750
 7151POPC   C3A49901   5.859  17.465   7.050
 7151POPC   C4A49902   5.842  17.463   7.350
 7151POPC   C1B49903   5.825  17.235   6.450
 7151POPC   C2B49904   5.870  17.301   6.750
 7151POPC   C3B49905   5.880  17.265   7.050
 7151POPC   C4B49906   5.886  17.258   7.350
 7152POPC   NC349907  30.655  13.629   5.550
 7152POPC   PO449908  30.681  13.607   5.850
 7152POPC   GL149909  30.662  13.611   6.150
 7152POPC   GL249910  30.803  13.665   6.150
 7152POPC   C1A49911  30.680  13.591   6.450
 7152POPC   D2A49912  30.720  13.613   6.750
 7152POPC   C3A49913  30.722  13.639   7.050
 7152POPC   C4A49914  30.713  13.669   7.350
 7152POPC   C1B49915  30.861  13.800   6.450
 7152POPC   C2B49916  30.901  13.802   6.750
 7152POPC   C3B49917  30.846  13.845   7.050
 7152POPC   C4B49918  30.878  13.779   7.350
 7153POPC   NC349919  36.103  19.086   5.550
 7153POPC   PO449920  36.136  19.029   5.850
 7153POPC   GL149921  36.136  19.017   6.150
 7153POPC   GL249922  36.105  19.192   6.150
 7153POPC   C1A49923  36.137  19.047   6.450
 7153POPC   D2A49924  36.131  19.078   6.750
 7153POPC   C3A49925  36.158  19.062   7.050
 7153POPC   C4A49926  36.088  19.090   7.350
 7153POPC   C1B49927  36.076  19.289   6.450
 7153POPC   C2B49928  36.007  19.269   6.750
 7153POPC   C3B49929  36.078  19.305   7.050
 7153POPC   C4B49930  36.045  19.307   7.350
 7154POPC   NC349931  36.156   5.820   5.550
 7154POPC   PO449932  36.098   5.880   5.850
 7154POPC   GL149933  36.081   5.868   6.150
 7154POPC   GL249934  36.090   5.947   6.150
 7154POPC   C1A49935  36.127   5.850   6.450
 7154POPC   D2A49936  36.162   5.888   6.750
 7154POPC   C3A49937  36.147   5.892   7.050
 7154POPC   C4A49938  36.168   5.867   7.350
 7154POPC   C1B49939  36.015   6.105   6.450
 7154POPC   C2B49940  36.065   6.063   6.750
 7154POPC   C3B49941  36.046   6.075   7.050
 7154POPC   C4B49942  35.987   6.145   7.350
 7155POPC   NC349943  22.974   8.207   5.550
 7155POPC   PO449944  22.931   8.172   5.850
 7155POPC   GL149945  22.932   8.237   6.150
 7155POPC   GL249946  23.066   8.249   6.150
 7155POPC   C1A49947  22.915   8.171   6.450
 7155POPC   D2A49948  22.936   8.168   6.750
 7155POPC   C3A49949  22.974   8.176   7.050
 7155POPC   C4A49950  22.962   8.167   7.350
 7155POPC   C1B49951  23.125   8.436   6.450
 7155POPC   C2B49952  23.117   8.365   6.750
 7155POPC   C3B49953  23.057   8.427   7.050
 7155POPC   C4B49954  23.080   8.429   7.350
 7156POPC   NC349955  19.033   5.879   5.550
 7156POPC   PO449956  19.079   5.915   5.850
 7156POPC   GL149957  19.068   5.871   6.150
 7156POPC   GL249958  19.117   5.824   6.150
 7156POPC   C1A49959  19.102   5.873   6.450
 7156POPC   D2A49960  19.055   5.845   6.750
 7156POPC   C3A49961  19.013   5.903   7.050
 7156POPC   C4A49962  19.044   5.878   7.350
 7156POPC   C1B49963  19.242   5.766   6.450
 7156POPC   C2B49964  19.252   5.746   6.750
 7156POPC   C3B49965  19.231   5.709   7.050
 7156POPC   C4B49966  19.235   5.752   7.350
 7157POPC   NC349967  25.264  34.553   5.550
 7157POPC   PO449968  25.230  34.564   5.850
 7157POPC   GL149969  25.245  34.563   6.150
 7157POPC   GL249970  25.265  34.738   6.150
 7157POPC   C1A49971  25.237  34.596   6.450
 7157POPC   D2A49972  25.243  34.556   6.750
 7157POPC   C3A49973  25.303  34.528   7.050
 7157POPC   C4A49974  25.297  34.556   7.350
 7157POPC   C1B49975  25.230  34.805   6.450
 7157POPC   C2B49976  25.163  34.813   6.750
 7157POPC   C3B49977  25.249  34.824   7.050
 7157POPC   C4B49978  25.231  34.802   7.350
 7158POPC   NC349979  16.780  22.115   5.550
 7158POPC   PO449980  16.751  22.120   5.850
 7158POPC   GL149981  16.736  22.140   6.150
 7158POPC   GL249982  16.608  22.035   6.150
 7158POPC   C1A49983  16.684  22.142   6.450
 7158POPC   D2A49984  16.731  22.198   6.750
 7158POPC   C3A49985  16.728  22.148   7.050
 7158POPC   C4A49986  16.758  22.147   7.350
 7158POPC   C1B49987  16.559  21.965   6.450
 7158POPC   C2B49988  16.540  21.959   6.750
 7158POPC   C3B49989  16.618  21.946   7.050
 7158POPC   C4B49990  16.545  21.921   7.350
 7159POPC   NC349991  28.352  19.816   5.550
 7159POPC   PO449992  28.325  19.811   5.850
 7159POPC   GL149993  28.379  19.805   6.150
 7159POPC   GL249994  28.280  19.824   6.150
 7159POPC   C1A49995  28.340  19.839   6.450
 7159POPC   D2A49996  28.415  19.832   6.750
 7159POPC   C3A49997  28.391  19.801   7.050
 7159POPC   C4A49998  28.370  19.884   7.350
 7159POPC   C1B49999  28.089  19.833   6.450
 7159POPC   C2B50000  28.105  19.798   6.750
 7159POPC   C3B50001  28.154  19.799   7.050
 7159POPC   C4B50002  28.093  19.849   7.350
 7160POPC   NC350003  14.416  44.707   5.550
 7160POPC   PO450004  14.364  44.644   5.850
 7160POPC   GL150005  14.394  44.698   6.150
 7160POPC   GL250006  14.470  44.778   6.150
 7160POPC   C1A50007  14.445  44.667   6.450
 7160POPC   D2A50008  14.431  44.648   6.750
 7160POPC   C3A50009  14.401  44.677   7.050
 7160POPC   C4A50010  14.378  44.671   7.350
 7160POPC   C1B50011  14.526  44.877   6.450
 7160POPC   C2B50012  14.474  44.914   6.750
 7160POPC   C3B50013  14.483  44.869   7.050
 7160POPC   C4B50014  14.532  44.940   7.350
 7161POPC   NC350015  23.684  34.589   5.550
 7161POPC   PO450016  23.684  34.574   5.850
 7161POPC   GL150017  23.693  34.564   6.150
 7161POPC   GL250018  23.736  34.744   6.150
 7161POPC   C1A50019  23.700  34.612   6.450
 7161POPC   D2A50020  23.680  34.574   6.750
 7161POPC   C3A50021  23.731  34.575   7.050
 7161POPC   C4A50022  23.708  34.528   7.350
 7161POPC   C1B50023  23.745  34.806   6.450
 7161POPC   C2B50024  23.770  34.867   6.750
 7161POPC   C3B50025  23.752  34.851   7.050
 7161POPC   C4B50026  23.787  34.816   7.350
 7162POPC   NC350027   6.661  43.143   5.550
 7162POPC   PO450028   6.656  43.133   5.850
 7162POPC   GL150029   6.621  43.125   6.150
 7162POPC   GL250030   6.628  42.986   6.150
 7162POPC   C1A50031   6.598  43.098   6.450
 7162POPC   D2A50032   6.639  43.079   6.750
 7162POPC   C3A50033   6.656  43.071   7.050
 7162POPC   C4A50034   6.634  43.074   7.350
 7162POPC   C1B50035   6.539  42.851   6.450
 7162POPC   C2B50036   6.630  42.831   6.750
 7162POPC   C3B50037   6.553  42.826   7.050
 7162POPC   C4B50038   6.630  42.901   7.350
 7163POPC   NC350039   8.226  22.140   5.550
 7163POPC   PO450040   8.229  22.191   5.850
 7163POPC   GL150041   8.246  22.151   6.150
 7163POPC   GL250042   8.260  22.057   6.150
 7163POPC   C1A50043   8.241  22.165   6.450
 7163POPC   D2A50044   8.215  22.188   6.750
 7163POPC   C3A50045   8.218  22.199   7.050
 7163POPC   C4A50046   8.210  22.188   7.350
 7163POPC   C1B50047   8.271  21.874   6.450
 7163POPC   C2B50048   8.199  21.908   6.750
 7163POPC   C3B50049   8.238  21.879   7.050
 7163POPC   C4B50050   8.231  21.949   7.350
 7164POPC   NC350051  14.405  14.389   5.550
 7164POPC   PO450052  14.428  14.392   5.850
 7164POPC   GL150053  14.427  14.394   6.150
 7164POPC   GL250054  14.490  14.355   6.150
 7164POPC   C1A50055  14.436  14.441   6.450
 7164POPC   D2A50056  14.417  14.437   6.750
 7164POPC   C3A50057  14.410  14.453   7.050
 7164POPC   C4A50058  14.398  14.431   7.350
 7164POPC   C1B50059  14.621  14.394   6.450
 7164POPC   C2B50060  14.693  14.396   6.750
 7164POPC   C3B50061  14.662  14.391   7.050
 7164POPC   C4B50062  14.662  14.394   7.350
 7165POPC   NC350063  28.404  37.667   5.550
 7165POPC   PO450064  28.382  37.645   5.850
 7165POPC   GL150065  28.397  37.676   6.150
 7165POPC   GL250066  28.432  37.565   6.150
 7165POPC   C1A50067  28.338  37.686   6.450
 7165POPC   D2A50068  28.378  37.655   6.750
 7165POPC   C3A50069  28.406  37.659   7.050
 7165POPC   C4A50070  28.351  37.671   7.350
 7165POPC   C1B50071  28.593  37.543   6.450
 7165POPC   C2B50072  28.545  37.545   6.750
 7165POPC   C3B50073  28.533  37.498   7.050
 7165POPC   C4B50074  28.528  37.518   7.350
 7166POPC   NC350075  24.513  34.580   5.550
 7166POPC   PO450076  24.471  34.617   5.850
 7166POPC   GL150077  24.508  34.564   6.150
 7166POPC   GL250078  24.445  34.490   6.150
 7166POPC   C1A50079  24.480  34.527   6.450
 7166POPC   D2A50080  24.528  34.622   6.750
 7166POPC   C3A50081  24.478  34.541   7.050
 7166POPC   C4A50082  24.535  34.569   7.350
 7166POPC   C1B50083  24.314  34.326   6.450
 7166POPC   C2B50084  24.314  34.417   6.750
 7166POPC   C3B50085  24.345  34.346   7.050
 7166POPC   C4B50086  24.295  34.352   7.350
 7167POPC   NC350087  17.516  23.677   5.550
 7167POPC   PO450088  17.533  23.697   5.850
 7167POPC   GL150089  17.503  23.736   6.150
 7167POPC   GL250090  17.640  23.793   6.150
 7167POPC   C1A50091  17.509  23.726   6.450
 7167POPC   D2A50092  17.488  23.732   6.750
 7167POPC   C3A50093  17.542  23.666   7.050
 7167POPC   C4A50094  17.554  23.739   7.350
 7167POPC   C1B50095  17.772  23.814   6.450
 7167POPC   C2B50096  17.708  23.793   6.750
 7167POPC   C3B50097  17.696  23.760   7.050
 7167POPC   C4B50098  17.696  23.812   7.350
 7168POPC   NC350099  19.789   5.888   5.550
 7168POPC   PO450100  19.790   5.833   5.850
 7168POPC   GL150101  19.843   5.832   6.150
 7168POPC   GL250102  19.923   5.888   6.150
 7168POPC   C1A50103  19.822   5.902   6.450
 7168POPC   D2A50104  19.799   5.848   6.750
 7168POPC   C3A50105  19.835   5.893   7.050
 7168POPC   C4A50106  19.842   5.820   7.350
 7168POPC   C1B50107  20.071   5.843   6.450
 7168POPC   C2B50108  20.070   5.859   6.750
 7168POPC   C3B50109  20.069   5.833   7.050
 7168POPC   C4B50110  20.105   5.866   7.350
 7169POPC   NC350111  11.341  43.081   5.550
 7169POPC   PO450112  11.254  43.155   5.850
 7169POPC   GL150113  11.276  43.109   6.150
 7169POPC   GL250114  11.158  43.104   6.150
 7169POPC   C1A50115  11.317  43.076   6.450
 7169POPC   D2A50116  11.334  43.064   6.750
 7169POPC   C3A50117  11.272  43.087   7.050
 7169POPC   C4A50118  11.334  43.133   7.350
 7169POPC   C1B50119  11.021  43.048   6.450
 7169POPC   C2B50120  11.066  43.013   6.750
 7169POPC   C3B50121  11.037  42.998   7.050
 7169POPC   C4B50122  11.057  43.028   7.350
 7170POPC   NC350123  25.242  24.518   5.550
 7170POPC   PO450124  25.234  24.476   5.850
 7170POPC   GL150125  25.238  24.518   6.150
 7170POPC   GL250126  25.382  24.551   6.150
 7170POPC   C1A50127  25.225  24.496   6.450
 7170POPC   D2A50128  25.297  24.522   6.750
 7170POPC   C3A50129  25.229  24.530   7.050
 7170POPC   C4A50130  25.271  24.449   7.350
 7170POPC   C1B50131  25.496  24.551   6.450
 7170POPC   C2B50132  25.558  24.536   6.750
 7170POPC   C3B50133  25.475  24.535   7.050
 7170POPC   C4B50134  25.473  24.544   7.350
 7171POPC   NC350135  35.342  36.870   5.550
 7171POPC   PO450136  35.362  36.953   5.850
 7171POPC   GL150137  35.354  36.911   6.150
 7171POPC   GL250138  35.301  36.774   6.150
 7171POPC   C1A50139  35.367  36.856   6.450
 7171POPC   D2A50140  35.379  36.909   6.750
 7171POPC   C3A50141  35.320  36.952   7.050
 7171POPC   C4A50142  35.306  36.895   7.350
 7171POPC   C1B50143  35.277  36.685   6.450
 7171POPC   C2B50144  35.292  36.706   6.750
 7171POPC   C3B50145  35.262  36.657   7.050
 7171POPC   C4B50146  35.214  36.690   7.350
 7172POPC   NC350147   2.760   3.515   5.550
 7172POPC   PO450148   2.751   3.540   5.850
 7172POPC   GL150149   2.757   3.494   6.150
 7172POPC   GL250150   2.878   3.591   6.150
 7172POPC   C1A50151   2.724   3.504   6.450
 7172POPC   D2A50152   2.748   3.509   6.750
 7172POPC   C3A50153   2.732   3.570   7.050
 7172POPC   C4A50154   2.788   3.492   7.350
 7172POPC   C1B50155   2.925   3.745   6.450
 7172POPC   C2B50156   2.925   3.759   6.750
 7172POPC   C3B50157   2.969   3.675   7.050
 7172POPC   C4B50158   2.917   3.690   7.350
 7173POPC   NC350159  21.410   5.904   5.550
 7173POPC   PO450160  21.385   5.845   5.850
 7173POPC   GL150161  21.378   5.849   6.150
 7173POPC   GL250162  21.357   6.040   6.150
 7173POPC   C1A50163  21.399   5.841   6.450
 7173POPC   D2A50164  21.423   5.844   6.750
 7173POPC   C3A50165  21.382   5.873   7.050
 7173POPC   C4A50166  21.359   5.857   7.350
 7173POPC   C1B50167  21.432   6.089   6.450
 7173POPC   C2B50168  21.463   6.093   6.750
 7173POPC   C3B50169  21.459   6.109   7.050
 7173POPC   C4B50170  21.449   6.078   7.350
 7174POPC   NC350171  33.828  34.564   5.550
 7174POPC   PO450172  33.761  34.549   5.850
 7174POPC   GL150173  33.800  34.553   6.150
 7174POPC   GL250174  33.864  34.461   6.150
 7174POPC   C1A50175  33.839  34.574   6.450
 7174POPC   D2A50176  33.791  34.595   6.750
 7174POPC   C3A50177  33.816  34.592   7.050
 7174POPC   C4A50178  33.792  34.584   7.350
 7174POPC   C1B50179  33.914  34.330   6.450
 7174POPC   C2B50180  33.934  34.395   6.750
 7174POPC   C3B50181  33.880  34.391   7.050
 7174POPC   C4B50182  33.894  34.361   7.350
 7175POPC   NC350183  30.715   0.445   5.550
 7175POPC   PO450184  30.725   0.397   5.850
 7175POPC   GL150185  30.650   0.430   6.150
 7175POPC   GL250186  30.601   0.522   6.150
 7175POPC   C1A50187  30.740   0.469   6.450
 7175POPC   D2A50188  30.668   0.478   6.750
 7175POPC   C3A50189  30.659   0.472   7.050
 7175POPC   C4A50190  30.665   0.415   7.350
 7175POPC   C1B50191  30.560   0.584   6.450
 7175POPC   C2B50192  30.503   0.662   6.750
 7175POPC   C3B50193  30.532   0.572   7.050
 7175POPC   C4B50194  30.537   0.638   7.350
 7176POPC   NC350195   7.425  21.389   5.550
 7176POPC   PO450196   7.402  21.407   5.850
 7176POPC   GL150197   7.396  21.362   6.150
 7176POPC   GL250198   7.496  21.340   6.150
 7176POPC   C1A50199   7.373  21.383   6.450
 7176POPC   D2A50200   7.426  21.385   6.750
 7176POPC   C3A50201   7.406  21.405   7.050
 7176POPC   C4A50202   7.401  21.435   7.350
 7176POPC   C1B50203   7.607  21.244   6.450
 7176POPC   C2B50204   7.641  21.207   6.750
 7176POPC   C3B50205   7.648  21.246   7.050
 7176POPC   C4B50206   7.596  21.259   7.350
 7177POPC   NC350207  10.510  39.212   5.550
 7177POPC   PO450208  10.474  39.256   5.850
 7177POPC   GL150209  10.570  39.224   6.150
 7177POPC   GL250210  10.386  39.151   6.150
 7177POPC   C1A50211  10.515  39.192   6.450
 7177POPC   D2A50212  10.531  39.211   6.750
 7177POPC   C3A50213  10.550  39.234   7.050
 7177POPC   C4A50214  10.556  39.191   7.350
 7177POPC   C1B50215  10.338  39.086   6.450
 7177POPC   C2B50216  10.336  39.036   6.750
 7177POPC   C3B50217  10.312  39.065   7.050
 7177POPC   C4B50218  10.357  39.078   7.350
 7178POPC   NC350219  40.776  33.845   5.550
 7178POPC   PO450220  40.760  33.850   5.850
 7178POPC   GL150221  40.764  33.763   6.150
 7178POPC   GL250222  40.854  33.754   6.150
 7178POPC   C1A50223  40.786  33.844   6.450
 7178POPC   D2A50224  40.795  33.826   6.750
 7178POPC   C3A50225  40.805  33.754   7.050
 7178POPC   C4A50226  40.750  33.804   7.350
 7178POPC   C1B50227  41.017  33.763   6.450
 7178POPC   C2B50228  40.987  33.690   6.750
 7178POPC   C3B50229  40.986  33.694   7.050
 7178POPC   C4B50230  41.040  33.758   7.350
 7179POPC   NC350231  32.270  38.408   5.550
 7179POPC   PO450232  32.247  38.475   5.850
 7179POPC   GL150233  32.237  38.485   6.150
 7179POPC   GL250234  32.187  38.327   6.150
 7179POPC   C1A50235  32.227  38.414   6.450
 7179POPC   D2A50236  32.219  38.451   6.750
 7179POPC   C3A50237  32.218  38.454   7.050
 7179POPC   C4A50238  32.257  38.448   7.350
 7179POPC   C1B50239  32.101  38.235   6.450
 7179POPC   C2B50240  32.069  38.225   6.750
 7179POPC   C3B50241  32.078  38.304   7.050
 7179POPC   C4B50242  32.078  38.221   7.350
 7180POPC   NC350243  13.643  34.621   5.550
 7180POPC   PO450244  13.616  34.600   5.850
 7180POPC   GL150245  13.668  34.605   6.150
 7180POPC   GL250246  13.634  34.725   6.150
 7180POPC   C1A50247  13.612  34.557   6.450
 7180POPC   D2A50248  13.589  34.587   6.750
 7180POPC   C3A50249  13.628  34.574   7.050
 7180POPC   C4A50250  13.582  34.589   7.350
 7180POPC   C1B50251  13.548  34.851   6.450
 7180POPC   C2B50252  13.539  34.797   6.750
 7180POPC   C3B50253  13.586  34.868   7.050
 7180POPC   C4B50254  13.551  34.773   7.350
 7181POPC   NC350255  22.151  42.362   5.550
 7181POPC   PO450256  22.166  42.362   5.850
 7181POPC   GL150257  22.149  42.297   6.150
 7181POPC   GL250258  22.327  42.285   6.150
 7181POPC   C1A50259  22.187  42.290   6.450
 7181POPC   D2A50260  22.125  42.328   6.750
 7181POPC   C3A50261  22.126  42.307   7.050
 7181POPC   C4A50262  22.198  42.338   7.350
 7181POPC   C1B50263  22.395  42.353   6.450
 7181POPC   C2B50264  22.364  42.283   6.750
 7181POPC   C3B50265  22.409  42.360   7.050
 7181POPC   C4B50266  22.378  42.274   7.350
 7182POPC   NC350267  29.940  31.446   5.550
 7182POPC   PO450268  29.925  31.515   5.850
 7182POPC   GL150269  29.937  31.464   6.150
 7182POPC   GL250270  30.030  31.489   6.150
 7182POPC   C1A50271  29.952  31.479   6.450
 7182POPC   D2A50272  29.896  31.438   6.750
 7182POPC   C3A50273  29.885  31.466   7.050
 7182POPC   C4A50274  29.903  31.461   7.350
 7182POPC   C1B50275  30.128  31.560   6.450
 7182POPC   C2B50276  30.142  31.569   6.750
 7182POPC   C3B50277  30.151  31.529   7.050
 7182POPC   C4B50278  30.178  31.567   7.350
 7183POPC   NC350279  32.998  17.478   5.550
 7183POPC   PO450280  33.030  17.458   5.850
 7183POPC   GL150281  33.038  17.497   6.150
 7183POPC   GL250282  33.024  17.586   6.150
 7183POPC   C1A50283  33.007  17.544   6.450
 7183POPC   D2A50284  32.992  17.527   6.750
 7183POPC   C3A50285  33.025  17.483   7.050
 7183POPC   C4A50286  33.017  17.507   7.350
 7183POPC   C1B50287  33.052  17.719   6.450
 7183POPC   C2B50288  33.062  17.709   6.750
 7183POPC   C3B50289  33.094  17.720   7.050
 7183POPC   C4B50290  33.041  17.750   7.350
 7184POPC   NC350291  12.028  25.270   5.550
 7184POPC   PO450292  12.073  25.302   5.850
 7184POPC   GL150293  12.119  25.231   6.150
 7184POPC   GL250294  12.197  25.168   6.150
 7184POPC   C1A50295  12.049  25.219   6.450
 7184POPC   D2A50296  12.091  25.292   6.750
 7184POPC   C3A50297  12.065  25.294   7.050
 7184POPC   C4A50298  12.106  25.223   7.350
 7184POPC   C1B50299  12.279  25.067   6.450
 7184POPC   C2B50300  12.211  25.137   6.750
 7184POPC   C3B50301  12.284  25.131   7.050
 7184POPC   C4B50302  12.273  25.128   7.350
 7185POPC   NC350303   1.186   4.274   5.550
 7185POPC   PO450304   1.246   4.327   5.850
 7185POPC   GL150305   1.199   4.365   6.150
 7185POPC   GL250306   1.234   4.221   6.150
 7185POPC   C1A50307   1.164   4.270   6.450
 7185POPC   D2A50308   1.232   4.273   6.750
 7185POPC   C3A50309   1.204   4.364   7.050
 7185POPC   C4A50310   1.166   4.279   7.350
 7185POPC   C1B50311   1.263   4.128   6.450
 7185POPC   C2B50312   1.255   4.120   6.750
 7185POPC   C3B50313   1.293   4.081   7.050
 7185POPC   C4B50314   1.296   4.106   7.350
 7186POPC   NC350315  22.203  14.384   5.550
 7186POPC   PO450316  22.198  14.362   5.850
 7186POPC   GL150317  22.201  14.448   6.150
 7186POPC   GL250318  22.257  14.398   6.150
 7186POPC   C1A50319  22.131  14.368   6.450
 7186POPC   D2A50320  22.131  14.426   6.750
 7186POPC   C3A50321  22.147  14.415   7.050
 7186POPC   C4A50322  22.144  14.431   7.350
 7186POPC   C1B50323  22.411  14.381   6.450
 7186POPC   C2B50324  22.440  14.335   6.750
 7186POPC   C3B50325  22.457  14.324   7.050
 7186POPC   C4B50326  22.361  14.358   7.350
 7187POPC   NC350327   1.199  37.633   5.550
 7187POPC   PO450328   1.190  37.678   5.850
 7187POPC   GL150329   1.211  37.648   6.150
 7187POPC   GL250330   1.198  37.547   6.150
 7187POPC   C1A50331   1.170  37.639   6.450
 7187POPC   D2A50332   1.181  37.678   6.750
 7187POPC   C3A50333   1.202  37.655   7.050
 7187POPC   C4A50334   1.201  37.702   7.350
 7187POPC   C1B50335   1.185  37.445   6.450
 7187POPC   C2B50336   1.122  37.438   6.750
 7187POPC   C3B50337   1.156  37.391   7.050
 7187POPC   C4B50338   1.185  37.394   7.350
 7188POPC   NC350339  21.387  35.333   5.550
 7188POPC   PO450340  21.426  35.401   5.850
 7188POPC   GL150341  21.397  35.345   6.150
 7188POPC   GL250342  21.322  35.329   6.150
 7188POPC   C1A50343  21.356  35.397   6.450
 7188POPC   D2A50344  21.370  35.385   6.750
 7188POPC   C3A50345  21.390  35.324   7.050
 7188POPC   C4A50346  21.356  35.376   7.350
 7188POPC   C1B50347  21.212  35.188   6.450
 7188POPC   C2B50348  21.154  35.254   6.750
 7188POPC   C3B50349  21.160  35.252   7.050
 7188POPC   C4B50350  21.209  35.267   7.350
 7189POPC   NC350351  12.057   4.324   5.550
 7189POPC   PO450352  12.044   4.290   5.850
 7189POPC   GL150353  12.124   4.364   6.150
 7189POPC   GL250354  12.199   4.375   6.150
 7189POPC   C1A50355  12.113   4.301   6.450
 7189POPC   D2A50356  12.037   4.273   6.750
 7189POPC   C3A50357  12.087   4.287   7.050
 7189POPC   C4A50358  12.101   4.316   7.350
 7189POPC   C1B50359  12.277   4.413   6.450
 7189POPC   C2B50360  12.311   4.470   6.750
 7189POPC   C3B50361  12.271   4.395   7.050
 7189POPC   C4B50362  12.315   4.467   7.350
 7190POPC   NC350363  33.848   5.916   5.550
 7190POPC   PO450364  33.824   5.887   5.850
 7190POPC   GL150365  33.774   5.905   6.150
 7190POPC   GL250366  33.932   5.820   6.150
 7190POPC   C1A50367  33.833   5.869   6.450
 7190POPC   D2A50368  33.759   5.864   6.750
 7190POPC   C3A50369  33.750   5.892   7.050
 7190POPC   C4A50370  33.801   5.897   7.350
 7190POPC   C1B50371  34.024   5.740   6.450
 7190POPC   C2B50372  34.010   5.824   6.750
 7190POPC   C3B50373  34.061   5.780   7.050
 7190POPC   C4B50374  34.052   5.748   7.350
 7191POPC   NC350375  31.489  18.238   5.550
 7191POPC   PO450376  31.514  18.286   5.850
 7191POPC   GL150377  31.439  18.247   6.150
 7191POPC   GL250378  31.352  18.294   6.150
 7191POPC   C1A50379  31.506  18.312   6.450
 7191POPC   D2A50380  31.474  18.271   6.750
 7191POPC   C3A50381  31.504  18.287   7.050
 7191POPC   C4A50382  31.442  18.297   7.350
 7191POPC   C1B50383  31.184  18.192   6.450
 7191POPC   C2B50384  31.230  18.264   6.750
 7191POPC   C3B50385  31.181  18.238   7.050
 7191POPC   C4B50386  31.257  18.265   7.350
 7192POPC   NC350387  29.120  32.985   5.550
 7192POPC   PO450388  29.172  33.055   5.850
 7192POPC   GL150389  29.149  33.001   6.150
 7192POPC   GL250390  29.288  33.085   6.150
 7192POPC   C1A50391  29.106  33.036   6.450
 7192POPC   D2A50392  29.113  33.056   6.750
 7192POPC   C3A50393  29.179  33.030   7.050
 7192POPC   C4A50394  29.147  33.057   7.350
 7192POPC   C1B50395  29.406  33.043   6.450
 7192POPC   C2B50396  29.379  33.097   6.750
 7192POPC   C3B50397  29.430  33.045   7.050
 7192POPC   C4B50398  29.340  33.092   7.350
 7193POPC   NC350399  43.866  38.493   5.550
 7193POPC   PO450400  43.880  38.449   5.850
 7193POPC   GL150401  43.927  38.410   6.150
 7193POPC   GL250402  43.816  38.355   6.150
 7193POPC   C1A50403  43.920  38.418   6.450
 7193POPC   D2A50404  43.844  38.494   6.750
 7193POPC   C3A50405  43.898  38.413   7.050
 7193POPC   C4A50406  43.872  38.466   7.350
 7193POPC   C1B50407  43.611  38.366   6.450
 7193POPC   C2B50408  43.693  38.312   6.750
 7193POPC   C3B50409  43.615  38.379   7.050
 7193POPC   C4B50410  43.620  38.389   7.350
 7194POPC   NC350411   1.981  17.526   5.550
 7194POPC   PO450412   1.980  17.511   5.850
 7194POPC   GL150413   2.021  17.504   6.150
 7194POPC   GL250414   2.028  17.373   6.150
 7194POPC   C1A50415   2.014  17.497   6.450
 7194POPC   D2A50416   2.015  17.527   6.750
 7194POPC   C3A50417   2.031  17.517   7.050
 7194POPC   C4A50418   1.973  17.471   7.350
 7194POPC   C1B50419   2.087  17.262   6.450
 7194POPC   C2B50420   2.085  17.281   6.750
 7194POPC   C3B50421   2.052  17.239   7.050
 7194POPC   C4B50422   2.037  17.251   7.350
 7195POPC   NC350423  38.447   0.439   5.550
 7195POPC   PO450424  38.476   0.435   5.850
 7195POPC   GL150425  38.499   0.450   6.150
 7195POPC   GL250426  38.355   0.574   6.150
 7195POPC   C1A50427  38.476   0.403   6.450
 7195POPC   D2A50428  38.503   0.395   6.750
 7195POPC   C3A50429  38.467   0.455   7.050
 7195POPC   C4A50430  38.491   0.427   7.350
 7195POPC   C1B50431  38.313   0.604   6.450
 7195POPC   C2B50432  38.310   0.629   6.750
 7195POPC   C3B50433  38.356   0.613   7.050
 7195POPC   C4B50434  38.325   0.655   7.350
 7196POPC   NC350435  39.265  15.976   5.550
 7196POPC   PO450436  39.270  15.941   5.850
 7196POPC   GL150437  39.229  15.957   6.150
 7196POPC   GL250438  39.141  15.959   6.150
 7196POPC   C1A50439  39.207  15.996   6.450
 7196POPC   D2A50440  39.182  15.953   6.750
 7196POPC   C3A50441  39.219  16.005   7.050
 7196POPC   C4A50442  39.192  15.924   7.350
 7196POPC   C1B50443  38.956  15.932   6.450
 7196POPC   C2B50444  39.000  15.987   6.750
 7196POPC   C3B50445  38.980  15.930   7.050
 7196POPC   C4B50446  38.933  16.008   7.350
 7197POPC   NC350447  10.475   0.449   5.550
 7197POPC   PO450448  10.482   0.417   5.850
 7197POPC   GL150449  10.548   0.417   6.150
 7197POPC   GL250450  10.555   0.364   6.150
 7197POPC   C1A50451  10.496   0.446   6.450
 7197POPC   D2A50452  10.475   0.401   6.750
 7197POPC   C3A50453  10.543   0.439   7.050
 7197POPC   C4A50454  10.557   0.425   7.350
 7197POPC   C1B50455  10.642   0.205   6.450
 7197POPC   C2B50456  10.645   0.191   6.750
 7197POPC   C3B50457  10.638   0.196   7.050
 7197POPC   C4B50458  10.588   0.240   7.350
 7198POPC   NC350459   2.782   0.446   5.550
 7198POPC   PO450460   2.748   0.397   5.850
 7198POPC   GL150461   2.740   0.455   6.150
 7198POPC   GL250462   2.883   0.344   6.150
 7198POPC   C1A50463   2.793   0.481   6.450
 7198POPC   D2A50464   2.734   0.415   6.750
 7198POPC   C3A50465   2.766   0.453   7.050
 7198POPC   C4A50466   2.762   0.436   7.350
 7198POPC   C1B50467   3.036   0.325   6.450
 7198POPC   C2B50468   3.044   0.330   6.750
 7198POPC   C3B50469   2.983   0.347   7.050
 7198POPC   C4B50470   3.035   0.292   7.350
 7199POPC   NC350471  22.938  20.642   5.550
 7199POPC   PO450472  22.940  20.641   5.850
 7199POPC   GL150473  22.899  20.649   6.150
 7199POPC   GL250474  23.010  20.568   6.150
 7199POPC   C1A50475  22.896  20.579   6.450
 7199POPC   D2A50476  22.981  20.641   6.750
 7199POPC   C3A50477  22.961  20.592   7.050
 7199POPC   C4A50478  22.913  20.605   7.350
 7199POPC   C1B50479  23.211  20.577   6.450
 7199POPC   C2B50480  23.158  20.567   6.750
 7199POPC   C3B50481  23.134  20.556   7.050
 7199POPC   C4B50482  23.178  20.501   7.350
 7200POPC   NC350483  26.824  14.356   5.550
 7200POPC   PO450484  26.783  14.417   5.850
 7200POPC   GL150485  26.821  14.435   6.150
 7200POPC   GL250486  26.904  14.486   6.150
 7200POPC   C1A50487  26.824  14.390   6.450
 7200POPC   D2A50488  26.816  14.424   6.750
 7200POPC   C3A50489  26.856  14.397   7.050
 7200POPC   C4A50490  26.835  14.379   7.350
 7200POPC   C1B50491  26.959  14.570   6.450
 7200POPC   C2B50492  26.917  14.570   6.750
 7200POPC   C3B50493  26.943  14.612   7.050
 7200POPC   C4B50494  26.941  14.641   7.350
 7201POPC   NC350495  32.244  15.956   5.550
 7201POPC   PO450496  32.284  15.906   5.850
 7201POPC   GL150497  32.229  15.915   6.150
 7201POPC   GL250498  32.323  16.023   6.150
 7201POPC   C1A50499  32.286  15.924   6.450
 7201POPC   D2A50500  32.267  15.908   6.750
 7201POPC   C3A50501  32.263  15.915   7.050
 7201POPC   C4A50502  32.219  15.960   7.350
 7201POPC   C1B50503  32.417  16.149   6.450
 7201POPC   C2B50504  32.390  16.152   6.750
 7201POPC   C3B50505  32.394  16.155   7.050
 7201POPC   C4B50506  32.409  16.141   7.350
 7202POPC   NC350507  23.697  36.125   5.550
 7202POPC   PO450508  23.712  36.143   5.850
 7202POPC   GL150509  23.719  36.168   6.150
 7202POPC   GL250510  23.710  36.265   6.150
 7202POPC   C1A50511  23.737  36.088   6.450
 7202POPC   D2A50512  23.671  36.177   6.750
 7202POPC   C3A50513  23.673  36.177   7.050
 7202POPC   C4A50514  23.750  36.094   7.350
 7202POPC   C1B50515  23.741  36.406   6.450
 7202POPC   C2B50516  23.780  36.388   6.750
 7202POPC   C3B50517  23.784  36.366   7.050
 7202POPC   C4B50518  23.818  36.371   7.350
 7203POPC   NC350519  16.695   5.070   5.550
 7203POPC   PO450520  16.768   5.066   5.850
 7203POPC   GL150521  16.766   5.130   6.150
 7203POPC   GL250522  16.617   4.966   6.150
 7203POPC   C1A50523  16.779   5.058   6.450
 7203POPC   D2A50524  16.696   5.114   6.750
 7203POPC   C3A50525  16.706   5.094   7.050
 7203POPC   C4A50526  16.684   5.095   7.350
 7203POPC   C1B50527  16.586   4.904   6.450
 7203POPC   C2B50528  16.603   4.926   6.750
 7203POPC   C3B50529  16.613   4.872   7.050
 7203POPC   C4B50530  16.575   4.886   7.350
 7204POPC   NC350531  13.597  42.297   5.550
 7204POPC   PO450532  13.657  42.331   5.850
 7204POPC   GL150533  13.655  42.379   6.150
 7204POPC   GL250534  13.612  42.465   6.150
 7204POPC   C1A50535  13.677  42.292   6.450
 7204POPC   D2A50536  13.676  42.318   6.750
 7204POPC   C3A50537  13.635  42.372   7.050
 7204POPC   C4A50538  13.603  42.341   7.350
 7204POPC   C1B50539  13.647  42.623   6.450
 7204POPC   C2B50540  13.648  42.585   6.750
 7204POPC   C3B50541  13.698  42.598   7.050
 7204POPC   C4B50542  13.723  42.561   7.350
 7205POPC   NC350543   8.149  10.560   5.550
 7205POPC   PO450544   8.189  10.516   5.850
 7205POPC   GL150545   8.229  10.505   6.150
 7205POPC   GL250546   8.196  10.629   6.150
 7205POPC   C1A50547   8.203  10.482   6.450
 7205POPC   D2A50548   8.220  10.496   6.750
 7205POPC   C3A50549   8.178  10.571   7.050
 7205POPC   C4A50550   8.212  10.521   7.350
 7205POPC   C1B50551   8.088  10.814   6.450
 7205POPC   C2B50552   8.175  10.743   6.750
 7205POPC   C3B50553   8.149  10.735   7.050
 7205POPC   C4B50554   8.168  10.811   7.350
 7206POPC   NC350555  22.937   4.350   5.550
 7206POPC   PO450556  22.934   4.270   5.850
 7206POPC   GL150557  22.977   4.302   6.150
 7206POPC   GL250558  22.950   4.421   6.150
 7206POPC   C1A50559  22.961   4.356   6.450
 7206POPC   D2A50560  22.947   4.329   6.750
 7206POPC   C3A50561  22.912   4.295   7.050
 7206POPC   C4A50562  22.962   4.337   7.350
 7206POPC   C1B50563  22.904   4.598   6.450
 7206POPC   C2B50564  22.910   4.595   6.750
 7206POPC   C3B50565  22.908   4.598   7.050
 7206POPC   C4B50566  22.931   4.554   7.350
 7207POPC   NC350567  13.626  12.037   5.550
 7207POPC   PO450568  13.650  12.044   5.850
 7207POPC   GL150569  13.663  12.080   6.150
 7207POPC   GL250570  13.470  12.175   6.150
 7207POPC   C1A50571  13.588  12.065   6.450
 7207POPC   D2A50572  13.588  12.069   6.750
 7207POPC   C3A50573  13.604  12.111   7.050
 7207POPC   C4A50574  13.622  12.064   7.350
 7207POPC   C1B50575  13.413  12.142   6.450
 7207POPC   C2B50576  13.376  12.167   6.750
 7207POPC   C3B50577  13.438  12.185   7.050
 7207POPC   C4B50578  13.410  12.226   7.350
 7208POPC   NC350579  21.425   1.220   5.550
 7208POPC   PO450580  21.373   1.242   5.850
 7208POPC   GL150581  21.421   1.178   6.150
 7208POPC   GL250582  21.258   1.225   6.150
 7208POPC   C1A50583  21.399   1.181   6.450
 7208POPC   D2A50584  21.365   1.236   6.750
 7208POPC   C3A50585  21.425   1.164   7.050
 7208POPC   C4A50586  21.424   1.187   7.350
 7208POPC   C1B50587  21.115   1.209   6.450
 7208POPC   C2B50588  21.143   1.196   6.750
 7208POPC   C3B50589  21.172   1.156   7.050
 7208POPC   C4B50590  21.170   1.216   7.350
 7209POPC   NC350591  44.624  43.125   5.550
 7209POPC   PO450592  44.649  43.081   5.850
 7209POPC   GL150593  44.630  43.150   6.150
 7209POPC   GL250594  44.654  43.268   6.150
 7209POPC   C1A50595  44.639  43.106   6.450
 7209POPC   D2A50596  44.639  43.103   6.750
 7209POPC   C3A50597  44.699  43.142   7.050
 7209POPC   C4A50598  44.664  43.139   7.350
 7209POPC   C1B50599  44.691  43.344   6.450
 7209POPC   C2B50600  44.652  43.342   6.750
 7209POPC   C3B50601  44.698  43.313   7.050
 7209POPC   C4B50602  44.659  43.320   7.350
 7210POPC   NC350603  40.040  34.529   5.550
 7210POPC   PO450604  40.056  34.613   5.850
 7210POPC   GL150605  40.045  34.582   6.150
 7210POPC   GL250606  40.019  34.727   6.150
 7210POPC   C1A50607  39.967  34.569   6.450
 7210POPC   D2A50608  39.993  34.573   6.750
 7210POPC   C3A50609  39.972  34.585   7.050
 7210POPC   C4A50610  39.980  34.609   7.350
 7210POPC   C1B50611  39.979  34.870   6.450
 7210POPC   C2B50612  39.994  34.856   6.750
 7210POPC   C3B50613  39.991  34.785   7.050
 7210POPC   C4B50614  40.016  34.871   7.350
 7211POPC   NC350615  12.111   8.151   5.550
 7211POPC   PO450616  12.061   8.234   5.850
 7211POPC   GL150617  12.125   8.167   6.150
 7211POPC   GL250618  12.176   8.106   6.150
 7211POPC   C1A50619  12.090   8.244   6.450
 7211POPC   D2A50620  12.052   8.155   6.750
 7211POPC   C3A50621  12.072   8.215   7.050
 7211POPC   C4A50622  12.075   8.219   7.350
 7211POPC   C1B50623  12.179   8.000   6.450
 7211POPC   C2B50624  12.198   7.958   6.750
 7211POPC   C3B50625  12.193   8.021   7.050
 7211POPC   C4B50626  12.214   8.030   7.350
 7212POPC   NC350627  33.840   6.609   5.550
 7212POPC   PO450628  33.783   6.614   5.850
 7212POPC   GL150629  33.827   6.694   6.150
 7212POPC   GL250630  33.916   6.755   6.150
 7212POPC   C1A50631  33.846   6.598   6.450
 7212POPC   D2A50632  33.829   6.629   6.750
 7212POPC   C3A50633  33.791   6.615   7.050
 7212POPC   C4A50634  33.813   6.689   7.350
 7212POPC   C1B50635  34.041   6.771   6.450
 7212POPC   C2B50636  33.976   6.786   6.750
 7212POPC   C3B50637  33.994   6.847   7.050
 7212POPC   C4B50638  34.019   6.783   7.350
 7213POPC   NC350639  20.571  12.063   5.550
 7213POPC   PO450640  20.580  12.078   5.850
 7213POPC   GL150641  20.636  12.086   6.150
 7213POPC   GL250642  20.501  12.028   6.150
 7213POPC   C1A50643  20.600  12.099   6.450
 7213POPC   D2A50644  20.638  12.123   6.750
 7213POPC   C3A50645  20.634  12.095   7.050
 7213POPC   C4A50646  20.643  12.097   7.350
 7213POPC   C1B50647  20.369  12.001   6.450
 7213POPC   C2B50648  20.341  11.966   6.750
 7213POPC   C3B50649  20.400  12.028   7.050
 7213POPC   C4B50650  20.349  11.983   7.350
 7214POPC   NC350651   8.970   1.943   5.550
 7214POPC   PO450652   9.011   1.966   5.850
 7214POPC   GL150653   9.003   2.028   6.150
 7214POPC   GL250654   8.942   2.063   6.150
 7214POPC   C1A50655   8.928   1.966   6.450
 7214POPC   D2A50656   9.015   1.976   6.750
 7214POPC   C3A50657   8.942   1.940   7.050
 7214POPC   C4A50658   8.967   2.006   7.350
 7214POPC   C1B50659   8.961   2.261   6.450
 7214POPC   C2B50660   8.914   2.200   6.750
 7214POPC   C3B50661   8.939   2.256   7.050
 7214POPC   C4B50662   8.890   2.282   7.350
 7215POPC   NC350663   6.618   8.215   5.550
 7215POPC   PO450664   6.636   8.187   5.850
 7215POPC   GL150665   6.597   8.159   6.150
 7215POPC   GL250666   6.583   8.162   6.150
 7215POPC   C1A50667   6.661   8.192   6.450
 7215POPC   D2A50668   6.615   8.156   6.750
 7215POPC   C3A50669   6.691   8.207   7.050
 7215POPC   C4A50670   6.649   8.226   7.350
 7215POPC   C1B50671   6.416   8.035   6.450
 7215POPC   C2B50672   6.478   8.081   6.750
 7215POPC   C3B50673   6.479   7.998   7.050
 7215POPC   C4B50674   6.409   8.049   7.350
 7216POPC   NC350675  30.661  12.117   5.550
 7216POPC   PO450676  30.697  12.052   5.850
 7216POPC   GL150677  30.719  12.089   6.150
 7216POPC   GL250678  30.853  12.076   6.150
 7216POPC   C1A50679  30.707  12.094   6.450
 7216POPC   D2A50680  30.728  12.073   6.750
 7216POPC   C3A50681  30.701  12.102   7.050
 7216POPC   C4A50682  30.744  12.106   7.350
 7216POPC   C1B50683  30.920  12.019   6.450
 7216POPC   C2B50684  30.965  12.052   6.750
 7216POPC   C3B50685  30.972  12.059   7.050
 7216POPC   C4B50686  30.910  11.979   7.350
 7217POPC   NC350687   5.122   0.478   5.550
 7217POPC   PO450688   5.090   0.471   5.850
 7217POPC   GL150689   5.119   0.413   6.150
 7217POPC   GL250690   4.950   0.414   6.150
 7217POPC   C1A50691   5.100   0.429   6.450
 7217POPC   D2A50692   5.045   0.418   6.750
 7217POPC   C3A50693   5.070   0.481   7.050
 7217POPC   C4A50694   5.126   0.469   7.350
 7217POPC   C1B50695   4.831   0.274   6.450
 7217POPC   C2B50696   4.844   0.303   6.750
 7217POPC   C3B50697   4.850   0.329   7.050
 7217POPC   C4B50698   4.901   0.326   7.350
 7218POPC   NC350699  18.325  33.015   5.550
 7218POPC   PO450700  18.243  33.010   5.850
 7218POPC   GL150701  18.321  32.998   6.150
 7218POPC   GL250702  18.200  32.936   6.150
 7218POPC   C1A50703  18.266  32.988   6.450
 7218POPC   D2A50704  18.271  33.066   6.750
 7218POPC   C3A50705  18.272  32.980   7.050
 7218POPC   C4A50706  18.310  33.064   7.350
 7218POPC   C1B50707  18.107  32.832   6.450
 7218POPC   C2B50708  18.039  32.860   6.750
 7218POPC   C3B50709  18.123  32.907   7.050
 7218POPC   C4B50710  18.099  32.838   7.350
 7219POPC   NC350711  39.977  37.637   5.550
 7219POPC   PO450712  40.029  37.644   5.850
 7219POPC   GL150713  40.001  37.659   6.150
 7219POPC   GL250714  40.122  37.752   6.150
 7219POPC   C1A50715  39.984  37.642   6.450
 7219POPC   D2A50716  40.027  37.713   6.750
 7219POPC   C3A50717  40.035  37.650   7.050
 7219POPC   C4A50718  40.020  37.641   7.350
 7219POPC   C1B50719  40.150  37.825   6.450
 7219POPC   C2B50720  40.212  37.835   6.750
 7219POPC   C3B50721  40.207  37.850   7.050
 7219POPC   C4B50722  40.208  37.887   7.350
 7220POPC   NC350723  15.151  12.105   5.550
 7220POPC   PO450724  15.131  12.098   5.850
 7220POPC   GL150725  15.173  12.085   6.150
 7220POPC   GL250726  15.214  11.943   6.150
 7220POPC   C1A50727  15.145  12.054   6.450
 7220POPC   D2A50728  15.216  12.109   6.750
 7220POPC   C3A50729  15.136  12.109   7.050
 7220POPC   C4A50730  15.196  12.114   7.350
 7220POPC   C1B50731  15.309  11.799   6.450
 7220POPC   C2B50732  15.263  11.832   6.750
 7220POPC   C3B50733  15.291  11.860   7.050
 7220POPC   C4B50734  15.289  11.805   7.350
 7221POPC   NC350735  11.331  14.433   5.550
 7221POPC   PO450736  11.307  14.438   5.850
 7221POPC   GL150737  11.327  14.414   6.150
 7221POPC   GL250738  11.378  14.515   6.150
 7221POPC   C1A50739  11.285  14.443   6.450
 7221POPC   D2A50740  11.304  14.366   6.750
 7221POPC   C3A50741  11.338  14.412   7.050
 7221POPC   C4A50742  11.295  14.392   7.350
 7221POPC   C1B50743  11.507  14.567   6.450
 7221POPC   C2B50744  11.494  14.524   6.750
 7221POPC   C3B50745  11.499  14.503   7.050
 7221POPC   C4B50746  11.538  14.508   7.350
 7222POPC   NC350747  31.502  25.294   5.550
 7222POPC   PO450748  31.504  25.284   5.850
 7222POPC   GL150749  31.491  25.278   6.150
 7222POPC   GL250750  31.458  25.368   6.150
 7222POPC   C1A50751  31.511  25.277   6.450
 7222POPC   D2A50752  31.510  25.273   6.750
 7222POPC   C3A50753  31.475  25.226   7.050
 7222POPC   C4A50754  31.433  25.292   7.350
 7222POPC   C1B50755  31.392  25.529   6.450
 7222POPC   C2B50756  31.323  25.484   6.750
 7222POPC   C3B50757  31.365  25.522   7.050
 7222POPC   C4B50758  31.359  25.527   7.350
 7223POPC   NC350759  31.502  24.537   5.550
 7223POPC   PO450760  31.457  24.525   5.850
 7223POPC   GL150761  31.457  24.490   6.150
 7223POPC   GL250762  31.535  24.355   6.150
 7223POPC   C1A50763  31.437  24.445   6.450
 7223POPC   D2A50764  31.463  24.519   6.750
 7223POPC   C3A50765  31.479  24.539   7.050
 7223POPC   C4A50766  31.432  24.486   7.350
 7223POPC   C1B50767  31.550  24.287   6.450
 7223POPC   C2B50768  31.601  24.296   6.750
 7223POPC   C3B50769  31.634  24.307   7.050
 7223POPC   C4B50770  31.631  24.310   7.350
 7224POPC   NC350771  14.378  24.513   5.550
 7224POPC   PO450772  14.394  24.450   5.850
 7224POPC   GL150773  14.427  24.494   6.150
 7224POPC   GL250774  14.351  24.591   6.150
 7224POPC   C1A50775  14.429  24.530   6.450
 7224POPC   D2A50776  14.426  24.445   6.750
 7224POPC   C3A50777  14.437  24.456   7.050
 7224POPC   C4A50778  14.389  24.488   7.350
 7224POPC   C1B50779  14.242  24.637   6.450
 7224POPC   C2B50780  14.273  24.716   6.750
 7224POPC   C3B50781  14.223  24.731   7.050
 7224POPC   C4B50782  14.203  24.658   7.350
 7225POPC   NC350783  30.703  43.887   5.550
 7225POPC   PO450784  30.736  43.902   5.850
 7225POPC   GL150785  30.714  43.902   6.150
 7225POPC   GL250786  30.771  43.716   6.150
 7225POPC   C1A50787  30.733  43.867   6.450
 7225POPC   D2A50788  30.694  43.917   6.750
 7225POPC   C3A50789  30.678  43.883   7.050
 7225POPC   C4A50790  30.658  43.851   7.350
 7225POPC   C1B50791  30.801  43.666   6.450
 7225POPC   C2B50792  30.790  43.690   6.750
 7225POPC   C3B50793  30.713  43.629   7.050
 7225POPC   C4B50794  30.750  43.658   7.350
 7226POPC   NC350795   1.208   2.721   5.550
 7226POPC   PO450796   1.170   2.738   5.850
 7226POPC   GL150797   1.165   2.763   6.150
 7226POPC   GL250798   1.226   2.596   6.150
 7226POPC   C1A50799   1.227   2.770   6.450
 7226POPC   D2A50800   1.204   2.809   6.750
 7226POPC   C3A50801   1.169   2.791   7.050
 7226POPC   C4A50802   1.196   2.740   7.350
 7226POPC   C1B50803   1.148   2.513   6.450
 7226POPC   C2B50804   1.098   2.536   6.750
 7226POPC   C3B50805   1.187   2.499   7.050
 7226POPC   C4B50806   1.117   2.543   7.350
 7227POPC   NC350807  22.197  44.669   5.550
 7227POPC   PO450808  22.188  44.663   5.850
 7227POPC   GL150809  22.198  44.689   6.150
 7227POPC   GL250810  22.065  44.682   6.150
 7227POPC   C1A50811  22.199  44.689   6.450
 7227POPC   D2A50812  22.159  44.700   6.750
 7227POPC   C3A50813  22.203  44.635   7.050
 7227POPC   C4A50814  22.206  44.673   7.350
 7227POPC   C1B50815  21.917  44.726   6.450
 7227POPC   C2B50816  21.943  44.737   6.750
 7227POPC   C3B50817  21.922  44.750   7.050
 7227POPC   C4B50818  21.875  44.730   7.350
 7228POPC   NC350819  36.883  43.101   5.550
 7228POPC   PO450820  36.952  43.084   5.850
 7228POPC   GL150821  36.908  43.090   6.150
 7228POPC   GL250822  37.053  43.109   6.150
 7228POPC   C1A50823  36.893  43.156   6.450
 7228POPC   D2A50824  36.908  43.094   6.750
 7228POPC   C3A50825  36.913  43.138   7.050
 7228POPC   C4A50826  36.946  43.079   7.350
 7228POPC   C1B50827  37.104  43.111   6.450
 7228POPC   C2B50828  37.133  43.025   6.750
 7228POPC   C3B50829  37.153  43.078   7.050
 7228POPC   C4B50830  37.160  43.075   7.350
 7229POPC   NC350831  15.227  26.058   5.550
 7229POPC   PO450832  15.178  26.071   5.850
 7229POPC   GL150833  15.165  26.075   6.150
 7229POPC   GL250834  15.244  26.191   6.150
 7229POPC   C1A50835  15.152  26.050   6.450
 7229POPC   D2A50836  15.221  26.067   6.750
 7229POPC   C3A50837  15.204  25.999   7.050
 7229POPC   C4A50838  15.155  26.062   7.350
 7229POPC   C1B50839  15.217  26.248   6.450
 7229POPC   C2B50840  15.269  26.271   6.750
 7229POPC   C3B50841  15.201  26.287   7.050
 7229POPC   C4B50842  15.255  26.320   7.350
 7230POPC   NC350843  17.505  24.494   5.550
 7230POPC   PO450844  17.517  24.490   5.850
 7230POPC   GL150845  17.527  24.445   6.150
 7230POPC   GL250846  17.404  24.549   6.150
 7230POPC   C1A50847  17.510  24.449   6.450
 7230POPC   D2A50848  17.510  24.463   6.750
 7230POPC   C3A50849  17.483  24.484   7.050
 7230POPC   C4A50850  17.504  24.535   7.350
 7230POPC   C1B50851  17.330  24.620   6.450
 7230POPC   C2B50852  17.295  24.700   6.750
 7230POPC   C3B50853  17.344  24.662   7.050
 7230POPC   C4B50854  17.299  24.687   7.350
 7231POPC   NC350855  18.271  11.287   5.550
 7231POPC   PO450856  18.307  11.307   5.850
 7231POPC   GL150857  18.254  11.264   6.150
 7231POPC   GL250858  18.169  11.355   6.150
 7231POPC   C1A50859  18.325  11.280   6.450
 7231POPC   D2A50860  18.295  11.311   6.750
 7231POPC   C3A50861  18.311  11.281   7.050
 7231POPC   C4A50862  18.291  11.312   7.350
 7231POPC   C1B50863  18.098  11.407   6.450
 7231POPC   C2B50864  18.091  11.402   6.750
 7231POPC   C3B50865  18.045  11.416   7.050
 7231POPC   C4B50866  18.103  11.418   7.350
 7232POPC   NC350867  12.082  13.662   5.550
 7232POPC   PO450868  12.102  13.673   5.850
 7232POPC   GL150869  12.114  13.596   6.150
 7232POPC   GL250870  12.034  13.544   6.150
 7232POPC   C1A50871  12.052  13.604   6.450
 7232POPC   D2A50872  12.124  13.623   6.750
 7232POPC   C3A50873  12.119  13.677   7.050
 7232POPC   C4A50874  12.037  13.635   7.350
 7232POPC   C1B50875  12.030  13.343   6.450
 7232POPC   C2B50876  12.015  13.347   6.750
 7232POPC   C3B50877  12.100  13.417   7.050
 7232POPC   C4B50878  12.080  13.401   7.350
 7233POPC   NC350879  21.385  17.543   5.550
 7233POPC   PO450880  21.399  17.480   5.850
 7233POPC   GL150881  21.425  17.482   6.150
 7233POPC   GL250882  21.426  17.571   6.150
 7233POPC   C1A50883  21.351  17.522   6.450
 7233POPC   D2A50884  21.353  17.486   6.750
 7233POPC   C3A50885  21.353  17.536   7.050
 7233POPC   C4A50886  21.406  17.527   7.350
 7233POPC   C1B50887  21.530  17.740   6.450
 7233POPC   C2B50888  21.515  17.749   6.750
 7233POPC   C3B50889  21.468  17.781   7.050
 7233POPC   C4B50890  21.538  17.763   7.350
 7234POPC   NC350891   0.482  17.539   5.550
 7234POPC   PO450892   0.455  17.459   5.850
 7234POPC   GL150893   0.394  17.529   6.150
 7234POPC   GL250894   0.414  17.408   6.150
 7234POPC   C1A50895   0.411  17.519   6.450
 7234POPC   D2A50896   0.475  17.543   6.750
 7234POPC   C3A50897   0.410  17.492   7.050
 7234POPC   C4A50898   0.406  17.515   7.350
 7234POPC   C1B50899   0.326  17.267   6.450
 7234POPC   C2B50900   0.277  17.330   6.750
 7234POPC   C3B50901   0.324  17.270   7.050
 7234POPC   C4B50902   0.312  17.291   7.350
 7235POPC   NC350903  25.247  22.151   5.550
 7235POPC   PO450904  25.244  22.143   5.850
 7235POPC   GL150905  25.250  22.204   6.150
 7235POPC   GL250906  25.277  22.317   6.150
 7235POPC   C1A50907  25.248  22.124   6.450
 7235POPC   D2A50908  25.304  22.139   6.750
 7235POPC   C3A50909  25.270  22.181   7.050
 7235POPC   C4A50910  25.295  22.151   7.350
 7235POPC   C1B50911  25.274  22.443   6.450
 7235POPC   C2B50912  25.360  22.403   6.750
 7235POPC   C3B50913  25.283  22.419   7.050
 7235POPC   C4B50914  25.350  22.396   7.350
 7236POPC   NC350915  44.699  21.388   5.550
 7236POPC   PO450916  44.647  21.401   5.850
 7236POPC   GL150917  44.709  21.358   6.150
 7236POPC   GL250918  44.650  21.235   6.150
 7236POPC   C1A50919  44.676  21.406   6.450
 7236POPC   D2A50920  44.660  21.398   6.750
 7236POPC   C3A50921  44.668  21.428   7.050
 7236POPC   C4A50922  44.667  21.377   7.350
 7236POPC   C1B50923  44.525  21.197   6.450
 7236POPC   C2B50924  44.583  21.159   6.750
 7236POPC   C3B50925  44.588  21.189   7.050
 7236POPC   C4B50926  44.549  21.214   7.350
 7237POPC   NC350927   9.736   2.743   5.550
 7237POPC   PO450928   9.749   2.777   5.850
 7237POPC   GL150929   9.722   2.759   6.150
 7237POPC   GL250930   9.773   2.690   6.150
 7237POPC   C1A50931   9.709   2.799   6.450
 7237POPC   D2A50932   9.756   2.761   6.750
 7237POPC   C3A50933   9.772   2.754   7.050
 7237POPC   C4A50934   9.769   2.750   7.350
 7237POPC   C1B50935   9.896   2.523   6.450
 7237POPC   C2B50936   9.810   2.522   6.750
 7237POPC   C3B50937   9.847   2.548   7.050
 7237POPC   C4B50938   9.884   2.520   7.350
 7238POPC   NC350939  14.450  26.833   5.550
 7238POPC   PO450940  14.414  26.851   5.850
 7238POPC   GL150941  14.371  26.803   6.150
 7238POPC   GL250942  14.297  26.779   6.150
 7238POPC   C1A50943  14.378  26.856   6.450
 7238POPC   D2A50944  14.438  26.832   6.750
 7238POPC   C3A50945  14.398  26.776   7.050
 7238POPC   C4A50946  14.373  26.798   7.350
 7238POPC   C1B50947  14.228  26.669   6.450
 7238POPC   C2B50948  14.251  26.682   6.750
 7238POPC   C3B50949  14.209  26.650   7.050
 7238POPC   C4B50950  14.181  26.645   7.350
 7239POPC   NC350951  32.237  28.350   5.550
 7239POPC   PO450952  32.278  28.407   5.850
 7239POPC   GL150953  32.272  28.359   6.150
 7239POPC   GL250954  32.279  28.204   6.150
 7239POPC   C1A50955  32.265  28.417   6.450
 7239POPC   D2A50956  32.278  28.322   6.750
 7239POPC   C3A50957  32.250  28.409   7.050
 7239POPC   C4A50958  32.213  28.396   7.350
 7239POPC   C1B50959  32.290  28.164   6.450
 7239POPC   C2B50960  32.347  28.092   6.750
 7239POPC   C3B50961  32.281  28.132   7.050
 7239POPC   C4B50962  32.358  28.102   7.350
 7240POPC   NC350963  32.285  16.711   5.550
 7240POPC   PO450964  32.269  16.747   5.850
 7240POPC   GL150965  32.254  16.731   6.150
 7240POPC   GL250966  32.129  16.754   6.150
 7240POPC   C1A50967  32.218  16.779   6.450
 7240POPC   D2A50968  32.242  16.726   6.750
 7240POPC   C3A50969  32.212  16.774   7.050
 7240POPC   C4A50970  32.290  16.767   7.350
 7240POPC   C1B50971  32.070  16.845   6.450
 7240POPC   C2B50972  32.026  16.813   6.750
 7240POPC   C3B50973  32.068  16.855   7.050
 7240POPC   C4B50974  32.035  16.822   7.350
 7241POPC   NC350975   6.603  31.483   5.550
 7241POPC   PO450976   6.617  31.459   5.850
 7241POPC   GL150977   6.660  31.458   6.150
 7241POPC   GL250978   6.667  31.343   6.150
 7241POPC   C1A50979   6.648  31.495   6.450
 7241POPC   D2A50980   6.636  31.508   6.750
 7241POPC   C3A50981   6.596  31.493   7.050
 7241POPC   C4A50982   6.639  31.441   7.350
 7241POPC   C1B50983   6.615  31.254   6.450
 7241POPC   C2B50984   6.664  31.245   6.750
 7241POPC   C3B50985   6.691  31.256   7.050
 7241POPC   C4B50986   6.645  31.230   7.350
 7242POPC   NC350987  41.565  39.207   5.550
 7242POPC   PO450988  41.590  39.250   5.850
 7242POPC   GL150989  41.568  39.242   6.150
 7242POPC   GL250990  41.660  39.198   6.150
 7242POPC   C1A50991  41.605  39.229   6.450
 7242POPC   D2A50992  41.535  39.209   6.750
 7242POPC   C3A50993  41.537  39.256   7.050
 7242POPC   C4A50994  41.600  39.273   7.350
 7242POPC   C1B50995  41.776  39.078   6.450
 7242POPC   C2B50996  41.816  39.110   6.750
 7242POPC   C3B50997  41.810  39.122   7.050
 7242POPC   C4B50998  41.798  39.098   7.350
 7243POPC   NC350999  23.698   2.005   5.550
 7243POPC   PO451000  23.671   1.994   5.850
 7243POPC   GL151001  23.708   2.015   6.150
 7243POPC   GL251002  23.777   2.123   6.150
 7243POPC   C1A51003  23.670   2.008   6.450
 7243POPC   D2A51004  23.749   1.968   6.750
 7243POPC   C3A51005  23.720   1.973   7.050
 7243POPC   C4A51006  23.701   1.997   7.350
 7243POPC   C1B51007  23.892   2.143   6.450
 7243POPC   C2B51008  23.894   2.160   6.750
 7243POPC   C3B51009  23.912   2.219   7.050
 7243POPC   C4B51010  23.838   2.161   7.350
 7244POPC   NC351011  28.399   4.292   5.550
 7244POPC   PO451012  28.351   4.308   5.850
 7244POPC   GL151013  28.338   4.292   6.150
 7244POPC   GL251014  28.413   4.267   6.150
 7244POPC   C1A51015  28.405   4.280   6.450
 7244POPC   D2A51016  28.369   4.327   6.750
 7244POPC   C3A51017  28.386   4.316   7.050
 7244POPC   C4A51018  28.410   4.306   7.350
 7244POPC   C1B51019  28.536   4.127   6.450
 7244POPC   C2B51020  28.540   4.114   6.750
 7244POPC   C3B51021  28.524   4.165   7.050
 7244POPC   C4B51022  28.533   4.131   7.350
 7245POPC   NC351023  11.322  43.853   5.550
 7245POPC   PO451024  11.294  43.888   5.850
 7245POPC   GL151025  11.327  43.882   6.150
 7245POPC   GL251026  11.424  43.926   6.150
 7245POPC   C1A51027  11.297  43.846   6.450
 7245POPC   D2A51028  11.319  43.893   6.750
 7245POPC   C3A51029  11.338  43.887   7.050
 7245POPC   C4A51030  11.279  43.923   7.350
 7245POPC   C1B51031  11.591  43.928   6.450
 7245POPC   C2B51032  11.581  43.897   6.750
 7245POPC   C3B51033  11.537  43.833   7.050
 7245POPC   C4B51034  11.588  43.836   7.350
 7246POPC   NC351035  13.644  19.067   5.550
 7246POPC   PO451036  13.667  19.087   5.850
 7246POPC   GL151037  13.648  19.029   6.150
 7246POPC   GL251038  13.453  19.015   6.150
 7246POPC   C1A51039  13.586  19.019   6.450
 7246POPC   D2A51040  13.594  19.018   6.750
 7246POPC   C3A51041  13.619  19.100   7.050
 7246POPC   C4A51042  13.677  19.064   7.350
 7246POPC   C1B51043  13.419  19.014   6.450
 7246POPC   C2B51044  13.373  19.074   6.750
 7246POPC   C3B51045  13.343  19.102   7.050
 7246POPC   C4B51046  13.338  19.024   7.350
 7247POPC   NC351047  17.471  33.014   5.550
 7247POPC   PO451048  17.529  33.065   5.850
 7247POPC   GL151049  17.480  33.055   6.150
 7247POPC   GL251050  17.350  32.947   6.150
 7247POPC   C1A51051  17.555  33.028   6.450
 7247POPC   D2A51052  17.532  32.978   6.750
 7247POPC   C3A51053  17.505  33.020   7.050
 7247POPC   C4A51054  17.505  33.009   7.350
 7247POPC   C1B51055  17.236  32.879   6.450
 7247POPC   C2B51056  17.262  32.927   6.750
 7247POPC   C3B51057  17.281  32.925   7.050
 7247POPC   C4B51058  17.268  32.858   7.350
 7248POPC   NC351059  16.749   1.229   5.550
 7248POPC   PO451060  16.724   1.174   5.850
 7248POPC   GL151061  16.773   1.168   6.150
 7248POPC   GL251062  16.657   1.320   6.150
 7248POPC   C1A51063  16.748   1.241   6.450
 7248POPC   D2A51064  16.776   1.214   6.750
 7248POPC   C3A51065  16.729   1.244   7.050
 7248POPC   C4A51066  16.713   1.208   7.350
 7248POPC   C1B51067  16.641   1.388   6.450
 7248POPC   C2B51068  16.633   1.392   6.750
 7248POPC   C3B51069  16.642   1.445   7.050
 7248POPC   C4B51070  16.575   1.406   7.350
 7249POPC   NC351071  31.457  32.982   5.550
 7249POPC   PO451072  31.502  33.023   5.850
 7249POPC   GL151073  31.445  32.985   6.150
 7249POPC   GL251074  31.539  32.935   6.150
 7249POPC   C1A51075  31.432  33.024   6.450
 7249POPC   D2A51076  31.445  33.052   6.750
 7249POPC   C3A51077  31.439  33.005   7.050
 7249POPC   C4A51078  31.522  33.035   7.350
 7249POPC   C1B51079  31.634  32.874   6.450
 7249POPC   C2B51080  31.606  32.871   6.750
 7249POPC   C3B51081  31.605  32.809   7.050
 7249POPC   C4B51082  31.578  32.831   7.350
 7250POPC   NC351083  39.183  23.692   5.550
 7250POPC   PO451084  39.187  23.755   5.850
 7250POPC   GL151085  39.235  23.699   6.150
 7250POPC   GL251086  39.301  23.617   6.150
 7250POPC   C1A51087  39.258  23.706   6.450
 7250POPC   D2A51088  39.199  23.754   6.750
 7250POPC   C3A51089  39.266  23.675   7.050
 7250POPC   C4A51090  39.224  23.740   7.350
 7250POPC   C1B51091  39.403  23.495   6.450
 7250POPC   C2B51092  39.358  23.533   6.750
 7250POPC   C3B51093  39.420  23.482   7.050
 7250POPC   C4B51094  39.343  23.506   7.350
 7251POPC   NC351095  40.799  10.529   5.550
 7251POPC   PO451096  40.775  10.483   5.850
 7251POPC   GL151097  40.815  10.534   6.150
 7251POPC   GL251098  40.754  10.613   6.150
 7251POPC   C1A51099  40.743  10.504   6.450
 7251POPC   D2A51100  40.763  10.477   6.750
 7251POPC   C3A51101  40.774  10.528   7.050
 7251POPC   C4A51102  40.788  10.563   7.350
 7251POPC   C1B51103  40.784  10.746   6.450
 7251POPC   C2B51104  40.779  10.806   6.750
 7251POPC   C3B51105  40.711  10.776   7.050
 7251POPC   C4B51106  40.743  10.752   7.350
 7252POPC   NC351107  40.741  28.327   5.550
 7252POPC   PO451108  40.805  28.407   5.850
 7252POPC   GL151109  40.763  28.320   6.150
 7252POPC   GL251110  40.684  28.432   6.150
 7252POPC   C1A51111  40.790  28.329   6.450
 7252POPC   D2A51112  40.812  28.326   6.750
 7252POPC   C3A51113  40.802  28.399   7.050
 7252POPC   C4A51114  40.757  28.379   7.350
 7252POPC   C1B51115  40.599  28.538   6.450
 7252POPC   C2B51116  40.577  28.526   6.750
 7252POPC   C3B51117  40.588  28.514   7.050
 7252POPC   C4B51118  40.601  28.510   7.350
 7253POPC   NC351119   1.994  43.859   5.550
 7253POPC   PO451120   1.941  43.892   5.850
 7253POPC   GL151121   2.007  43.923   6.150
 7253POPC   GL251122   2.081  43.815   6.150
 7253POPC   C1A51123   1.991  43.869   6.450
 7253POPC   D2A51124   2.036  43.900   6.750
 7253POPC   C3A51125   1.993  43.843   7.050
 7253POPC   C4A51126   2.005  43.931   7.350
 7253POPC   C1B51127   2.235  43.774   6.450
 7253POPC   C2B51128   2.239  43.821   6.750
 7253POPC   C3B51129   2.204  43.787   7.050
 7253POPC   C4B51130   2.241  43.805   7.350
 7254POPC   NC351131  43.100   9.013   5.550
 7254POPC   PO451132  43.109   8.953   5.850
 7254POPC   GL151133  43.138   8.965   6.150
 7254POPC   GL251134  43.055   8.891   6.150
 7254POPC   C1A51135  43.092   8.974   6.450
 7254POPC   D2A51136  43.090   8.925   6.750
 7254POPC   C3A51137  43.091   8.941   7.050
 7254POPC   C4A51138  43.097   8.973   7.350
 7254POPC   C1B51139  42.978   8.728   6.450
 7254POPC   C2B51140  43.014   8.777   6.750
 7254POPC   C3B51141  43.019   8.779   7.050
 7254POPC   C4B51142  42.996   8.749   7.350
 7255POPC   NC351143  25.253  44.702   5.550
 7255POPC   PO451144  25.307  44.643   5.850
 7255POPC   GL151145  25.258  44.706   6.150
 7255POPC   GL251146  25.174  44.538   6.150
 7255POPC   C1A51147  25.281  44.634   6.450
 7255POPC   D2A51148  25.259  44.627   6.750
 7255POPC   C3A51149  25.241  44.701   7.050
 7255POPC   C4A51150  25.253  44.637   7.350
 7255POPC   C1B51151  25.100  44.456   6.450
 7255POPC   C2B51152  25.097  44.510   6.750
 7255POPC   C3B51153  25.109  44.514   7.050
 7255POPC   C4B51154  25.106  44.428   7.350
 7256POPC   NC351155  34.574  36.170   5.550
 7256POPC   PO451156  34.565  36.079   5.850
 7256POPC   GL151157  34.621  36.138   6.150
 7256POPC   GL251158  34.431  36.105   6.150
 7256POPC   C1A51159  34.614  36.173   6.450
 7256POPC   D2A51160  34.565  36.137   6.750
 7256POPC   C3A51161  34.597  36.108   7.050
 7256POPC   C4A51162  34.535  36.172   7.350
 7256POPC   C1B51163  34.345  36.074   6.450
 7256POPC   C2B51164  34.328  36.079   6.750
 7256POPC   C3B51165  34.385  35.999   7.050
 7256POPC   C4B51166  34.296  36.071   7.350
 7257POPC   NC351167  43.143  40.789   5.550
 7257POPC   PO451168  43.131  40.748   5.850
 7257POPC   GL151169  43.061  40.796   6.150
 7257POPC   GL251170  43.090  40.677   6.150
 7257POPC   C1A51171  43.109  40.749   6.450
 7257POPC   D2A51172  43.107  40.800   6.750
 7257POPC   C3A51173  43.083  40.802   7.050
 7257POPC   C4A51174  43.086  40.735   7.350
 7257POPC   C1B51175  43.019  40.580   6.450
 7257POPC   C2B51176  43.046  40.540   6.750
 7257POPC   C3B51177  42.984  40.522   7.050
 7257POPC   C4B51178  43.038  40.517   7.350
 7258POPC   NC351179  37.639  29.936   5.550
 7258POPC   PO451180  37.722  29.962   5.850
 7258POPC   GL151181  37.724  29.877   6.150
 7258POPC   GL251182  37.728  29.978   6.150
 7258POPC   C1A51183  37.643  29.968   6.450
 7258POPC   D2A51184  37.641  29.919   6.750
 7258POPC   C3A51185  37.722  29.951   7.050
 7258POPC   C4A51186  37.635  29.943   7.350
 7258POPC   C1B51187  37.855  30.107   6.450
 7258POPC   C2B51188  37.858  30.130   6.750
 7258POPC   C3B51189  37.816  30.175   7.050
 7258POPC   C4B51190  37.795  30.131   7.350
 7259POPC   NC351191   5.101  26.812   5.550
 7259POPC   PO451192   5.110  26.782   5.850
 7259POPC   GL151193   5.079  26.800   6.150
 7259POPC   GL251194   4.976  26.801   6.150
 7259POPC   C1A51195   5.124  26.783   6.450
 7259POPC   D2A51196   5.064  26.862   6.750
 7259POPC   C3A51197   5.062  26.794   7.050
 7259POPC   C4A51198   5.045  26.800   7.350
 7259POPC   C1B51199   4.843  26.676   6.450
 7259POPC   C2B51200   4.833  26.718   6.750
 7259POPC   C3B51201   4.870  26.692   7.050
 7259POPC   C4B51202   4.907  26.651   7.350
 7260POPC   NC351203  12.897   6.617   5.550
 7260POPC   PO451204  12.882   6.599   5.850
 7260POPC   GL151205  12.816   6.605   6.150
 7260POPC   GL251206  12.711   6.533   6.150
 7260POPC   C1A51207  12.847   6.635   6.450
 7260POPC   D2A51208  12.857   6.630   6.750
 7260POPC   C3A51209  12.862   6.597   7.050
 7260POPC   C4A51210  12.895   6.613   7.350
 7260POPC   C1B51211  12.618   6.558   6.450
 7260POPC   C2B51212  12.652   6.546   6.750
 7260POPC   C3B51213  12.603   6.547   7.050
 7260POPC   C4B51214  12.658   6.476   7.350
 7261POPC   NC351215  22.157  43.860   5.550
 7261POPC   PO451216  22.151  43.896   5.850
 7261POPC   GL151217  22.197  43.856   6.150
 7261POPC   GL251218  22.253  43.994   6.150
 7261POPC   C1A51219  22.135  43.931   6.450
 7261POPC   D2A51220  22.119  43.884   6.750
 7261POPC   C3A51221  22.168  43.905   7.050
 7261POPC   C4A51222  22.135  43.888   7.350
 7261POPC   C1B51223  22.347  44.070   6.450
 7261POPC   C2B51224  22.357  44.084   6.750
 7261POPC   C3B51225  22.299  44.062   7.050
 7261POPC   C4B51226  22.326  44.111   7.350
 7262POPC   NC351227   7.393  44.693   5.550
 7262POPC   PO451228   7.450  44.674   5.850
 7262POPC   GL151229   7.420  44.643   6.150
 7262POPC   GL251230   7.412  44.508   6.150
 7262POPC   C1A51231   7.382  44.613   6.450
 7262POPC   D2A51232   7.380  44.668   6.750
 7262POPC   C3A51233   7.415  44.683   7.050
 7262POPC   C4A51234   7.406  44.643   7.350
 7262POPC   C1B51235   7.498  44.452   6.450
 7262POPC   C2B51236   7.528  44.413   6.750
 7262POPC   C3B51237   7.536  44.434   7.050
 7262POPC   C4B51238   7.490  44.393   7.350
 7263POPC   NC351239  37.703  21.381   5.550
 7263POPC   PO451240  37.633  21.349   5.850
 7263POPC   GL151241  37.637  21.349   6.150
 7263POPC   GL251242  37.720  21.313   6.150
 7263POPC   C1A51243  37.684  21.389   6.450
 7263POPC   D2A51244  37.683  21.403   6.750
 7263POPC   C3A51245  37.678  21.380   7.050
 7263POPC   C4A51246  37.670  21.386   7.350
 7263POPC   C1B51247  37.767  21.213   6.450
 7263POPC   C2B51248  37.815  21.158   6.750
 7263POPC   C3B51249  37.761  21.146   7.050
 7263POPC   C4B51250  37.820  21.187   7.350
 7264POPC   NC351251  34.556  33.834   5.550
 7264POPC   PO451252  34.603  33.751   5.850
 7264POPC   GL151253  34.593  33.817   6.150
 7264POPC   GL251254  34.507  33.715   6.150
 7264POPC   C1A51255  34.617  33.826   6.450
 7264POPC   D2A51256  34.593  33.767   6.750
 7264POPC   C3A51257  34.578  33.807   7.050
 7264POPC   C4A51258  34.567  33.848   7.350
 7264POPC   C1B51259  34.368  33.616   6.450
 7264POPC   C2B51260  34.366  33.616   6.750
 7264POPC   C3B51261  34.438  33.592   7.050
 7264POPC   C4B51262  34.433  33.607   7.350
 7265POPC   NC351263  22.169  23.747   5.550
 7265POPC   PO451264  22.133  23.763   5.850
 7265POPC   GL151265  22.211  23.755   6.150
 7265POPC   GL251266  22.281  23.716   6.150
 7265POPC   C1A51267  22.176  23.667   6.450
 7265POPC   D2A51268  22.196  23.722   6.750
 7265POPC   C3A51269  22.210  23.733   7.050
 7265POPC   C4A51270  22.148  23.746   7.350
 7265POPC   C1B51271  22.389  23.827   6.450
 7265POPC   C2B51272  22.368  23.790   6.750
 7265POPC   C3B51273  22.367  23.817   7.050
 7265POPC   C4B51274  22.419  23.806   7.350
 7266POPC   NC351275  36.090   3.514   5.550
 7266POPC   PO451276  36.167   3.541   5.850
 7266POPC   GL151277  36.078   3.569   6.150
 7266POPC   GL251278  36.019   3.582   6.150
 7266POPC   C1A51279  36.144   3.510   6.450
 7266POPC   D2A51280  36.102   3.495   6.750
 7266POPC   C3A51281  36.142   3.533   7.050
 7266POPC   C4A51282  36.128   3.569   7.350
 7266POPC   C1B51283  35.994   3.713   6.450
 7266POPC   C2B51284  35.917   3.700   6.750
 7266POPC   C3B51285  35.972   3.685   7.050
 7266POPC   C4B51286  35.934   3.734   7.350
 7267POPC   NC351287  22.131  26.070   5.550
 7267POPC   PO451288  22.174  26.078   5.850
 7267POPC   GL151289  22.166  26.052   6.150
 7267POPC   GL251290  22.045  26.026   6.150
 7267POPC   C1A51291  22.198  26.048   6.450
 7267POPC   D2A51292  22.187  26.027   6.750
 7267POPC   C3A51293  22.123  26.065   7.050
 7267POPC   C4A51294  22.194  26.010   7.350
 7267POPC   C1B51295  21.910  25.996   6.450
 7267POPC   C2B51296  21.964  25.966   6.750
 7267POPC   C3B51297  21.962  25.983   7.050
 7267POPC   C4B51298  21.949  25.944   7.350
 7268POPC   NC351299  12.074  32.257   5.550
 7268POPC   PO451300  12.067  32.238   5.850
 7268POPC   GL151301  12.052  32.266   6.150
 7268POPC   GL251302  12.084  32.337   6.150
 7268POPC   C1A51303  12.110  32.219   6.450
 7268POPC   D2A51304  12.072  32.255   6.750
 7268POPC   C3A51305  12.032  32.282   7.050
 7268POPC   C4A51306  12.053  32.225   7.350
 7268POPC   C1B51307  12.056  32.488   6.450
 7268POPC   C2B51308  12.108  32.451   6.750
 7268POPC   C3B51309  12.100  32.503   7.050
 7268POPC   C4B51310  12.105  32.520   7.350
 7269POPC   NC351311  16.725  26.791   5.550
 7269POPC   PO451312  16.692  26.820   5.850
 7269POPC   GL151313  16.777  26.831   6.150
 7269POPC   GL251314  16.655  26.922   6.150
 7269POPC   C1A51315  16.770  26.793   6.450
 7269POPC   D2A51316  16.691  26.859   6.750
 7269POPC   C3A51317  16.692  26.843   7.050
 7269POPC   C4A51318  16.759  26.859   7.350
 7269POPC   C1B51319  16.587  27.019   6.450
 7269POPC   C2B51320  16.601  27.053   6.750
 7269POPC   C3B51321  16.527  27.026   7.050
 7269POPC   C4B51322  16.593  27.033   7.350
 7270POPC   NC351323   5.116  17.480   5.550
 7270POPC   PO451324   5.043  17.479   5.850
 7270POPC   GL151325   5.075  17.490   6.150
 7270POPC   GL251326   4.984  17.577   6.150
 7270POPC   C1A51327   5.131  17.513   6.450
 7270POPC   D2A51328   5.143  17.483   6.750
 7270POPC   C3A51329   5.096  17.551   7.050
 7270POPC   C4A51330   5.109  17.471   7.350
 7270POPC   C1B51331   4.814  17.564   6.450
 7270POPC   C2B51332   4.872  17.597   6.750
 7270POPC   C3B51333   4.802  17.582   7.050
 7270POPC   C4B51334   4.802  17.526   7.350
 7271POPC   NC351335  18.254   6.671   5.550
 7271POPC   PO451336  18.236   6.598   5.850
 7271POPC   GL151337  18.304   6.650   6.150
 7271POPC   GL251338  18.260   6.504   6.150
 7271POPC   C1A51339  18.281   6.681   6.450
 7271POPC   D2A51340  18.272   6.631   6.750
 7271POPC   C3A51341  18.286   6.616   7.050
 7271POPC   C4A51342  18.323   6.675   7.350
 7271POPC   C1B51343  18.203   6.461   6.450
 7271POPC   C2B51344  18.221   6.412   6.750
 7271POPC   C3B51345  18.149   6.443   7.050
 7271POPC   C4B51346  18.163   6.446   7.350
 7272POPC   NC351347  15.995  19.015   5.550
 7272POPC   PO451348  15.980  19.096   5.850
 7272POPC   GL151349  15.935  19.070   6.150
 7272POPC   GL251350  15.894  19.115   6.150
 7272POPC   C1A51351  15.908  19.079   6.450
 7272POPC   D2A51352  15.929  19.091   6.750
 7272POPC   C3A51353  15.912  19.017   7.050
 7272POPC   C4A51354  15.995  19.105   7.350
 7272POPC   C1B51355  15.804  19.253   6.450
 7272POPC   C2B51356  15.775  19.191   6.750
 7272POPC   C3B51357  15.801  19.190   7.050
 7272POPC   C4B51358  15.741  19.229   7.350
 7273POPC   NC351359  38.498  36.926   5.550
 7273POPC   PO451360  38.477  36.893   5.850
 7273POPC   GL151361  38.482  36.856   6.150
 7273POPC   GL251362  38.390  36.964   6.150
 7273POPC   C1A51363  38.445  36.949   6.450
 7273POPC   D2A51364  38.414  36.869   6.750
 7273POPC   C3A51365  38.435  36.913   7.050
 7273POPC   C4A51366  38.482  36.855   7.350
 7273POPC   C1B51367  38.240  37.096   6.450
 7273POPC   C2B51368  38.273  37.048   6.750
 7273POPC   C3B51369  38.259  37.076   7.050
 7273POPC   C4B51370  38.237  37.092   7.350
 7274POPC   NC351371  43.872  11.289   5.550
 7274POPC   PO451372  43.928  11.286   5.850
 7274POPC   GL151373  43.844  11.332   6.150
 7274POPC   GL251374  43.796  11.222   6.150
 7274POPC   C1A51375  43.873  11.328   6.450
 7274POPC   D2A51376  43.870  11.274   6.750
 7274POPC   C3A51377  43.883  11.316   7.050
 7274POPC   C4A51378  43.933  11.255   7.350
 7274POPC   C1B51379  43.712  11.066   6.450
 7274POPC   C2B51380  43.795  11.110   6.750
 7274POPC   C3B51381  43.707  11.094   7.050
 7274POPC   C4B51382  43.754  11.062   7.350
 7275POPC   NC351383  26.002   7.403   5.550
 7275POPC   PO451384  26.063   7.449   5.850
 7275POPC   GL151385  26.060   7.447   6.150
 7275POPC   GL251386  26.056   7.580   6.150
 7275POPC   C1A51387  26.027   7.406   6.450
 7275POPC   D2A51388  26.065   7.382   6.750
 7275POPC   C3A51389  26.020   7.427   7.050
 7275POPC   C4A51390  26.008   7.371   7.350
 7275POPC   C1B51391  26.063   7.652   6.450
 7275POPC   C2B51392  26.114   7.680   6.750
 7275POPC   C3B51393  26.018   7.716   7.050
 7275POPC   C4B51394  26.101   7.666   7.350
 7276POPC   NC351395   2.722  16.757   5.550
 7276POPC   PO451396   2.769  16.729   5.850
 7276POPC   GL151397   2.717  16.709   6.150
 7276POPC   GL251398   2.716  16.837   6.150
 7276POPC   C1A51399   2.732  16.741   6.450
 7276POPC   D2A51400   2.761  16.751   6.750
 7276POPC   C3A51401   2.814  16.692   7.050
 7276POPC   C4A51402   2.765  16.762   7.350
 7276POPC   C1B51403   2.722  17.025   6.450
 7276POPC   C2B51404   2.716  16.970   6.750
 7276POPC   C3B51405   2.709  17.004   7.050
 7276POPC   C4B51406   2.704  16.956   7.350
 7277POPC   NC351407  19.038  29.152   5.550
 7277POPC   PO451408  19.066  29.098   5.850
 7277POPC   GL151409  19.051  29.128   6.150
 7277POPC   GL251410  19.039  29.031   6.150
 7277POPC   C1A51411  19.058  29.171   6.450
 7277POPC   D2A51412  19.036  29.185   6.750
 7277POPC   C3A51413  19.102  29.132   7.050
 7277POPC   C4A51414  19.069  29.158   7.350
 7277POPC   C1B51415  19.151  28.877   6.450
 7277POPC   C2B51416  19.160  28.880   6.750
 7277POPC   C3B51417  19.123  28.876   7.050
 7277POPC   C4B51418  19.118  28.937   7.350
 7278POPC   NC351419  26.865   2.019   5.550
 7278POPC   PO451420  26.817   1.952   5.850
 7278POPC   GL151421  26.788   1.959   6.150
 7278POPC   GL251422  26.734   1.878   6.150
 7278POPC   C1A51423  26.778   1.942   6.450
 7278POPC   D2A51424  26.770   2.008   6.750
 7278POPC   C3A51425  26.770   1.956   7.050
 7278POPC   C4A51426  26.773   1.954   7.350
 7278POPC   C1B51427  26.664   1.828   6.450
 7278POPC   C2B51428  26.612   1.831   6.750
 7278POPC   C3B51429  26.681   1.813   7.050
 7278POPC   C4B51430  26.674   1.827   7.350
 7279POPC   NC351431   4.330   2.030   5.550
 7279POPC   PO451432   4.317   2.000   5.850
 7279POPC   GL151433   4.307   1.963   6.150
 7279POPC   GL251434   4.387   1.845   6.150
 7279POPC   C1A51435   4.339   1.957   6.450
 7279POPC   D2A51436   4.316   2.006   6.750
 7279POPC   C3A51437   4.295   2.001   7.050
 7279POPC   C4A51438   4.331   1.986   7.350
 7279POPC   C1B51439   4.440   1.727   6.450
 7279POPC   C2B51440   4.459   1.746   6.750
 7279POPC   C3B51441   4.417   1.738   7.050
 7279POPC   C4B51442   4.380   1.749   7.350
 7280POPC   NC351443  12.813  13.621   5.550
 7280POPC   PO451444  12.867  13.596   5.850
 7280POPC   GL151445  12.848  13.598   6.150
 7280POPC   GL251446  12.976  13.526   6.150
 7280POPC   C1A51447  12.846  13.639   6.450
 7280POPC   D2A51448  12.806  13.614   6.750
 7280POPC   C3A51449  12.839  13.624   7.050
 7280POPC   C4A51450  12.874  13.644   7.350
 7280POPC   C1B51451  13.089  13.461   6.450
 7280POPC   C2B51452  13.091  13.529   6.750
 7280POPC   C3B51453  13.096  13.490   7.050
 7280POPC   C4B51454  13.033  13.501   7.350
 7281POPC   NC351455  21.430  34.626   5.550
 7281POPC   PO451456  21.379  34.529   5.850
 7281POPC   GL151457  21.427  34.566   6.150
 7281POPC   GL251458  21.449  34.484   6.150
 7281POPC   C1A51459  21.404  34.577   6.450
 7281POPC   D2A51460  21.403  34.564   6.750
 7281POPC   C3A51461  21.435  34.593   7.050
 7281POPC   C4A51462  21.353  34.578   7.350
 7281POPC   C1B51463  21.504  34.341   6.450
 7281POPC   C2B51464  21.496  34.401   6.750
 7281POPC   C3B51465  21.549  34.379   7.050
 7281POPC   C4B51466  21.531  34.348   7.350
 7282POPC   NC351467  32.981  16.750   5.550
 7282POPC   PO451468  33.015  16.724   5.850
 7282POPC   GL151469  33.062  16.736   6.150
 7282POPC   GL251470  32.971  16.826   6.150
 7282POPC   C1A51471  33.004  16.744   6.450
 7282POPC   D2A51472  33.067  16.758   6.750
 7282POPC   C3A51473  32.993  16.722   7.050
 7282POPC   C4A51474  33.000  16.696   7.350
 7282POPC   C1B51475  32.857  16.948   6.450
 7282POPC   C2B51476  32.838  16.915   6.750
 7282POPC   C3B51477  32.845  16.897   7.050
 7282POPC   C4B51478  32.867  16.905   7.350
 7283POPC   NC351479  35.375  27.589   5.550
 7283POPC   PO451480  35.338  27.615   5.850
 7283POPC   GL151481  35.334  27.606   6.150
 7283POPC   GL251482  35.255  27.679   6.150
 7283POPC   C1A51483  35.370  27.548   6.450
 7283POPC   D2A51484  35.312  27.601   6.750
 7283POPC   C3A51485  35.355  27.544   7.050
 7283POPC   C4A51486  35.401  27.591   7.350
 7283POPC   C1B51487  35.141  27.641   6.450
 7283POPC   C2B51488  35.150  27.693   6.750
 7283POPC   C3B51489  35.094  27.661   7.050
 7283POPC   C4B51490  35.151  27.653   7.350
 7284POPC   NC351491  14.429   1.981   5.550
 7284POPC   PO451492  14.437   1.968   5.850
 7284POPC   GL151493  14.363   1.941   6.150
 7284POPC   GL251494  14.470   1.917   6.150
 7284POPC   C1A51495  14.444   2.023   6.450
 7284POPC   D2A51496  14.446   1.982   6.750
 7284POPC   C3A51497  14.412   2.012   7.050
 7284POPC   C4A51498  14.418   2.014   7.350
 7284POPC   C1B51499  14.559   1.783   6.450
 7284POPC   C2B51500  14.584   1.767   6.750
 7284POPC   C3B51501  14.553   1.789   7.050
 7284POPC   C4B51502  14.555   1.826   7.350
 7285POPC   NC351503  26.075  11.303   5.550
 7285POPC   PO451504  26.030  11.253   5.850
 7285POPC   GL151505  26.001  11.257   6.150
 7285POPC   GL251506  26.008  11.445   6.150
 7285POPC   C1A51507  26.018  11.311   6.450
 7285POPC   D2A51508  26.043  11.346   6.750
 7285POPC   C3A51509  26.017  11.272   7.050
 7285POPC   C4A51510  26.027  11.250   7.350
 7285POPC   C1B51511  26.001  11.574   6.450
 7285POPC   C2B51512  25.991  11.574   6.750
 7285POPC   C3B51513  25.975  11.515   7.050
 7285POPC   C4B51514  25.970  11.511   7.350
 7286POPC   NC351515  36.121  44.711   5.550
 7286POPC   PO451516  36.116  44.642   5.850
 7286POPC   GL151517  36.175  44.662   6.150
 7286POPC   GL251518  36.276  44.622   6.150
 7286POPC   C1A51519  36.131  44.688   6.450
 7286POPC   D2A51520  36.131  44.655   6.750
 7286POPC   C3A51521  36.087  44.692   7.050
 7286POPC   C4A51522  36.101  44.660   7.350
 7286POPC   C1B51523  36.353  44.652   6.450
 7286POPC   C2B51524  36.341  44.696   6.750
 7286POPC   C3B51525  36.342  44.619   7.050
 7286POPC   C4B51526  36.354  44.711   7.350
 7287POPC   NC351527   5.124  16.699   5.550
 7287POPC   PO451528   5.092  16.764   5.850
 7287POPC   GL151529   5.118  16.769   6.150
 7287POPC   GL251530   5.108  16.631   6.150
 7287POPC   C1A51531   5.086  16.725   6.450
 7287POPC   D2A51532   5.141  16.682   6.750
 7287POPC   C3A51533   5.087  16.750   7.050
 7287POPC   C4A51534   5.118  16.708   7.350
 7287POPC   C1B51535   5.197  16.516   6.450
 7287POPC   C2B51536   5.245  16.458   6.750
 7287POPC   C3B51537   5.236  16.542   7.050
 7287POPC   C4B51538   5.152  16.469   7.350
 7288POPC   NC351539  32.285  40.820   5.550
 7288POPC   PO451540  32.227  40.766   5.850
 7288POPC   GL151541  32.204  40.830   6.150
 7288POPC   GL251542  32.130  40.869   6.150
 7288POPC   C1A51543  32.203  40.832   6.450
 7288POPC   D2A51544  32.220  40.764   6.750
 7288POPC   C3A51545  32.210  40.773   7.050
 7288POPC   C4A51546  32.253  40.819   7.350
 7288POPC   C1B51547  32.131  41.014   6.450
 7288POPC   C2B51548  32.114  41.002   6.750
 7288POPC   C3B51549  32.076  40.995   7.050
 7288POPC   C4B51550  32.135  40.996   7.350
 7289POPC   NC351551  13.592  20.591   5.550
 7289POPC   PO451552  13.634  20.600   5.850
 7289POPC   GL151553  13.598  20.611   6.150
 7289POPC   GL251554  13.583  20.472   6.150
 7289POPC   C1A51555  13.589  20.627   6.450
 7289POPC   D2A51556  13.602  20.615   6.750
 7289POPC   C3A51557  13.617  20.566   7.050
 7289POPC   C4A51558  13.635  20.568   7.350
 7289POPC   C1B51559  13.494  20.428   6.450
 7289POPC   C2B51560  13.545  20.413   6.750
 7289POPC   C3B51561  13.475  20.401   7.050
 7289POPC   C4B51562  13.569  20.406   7.350
 7290POPC   NC351563   8.962  25.993   5.550
 7290POPC   PO451564   9.016  26.023   5.850
 7290POPC   GL151565   8.924  26.085   6.150
 7290POPC   GL251566   8.853  26.095   6.150
 7290POPC   C1A51567   8.960  26.060   6.450
 7290POPC   D2A51568   9.007  26.030   6.750
 7290POPC   C3A51569   8.969  26.076   7.050
 7290POPC   C4A51570   8.964  26.056   7.350
 7290POPC   C1B51571   8.764  26.210   6.450
 7290POPC   C2B51572   8.765  26.190   6.750
 7290POPC   C3B51573   8.828  26.209   7.050
 7290POPC   C4B51574   8.830  26.217   7.350
 7291POPC   NC351575  22.895   1.220   5.550
 7291POPC   PO451576  22.976   1.238   5.850
 7291POPC   GL151577  22.924   1.196   6.150
 7291POPC   GL251578  23.026   1.288   6.150
 7291POPC   C1A51579  22.890   1.234   6.450
 7291POPC   D2A51580  22.932   1.199   6.750
 7291POPC   C3A51581  22.955   1.172   7.050
 7291POPC   C4A51582  22.893   1.231   7.350
 7291POPC   C1B51583  23.165   1.363   6.450
 7291POPC   C2B51584  23.173   1.289   6.750
 7291POPC   C3B51585  23.207   1.311   7.050
 7291POPC   C4B51586  23.162   1.307   7.350
 7292POPC   NC351587  18.256  10.506   5.550
 7292POPC   PO451588  18.259  10.545   5.850
 7292POPC   GL151589  18.313  10.513   6.150
 7292POPC   GL251590  18.235  10.443   6.150
 7292POPC   C1A51591  18.317  10.524   6.450
 7292POPC   D2A51592  18.233  10.517   6.750
 7292POPC   C3A51593  18.313  10.528   7.050
 7292POPC   C4A51594  18.273  10.538   7.350
 7292POPC   C1B51595  18.283  10.254   6.450
 7292POPC   C2B51596  18.319  10.230   6.750
 7292POPC   C3B51597  18.240  10.286   7.050
 7292POPC   C4B51598  18.279  10.316   7.350
 7293POPC   NC351599  40.768   1.236   5.550
 7293POPC   PO451600  40.738   1.181   5.850
 7293POPC   GL151601  40.802   1.209   6.150
 7293POPC   GL251602  40.755   1.139   6.150
 7293POPC   C1A51603  40.742   1.193   6.450
 7293POPC   D2A51604  40.778   1.239   6.750
 7293POPC   C3A51605  40.742   1.232   7.050
 7293POPC   C4A51606  40.820   1.223   7.350
 7293POPC   C1B51607  40.713   1.010   6.450
 7293POPC   C2B51608  40.716   0.957   6.750
 7293POPC   C3B51609  40.727   0.973   7.050
 7293POPC   C4B51610  40.798   0.942   7.350
 7294POPC   NC351611   5.116   7.452   5.550
 7294POPC   PO451612   5.073   7.403   5.850
 7294POPC   GL151613   5.082   7.376   6.150
 7294POPC   GL251614   4.963   7.466   6.150
 7294POPC   C1A51615   5.112   7.385   6.450
 7294POPC   D2A51616   5.094   7.384   6.750
 7294POPC   C3A51617   5.065   7.425   7.050
 7294POPC   C4A51618   5.117   7.446   7.350
 7294POPC   C1B51619   4.860   7.590   6.450
 7294POPC   C2B51620   4.959   7.617   6.750
 7294POPC   C3B51621   4.929   7.620   7.050
 7294POPC   C4B51622   4.955   7.610   7.350
 7295POPC   NC351623   4.274  36.168   5.550
 7295POPC   PO451624   4.300  36.153   5.850
 7295POPC   GL151625   4.292  36.111   6.150
 7295POPC   GL251626   4.450  36.069   6.150
 7295POPC   C1A51627   4.353  36.140   6.450
 7295POPC   D2A51628   4.346  36.114   6.750
 7295POPC   C3A51629   4.364  36.112   7.050
 7295POPC   C4A51630   4.285  36.152   7.350
 7295POPC   C1B51631   4.521  35.952   6.450
 7295POPC   C2B51632   4.546  35.992   6.750
 7295POPC   C3B51633   4.480  35.991   7.050
 7295POPC   C4B51634   4.463  35.931   7.350
 7296POPC   NC351635  36.875   1.208   5.550
 7296POPC   PO451636  36.883   1.182   5.850
 7296POPC   GL151637  36.895   1.251   6.150
 7296POPC   GL251638  36.948   1.357   6.150
 7296POPC   C1A51639  36.934   1.238   6.450
 7296POPC   D2A51640  36.938   1.176   6.750
 7296POPC   C3A51641  36.888   1.260   7.050
 7296POPC   C4A51642  36.906   1.167   7.350
 7296POPC   C1B51643  37.021   1.365   6.450
 7296POPC   C2B51644  37.080   1.441   6.750
 7296POPC   C3B51645  37.068   1.379   7.050
 7296POPC   C4B51646  37.078   1.396   7.350
 7297POPC   NC351647  33.035  24.473   5.550
 7297POPC   PO451648  32.990  24.525   5.850
 7297POPC   GL151649  32.993  24.510   6.150
 7297POPC   GL251650  32.898  24.556   6.150
 7297POPC   C1A51651  33.069  24.527   6.450
 7297POPC   D2A51652  33.039  24.483   6.750
 7297POPC   C3A51653  33.017  24.480   7.050
 7297POPC   C4A51654  33.068  24.492   7.350
 7297POPC   C1B51655  32.846  24.695   6.450
 7297POPC   C2B51656  32.900  24.653   6.750
 7297POPC   C3B51657  32.843  24.704   7.050
 7297POPC   C4B51658  32.886  24.721   7.350
 7298POPC   NC351659   9.733  12.816   5.550
 7298POPC   PO451660   9.723  12.803   5.850
 7298POPC   GL151661   9.747  12.848   6.150
 7298POPC   GL251662   9.625  12.823   6.150
 7298POPC   C1A51663   9.743  12.853   6.450
 7298POPC   D2A51664   9.699  12.901   6.750
 7298POPC   C3A51665   9.735  12.838   7.050
 7298POPC   C4A51666   9.767  12.832   7.350
 7298POPC   C1B51667   9.480  12.852   6.450
 7298POPC   C2B51668   9.475  12.895   6.750
 7298POPC   C3B51669   9.529  12.814   7.050
 7298POPC   C4B51670   9.452  12.833   7.350
 7299POPC   NC351671  34.529  41.589   5.550
 7299POPC   PO451672  34.529  41.549   5.850
 7299POPC   GL151673  34.615  41.603   6.150
 7299POPC   GL251674  34.642  41.443   6.150
 7299POPC   C1A51675  34.609  41.534   6.450
 7299POPC   D2A51676  34.587  41.572   6.750
 7299POPC   C3A51677  34.604  41.544   7.050
 7299POPC   C4A51678  34.571  41.571   7.350
 7299POPC   C1B51679  34.729  41.386   6.450
 7299POPC   C2B51680  34.703  41.392   6.750
 7299POPC   C3B51681  34.705  41.394   7.050
 7299POPC   C4B51682  34.725  41.320   7.350
 7300POPC   NC351683  21.370   1.967   5.550
 7300POPC   PO451684  21.365   2.002   5.850
 7300POPC   GL151685  21.423   1.944   6.150
 7300POPC   GL251686  21.506   1.946   6.150
 7300POPC   C1A51687  21.395   2.027   6.450
 7300POPC   D2A51688  21.412   1.992   6.750
 7300POPC   C3A51689  21.370   1.984   7.050
 7300POPC   C4A51690  21.431   1.978   7.350
 7300POPC   C1B51691  21.652   1.968   6.450
 7300POPC   C2B51692  21.587   1.984   6.750
 7300POPC   C3B51693  21.679   1.996   7.050
 7300POPC   C4B51694  21.611   1.933   7.350
 7301POPC   NC351695  40.744  27.547   5.550
 7301POPC   PO451696  40.809  27.567   5.850
 7301POPC   GL151697  40.825  27.579   6.150
 7301POPC   GL251698  40.681  27.681   6.150
 7301POPC   C1A51699  40.825  27.596   6.450
 7301POPC   D2A51700  40.773  27.585   6.750
 7301POPC   C3A51701  40.801  27.581   7.050
 7301POPC   C4A51702  40.772  27.555   7.350
 7301POPC   C1B51703  40.573  27.735   6.450
 7301POPC   C2B51704  40.645  27.769   6.750
 7301POPC   C3B51705  40.564  27.756   7.050
 7301POPC   C4B51706  40.646  27.799   7.350
 7302POPC   NC351707  31.453  10.479   5.550
 7302POPC   PO451708  31.501  10.545   5.850
 7302POPC   GL151709  31.460  10.546   6.150
 7302POPC   GL251710  31.642  10.551   6.150
 7302POPC   C1A51711  31.514  10.566   6.450
 7302POPC   D2A51712  31.501  10.567   6.750
 7302POPC   C3A51713  31.477  10.559   7.050
 7302POPC   C4A51714  31.458  10.528   7.350
 7302POPC   C1B51715  31.690  10.428   6.450
 7302POPC   C2B51716  31.718  10.523   6.750
 7302POPC   C3B51717  31.762  10.490   7.050
 7302POPC   C4B51718  31.761  10.512   7.350
 7303POPC   NC351719   6.670  27.544   5.550
 7303POPC   PO451720   6.662  27.638   5.850
 7303POPC   GL151721   6.666  27.546   6.150
 7303POPC   GL251722   6.616  27.684   6.150
 7303POPC   C1A51723   6.603  27.634   6.450
 7303POPC   D2A51724   6.663  27.549   6.750
 7303POPC   C3A51725   6.649  27.581   7.050
 7303POPC   C4A51726   6.623  27.595   7.350
 7303POPC   C1B51727   6.572  27.820   6.450
 7303POPC   C2B51728   6.544  27.804   6.750
 7303POPC   C3B51729   6.579  27.802   7.050
 7303POPC   C4B51730   6.551  27.840   7.350
 7304POPC   NC351731  44.656   4.309   5.550
 7304POPC   PO451732  44.711   4.342   5.850
 7304POPC   GL151733  44.706   4.359   6.150
 7304POPC   GL251734  44.613   4.432   6.150
 7304POPC   C1A51735  44.625   4.345   6.450
 7304POPC   D2A51736  44.646   4.290   6.750
 7304POPC   C3A51737  44.650   4.269   7.050
 7304POPC   C4A51738  44.701   4.330   7.350
 7304POPC   C1B51739  44.461   4.444   6.450
 7304POPC   C2B51740  44.509   4.511   6.750
 7304POPC   C3B51741  44.502   4.518   7.050
 7304POPC   C4B51742  44.444   4.441   7.350
 7305POPC   NC351743  43.116  25.289   5.550
 7305POPC   PO451744  43.081  25.312   5.850
 7305POPC   GL151745  43.146  25.256   6.150
 7305POPC   GL251746  43.190  25.377   6.150
 7305POPC   C1A51747  43.091  25.237   6.450
 7305POPC   D2A51748  43.104  25.312   6.750
 7305POPC   C3A51749  43.157  25.306   7.050
 7305POPC   C4A51750  43.116  25.312   7.350
 7305POPC   C1B51751  43.265  25.426   6.450
 7305POPC   C2B51752  43.259  25.406   6.750
 7305POPC   C3B51753  43.259  25.451   7.050
 7305POPC   C4B51754  43.243  25.462   7.350
 7306POPC   NC351755   0.441  44.622   5.550
 7306POPC   PO451756   0.468  44.677   5.850
 7306POPC   GL151757   0.462  44.667   6.150
 7306POPC   GL251758   0.479  44.751   6.150
 7306POPC   C1A51759   0.470  44.667   6.450
 7306POPC   D2A51760   0.481  44.666   6.750
 7306POPC   C3A51761   0.479  44.642   7.050
 7306POPC   C4A51762   0.485  44.682   7.350
 7306POPC   C1B51763   0.494  44.920   6.450
 7306POPC   C2B51764   0.496  44.862   6.750
 7306POPC   C3B51765   0.532  44.906   7.050
 7306POPC   C4B51766   0.585  44.918   7.350
 7307POPC   NC351767  37.698  27.560   5.550
 7307POPC   PO451768  37.715  27.627   5.850
 7307POPC   GL151769  37.673  27.623   6.150
 7307POPC   GL251770  37.796  27.560   6.150
 7307POPC   C1A51771  37.721  27.567   6.450
 7307POPC   D2A51772  37.712  27.600   6.750
 7307POPC   C3A51773  37.642  27.635   7.050
 7307POPC   C4A51774  37.714  27.551   7.350
 7307POPC   C1B51775  37.937  27.520   6.450
 7307POPC   C2B51776  37.926  27.498   6.750
 7307POPC   C3B51777  37.867  27.475   7.050
 7307POPC   C4B51778  37.913  27.533   7.350
 7308POPC   NC351779  36.914  12.069   5.550
 7308POPC   PO451780  36.941  12.043   5.850
 7308POPC   GL151781  36.941  12.040   6.150
 7308POPC   GL251782  36.887  12.179   6.150
 7308POPC   C1A51783  36.885  12.054   6.450
 7308POPC   D2A51784  36.904  12.076   6.750
 7308POPC   C3A51785  36.945  12.031   7.050
 7308POPC   C4A51786  36.918  12.075   7.350
 7308POPC   C1B51787  36.948  12.373   6.450
 7308POPC   C2B51788  36.937  12.348   6.750
 7308POPC   C3B51789  36.942  12.297   7.050
 7308POPC   C4B51790  36.966  12.343   7.350
 7309POPC   NC351791   8.984  16.730   5.550
 7309POPC   PO451792   9.006  16.724   5.850
 7309POPC   GL151793   8.933  16.684   6.150
 7309POPC   GL251794   8.876  16.646   6.150
 7309POPC   C1A51795   8.967  16.709   6.450
 7309POPC   D2A51796   8.945  16.736   6.750
 7309POPC   C3A51797   8.927  16.705   7.050
 7309POPC   C4A51798   8.969  16.734   7.350
 7309POPC   C1B51799   8.885  16.472   6.450
 7309POPC   C2B51800   8.859  16.520   6.750
 7309POPC   C3B51801   8.849  16.506   7.050
 7309POPC   C4B51802   8.881  16.482   7.350
 7310POPC   NC351803  20.569  36.142   5.550
 7310POPC   PO451804  20.659  36.098   5.850
 7310POPC   GL151805  20.629  36.088   6.150
 7310POPC   GL251806  20.538  36.258   6.150
 7310POPC   C1A51807  20.609  36.091   6.450
 7310POPC   D2A51808  20.633  36.146   6.750
 7310POPC   C3A51809  20.600  36.133   7.050
 7310POPC   C4A51810  20.644  36.105   7.350
 7310POPC   C1B51811  20.430  36.311   6.450
 7310POPC   C2B51812  20.461  36.335   6.750
 7310POPC   C3B51813  20.438  36.279   7.050
 7310POPC   C4B51814  20.414  36.331   7.350
 7311POPC   NC351815  23.671  21.391   5.550
 7311POPC   PO451816  23.714  21.363   5.850
 7311POPC   GL151817  23.722  21.396   6.150
 7311POPC   GL251818  23.722  21.284   6.150
 7311POPC   C1A51819  23.701  21.369   6.450
 7311POPC   D2A51820  23.694  21.386   6.750
 7311POPC   C3A51821  23.714  21.349   7.050
 7311POPC   C4A51822  23.741  21.405   7.350
 7311POPC   C1B51823  23.770  21.183   6.450
 7311POPC   C2B51824  23.748  21.123   6.750
 7311POPC   C3B51825  23.743  21.110   7.050
 7311POPC   C4B51826  23.767  21.170   7.350
 7312POPC   NC351827  13.623  17.501   5.550
 7312POPC   PO451828  13.668  17.477   5.850
 7312POPC   GL151829  13.594  17.535   6.150
 7312POPC   GL251830  13.642  17.404   6.150
 7312POPC   C1A51831  13.579  17.478   6.450
 7312POPC   D2A51832  13.628  17.508   6.750
 7312POPC   C3A51833  13.652  17.465   7.050
 7312POPC   C4A51834  13.589  17.543   7.350
 7312POPC   C1B51835  13.690  17.272   6.450
 7312POPC   C2B51836  13.740  17.296   6.750
 7312POPC   C3B51837  13.702  17.218   7.050
 7312POPC   C4B51838  13.680  17.297   7.350
 7313POPC   NC351839  19.085  32.209   5.550
 7313POPC   PO451840  19.078  32.275   5.850
 7313POPC   GL151841  19.014  32.235   6.150
 7313POPC   GL251842  18.969  32.226   6.150
 7313POPC   C1A51843  19.045  32.248   6.450
 7313POPC   D2A51844  19.017  32.272   6.750
 7313POPC   C3A51845  19.034  32.291   7.050
 7313POPC   C4A51846  19.062  32.234   7.350
 7313POPC   C1B51847  18.778  32.156   6.450
 7313POPC   C2B51848  18.830  32.213   6.750
 7313POPC   C3B51849  18.843  32.173   7.050
 7313POPC   C4B51850  18.806  32.192   7.350
 7314POPC   NC351851  43.084  34.557   5.550
 7314POPC   PO451852  43.067  34.586   5.850
 7314POPC   GL151853  43.149  34.532   6.150
 7314POPC   GL251854  43.089  34.697   6.150
 7314POPC   C1A51855  43.089  34.601   6.450
 7314POPC   D2A51856  43.156  34.574   6.750
 7314POPC   C3A51857  43.145  34.579   7.050
 7314POPC   C4A51858  43.065  34.545   7.350
 7314POPC   C1B51859  43.037  34.840   6.450
 7314POPC   C2B51860  43.102  34.838   6.750
 7314POPC   C3B51861  43.084  34.783   7.050
 7314POPC   C4B51862  43.048  34.828   7.350
 7315POPC   NC351863   0.425  19.797   5.550
 7315POPC   PO451864   0.423  19.865   5.850
 7315POPC   GL151865   0.453  19.848   6.150
 7315POPC   GL251866   0.467  19.923   6.150
 7315POPC   C1A51867   0.412  19.809   6.450
 7315POPC   D2A51868   0.439  19.823   6.750
 7315POPC   C3A51869   0.410  19.803   7.050
 7315POPC   C4A51870   0.468  19.808   7.350
 7315POPC   C1B51871   0.588  20.066   6.450
 7315POPC   C2B51872   0.571  19.988   6.750
 7315POPC   C3B51873   0.616  20.044   7.050
 7315POPC   C4B51874   0.583  20.057   7.350
 7316POPC   NC351875  17.528  28.358   5.550
 7316POPC   PO451876  17.497  28.392   5.850
 7316POPC   GL151877  17.544  28.413   6.150
 7316POPC   GL251878  17.587  28.419   6.150
 7316POPC   C1A51879  17.522  28.384   6.450
 7316POPC   D2A51880  17.520  28.328   6.750
 7316POPC   C3A51881  17.499  28.343   7.050
 7316POPC   C4A51882  17.483  28.399   7.350
 7316POPC   C1B51883  17.727  28.374   6.450
 7316POPC   C2B51884  17.771  28.453   6.750
 7316POPC   C3B51885  17.761  28.404   7.050
 7316POPC   C4B51886  17.782  28.380   7.350
 7317POPC   NC351887  19.856  43.144   5.550
 7317POPC   PO451888  19.817  43.069   5.850
 7317POPC   GL151889  19.880  43.080   6.150
 7317POPC   GL251890  19.939  43.054   6.150
 7317POPC   C1A51891  19.821  43.131   6.450
 7317POPC   D2A51892  19.866  43.123   6.750
 7317POPC   C3A51893  19.836  43.160   7.050
 7317POPC   C4A51894  19.818  43.156   7.350
 7317POPC   C1B51895  19.928  42.931   6.450
 7317POPC   C2B51896  19.982  42.886   6.750
 7317POPC   C3B51897  20.019  42.917   7.050
 7317POPC   C4B51898  19.932  42.952   7.350
 7318POPC   NC351899  10.507   8.244   5.550
 7318POPC   PO451900  10.504   8.193   5.850
 7318POPC   GL151901  10.545   8.167   6.150
 7318POPC   GL251902  10.454   8.085   6.150
 7318POPC   C1A51903  10.484   8.228   6.450
 7318POPC   D2A51904  10.515   8.160   6.750
 7318POPC   C3A51905  10.482   8.156   7.050
 7318POPC   C4A51906  10.490   8.228   7.350
 7318POPC   C1B51907  10.411   7.950   6.450
 7318POPC   C2B51908  10.356   7.960   6.750
 7318POPC   C3B51909  10.360   8.008   7.050
 7318POPC   C4B51910  10.353   7.969   7.350
 7319POPC   NC351911  25.299  33.827   5.550
 7319POPC   PO451912  25.247  33.796   5.850
 7319POPC   GL151913  25.281  33.761   6.150
 7319POPC   GL251914  25.240  33.668   6.150
 7319POPC   C1A51915  25.261  33.780   6.450
 7319POPC   D2A51916  25.262  33.837   6.750
 7319POPC   C3A51917  25.303  33.823   7.050
 7319POPC   C4A51918  25.238  33.799   7.350
 7319POPC   C1B51919  25.128  33.566   6.450
 7319POPC   C2B51920  25.188  33.553   6.750
 7319POPC   C3B51921  25.112  33.549   7.050
 7319POPC   C4B51922  25.095  33.590   7.350
 7320POPC   NC351923   1.224  19.064   5.550
 7320POPC   PO451924   1.172  19.054   5.850
 7320POPC   GL151925   1.182  19.021   6.150
 7320POPC   GL251926   1.129  18.924   6.150
 7320POPC   C1A51927   1.263  19.076   6.450
 7320POPC   D2A51928   1.196  19.108   6.750
 7320POPC   C3A51929   1.221  19.064   7.050
 7320POPC   C4A51930   1.244  19.094   7.350
 7320POPC   C1B51931   1.147  18.860   6.450
 7320POPC   C2B51932   1.129  18.840   6.750
 7320POPC   C3B51933   1.158  18.847   7.050
 7320POPC   C4B51934   1.105  18.850   7.350
 7321POPC   NC351935  33.810  40.774   5.550
 7321POPC   PO451936  33.834  40.806   5.850
 7321POPC   GL151937  33.770  40.814   6.150
 7321POPC   GL251938  33.651  40.795   6.150
 7321POPC   C1A51939  33.849  40.761   6.450
 7321POPC   D2A51940  33.758  40.764   6.750
 7321POPC   C3A51941  33.832  40.831   7.050
 7321POPC   C4A51942  33.831  40.822   7.350
 7321POPC   C1B51943  33.601  40.947   6.450
 7321POPC   C2B51944  33.543  40.915   6.750
 7321POPC   C3B51945  33.564  40.860   7.050
 7321POPC   C4B51946  33.563  40.904   7.350
 7322POPC   NC351947   8.979  13.673   5.550
 7322POPC   PO451948   8.924  13.664   5.850
 7322POPC   GL151949   9.021  13.638   6.150
 7322POPC   GL251950   8.835  13.683   6.150
 7322POPC   C1A51951   9.001  13.579   6.450
 7322POPC   D2A51952   8.987  13.608   6.750
 7322POPC   C3A51953   8.965  13.649   7.050
 7322POPC   C4A51954   8.983  13.605   7.350
 7322POPC   C1B51955   8.696  13.640   6.450
 7322POPC   C2B51956   8.747  13.685   6.750
 7322POPC   C3B51957   8.743  13.654   7.050
 7322POPC   C4B51958   8.712  13.660   7.350
 7323POPC   NC351959  20.562   5.901   5.550
 7323POPC   PO451960  20.606   5.851   5.850
 7323POPC   GL151961  20.585   5.907   6.150
 7323POPC   GL251962  20.489   5.796   6.150
 7323POPC   C1A51963  20.618   5.891   6.450
 7323POPC   D2A51964  20.635   5.820   6.750
 7323POPC   C3A51965  20.643   5.896   7.050
 7323POPC   C4A51966  20.610   5.896   7.350
 7323POPC   C1B51967  20.460   5.676   6.450
 7323POPC   C2B51968  20.436   5.663   6.750
 7323POPC   C3B51969  20.485   5.645   7.050
 7323POPC   C4B51970  20.474   5.667   7.350
 7324POPC   NC351971  15.206  29.173   5.550
 7324POPC   PO451972  15.190  29.123   5.850
 7324POPC   GL151973  15.198  29.194   6.150
 7324POPC   GL251974  15.109  29.225   6.150
 7324POPC   C1A51975  15.222  29.162   6.450
 7324POPC   D2A51976  15.194  29.178   6.750
 7324POPC   C3A51977  15.146  29.118   7.050
 7324POPC   C4A51978  15.193  29.134   7.350
 7324POPC   C1B51979  15.082  29.391   6.450
 7324POPC   C2B51980  15.081  29.368   6.750
 7324POPC   C3B51981  15.044  29.396   7.050
 7324POPC   C4B51982  15.079  29.378   7.350
 7325POPC   NC351983   2.801  19.060   5.550
 7325POPC   PO451984   2.780  19.103   5.850
 7325POPC   GL151985   2.801  19.013   6.150
 7325POPC   GL251986   2.791  18.965   6.150
 7325POPC   C1A51987   2.769  19.075   6.450
 7325POPC   D2A51988   2.737  19.030   6.750
 7325POPC   C3A51989   2.735  19.075   7.050
 7325POPC   C4A51990   2.742  19.038   7.350
 7325POPC   C1B51991   2.922  18.809   6.450
 7325POPC   C2B51992   2.859  18.867   6.750
 7325POPC   C3B51993   2.864  18.822   7.050
 7325POPC   C4B51994   2.854  18.868   7.350
 7326POPC   NC351995   5.823  36.148   5.550
 7326POPC   PO451996   5.872  36.122   5.850
 7326POPC   GL151997   5.896  36.162   6.150
 7326POPC   GL251998   5.893  36.226   6.150
 7326POPC   C1A51999   5.832  36.123   6.450
 7326POPC   D2A52000   5.917  36.112   6.750
 7326POPC   C3A52001   5.888  36.122   7.050
 7326POPC   C4A52002   5.844  36.088   7.350
 7326POPC   C1B52003   5.842  36.389   6.450
 7326POPC   C2B52004   5.853  36.334   6.750
 7326POPC   C3B52005   5.867  36.369   7.050
 7326POPC   C4B52006   5.883  36.358   7.350
 7327POPC   NC352007  22.151   1.203   5.550
 7327POPC   PO452008  22.129   1.165   5.850
 7327POPC   GL152009  22.120   1.247   6.150
 7327POPC   GL252010  22.262   1.335   6.150
 7327POPC   C1A52011  22.165   1.221   6.450
 7327POPC   D2A52012  22.122   1.179   6.750
 7327POPC   C3A52013  22.143   1.205   7.050
 7327POPC   C4A52014  22.114   1.238   7.350
 7327POPC   C1B52015  22.273   1.449   6.450
 7327POPC   C2B52016  22.305   1.440   6.750
 7327POPC   C3B52017  22.298   1.448   7.050
 7327POPC   C4B52018  22.327   1.463   7.350
 7328POPC   NC352019   5.131   8.986   5.550
 7328POPC   PO452020   5.090   8.957   5.850
 7328POPC   GL152021   5.051   9.011   6.150
 7328POPC   GL252022   5.033   9.111   6.150
 7328POPC   C1A52023   5.078   9.006   6.450
 7328POPC   D2A52024   5.061   8.972   6.750
 7328POPC   C3A52025   5.048   9.003   7.050
 7328POPC   C4A52026   5.061   8.924   7.350
 7328POPC   C1B52027   4.943   9.161   6.450
 7328POPC   C2B52028   4.904   9.130   6.750
 7328POPC   C3B52029   4.929   9.145   7.050
 7328POPC   C4B52030   4.941   9.206   7.350
 7329POPC   NC352031  36.860   2.778   5.550
 7329POPC   PO452032  36.906   2.761   5.850
 7329POPC   GL152033  36.884   2.781   6.150
 7329POPC   GL252034  36.782   2.769   6.150
 7329POPC   C1A52035  36.908   2.765   6.450
 7329POPC   D2A52036  36.950   2.789   6.750
 7329POPC   C3A52037  36.906   2.787   7.050
 7329POPC   C4A52038  36.863   2.744   7.350
 7329POPC   C1B52039  36.659   2.899   6.450
 7329POPC   C2B52040  36.711   2.874   6.750
 7329POPC   C3B52041  36.718   2.881   7.050
 7329POPC   C4B52042  36.718   2.899   7.350
 7330POPC   NC352043  39.192  16.754   5.550
 7330POPC   PO452044  39.193  16.698   5.850
 7330POPC   GL152045  39.228  16.767   6.150
 7330POPC   GL252046  39.380  16.751   6.150
 7330POPC   C1A52047  39.190  16.755   6.450
 7330POPC   D2A52048  39.233  16.757   6.750
 7330POPC   C3A52049  39.216  16.691   7.050
 7330POPC   C4A52050  39.242  16.725   7.350
 7330POPC   C1B52051  39.437  16.864   6.450
 7330POPC   C2B52052  39.410  16.881   6.750
 7330POPC   C3B52053  39.482  16.848   7.050
 7330POPC   C4B52054  39.458  16.802   7.350
 7331POPC   NC352055   9.777  23.730   5.550
 7331POPC   PO452056   9.717  23.675   5.850
 7331POPC   GL152057   9.757  23.760   6.150
 7331POPC   GL252058   9.650  23.801   6.150
 7331POPC   C1A52059   9.706  23.720   6.450
 7331POPC   D2A52060   9.765  23.707   6.750
 7331POPC   C3A52061   9.743  23.763   7.050
 7331POPC   C4A52062   9.743  23.716   7.350
 7331POPC   C1B52063   9.505  23.843   6.450
 7331POPC   C2B52064   9.520  23.828   6.750
 7331POPC   C3B52065   9.540  23.855   7.050
 7331POPC   C4B52066   9.569  23.893   7.350
 7332POPC   NC352067  13.621   2.726   5.550
 7332POPC   PO452068  13.632   2.745   5.850
 7332POPC   GL152069  13.650   2.775   6.150
 7332POPC   GL252070  13.454   2.756   6.150
 7332POPC   C1A52071  13.626   2.799   6.450
 7332POPC   D2A52072  13.626   2.718   6.750
 7332POPC   C3A52073  13.638   2.733   7.050
 7332POPC   C4A52074  13.621   2.797   7.350
 7332POPC   C1B52075  13.418   2.811   6.450
 7332POPC   C2B52076  13.418   2.805   6.750
 7332POPC   C3B52077  13.344   2.780   7.050
 7332POPC   C4B52078  13.336   2.729   7.350
 7333POPC   NC352079   0.408  21.346   5.550
 7333POPC   PO452080   0.438  21.395   5.850
 7333POPC   GL152081   0.432  21.374   6.150
 7333POPC   GL252082   0.406  21.501   6.150
 7333POPC   C1A52083   0.473  21.336   6.450
 7333POPC   D2A52084   0.424  21.379   6.750
 7333POPC   C3A52085   0.414  21.380   7.050
 7333POPC   C4A52086   0.457  21.379   7.350
 7333POPC   C1B52087   0.286  21.546   6.450
 7333POPC   C2B52088   0.246  21.547   6.750
 7333POPC   C3B52089   0.264  21.570   7.050
 7333POPC   C4B52090   0.333  21.615   7.350
 7334POPC   NC352091  43.887  10.547   5.550
 7334POPC   PO452092  43.900  10.535   5.850
 7334POPC   GL152093  43.908  10.511   6.150
 7334POPC   GL252094  43.831  10.412   6.150
 7334POPC   C1A52095  43.931  10.502   6.450
 7334POPC   D2A52096  43.865  10.560   6.750
 7334POPC   C3A52097  43.870  10.491   7.050
 7334POPC   C4A52098  43.880  10.524   7.350
 7334POPC   C1B52099  43.729  10.316   6.450
 7334POPC   C2B52100  43.711  10.360   6.750
 7334POPC   C3B52101  43.739  10.279   7.050
 7334POPC   C4B52102  43.759  10.310   7.350
 7335POPC   NC352103   9.778   4.348   5.550
 7335POPC   PO452104   9.723   4.358   5.850
 7335POPC   GL152105   9.775   4.314   6.150
 7335POPC   GL252106   9.911   4.331   6.150
 7335POPC   C1A52107   9.706   4.287   6.450
 7335POPC   D2A52108   9.777   4.304   6.750
 7335POPC   C3A52109   9.745   4.294   7.050
 7335POPC   C4A52110   9.722   4.303   7.350
 7335POPC   C1B52111   9.947   4.257   6.450
 7335POPC   C2B52112   9.961   4.324   6.750
 7335POPC   C3B52113   9.966   4.249   7.050
 7335POPC   C4B52114   9.983   4.246   7.350
 7336POPC   NC352115   8.180  37.674   5.550
 7336POPC   PO452116   8.183  37.672   5.850
 7336POPC   GL152117   8.164  37.709   6.150
 7336POPC   GL252118   8.135  37.645   6.150
 7336POPC   C1A52119   8.240  37.686   6.450
 7336POPC   D2A52120   8.234  37.668   6.750
 7336POPC   C3A52121   8.153  37.658   7.050
 7336POPC   C4A52122   8.205  37.655   7.350
 7336POPC   C1B52123   7.948  37.556   6.450
 7336POPC   C2B52124   7.976  37.508   6.750
 7336POPC   C3B52125   7.936  37.563   7.050
 7336POPC   C4B52126   7.999  37.553   7.350
 7337POPC   NC352127  34.531  19.850   5.550
 7337POPC   PO452128  34.617  19.857   5.850
 7337POPC   GL152129  34.535  19.878   6.150
 7337POPC   GL252130  34.651  19.765   6.150
 7337POPC   C1A52131  34.529  19.851   6.450
 7337POPC   D2A52132  34.618  19.790   6.750
 7337POPC   C3A52133  34.527  19.787   7.050
 7337POPC   C4A52134  34.607  19.870   7.350
 7337POPC   C1B52135  34.770  19.725   6.450
 7337POPC   C2B52136  34.789  19.759   6.750
 7337POPC   C3B52137  34.789  19.764   7.050
 7337POPC   C4B52138  34.809  19.806   7.350
 7338POPC   NC352139  39.238  33.061   5.550
 7338POPC   PO452140  39.192  32.989   5.850
 7338POPC   GL152141  39.195  33.030   6.150
 7338POPC   GL252142  39.106  32.921   6.150
 7338POPC   C1A52143  39.213  32.976   6.450
 7338POPC   D2A52144  39.196  33.031   6.750
 7338POPC   C3A52145  39.207  32.977   7.050
 7338POPC   C4A52146  39.200  32.981   7.350
 7338POPC   C1B52147  39.057  32.893   6.450
 7338POPC   C2B52148  39.025  32.918   6.750
 7338POPC   C3B52149  38.996  32.904   7.050
 7338POPC   C4B52150  39.036  32.913   7.350
 7339POPC   NC352151   3.576  36.078   5.550
 7339POPC   PO452152   3.535  36.084   5.850
 7339POPC   GL152153   3.523  36.153   6.150
 7339POPC   GL252154   3.442  36.198   6.150
 7339POPC   C1A52155   3.515  36.081   6.450
 7339POPC   D2A52156   3.526  36.078   6.750
 7339POPC   C3A52157   3.545  36.140   7.050
 7339POPC   C4A52158   3.573  36.083   7.350
 7339POPC   C1B52159   3.322  36.212   6.450
 7339POPC   C2B52160   3.364  36.248   6.750
 7339POPC   C3B52161   3.348  36.259   7.050
 7339POPC   C4B52162   3.309  36.208   7.350
 7340POPC   NC352163  44.650  40.815   5.550
 7340POPC   PO452164  44.648  40.778   5.850
 7340POPC   GL152165  44.689  40.762   6.150
 7340POPC   GL252166  44.668  40.644   6.150
 7340POPC   C1A52167  44.665  40.779   6.450
 7340POPC   D2A52168  44.631  40.832   6.750
 7340POPC   C3A52169  44.694  40.789   7.050
 7340POPC   C4A52170  44.617  40.746   7.350
 7340POPC   C1B52171  44.619  40.582   6.450
 7340POPC   C2B52172  44.585  40.502   6.750
 7340POPC   C3B52173  44.682  40.575   7.050
 7340POPC   C4B52174  44.650  40.547   7.350
 7341POPC   NC352175  40.737  40.043   5.550
 7341POPC   PO452176  40.779  39.981   5.850
 7341POPC   GL152177  40.780  40.023   6.150
 7341POPC   GL252178  40.618  40.033   6.150
 7341POPC   C1A52179  40.776  39.960   6.450
 7341POPC   D2A52180  40.808  39.999   6.750
 7341POPC   C3A52181  40.827  39.970   7.050
 7341POPC   C4A52182  40.807  39.991   7.350
 7341POPC   C1B52183  40.571  40.072   6.450
 7341POPC   C2B52184  40.583  40.052   6.750
 7341POPC   C3B52185  40.503  40.107   7.050
 7341POPC   C4B52186  40.579  40.055   7.350
 7342POPC   NC352187  21.426  10.531   5.550
 7342POPC   PO452188  21.383  10.550   5.850
 7342POPC   GL152189  21.354  10.572   6.150
 7342POPC   GL252190  21.534  10.575   6.150
 7342POPC   C1A52191  21.403  10.553   6.450
 7342POPC   D2A52192  21.425  10.558   6.750
 7342POPC   C3A52193  21.339  10.556   7.050
 7342POPC   C4A52194  21.394  10.567   7.350
 7342POPC   C1B52195  21.642  10.612   6.450
 7342POPC   C2B52196  21.665  10.545   6.750
 7342POPC   C3B52197  21.631  10.625   7.050
 7342POPC   C4B52198  21.586  10.535   7.350
 7343POPC   NC352199  36.887  12.842   5.550
 7343POPC   PO452200  36.882  12.831   5.850
 7343POPC   GL152201  36.879  12.901   6.150
 7343POPC   GL252202  37.042  12.868   6.150
 7343POPC   C1A52203  36.953  12.888   6.450
 7343POPC   D2A52204  36.932  12.838   6.750
 7343POPC   C3A52205  36.912  12.835   7.050
 7343POPC   C4A52206  36.926  12.843   7.350
 7343POPC   C1B52207  37.142  12.767   6.450
 7343POPC   C2B52208  37.149  12.825   6.750
 7343POPC   C3B52209  37.150  12.781   7.050
 7343POPC   C4B52210  37.148  12.768   7.350
 7344POPC   NC352211   3.510  34.544   5.550
 7344POPC   PO452212   3.535  34.576   5.850
 7344POPC   GL152213   3.557  34.599   6.150
 7344POPC   GL252214   3.650  34.559   6.150
 7344POPC   C1A52215   3.552  34.572   6.450
 7344POPC   D2A52216   3.560  34.592   6.750
 7344POPC   C3A52217   3.572  34.573   7.050
 7344POPC   C4A52218   3.554  34.598   7.350
 7344POPC   C1B52219   3.802  34.666   6.450
 7344POPC   C2B52220   3.771  34.625   6.750
 7344POPC   C3B52221   3.817  34.645   7.050
 7344POPC   C4B52222   3.808  34.583   7.350
 7345POPC   NC352223  16.758  37.698   5.550
 7345POPC   PO452224  16.756  37.687   5.850
 7345POPC   GL152225  16.763  37.648   6.150
 7345POPC   GL252226  16.581  37.568   6.150
 7345POPC   C1A52227  16.695  37.639   6.450
 7345POPC   D2A52228  16.725  37.667   6.750
 7345POPC   C3A52229  16.706  37.677   7.050
 7345POPC   C4A52230  16.721  37.664   7.350
 7345POPC   C1B52231  16.526  37.565   6.450
 7345POPC   C2B52232  16.475  37.540   6.750
 7345POPC   C3B52233  16.528  37.513   7.050
 7345POPC   C4B52234  16.468  37.503   7.350
 7346POPC   NC352235  39.263  39.988   5.550
 7346POPC   PO452236  39.222  40.031   5.850
 7346POPC   GL152237  39.207  40.021   6.150
 7346POPC   GL252238  39.178  40.092   6.150
 7346POPC   C1A52239  39.259  40.003   6.450
 7346POPC   D2A52240  39.281  40.013   6.750
 7346POPC   C3A52241  39.242  40.039   7.050
 7346POPC   C4A52242  39.220  39.959   7.350
 7346POPC   C1B52243  39.261  40.257   6.450
 7346POPC   C2B52244  39.220  40.247   6.750
 7346POPC   C3B52245  39.210  40.248   7.050
 7346POPC   C4B52246  39.228  40.268   7.350
 7347POPC   NC352247  28.392  25.297   5.550
 7347POPC   PO452248  28.381  25.269   5.850
 7347POPC   GL152249  28.395  25.264   6.150
 7347POPC   GL252250  28.482  25.186   6.150
 7347POPC   C1A52251  28.323  25.265   6.450
 7347POPC   D2A52252  28.342  25.306   6.750
 7347POPC   C3A52253  28.404  25.249   7.050
 7347POPC   C4A52254  28.323  25.268   7.350
 7347POPC   C1B52255  28.565  25.177   6.450
 7347POPC   C2B52256  28.603  25.120   6.750
 7347POPC   C3B52257  28.547  25.178   7.050
 7347POPC   C4B52258  28.568  25.136   7.350
 7348POPC   NC352259  12.807  33.065   5.550
 7348POPC   PO452260  12.879  33.015   5.850
 7348POPC   GL152261  12.856  33.012   6.150
 7348POPC   GL252262  12.848  33.173   6.150
 7348POPC   C1A52263  12.859  33.067   6.450
 7348POPC   D2A52264  12.845  33.043   6.750
 7348POPC   C3A52265  12.836  33.031   7.050
 7348POPC   C4A52266  12.811  32.992   7.350
 7348POPC   C1B52267  12.831  33.279   6.450
 7348POPC   C2B52268  12.916  33.270   6.750
 7348POPC   C3B52269  12.840  33.295   7.050
 7348POPC   C4B52270  12.908  33.244   7.350
 7349POPC   NC352271  11.267  15.912   5.550
 7349POPC   PO452272  11.317  15.908   5.850
 7349POPC   GL152273  11.318  15.906   6.150
 7349POPC   GL252274  11.378  15.814   6.150
 7349POPC   C1A52275  11.258  15.991   6.450
 7349POPC   D2A52276  11.341  15.951   6.750
 7349POPC   C3A52277  11.317  15.947   7.050
 7349POPC   C4A52278  11.330  15.931   7.350
 7349POPC   C1B52279  11.464  15.747   6.450
 7349POPC   C2B52280  11.418  15.793   6.750
 7349POPC   C3B52281  11.506  15.743   7.050
 7349POPC   C4B52282  11.468  15.724   7.350
 7350POPC   NC352283  31.519  21.417   5.550
 7350POPC   PO452284  31.440  21.412   5.850
 7350POPC   GL152285  31.474  21.359   6.150
 7350POPC   GL252286  31.455  21.517   6.150
 7350POPC   C1A52287  31.489  21.395   6.450
 7350POPC   D2A52288  31.428  21.354   6.750
 7350POPC   C3A52289  31.431  21.368   7.050
 7350POPC   C4A52290  31.476  21.350   7.350
 7350POPC   C1B52291  31.553  21.587   6.450
 7350POPC   C2B52292  31.481  21.618   6.750
 7350POPC   C3B52293  31.546  21.677   7.050
 7350POPC   C4B52294  31.514  21.666   7.350
 7351POPC   NC352295  40.001  20.635   5.550
 7351POPC   PO452296  40.042  20.578   5.850
 7351POPC   GL152297  39.983  20.646   6.150
 7351POPC   GL252298  40.128  20.684   6.150
 7351POPC   C1A52299  39.970  20.614   6.450
 7351POPC   D2A52300  40.054  20.639   6.750
 7351POPC   C3A52301  39.969  20.636   7.050
 7351POPC   C4A52302  39.979  20.585   7.350
 7351POPC   C1B52303  40.198  20.812   6.450
 7351POPC   C2B52304  40.170  20.834   6.750
 7351POPC   C3B52305  40.169  20.800   7.050
 7351POPC   C4B52306  40.193  20.821   7.350
 7352POPC   NC352307  36.098  43.869   5.550
 7352POPC   PO452308  36.106  43.905   5.850
 7352POPC   GL152309  36.093  43.931   6.150
 7352POPC   GL252310  36.068  43.992   6.150
 7352POPC   C1A52311  36.103  43.911   6.450
 7352POPC   D2A52312  36.138  43.875   6.750
 7352POPC   C3A52313  36.159  43.887   7.050
 7352POPC   C4A52314  36.159  43.918   7.350
 7352POPC   C1B52315  36.007  44.093   6.450
 7352POPC   C2B52316  35.963  44.147   6.750
 7352POPC   C3B52317  36.000  44.078   7.050
 7352POPC   C4B52318  35.960  44.103   7.350
 7353POPC   NC352319  29.945  30.746   5.550
 7353POPC   PO452320  29.945  30.680   5.850
 7353POPC   GL152321  29.874  30.744   6.150
 7353POPC   GL252322  29.787  30.774   6.150
 7353POPC   C1A52323  29.900  30.710   6.450
 7353POPC   D2A52324  29.887  30.724   6.750
 7353POPC   C3A52325  29.921  30.730   7.050
 7353POPC   C4A52326  29.928  30.671   7.350
 7353POPC   C1B52327  29.701  30.843   6.450
 7353POPC   C2B52328  29.749  30.864   6.750
 7353POPC   C3B52329  29.755  30.810   7.050
 7353POPC   C4B52330  29.735  30.806   7.350
 7354POPC   NC352331  33.827  27.581   5.550
 7354POPC   PO452332  33.761  27.544   5.850
 7354POPC   GL152333  33.772  27.545   6.150
 7354POPC   GL252334  33.677  27.464   6.150
 7354POPC   C1A52335  33.763  27.633   6.450
 7354POPC   D2A52336  33.821  27.603   6.750
 7354POPC   C3A52337  33.760  27.640   7.050
 7354POPC   C4A52338  33.809  27.597   7.350
 7354POPC   C1B52339  33.660  27.414   6.450
 7354POPC   C2B52340  33.598  27.380   6.750
 7354POPC   C3B52341  33.636  27.383   7.050
 7354POPC   C4B52342  33.616  27.469   7.350
 7355POPC   NC352343  13.587  43.894   5.550
 7355POPC   PO452344  13.664  43.917   5.850
 7355POPC   GL152345  13.672  43.926   6.150
 7355POPC   GL252346  13.459  43.928   6.150
 7355POPC   C1A52347  13.582  43.846   6.450
 7355POPC   D2A52348  13.621  43.882   6.750
 7355POPC   C3A52349  13.646  43.925   7.050
 7355POPC   C4A52350  13.582  43.863   7.350
 7355POPC   C1B52351  13.428  43.965   6.450
 7355POPC   C2B52352  13.334  43.957   6.750
 7355POPC   C3B52353  13.432  43.948   7.050
 7355POPC   C4B52354  13.414  43.975   7.350
 7356POPC   NC352355  34.546  43.116   5.550
 7356POPC   PO452356  34.617  43.127   5.850
 7356POPC   GL152357  34.610  43.073   6.150
 7356POPC   GL252358  34.547  43.171   6.150
 7356POPC   C1A52359  34.556  43.116   6.450
 7356POPC   D2A52360  34.580  43.156   6.750
 7356POPC   C3A52361  34.602  43.142   7.050
 7356POPC   C4A52362  34.551  43.129   7.350
 7356POPC   C1B52363  34.419  43.348   6.450
 7356POPC   C2B52364  34.478  43.297   6.750
 7356POPC   C3B52365  34.431  43.349   7.050
 7356POPC   C4B52366  34.450  43.322   7.350
 7357POPC   NC352367  40.008  33.043   5.550
 7357POPC   PO452368  40.036  33.007   5.850
 7357POPC   GL152369  40.042  33.020   6.150
 7357POPC   GL252370  40.086  33.187   6.150
 7357POPC   C1A52371  40.013  33.024   6.450
 7357POPC   D2A52372  39.994  32.987   6.750
 7357POPC   C3A52373  40.002  32.981   7.050
 7357POPC   C4A52374  40.010  33.006   7.350
 7357POPC   C1B52375  40.114  33.249   6.450
 7357POPC   C2B52376  40.110  33.288   6.750
 7357POPC   C3B52377  40.065  33.271   7.050
 7357POPC   C4B52378  40.092  33.307   7.350
 7358POPC   NC352379  27.609  36.156   5.550
 7358POPC   PO452380  27.642  36.155   5.850
 7358POPC   GL152381  27.566  36.092   6.150
 7358POPC   GL252382  27.654  36.247   6.150
 7358POPC   C1A52383  27.621  36.091   6.450
 7358POPC   D2A52384  27.546  36.098   6.750
 7358POPC   C3A52385  27.577  36.166   7.050
 7358POPC   C4A52386  27.602  36.171   7.350
 7358POPC   C1B52387  27.820  36.317   6.450
 7358POPC   C2B52388  27.793  36.288   6.750
 7358POPC   C3B52389  27.818  36.310   7.050
 7358POPC   C4B52390  27.810  36.318   7.350
 7359POPC   NC352391  16.708  18.305   5.550
 7359POPC   PO452392  16.705  18.267   5.850
 7359POPC   GL152393  16.714  18.291   6.150
 7359POPC   GL252394  16.869  18.390   6.150
 7359POPC   C1A52395  16.755  18.263   6.450
 7359POPC   D2A52396  16.725  18.322   6.750
 7359POPC   C3A52397  16.724  18.290   7.050
 7359POPC   C4A52398  16.724  18.331   7.350
 7359POPC   C1B52399  16.935  18.407   6.450
 7359POPC   C2B52400  16.955  18.413   6.750
 7359POPC   C3B52401  16.951  18.470   7.050
 7359POPC   C4B52402  16.934  18.472   7.350
 7360POPC   NC352403   9.020  27.631   5.550
 7360POPC   PO452404   9.004  27.608   5.850
 7360POPC   GL152405   8.979  27.618   6.150
 7360POPC   GL252406   8.996  27.692   6.150
 7360POPC   C1A52407   8.999  27.556   6.450
 7360POPC   D2A52408   8.937  27.586   6.750
 7360POPC   C3A52409   8.989  27.575   7.050
 7360POPC   C4A52410   8.935  27.610   7.350
 7360POPC   C1B52411   8.949  27.860   6.450
 7360POPC   C2B52412   8.890  27.843   6.750
 7360POPC   C3B52413   8.896  27.862   7.050
 7360POPC   C4B52414   8.949  27.835   7.350
 7361POPC   NC352415  17.504  29.153   5.550
 7361POPC   PO452416  17.461  29.099   5.850
 7361POPC   GL152417  17.462  29.119   6.150
 7361POPC   GL252418  17.441  29.197   6.150
 7361POPC   C1A52419  17.544  29.100   6.450
 7361POPC   D2A52420  17.521  29.173   6.750
 7361POPC   C3A52421  17.545  29.161   7.050
 7361POPC   C4A52422  17.537  29.137   7.350
 7361POPC   C1B52423  17.265  29.211   6.450
 7361POPC   C2B52424  17.229  29.255   6.750
 7361POPC   C3B52425  17.320  29.277   7.050
 7361POPC   C4B52426  17.288  29.239   7.350
 7362POPC   NC352427   5.895  21.348   5.550
 7362POPC   PO452428   5.843  21.380   5.850
 7362POPC   GL152429   5.827  21.403   6.150
 7362POPC   GL252430   5.729  21.436   6.150
 7362POPC   C1A52431   5.901  21.402   6.450
 7362POPC   D2A52432   5.894  21.420   6.750
 7362POPC   C3A52433   5.879  21.420   7.050
 7362POPC   C4A52434   5.889  21.394   7.350
 7362POPC   C1B52435   5.652  21.532   6.450
 7362POPC   C2B52436   5.631  21.500   6.750
 7362POPC   C3B52437   5.640  21.543   7.050
 7362POPC   C4B52438   5.666  21.475   7.350
 7363POPC   NC352439  33.768  22.982   5.550
 7363POPC   PO452440  33.774  22.939   5.850
 7363POPC   GL152441  33.801  22.982   6.150
 7363POPC   GL252442  33.865  23.025   6.150
 7363POPC   C1A52443  33.769  22.894   6.450
 7363POPC   D2A52444  33.829  22.932   6.750
 7363POPC   C3A52445  33.801  22.929   7.050
 7363POPC   C4A52446  33.772  22.934   7.350
 7363POPC   C1B52447  33.891  23.217   6.450
 7363POPC   C2B52448  33.848  23.172   6.750
 7363POPC   C3B52449  33.847  23.181   7.050
 7363POPC   C4B52450  33.837  23.178   7.350
 7364POPC   NC352451  32.276  12.108   5.550
 7364POPC   PO452452  32.255  12.032   5.850
 7364POPC   GL152453  32.221  12.070   6.150
 7364POPC   GL252454  32.220  12.224   6.150
 7364POPC   C1A52455  32.221  12.046   6.450
 7364POPC   D2A52456  32.274  12.093   6.750
 7364POPC   C3A52457  32.257  12.059   7.050
 7364POPC   C4A52458  32.227  12.043   7.350
 7364POPC   C1B52459  32.124  12.329   6.450
 7364POPC   C2B52460  32.113  12.273   6.750
 7364POPC   C3B52461  32.152  12.323   7.050
 7364POPC   C4B52462  32.114  12.309   7.350
 7365POPC   NC352463  35.361  43.061   5.550
 7365POPC   PO452464  35.352  43.067   5.850
 7365POPC   GL152465  35.365  43.129   6.150
 7365POPC   GL252466  35.453  43.051   6.150
 7365POPC   C1A52467  35.339  43.063   6.450
 7365POPC   D2A52468  35.396  43.134   6.750
 7365POPC   C3A52469  35.390  43.083   7.050
 7365POPC   C4A52470  35.342  43.103   7.350
 7365POPC   C1B52471  35.561  42.882   6.450
 7365POPC   C2B52472  35.563  42.897   6.750
 7365POPC   C3B52473  35.520  42.940   7.050
 7365POPC   C4B52474  35.523  42.879   7.350
 7366POPC   NC352475  42.328   9.767   5.550
 7366POPC   PO452476  42.311   9.713   5.850
 7366POPC   GL152477  42.341   9.790   6.150
 7366POPC   GL252478  42.257   9.613   6.150
 7366POPC   C1A52479  42.365   9.769   6.450
 7366POPC   D2A52480  42.360   9.781   6.750
 7366POPC   C3A52481  42.350   9.716   7.050
 7366POPC   C4A52482  42.288   9.716   7.350
 7366POPC   C1B52483  42.180   9.509   6.450
 7366POPC   C2B52484  42.229   9.574   6.750
 7366POPC   C3B52485  42.255   9.490   7.050
 7366POPC   C4B52486  42.252   9.548   7.350
 7367POPC   NC352487  33.833   8.926   5.550
 7367POPC   PO452488  33.801   8.975   5.850
 7367POPC   GL152489  33.832   8.956   6.150
 7367POPC   GL252490  33.683   8.972   6.150
 7367POPC   C1A52491  33.825   8.982   6.450
 7367POPC   D2A52492  33.752   8.980   6.750
 7367POPC   C3A52493  33.751   8.985   7.050
 7367POPC   C4A52494  33.798   9.016   7.350
 7367POPC   C1B52495  33.523   8.906   6.450
 7367POPC   C2B52496  33.572   8.902   6.750
 7367POPC   C3B52497  33.550   8.890   7.050
 7367POPC   C4B52498  33.554   8.955   7.350
 7368POPC   NC352499  18.259  24.539   5.550
 7368POPC   PO452500  18.272  24.512   5.850
 7368POPC   GL152501  18.293  24.456   6.150
 7368POPC   GL252502  18.333  24.614   6.150
 7368POPC   C1A52503  18.251  24.484   6.450
 7368POPC   D2A52504  18.280  24.502   6.750
 7368POPC   C3A52505  18.252  24.524   7.050
 7368POPC   C4A52506  18.275  24.494   7.350
 7368POPC   C1B52507  18.447  24.627   6.450
 7368POPC   C2B52508  18.441  24.671   6.750
 7368POPC   C3B52509  18.435  24.671   7.050
 7368POPC   C4B52510  18.465  24.631   7.350
 7369POPC   NC352511   4.347  22.208   5.550
 7369POPC   PO452512   4.269  22.188   5.850
 7369POPC   GL152513   4.275  22.203   6.150
 7369POPC   GL252514   4.296  22.008   6.150
 7369POPC   C1A52515   4.271  22.168   6.450
 7369POPC   D2A52516   4.355  22.163   6.750
 7369POPC   C3A52517   4.293  22.142   7.050
 7369POPC   C4A52518   4.302  22.152   7.350
 7369POPC   C1B52519   4.220  21.919   6.450
 7369POPC   C2B52520   4.259  21.967   6.750
 7369POPC   C3B52521   4.293  21.874   7.050
 7369POPC   C4B52522   4.207  21.885   7.350
 7370POPC   NC352523  13.650   4.367   5.550
 7370POPC   PO452524  13.612   4.347   5.850
 7370POPC   GL152525  13.600   4.362   6.150
 7370POPC   GL252526  13.519   4.327   6.150
 7370POPC   C1A52527  13.643   4.351   6.450
 7370POPC   D2A52528  13.600   4.348   6.750
 7370POPC   C3A52529  13.588   4.326   7.050
 7370POPC   C4A52530  13.589   4.308   7.350
 7370POPC   C1B52531  13.379   4.384   6.450
 7370POPC   C2B52532  13.429   4.383   6.750
 7370POPC   C3B52533  13.396   4.344   7.050
 7370POPC   C4B52534  13.428   4.338   7.350
 7371POPC   NC352535   6.672   0.414   5.550
 7371POPC   PO452536   6.615   0.417   5.850
 7371POPC   GL152537   6.662   0.401   6.150
 7371POPC   GL252538   6.642   0.335   6.150
 7371POPC   C1A52539   6.668   0.424   6.450
 7371POPC   D2A52540   6.656   0.412   6.750
 7371POPC   C3A52541   6.660   0.476   7.050
 7371POPC   C4A52542   6.628   0.427   7.350
 7371POPC   C1B52543   6.688   0.148   6.450
 7371POPC   C2B52544   6.636   0.181   6.750
 7371POPC   C3B52545   6.606   0.151   7.050
 7371POPC   C4B52546   6.632   0.215   7.350
 7372POPC   NC352547   4.324  15.917   5.550
 7372POPC   PO452548   4.339  15.973   5.850
 7372POPC   GL152549   4.356  15.989   6.150
 7372POPC   GL252550   4.392  16.053   6.150
 7372POPC   C1A52551   4.346  15.974   6.450
 7372POPC   D2A52552   4.279  15.956   6.750
 7372POPC   C3A52553   4.315  15.935   7.050
 7372POPC   C4A52554   4.305  15.908   7.350
 7372POPC   C1B52555   4.573  16.074   6.450
 7372POPC   C2B52556   4.578  16.077   6.750
 7372POPC   C3B52557   4.481  16.123   7.050
 7372POPC   C4B52558   4.571  16.055   7.350
 7373POPC   NC352559  22.955  32.982   5.550
 7373POPC   PO452560  22.949  33.010   5.850
 7373POPC   GL152561  22.965  33.029   6.150
 7373POPC   GL252562  22.910  32.920   6.150
 7373POPC   C1A52563  22.965  33.052   6.450
 7373POPC   D2A52564  22.983  33.059   6.750
 7373POPC   C3A52565  22.901  32.975   7.050
 7373POPC   C4A52566  22.947  33.027   7.350
 7373POPC   C1B52567  22.767  32.871   6.450
 7373POPC   C2B52568  22.805  32.792   6.750
 7373POPC   C3B52569  22.799  32.776   7.050
 7373POPC   C4B52570  22.832  32.819   7.350
 7374POPC   NC352571  29.184  31.498   5.550
 7374POPC   PO452572  29.109  31.482   5.850
 7374POPC   GL152573  29.144  31.461   6.150
 7374POPC   GL252574  29.071  31.581   6.150
 7374POPC   C1A52575  29.125  31.480   6.450
 7374POPC   D2A52576  29.180  31.442   6.750
 7374POPC   C3A52577  29.150  31.482   7.050
 7374POPC   C4A52578  29.110  31.437   7.350
 7374POPC   C1B52579  28.909  31.647   6.450
 7374POPC   C2B52580  28.932  31.669   6.750
 7374POPC   C3B52581  28.908  31.612   7.050
 7374POPC   C4B52582  28.972  31.678   7.350
 7375POPC   NC352583  34.573  16.772   5.550
 7375POPC   PO452584  34.610  16.714   5.850
 7375POPC   GL152585  34.612  16.704   6.150
 7375POPC   GL252586  34.612  16.833   6.150
 7375POPC   C1A52587  34.600  16.697   6.450
 7375POPC   D2A52588  34.565  16.761   6.750
 7375POPC   C3A52589  34.624  16.761   7.050
 7375POPC   C4A52590  34.544  16.746   7.350
 7375POPC   C1B52591  34.725  16.880   6.450
 7375POPC   C2B52592  34.714  16.937   6.750
 7375POPC   C3B52593  34.729  16.975   7.050
 7375POPC   C4B52594  34.721  16.906   7.350
 7376POPC   NC352595  37.682  22.113   5.550
 7376POPC   PO452596  37.633  22.205   5.850
 7376POPC   GL152597  37.687  22.132   6.150
 7376POPC   GL252598  37.818  22.086   6.150
 7376POPC   C1A52599  37.690  22.181   6.450
 7376POPC   D2A52600  37.689  22.173   6.750
 7376POPC   C3A52601  37.704  22.191   7.050
 7376POPC   C4A52602  37.728  22.200   7.350
 7376POPC   C1B52603  37.847  22.000   6.450
 7376POPC   C2B52604  37.841  22.021   6.750
 7376POPC   C3B52605  37.845  22.036   7.050
 7376POPC   C4B52606  37.908  22.023   7.350
 7377POPC   NC352607  10.499  43.129   5.550
 7377POPC   PO452608  10.488  43.106   5.850
 7377POPC   GL152609  10.537  43.087   6.150
 7377POPC   GL252610  10.555  43.281   6.150
 7377POPC   C1A52611  10.541  43.128   6.450
 7377POPC   D2A52612  10.550  43.121   6.750
 7377POPC   C3A52613  10.507  43.077   7.050
 7377POPC   C4A52614  10.484  43.116   7.350
 7377POPC   C1B52615  10.522  43.340   6.450
 7377POPC   C2B52616  10.576  43.353   6.750
 7377POPC   C3B52617  10.599  43.307   7.050
 7377POPC   C4B52618  10.600  43.334   7.350
 7378POPC   NC352619  12.034  29.888   5.550
 7378POPC   PO452620  12.041  29.872   5.850
 7378POPC   GL152621  12.110  29.945   6.150
 7378POPC   GL252622  12.057  30.000   6.150
 7378POPC   C1A52623  12.094  29.932   6.450
 7378POPC   D2A52624  12.118  29.877   6.750
 7378POPC   C3A52625  12.049  29.871   7.050
 7378POPC   C4A52626  12.041  29.923   7.350
 7378POPC   C1B52627  12.091  30.185   6.450
 7378POPC   C2B52628  12.105  30.154   6.750
 7378POPC   C3B52629  12.110  30.174   7.050
 7378POPC   C4B52630  12.099  30.209   7.350
 7379POPC   NC352631  39.985   5.099   5.550
 7379POPC   PO452632  40.055   5.043   5.850
 7379POPC   GL152633  40.000   5.105   6.150
 7379POPC   GL252634  39.917   5.158   6.150
 7379POPC   C1A52635  39.996   5.103   6.450
 7379POPC   D2A52636  40.041   5.095   6.750
 7379POPC   C3A52637  40.041   5.045   7.050
 7379POPC   C4A52638  40.025   5.096   7.350
 7379POPC   C1B52639  39.759   5.189   6.450
 7379POPC   C2B52640  39.728   5.143   6.750
 7379POPC   C3B52641  39.727   5.156   7.050
 7379POPC   C4B52642  39.780   5.201   7.350
 7380POPC   NC352643  11.292   4.351   5.550
 7380POPC   PO452644  11.272   4.268   5.850
 7380POPC   GL152645  11.307   4.351   6.150
 7380POPC   GL252646  11.289   4.225   6.150
 7380POPC   C1A52647  11.278   4.272   6.450
 7380POPC   D2A52648  11.319   4.286   6.750
 7380POPC   C3A52649  11.272   4.282   7.050
 7380POPC   C4A52650  11.269   4.273   7.350
 7380POPC   C1B52651  11.379   4.032   6.450
 7380POPC   C2B52652  11.340   4.028   6.750
 7380POPC   C3B52653  11.413   4.103   7.050
 7380POPC   C4B52654  11.367   4.040   7.350
 7381POPC   NC352655  38.412  18.320   5.550
 7381POPC   PO452656  38.494  18.308   5.850
 7381POPC   GL152657  38.425  18.290   6.150
 7381POPC   GL252658  38.589  18.247   6.150
 7381POPC   C1A52659  38.438  18.324   6.450
 7381POPC   D2A52660  38.456  18.287   6.750
 7381POPC   C3A52661  38.412  18.311   7.050
 7381POPC   C4A52662  38.482  18.311   7.350
 7381POPC   C1B52663  38.654  18.146   6.450
 7381POPC   C2B52664  38.620  18.141   6.750
 7381POPC   C3B52665  38.648  18.121   7.050
 7381POPC   C4B52666  38.683  18.106   7.350
 7382POPC   NC352667  15.976  39.998   5.550
 7382POPC   PO452668  15.981  40.023   5.850
 7382POPC   GL152669  15.959  39.972   6.150
 7382POPC   GL252670  15.963  39.889   6.150
 7382POPC   C1A52671  15.929  39.989   6.450
 7382POPC   D2A52672  15.985  39.982   6.750
 7382POPC   C3A52673  15.978  40.043   7.050
 7382POPC   C4A52674  15.940  40.011   7.350
 7382POPC   C1B52675  15.939  39.715   6.450
 7382POPC   C2B52676  15.937  39.717   6.750
 7382POPC   C3B52677  16.010  39.736   7.050
 7382POPC   C4B52678  15.997  39.731   7.350
 7383POPC   NC352679  11.298  12.119   5.550
 7383POPC   PO452680  11.341  12.088   5.850
 7383POPC   GL152681  11.328  12.071   6.150
 7383POPC   GL252682  11.200  12.074   6.150
 7383POPC   C1A52683  11.282  12.043   6.450
 7383POPC   D2A52684  11.310  12.126   6.750
 7383POPC   C3A52685  11.346  12.124   7.050
 7383POPC   C4A52686  11.259  12.047   7.350
 7383POPC   C1B52687  11.033  12.204   6.450
 7383POPC   C2B52688  11.067  12.168   6.750
 7383POPC   C3B52689  11.076  12.186   7.050
 7383POPC   C4B52690  11.094  12.163   7.350
 7384POPC   NC352691   0.416   8.971   5.550
 7384POPC   PO452692   0.447   8.940   5.850
 7384POPC   GL152693   0.411   8.974   6.150
 7384POPC   GL252694   0.460   8.848   6.150
 7384POPC   C1A52695   0.414   8.954   6.450
 7384POPC   D2A52696   0.435   8.923   6.750
 7384POPC   C3A52697   0.441   9.000   7.050
 7384POPC   C4A52698   0.486   8.965   7.350
 7384POPC   C1B52699   0.551   8.682   6.450
 7384POPC   C2B52700   0.553   8.745   6.750
 7384POPC   C3B52701   0.515   8.776   7.050
 7384POPC   C4B52702   0.516   8.737   7.350
 7385POPC   NC352703  21.423  28.343   5.550
 7385POPC   PO452704  21.369  28.412   5.850
 7385POPC   GL152705  21.399  28.384   6.150
 7385POPC   GL252706  21.452  28.489   6.150
 7385POPC   C1A52707  21.376  28.339   6.450
 7385POPC   D2A52708  21.365  28.381   6.750
 7385POPC   C3A52709  21.389  28.342   7.050
 7385POPC   C4A52710  21.358  28.412   7.350
 7385POPC   C1B52711  21.527  28.548   6.450
 7385POPC   C2B52712  21.553  28.590   6.750
 7385POPC   C3B52713  21.480  28.626   7.050
 7385POPC   C4B52714  21.511  28.541   7.350
 7386POPC   NC352715  39.216  10.504   5.550
 7386POPC   PO452716  39.259  10.492   5.850
 7386POPC   GL152717  39.229  10.534   6.150
 7386POPC   GL252718  39.155  10.614   6.150
 7386POPC   C1A52719  39.277  10.512   6.450
 7386POPC   D2A52720  39.238  10.494   6.750
 7386POPC   C3A52721  39.220  10.521   7.050
 7386POPC   C4A52722  39.266  10.480   7.350
 7386POPC   C1B52723  39.070  10.684   6.450
 7386POPC   C2B52724  39.040  10.650   6.750
 7386POPC   C3B52725  39.031  10.676   7.050
 7386POPC   C4B52726  39.051  10.705   7.350
 7387POPC   NC352727  41.521  40.759   5.550
 7387POPC   PO452728  41.555  40.819   5.850
 7387POPC   GL152729  41.597  40.804   6.150
 7387POPC   GL252730  41.447  40.921   6.150
 7387POPC   C1A52731  41.573  40.815   6.450
 7387POPC   D2A52732  41.572  40.786   6.750
 7387POPC   C3A52733  41.537  40.758   7.050
 7387POPC   C4A52734  41.555  40.750   7.350
 7387POPC   C1B52735  41.454  41.041   6.450
 7387POPC   C2B52736  41.464  40.992   6.750
 7387POPC   C3B52737  41.433  40.985   7.050
 7387POPC   C4B52738  41.385  40.956   7.350
 7388POPC   NC352739  41.525  28.351   5.550
 7388POPC   PO452740  41.557  28.366   5.850
 7388POPC   GL152741  41.574  28.371   6.150
 7388POPC   GL252742  41.620  28.297   6.150
 7388POPC   C1A52743  41.521  28.329   6.450
 7388POPC   D2A52744  41.509  28.417   6.750
 7388POPC   C3A52745  41.526  28.409   7.050
 7388POPC   C4A52746  41.513  28.335   7.350
 7388POPC   C1B52747  41.684  28.168   6.450
 7388POPC   C2B52748  41.606  28.153   6.750
 7388POPC   C3B52749  41.702  28.148   7.050
 7388POPC   C4B52750  41.666  28.132   7.350
 7389POPC   NC352751  30.660  24.504   5.550
 7389POPC   PO452752  30.647  24.515   5.850
 7389POPC   GL152753  30.715  24.464   6.150
 7389POPC   GL252754  30.845  24.401   6.150
 7389POPC   C1A52755  30.684  24.478   6.450
 7389POPC   D2A52756  30.678  24.521   6.750
 7389POPC   C3A52757  30.723  24.473   7.050
 7389POPC   C4A52758  30.695  24.504   7.350
 7389POPC   C1B52759  30.916  24.364   6.450
 7389POPC   C2B52760  30.919  24.427   6.750
 7389POPC   C3B52761  30.963  24.434   7.050
 7389POPC   C4B52762  30.956  24.360   7.350
 7390POPC   NC352763   1.256   8.230   5.550
 7390POPC   PO452764   1.230   8.154   5.850
 7390POPC   GL152765   1.222   8.168   6.150
 7390POPC   GL252766   1.171   8.051   6.150
 7390POPC   C1A52767   1.252   8.214   6.450
 7390POPC   D2A52768   1.222   8.222   6.750
 7390POPC   C3A52769   1.202   8.190   7.050
 7390POPC   C4A52770   1.168   8.157   7.350
 7390POPC   C1B52771   1.179   7.972   6.450
 7390POPC   C2B52772   1.178   7.972   6.750
 7390POPC   C3B52773   1.107   7.996   7.050
 7390POPC   C4B52774   1.175   7.979   7.350
 7391POPC   NC352775  31.475   5.892   5.550
 7391POPC   PO452776  31.462   5.847   5.850
 7391POPC   GL152777  31.426   5.909   6.150
 7391POPC   GL252778  31.605   5.787   6.150
 7391POPC   C1A52779  31.456   5.864   6.450
 7391POPC   D2A52780  31.434   5.821   6.750
 7391POPC   C3A52781  31.513   5.826   7.050
 7391POPC   C4A52782  31.505   5.849   7.350
 7391POPC   C1B52783  31.704   5.750   6.450
 7391POPC   C2B52784  31.743   5.791   6.750
 7391POPC   C3B52785  31.684   5.721   7.050
 7391POPC   C4B52786  31.715   5.752   7.350
 7392POPC   NC352787  27.549  15.963   5.550
 7392POPC   PO452788  27.599  15.949   5.850
 7392POPC   GL152789  27.636  15.916   6.150
 7392POPC   GL252790  27.488  16.054   6.150
 7392POPC   C1A52791  27.587  15.992   6.450
 7392POPC   D2A52792  27.638  15.987   6.750
 7392POPC   C3A52793  27.622  15.987   7.050
 7392POPC   C4A52794  27.623  15.953   7.350
 7392POPC   C1B52795  27.430  16.129   6.450
 7392POPC   C2B52796  27.425  16.131   6.750
 7392POPC   C3B52797  27.507  16.149   7.050
 7392POPC   C4B52798  27.518  16.188   7.350
 7393POPC   NC352799  19.085  32.997   5.550
 7393POPC   PO452800  19.104  33.054   5.850
 7393POPC   GL152801  19.015  33.011   6.150
 7393POPC   GL252802  19.157  33.048   6.150
 7393POPC   C1A52803  19.056  33.039   6.450
 7393POPC   D2A52804  19.086  33.007   6.750
 7393POPC   C3A52805  19.087  32.984   7.050
 7393POPC   C4A52806  19.105  33.020   7.350
 7393POPC   C1B52807  19.292  33.021   6.450
 7393POPC   C2B52808  19.323  32.986   6.750
 7393POPC   C3B52809  19.289  33.027   7.050
 7393POPC   C4B52810  19.263  33.032   7.350
 7394POPC   NC352811  43.060  17.463   5.550
 7394POPC   PO452812  43.077  17.543   5.850
 7394POPC   GL152813  43.123  17.491   6.150
 7394POPC   GL252814  43.108  17.613   6.150
 7394POPC   C1A52815  43.076  17.476   6.450
 7394POPC   D2A52816  43.065  17.524   6.750
 7394POPC   C3A52817  43.064  17.556   7.050
 7394POPC   C4A52818  43.123  17.535   7.350
 7394POPC   C1B52819  43.022  17.778   6.450
 7394POPC   C2B52820  43.036  17.735   6.750
 7394POPC   C3B52821  43.003  17.780   7.050
 7394POPC   C4B52822  42.974  17.696   7.350
 7395POPC   NC352823  12.122  29.193   5.550
 7395POPC   PO452824  12.102  29.166   5.850
 7395POPC   GL152825  12.077  29.103   6.150
 7395POPC   GL252826  12.185  29.051   6.150
 7395POPC   C1A52827  12.126  29.147   6.450
 7395POPC   D2A52828  12.098  29.099   6.750
 7395POPC   C3A52829  12.061  29.105   7.050
 7395POPC   C4A52830  12.055  29.122   7.350
 7395POPC   C1B52831  12.311  29.042   6.450
 7395POPC   C2B52832  12.327  29.062   6.750
 7395POPC   C3B52833  12.329  29.010   7.050
 7395POPC   C4B52834  12.298  28.996   7.350
 7396POPC   NC352835  23.726  39.984   5.550
 7396POPC   PO452836  23.764  39.957   5.850
 7396POPC   GL152837  23.670  39.971   6.150
 7396POPC   GL252838  23.702  40.109   6.150
 7396POPC   C1A52839  23.682  39.971   6.450
 7396POPC   D2A52840  23.731  39.998   6.750
 7396POPC   C3A52841  23.731  40.035   7.050
 7396POPC   C4A52842  23.701  40.044   7.350
 7396POPC   C1B52843  23.819  40.276   6.450
 7396POPC   C2B52844  23.746  40.232   6.750
 7396POPC   C3B52845  23.810  40.202   7.050
 7396POPC   C4B52846  23.820  40.254   7.350
 7397POPC   NC352847  15.943  43.915   5.550
 7397POPC   PO452848  15.923  43.868   5.850
 7397POPC   GL152849  15.927  43.872   6.150
 7397POPC   GL252850  16.045  43.794   6.150
 7397POPC   C1A52851  15.938  43.909   6.450
 7397POPC   D2A52852  15.983  43.930   6.750
 7397POPC   C3A52853  15.955  43.882   7.050
 7397POPC   C4A52854  15.907  43.921   7.350
 7397POPC   C1B52855  16.127  43.689   6.450
 7397POPC   C2B52856  16.078  43.655   6.750
 7397POPC   C3B52857  16.110  43.722   7.050
 7397POPC   C4B52858  16.089  43.691   7.350
 7398POPC   NC352859   3.586   6.604   5.550
 7398POPC   PO452860   3.555   6.618   5.850
 7398POPC   GL152861   3.578   6.688   6.150
 7398POPC   GL252862   3.576   6.535   6.150
 7398POPC   C1A52863   3.507   6.618   6.450
 7398POPC   D2A52864   3.495   6.641   6.750
 7398POPC   C3A52865   3.573   6.598   7.050
 7398POPC   C4A52866   3.519   6.614   7.350
 7398POPC   C1B52867   3.622   6.377   6.450
 7398POPC   C2B52868   3.632   6.409   6.750
 7398POPC   C3B52869   3.596   6.414   7.050
 7398POPC   C4B52870   3.669   6.377   7.350
 7399POPC   NC352871  36.078  16.759   5.550
 7399POPC   PO452872  36.142  16.709   5.850
 7399POPC   GL152873  36.119  16.758   6.150
 7399POPC   GL252874  36.112  16.881   6.150
 7399POPC   C1A52875  36.151  16.727   6.450
 7399POPC   D2A52876  36.105  16.775   6.750
 7399POPC   C3A52877  36.118  16.706   7.050
 7399POPC   C4A52878  36.122  16.766   7.350
 7399POPC   C1B52879  36.076  16.954   6.450
 7399POPC   C2B52880  36.099  16.976   6.750
 7399POPC   C3B52881  36.027  16.926   7.050
 7399POPC   C4B52882  36.113  16.990   7.350
 7400POPC   NC352883   6.598  16.715   5.550
 7400POPC   PO452884   6.628  16.723   5.850
 7400POPC   GL152885   6.640  16.745   6.150
 7400POPC   GL252886   6.703  16.790   6.150
 7400POPC   C1A52887   6.686  16.721   6.450
 7400POPC   D2A52888   6.627  16.707   6.750
 7400POPC   C3A52889   6.630  16.753   7.050
 7400POPC   C4A52890   6.599  16.732   7.350
 7400POPC   C1B52891   6.740  16.930   6.450
 7400POPC   C2B52892   6.773  16.905   6.750
 7400POPC   C3B52893   6.813  16.900   7.050
 7400POPC   C4B52894   6.735  16.969   7.350
 7401POPC   NC352895  10.540  10.556   5.550
 7401POPC   PO452896  10.561  10.557   5.850
 7401POPC   GL152897  10.489  10.573   6.150
 7401POPC   GL252898  10.427  10.579   6.150
 7401POPC   C1A52899  10.501  10.547   6.450
 7401POPC   D2A52900  10.573  10.541   6.750
 7401POPC   C3A52901  10.487  10.523   7.050
 7401POPC   C4A52902  10.486  10.568   7.350
 7401POPC   C1B52903  10.363  10.728   6.450
 7401POPC   C2B52904  10.326  10.688   6.750
 7401POPC   C3B52905  10.400  10.682   7.050
 7401POPC   C4B52906  10.357  10.729   7.350
 7402POPC   NC352907  38.480  12.076   5.550
 7402POPC   PO452908  38.484  12.125   5.850
 7402POPC   GL152909  38.451  12.122   6.150
 7402POPC   GL252910  38.403  12.044   6.150
 7402POPC   C1A52911  38.473  12.038   6.450
 7402POPC   D2A52912  38.476  12.081   6.750
 7402POPC   C3A52913  38.452  12.125   7.050
 7402POPC   C4A52914  38.413  12.083   7.350
 7402POPC   C1B52915  38.213  11.941   6.450
 7402POPC   C2B52916  38.262  11.898   6.750
 7402POPC   C3B52917  38.279  11.895   7.050
 7402POPC   C4B52918  38.211  11.903   7.350
 7403POPC   NC352919  22.913   6.624   5.550
 7403POPC   PO452920  22.986   6.640   5.850
 7403POPC   GL152921  22.965   6.613   6.150
 7403POPC   GL252922  22.903   6.501   6.150
 7403POPC   C1A52923  22.907   6.688   6.450
 7403POPC   D2A52924  22.985   6.619   6.750
 7403POPC   C3A52925  22.969   6.625   7.050
 7403POPC   C4A52926  22.896   6.627   7.350
 7403POPC   C1B52927  22.935   6.365   6.450
 7403POPC   C2B52928  22.931   6.381   6.750
 7403POPC   C3B52929  22.886   6.387   7.050
 7403POPC   C4B52930  22.972   6.404   7.350
 7404POPC   NC352931  22.974  10.528   5.550
 7404POPC   PO452932  22.974  10.574   5.850
 7404POPC   GL152933  22.942  10.517   6.150
 7404POPC   GL252934  22.783  10.571   6.150
 7404POPC   C1A52935  22.955  10.518   6.450
 7404POPC   D2A52936  22.929  10.508   6.750
 7404POPC   C3A52937  22.899  10.531   7.050
 7404POPC   C4A52938  22.894  10.558   7.350
 7404POPC   C1B52939  22.686  10.575   6.450
 7404POPC   C2B52940  22.721  10.555   6.750
 7404POPC   C3B52941  22.731  10.534   7.050
 7404POPC   C4B52942  22.696  10.530   7.350
 7405POPC   NC352943   3.585   1.229   5.550
 7405POPC   PO452944   3.591   1.179   5.850
 7405POPC   GL152945   3.502   1.226   6.150
 7405POPC   GL252946   3.476   1.317   6.150
 7405POPC   C1A52947   3.511   1.164   6.450
 7405POPC   D2A52948   3.523   1.253   6.750
 7405POPC   C3A52949   3.498   1.202   7.050
 7405POPC   C4A52950   3.494   1.244   7.350
 7405POPC   C1B52951   3.401   1.439   6.450
 7405POPC   C2B52952   3.375   1.426   6.750
 7405POPC   C3B52953   3.337   1.396   7.050
 7405POPC   C4B52954   3.388   1.406   7.350
 7406POPC   NC352955   6.606  15.162   5.550
 7406POPC   PO452956   6.693  15.227   5.850
 7406POPC   GL152957   6.597  15.144   6.150
 7406POPC   GL252958   6.548  15.257   6.150
 7406POPC   C1A52959   6.634  15.144   6.450
 7406POPC   D2A52960   6.644  15.143   6.750
 7406POPC   C3A52961   6.658  15.148   7.050
 7406POPC   C4A52962   6.667  15.210   7.350
 7406POPC   C1B52963   6.456  15.240   6.450
 7406POPC   C2B52964   6.444  15.239   6.750
 7406POPC   C3B52965   6.371  15.293   7.050
 7406POPC   C4B52966   6.387  15.296   7.350
 7407POPC   NC352967  18.246  23.742   5.550
 7407POPC   PO452968  18.318  23.752   5.850
 7407POPC   GL152969  18.272  23.666   6.150
 7407POPC   GL252970  18.270  23.795   6.150
 7407POPC   C1A52971  18.298  23.760   6.450
 7407POPC   D2A52972  18.302  23.669   6.750
 7407POPC   C3A52973  18.256  23.709   7.050
 7407POPC   C4A52974  18.241  23.689   7.350
 7407POPC   C1B52975  18.184  23.943   6.450
 7407POPC   C2B52976  18.209  23.999   6.750
 7407POPC   C3B52977  18.168  23.993   7.050
 7407POPC   C4B52978  18.203  23.910   7.350
 7408POPC   NC352979  10.497  31.459   5.550
 7408POPC   PO452980  10.529  31.425   5.850
 7408POPC   GL152981  10.548  31.516   6.150
 7408POPC   GL252982  10.615  31.389   6.150
 7408POPC   C1A52983  10.484  31.453   6.450
 7408POPC   D2A52984  10.525  31.449   6.750
 7408POPC   C3A52985  10.535  31.497   7.050
 7408POPC   C4A52986  10.559  31.505   7.350
 7408POPC   C1B52987  10.700  31.277   6.450
 7408POPC   C2B52988  10.726  31.305   6.750
 7408POPC   C3B52989  10.674  31.314   7.050
 7408POPC   C4B52990  10.713  31.335   7.350
 7409POPC   NC352991  11.348  39.258   5.550
 7409POPC   PO452992  11.265  39.204   5.850
 7409POPC   GL152993  11.324  39.259   6.150
 7409POPC   GL252994  11.318  39.341   6.150
 7409POPC   C1A52995  11.255  39.230   6.450
 7409POPC   D2A52996  11.342  39.249   6.750
 7409POPC   C3A52997  11.281  39.210   7.050
 7409POPC   C4A52998  11.348  39.184   7.350
 7409POPC   C1B52999  11.336  39.451   6.450
 7409POPC   C2B53000  11.301  39.449   6.750
 7409POPC   C3B53001  11.334  39.452   7.050
 7409POPC   C4B53002  11.373  39.476   7.350
 7410POPC   NC353003  16.715  19.085   5.550
 7410POPC   PO453004  16.700  19.035   5.850
 7410POPC   GL153005  16.714  19.040   6.150
 7410POPC   GL253006  16.813  18.963   6.150
 7410POPC   C1A53007  16.771  19.093   6.450
 7410POPC   D2A53008  16.683  19.021   6.750
 7410POPC   C3A53009  16.692  19.046   7.050
 7410POPC   C4A53010  16.697  19.051   7.350
 7410POPC   C1B53011  16.821  18.790   6.450
 7410POPC   C2B53012  16.848  18.859   6.750
 7410POPC   C3B53013  16.768  18.778   7.050
 7410POPC   C4B53014  16.816  18.809   7.350
 7411POPC   NC353015  20.618  36.928   5.550
 7411POPC   PO453016  20.567  36.881   5.850
 7411POPC   GL153017  20.565  36.947   6.150
 7411POPC   GL253018  20.624  36.991   6.150
 7411POPC   C1A53019  20.628  36.890   6.450
 7411POPC   D2A53020  20.621  36.871   6.750
 7411POPC   C3A53021  20.564  36.915   7.050
 7411POPC   C4A53022  20.580  36.867   7.350
 7411POPC   C1B53023  20.612  37.124   6.450
 7411POPC   C2B53024  20.664  37.158   6.750
 7411POPC   C3B53025  20.627  37.122   7.050
 7411POPC   C4B53026  20.618  37.106   7.350
 7412POPC   NC353027  21.357   5.079   5.550
 7412POPC   PO453028  21.424   5.131   5.850
 7412POPC   GL153029  21.414   5.109   6.150
 7412POPC   GL253030  21.424   5.254   6.150
 7412POPC   C1A53031  21.410   5.059   6.450
 7412POPC   D2A53032  21.359   5.095   6.750
 7412POPC   C3A53033  21.357   5.112   7.050
 7412POPC   C4A53034  21.389   5.057   7.350
 7412POPC   C1B53035  21.327   5.358   6.450
 7412POPC   C2B53036  21.359   5.351   6.750
 7412POPC   C3B53037  21.322   5.389   7.050
 7412POPC   C4B53038  21.416   5.340   7.350
 7413POPC   NC353039  19.803  29.103   5.550
 7413POPC   PO453040  19.850  29.164   5.850
 7413POPC   GL153041  19.798  29.124   6.150
 7413POPC   GL253042  19.850  29.274   6.150
 7413POPC   C1A53043  19.807  29.162   6.450
 7413POPC   D2A53044  19.800  29.190   6.750
 7413POPC   C3A53045  19.883  29.174   7.050
 7413POPC   C4A53046  19.821  29.124   7.350
 7413POPC   C1B53047  19.740  29.410   6.450
 7413POPC   C2B53048  19.827  29.379   6.750
 7413POPC   C3B53049  19.781  29.435   7.050
 7413POPC   C4B53050  19.807  29.376   7.350
 7414POPC   NC353051  40.771  32.243   5.550
 7414POPC   PO453052  40.778  32.234   5.850
 7414POPC   GL153053  40.774  32.265   6.150
 7414POPC   GL253054  40.956  32.220   6.150
 7414POPC   C1A53055  40.826  32.277   6.450
 7414POPC   D2A53056  40.809  32.260   6.750
 7414POPC   C3A53057  40.812  32.269   7.050
 7414POPC   C4A53058  40.819  32.215   7.350
 7414POPC   C1B53059  41.026  32.241   6.450
 7414POPC   C2B53060  41.049  32.211   6.750
 7414POPC   C3B53061  41.043  32.216   7.050
 7414POPC   C4B53062  41.025  32.181   7.350
 7415POPC   NC353063  17.502   5.111   5.550
 7415POPC   PO453064  17.462   5.143   5.850
 7415POPC   GL153065  17.500   5.107   6.150
 7415POPC   GL253066  17.598   5.082   6.150
 7415POPC   C1A53067  17.537   5.049   6.450
 7415POPC   D2A53068  17.556   5.075   6.750
 7415POPC   C3A53069  17.476   5.089   7.050
 7415POPC   C4A53070  17.526   5.091   7.350
 7415POPC   C1B53071  17.771   5.115   6.450
 7415POPC   C2B53072  17.793   5.155   6.750
 7415POPC   C3B53073  17.769   5.143   7.050
 7415POPC   C4B53074  17.724   5.165   7.350
 7416POPC   NC353075  34.547   6.641   5.550
 7416POPC   PO453076  34.578   6.671   5.850
 7416POPC   GL153077  34.582   6.600   6.150
 7416POPC   GL253078  34.468   6.631   6.150
 7416POPC   C1A53079  34.552   6.662   6.450
 7416POPC   D2A53080  34.568   6.651   6.750
 7416POPC   C3A53081  34.608   6.668   7.050
 7416POPC   C4A53082  34.568   6.690   7.350
 7416POPC   C1B53083  34.326   6.654   6.450
 7416POPC   C2B53084  34.332   6.634   6.750
 7416POPC   C3B53085  34.369   6.630   7.050
 7416POPC   C4B53086  34.314   6.630   7.350
 7417POPC   NC353087  37.640  33.831   5.550
 7417POPC   PO453088  37.724  33.840   5.850
 7417POPC   GL153089  37.719  33.791   6.150
 7417POPC   GL253090  37.556  33.843   6.150
 7417POPC   C1A53091  37.706  33.782   6.450
 7417POPC   D2A53092  37.694  33.771   6.750
 7417POPC   C3A53093  37.662  33.847   7.050
 7417POPC   C4A53094  37.716  33.834   7.350
 7417POPC   C1B53095  37.474  33.901   6.450
 7417POPC   C2B53096  37.465  33.835   6.750
 7417POPC   C3B53097  37.459  33.858   7.050
 7417POPC   C4B53098  37.437  33.854   7.350
 7418POPC   NC353099  12.111  26.824   5.550
 7418POPC   PO453100  12.121  26.776   5.850
 7418POPC   GL153101  12.040  26.847   6.150
 7418POPC   GL253102  11.940  26.698   6.150
 7418POPC   C1A53103  12.074  26.792   6.450
 7418POPC   D2A53104  12.036  26.837   6.750
 7418POPC   C3A53105  12.066  26.839   7.050
 7418POPC   C4A53106  12.124  26.825   7.350
 7418POPC   C1B53107  11.882  26.683   6.450
 7418POPC   C2B53108  11.894  26.615   6.750
 7418POPC   C3B53109  11.891  26.688   7.050
 7418POPC   C4B53110  11.871  26.650   7.350
 7419POPC   NC353111  18.285   8.217   5.550
 7419POPC   PO453112  18.233   8.203   5.850
 7419POPC   GL153113  18.314   8.148   6.150
 7419POPC   GL253114  18.339   8.057   6.150
 7419POPC   C1A53115  18.244   8.195   6.450
 7419POPC   D2A53116  18.316   8.154   6.750
 7419POPC   C3A53117  18.280   8.227   7.050
 7419POPC   C4A53118  18.236   8.189   7.350
 7419POPC   C1B53119  18.348   7.990   6.450
 7419POPC   C2B53120  18.334   7.965   6.750
 7419POPC   C3B53121  18.334   8.005   7.050
 7419POPC   C4B53122  18.403   7.992   7.350
 7420POPC   NC353123  26.806  26.844   5.550
 7420POPC   PO453124  26.810  26.793   5.850
 7420POPC   GL153125  26.797  26.861   6.150
 7420POPC   GL253126  26.877  26.723   6.150
 7420POPC   C1A53127  26.772  26.785   6.450
 7420POPC   D2A53128  26.866  26.829   6.750
 7420POPC   C3A53129  26.776  26.782   7.050
 7420POPC   C4A53130  26.808  26.806   7.350
 7420POPC   C1B53131  26.910  26.623   6.450
 7420POPC   C2B53132  26.922  26.637   6.750
 7420POPC   C3B53133  26.931  26.572   7.050
 7420POPC   C4B53134  26.914  26.582   7.350
 7421POPC   NC353135  17.510  14.385   5.550
 7421POPC   PO453136  17.518  14.403   5.850
 7421POPC   GL153137  17.535  14.428   6.150
 7421POPC   GL253138  17.381  14.410   6.150
 7421POPC   C1A53139  17.493  14.444   6.450
 7421POPC   D2A53140  17.481  14.406   6.750
 7421POPC   C3A53141  17.533  14.384   7.050
 7421POPC   C4A53142  17.476  14.438   7.350
 7421POPC   C1B53143  17.298  14.459   6.450
 7421POPC   C2B53144  17.274  14.467   6.750
 7421POPC   C3B53145  17.286  14.458   7.050
 7421POPC   C4B53146  17.290  14.427   7.350
 7422POPC   NC353147  15.138  31.500   5.550
 7422POPC   PO453148  15.136  31.502   5.850
 7422POPC   GL153149  15.170  31.461   6.150
 7422POPC   GL253150  15.099  31.377   6.150
 7422POPC   C1A53151  15.222  31.505   6.450
 7422POPC   D2A53152  15.201  31.468   6.750
 7422POPC   C3A53153  15.177  31.522   7.050
 7422POPC   C4A53154  15.162  31.440   7.350
 7422POPC   C1B53155  14.967  31.314   6.450
 7422POPC   C2B53156  14.982  31.346   6.750
 7422POPC   C3B53157  14.979  31.374   7.050
 7422POPC   C4B53158  14.924  31.404   7.350
 7423POPC   NC353159  39.206  21.371   5.550
 7423POPC   PO453160  39.238  21.339   5.850
 7423POPC   GL153161  39.230  21.419   6.150
 7423POPC   GL253162  39.196  21.480   6.150
 7423POPC   C1A53163  39.214  21.349   6.450
 7423POPC   D2A53164  39.259  21.397   6.750
 7423POPC   C3A53165  39.277  21.369   7.050
 7423POPC   C4A53166  39.224  21.344   7.350
 7423POPC   C1B53167  39.096  21.587   6.450
 7423POPC   C2B53168  39.031  21.624   6.750
 7423POPC   C3B53169  39.117  21.596   7.050
 7423POPC   C4B53170  39.047  21.593   7.350
 7424POPC   NC353171   5.861  11.303   5.550
 7424POPC   PO453172   5.909  11.285   5.850
 7424POPC   GL153173   5.831  11.336   6.150
 7424POPC   GL253174   5.761  11.333   6.150
 7424POPC   C1A53175   5.847  11.276   6.450
 7424POPC   D2A53176   5.857  11.250   6.750
 7424POPC   C3A53177   5.825  11.293   7.050
 7424POPC   C4A53178   5.883  11.281   7.350
 7424POPC   C1B53179   5.602  11.438   6.450
 7424POPC   C2B53180   5.612  11.362   6.750
 7424POPC   C3B53181   5.693  11.428   7.050
 7424POPC   C4B53182   5.685  11.377   7.350
 7425POPC   NC353183  32.211  39.185   5.550
 7425POPC   PO453184  32.297  39.232   5.850
 7425POPC   GL153185  32.228  39.218   6.150
 7425POPC   GL253186  32.369  39.322   6.150
 7425POPC   C1A53187  32.249  39.260   6.450
 7425POPC   D2A53188  32.260  39.194   6.750
 7425POPC   C3A53189  32.199  39.254   7.050
 7425POPC   C4A53190  32.246  39.200   7.350
 7425POPC   C1B53191  32.410  39.417   6.450
 7425POPC   C2B53192  32.439  39.360   6.750
 7425POPC   C3B53193  32.435  39.375   7.050
 7425POPC   C4B53194  32.419  39.364   7.350
 7426POPC   NC353195  15.963  31.432   5.550
 7426POPC   PO453196  15.969  31.485   5.850
 7426POPC   GL153197  15.948  31.472   6.150
 7426POPC   GL253198  16.093  31.517   6.150
 7426POPC   C1A53199  15.988  31.448   6.450
 7426POPC   D2A53200  15.999  31.490   6.750
 7426POPC   C3A53201  15.941  31.438   7.050
 7426POPC   C4A53202  15.949  31.475   7.350
 7426POPC   C1B53203  16.169  31.573   6.450
 7426POPC   C2B53204  16.189  31.578   6.750
 7426POPC   C3B53205  16.182  31.651   7.050
 7426POPC   C4B53206  16.164  31.566   7.350
 7427POPC   NC353207  21.428  26.838   5.550
 7427POPC   PO453208  21.336  26.815   5.850
 7427POPC   GL153209  21.360  26.816   6.150
 7427POPC   GL253210  21.318  26.715   6.150
 7427POPC   C1A53211  21.401  26.845   6.450
 7427POPC   D2A53212  21.390  26.839   6.750
 7427POPC   C3A53213  21.378  26.830   7.050
 7427POPC   C4A53214  21.379  26.813   7.350
 7427POPC   C1B53215  21.320  26.545   6.450
 7427POPC   C2B53216  21.285  26.627   6.750
 7427POPC   C3B53217  21.271  26.575   7.050
 7427POPC   C4B53218  21.324  26.634   7.350
 7428POPC   NC353219  33.030  31.509   5.550
 7428POPC   PO453220  33.039  31.449   5.850
 7428POPC   GL153221  33.039  31.427   6.150
 7428POPC   GL253222  32.939  31.422   6.150
 7428POPC   C1A53223  33.058  31.489   6.450
 7428POPC   D2A53224  32.991  31.503   6.750
 7428POPC   C3A53225  33.026  31.460   7.050
 7428POPC   C4A53226  33.004  31.427   7.350
 7428POPC   C1B53227  32.839  31.321   6.450
 7428POPC   C2B53228  32.796  31.286   6.750
 7428POPC   C3B53229  32.810  31.346   7.050
 7428POPC   C4B53230  32.870  31.282   7.350
 7429POPC   NC353231  19.034  36.121   5.550
 7429POPC   PO453232  19.043  36.157   5.850
 7429POPC   GL153233  19.037  36.097   6.150
 7429POPC   GL253234  18.985  35.984   6.150
 7429POPC   C1A53235  19.078  36.171   6.450
 7429POPC   D2A53236  19.034  36.117   6.750
 7429POPC   C3A53237  19.052  36.090   7.050
 7429POPC   C4A53238  19.091  36.160   7.350
 7429POPC   C1B53239  18.935  35.871   6.450
 7429POPC   C2B53240  18.943  35.944   6.750
 7429POPC   C3B53241  18.977  35.937   7.050
 7429POPC   C4B53242  18.965  35.863   7.350
 7430POPC   NC353243  33.829  17.526   5.550
 7430POPC   PO453244  33.796  17.459   5.850
 7430POPC   GL153245  33.783  17.461   6.150
 7430POPC   GL253246  33.838  17.638   6.150
 7430POPC   C1A53247  33.769  17.542   6.450
 7430POPC   D2A53248  33.776  17.506   6.750
 7430POPC   C3A53249  33.795  17.486   7.050
 7430POPC   C4A53250  33.795  17.553   7.350
 7430POPC   C1B53251  33.844  17.752   6.450
 7430POPC   C2B53252  33.805  17.751   6.750
 7430POPC   C3B53253  33.866  17.728   7.050
 7430POPC   C4B53254  33.876  17.783   7.350
 7431POPC   NC353255  36.174  33.804   5.550
 7431POPC   PO453256  36.129  33.767   5.850
 7431POPC   GL153257  36.147  33.811   6.150
 7431POPC   GL253258  36.016  33.837   6.150
 7431POPC   C1A53259  36.158  33.761   6.450
 7431POPC   D2A53260  36.159  33.798   6.750
 7431POPC   C3A53261  36.157  33.787   7.050
 7431POPC   C4A53262  36.120  33.818   7.350
 7431POPC   C1B53263  35.902  33.902   6.450
 7431POPC   C2B53264  35.848  33.831   6.750
 7431POPC   C3B53265  35.841  33.895   7.050
 7431POPC   C4B53266  35.847  33.811   7.350
 7432POPC   NC353267  29.878  26.818   5.550
 7432POPC   PO453268  29.926  26.849   5.850
 7432POPC   GL153269  29.880  26.809   6.150
 7432POPC   GL253270  29.781  26.874   6.150
 7432POPC   C1A53271  29.903  26.833   6.450
 7432POPC   D2A53272  29.891  26.849   6.750
 7432POPC   C3A53273  29.885  26.789   7.050
 7432POPC   C4A53274  29.905  26.807   7.350
 7432POPC   C1B53275  29.712  26.912   6.450
 7432POPC   C2B53276  29.689  26.862   6.750
 7432POPC   C3B53277  29.714  26.864   7.050
 7432POPC   C4B53278  29.674  26.939   7.350
 7433POPC   NC353279   4.287  33.755   5.550
 7433POPC   PO453280   4.361  33.845   5.850
 7433POPC   GL153281   4.294  33.840   6.150
 7433POPC   GL253282   4.251  33.913   6.150
 7433POPC   C1A53283   4.344  33.770   6.450
 7433POPC   D2A53284   4.300  33.790   6.750
 7433POPC   C3A53285   4.289  33.778   7.050
 7433POPC   C4A53286   4.285  33.784   7.350
 7433POPC   C1B53287   4.181  34.024   6.450
 7433POPC   C2B53288   4.230  34.058   6.750
 7433POPC   C3B53289   4.207  34.039   7.050
 7433POPC   C4B53290   4.143  34.029   7.350
 7434POPC   NC353291   6.685  44.692   5.550
 7434POPC   PO453292   6.681  44.647   5.850
 7434POPC   GL153293   6.666  44.649   6.150
 7434POPC   GL253294   6.610  44.756   6.150
 7434POPC   C1A53295   6.676  44.642   6.450
 7434POPC   D2A53296   6.659  44.696   6.750
 7434POPC   C3A53297   6.641  44.645   7.050
 7434POPC   C4A53298   6.688  44.662   7.350
 7434POPC   C1B53299   6.516  44.840   6.450
 7434POPC   C2B53300   6.485  44.892   6.750
 7434POPC   C3B53301   6.518  44.918   7.050
 7434POPC   C4B53302   6.493  44.845   7.350
 7435POPC   NC353303   5.142  21.380   5.550
 7435POPC   PO453304   5.134  21.373   5.850
 7435POPC   GL153305   5.140  21.375   6.150
 7435POPC   GL253306   5.187  21.405   6.150
 7435POPC   C1A53307   5.057  21.402   6.450
 7435POPC   D2A53308   5.124  21.351   6.750
 7435POPC   C3A53309   5.091  21.410   7.050
 7435POPC   C4A53310   5.120  21.369   7.350
 7435POPC   C1B53311   5.307  21.511   6.450
 7435POPC   C2B53312   5.273  21.528   6.750
 7435POPC   C3B53313   5.327  21.514   7.050
 7435POPC   C4B53314   5.295  21.531   7.350
 7436POPC   NC353315  10.552  27.639   5.550
 7436POPC   PO453316  10.554  27.640   5.850
 7436POPC   GL153317  10.525  27.577   6.150
 7436POPC   GL253318  10.569  27.695   6.150
 7436POPC   C1A53319  10.562  27.625   6.450
 7436POPC   D2A53320  10.527  27.573   6.750
 7436POPC   C3A53321  10.489  27.584   7.050
 7436POPC   C4A53322  10.486  27.601   7.350
 7436POPC   C1B53323  10.722  27.759   6.450
 7436POPC   C2B53324  10.708  27.749   6.750
 7436POPC   C3B53325  10.718  27.812   7.050
 7436POPC   C4B53326  10.661  27.838   7.350
 7437POPC   NC353327  26.812  18.315   5.550
 7437POPC   PO453328  26.849  18.244   5.850
 7437POPC   GL153329  26.790  18.236   6.150
 7437POPC   GL253330  26.852  18.178   6.150
 7437POPC   C1A53331  26.781  18.286   6.450
 7437POPC   D2A53332  26.790  18.260   6.750
 7437POPC   C3A53333  26.788  18.308   7.050
 7437POPC   C4A53334  26.806  18.245   7.350
 7437POPC   C1B53335  26.906  18.038   6.450
 7437POPC   C2B53336  26.897  18.057   6.750
 7437POPC   C3B53337  26.853  18.024   7.050
 7437POPC   C4B53338  26.889  18.082   7.350
 7438POPC   NC353339  41.516  33.778   5.550
 7438POPC   PO453340  41.596  33.840   5.850
 7438POPC   GL153341  41.538  33.766   6.150
 7438POPC   GL253342  41.517  33.704   6.150
 7438POPC   C1A53343  41.596  33.788   6.450
 7438POPC   D2A53344  41.514  33.799   6.750
 7438POPC   C3A53345  41.529  33.824   7.050
 7438POPC   C4A53346  41.512  33.798   7.350
 7438POPC   C1B53347  41.492  33.522   6.450
 7438POPC   C2B53348  41.520  33.546   6.750
 7438POPC   C3B53349  41.513  33.572   7.050
 7438POPC   C4B53350  41.480  33.525   7.350
 7439POPC   NC353351  12.841   4.310   5.550
 7439POPC   PO453352  12.839   4.288   5.850
 7439POPC   GL153353  12.820   4.339   6.150
 7439POPC   GL253354  12.748   4.217   6.150
 7439POPC   C1A53355  12.810   4.358   6.450
 7439POPC   D2A53356  12.847   4.300   6.750
 7439POPC   C3A53357  12.811   4.288   7.050
 7439POPC   C4A53358  12.887   4.288   7.350
 7439POPC   C1B53359  12.614   4.182   6.450
 7439POPC   C2B53360  12.594   4.223   6.750
 7439POPC   C3B53361  12.607   4.225   7.050
 7439POPC   C4B53362  12.581   4.222   7.350
 7440POPC   NC353363  34.567  22.181   5.550
 7440POPC   PO453364  34.625  22.173   5.850
 7440POPC   GL153365  34.555  22.167   6.150
 7440POPC   GL253366  34.632  22.040   6.150
 7440POPC   C1A53367  34.624  22.130   6.450
 7440POPC   D2A53368  34.575  22.168   6.750
 7440POPC   C3A53369  34.543  22.172   7.050
 7440POPC   C4A53370  34.554  22.177   7.350
 7440POPC   C1B53371  34.738  21.910   6.450
 7440POPC   C2B53372  34.743  21.978   6.750
 7440POPC   C3B53373  34.717  21.964   7.050
 7440POPC   C4B53374  34.724  21.960   7.350
 7441POPC   NC353375  31.495  17.556   5.550
 7441POPC   PO453376  31.476  17.505   5.850
 7441POPC   GL153377  31.441  17.498   6.150
 7441POPC   GL253378  31.361  17.541   6.150
 7441POPC   C1A53379  31.439  17.533   6.450
 7441POPC   D2A53380  31.499  17.484   6.750
 7441POPC   C3A53381  31.424  17.519   7.050
 7441POPC   C4A53382  31.482  17.466   7.350
 7441POPC   C1B53383  31.230  17.512   6.450
 7441POPC   C2B53384  31.183  17.535   6.750
 7441POPC   C3B53385  31.234  17.538   7.050
 7441POPC   C4B53386  31.213  17.515   7.350
 7442POPC   NC353387  43.862  18.257   5.550
 7442POPC   PO453388  43.879  18.324   5.850
 7442POPC   GL153389  43.837  18.290   6.150
 7442POPC   GL253390  43.768  18.382   6.150
 7442POPC   C1A53391  43.900  18.284   6.450
 7442POPC   D2A53392  43.845  18.299   6.750
 7442POPC   C3A53393  43.838  18.327   7.050
 7442POPC   C4A53394  43.891  18.266   7.350
 7442POPC   C1B53395  43.720  18.440   6.450
 7442POPC   C2B53396  43.682  18.477   6.750
 7442POPC   C3B53397  43.681  18.444   7.050
 7442POPC   C4B53398  43.736  18.480   7.350
 7443POPC   NC353399  34.594  29.100   5.550
 7443POPC   PO453400  34.598  29.134   5.850
 7443POPC   GL153401  34.596  29.127   6.150
 7443POPC   GL253402  34.636  29.275   6.150
 7443POPC   C1A53403  34.531  29.174   6.450
 7443POPC   D2A53404  34.621  29.133   6.750
 7443POPC   C3A53405  34.600  29.178   7.050
 7443POPC   C4A53406  34.616  29.150   7.350
 7443POPC   C1B53407  34.657  29.371   6.450
 7443POPC   C2B53408  34.586  29.347   6.750
 7443POPC   C3B53409  34.648  29.394   7.050
 7443POPC   C4B53410  34.619  29.408   7.350
 7444POPC   NC353411   1.165  17.515   5.550
 7444POPC   PO453412   1.209  17.523   5.850
 7444POPC   GL153413   1.189  17.478   6.150
 7444POPC   GL253414   1.070  17.520   6.150
 7444POPC   C1A53415   1.216  17.488   6.450
 7444POPC   D2A53416   1.180  17.483   6.750
 7444POPC   C3A53417   1.206  17.482   7.050
 7444POPC   C4A53418   1.173  17.474   7.350
 7444POPC   C1B53419   0.931  17.473   6.450
 7444POPC   C2B53420   0.933  17.427   6.750
 7444POPC   C3B53421   1.008  17.472   7.050
 7444POPC   C4B53422   0.957  17.443   7.350
 7445POPC   NC353423  43.126  39.274   5.550
 7445POPC   PO453424  43.156  39.275   5.850
 7445POPC   GL153425  43.095  39.198   6.150
 7445POPC   GL253426  42.976  39.289   6.150
 7445POPC   C1A53427  43.100  39.243   6.450
 7445POPC   D2A53428  43.084  39.214   6.750
 7445POPC   C3A53429  43.156  39.189   7.050
 7445POPC   C4A53430  43.103  39.254   7.350
 7445POPC   C1B53431  42.833  39.313   6.450
 7445POPC   C2B53432  42.923  39.351   6.750
 7445POPC   C3B53433  42.892  39.331   7.050
 7445POPC   C4B53434  42.867  39.374   7.350
 7446POPC   NC353435  42.336   8.988   5.550
 7446POPC   PO453436  42.327   8.956   5.850
 7446POPC   GL153437  42.355   8.980   6.150
 7446POPC   GL253438  42.399   9.055   6.150
 7446POPC   C1A53439  42.372   8.961   6.450
 7446POPC   D2A53440  42.333   9.011   6.750
 7446POPC   C3A53441  42.307   8.960   7.050
 7446POPC   C4A53442  42.382   8.958   7.350
 7446POPC   C1B53443  42.515   9.179   6.450
 7446POPC   C2B53444  42.547   9.132   6.750
 7446POPC   C3B53445  42.547   9.184   7.050
 7446POPC   C4B53446  42.537   9.194   7.350
 7447POPC   NC353447  32.263   9.751   5.550
 7447POPC   PO453448  32.260   9.723   5.850
 7447POPC   GL153449  32.218   9.743   6.150
 7447POPC   GL253450  32.136   9.828   6.150
 7447POPC   C1A53451  32.209   9.764   6.450
 7447POPC   D2A53452  32.256   9.716   6.750
 7447POPC   C3A53453  32.285   9.771   7.050
 7447POPC   C4A53454  32.235   9.774   7.350
 7447POPC   C1B53455  32.099   9.931   6.450
 7447POPC   C2B53456  32.066   9.938   6.750
 7447POPC   C3B53457  32.058   9.949   7.050
 7447POPC   C4B53458  32.115   9.931   7.350
 7448POPC   NC353459   6.612  14.429   5.550
 7448POPC   PO453460   6.661  14.356   5.850
 7448POPC   GL153461   6.695  14.390   6.150
 7448POPC   GL253462   6.748  14.514   6.150
 7448POPC   C1A53463   6.673  14.410   6.450
 7448POPC   D2A53464   6.672  14.449   6.750
 7448POPC   C3A53465   6.631  14.361   7.050
 7448POPC   C4A53466   6.641  14.387   7.350
 7448POPC   C1B53467   6.833  14.559   6.450
 7448POPC   C2B53468   6.837  14.529   6.750
 7448POPC   C3B53469   6.815  14.550   7.050
 7448POPC   C4B53470   6.822  14.551   7.350
 7449POPC   NC353471  25.241  10.570   5.550
 7449POPC   PO453472  25.227  10.506   5.850
 7449POPC   GL153473  25.244  10.537   6.150
 7449POPC   GL253474  25.300  10.602   6.150
 7449POPC   C1A53475  25.293  10.554   6.450
 7449POPC   D2A53476  25.288  10.570   6.750
 7449POPC   C3A53477  25.230  10.493   7.050
 7449POPC   C4A53478  25.260  10.510   7.350
 7449POPC   C1B53479  25.445  10.715   6.450
 7449POPC   C2B53480  25.359  10.734   6.750
 7449POPC   C3B53481  25.399  10.684   7.050
 7449POPC   C4B53482  25.372  10.764   7.350
 7450POPC   NC353483  26.060  31.471   5.550
 7450POPC   PO453484  26.008  31.516   5.850
 7450POPC   GL153485  26.081  31.506   6.150
 7450POPC   GL253486  25.941  31.515   6.150
 7450POPC   C1A53487  26.044  31.436   6.450
 7450POPC   D2A53488  26.089  31.473   6.750
 7450POPC   C3A53489  26.058  31.442   7.050
 7450POPC   C4A53490  26.077  31.451   7.350
 7450POPC   C1B53491  25.817  31.604   6.450
 7450POPC   C2B53492  25.792  31.599   6.750
 7450POPC   C3B53493  25.826  31.636   7.050
 7450POPC   C4B53494  25.850  31.593   7.350
 7451POPC   NC353495  36.153  10.548   5.550
 7451POPC   PO453496  36.171  10.545   5.850
 7451POPC   GL153497  36.134  10.485   6.150
 7451POPC   GL253498  36.118  10.603   6.150
 7451POPC   C1A53499  36.087  10.540   6.450
 7451POPC   D2A53500  36.162  10.542   6.750
 7451POPC   C3A53501  36.101  10.500   7.050
 7451POPC   C4A53502  36.100  10.549   7.350
 7451POPC   C1B53503  36.140  10.733   6.450
 7451POPC   C2B53504  36.170  10.751   6.750
 7451POPC   C3B53505  36.164  10.819   7.050
 7451POPC   C4B53506  36.157  10.737   7.350
 7452POPC   NC353507  42.322  11.338   5.550
 7452POPC   PO453508  42.334  11.327   5.850
 7452POPC   GL153509  42.294  11.308   6.150
 7452POPC   GL253510  42.266  11.205   6.150
 7452POPC   C1A53511  42.319  11.264   6.450
 7452POPC   D2A53512  42.340  11.328   6.750
 7452POPC   C3A53513  42.304  11.317   7.050
 7452POPC   C4A53514  42.292  11.339   7.350
 7452POPC   C1B53515  42.156  11.176   6.450
 7452POPC   C2B53516  42.159  11.191   6.750
 7452POPC   C3B53517  42.103  11.119   7.050
 7452POPC   C4B53518  42.153  11.211   7.350
 7453POPC   NC353519  40.016  35.361   5.550
 7453POPC   PO453520  39.961  35.378   5.850
 7453POPC   GL153521  40.055  35.317   6.150
 7453POPC   GL253522  39.912  35.334   6.150
 7453POPC   C1A53523  40.023  35.305   6.450
 7453POPC   D2A53524  40.022  35.372   6.750
 7453POPC   C3A53525  40.033  35.324   7.050
 7453POPC   C4A53526  40.044  35.343   7.350
 7453POPC   C1B53527  39.763  35.281   6.450
 7453POPC   C2B53528  39.724  35.373   6.750
 7453POPC   C3B53529  39.755  35.356   7.050
 7453POPC   C4B53530  39.713  35.327   7.350
 7454POPC   NC353531  19.100  19.081   5.550
 7454POPC   PO453532  19.091  19.084   5.850
 7454POPC   GL153533  19.090  19.034   6.150
 7454POPC   GL253534  19.200  19.178   6.150
 7454POPC   C1A53535  19.061  19.038   6.450
 7454POPC   D2A53536  19.069  19.082   6.750
 7454POPC   C3A53537  19.030  19.064   7.050
 7454POPC   C4A53538  19.049  19.017   7.350
 7454POPC   C1B53539  19.297  19.171   6.450
 7454POPC   C2B53540  19.273  19.192   6.750
 7454POPC   C3B53541  19.246  19.237   7.050
 7454POPC   C4B53542  19.242  19.259   7.350
 7455POPC   NC353543  20.605  22.967   5.550
 7455POPC   PO453544  20.658  22.928   5.850
 7455POPC   GL153545  20.575  22.986   6.150
 7455POPC   GL253546  20.708  22.947   6.150
 7455POPC   C1A53547  20.584  22.933   6.450
 7455POPC   D2A53548  20.571  22.914   6.750
 7455POPC   C3A53549  20.578  22.941   7.050
 7455POPC   C4A53550  20.576  22.954   7.350
 7455POPC   C1B53551  20.863  22.929   6.450
 7455POPC   C2B53552  20.868  22.849   6.750
 7455POPC   C3B53553  20.890  22.924   7.050
 7455POPC   C4B53554  20.852  22.881   7.350
 7456POPC   NC353555  40.748  34.602   5.550
 7456POPC   PO453556  40.768  34.606   5.850
 7456POPC   GL153557  40.770  34.580   6.150
 7456POPC   GL253558  40.905  34.622   6.150
 7456POPC   C1A53559  40.737  34.572   6.450
 7456POPC   D2A53560  40.801  34.599   6.750
 7456POPC   C3A53561  40.769  34.604   7.050
 7456POPC   C4A53562  40.788  34.597   7.350
 7456POPC   C1B53563  41.021  34.674   6.450
 7456POPC   C2B53564  41.024  34.651   6.750
 7456POPC   C3B53565  41.056  34.718   7.050
 7456POPC   C4B53566  40.997  34.673   7.350
 7457POPC   NC353567  16.736   5.832   5.550
 7457POPC   PO453568  16.735   5.831   5.850
 7457POPC   GL153569  16.702   5.857   6.150
 7457POPC   GL253570  16.764   5.957   6.150
 7457POPC   C1A53571  16.741   5.906   6.450
 7457POPC   D2A53572  16.723   5.825   6.750
 7457POPC   C3A53573  16.701   5.886   7.050
 7457POPC   C4A53574  16.754   5.859   7.350
 7457POPC   C1B53575  16.655   6.164   6.450
 7457POPC   C2B53576  16.696   6.149   6.750
 7457POPC   C3B53577  16.737   6.159   7.050
 7457POPC   C4B53578  16.743   6.153   7.350
 7458POPC   NC353579  41.573  42.343   5.550
 7458POPC   PO453580  41.563  42.293   5.850
 7458POPC   GL153581  41.600  42.363   6.150
 7458POPC   GL253582  41.589  42.428   6.150
 7458POPC   C1A53583  41.566  42.286   6.450
 7458POPC   D2A53584  41.570  42.325   6.750
 7458POPC   C3A53585  41.565  42.352   7.050
 7458POPC   C4A53586  41.566  42.319   7.350
 7458POPC   C1B53587  41.610  42.526   6.450
 7458POPC   C2B53588  41.638  42.555   6.750
 7458POPC   C3B53589  41.641  42.524   7.050
 7458POPC   C4B53590  41.636  42.597   7.350
 7459POPC   NC353591  37.681  32.283   5.550
 7459POPC   PO453592  37.687  32.230   5.850
 7459POPC   GL153593  37.645  32.270   6.150
 7459POPC   GL253594  37.821  32.313   6.150
 7459POPC   C1A53595  37.677  32.296   6.450
 7459POPC   D2A53596  37.678  32.253   6.750
 7459POPC   C3A53597  37.638  32.245   7.050
 7459POPC   C4A53598  37.694  32.267   7.350
 7459POPC   C1B53599  37.915  32.235   6.450
 7459POPC   C2B53600  37.970  32.231   6.750
 7459POPC   C3B53601  37.894  32.272   7.050
 7459POPC   C4B53602  37.907  32.280   7.350
 7460POPC   NC353603   5.044   6.660   5.550
 7460POPC   PO453604   5.127   6.651   5.850
 7460POPC   GL153605   5.046   6.632   6.150
 7460POPC   GL253606   4.972   6.737   6.150
 7460POPC   C1A53607   5.061   6.628   6.450
 7460POPC   D2A53608   5.112   6.607   6.750
 7460POPC   C3A53609   5.117   6.611   7.050
 7460POPC   C4A53610   5.071   6.680   7.350
 7460POPC   C1B53611   4.970   6.852   6.450
 7460POPC   C2B53612   4.910   6.863   6.750
 7460POPC   C3B53613   4.903   6.866   7.050
 7460POPC   C4B53614   4.916   6.830   7.350
 7461POPC   NC353615  30.713   7.408   5.550
 7461POPC   PO453616  30.666   7.392   5.850
 7461POPC   GL153617  30.708   7.412   6.150
 7461POPC   GL253618  30.677   7.262   6.150
 7461POPC   C1A53619  30.652   7.374   6.450
 7461POPC   D2A53620  30.653   7.435   6.750
 7461POPC   C3A53621  30.685   7.396   7.050
 7461POPC   C4A53622  30.710   7.438   7.350
 7461POPC   C1B53623  30.650   7.188   6.450
 7461POPC   C2B53624  30.640   7.230   6.750
 7461POPC   C3B53625  30.644   7.140   7.050
 7461POPC   C4B53626  30.584   7.178   7.350
 7462POPC   NC353627  43.914  13.604   5.550
 7462POPC   PO453628  43.862  13.658   5.850
 7462POPC   GL153629  43.860  13.587   6.150
 7462POPC   GL253630  43.924  13.516   6.150
 7462POPC   C1A53631  43.873  13.647   6.450
 7462POPC   D2A53632  43.895  13.663   6.750
 7462POPC   C3A53633  43.837  13.670   7.050
 7462POPC   C4A53634  43.933  13.588   7.350
 7462POPC   C1B53635  43.970  13.411   6.450
 7462POPC   C2B53636  44.032  13.350   6.750
 7462POPC   C3B53637  43.944  13.395   7.050
 7462POPC   C4B53638  43.954  13.358   7.350
 7463POPC   NC353639  20.589  13.594   5.550
 7463POPC   PO453640  20.616  13.659   5.850
 7463POPC   GL153641  20.590  13.659   6.150
 7463POPC   GL253642  20.474  13.676   6.150
 7463POPC   C1A53643  20.629  13.625   6.450
 7463POPC   D2A53644  20.564  13.663   6.750
 7463POPC   C3A53645  20.645  13.631   7.050
 7463POPC   C4A53646  20.660  13.673   7.350
 7463POPC   C1B53647  20.416  13.758   6.450
 7463POPC   C2B53648  20.423  13.772   6.750
 7463POPC   C3B53649  20.395  13.740   7.050
 7463POPC   C4B53650  20.380  13.707   7.350
 7464POPC   NC353651  14.364  13.663   5.550
 7464POPC   PO453652  14.439  13.596   5.850
 7464POPC   GL153653  14.432  13.634   6.150
 7464POPC   GL253654  14.499  13.650   6.150
 7464POPC   C1A53655  14.422  13.587   6.450
 7464POPC   D2A53656  14.431  13.603   6.750
 7464POPC   C3A53657  14.447  13.670   7.050
 7464POPC   C4A53658  14.414  13.602   7.350
 7464POPC   C1B53659  14.611  13.780   6.450
 7464POPC   C2B53660  14.655  13.710   6.750
 7464POPC   C3B53661  14.653  13.778   7.050
 7464POPC   C4B53662  14.630  13.739   7.350
 7465POPC   NC353663  29.935  25.218   5.550
 7465POPC   PO453664  29.923  25.294   5.850
 7465POPC   GL153665  29.955  25.300   6.150
 7465POPC   GL253666  29.924  25.351   6.150
 7465POPC   C1A53667  29.903  25.306   6.450
 7465POPC   D2A53668  29.946  25.241   6.750
 7465POPC   C3A53669  29.971  25.280   7.050
 7465POPC   C4A53670  29.945  25.233   7.350
 7465POPC   C1B53671  29.947  25.545   6.450
 7465POPC   C2B53672  29.916  25.472   6.750
 7465POPC   C3B53673  29.931  25.526   7.050
 7465POPC   C4B53674  29.940  25.561   7.350
 7466POPC   NC353675  27.587  18.291   5.550
 7466POPC   PO453676  27.585  18.295   5.850
 7466POPC   GL153677  27.548  18.283   6.150
 7466POPC   GL253678  27.503  18.183   6.150
 7466POPC   C1A53679  27.637  18.235   6.450
 7466POPC   D2A53680  27.640  18.292   6.750
 7466POPC   C3A53681  27.557  18.320   7.050
 7466POPC   C4A53682  27.618  18.283   7.350
 7466POPC   C1B53683  27.542  18.057   6.450
 7466POPC   C2B53684  27.516  18.016   6.750
 7466POPC   C3B53685  27.518  18.025   7.050
 7466POPC   C4B53686  27.475  18.095   7.350
 7467POPC   NC353687  29.925  22.191   5.550
 7467POPC   PO453688  29.872  22.113   5.850
 7467POPC   GL153689  29.877  22.190   6.150
 7467POPC   GL253690  29.914  22.097   6.150
 7467POPC   C1A53691  29.896  22.191   6.450
 7467POPC   D2A53692  29.945  22.209   6.750
 7467POPC   C3A53693  29.966  22.126   7.050
 7467POPC   C4A53694  29.877  22.114   7.350
 7467POPC   C1B53695  29.845  21.899   6.450
 7467POPC   C2B53696  29.770  21.934   6.750
 7467POPC   C3B53697  29.828  21.914   7.050
 7467POPC   C4B53698  29.845  21.918   7.350
 7468POPC   NC353699  40.039  12.125   5.550
 7468POPC   PO453700  40.011  12.063   5.850
 7468POPC   GL153701  40.008  12.084   6.150
 7468POPC   GL253702  39.882  11.959   6.150
 7468POPC   C1A53703  39.967  12.040   6.450
 7468POPC   D2A53704  39.970  12.112   6.750
 7468POPC   C3A53705  39.974  12.053   7.050
 7468POPC   C4A53706  39.972  12.126   7.350
 7468POPC   C1B53707  39.804  11.930   6.450
 7468POPC   C2B53708  39.855  11.909   6.750
 7468POPC   C3B53709  39.835  11.937   7.050
 7468POPC   C4B53710  39.830  11.936   7.350
 7469POPC   NC353711   5.131  39.276   5.550
 7469POPC   PO453712   5.134  39.220   5.850
 7469POPC   GL153713   5.106  39.248   6.150
 7469POPC   GL253714   4.996  39.139   6.150
 7469POPC   C1A53715   5.055  39.203   6.450
 7469POPC   D2A53716   5.071  39.257   6.750
 7469POPC   C3A53717   5.048  39.203   7.050
 7469POPC   C4A53718   5.115  39.207   7.350
 7469POPC   C1B53719   4.969  39.039   6.450
 7469POPC   C2B53720   4.905  39.066   6.750
 7469POPC   C3B53721   4.882  39.074   7.050
 7469POPC   C4B53722   4.943  38.999   7.350
 7470POPC   NC353723  33.060  29.159   5.550
 7470POPC   PO453724  33.002  29.167   5.850
 7470POPC   GL153725  33.029  29.095   6.150
 7470POPC   GL253726  32.944  29.046   6.150
 7470POPC   C1A53727  32.994  29.110   6.450
 7470POPC   D2A53728  32.999  29.114   6.750
 7470POPC   C3A53729  32.986  29.104   7.050
 7470POPC   C4A53730  33.054  29.127   7.350
 7470POPC   C1B53731  32.894  28.964   6.450
 7470POPC   C2B53732  32.909  28.938   6.750
 7470POPC   C3B53733  32.882  28.872   7.050
 7470POPC   C4B53734  32.904  28.918   7.350
 7471POPC   NC353735  14.440  40.004   5.550
 7471POPC   PO453736  14.447  40.034   5.850
 7471POPC   GL153737  14.442  40.047   6.150
 7471POPC   GL253738  14.442  40.069   6.150
 7471POPC   C1A53739  14.365  40.000   6.450
 7471POPC   D2A53740  14.446  39.999   6.750
 7471POPC   C3A53741  14.431  39.969   7.050
 7471POPC   C4A53742  14.380  40.046   7.350
 7471POPC   C1B53743  14.550  40.149   6.450
 7471POPC   C2B53744  14.587  40.224   6.750
 7471POPC   C3B53745  14.565  40.224   7.050
 7471POPC   C4B53746  14.558  40.217   7.350
 7472POPC   NC353747  39.183  14.409   5.550
 7472POPC   PO453748  39.238  14.443   5.850
 7472POPC   GL153749  39.223  14.448   6.150
 7472POPC   GL253750  39.305  14.396   6.150
 7472POPC   C1A53751  39.193  14.375   6.450
 7472POPC   D2A53752  39.207  14.395   6.750
 7472POPC   C3A53753  39.215  14.364   7.050
 7472POPC   C4A53754  39.254  14.437   7.350
 7472POPC   C1B53755  39.441  14.392   6.450
 7472POPC   C2B53756  39.529  14.453   6.750
 7472POPC   C3B53757  39.527  14.461   7.050
 7472POPC   C4B53758  39.462  14.424   7.350
 7473POPC   NC353759  19.787  41.509   5.550
 7473POPC   PO453760  19.798  41.521   5.850
 7473POPC   GL153761  19.833  41.551   6.150
 7473POPC   GL253762  19.839  41.478   6.150
 7473POPC   C1A53763  19.877  41.541   6.450
 7473POPC   D2A53764  19.853  41.607   6.750
 7473POPC   C3A53765  19.875  41.528   7.050
 7473POPC   C4A53766  19.876  41.510   7.350
 7473POPC   C1B53767  19.837  41.279   6.450
 7473POPC   C2B53768  19.889  41.363   6.750
 7473POPC   C3B53769  19.872  41.321   7.050
 7473POPC   C4B53770  19.900  41.284   7.350
 7474POPC   NC353771   8.983  36.867   5.550
 7474POPC   PO453772   8.931  36.890   5.850
 7474POPC   GL153773   8.959  36.869   6.150
 7474POPC   GL253774   9.002  36.737   6.150
 7474POPC   C1A53775   9.001  36.912   6.450
 7474POPC   D2A53776   8.944  36.897   6.750
 7474POPC   C3A53777   8.965  36.897   7.050
 7474POPC   C4A53778   8.955  36.858   7.350
 7474POPC   C1B53779   9.072  36.664   6.450
 7474POPC   C2B53780   9.096  36.709   6.750
 7474POPC   C3B53781   9.012  36.675   7.050
 7474POPC   C4B53782   9.060  36.674   7.350
 7475POPC   NC353783   2.761  12.093   5.550
 7475POPC   PO453784   2.776  12.041   5.850
 7475POPC   GL153785   2.729  12.043   6.150
 7475POPC   GL253786   2.772  12.232   6.150
 7475POPC   C1A53787   2.811  12.085   6.450
 7475POPC   D2A53788   2.810  12.030   6.750
 7475POPC   C3A53789   2.748  12.037   7.050
 7475POPC   C4A53790   2.806  12.081   7.350
 7475POPC   C1B53791   2.700  12.348   6.450
 7475POPC   C2B53792   2.707  12.281   6.750
 7475POPC   C3B53793   2.702  12.279   7.050
 7475POPC   C4B53794   2.706  12.371   7.350
 7476POPC   NC353795   1.252  44.689   5.550
 7476POPC   PO453796   1.170  44.623   5.850
 7476POPC   GL153797   1.247  44.647   6.150
 7476POPC   GL253798   1.152  44.567   6.150
 7476POPC   C1A53799   1.200  44.638   6.450
 7476POPC   D2A53800   1.228  44.650   6.750
 7476POPC   C3A53801   1.236  44.662   7.050
 7476POPC   C4A53802   1.169  44.709   7.350
 7476POPC   C1B53803   1.149  44.444   6.450
 7476POPC   C2B53804   1.128  44.406   6.750
 7476POPC   C3B53805   1.193  44.455   7.050
 7476POPC   C4B53806   1.187  44.402   7.350
 7477POPC   NC353807  18.238  29.916   5.550
 7477POPC   PO453808  18.262  29.957   5.850
 7477POPC   GL153809  18.259  29.930   6.150
 7477POPC   GL253810  18.378  29.974   6.150
 7477POPC   C1A53811  18.246  29.958   6.450
 7477POPC   D2A53812  18.268  29.906   6.750
 7477POPC   C3A53813  18.276  29.894   7.050
 7477POPC   C4A53814  18.326  29.908   7.350
 7477POPC   C1B53815  18.458  30.011   6.450
 7477POPC   C2B53816  18.529  30.055   6.750
 7477POPC   C3B53817  18.537  30.064   7.050
 7477POPC   C4B53818  18.502  30.032   7.350
 7478POPC   NC353819  20.613  41.549   5.550
 7478POPC   PO453820  20.644  41.579   5.850
 7478POPC   GL153821  20.613  41.553   6.150
 7478POPC   GL253822  20.689  41.497   6.150
 7478POPC   C1A53823  20.565  41.512   6.450
 7478POPC   D2A53824  20.652  41.562   6.750
 7478POPC   C3A53825  20.579  41.550   7.050
 7478POPC   C4A53826  20.620  41.510   7.350
 7478POPC   C1B53827  20.772  41.360   6.450
 7478POPC   C2B53828  20.850  41.360   6.750
 7478POPC   C3B53829  20.843  41.408   7.050
 7478POPC   C4B53830  20.791  41.373   7.350
 7479POPC   NC353831  27.585  11.269   5.550
 7479POPC   PO453832  27.560  11.275   5.850
 7479POPC   GL153833  27.570  11.283   6.150
 7479POPC   GL253834  27.488  11.268   6.150
 7479POPC   C1A53835  27.625  11.262   6.450
 7479POPC   D2A53836  27.582  11.331   6.750
 7479POPC   C3A53837  27.642  11.339   7.050
 7479POPC   C4A53838  27.601  11.328   7.350
 7479POPC   C1B53839  27.295  11.268   6.450
 7479POPC   C2B53840  27.324  11.301   6.750
 7479POPC   C3B53841  27.364  11.289   7.050
 7479POPC   C4B53842  27.335  11.293   7.350
 7480POPC   NC353843  40.735  14.432   5.550
 7480POPC   PO453844  40.747  14.416   5.850
 7480POPC   GL153845  40.819  14.415   6.150
 7480POPC   GL253846  40.627  14.362   6.150
 7480POPC   C1A53847  40.781  14.381   6.450
 7480POPC   D2A53848  40.803  14.405   6.750
 7480POPC   C3A53849  40.770  14.357   7.050
 7480POPC   C4A53850  40.748  14.395   7.350
 7480POPC   C1B53851  40.539  14.323   6.450
 7480POPC   C2B53852  40.588  14.366   6.750
 7480POPC   C3B53853  40.506  14.309   7.050
 7480POPC   C4B53854  40.543  14.337   7.350
 7481POPC   NC353855  37.692  19.072   5.550
 7481POPC   PO453856  37.711  19.100   5.850
 7481POPC   GL153857  37.723  19.038   6.150
 7481POPC   GL253858  37.765  19.176   6.150
 7481POPC   C1A53859  37.693  19.090   6.450
 7481POPC   D2A53860  37.711  19.108   6.750
 7481POPC   C3A53861  37.719  19.047   7.050
 7481POPC   C4A53862  37.672  19.026   7.350
 7481POPC   C1B53863  37.830  19.255   6.450
 7481POPC   C2B53864  37.894  19.245   6.750
 7481POPC   C3B53865  37.827  19.202   7.050
 7481POPC   C4B53866  37.843  19.243   7.350
 7482POPC   NC353867   9.016  39.959   5.550
 7482POPC   PO453868   8.957  39.988   5.850
 7482POPC   GL153869   8.980  40.040   6.150
 7482POPC   GL253870   8.929  39.871   6.150
 7482POPC   C1A53871   8.952  39.960   6.450
 7482POPC   D2A53872   8.961  39.973   6.750
 7482POPC   C3A53873   8.934  40.021   7.050
 7482POPC   C4A53874   8.972  40.036   7.350
 7482POPC   C1B53875   8.935  39.783   6.450
 7482POPC   C2B53876   8.947  39.754   6.750
 7482POPC   C3B53877   8.923  39.754   7.050
 7482POPC   C4B53878   8.926  39.748   7.350
 7483POPC   NC353879  37.691  31.505   5.550
 7483POPC   PO453880  37.646  31.500   5.850
 7483POPC   GL153881  37.654  31.463   6.150
 7483POPC   GL253882  37.729  31.588   6.150
 7483POPC   C1A53883  37.727  31.502   6.450
 7483POPC   D2A53884  37.679  31.471   6.750
 7483POPC   C3A53885  37.637  31.438   7.050
 7483POPC   C4A53886  37.661  31.470   7.350
 7483POPC   C1B53887  37.769  31.653   6.450
 7483POPC   C2B53888  37.819  31.670   6.750
 7483POPC   C3B53889  37.781  31.683   7.050
 7483POPC   C4B53890  37.761  31.705   7.350
 7484POPC   NC353891  12.078   2.025   5.550
 7484POPC   PO453892  12.053   2.014   5.850
 7484POPC   GL153893  12.109   1.982   6.150
 7484POPC   GL253894  12.033   2.093   6.150
 7484POPC   C1A53895  12.060   1.971   6.450
 7484POPC   D2A53896  12.098   1.951   6.750
 7484POPC   C3A53897  12.080   2.029   7.050
 7484POPC   C4A53898  12.049   1.997   7.350
 7484POPC   C1B53899  11.931   2.214   6.450
 7484POPC   C2B53900  11.932   2.194   6.750
 7484POPC   C3B53901  11.916   2.162   7.050
 7484POPC   C4B53902  11.942   2.182   7.350
 7485POPC   NC353903  22.198  24.506   5.550
 7485POPC   PO453904  22.133  24.516   5.850
 7485POPC   GL153905  22.156  24.518   6.150
 7485POPC   GL253906  22.087  24.408   6.150
 7485POPC   C1A53907  22.180  24.535   6.450
 7485POPC   D2A53908  22.198  24.493   6.750
 7485POPC   C3A53909  22.124  24.449   7.050
 7485POPC   C4A53910  22.203  24.440   7.350
 7485POPC   C1B53911  21.969  24.392   6.450
 7485POPC   C2B53912  21.947  24.382   6.750
 7485POPC   C3B53913  21.902  24.339   7.050
 7485POPC   C4B53914  21.949  24.377   7.350
 7486POPC   NC353915  27.607   4.312   5.550
 7486POPC   PO453916  27.567   4.357   5.850
 7486POPC   GL153917  27.631   4.308   6.150
 7486POPC   GL253918  27.663   4.236   6.150
 7486POPC   C1A53919  27.548   4.316   6.450
 7486POPC   D2A53920  27.558   4.312   6.750
 7486POPC   C3A53921  27.628   4.273   7.050
 7486POPC   C4A53922  27.596   4.275   7.350
 7486POPC   C1B53923  27.765   4.113   6.450
 7486POPC   C2B53924  27.775   4.134   6.750
 7486POPC   C3B53925  27.762   4.079   7.050
 7486POPC   C4B53926  27.728   4.092   7.350
 7487POPC   NC353927  12.082   7.440   5.550
 7487POPC   PO453928  12.108   7.442   5.850
 7487POPC   GL153929  12.031   7.411   6.150
 7487POPC   GL253930  11.943   7.345   6.150
 7487POPC   C1A53931  12.097   7.432   6.450
 7487POPC   D2A53932  12.122   7.399   6.750
 7487POPC   C3A53933  12.075   7.446   7.050
 7487POPC   C4A53934  12.061   7.417   7.350
 7487POPC   C1B53935  11.869   7.303   6.450
 7487POPC   C2B53936  11.834   7.324   6.750
 7487POPC   C3B53937  11.885   7.365   7.050
 7487POPC   C4B53938  11.805   7.285   7.350
 7488POPC   NC353939   8.982  39.203   5.550
 7488POPC   PO453940   8.940  39.258   5.850
 7488POPC   GL153941   8.991  39.276   6.150
 7488POPC   GL253942   9.050  39.349   6.150
 7488POPC   C1A53943   8.946  39.185   6.450
 7488POPC   D2A53944   8.959  39.249   6.750
 7488POPC   C3A53945   8.989  39.195   7.050
 7488POPC   C4A53946   8.992  39.245   7.350
 7488POPC   C1B53947   9.106  39.494   6.450
 7488POPC   C2B53948   9.058  39.504   6.750
 7488POPC   C3B53949   9.103  39.419   7.050
 7488POPC   C4B53950   9.068  39.493   7.350
 7489POPC   NC353951  12.896  39.966   5.550
 7489POPC   PO453952  12.864  39.988   5.850
 7489POPC   GL153953  12.866  40.015   6.150
 7489POPC   GL253954  12.823  40.109   6.150
 7489POPC   C1A53955  12.810  40.006   6.450
 7489POPC   D2A53956  12.896  39.980   6.750
 7489POPC   C3A53957  12.811  40.010   7.050
 7489POPC   C4A53958  12.872  40.000   7.350
 7489POPC   C1B53959  12.746  40.254   6.450
 7489POPC   C2B53960  12.695  40.239   6.750
 7489POPC   C3B53961  12.696  40.216   7.050
 7489POPC   C4B53962  12.657  40.224   7.350
 7490POPC   NC353963  18.257  31.500   5.550
 7490POPC   PO453964  18.291  31.473   5.850
 7490POPC   GL153965  18.269  31.486   6.150
 7490POPC   GL253966  18.208  31.554   6.150
 7490POPC   C1A53967  18.271  31.520   6.450
 7490POPC   D2A53968  18.256  31.487   6.750
 7490POPC   C3A53969  18.261  31.503   7.050
 7490POPC   C4A53970  18.236  31.474   7.350
 7490POPC   C1B53971  18.062  31.651   6.450
 7490POPC   C2B53972  18.110  31.657   6.750
 7490POPC   C3B53973  18.081  31.615   7.050
 7490POPC   C4B53974  18.126  31.682   7.350
 7491POPC   NC353975  14.379  17.524   5.550
 7491POPC   PO453976  14.415  17.513   5.850
 7491POPC   GL153977  14.381  17.457   6.150
 7491POPC   GL253978  14.297  17.390   6.150
 7491POPC   C1A53979  14.421  17.501   6.450
 7491POPC   D2A53980  14.393  17.528   6.750
 7491POPC   C3A53981  14.407  17.518   7.050
 7491POPC   C4A53982  14.441  17.536   7.350
 7491POPC   C1B53983  14.263  17.284   6.450
 7491POPC   C2B53984  14.243  17.299   6.750
 7491POPC   C3B53985  14.215  17.353   7.050
 7491POPC   C4B53986  14.226  17.316   7.350
 7492POPC   NC353987  19.041  20.562   5.550
 7492POPC   PO453988  19.054  20.656   5.850
 7492POPC   GL153989  19.040  20.598   6.150
 7492POPC   GL253990  18.920  20.655   6.150
 7492POPC   C1A53991  19.108  20.647   6.450
 7492POPC   D2A53992  19.035  20.563   6.750
 7492POPC   C3A53993  19.084  20.573   7.050
 7492POPC   C4A53994  19.030  20.616   7.350
 7492POPC   C1B53995  18.799  20.751   6.450
 7492POPC   C2B53996  18.804  20.746   6.750
 7492POPC   C3B53997  18.816  20.680   7.050
 7492POPC   C4B53998  18.821  20.746   7.350
 7493POPC   NC353999  35.317   3.577   5.550
 7493POPC   PO454000  35.378   3.497   5.850
 7493POPC   GL154001  35.398   3.540   6.150
 7493POPC   GL254002  35.224   3.539   6.150
 7493POPC   C1A54003  35.328   3.577   6.450
 7493POPC   D2A54004  35.393   3.539   6.750
 7493POPC   C3A54005  35.385   3.537   7.050
 7493POPC   C4A54006  35.380   3.515   7.350
 7493POPC   C1B54007  35.146   3.510   6.450
 7493POPC   C2B54008  35.148   3.590   6.750
 7493POPC   C3B54009  35.096   3.524   7.050
 7493POPC   C4B54010  35.106   3.521   7.350
 7494POPC   NC354011  43.861   2.773   5.550
 7494POPC   PO454012  43.873   2.738   5.850
 7494POPC   GL154013  43.842   2.744   6.150
 7494POPC   GL254014  43.914   2.651   6.150
 7494POPC   C1A54015  43.888   2.757   6.450
 7494POPC   D2A54016  43.922   2.726   6.750
 7494POPC   C3A54017  43.894   2.803   7.050
 7494POPC   C4A54018  43.856   2.777   7.350
 7494POPC   C1B54019  43.938   2.556   6.450
 7494POPC   C2B54020  43.977   2.487   6.750
 7494POPC   C3B54021  43.939   2.481   7.050
 7494POPC   C4B54022  44.007   2.577   7.350
 7495POPC   NC354023  16.709  15.933   5.550
 7495POPC   PO454024  16.763  15.911   5.850
 7495POPC   GL154025  16.745  15.915   6.150
 7495POPC   GL254026  16.675  16.105   6.150
 7495POPC   C1A54027  16.781  16.001   6.450
 7495POPC   D2A54028  16.739  15.936   6.750
 7495POPC   C3A54029  16.735  15.987   7.050
 7495POPC   C4A54030  16.775  15.950   7.350
 7495POPC   C1B54031  16.661  16.135   6.450
 7495POPC   C2B54032  16.598  16.189   6.750
 7495POPC   C3B54033  16.589  16.215   7.050
 7495POPC   C4B54034  16.585  16.175   7.350
 7496POPC   NC354035  17.517  10.498   5.550
 7496POPC   PO454036  17.473  10.544   5.850
 7496POPC   GL154037  17.509  10.546   6.150
 7496POPC   GL254038  17.423  10.459   6.150
 7496POPC   C1A54039  17.462  10.556   6.450
 7496POPC   D2A54040  17.536  10.512   6.750
 7496POPC   C3A54041  17.458  10.571   7.050
 7496POPC   C4A54042  17.468  10.490   7.350
 7496POPC   C1B54043  17.330  10.367   6.450
 7496POPC   C2B54044  17.341  10.354   6.750
 7496POPC   C3B54045  17.345  10.329   7.050
 7496POPC   C4B54046  17.280  10.404   7.350
 7497POPC   NC354047   3.577  40.781   5.550
 7497POPC   PO454048   3.508  40.797   5.850
 7497POPC   GL154049   3.547  40.825   6.150
 7497POPC   GL254050   3.437  40.793   6.150
 7497POPC   C1A54051   3.538  40.813   6.450
 7497POPC   D2A54052   3.585  40.806   6.750
 7497POPC   C3A54053   3.544  40.812   7.050
 7497POPC   C4A54054   3.502  40.818   7.350
 7497POPC   C1B54055   3.271  40.832   6.450
 7497POPC   C2B54056   3.301  40.795   6.750
 7497POPC   C3B54057   3.327  40.778   7.050
 7497POPC   C4B54058   3.325  40.816   7.350
 7498POPC   NC354059  26.792  16.703   5.550
 7498POPC   PO454060  26.778  16.694   5.850
 7498POPC   GL154061  26.787  16.715   6.150
 7498POPC   GL254062  26.757  16.883   6.150
 7498POPC   C1A54063  26.863  16.701   6.450
 7498POPC   D2A54064  26.860  16.768   6.750
 7498POPC   C3A54065  26.842  16.729   7.050
 7498POPC   C4A54066  26.827  16.772   7.350
 7498POPC   C1B54067  26.769  17.006   6.450
 7498POPC   C2B54068  26.742  16.926   6.750
 7498POPC   C3B54069  26.748  17.003   7.050
 7498POPC   C4B54070  26.736  17.004   7.350
 7499POPC   NC354071  22.940  21.341   5.550
 7499POPC   PO454072  22.930  21.359   5.850
 7499POPC   GL154073  22.974  21.406   6.150
 7499POPC   GL254074  22.871  21.307   6.150
 7499POPC   C1A54075  22.986  21.341   6.450
 7499POPC   D2A54076  22.985  21.355   6.750
 7499POPC   C3A54077  22.926  21.389   7.050
 7499POPC   C4A54078  22.966  21.370   7.350
 7499POPC   C1B54079  22.764  21.217   6.450
 7499POPC   C2B54080  22.745  21.148   6.750
 7499POPC   C3B54081  22.742  21.144   7.050
 7499POPC   C4B54082  22.836  21.173   7.350
 7500POPC   NC354083  32.228  36.119   5.550
 7500POPC   PO454084  32.257  36.109   5.850
 7500POPC   GL154085  32.245  36.146   6.150
 7500POPC   GL254086  32.368  36.126   6.150
 7500POPC   C1A54087  32.224  36.145   6.450
 7500POPC   D2A54088  32.286  36.098   6.750
 7500POPC   C3A54089  32.281  36.152   7.050
 7500POPC   C4A54090  32.226  36.137   7.350
 7500POPC   C1B54091  32.483  36.145   6.450
 7500POPC   C2B54092  32.449  36.113   6.750
 7500POPC   C3B54093  32.501  36.184   7.050
 7500POPC   C4B54094  32.493  36.187   7.350
 7501POPC   NC354095  12.838  33.831   5.550
 7501POPC   PO454096  12.853  33.816   5.850
 7501POPC   GL154097  12.895  33.849   6.150
 7501POPC   GL254098  12.834  33.682   6.150
 7501POPC   C1A54099  12.831  33.781   6.450
 7501POPC   D2A54100  12.862  33.843   6.750
 7501POPC   C3A54101  12.808  33.758   7.050
 7501POPC   C4A54102  12.893  33.824   7.350
 7501POPC   C1B54103  12.820  33.535   6.450
 7501POPC   C2B54104  12.729  33.596   6.750
 7501POPC   C3B54105  12.774  33.555   7.050
 7501POPC   C4B54106  12.817  33.564   7.350
 7502POPC   NC354107   5.881  14.418   5.550
 7502POPC   PO454108   5.823  14.435   5.850
 7502POPC   GL154109   5.843  14.403   6.150
 7502POPC   GL254110   5.796  14.514   6.150
 7502POPC   C1A54111   5.911  14.363   6.450
 7502POPC   D2A54112   5.876  14.359   6.750
 7502POPC   C3A54113   5.887  14.363   7.050
 7502POPC   C4A54114   5.833  14.450   7.350
 7502POPC   C1B54115   5.643  14.575   6.450
 7502POPC   C2B54116   5.649  14.530   6.750
 7502POPC   C3B54117   5.698  14.535   7.050
 7502POPC   C4B54118   5.713  14.543   7.350
 7503POPC   NC354119  13.601  36.941   5.550
 7503POPC   PO454120  13.670  36.936   5.850
 7503POPC   GL154121  13.620  36.941   6.150
 7503POPC   GL254122  13.523  36.996   6.150
 7503POPC   C1A54123  13.592  36.865   6.450
 7503POPC   D2A54124  13.613  36.902   6.750
 7503POPC   C3A54125  13.629  36.877   7.050
 7503POPC   C4A54126  13.629  36.949   7.350
 7503POPC   C1B54127  13.396  37.019   6.450
 7503POPC   C2B54128  13.395  37.052   6.750
 7503POPC   C3B54129  13.437  37.023   7.050
 7503POPC   C4B54130  13.387  36.995   7.350
 7504POPC   NC354131  25.290   2.804   5.550
 7504POPC   PO454132  25.295   2.759   5.850
 7504POPC   GL154133  25.288   2.718   6.150
 7504POPC   GL254134  25.243   2.866   6.150
 7504POPC   C1A54135  25.295   2.727   6.450
 7504POPC   D2A54136  25.259   2.741   6.750
 7504POPC   C3A54137  25.276   2.743   7.050
 7504POPC   C4A54138  25.244   2.771   7.350
 7504POPC   C1B54139  25.292   3.028   6.450
 7504POPC   C2B54140  25.259   2.977   6.750
 7504POPC   C3B54141  25.276   3.033   7.050
 7504POPC   C4B54142  25.284   2.986   7.350
 7505POPC   NC354143  29.923  32.270   5.550
 7505POPC   PO454144  29.878  32.212   5.850
 7505POPC   GL154145  29.926  32.247   6.150
 7505POPC   GL254146  29.790  32.219   6.150
 7505POPC   C1A54147  29.906  32.238   6.450
 7505POPC   D2A54148  29.919  32.231   6.750
 7505POPC   C3A54149  29.873  32.275   7.050
 7505POPC   C4A54150  29.882  32.202   7.350
 7505POPC   C1B54151  29.695  32.234   6.450
 7505POPC   C2B54152  29.665  32.251   6.750
 7505POPC   C3B54153  29.669  32.204   7.050
 7505POPC   C4B54154  29.678  32.243   7.350
 7506POPC   NC354155  32.213  31.497   5.550
 7506POPC   PO454156  32.244  31.480   5.850
 7506POPC   GL154157  32.211  31.482   6.150
 7506POPC   GL254158  32.371  31.566   6.150
 7506POPC   C1A54159  32.280  31.424   6.450
 7506POPC   D2A54160  32.252  31.519   6.750
 7506POPC   C3A54161  32.256  31.459   7.050
 7506POPC   C4A54162  32.269  31.465   7.350
 7506POPC   C1B54163  32.449  31.652   6.450
 7506POPC   C2B54164  32.419  31.659   6.750
 7506POPC   C3B54165  32.403  31.676   7.050
 7506POPC   C4B54166  32.441  31.629   7.350
 7507POPC   NC354167  12.085  40.776   5.550
 7507POPC   PO454168  12.062  40.825   5.850
 7507POPC   GL154169  12.068  40.741   6.150
 7507POPC   GL254170  12.096  40.665   6.150
 7507POPC   C1A54171  12.048  40.734   6.450
 7507POPC   D2A54172  12.070  40.773   6.750
 7507POPC   C3A54173  12.057  40.758   7.050
 7507POPC   C4A54174  12.091  40.753   7.350
 7507POPC   C1B54175  12.037  40.574   6.450
 7507POPC   C2B54176  12.099  40.559   6.750
 7507POPC   C3B54177  12.070  40.530   7.050
 7507POPC   C4B54178  12.061  40.505   7.350
 7508POPC   NC354179  13.655  11.324   5.550
 7508POPC   PO454180  13.675  11.275   5.850
 7508POPC   GL154181  13.583  11.337   6.150
 7508POPC   GL254182  13.734  11.316   6.150
 7508POPC   C1A54183  13.669  11.254   6.450
 7508POPC   D2A54184  13.615  11.284   6.750
 7508POPC   C3A54185  13.655  11.348   7.050
 7508POPC   C4A54186  13.593  11.315   7.350
 7508POPC   C1B54187  13.865  11.266   6.450
 7508POPC   C2B54188  13.859  11.228   6.750
 7508POPC   C3B54189  13.915  11.231   7.050
 7508POPC   C4B54190  13.847  11.257   7.350
 7509POPC   NC354191  25.286  39.995   5.550
 7509POPC   PO454192  25.257  40.040   5.850
 7509POPC   GL154193  25.237  39.994   6.150
 7509POPC   GL254194  25.147  40.035   6.150
 7509POPC   C1A54195  25.279  39.971   6.450
 7509POPC   D2A54196  25.303  39.961   6.750
 7509POPC   C3A54197  25.281  40.046   7.050
 7509POPC   C4A54198  25.220  39.986   7.350
 7509POPC   C1B54199  25.030  40.122   6.450
 7509POPC   C2B54200  25.040  40.094   6.750
 7509POPC   C3B54201  25.059  40.167   7.050
 7509POPC   C4B54202  25.101  40.097   7.350
 7510POPC   NC354203  22.186   3.565   5.550
 7510POPC   PO454204  22.191   3.583   5.850
 7510POPC   GL154205  22.130   3.517   6.150
 7510POPC   GL254206  22.179   3.636   6.150
 7510POPC   C1A54207  22.210   3.580   6.450
 7510POPC   D2A54208  22.170   3.562   6.750
 7510POPC   C3A54209  22.162   3.535   7.050
 7510POPC   C4A54210  22.172   3.560   7.350
 7510POPC   C1B54211  22.134   3.840   6.450
 7510POPC   C2B54212  22.188   3.747   6.750
 7510POPC   C3B54213  22.178   3.782   7.050
 7510POPC   C4B54214  22.198   3.803   7.350
 7511POPC   NC354215  26.014   5.821   5.550
 7511POPC   PO454216  26.064   5.828   5.850
 7511POPC   GL154217  26.082   5.823   6.150
 7511POPC   GL254218  26.027   5.743   6.150
 7511POPC   C1A54219  26.066   5.904   6.450
 7511POPC   D2A54220  26.037   5.839   6.750
 7511POPC   C3A54221  26.074   5.850   7.050
 7511POPC   C4A54222  26.053   5.912   7.350
 7511POPC   C1B54223  26.110   5.614   6.450
 7511POPC   C2B54224  26.040   5.651   6.750
 7511POPC   C3B54225  26.023   5.617   7.050
 7511POPC   C4B54226  26.030   5.597   7.350
 7512POPC   NC354227  36.901  35.317   5.550
 7512POPC   PO454228  36.931  35.340   5.850
 7512POPC   GL154229  36.948  35.387   6.150
 7512POPC   GL254230  36.759  35.387   6.150
 7512POPC   C1A54231  36.865  35.365   6.450
 7512POPC   D2A54232  36.885  35.356   6.750
 7512POPC   C3A54233  36.907  35.387   7.050
 7512POPC   C4A54234  36.932  35.336   7.350
 7512POPC   C1B54235  36.634  35.328   6.450
 7512POPC   C2B54236  36.676  35.385   6.750
 7512POPC   C3B54237  36.631  35.407   7.050
 7512POPC   C4B54238  36.672  35.335   7.350
 7513POPC   NC354239   2.033  24.483   5.550
 7513POPC   PO454240   2.008  24.496   5.850
 7513POPC   GL154241   1.954  24.442   6.150
 7513POPC   GL254242   2.066  24.411   6.150
 7513POPC   C1A54243   1.941  24.471   6.450
 7513POPC   D2A54244   1.969  24.520   6.750
 7513POPC   C3A54245   1.978  24.476   7.050
 7513POPC   C4A54246   1.994  24.486   7.350
 7513POPC   C1B54247   2.146  24.272   6.450
 7513POPC   C2B54248   2.202  24.323   6.750
 7513POPC   C3B54249   2.183  24.305   7.050
 7513POPC   C4B54250   2.175  24.330   7.350
 7514POPC   NC354251  24.481  11.273   5.550
 7514POPC   PO454252  24.476  11.329   5.850
 7514POPC   GL154253  24.487  11.270   6.150
 7514POPC   GL254254  24.619  11.172   6.150
 7514POPC   C1A54255  24.524  11.308   6.450
 7514POPC   D2A54256  24.531  11.329   6.750
 7514POPC   C3A54257  24.519  11.252   7.050
 7514POPC   C4A54258  24.461  11.347   7.350
 7514POPC   C1B54259  24.665  11.146   6.450
 7514POPC   C2B54260  24.698  11.104   6.750
 7514POPC   C3B54261  24.670  11.182   7.050
 7514POPC   C4B54262  24.634  11.088   7.350
 7515POPC   NC354263  33.788  41.598   5.550
 7515POPC   PO454264  33.818  41.593   5.850
 7515POPC   GL154265  33.812  41.518   6.150
 7515POPC   GL254266  33.781  41.723   6.150
 7515POPC   C1A54267  33.829  41.570   6.450
 7515POPC   D2A54268  33.800  41.510   6.750
 7515POPC   C3A54269  33.764  41.595   7.050
 7515POPC   C4A54270  33.781  41.581   7.350
 7515POPC   C1B54271  33.845  41.771   6.450
 7515POPC   C2B54272  33.857  41.852   6.750
 7515POPC   C3B54273  33.886  41.758   7.050
 7515POPC   C4B54274  33.886  41.801   7.350
 7516POPC   NC354275  42.304  23.744   5.550
 7516POPC   PO454276  42.340  23.711   5.850
 7516POPC   GL154277  42.356  23.743   6.150
 7516POPC   GL254278  42.259  23.854   6.150
 7516POPC   C1A54279  42.299  23.696   6.450
 7516POPC   D2A54280  42.361  23.692   6.750
 7516POPC   C3A54281  42.316  23.754   7.050
 7516POPC   C4A54282  42.299  23.664   7.350
 7516POPC   C1B54283  42.215  23.956   6.450
 7516POPC   C2B54284  42.198  23.954   6.750
 7516POPC   C3B54285  42.159  23.928   7.050
 7516POPC   C4B54286  42.169  23.938   7.350
 7517POPC   NC354287  22.902  27.565   5.550
 7517POPC   PO454288  22.913  27.576   5.850
 7517POPC   GL154289  22.964  27.624   6.150
 7517POPC   GL254290  22.820  27.566   6.150
 7517POPC   C1A54291  22.933  27.631   6.450
 7517POPC   D2A54292  22.961  27.584   6.750
 7517POPC   C3A54293  22.943  27.588   7.050
 7517POPC   C4A54294  22.971  27.551   7.350
 7517POPC   C1B54295  22.685  27.500   6.450
 7517POPC   C2B54296  22.664  27.555   6.750
 7517POPC   C3B54297  22.650  27.561   7.050
 7517POPC   C4B54298  22.651  27.568   7.350
 7518POPC   NC354299  30.669  23.734   5.550
 7518POPC   PO454300  30.708  23.709   5.850
 7518POPC   GL154301  30.664  23.692   6.150
 7518POPC   GL254302  30.634  23.800   6.150
 7518POPC   C1A54303  30.677  23.714   6.450
 7518POPC   D2A54304  30.684  23.752   6.750
 7518POPC   C3A54305  30.686  23.751   7.050
 7518POPC   C4A54306  30.676  23.746   7.350
 7518POPC   C1B54307  30.508  23.934   6.450
 7518POPC   C2B54308  30.545  23.967   6.750
 7518POPC   C3B54309  30.512  23.871   7.050
 7518POPC   C4B54310  30.564  23.872   7.350
 7519POPC   NC354311  13.673  25.261   5.550
 7519POPC   PO454312  13.614  25.301   5.850
 7519POPC   GL154313  13.669  25.261   6.150
 7519POPC   GL254314  13.470  25.220   6.150
 7519POPC   C1A54315  13.586  25.235   6.450
 7519POPC   D2A54316  13.604  25.284   6.750
 7519POPC   C3A54317  13.600  25.238   7.050
 7519POPC   C4A54318  13.675  25.220   7.350
 7519POPC   C1B54319  13.410  25.213   6.450
 7519POPC   C2B54320  13.358  25.204   6.750
 7519POPC   C3B54321  13.426  25.196   7.050
 7519POPC   C4B54322  13.409  25.193   7.350
 7520POPC   NC354323   5.048   2.793   5.550
 7520POPC   PO454324   5.114   2.805   5.850
 7520POPC   GL154325   5.121   2.774   6.150
 7520POPC   GL254326   5.168   2.649   6.150
 7520POPC   C1A54327   5.106   2.736   6.450
 7520POPC   D2A54328   5.054   2.764   6.750
 7520POPC   C3A54329   5.072   2.815   7.050
 7520POPC   C4A54330   5.136   2.805   7.350
 7520POPC   C1B54331   5.158   2.541   6.450
 7520POPC   C2B54332   5.163   2.553   6.750
 7520POPC   C3B54333   5.213   2.557   7.050
 7520POPC   C4B54334   5.161   2.503   7.350
 7521POPC   NC354335  12.867  28.407   5.550
 7521POPC   PO454336  12.802  28.343   5.850
 7521POPC   GL154337  12.818  28.404   6.150
 7521POPC   GL254338  13.006  28.390   6.150
 7521POPC   C1A54339  12.879  28.342   6.450
 7521POPC   D2A54340  12.823  28.350   6.750
 7521POPC   C3A54341  12.809  28.324   7.050
 7521POPC   C4A54342  12.876  28.368   7.350
 7521POPC   C1B54343  13.114  28.512   6.450
 7521POPC   C2B54344  13.029  28.445   6.750
 7521POPC   C3B54345  13.107  28.487   7.050
 7521POPC   C4B54346  13.059  28.492   7.350
 7522POPC   NC354347   5.059  20.606   5.550
 7522POPC   PO454348   5.116  20.657   5.850
 7522POPC   GL154349   5.113  20.649   6.150
 7522POPC   GL254350   5.166  20.487   6.150
 7522POPC   C1A54351   5.107  20.598   6.450
 7522POPC   D2A54352   5.072  20.640   6.750
 7522POPC   C3A54353   5.074  20.646   7.050
 7522POPC   C4A54354   5.080  20.628   7.350
 7522POPC   C1B54355   5.254  20.461   6.450
 7522POPC   C2B54356   5.275  20.404   6.750
 7522POPC   C3B54357   5.273  20.499   7.050
 7522POPC   C4B54358   5.280  20.496   7.350
 7523POPC   NC354359  31.513  15.197   5.550
 7523POPC   PO454360  31.434  15.138   5.850
 7523POPC   GL154361  31.515  15.173   6.150
 7523POPC   GL254362  31.392  15.257   6.150
 7523POPC   C1A54363  31.448  15.187   6.450
 7523POPC   D2A54364  31.467  15.170   6.750
 7523POPC   C3A54365  31.444  15.189   7.050
 7523POPC   C4A54366  31.456  15.206   7.350
 7523POPC   C1B54367  31.353  15.415   6.450
 7523POPC   C2B54368  31.313  15.396   6.750
 7523POPC   C3B54369  31.404  15.437   7.050
 7523POPC   C4B54370  31.360  15.420   7.350
 7524POPC   NC354371  35.369  43.851   5.550
 7524POPC   PO454372  35.397  43.931   5.850
 7524POPC   GL154373  35.385  43.872   6.150
 7524POPC   GL254374  35.223  43.823   6.150
 7524POPC   C1A54375  35.368  43.918   6.450
 7524POPC   D2A54376  35.339  43.881   6.750
 7524POPC   C3A54377  35.378  43.885   7.050
 7524POPC   C4A54378  35.324  43.927   7.350
 7524POPC   C1B54379  35.203  43.757   6.450
 7524POPC   C2B54380  35.210  43.695   6.750
 7524POPC   C3B54381  35.183  43.734   7.050
 7524POPC   C4B54382  35.189  43.723   7.350
 7525POPC   NC354383  32.213  21.401   5.550
 7525POPC   PO454384  32.278  21.388   5.850
 7525POPC   GL154385  32.231  21.387   6.150
 7525POPC   GL254386  32.134  21.248   6.150
 7525POPC   C1A54387  32.226  21.402   6.450
 7525POPC   D2A54388  32.223  21.397   6.750
 7525POPC   C3A54389  32.243  21.417   7.050
 7525POPC   C4A54390  32.267  21.346   7.350
 7525POPC   C1B54391  32.070  21.188   6.450
 7525POPC   C2B54392  32.128  21.191   6.750
 7525POPC   C3B54393  32.077  21.219   7.050
 7525POPC   C4B54394  32.087  21.187   7.350
 7526POPC   NC354395  21.392   8.147   5.550
 7526POPC   PO454396  21.373   8.218   5.850
 7526POPC   GL154397  21.434   8.160   6.150
 7526POPC   GL254398  21.325   8.134   6.150
 7526POPC   C1A54399  21.386   8.200   6.450
 7526POPC   D2A54400  21.384   8.220   6.750
 7526POPC   C3A54401  21.379   8.186   7.050
 7526POPC   C4A54402  21.343   8.184   7.350
 7526POPC   C1B54403  21.278   7.977   6.450
 7526POPC   C2B54404  21.251   7.948   6.750
 7526POPC   C3B54405  21.254   7.978   7.050
 7526POPC   C4B54406  21.246   8.002   7.350
 7527POPC   NC354407  32.244  23.727   5.550
 7527POPC   PO454408  32.288  23.750   5.850
 7527POPC   GL154409  32.272  23.731   6.150
 7527POPC   GL254410  32.134  23.672   6.150
 7527POPC   C1A54411  32.247  23.678   6.450
 7527POPC   D2A54412  32.216  23.760   6.750
 7527POPC   C3A54413  32.239  23.669   7.050
 7527POPC   C4A54414  32.269  23.746   7.350
 7527POPC   C1B54415  31.954  23.688   6.450
 7527POPC   C2B54416  32.002  23.692   6.750
 7527POPC   C3B54417  31.996  23.691   7.050
 7527POPC   C4B54418  32.007  23.745   7.350
 7528POPC   NC354419  41.585   6.608   5.550
 7528POPC   PO454420  41.532   6.607   5.850
 7528POPC   GL154421  41.569   6.688   6.150
 7528POPC   GL254422  41.450   6.520   6.150
 7528POPC   C1A54423  41.550   6.692   6.450
 7528POPC   D2A54424  41.539   6.677   6.750
 7528POPC   C3A54425  41.580   6.628   7.050
 7528POPC   C4A54426  41.516   6.688   7.350
 7528POPC   C1B54427  41.356   6.521   6.450
 7528POPC   C2B54428  41.335   6.446   6.750
 7528POPC   C3B54429  41.321   6.478   7.050
 7528POPC   C4B54430  41.386   6.466   7.350
 7529POPC   NC354431  11.263  36.937   5.550
 7529POPC   PO454432  11.287  36.949   5.850
 7529POPC   GL154433  11.318  36.916   6.150
 7529POPC   GL254434  11.369  37.016   6.150
 7529POPC   C1A54435  11.327  36.895   6.450
 7529POPC   D2A54436  11.261  36.909   6.750
 7529POPC   C3A54437  11.335  36.861   7.050
 7529POPC   C4A54438  11.294  36.926   7.350
 7529POPC   C1B54439  11.426  37.083   6.450
 7529POPC   C2B54440  11.462  37.117   6.750
 7529POPC   C3B54441  11.481  37.087   7.050
 7529POPC   C4B54442  11.503  37.146   7.350
 7530POPC   NC354443   0.485  14.386   5.550
 7530POPC   PO454444   0.395  14.394   5.850
 7530POPC   GL154445   0.454  14.375   6.150
 7530POPC   GL254446   0.329  14.540   6.150
 7530POPC   C1A54447   0.436  14.374   6.450
 7530POPC   D2A54448   0.401  14.403   6.750
 7530POPC   C3A54449   0.418  14.428   7.050
 7530POPC   C4A54450   0.420  14.417   7.350
 7530POPC   C1B54451   0.319  14.594   6.450
 7530POPC   C2B54452   0.270  14.611   6.750
 7530POPC   C3B54453   0.252  14.571   7.050
 7530POPC   C4B54454   0.320  14.606   7.350
 7531POPC   NC354455  25.288  27.633   5.550
 7531POPC   PO454456  25.313  27.638   5.850
 7531POPC   GL154457  25.247  27.607   6.150
 7531POPC   GL254458  25.310  27.521   6.150
 7531POPC   C1A54459  25.273  27.554   6.450
 7531POPC   D2A54460  25.248  27.553   6.750
 7531POPC   C3A54461  25.225  27.604   7.050
 7531POPC   C4A54462  25.302  27.552   7.350
 7531POPC   C1B54463  25.277  27.334   6.450
 7531POPC   C2B54464  25.277  27.322   6.750
 7531POPC   C3B54465  25.279  27.345   7.050
 7531POPC   C4B54466  25.308  27.366   7.350
 7532POPC   NC354467  28.319  12.821   5.550
 7532POPC   PO454468  28.389  12.845   5.850
 7532POPC   GL154469  28.334  12.890   6.150
 7532POPC   GL254470  28.223  12.764   6.150
 7532POPC   C1A54471  28.342  12.814   6.450
 7532POPC   D2A54472  28.413  12.845   6.750
 7532POPC   C3A54473  28.407  12.861   7.050
 7532POPC   C4A54474  28.355  12.827   7.350
 7532POPC   C1B54475  28.170  12.765   6.450
 7532POPC   C2B54476  28.112  12.718   6.750
 7532POPC   C3B54477  28.159  12.745   7.050
 7532POPC   C4B54478  28.101  12.771   7.350
 7533POPC   NC354479  22.927  26.847   5.550
 7533POPC   PO454480  22.946  26.844   5.850
 7533POPC   GL154481  22.970  26.844   6.150
 7533POPC   GL254482  23.032  26.907   6.150
 7533POPC   C1A54483  22.961  26.798   6.450
 7533POPC   D2A54484  22.932  26.831   6.750
 7533POPC   C3A54485  22.972  26.806   7.050
 7533POPC   C4A54486  22.929  26.806   7.350
 7533POPC   C1B54487  23.150  26.934   6.450
 7533POPC   C2B54488  23.133  26.880   6.750
 7533POPC   C3B54489  23.208  26.924   7.050
 7533POPC   C4B54490  23.207  26.893   7.350
 7534POPC   NC354491  43.838  43.926   5.550
 7534POPC   PO454492  43.871  43.924   5.850
 7534POPC   GL154493  43.880  43.913   6.150
 7534POPC   GL254494  43.928  43.765   6.150
 7534POPC   C1A54495  43.853  43.913   6.450
 7534POPC   D2A54496  43.860  43.838   6.750
 7534POPC   C3A54497  43.901  43.847   7.050
 7534POPC   C4A54498  43.920  43.915   7.350
 7534POPC   C1B54499  44.042  43.680   6.450
 7534POPC   C2B54500  43.994  43.722   6.750
 7534POPC   C3B54501  44.035  43.640   7.050
 7534POPC   C4B54502  44.009  43.709   7.350
 7535POPC   NC354503  23.734  13.605   5.550
 7535POPC   PO454504  23.761  13.597   5.850
 7535POPC   GL154505  23.719  13.647   6.150
 7535POPC   GL254506  23.740  13.697   6.150
 7535POPC   C1A54507  23.683  13.592   6.450
 7535POPC   D2A54508  23.670  13.659   6.750
 7535POPC   C3A54509  23.707  13.631   7.050
 7535POPC   C4A54510  23.746  13.659   7.350
 7535POPC   C1B54511  23.792  13.827   6.450
 7535POPC   C2B54512  23.846  13.809   6.750
 7535POPC   C3B54513  23.768  13.883   7.050
 7535POPC   C4B54514  23.825  13.828   7.350
 7536POPC   NC354515  38.455  15.203   5.550
 7536POPC   PO454516  38.491  15.143   5.850
 7536POPC   GL154517  38.458  15.188   6.150
 7536POPC   GL254518  38.334  15.201   6.150
 7536POPC   C1A54519  38.412  15.182   6.450
 7536POPC   D2A54520  38.475  15.225   6.750
 7536POPC   C3A54521  38.495  15.194   7.050
 7536POPC   C4A54522  38.458  15.133   7.350
 7536POPC   C1B54523  38.294  15.318   6.450
 7536POPC   C2B54524  38.268  15.313   6.750
 7536POPC   C3B54525  38.239  15.333   7.050
 7536POPC   C4B54526  38.236  15.334   7.350
 7537POPC   NC354527  20.607  17.466   5.550
 7537POPC   PO454528  20.594  17.555   5.850
 7537POPC   GL154529  20.642  17.540   6.150
 7537POPC   GL254530  20.766  17.454   6.150
 7537POPC   C1A54531  20.653  17.471   6.450
 7537POPC   D2A54532  20.650  17.503   6.750
 7537POPC   C3A54533  20.576  17.467   7.050
 7537POPC   C4A54534  20.634  17.467   7.350
 7537POPC   C1B54535  20.803  17.348   6.450
 7537POPC   C2B54536  20.810  17.364   6.750
 7537POPC   C3B54537  20.854  17.354   7.050
 7537POPC   C4B54538  20.810  17.389   7.350
 7538POPC   NC354539  12.879  44.636   5.550
 7538POPC   PO454540  12.895  44.644   5.850
 7538POPC   GL154541  12.803  44.663   6.150
 7538POPC   GL254542  12.852  44.752   6.150
 7538POPC   C1A54543  12.848  44.640   6.450
 7538POPC   D2A54544  12.865  44.645   6.750
 7538POPC   C3A54545  12.819  44.637   7.050
 7538POPC   C4A54546  12.828  44.697   7.350
 7538POPC   C1B54547  12.827  44.926   6.450
 7538POPC   C2B54548  12.850  44.866   6.750
 7538POPC   C3B54549  12.814  44.915   7.050
 7538POPC   C4B54550  12.852  44.920   7.350
 7539POPC   NC354551  20.612  29.134   5.550
 7539POPC   PO454552  20.620  29.191   5.850
 7539POPC   GL154553  20.630  29.103   6.150
 7539POPC   GL254554  20.546  29.253   6.150
 7539POPC   C1A54555  20.609  29.140   6.450
 7539POPC   D2A54556  20.612  29.142   6.750
 7539POPC   C3A54557  20.626  29.105   7.050
 7539POPC   C4A54558  20.634  29.130   7.350
 7539POPC   C1B54559  20.521  29.367   6.450
 7539POPC   C2B54560  20.429  29.381   6.750
 7539POPC   C3B54561  20.491  29.312   7.050
 7539POPC   C4B54562  20.478  29.333   7.350
 7540POPC   NC354563  22.154  12.082   5.550
 7540POPC   PO454564  22.191  12.069   5.850
 7540POPC   GL154565  22.119  12.095   6.150
 7540POPC   GL254566  22.200  12.186   6.150
 7540POPC   C1A54567  22.121  12.047   6.450
 7540POPC   D2A54568  22.196  12.036   6.750
 7540POPC   C3A54569  22.148  12.064   7.050
 7540POPC   C4A54570  22.188  12.030   7.350
 7540POPC   C1B54571  22.221  12.279   6.450
 7540POPC   C2B54572  22.280  12.301   6.750
 7540POPC   C3B54573  22.234  12.339   7.050
 7540POPC   C4B54574  22.301  12.344   7.350
 7541POPC   NC354575  36.173  23.724   5.550
 7541POPC   PO454576  36.141  23.731   5.850
 7541POPC   GL154577  36.166  23.729   6.150
 7541POPC   GL254578  35.998  23.620   6.150
 7541POPC   C1A54579  36.148  23.737   6.450
 7541POPC   D2A54580  36.166  23.681   6.750
 7541POPC   C3A54581  36.162  23.693   7.050
 7541POPC   C4A54582  36.159  23.715   7.350
 7541POPC   C1B54583  35.944  23.588   6.450
 7541POPC   C2B54584  35.957  23.597   6.750
 7541POPC   C3B54585  35.920  23.547   7.050
 7541POPC   C4B54586  35.900  23.596   7.350
 7542POPC   NC354587  22.173   2.784   5.550
 7542POPC   PO454588  22.132   2.795   5.850
 7542POPC   GL154589  22.137   2.798   6.150
 7542POPC   GL254590  22.234   2.710   6.150
 7542POPC   C1A54591  22.208   2.726   6.450
 7542POPC   D2A54592  22.170   2.772   6.750
 7542POPC   C3A54593  22.156   2.767   7.050
 7542POPC   C4A54594  22.206   2.788   7.350
 7542POPC   C1B54595  22.405   2.646   6.450
 7542POPC   C2B54596  22.421   2.630   6.750
 7542POPC   C3B54597  22.358   2.658   7.050
 7542POPC   C4B54598  22.334   2.585   7.350
 7543POPC   NC354599  43.146  28.350   5.550
 7543POPC   PO454600  43.080  28.374   5.850
 7543POPC   GL154601  43.071  28.419   6.150
 7543POPC   GL254602  43.166  28.421   6.150
 7543POPC   C1A54603  43.067  28.319   6.450
 7543POPC   D2A54604  43.069  28.340   6.750
 7543POPC   C3A54605  43.065  28.418   7.050
 7543POPC   C4A54606  43.114  28.373   7.350
 7543POPC   C1B54607  43.286  28.561   6.450
 7543POPC   C2B54608  43.277  28.549   6.750
 7543POPC   C3B54609  43.286  28.547   7.050
 7543POPC   C4B54610  43.298  28.591   7.350
 7544POPC   NC354611   3.589  22.921   5.550
 7544POPC   PO454612   3.580  22.982   5.850
 7544POPC   GL154613   3.572  22.986   6.150
 7544POPC   GL254614   3.455  22.809   6.150
 7544POPC   C1A54615   3.583  22.899   6.450
 7544POPC   D2A54616   3.572  22.916   6.750
 7544POPC   C3A54617   3.494  22.919   7.050
 7544POPC   C4A54618   3.557  22.955   7.350
 7544POPC   C1B54619   3.425  22.690   6.450
 7544POPC   C2B54620   3.466  22.661   6.750
 7544POPC   C3B54621   3.419  22.672   7.050
 7544POPC   C4B54622   3.500  22.677   7.350
 7545POPC   NC354623  12.854  10.476   5.550
 7545POPC   PO454624  12.846  10.574   5.850
 7545POPC   GL154625  12.815  10.567   6.150
 7545POPC   GL254626  12.930  10.608   6.150
 7545POPC   C1A54627  12.901  10.550   6.450
 7545POPC   D2A54628  12.900  10.491   6.750
 7545POPC   C3A54629  12.836  10.558   7.050
 7545POPC   C4A54630  12.839  10.568   7.350
 7545POPC   C1B54631  13.021  10.760   6.450
 7545POPC   C2B54632  12.961  10.753   6.750
 7545POPC   C3B54633  13.021  10.764   7.050
 7545POPC   C4B54634  12.998  10.769   7.350
 7546POPC   NC354635  20.614  33.838   5.550
 7546POPC   PO454636  20.621  33.811   5.850
 7546POPC   GL154637  20.582  33.805   6.150
 7546POPC   GL254638  20.620  33.962   6.150
 7546POPC   C1A54639  20.658  33.809   6.450
 7546POPC   D2A54640  20.621  33.784   6.750
 7546POPC   C3A54641  20.601  33.836   7.050
 7546POPC   C4A54642  20.594  33.768   7.350
 7546POPC   C1B54643  20.564  34.008   6.450
 7546POPC   C2B54644  20.608  34.046   6.750
 7546POPC   C3B54645  20.573  34.093   7.050
 7546POPC   C4B54646  20.570  34.029   7.350
 7547POPC   NC354647  37.693  12.060   5.550
 7547POPC   PO454648  37.673  12.081   5.850
 7547POPC   GL154649  37.716  12.027   6.150
 7547POPC   GL254650  37.558  12.041   6.150
 7547POPC   C1A54651  37.636  12.113   6.450
 7547POPC   D2A54652  37.728  12.082   6.750
 7547POPC   C3A54653  37.691  12.122   7.050
 7547POPC   C4A54654  37.659  12.070   7.350
 7547POPC   C1B54655  37.482  11.960   6.450
 7547POPC   C2B54656  37.466  12.026   6.750
 7547POPC   C3B54657  37.439  11.986   7.050
 7547POPC   C4B54658  37.423  11.989   7.350
 7548POPC   NC354659  41.549  10.537   5.550
 7548POPC   PO454660  41.540  10.484   5.850
 7548POPC   GL154661  41.517  10.542   6.150
 7548POPC   GL254662  41.452  10.490   6.150
 7548POPC   C1A54663  41.554  10.483   6.450
 7548POPC   D2A54664  41.573  10.517   6.750
 7548POPC   C3A54665  41.585  10.532   7.050
 7548POPC   C4A54666  41.536  10.567   7.350
 7548POPC   C1B54667  41.361  10.337   6.450
 7548POPC   C2B54668  41.349  10.340   6.750
 7548POPC   C3B54669  41.313  10.371   7.050
 7548POPC   C4B54670  41.397  10.328   7.350
 7549POPC   NC354671   0.451  13.674   5.550
 7549POPC   PO454672   0.399  13.578   5.850
 7549POPC   GL154673   0.419  13.639   6.150
 7549POPC   GL254674   0.357  13.711   6.150
 7549POPC   C1A54675   0.464  13.594   6.450
 7549POPC   D2A54676   0.480  13.638   6.750
 7549POPC   C3A54677   0.454  13.645   7.050
 7549POPC   C4A54678   0.416  13.639   7.350
 7549POPC   C1B54679   0.170  13.782   6.450
 7549POPC   C2B54680   0.219  13.692   6.750
 7549POPC   C3B54681   0.194  13.708   7.050
 7549POPC   C4B54682   0.222  13.787   7.350
 7550POPC   NC354683  12.039  38.461   5.550
 7550POPC   PO454684  12.047  38.488   5.850
 7550POPC   GL154685  12.057  38.447   6.150
 7550POPC   GL254686  11.998  38.501   6.150
 7550POPC   C1A54687  12.048  38.458   6.450
 7550POPC   D2A54688  12.053  38.414   6.750
 7550POPC   C3A54689  12.053  38.488   7.050
 7550POPC   C4A54690  12.089  38.473   7.350
 7550POPC   C1B54691  11.804  38.533   6.450
 7550POPC   C2B54692  11.889  38.576   6.750
 7550POPC   C3B54693  11.811  38.599   7.050
 7550POPC   C4B54694  11.797  38.528   7.350
 7551POPC   NC354695  27.586  12.843   5.550
 7551POPC   PO454696  27.559  12.823   5.850
 7551POPC   GL154697  27.588  12.893   6.150
 7551POPC   GL254698  27.645  12.702   6.150
 7551POPC   C1A54699  27.643  12.853   6.450
 7551POPC   D2A54700  27.609  12.895   6.750
 7551POPC   C3A54701  27.560  12.818   7.050
 7551POPC   C4A54702  27.557  12.891   7.350
 7551POPC   C1B54703  27.714  12.635   6.450
 7551POPC   C2B54704  27.762  12.615   6.750
 7551POPC   C3B54705  27.734  12.640   7.050
 7551POPC   C4B54706  27.719  12.627   7.350
 7552POPC   NC354707  21.339  16.737   5.550
 7552POPC   PO454708  21.367  16.741   5.850
 7552POPC   GL154709  21.357  16.707   6.150
 7552POPC   GL254710  21.292  16.622   6.150
 7552POPC   C1A54711  21.370  16.733   6.450
 7552POPC   D2A54712  21.391  16.755   6.750
 7552POPC   C3A54713  21.433  16.745   7.050
 7552POPC   C4A54714  21.405  16.765   7.350
 7552POPC   C1B54715  21.146  16.611   6.450
 7552POPC   C2B54716  21.196  16.533   6.750
 7552POPC   C3B54717  21.234  16.559   7.050
 7552POPC   C4B54718  21.210  16.544   7.350
 7553POPC   NC354719   6.651  40.789   5.550
 7553POPC   PO454720   6.672  40.765   5.850
 7553POPC   GL154721   6.670  40.751   6.150
 7553POPC   GL254722   6.612  40.880   6.150
 7553POPC   C1A54723   6.694  40.825   6.450
 7553POPC   D2A54724   6.692  40.814   6.750
 7553POPC   C3A54725   6.641  40.788   7.050
 7553POPC   C4A54726   6.625  40.801   7.350
 7553POPC   C1B54727   6.574  41.002   6.450
 7553POPC   C2B54728   6.569  41.019   6.750
 7553POPC   C3B54729   6.567  41.019   7.050
 7553POPC   C4B54730   6.563  41.016   7.350
 7554POPC   NC354731  28.381   9.749   5.550
 7554POPC   PO454732  28.379   9.742   5.850
 7554POPC   GL154733  28.345   9.777   6.150
 7554POPC   GL254734  28.348   9.917   6.150
 7554POPC   C1A54735  28.366   9.745   6.450
 7554POPC   D2A54736  28.347   9.735   6.750
 7554POPC   C3A54737  28.373   9.706   7.050
 7554POPC   C4A54738  28.327   9.730   7.350
 7554POPC   C1B54739  28.365   9.989   6.450
 7554POPC   C2B54740  28.364   9.992   6.750
 7554POPC   C3B54741  28.362   9.997   7.050
 7554POPC   C4B54742  28.359   9.975   7.350
 7555POPC   NC354743  14.377  26.050   5.550
 7555POPC   PO454744  14.382  25.993   5.850
 7555POPC   GL154745  14.397  26.059   6.150
 7555POPC   GL254746  14.448  25.902   6.150
 7555POPC   C1A54747  14.384  26.075   6.450
 7555POPC   D2A54748  14.386  26.061   6.750
 7555POPC   C3A54749  14.373  26.012   7.050
 7555POPC   C4A54750  14.363  26.080   7.350
 7555POPC   C1B54751  14.533  25.816   6.450
 7555POPC   C2B54752  14.538  25.812   6.750
 7555POPC   C3B54753  14.576  25.796   7.050
 7555POPC   C4B54754  14.580  25.818   7.350
 7556POPC   NC354755  10.540  26.840   5.550
 7556POPC   PO454756  10.506  26.834   5.850
 7556POPC   GL154757  10.536  26.806   6.150
 7556POPC   GL254758  10.619  26.905   6.150
 7556POPC   C1A54759  10.524  26.814   6.450
 7556POPC   D2A54760  10.553  26.812   6.750
 7556POPC   C3A54761  10.567  26.812   7.050
 7556POPC   C4A54762  10.532  26.822   7.350
 7556POPC   C1B54763  10.696  26.995   6.450
 7556POPC   C2B54764  10.674  26.971   6.750
 7556POPC   C3B54765  10.662  26.997   7.050
 7556POPC   C4B54766  10.695  27.017   7.350
 7557POPC   NC354767  21.367  14.412   5.550
 7557POPC   PO454768  21.349  14.429   5.850
 7557POPC   GL154769  21.375  14.369   6.150
 7557POPC   GL254770  21.264  14.314   6.150
 7557POPC   C1A54771  21.398  14.436   6.450
 7557POPC   D2A54772  21.361  14.413   6.750
 7557POPC   C3A54773  21.418  14.419   7.050
 7557POPC   C4A54774  21.366  14.387   7.350
 7557POPC   C1B54775  21.168  14.328   6.450
 7557POPC   C2B54776  21.119  14.283   6.750
 7557POPC   C3B54777  21.171  14.278   7.050
 7557POPC   C4B54778  21.106  14.357   7.350
 7558POPC   NC354779  22.125  34.543   5.550
 7558POPC   PO454780  22.195  34.554   5.850
 7558POPC   GL154781  22.122  34.533   6.150
 7558POPC   GL254782  22.087  34.676   6.150
 7558POPC   C1A54783  22.157  34.548   6.450
 7558POPC   D2A54784  22.181  34.562   6.750
 7558POPC   C3A54785  22.115  34.622   7.050
 7558POPC   C4A54786  22.169  34.541   7.350
 7558POPC   C1B54787  21.960  34.695   6.450
 7558POPC   C2B54788  22.005  34.690   6.750
 7558POPC   C3B54789  21.988  34.686   7.050
 7558POPC   C4B54790  21.990  34.748   7.350
 7559POPC   NC354791  29.165   8.197   5.550
 7559POPC   PO454792  29.187   8.199   5.850
 7559POPC   GL154793  29.132   8.243   6.150
 7559POPC   GL254794  29.127   8.108   6.150
 7559POPC   C1A54795  29.181   8.164   6.450
 7559POPC   D2A54796  29.141   8.219   6.750
 7559POPC   C3A54797  29.182   8.179   7.050
 7559POPC   C4A54798  29.139   8.186   7.350
 7559POPC   C1B54799  29.188   7.975   6.450
 7559POPC   C2B54800  29.126   7.943   6.750
 7559POPC   C3B54801  29.161   7.991   7.050
 7559POPC   C4B54802  29.165   7.927   7.350
 7560POPC   NC354803   5.077  37.692   5.550
 7560POPC   PO454804   5.084  37.660   5.850
 7560POPC   GL154805   5.079  37.718   6.150
 7560POPC   GL254806   5.169  37.736   6.150
 7560POPC   C1A54807   5.081  37.639   6.450
 7560POPC   D2A54808   5.055  37.637   6.750
 7560POPC   C3A54809   5.091  37.703   7.050
 7560POPC   C4A54810   5.073  37.705   7.350
 7560POPC   C1B54811   5.237  37.848   6.450
 7560POPC   C2B54812   5.205  37.897   6.750
 7560POPC   C3B54813   5.232  37.916   7.050
 7560POPC   C4B54814   5.206  37.910   7.350
 7561POPC   NC354815  40.770  31.425   5.550
 7561POPC   PO454816  40.821  31.472   5.850
 7561POPC   GL154817  40.786  31.493   6.150
 7561POPC   GL254818  40.755  31.378   6.150
 7561POPC   C1A54819  40.775  31.431   6.450
 7561POPC   D2A54820  40.765  31.502   6.750
 7561POPC   C3A54821  40.813  31.518   7.050
 7561POPC   C4A54822  40.824  31.427   7.350
 7561POPC   C1B54823  40.708  31.207   6.450
 7561POPC   C2B54824  40.775  31.275   6.750
 7561POPC   C3B54825  40.778  31.195   7.050
 7561POPC   C4B54826  40.731  31.277   7.350
 7562POPC   NC354827  32.295  12.897   5.550
 7562POPC   PO454828  32.203  12.857   5.850
 7562POPC   GL154829  32.229  12.863   6.150
 7562POPC   GL254830  32.380  12.797   6.150
 7562POPC   C1A54831  32.234  12.873   6.450
 7562POPC   D2A54832  32.294  12.883   6.750
 7562POPC   C3A54833  32.269  12.893   7.050
 7562POPC   C4A54834  32.227  12.803   7.350
 7562POPC   C1B54835  32.529  12.799   6.450
 7562POPC   C2B54836  32.493  12.800   6.750
 7562POPC   C3B54837  32.512  12.814   7.050
 7562POPC   C4B54838  32.522  12.751   7.350
 7563POPC   NC354839   9.756   5.091   5.550
 7563POPC   PO454840   9.737   5.098   5.850
 7563POPC   GL154841   9.735   5.056   6.150
 7563POPC   GL254842   9.836   5.007   6.150
 7563POPC   C1A54843   9.774   5.084   6.450
 7563POPC   D2A54844   9.766   5.117   6.750
 7563POPC   C3A54845   9.703   5.075   7.050
 7563POPC   C4A54846   9.699   5.099   7.350
 7563POPC   C1B54847   9.975   5.016   6.450
 7563POPC   C2B54848   9.927   5.008   6.750
 7563POPC   C3B54849  10.006   4.960   7.050
 7563POPC   C4B54850   9.933   5.016   7.350
 7564POPC   NC354851  21.425  19.026   5.550
 7564POPC   PO454852  21.394  19.106   5.850
 7564POPC   GL154853  21.337  19.076   6.150
 7564POPC   GL254854  21.297  19.149   6.150
 7564POPC   C1A54855  21.392  19.069   6.450
 7564POPC   D2A54856  21.375  19.019   6.750
 7564POPC   C3A54857  21.361  19.108   7.050
 7564POPC   C4A54858  21.419  19.075   7.350
 7564POPC   C1B54859  21.276  19.272   6.450
 7564POPC   C2B54860  21.290  19.242   6.750
 7564POPC   C3B54861  21.286  19.320   7.050
 7564POPC   C4B54862  21.292  19.229   7.350
 7565POPC   NC354863  23.715  43.854   5.550
 7565POPC   PO454864  23.750  43.934   5.850
 7565POPC   GL154865  23.707  43.884   6.150
 7565POPC   GL254866  23.796  43.881   6.150
 7565POPC   C1A54867  23.736  43.861   6.450
 7565POPC   D2A54868  23.683  43.874   6.750
 7565POPC   C3A54869  23.702  43.843   7.050
 7565POPC   C4A54870  23.762  43.853   7.350
 7565POPC   C1B54871  23.921  43.867   6.450
 7565POPC   C2B54872  23.931  43.886   6.750
 7565POPC   C3B54873  23.950  43.847   7.050
 7565POPC   C4B54874  23.916  43.937   7.350
 7566POPC   NC354875   7.439  12.045   5.550
 7566POPC   PO454876   7.382  12.046   5.850
 7566POPC   GL154877   7.456  12.072   6.150
 7566POPC   GL254878   7.581  12.129   6.150
 7566POPC   C1A54879   7.380  12.075   6.450
 7566POPC   D2A54880   7.412  12.031   6.750
 7566POPC   C3A54881   7.422  12.086   7.050
 7566POPC   C4A54882   7.463  12.078   7.350
 7566POPC   C1B54883   7.695  12.129   6.450
 7566POPC   C2B54884   7.701  12.119   6.750
 7566POPC   C3B54885   7.656  12.124   7.050
 7566POPC   C4B54886   7.647  12.086   7.350
 7567POPC   NC354887  40.771  19.103   5.550
 7567POPC   PO454888  40.831  19.086   5.850
 7567POPC   GL154889  40.751  19.056   6.150
 7567POPC   GL254890  40.915  19.025   6.150
 7567POPC   C1A54891  40.809  19.023   6.450
 7567POPC   D2A54892  40.809  19.076   6.750
 7567POPC   C3A54893  40.764  19.024   7.050
 7567POPC   C4A54894  40.763  19.069   7.350
 7567POPC   C1B54895  41.074  19.111   6.450
 7567POPC   C2B54896  41.002  19.093   6.750
 7567POPC   C3B54897  41.032  19.123   7.050
 7567POPC   C4B54898  40.997  19.069   7.350
 7568POPC   NC354899   6.658   7.392   5.550
 7568POPC   PO454900   6.661   7.451   5.850
 7568POPC   GL154901   6.673   7.430   6.150
 7568POPC   GL254902   6.713   7.283   6.150
 7568POPC   C1A54903   6.668   7.404   6.450
 7568POPC   D2A54904   6.691   7.391   6.750
 7568POPC   C3A54905   6.622   7.461   7.050
 7568POPC   C4A54906   6.618   7.390   7.350
 7568POPC   C1B54907   6.859   7.220   6.450
 7568POPC   C2B54908   6.863   7.214   6.750
 7568POPC   C3B54909   6.826   7.266   7.050
 7568POPC   C4B54910   6.845   7.224   7.350
 7569POPC   NC354911   8.238  32.290   5.550
 7569POPC   PO454912   8.197  32.271   5.850
 7569POPC   GL154913   8.180  32.231   6.150
 7569POPC   GL254914   8.126  32.254   6.150
 7569POPC   C1A54915   8.223  32.256   6.450
 7569POPC   D2A54916   8.165  32.216   6.750
 7569POPC   C3A54917   8.241  32.257   7.050
 7569POPC   C4A54918   8.156  32.284   7.350
 7569POPC   C1B54919   7.927  32.154   6.450
 7569POPC   C2B54920   7.933  32.123   6.750
 7569POPC   C3B54921   7.936  32.155   7.050
 7569POPC   C4B54922   7.923  32.195   7.350
 7570POPC   NC354923  22.955  42.336   5.550
 7570POPC   PO454924  22.983  42.361   5.850
 7570POPC   GL154925  22.910  42.295   6.150
 7570POPC   GL254926  22.793  42.297   6.150
 7570POPC   C1A54927  22.906  42.374   6.450
 7570POPC   D2A54928  22.919  42.313   6.750
 7570POPC   C3A54929  22.960  42.345   7.050
 7570POPC   C4A54930  22.937  42.363   7.350
 7570POPC   C1B54931  22.711  42.305   6.450
 7570POPC   C2B54932  22.652  42.366   6.750
 7570POPC   C3B54933  22.692  42.396   7.050
 7570POPC   C4B54934  22.731  42.339   7.350
 7571POPC   NC354935   2.758  22.892   5.550
 7571POPC   PO454936   2.750  22.980   5.850
 7571POPC   GL154937   2.747  22.981   6.150
 7571POPC   GL254938   2.776  22.782   6.150
 7571POPC   C1A54939   2.746  22.954   6.450
 7571POPC   D2A54940   2.725  22.944   6.750
 7571POPC   C3A54941   2.728  22.987   7.050
 7571POPC   C4A54942   2.790  22.890   7.350
 7571POPC   C1B54943   2.765  22.702   6.450
 7571POPC   C2B54944   2.712  22.699   6.750
 7571POPC   C3B54945   2.683  22.725   7.050
 7571POPC   C4B54946   2.779  22.730   7.350
 7572POPC   NC354947  32.253  17.499   5.550
 7572POPC   PO454948  32.251  17.499   5.850
 7572POPC   GL154949  32.297  17.493   6.150
 7572POPC   GL254950  32.333  17.516   6.150
 7572POPC   C1A54951  32.232  17.458   6.450
 7572POPC   D2A54952  32.224  17.532   6.750
 7572POPC   C3A54953  32.241  17.535   7.050
 7572POPC   C4A54954  32.293  17.502   7.350
 7572POPC   C1B54955  32.522  17.480   6.450
 7572POPC   C2B54956  32.473  17.506   6.750
 7572POPC   C3B54957  32.514  17.457   7.050
 7572POPC   C4B54958  32.537  17.540   7.350
 7573POPC   NC354959  29.170   2.735   5.550
 7573POPC   PO454960  29.124   2.718   5.850
 7573POPC   GL154961  29.160   2.762   6.150
 7573POPC   GL254962  29.255   2.724   6.150
 7573POPC   C1A54963  29.140   2.776   6.450
 7573POPC   D2A54964  29.191   2.801   6.750
 7573POPC   C3A54965  29.193   2.797   7.050
 7573POPC   C4A54966  29.160   2.803   7.350
 7573POPC   C1B54967  29.435   2.748   6.450
 7573POPC   C2B54968  29.396   2.763   6.750
 7573POPC   C3B54969  29.388   2.760   7.050
 7573POPC   C4B54970  29.354   2.747   7.350
 7574POPC   NC354971   0.478  42.325   5.550
 7574POPC   PO454972   0.428  42.384   5.850
 7574POPC   GL154973   0.448  42.383   6.150
 7574POPC   GL254974   0.543  42.464   6.150
 7574POPC   C1A54975   0.400  42.325   6.450
 7574POPC   D2A54976   0.428  42.373   6.750
 7574POPC   C3A54977   0.472  42.313   7.050
 7574POPC   C4A54978   0.416  42.331   7.350
 7574POPC   C1B54979   0.583  42.551   6.450
 7574POPC   C2B54980   0.603  42.487   6.750
 7574POPC   C3B54981   0.613  42.510   7.050
 7574POPC   C4B54982   0.574  42.575   7.350
 7575POPC   NC354983  35.303   8.200   5.550
 7575POPC   PO454984  35.340   8.212   5.850
 7575POPC   GL154985  35.309   8.223   6.150
 7575POPC   GL254986  35.237   8.255   6.150
 7575POPC   C1A54987  35.396   8.147   6.450
 7575POPC   D2A54988  35.333   8.219   6.750
 7575POPC   C3A54989  35.311   8.235   7.050
 7575POPC   C4A54990  35.378   8.205   7.350
 7575POPC   C1B54991  35.147   8.283   6.450
 7575POPC   C2B54992  35.059   8.223   6.750
 7575POPC   C3B54993  35.060   8.220   7.050
 7575POPC   C4B54994  35.099   8.207   7.350
 7576POPC   NC354995   1.940  14.425   5.550
 7576POPC   PO454996   1.988  14.448   5.850
 7576POPC   GL154997   1.963  14.406   6.150
 7576POPC   GL254998   2.078  14.242   6.150
 7576POPC   C1A54999   1.980  14.385   6.450
 7576POPC   D2A55000   1.972  14.355   6.750
 7576POPC   C3A55001   1.944  14.422   7.050
 7576POPC   C4A55002   2.007  14.409   7.350
 7576POPC   C1B55003   2.080  14.203   6.450
 7576POPC   C2B55004   2.092  14.155   6.750
 7576POPC   C3B55005   2.115  14.224   7.050
 7576POPC   C4B55006   2.076  14.216   7.350
 7577POPC   NC355007  20.618  24.467   5.550
 7577POPC   PO455008  20.593  24.489   5.850
 7577POPC   GL155009  20.604  24.528   6.150
 7577POPC   GL255010  20.508  24.375   6.150
 7577POPC   C1A55011  20.560  24.462   6.450
 7577POPC   D2A55012  20.598  24.522   6.750
 7577POPC   C3A55013  20.637  24.476   7.050
 7577POPC   C4A55014  20.653  24.489   7.350
 7577POPC   C1B55015  20.454  24.227   6.450
 7577POPC   C2B55016  20.532  24.284   6.750
 7577POPC   C3B55017  20.468  24.294   7.050
 7577POPC   C4B55018  20.532  24.239   7.350
 7578POPC   NC355019  19.010  42.331   5.550
 7578POPC   PO455020  19.105  42.377   5.850
 7578POPC   GL155021  19.063  42.310   6.150
 7578POPC   GL255022  18.969  42.346   6.150
 7578POPC   C1A55023  19.042  42.288   6.450
 7578POPC   D2A55024  19.032  42.329   6.750
 7578POPC   C3A55025  19.010  42.318   7.050
 7578POPC   C4A55026  19.039  42.367   7.350
 7578POPC   C1B55027  18.762  42.320   6.450
 7578POPC   C2B55028  18.793  42.345   6.750
 7578POPC   C3B55029  18.818  42.292   7.050
 7578POPC   C4B55030  18.851  42.346   7.350
 7579POPC   NC355031  29.105   8.927   5.550
 7579POPC   PO455032  29.110   8.995   5.850
 7579POPC   GL155033  29.176   8.943   6.150
 7579POPC   GL255034  29.209   8.864   6.150
 7579POPC   C1A55035  29.134   8.971   6.450
 7579POPC   D2A55036  29.138   8.995   6.750
 7579POPC   C3A55037  29.122   9.011   7.050
 7579POPC   C4A55038  29.141   8.990   7.350
 7579POPC   C1B55039  29.284   8.807   6.450
 7579POPC   C2B55040  29.314   8.741   6.750
 7579POPC   C3B55041  29.255   8.812   7.050
 7579POPC   C4B55042  29.307   8.772   7.350
 7580POPC   NC355043  12.109  35.344   5.550
 7580POPC   PO455044  12.059  35.340   5.850
 7580POPC   GL155045  12.105  35.319   6.150
 7580POPC   GL255046  12.056  35.458   6.150
 7580POPC   C1A55047  12.071  35.367   6.450
 7580POPC   D2A55048  12.030  35.323   6.750
 7580POPC   C3A55049  12.105  35.322   7.050
 7580POPC   C4A55050  12.104  35.307   7.350
 7580POPC   C1B55051  11.967  35.533   6.450
 7580POPC   C2B55052  11.995  35.607   6.750
 7580POPC   C3B55053  12.023  35.574   7.050
 7580POPC   C4B55054  12.016  35.613   7.350
 7581POPC   NC355055  15.926  42.351   5.550
 7581POPC   PO455056  15.983  42.365   5.850
 7581POPC   GL155057  15.930  42.357   6.150
 7581POPC   GL255058  15.921  42.258   6.150
 7581POPC   C1A55059  15.987  42.313   6.450
 7581POPC   D2A55060  15.974  42.320   6.750
 7581POPC   C3A55061  15.952  42.328   7.050
 7581POPC   C4A55062  15.926  42.301   7.350
 7581POPC   C1B55063  15.790  42.198   6.450
 7581POPC   C2B55064  15.769  42.194   6.750
 7581POPC   C3B55065  15.762  42.192   7.050
 7581POPC   C4B55066  15.836  42.196   7.350
 7582POPC   NC355067  18.253   2.716   5.550
 7582POPC   PO455068  18.265   2.737   5.850
 7582POPC   GL155069  18.269   2.796   6.150
 7582POPC   GL255070  18.194   2.892   6.150
 7582POPC   C1A55071  18.324   2.753   6.450
 7582POPC   D2A55072  18.272   2.757   6.750
 7582POPC   C3A55073  18.314   2.749   7.050
 7582POPC   C4A55074  18.300   2.764   7.350
 7582POPC   C1B55075  18.127   2.953   6.450
 7582POPC   C2B55076  18.121   2.959   6.750
 7582POPC   C3B55077  18.135   2.948   7.050
 7582POPC   C4B55078  18.097   2.952   7.350
 7583POPC   NC355079  17.514  11.289   5.550
 7583POPC   PO455080  17.491  11.328   5.850
 7583POPC   GL155081  17.530  11.253   6.150
 7583POPC   GL255082  17.420  11.268   6.150
 7583POPC   C1A55083  17.488  11.314   6.450
 7583POPC   D2A55084  17.553  11.261   6.750
 7583POPC   C3A55085  17.529  11.332   7.050
 7583POPC   C4A55086  17.490  11.273   7.350
 7583POPC   C1B55087  17.313  11.262   6.450
 7583POPC   C2B55088  17.285  11.176   6.750
 7583POPC   C3B55089  17.242  11.204   7.050
 7583POPC   C4B55090  17.295  11.220   7.350
 7584POPC   NC355091  18.266  19.038   5.550
 7584POPC   PO455092  18.234  19.027   5.850
 7584POPC   GL155093  18.292  19.109   6.150
 7584POPC   GL255094  18.185  19.154   6.150
 7584POPC   C1A55095  18.317  19.101   6.450
 7584POPC   D2A55096  18.316  19.088   6.750
 7584POPC   C3A55097  18.329  19.092   7.050
 7584POPC   C4A55098  18.236  19.083   7.350
 7584POPC   C1B55099  18.198  19.313   6.450
 7584POPC   C2B55100  18.213  19.301   6.750
 7584POPC   C3B55101  18.220  19.336   7.050
 7584POPC   C4B55102  18.198  19.274   7.350
 7585POPC   NC355103  12.096  39.247   5.550
 7585POPC   PO455104  12.086  39.202   5.850
 7585POPC   GL155105  12.036  39.277   6.150
 7585POPC   GL255106  12.110  39.302   6.150
 7585POPC   C1A55107  12.069  39.259   6.450
 7585POPC   D2A55108  12.059  39.255   6.750
 7585POPC   C3A55109  12.102  39.267   7.050
 7585POPC   C4A55110  12.034  39.251   7.350
 7585POPC   C1B55111  12.190  39.503   6.450
 7585POPC   C2B55112  12.233  39.500   6.750
 7585POPC   C3B55113  12.219  39.415   7.050
 7585POPC   C4B55114  12.137  39.450   7.350
 7586POPC   NC355115  32.279   4.288   5.550
 7586POPC   PO455116  32.261   4.280   5.850
 7586POPC   GL155117  32.265   4.289   6.150
 7586POPC   GL255118  32.276   4.481   6.150
 7586POPC   C1A55119  32.256   4.331   6.450
 7586POPC   D2A55120  32.237   4.335   6.750
 7586POPC   C3A55121  32.289   4.302   7.050
 7586POPC   C4A55122  32.206   4.281   7.350
 7586POPC   C1B55123  32.350   4.583   6.450
 7586POPC   C2B55124  32.314   4.588   6.750
 7586POPC   C3B55125  32.310   4.583   7.050
 7586POPC   C4B55126  32.337   4.570   7.350
 7587POPC   NC355127  15.157  39.269   5.550
 7587POPC   PO455128  15.172  39.248   5.850
 7587POPC   GL155129  15.197  39.250   6.150
 7587POPC   GL255130  15.197  39.387   6.150
 7587POPC   C1A55131  15.140  39.238   6.450
 7587POPC   D2A55132  15.227  39.190   6.750
 7587POPC   C3A55133  15.194  39.241   7.050
 7587POPC   C4A55134  15.181  39.258   7.350
 7587POPC   C1B55135  15.259  39.505   6.450
 7587POPC   C2B55136  15.227  39.453   6.750
 7587POPC   C3B55137  15.259  39.462   7.050
 7587POPC   C4B55138  15.193  39.513   7.350
 7588POPC   NC355139  12.111  33.073   5.550
 7588POPC   PO455140  12.113  33.046   5.850
 7588POPC   GL155141  12.039  33.071   6.150
 7588POPC   GL255142  11.993  32.921   6.150
 7588POPC   C1A55143  12.096  32.977   6.450
 7588POPC   D2A55144  12.088  33.026   6.750
 7588POPC   C3A55145  12.120  32.987   7.050
 7588POPC   C4A55146  12.115  33.052   7.350
 7588POPC   C1B55147  11.903  32.873   6.450
 7588POPC   C2B55148  11.869  32.912   6.750
 7588POPC   C3B55149  11.841  32.831   7.050
 7588POPC   C4B55150  11.846  32.911   7.350
 7589POPC   NC355151  33.771  28.364   5.550
 7589POPC   PO455152  33.833  28.390   5.850
 7589POPC   GL155153  33.776  28.401   6.150
 7589POPC   GL255154  33.918  28.332   6.150
 7589POPC   C1A55155  33.779  28.336   6.450
 7589POPC   D2A55156  33.848  28.340   6.750
 7589POPC   C3A55157  33.833  28.407   7.050
 7589POPC   C4A55158  33.786  28.372   7.350
 7589POPC   C1B55159  34.077  28.256   6.450
 7589POPC   C2B55160  34.082  28.337   6.750
 7589POPC   C3B55161  34.034  28.326   7.050
 7589POPC   C4B55162  34.065  28.282   7.350
 7590POPC   NC355163  35.308  30.741   5.550
 7590POPC   PO455164  35.339  30.684   5.850
 7590POPC   GL155165  35.317  30.705   6.150
 7590POPC   GL255166  35.460  30.625   6.150
 7590POPC   C1A55167  35.321  30.696   6.450
 7590POPC   D2A55168  35.380  30.693   6.750
 7590POPC   C3A55169  35.331  30.682   7.050
 7590POPC   C4A55170  35.394  30.691   7.350
 7590POPC   C1B55171  35.560  30.522   6.450
 7590POPC   C2B55172  35.556  30.537   6.750
 7590POPC   C3B55173  35.530  30.531   7.050
 7590POPC   C4B55174  35.488  30.493   7.350
 7591POPC   NC355175  34.545  40.765   5.550
 7591POPC   PO455176  34.555  40.779   5.850
 7591POPC   GL155177  34.577  40.736   6.150
 7591POPC   GL255178  34.522  40.704   6.150
 7591POPC   C1A55179  34.547  40.798   6.450
 7591POPC   D2A55180  34.562  40.828   6.750
 7591POPC   C3A55181  34.545  40.753   7.050
 7591POPC   C4A55182  34.532  40.818   7.350
 7591POPC   C1B55183  34.563  40.555   6.450
 7591POPC   C2B55184  34.517  40.488   6.750
 7591POPC   C3B55185  34.570  40.540   7.050
 7591POPC   C4B55186  34.519  40.565   7.350
 7592POPC   NC355187   6.636  17.493   5.550
 7592POPC   PO455188   6.661  17.479   5.850
 7592POPC   GL155189   6.663  17.511   6.150
 7592POPC   GL255190   6.549  17.586   6.150
 7592POPC   C1A55191   6.597  17.522   6.450
 7592POPC   D2A55192   6.637  17.545   6.750
 7592POPC   C3A55193   6.624  17.549   7.050
 7592POPC   C4A55194   6.646  17.555   7.350
 7592POPC   C1B55195   6.568  17.713   6.450
 7592POPC   C2B55196   6.516  17.692   6.750
 7592POPC   C3B55197   6.576  17.774   7.050
 7592POPC   C4B55198   6.561  17.705   7.350
 7593POPC   NC355199  40.755  22.895   5.550
 7593POPC   PO455200  40.794  22.897   5.850
 7593POPC   GL155201  40.829  22.901   6.150
 7593POPC   GL255202  40.772  22.835   6.150
 7593POPC   C1A55203  40.738  22.974   6.450
 7593POPC   D2A55204  40.827  22.923   6.750
 7593POPC   C3A55205  40.744  22.892   7.050
 7593POPC   C4A55206  40.821  22.896   7.350
 7593POPC   C1B55207  40.827  22.724   6.450
 7593POPC   C2B55208  40.826  22.733   6.750
 7593POPC   C3B55209  40.749  22.709   7.050
 7593POPC   C4B55210  40.771  22.691   7.350
 7594POPC   NC355211   3.578  10.478   5.550
 7594POPC   PO455212   3.499  10.516   5.850
 7594POPC   GL155213   3.591  10.555   6.150
 7594POPC   GL255214   3.668  10.482   6.150
 7594POPC   C1A55215   3.565  10.501   6.450
 7594POPC   D2A55216   3.568  10.490   6.750
 7594POPC   C3A55217   3.553  10.538   7.050
 7594POPC   C4A55218   3.568  10.507   7.350
 7594POPC   C1B55219   3.746  10.480   6.450
 7594POPC   C2B55220   3.738  10.433   6.750
 7594POPC   C3B55221   3.793  10.460   7.050
 7594POPC   C4B55222   3.798  10.475   7.350
 7595POPC   NC355223  15.995  33.819   5.550
 7595POPC   PO455224  15.927  33.823   5.850
 7595POPC   GL155225  15.929  33.788   6.150
 7595POPC   GL255226  15.959  33.690   6.150
 7595POPC   C1A55227  15.931  33.803   6.450
 7595POPC   D2A55228  15.948  33.770   6.750
 7595POPC   C3A55229  15.950  33.765   7.050
 7595POPC   C4A55230  16.005  33.809   7.350
 7595POPC   C1B55231  15.982  33.524   6.450
 7595POPC   C2B55232  16.040  33.513   6.750
 7595POPC   C3B55233  16.040  33.596   7.050
 7595POPC   C4B55234  16.045  33.532   7.350
 7596POPC   NC355235  33.066   5.889   5.550
 7596POPC   PO455236  33.047   5.869   5.850
 7596POPC   GL155237  33.001   5.881   6.150
 7596POPC   GL255238  32.931   5.997   6.150
 7596POPC   C1A55239  32.992   5.868   6.450
 7596POPC   D2A55240  33.067   5.908   6.750
 7596POPC   C3A55241  33.027   5.906   7.050
 7596POPC   C4A55242  33.062   5.884   7.350
 7596POPC   C1B55243  32.817   6.094   6.450
 7596POPC   C2B55244  32.855   6.035   6.750
 7596POPC   C3B55245  32.857   6.069   7.050
 7596POPC   C4B55246  32.880   6.040   7.350
 7597POPC   NC355247  43.122  19.814   5.550
 7597POPC   PO455248  43.136  19.794   5.850
 7597POPC   GL155249  43.065  19.879   6.150
 7597POPC   GL255250  43.011  19.849   6.150
 7597POPC   C1A55251  43.063  19.797   6.450
 7597POPC   D2A55252  43.124  19.877   6.750
 7597POPC   C3A55253  43.155  19.829   7.050
 7597POPC   C4A55254  43.131  19.872   7.350
 7597POPC   C1B55255  42.895  19.932   6.450
 7597POPC   C2B55256  42.880  19.872   6.750
 7597POPC   C3B55257  42.852  19.857   7.050
 7597POPC   C4B55258  42.899  19.870   7.350
 7598POPC   NC355259  31.489  34.535   5.550
 7598POPC   PO455260  31.450  34.530   5.850
 7598POPC   GL155261  31.472  34.535   6.150
 7598POPC   GL255262  31.538  34.668   6.150
 7598POPC   C1A55263  31.502  34.544   6.450
 7598POPC   D2A55264  31.496  34.599   6.750
 7598POPC   C3A55265  31.434  34.561   7.050
 7598POPC   C4A55266  31.508  34.563   7.350
 7598POPC   C1B55267  31.581  34.786   6.450
 7598POPC   C2B55268  31.586  34.810   6.750
 7598POPC   C3B55269  31.575  34.817   7.050
 7598POPC   C4B55270  31.625  34.788   7.350
 7599POPC   NC355271   7.453  16.711   5.550
 7599POPC   PO455272   7.413  16.740   5.850
 7599POPC   GL155273   7.410  16.762   6.150
 7599POPC   GL255274   7.385  16.835   6.150
 7599POPC   C1A55275   7.419  16.744   6.450
 7599POPC   D2A55276   7.431  16.686   6.750
 7599POPC   C3A55277   7.433  16.754   7.050
 7599POPC   C4A55278   7.406  16.743   7.350
 7599POPC   C1B55279   7.225  16.877   6.450
 7599POPC   C2B55280   7.249  16.960   6.750
 7599POPC   C3B55281   7.265  16.880   7.050
 7599POPC   C4B55282   7.217  16.940   7.350
 7600POPC   NC355283  25.258  13.614   5.550
 7600POPC   PO455284  25.222  13.656   5.850
 7600POPC   GL155285  25.238  13.608   6.150
 7600POPC   GL255286  25.264  13.792   6.150
 7600POPC   C1A55287  25.286  13.630   6.450
 7600POPC   D2A55288  25.254  13.597   6.750
 7600POPC   C3A55289  25.239  13.627   7.050
 7600POPC   C4A55290  25.310  13.578   7.350
 7600POPC   C1B55291  25.143  13.868   6.450
 7600POPC   C2B55292  25.226  13.895   6.750
 7600POPC   C3B55293  25.213  13.850   7.050
 7600POPC   C4B55294  25.169  13.891   7.350
 7601POPC   NC355295  30.653  22.982   5.550
 7601POPC   PO455296  30.708  22.897   5.850
 7601POPC   GL155297  30.648  22.927   6.150
 7601POPC   GL255298  30.782  22.988   6.150
 7601POPC   C1A55299  30.738  22.893   6.450
 7601POPC   D2A55300  30.707  22.949   6.750
 7601POPC   C3A55301  30.743  22.969   7.050
 7601POPC   C4A55302  30.697  22.890   7.350
 7601POPC   C1B55303  30.947  22.970   6.450
 7601POPC   C2B55304  30.933  23.003   6.750
 7601POPC   C3B55305  30.947  22.998   7.050
 7601POPC   C4B55306  30.954  22.969   7.350
 7602POPC   NC355307  19.026  13.653   5.550
 7602POPC   PO455308  19.022  13.671   5.850
 7602POPC   GL155309  19.093  13.589   6.150
 7602POPC   GL255310  19.016  13.694   6.150
 7602POPC   C1A55311  19.099  13.662   6.450
 7602POPC   D2A55312  19.108  13.631   6.750
 7602POPC   C3A55313  19.084  13.662   7.050
 7602POPC   C4A55314  19.107  13.627   7.350
 7602POPC   C1B55315  18.895  13.798   6.450
 7602POPC   C2B55316  18.936  13.789   6.750
 7602POPC   C3B55317  18.894  13.841   7.050
 7602POPC   C4B55318  18.944  13.814   7.350
 7603POPC   NC355319   0.457   2.740   5.550
 7603POPC   PO455320   0.426   2.732   5.850
 7603POPC   GL155321   0.475   2.740   6.150
 7603POPC   GL255322   0.415   2.842   6.150
 7603POPC   C1A55323   0.452   2.812   6.450
 7603POPC   D2A55324   0.459   2.805   6.750
 7603POPC   C3A55325   0.450   2.798   7.050
 7603POPC   C4A55326   0.473   2.801   7.350
 7603POPC   C1B55327   0.372   3.054   6.450
 7603POPC   C2B55328   0.327   3.008   6.750
 7603POPC   C3B55329   0.408   2.995   7.050
 7603POPC   C4B55330   0.320   2.966   7.350
 7604POPC   NC355331  17.502  13.631   5.550
 7604POPC   PO455332  17.546  13.628   5.850
 7604POPC   GL155333  17.548  13.603   6.150
 7604POPC   GL255334  17.589  13.748   6.150
 7604POPC   C1A55335  17.471  13.592   6.450
 7604POPC   D2A55336  17.555  13.630   6.750
 7604POPC   C3A55337  17.470  13.670   7.050
 7604POPC   C4A55338  17.486  13.632   7.350
 7604POPC   C1B55339  17.677  13.735   6.450
 7604POPC   C2B55340  17.730  13.732   6.750
 7604POPC   C3B55341  17.704  13.787   7.050
 7604POPC   C4B55342  17.755  13.798   7.350
 7605POPC   NC355343  36.141  25.222   5.550
 7605POPC   PO455344  36.105  25.311   5.850
 7605POPC   GL155345  36.147  25.298   6.150
 7605POPC   GL255346  36.027  25.363   6.150
 7605POPC   C1A55347  36.119  25.223   6.450
 7605POPC   D2A55348  36.134  25.220   6.750
 7605POPC   C3A55349  36.123  25.277   7.050
 7605POPC   C4A55350  36.135  25.305   7.350
 7605POPC   C1B55351  35.923  25.371   6.450
 7605POPC   C2B55352  35.861  25.353   6.750
 7605POPC   C3B55353  35.861  25.347   7.050
 7605POPC   C4B55354  35.933  25.403   7.350
 7606POPC   NC355355  27.632  19.011   5.550
 7606POPC   PO455356  27.564  19.096   5.850
 7606POPC   GL155357  27.588  19.078   6.150
 7606POPC   GL255358  27.736  19.067   6.150
 7606POPC   C1A55359  27.565  19.016   6.450
 7606POPC   D2A55360  27.544  19.049   6.750
 7606POPC   C3A55361  27.554  19.046   7.050
 7606POPC   C4A55362  27.545  19.094   7.350
 7606POPC   C1B55363  27.841  19.116   6.450
 7606POPC   C2B55364  27.843  19.125   6.750
 7606POPC   C3B55365  27.795  19.098   7.050
 7606POPC   C4B55366  27.803  19.155   7.350
 7607POPC   NC355367  30.708  42.311   5.550
 7607POPC   PO455368  30.716  42.295   5.850
 7607POPC   GL155369  30.716  42.327   6.150
 7607POPC   GL255370  30.799  42.297   6.150
 7607POPC   C1A55371  30.692  42.375   6.450
 7607POPC   D2A55372  30.680  42.368   6.750
 7607POPC   C3A55373  30.740  42.346   7.050
 7607POPC   C4A55374  30.681  42.295   7.350
 7607POPC   C1B55375  30.866  42.200   6.450
 7607POPC   C2B55376  30.923  42.212   6.750
 7607POPC   C3B55377  30.938  42.189   7.050
 7607POPC   C4B55378  30.869  42.225   7.350
 7608POPC   NC355379  13.594  18.319   5.550
 7608POPC   PO455380  13.603  18.265   5.850
 7608POPC   GL155381  13.652  18.236   6.150
 7608POPC   GL255382  13.486  18.365   6.150
 7608POPC   C1A55383  13.580  18.235   6.450
 7608POPC   D2A55384  13.667  18.331   6.750
 7608POPC   C3A55385  13.606  18.329   7.050
 7608POPC   C4A55386  13.627  18.299   7.350
 7608POPC   C1B55387  13.397  18.365   6.450
 7608POPC   C2B55388  13.388  18.375   6.750
 7608POPC   C3B55389  13.415  18.390   7.050
 7608POPC   C4B55390  13.404  18.346   7.350
 7609POPC   NC355391  12.870  14.422   5.550
 7609POPC   PO455392  12.892  14.373   5.850
 7609POPC   GL155393  12.833  14.442   6.150
 7609POPC   GL255394  12.764  14.255   6.150
 7609POPC   C1A55395  12.821  14.400   6.450
 7609POPC   D2A55396  12.853  14.385   6.750
 7609POPC   C3A55397  12.852  14.426   7.050
 7609POPC   C4A55398  12.844  14.396   7.350
 7609POPC   C1B55399  12.698  14.229   6.450
 7609POPC   C2B55400  12.775  14.225   6.750
 7609POPC   C3B55401  12.743  14.158   7.050
 7609POPC   C4B55402  12.778  14.150   7.350
 7610POPC   NC355403  19.079  23.690   5.550
 7610POPC   PO455404  19.009  23.691   5.850
 7610POPC   GL155405  19.069  23.733   6.150
 7610POPC   GL255406  18.909  23.717   6.150
 7610POPC   C1A55407  19.053  23.748   6.450
 7610POPC   D2A55408  19.067  23.683   6.750
 7610POPC   C3A55409  19.053  23.752   7.050
 7610POPC   C4A55410  19.027  23.752   7.350
 7610POPC   C1B55411  18.839  23.590   6.450
 7610POPC   C2B55412  18.827  23.650   6.750
 7610POPC   C3B55413  18.841  23.608   7.050
 7610POPC   C4B55414  18.854  23.620   7.350
 7611POPC   NC355415  43.907  23.716   5.550
 7611POPC   PO455416  43.841  23.668   5.850
 7611POPC   GL155417  43.917  23.694   6.150
 7611POPC   GL255418  44.002  23.697   6.150
 7611POPC   C1A55419  43.920  23.738   6.450
 7611POPC   D2A55420  43.880  23.666   6.750
 7611POPC   C3A55421  43.931  23.690   7.050
 7611POPC   C4A55422  43.854  23.759   7.350
 7611POPC   C1B55423  44.121  23.755   6.450
 7611POPC   C2B55424  44.148  23.779   6.750
 7611POPC   C3B55425  44.154  23.801   7.050
 7611POPC   C4B55426  44.174  23.803   7.350
 7612POPC   NC355427  23.743  41.530   5.550
 7612POPC   PO455428  23.698  41.570   5.850
 7612POPC   GL155429  23.684  41.608   6.150
 7612POPC   GL255430  23.861  41.559   6.150
 7612POPC   C1A55431  23.729  41.583   6.450
 7612POPC   D2A55432  23.664  41.570   6.750
 7612POPC   C3A55433  23.725  41.557   7.050
 7612POPC   C4A55434  23.670  41.570   7.350
 7612POPC   C1B55435  24.004  41.601   6.450
 7612POPC   C2B55436  23.981  41.561   6.750
 7612POPC   C3B55437  23.945  41.562   7.050
 7612POPC   C4B55438  23.917  41.546   7.350
 7613POPC   NC355439  44.670   2.807   5.550
 7613POPC   PO455440  44.693   2.791   5.850
 7613POPC   GL155441  44.705   2.773   6.150
 7613POPC   GL255442  44.547   2.825   6.150
 7613POPC   C1A55443  44.625   2.771   6.450
 7613POPC   D2A55444  44.647   2.775   6.750
 7613POPC   C3A55445  44.696   2.799   7.050
 7613POPC   C4A55446  44.685   2.806   7.350
 7613POPC   C1B55447  44.455   2.811   6.450
 7613POPC   C2B55448  44.401   2.796   6.750
 7613POPC   C3B55449  44.429   2.780   7.050
 7613POPC   C4B55450  44.418   2.840   7.350
 7614POPC   NC355451  27.587  30.664   5.550
 7614POPC   PO455452  27.618  30.692   5.850
 7614POPC   GL155453  27.582  30.686   6.150
 7614POPC   GL255454  27.507  30.802   6.150
 7614POPC   C1A55455  27.605  30.726   6.450
 7614POPC   D2A55456  27.595  30.743   6.750
 7614POPC   C3A55457  27.622  30.683   7.050
 7614POPC   C4A55458  27.552  30.670   7.350
 7614POPC   C1B55459  27.518  30.893   6.450
 7614POPC   C2B55460  27.501  30.968   6.750
 7614POPC   C3B55461  27.514  30.950   7.050
 7614POPC   C4B55462  27.485  30.923   7.350
 7615POPC   NC355463  39.218   2.017   5.550
 7615POPC   PO455464  39.238   2.026   5.850
 7615POPC   GL155465  39.274   2.028   6.150
 7615POPC   GL255466  39.296   1.958   6.150
 7615POPC   C1A55467  39.269   2.017   6.450
 7615POPC   D2A55468  39.190   2.011   6.750
 7615POPC   C3A55469  39.267   2.022   7.050
 7615POPC   C4A55470  39.215   1.979   7.350
 7615POPC   C1B55471  39.482   1.836   6.450
 7615POPC   C2B55472  39.434   1.827   6.750
 7615POPC   C3B55473  39.387   1.891   7.050
 7615POPC   C4B55474  39.480   1.811   7.350
 7616POPC   NC355475  40.791  22.163   5.550
 7616POPC   PO455476  40.816  22.120   5.850
 7616POPC   GL155477  40.764  22.212   6.150
 7616POPC   GL255478  40.877  22.127   6.150
 7616POPC   C1A55479  40.798  22.166   6.450
 7616POPC   D2A55480  40.826  22.131   6.750
 7616POPC   C3A55481  40.743  22.124   7.050
 7616POPC   C4A55482  40.751  22.136   7.350
 7616POPC   C1B55483  41.014  22.162   6.450
 7616POPC   C2B55484  41.015  22.099   6.750
 7616POPC   C3B55485  41.053  22.178   7.050
 7616POPC   C4B55486  41.020  22.097   7.350
 7617POPC   NC355487   6.646  43.915   5.550
 7617POPC   PO455488   6.612  43.858   5.850
 7617POPC   GL155489   6.620  43.906   6.150
 7617POPC   GL255490   6.654  44.040   6.150
 7617POPC   C1A55491   6.690  43.905   6.450
 7617POPC   D2A55492   6.683  43.888   6.750
 7617POPC   C3A55493   6.672  43.893   7.050
 7617POPC   C4A55494   6.668  43.926   7.350
 7617POPC   C1B55495   6.540  44.147   6.450
 7617POPC   C2B55496   6.627  44.170   6.750
 7617POPC   C3B55497   6.544  44.100   7.050
 7617POPC   C4B55498   6.533  44.157   7.350
 7618POPC   NC355499   9.744  25.242   5.550
 7618POPC   PO455500   9.763  25.245   5.850
 7618POPC   GL155501   9.731  25.230   6.150
 7618POPC   GL255502   9.720  25.179   6.150
 7618POPC   C1A55503   9.706  25.222   6.450
 7618POPC   D2A55504   9.770  25.282   6.750
 7618POPC   C3A55505   9.731  25.236   7.050
 7618POPC   C4A55506   9.739  25.302   7.350
 7618POPC   C1B55507   9.769  24.992   6.450
 7618POPC   C2B55508   9.785  24.989   6.750
 7618POPC   C3B55509   9.811  25.004   7.050
 7618POPC   C4B55510   9.771  24.983   7.350
 7619POPC   NC355511  39.244  33.830   5.550
 7619POPC   PO455512  39.231  33.793   5.850
 7619POPC   GL155513  39.194  33.797   6.150
 7619POPC   GL255514  39.363  33.751   6.150
 7619POPC   C1A55515  39.204  33.820   6.450
 7619POPC   D2A55516  39.259  33.765   6.750
 7619POPC   C3A55517  39.217  33.802   7.050
 7619POPC   C4A55518  39.253  33.803   7.350
 7619POPC   C1B55519  39.438  33.621   6.450
 7619POPC   C2B55520  39.429  33.620   6.750
 7619POPC   C3B55521  39.468  33.620   7.050
 7619POPC   C4B55522  39.472  33.670   7.350
 7620POPC   NC355523  15.134  42.338   5.550
 7620POPC   PO455524  15.187  42.303   5.850
 7620POPC   GL155525  15.194  42.295   6.150
 7620POPC   GL255526  15.317  42.228   6.150
 7620POPC   C1A55527  15.222  42.365   6.450
 7620POPC   D2A55528  15.205  42.366   6.750
 7620POPC   C3A55529  15.221  42.370   7.050
 7620POPC   C4A55530  15.141  42.322   7.350
 7620POPC   C1B55531  15.411  42.222   6.450
 7620POPC   C2B55532  15.416  42.227   6.750
 7620POPC   C3B55533  15.377  42.207   7.050
 7620POPC   C4B55534  15.369  42.229   7.350
 7621POPC   NC355535   3.493  17.459   5.550
 7621POPC   PO455536   3.504  17.486   5.850
 7621POPC   GL155537   3.556  17.536   6.150
 7621POPC   GL255538   3.453  17.418   6.150
 7621POPC   C1A55539   3.577  17.549   6.450
 7621POPC   D2A55540   3.510  17.469   6.750
 7621POPC   C3A55541   3.501  17.509   7.050
 7621POPC   C4A55542   3.548  17.515   7.350
 7621POPC   C1B55543   3.279  17.407   6.450
 7621POPC   C2B55544   3.314  17.412   6.750
 7621POPC   C3B55545   3.346  17.407   7.050
 7621POPC   C4B55546   3.347  17.365   7.350
 7622POPC   NC355547  17.498  36.896   5.550
 7622POPC   PO455548  17.495  36.939   5.850
 7622POPC   GL155549  17.515  36.894   6.150
 7622POPC   GL255550  17.395  36.920   6.150
 7622POPC   C1A55551  17.492  36.922   6.450
 7622POPC   D2A55552  17.477  36.931   6.750
 7622POPC   C3A55553  17.505  36.914   7.050
 7622POPC   C4A55554  17.532  36.870   7.350
 7622POPC   C1B55555  17.289  37.013   6.450
 7622POPC   C2B55556  17.294  36.959   6.750
 7622POPC   C3B55557  17.307  36.969   7.050
 7622POPC   C4B55558  17.294  36.947   7.350
 7623POPC   NC355559  36.174  24.482   5.550
 7623POPC   PO455560  36.168  24.524   5.850
 7623POPC   GL155561  36.083  24.528   6.150
 7623POPC   GL255562  36.280  24.432   6.150
 7623POPC   C1A55563  36.145  24.444   6.450
 7623POPC   D2A55564  36.094  24.529   6.750
 7623POPC   C3A55565  36.135  24.454   7.050
 7623POPC   C4A55566  36.112  24.473   7.350
 7623POPC   C1B55567  36.394  24.372   6.450
 7623POPC   C2B55568  36.339  24.403   6.750
 7623POPC   C3B55569  36.342  24.326   7.050
 7623POPC   C4B55570  36.315  24.347   7.350
 7624POPC   NC355571  39.968  18.246   5.550
 7624POPC   PO455572  39.995  18.260   5.850
 7624POPC   GL155573  40.034  18.331   6.150
 7624POPC   GL255574  39.882  18.427   6.150
 7624POPC   C1A55575  39.965  18.278   6.450
 7624POPC   D2A55576  39.969  18.314   6.750
 7624POPC   C3A55577  40.003  18.257   7.050
 7624POPC   C4A55578  39.988  18.268   7.350
 7624POPC   C1B55579  39.826  18.436   6.450
 7624POPC   C2B55580  39.834  18.470   6.750
 7624POPC   C3B55581  39.810  18.464   7.050
 7624POPC   C4B55582  39.882  18.487   7.350
 7625POPC   NC355583  33.031  39.198   5.550
 7625POPC   PO455584  33.037  39.235   5.850
 7625POPC   GL155585  32.993  39.186   6.150
 7625POPC   GL255586  33.180  39.219   6.150
 7625POPC   C1A55587  33.052  39.242   6.450
 7625POPC   D2A55588  32.989  39.273   6.750
 7625POPC   C3A55589  32.984  39.255   7.050
 7625POPC   C4A55590  33.045  39.275   7.350
 7625POPC   C1B55591  33.218  39.126   6.450
 7625POPC   C2B55592  33.237  39.156   6.750
 7625POPC   C3B55593  33.256  39.155   7.050
 7625POPC   C4B55594  33.271  39.142   7.350
 7626POPC   NC355595  36.940  23.740   5.550
 7626POPC   PO455596  36.951  23.747   5.850
 7626POPC   GL155597  36.862  23.761   6.150
 7626POPC   GL255598  36.787  23.649   6.150
 7626POPC   C1A55599  36.875  23.686   6.450
 7626POPC   D2A55600  36.894  23.733   6.750
 7626POPC   C3A55601  36.864  23.682   7.050
 7626POPC   C4A55602  36.879  23.762   7.350
 7626POPC   C1B55603  36.636  23.720   6.450
 7626POPC   C2B55604  36.613  23.691   6.750
 7626POPC   C3B55605  36.638  23.646   7.050
 7626POPC   C4B55606  36.651  23.684   7.350
 7627POPC   NC355607   2.788  33.783   5.550
 7627POPC   PO455608   2.757  33.817   5.850
 7627POPC   GL155609   2.759  33.807   6.150
 7627POPC   GL255610   2.742  33.921   6.150
 7627POPC   C1A55611   2.788  33.807   6.450
 7627POPC   D2A55612   2.783  33.826   6.750
 7627POPC   C3A55613   2.799  33.787   7.050
 7627POPC   C4A55614   2.760  33.782   7.350
 7627POPC   C1B55615   2.690  34.037   6.450
 7627POPC   C2B55616   2.673  33.990   6.750
 7627POPC   C3B55617   2.665  34.013   7.050
 7627POPC   C4B55618   2.677  34.051   7.350
 7628POPC   NC355619  10.548  32.213   5.550
 7628POPC   PO455620  10.479  32.273   5.850
 7628POPC   GL155621  10.478  32.208   6.150
 7628POPC   GL255622  10.635  32.213   6.150
 7628POPC   C1A55623  10.573  32.202   6.450
 7628POPC   D2A55624  10.487  32.235   6.750
 7628POPC   C3A55625  10.573  32.257   7.050
 7628POPC   C4A55626  10.508  32.258   7.350
 7628POPC   C1B55627  10.734  32.230   6.450
 7628POPC   C2B55628  10.751  32.240   6.750
 7628POPC   C3B55629  10.795  32.277   7.050
 7628POPC   C4B55630  10.824  32.202   7.350
 7629POPC   NC355631  43.085  33.025   5.550
 7629POPC   PO455632  43.160  33.061   5.850
 7629POPC   GL155633  43.140  33.064   6.150
 7629POPC   GL255634  43.239  33.065   6.150
 7629POPC   C1A55635  43.124  32.988   6.450
 7629POPC   D2A55636  43.077  32.996   6.750
 7629POPC   C3A55637  43.116  32.994   7.050
 7629POPC   C4A55638  43.144  33.032   7.350
 7629POPC   C1B55639  43.377  33.012   6.450
 7629POPC   C2B55640  43.399  32.978   6.750
 7629POPC   C3B55641  43.405  33.011   7.050
 7629POPC   C4B55642  43.344  32.979   7.350
 7630POPC   NC355643  43.877  39.268   5.550
 7630POPC   PO455644  43.891  39.263   5.850
 7630POPC   GL155645  43.869  39.228   6.150
 7630POPC   GL255646  43.803  39.224   6.150
 7630POPC   C1A55647  43.894  39.224   6.450
 7630POPC   D2A55648  43.852  39.269   6.750
 7630POPC   C3A55649  43.880  39.256   7.050
 7630POPC   C4A55650  43.843  39.250   7.350
 7630POPC   C1B55651  43.637  39.228   6.450
 7630POPC   C2B55652  43.600  39.239   6.750
 7630POPC   C3B55653  43.640  39.295   7.050
 7630POPC   C4B55654  43.612  39.212   7.350
 7631POPC   NC355655  16.733  39.961   5.550
 7631POPC   PO455656  16.727  39.976   5.850
 7631POPC   GL155657  16.691  40.052   6.150
 7631POPC   GL255658  16.769  40.077   6.150
 7631POPC   C1A55659  16.710  39.963   6.450
 7631POPC   D2A55660  16.752  40.047   6.750
 7631POPC   C3A55661  16.779  39.971   7.050
 7631POPC   C4A55662  16.764  39.983   7.350
 7631POPC   C1B55663  16.852  40.194   6.450
 7631POPC   C2B55664  16.910  40.202   6.750
 7631POPC   C3B55665  16.882  40.230   7.050
 7631POPC   C4B55666  16.917  40.215   7.350
 7632POPC   NC355667  29.952  12.107   5.550
 7632POPC   PO455668  29.889  12.052   5.850
 7632POPC   GL155669  29.966  12.089   6.150
 7632POPC   GL255670  29.838  12.133   6.150
 7632POPC   C1A55671  29.897  12.034   6.450
 7632POPC   D2A55672  29.908  12.031   6.750
 7632POPC   C3A55673  29.967  12.063   7.050
 7632POPC   C4A55674  29.875  12.060   7.350
 7632POPC   C1B55675  29.636  12.124   6.450
 7632POPC   C2B55676  29.667  12.113   6.750
 7632POPC   C3B55677  29.623  12.056   7.050
 7632POPC   C4B55678  29.654  12.123   7.350
 7633POPC   NC355679  10.547  41.556   5.550
 7633POPC   PO455680  10.475  41.547   5.850
 7633POPC   GL155681  10.554  41.541   6.150
 7633POPC   GL255682  10.418  41.466   6.150
 7633POPC   C1A55683  10.511  41.540   6.450
 7633POPC   D2A55684  10.491  41.596   6.750
 7633POPC   C3A55685  10.528  41.532   7.050
 7633POPC   C4A55686  10.541  41.563   7.350
 7633POPC   C1B55687  10.390  41.352   6.450
 7633POPC   C2B55688  10.324  41.407   6.750
 7633POPC   C3B55689  10.367  41.407   7.050
 7633POPC   C4B55690  10.311  41.338   7.350
 7634POPC   NC355691  33.026  19.071   5.550
 7634POPC   PO455692  33.063  19.069   5.850
 7634POPC   GL155693  33.045  19.095   6.150
 7634POPC   GL255694  32.921  19.143   6.150
 7634POPC   C1A55695  33.001  19.093   6.450
 7634POPC   D2A55696  32.987  19.081   6.750
 7634POPC   C3A55697  33.065  19.085   7.050
 7634POPC   C4A55698  33.050  19.046   7.350
 7634POPC   C1B55699  32.853  19.279   6.450
 7634POPC   C2B55700  32.834  19.250   6.750
 7634POPC   C3B55701  32.860  19.207   7.050
 7634POPC   C4B55702  32.808  19.277   7.350
 7635POPC   NC355703  25.300   1.947   5.550
 7635POPC   PO455704  25.221   2.005   5.850
 7635POPC   GL155705  25.247   1.947   6.150
 7635POPC   GL255706  25.185   1.843   6.150
 7635POPC   C1A55707  25.227   1.952   6.450
 7635POPC   D2A55708  25.238   1.947   6.750
 7635POPC   C3A55709  25.237   1.998   7.050
 7635POPC   C4A55710  25.232   2.010   7.350
 7635POPC   C1B55711  25.171   1.774   6.450
 7635POPC   C2B55712  25.129   1.746   6.750
 7635POPC   C3B55713  25.171   1.772   7.050
 7635POPC   C4B55714  25.115   1.713   7.350
 7636POPC   NC355715  41.513  18.255   5.550
 7636POPC   PO455716  41.530  18.282   5.850
 7636POPC   GL155717  41.571  18.277   6.150
 7636POPC   GL255718  41.553  18.175   6.150
 7636POPC   C1A55719  41.606  18.316   6.450
 7636POPC   D2A55720  41.523  18.326   6.750
 7636POPC   C3A55721  41.538  18.288   7.050
 7636POPC   C4A55722  41.551  18.283   7.350
 7636POPC   C1B55723  41.554  18.065   6.450
 7636POPC   C2B55724  41.571  17.990   6.750
 7636POPC   C3B55725  41.579  18.008   7.050
 7636POPC   C4B55726  41.558  18.016   7.350
 7637POPC   NC355727  35.342  32.296   5.550
 7637POPC   PO455728  35.343  32.298   5.850
 7637POPC   GL155729  35.372  32.259   6.150
 7637POPC   GL255730  35.505  32.220   6.150
 7637POPC   C1A55731  35.303  32.219   6.450
 7637POPC   D2A55732  35.347  32.261   6.750
 7637POPC   C3A55733  35.360  32.292   7.050
 7637POPC   C4A55734  35.381  32.242   7.350
 7637POPC   C1B55735  35.630  32.160   6.450
 7637POPC   C2B55736  35.597  32.104   6.750
 7637POPC   C3B55737  35.544  32.163   7.050
 7637POPC   C4B55738  35.584  32.184   7.350
 7638POPC   NC355739  30.695  31.457   5.550
 7638POPC   PO455740  30.711  31.460   5.850
 7638POPC   GL155741  30.670  31.470   6.150
 7638POPC   GL255742  30.854  31.550   6.150
 7638POPC   C1A55743  30.732  31.444   6.450
 7638POPC   D2A55744  30.663  31.434   6.750
 7638POPC   C3A55745  30.736  31.436   7.050
 7638POPC   C4A55746  30.706  31.467   7.350
 7638POPC   C1B55747  30.938  31.605   6.450
 7638POPC   C2B55748  30.876  31.615   6.750
 7638POPC   C3B55749  30.948  31.609   7.050
 7638POPC   C4B55750  30.948  31.534   7.350
 7639POPC   NC355751   5.850   1.174   5.550
 7639POPC   PO455752   5.841   1.217   5.850
 7639POPC   GL155753   5.865   1.217   6.150
 7639POPC   GL255754   5.724   1.212   6.150
 7639POPC   C1A55755   5.894   1.233   6.450
 7639POPC   D2A55756   5.893   1.170   6.750
 7639POPC   C3A55757   5.865   1.171   7.050
 7639POPC   C4A55758   5.867   1.252   7.350
 7639POPC   C1B55759   5.656   1.213   6.450
 7639POPC   C2B55760   5.656   1.217   6.750
 7639POPC   C3B55761   5.607   1.285   7.050
 7639POPC   C4B55762   5.614   1.250   7.350
 7640POPC   NC355763  13.597  14.361   5.550
 7640POPC   PO455764  13.622  14.417   5.850
 7640POPC   GL155765  13.638  14.450   6.150
 7640POPC   GL255766  13.465  14.448   6.150
 7640POPC   C1A55767  13.604  14.453   6.450
 7640POPC   D2A55768  13.634  14.396   6.750
 7640POPC   C3A55769  13.603  14.425   7.050
 7640POPC   C4A55770  13.628  14.428   7.350
 7640POPC   C1B55771  13.400  14.523   6.450
 7640POPC   C2B55772  13.340  14.432   6.750
 7640POPC   C3B55773  13.425  14.443   7.050
 7640POPC   C4B55774  13.358  14.525   7.350
 7641POPC   NC355775  20.592   9.761   5.550
 7641POPC   PO455776  20.568   9.773   5.850
 7641POPC   GL155777  20.565   9.733   6.150
 7641POPC   GL255778  20.449   9.718   6.150
 7641POPC   C1A55779  20.644   9.725   6.450
 7641POPC   D2A55780  20.591   9.763   6.750
 7641POPC   C3A55781  20.632   9.783   7.050
 7641POPC   C4A55782  20.592   9.768   7.350
 7641POPC   C1B55783  20.407   9.737   6.450
 7641POPC   C2B55784  20.366   9.773   6.750
 7641POPC   C3B55785  20.409   9.755   7.050
 7641POPC   C4B55786  20.343   9.714   7.350
 7642POPC   NC355787  34.580  14.393   5.550
 7642POPC   PO455788  34.530  14.451   5.850
 7642POPC   GL155789  34.598  14.378   6.150
 7642POPC   GL255790  34.707  14.390   6.150
 7642POPC   C1A55791  34.607  14.436   6.450
 7642POPC   D2A55792  34.586  14.412   6.750
 7642POPC   C3A55793  34.606  14.384   7.050
 7642POPC   C4A55794  34.617  14.365   7.350
 7642POPC   C1B55795  34.771  14.370   6.450
 7642POPC   C2B55796  34.805  14.292   6.750
 7642POPC   C3B55797  34.826  14.349   7.050
 7642POPC   C4B55798  34.828  14.296   7.350
 7643POPC   NC355799  10.511  36.860   5.550
 7643POPC   PO455800  10.511  36.951   5.850
 7643POPC   GL155801  10.492  36.866   6.150
 7643POPC   GL255802  10.598  37.005   6.150
 7643POPC   C1A55803  10.558  36.868   6.450
 7643POPC   D2A55804  10.504  36.926   6.750
 7643POPC   C3A55805  10.503  36.879   7.050
 7643POPC   C4A55806  10.498  36.923   7.350
 7643POPC   C1B55807  10.664  37.105   6.450
 7643POPC   C2B55808  10.674  37.038   6.750
 7643POPC   C3B55809  10.727  37.028   7.050
 7643POPC   C4B55810  10.682  37.063   7.350
 7644POPC   NC355811  22.926  22.113   5.550
 7644POPC   PO455812  22.916  22.212   5.850
 7644POPC   GL155813  22.889  22.139   6.150
 7644POPC   GL255814  22.814  22.121   6.150
 7644POPC   C1A55815  22.955  22.207   6.450
 7644POPC   D2A55816  22.930  22.192   6.750
 7644POPC   C3A55817  22.929  22.172   7.050
 7644POPC   C4A55818  22.972  22.203   7.350
 7644POPC   C1B55819  22.687  22.126   6.450
 7644POPC   C2B55820  22.665  22.096   6.750
 7644POPC   C3B55821  22.724  22.147   7.050
 7644POPC   C4B55822  22.740  22.142   7.350
 7645POPC   NC355823   0.391  11.268   5.550
 7645POPC   PO455824   0.407  11.339   5.850
 7645POPC   GL155825   0.416  11.332   6.150
 7645POPC   GL255826   0.500  11.195   6.150
 7645POPC   C1A55827   0.479  11.303   6.450
 7645POPC   D2A55828   0.414  11.316   6.750
 7645POPC   C3A55829   0.398  11.271   7.050
 7645POPC   C4A55830   0.483  11.263   7.350
 7645POPC   C1B55831   0.665  11.142   6.450
 7645POPC   C2B55832   0.607  11.207   6.750
 7645POPC   C3B55833   0.603  11.145   7.050
 7645POPC   C4B55834   0.655  11.198   7.350
 7646POPC   NC355835  27.564  35.350   5.550
 7646POPC   PO455836  27.635  35.373   5.850
 7646POPC   GL155837  27.569  35.328   6.150
 7646POPC   GL255838  27.509  35.286   6.150
 7646POPC   C1A55839  27.600  35.368   6.450
 7646POPC   D2A55840  27.622  35.319   6.750
 7646POPC   C3A55841  27.606  35.327   7.050
 7646POPC   C4A55842  27.631  35.401   7.350
 7646POPC   C1B55843  27.517  35.086   6.450
 7646POPC   C2B55844  27.460  35.113   6.750
 7646POPC   C3B55845  27.457  35.134   7.050
 7646POPC   C4B55846  27.469  35.132   7.350
 7647POPC   NC355847  29.882  14.452   5.550
 7647POPC   PO455848  29.898  14.402   5.850
 7647POPC   GL155849  29.910  14.356   6.150
 7647POPC   GL255850  30.044  14.363   6.150
 7647POPC   C1A55851  29.897  14.399   6.450
 7647POPC   D2A55852  29.874  14.382   6.750
 7647POPC   C3A55853  29.926  14.413   7.050
 7647POPC   C4A55854  29.953  14.394   7.350
 7647POPC   C1B55855  30.174  14.285   6.450
 7647POPC   C2B55856  30.114  14.298   6.750
 7647POPC   C3B55857  30.200  14.280   7.050
 7647POPC   C4B55858  30.109  14.348   7.350
 7648POPC   NC355859   7.466   8.233   5.550
 7648POPC   PO455860   7.395   8.176   5.850
 7648POPC   GL155861   7.393   8.228   6.150
 7648POPC   GL255862   7.494   8.069   6.150
 7648POPC   C1A55863   7.412   8.242   6.450
 7648POPC   D2A55864   7.372   8.157   6.750
 7648POPC   C3A55865   7.422   8.202   7.050
 7648POPC   C4A55866   7.384   8.237   7.350
 7648POPC   C1B55867   7.538   7.954   6.450
 7648POPC   C2B55868   7.565   8.010   6.750
 7648POPC   C3B55869   7.512   7.940   7.050
 7648POPC   C4B55870   7.506   7.938   7.350
 7649POPC   NC355871  30.730  33.022   5.550
 7649POPC   PO455872  30.705  33.020   5.850
 7649POPC   GL155873  30.665  32.975   6.150
 7649POPC   GL255874  30.669  32.936   6.150
 7649POPC   C1A55875  30.697  33.006   6.450
 7649POPC   D2A55876  30.740  33.019   6.750
 7649POPC   C3A55877  30.654  33.024   7.050
 7649POPC   C4A55878  30.664  32.981   7.350
 7649POPC   C1B55879  30.579  32.771   6.450
 7649POPC   C2B55880  30.613  32.789   6.750
 7649POPC   C3B55881  30.634  32.795   7.050
 7649POPC   C4B55882  30.647  32.741   7.350
 7650POPC   NC355883  17.556  43.930   5.550
 7650POPC   PO455884  17.474  43.918   5.850
 7650POPC   GL155885  17.517  43.842   6.150
 7650POPC   GL255886  17.606  43.991   6.150
 7650POPC   C1A55887  17.545  43.861   6.450
 7650POPC   D2A55888  17.514  43.868   6.750
 7650POPC   C3A55889  17.529  43.839   7.050
 7650POPC   C4A55890  17.530  43.882   7.350
 7650POPC   C1B55891  17.666  44.044   6.450
 7650POPC   C2B55892  17.664  44.064   6.750
 7650POPC   C3B55893  17.656  44.040   7.050
 7650POPC   C4B55894  17.681  44.063   7.350
 7651POPC   NC355895   9.733   0.430   5.550
 7651POPC   PO455896   9.782   0.427   5.850
 7651POPC   GL155897   9.750   0.443   6.150
 7651POPC   GL255898   9.650   0.437   6.150
 7651POPC   C1A55899   9.770   0.451   6.450
 7651POPC   D2A55900   9.721   0.389   6.750
 7651POPC   C3A55901   9.740   0.454   7.050
 7651POPC   C4A55902   9.780   0.419   7.350
 7651POPC   C1B55903   9.549   0.525   6.450
 7651POPC   C2B55904   9.547   0.458   6.750
 7651POPC   C3B55905   9.506   0.544   7.050
 7651POPC   C4B55906   9.552   0.505   7.350
 7652POPC   NC355907  29.930  33.845   5.550
 7652POPC   PO455908  29.890  33.815   5.850
 7652POPC   GL155909  29.968  33.796   6.150
 7652POPC   GL255910  29.974  33.883   6.150
 7652POPC   C1A55911  29.913  33.761   6.450
 7652POPC   D2A55912  29.952  33.753   6.750
 7652POPC   C3A55913  29.872  33.823   7.050
 7652POPC   C4A55914  29.881  33.814   7.350
 7652POPC   C1B55915  30.089  33.925   6.450
 7652POPC   C2B55916  30.122  33.925   6.750
 7652POPC   C3B55917  30.131  33.928   7.050
 7652POPC   C4B55918  30.145  33.977   7.350
 7653POPC   NC355919  16.754   0.413   5.550
 7653POPC   PO455920  16.691   0.416   5.850
 7653POPC   GL155921  16.696   0.462   6.150
 7653POPC   GL255922  16.571   0.448   6.150
 7653POPC   C1A55923  16.725   0.421   6.450
 7653POPC   D2A55924  16.748   0.448   6.750
 7653POPC   C3A55925  16.735   0.445   7.050
 7653POPC   C4A55926  16.712   0.476   7.350
 7653POPC   C1B55927  16.512   0.565   6.450
 7653POPC   C2B55928  16.481   0.522   6.750
 7653POPC   C3B55929  16.538   0.576   7.050
 7653POPC   C4B55930  16.553   0.586   7.350
 7654POPC   NC355931  37.658  28.371   5.550
 7654POPC   PO455932  37.651  28.415   5.850
 7654POPC   GL155933  37.710  28.389   6.150
 7654POPC   GL255934  37.739  28.239   6.150
 7654POPC   C1A55935  37.684  28.356   6.450
 7654POPC   D2A55936  37.667  28.383   6.750
 7654POPC   C3A55937  37.673  28.380   7.050
 7654POPC   C4A55938  37.690  28.375   7.350
 7654POPC   C1B55939  37.693  28.160   6.450
 7654POPC   C2B55940  37.674  28.116   6.750
 7654POPC   C3B55941  37.705  28.111   7.050
 7654POPC   C4B55942  37.718  28.110   7.350
 7655POPC   NC355943  43.149  29.136   5.550
 7655POPC   PO455944  43.140  29.169   5.850
 7655POPC   GL155945  43.151  29.180   6.150
 7655POPC   GL255946  43.229  29.067   6.150
 7655POPC   C1A55947  43.073  29.133   6.450
 7655POPC   D2A55948  43.131  29.134   6.750
 7655POPC   C3A55949  43.159  29.101   7.050
 7655POPC   C4A55950  43.104  29.141   7.350
 7655POPC   C1B55951  43.263  29.010   6.450
 7655POPC   C2B55952  43.342  28.994   6.750
 7655POPC   C3B55953  43.303  28.969   7.050
 7655POPC   C4B55954  43.319  28.960   7.350
 7656POPC   NC355955  17.537  39.281   5.550
 7656POPC   PO455956  17.512  39.184   5.850
 7656POPC   GL155957  17.511  39.198   6.150
 7656POPC   GL255958  17.576  39.191   6.150
 7656POPC   C1A55959  17.488  39.267   6.450
 7656POPC   D2A55960  17.459  39.212   6.750
 7656POPC   C3A55961  17.471  39.209   7.050
 7656POPC   C4A55962  17.536  39.190   7.350
 7656POPC   C1B55963  17.721  39.047   6.450
 7656POPC   C2B55964  17.729  39.068   6.750
 7656POPC   C3B55965  17.694  39.040   7.050
 7656POPC   C4B55966  17.709  39.102   7.350
 7657POPC   NC355967  15.960  22.166   5.550
 7657POPC   PO455968  15.911  22.204   5.850
 7657POPC   GL155969  15.937  22.169   6.150
 7657POPC   GL255970  15.878  22.115   6.150
 7657POPC   C1A55971  15.968  22.148   6.450
 7657POPC   D2A55972  15.912  22.210   6.750
 7657POPC   C3A55973  15.975  22.194   7.050
 7657POPC   C4A55974  15.954  22.129   7.350
 7657POPC   C1B55975  15.729  22.095   6.450
 7657POPC   C2B55976  15.727  22.122   6.750
 7657POPC   C3B55977  15.670  22.133   7.050
 7657POPC   C4B55978  15.695  22.115   7.350
 7658POPC   NC355979   5.918  27.600   5.550
 7658POPC   PO455980   5.842  27.572   5.850
 7658POPC   GL155981   5.883  27.556   6.150
 7658POPC   GL255982   5.851  27.504   6.150
 7658POPC   C1A55983   5.887  27.564   6.450
 7658POPC   D2A55984   5.832  27.614   6.750
 7658POPC   C3A55985   5.891  27.601   7.050
 7658POPC   C4A55986   5.894  27.571   7.350
 7658POPC   C1B55987   5.818  27.397   6.450
 7658POPC   C2B55988   5.815  27.370   6.750
 7658POPC   C3B55989   5.821  27.387   7.050
 7658POPC   C4B55990   5.752  27.320   7.350
 7659POPC   NC355991  44.695  38.492   5.550
 7659POPC   PO455992  44.645  38.501   5.850
 7659POPC   GL155993  44.686  38.494   6.150
 7659POPC   GL255994  44.562  38.438   6.150
 7659POPC   C1A55995  44.672  38.488   6.450
 7659POPC   D2A55996  44.640  38.443   6.750
 7659POPC   C3A55997  44.706  38.435   7.050
 7659POPC   C4A55998  44.645  38.427   7.350
 7659POPC   C1B55999  44.387  38.481   6.450
 7659POPC   C2B56000  44.394  38.500   6.750
 7659POPC   C3B56001  44.375  38.451   7.050
 7659POPC   C4B56002  44.366  38.499   7.350
 7660POPC   NC356003  12.884  35.361   5.550
 7660POPC   PO456004  12.875  35.356   5.850
 7660POPC   GL156005  12.820  35.391   6.150
 7660POPC   GL256006  12.775  35.436   6.150
 7660POPC   C1A56007  12.882  35.399   6.450
 7660POPC   D2A56008  12.833  35.307   6.750
 7660POPC   C3A56009  12.808  35.353   7.050
 7660POPC   C4A56010  12.855  35.374   7.350
 7660POPC   C1B56011  12.701  35.525   6.450
 7660POPC   C2B56012  12.670  35.549   6.750
 7660POPC   C3B56013  12.649  35.573   7.050
 7660POPC   C4B56014  12.686  35.512   7.350
 7661POPC   NC356015  23.748  33.034   5.550
 7661POPC   PO456016  23.720  33.065   5.850
 7661POPC   GL156017  23.664  33.036   6.150
 7661POPC   GL256018  23.822  33.003   6.150
 7661POPC   C1A56019  23.699  32.979   6.450
 7661POPC   D2A56020  23.676  33.070   6.750
 7661POPC   C3A56021  23.685  32.979   7.050
 7661POPC   C4A56022  23.702  33.055   7.350
 7661POPC   C1B56023  23.974  32.925   6.450
 7661POPC   C2B56024  23.991  32.924   6.750
 7661POPC   C3B56025  23.985  32.952   7.050
 7661POPC   C4B56026  23.977  32.911   7.350
 7662POPC   NC356027  39.242  29.188   5.550
 7662POPC   PO456028  39.245  29.146   5.850
 7662POPC   GL156029  39.262  29.121   6.150
 7662POPC   GL256030  39.243  29.268   6.150
 7662POPC   C1A56031  39.253  29.193   6.450
 7662POPC   D2A56032  39.247  29.158   6.750
 7662POPC   C3A56033  39.256  29.165   7.050
 7662POPC   C4A56034  39.250  29.177   7.350
 7662POPC   C1B56035  39.277  29.364   6.450
 7662POPC   C2B56036  39.272  29.424   6.750
 7662POPC   C3B56037  39.251  29.375   7.050
 7662POPC   C4B56038  39.279  29.411   7.350
 7663POPC   NC356039   2.791  10.505   5.550
 7663POPC   PO456040   2.788  10.485   5.850
 7663POPC   GL156041   2.769  10.484   6.150
 7663POPC   GL256042   2.816  10.640   6.150
 7663POPC   C1A56043   2.722  10.555   6.450
 7663POPC   D2A56044   2.813  10.512   6.750
 7663POPC   C3A56045   2.722  10.568   7.050
 7663POPC   C4A56046   2.807  10.571   7.350
 7663POPC   C1B56047   2.743  10.808   6.450
 7663POPC   C2B56048   2.817  10.752   6.750
 7663POPC   C3B56049   2.779  10.731   7.050
 7663POPC   C4B56050   2.736  10.791   7.350
 7664POPC   NC356051  15.140  22.918   5.550
 7664POPC   PO456052  15.140  22.942   5.850
 7664POPC   GL156053  15.223  22.936   6.150
 7664POPC   GL256054  15.074  22.969   6.150
 7664POPC   C1A56055  15.138  22.929   6.450
 7664POPC   D2A56056  15.223  22.900   6.750
 7664POPC   C3A56057  15.209  22.950   7.050
 7664POPC   C4A56058  15.192  22.918   7.350
 7664POPC   C1B56059  14.963  22.975   6.450
 7664POPC   C2B56060  14.932  22.925   6.750
 7664POPC   C3B56061  14.886  22.996   7.050
 7664POPC   C4B56062  14.974  22.945   7.350
 7665POPC   NC356063  24.495   5.911   5.550
 7665POPC   PO456064  24.536   5.899   5.850
 7665POPC   GL156065  24.495   5.899   6.150
 7665POPC   GL256066  24.384   5.943   6.150
 7665POPC   C1A56067  24.523   5.848   6.450
 7665POPC   D2A56068  24.480   5.890   6.750
 7665POPC   C3A56069  24.526   5.889   7.050
 7665POPC   C4A56070  24.475   5.874   7.350
 7665POPC   C1B56071  24.343   6.081   6.450
 7665POPC   C2B56072  24.309   6.109   6.750
 7665POPC   C3B56073  24.333   6.059   7.050
 7665POPC   C4B56074  24.307   6.034   7.350
 7666POPC   NC356075   3.501  38.440   5.550
 7666POPC   PO456076   3.533  38.459   5.850
 7666POPC   GL156077   3.518  38.439   6.150
 7666POPC   GL256078   3.690  38.387   6.150
 7666POPC   C1A56079   3.574  38.492   6.450
 7666POPC   D2A56080   3.585  38.454   6.750
 7666POPC   C3A56081   3.519  38.443   7.050
 7666POPC   C4A56082   3.528  38.416   7.350
 7666POPC   C1B56083   3.777  38.399   6.450
 7666POPC   C2B56084   3.748  38.390   6.750
 7666POPC   C3B56085   3.774  38.407   7.050
 7666POPC   C4B56086   3.768  38.338   7.350
 7667POPC   NC356087  19.104   4.274   5.550
 7667POPC   PO456088  19.071   4.326   5.850
 7667POPC   GL156089  19.050   4.357   6.150
 7667POPC   GL256090  19.076   4.418   6.150
 7667POPC   C1A56091  19.087   4.353   6.450
 7667POPC   D2A56092  19.039   4.338   6.750
 7667POPC   C3A56093  19.079   4.326   7.050
 7667POPC   C4A56094  19.107   4.348   7.350
 7667POPC   C1B56095  19.145   4.527   6.450
 7667POPC   C2B56096  19.107   4.581   6.750
 7667POPC   C3B56097  19.109   4.551   7.050
 7667POPC   C4B56098  19.131   4.612   7.350
 7668POPC   NC356099  36.169  11.251   5.550
 7668POPC   PO456100  36.173  11.313   5.850
 7668POPC   GL156101  36.142  11.343   6.150
 7668POPC   GL256102  36.237  11.385   6.150
 7668POPC   C1A56103  36.119  11.305   6.450
 7668POPC   D2A56104  36.132  11.300   6.750
 7668POPC   C3A56105  36.145  11.335   7.050
 7668POPC   C4A56106  36.097  11.337   7.350
 7668POPC   C1B56107  36.308  11.453   6.450
 7668POPC   C2B56108  36.349  11.496   6.750
 7668POPC   C3B56109  36.349  11.433   7.050
 7668POPC   C4B56110  36.339  11.414   7.350
 7669POPC   NC356111  14.426  25.222   5.550
 7669POPC   PO456112  14.362  25.225   5.850
 7669POPC   GL156113  14.379  25.257   6.150
 7669POPC   GL256114  14.464  25.388   6.150
 7669POPC   C1A56115  14.371  25.298   6.450
 7669POPC   D2A56116  14.360  25.291   6.750
 7669POPC   C3A56117  14.415  25.314   7.050
 7669POPC   C4A56118  14.366  25.229   7.350
 7669POPC   C1B56119  14.506  25.447   6.450
 7669POPC   C2B56120  14.587  25.421   6.750
 7669POPC   C3B56121  14.555  25.458   7.050
 7669POPC   C4B56122  14.554  25.457   7.350
 7670POPC   NC356123  41.569  41.591   5.550
 7670POPC   PO456124  41.600  41.556   5.850
 7670POPC   GL156125  41.540  41.513   6.150
 7670POPC   GL256126  41.503  41.459   6.150
 7670POPC   C1A56127  41.544  41.589   6.450
 7670POPC   D2A56128  41.538  41.535   6.750
 7670POPC   C3A56129  41.594  41.545   7.050
 7670POPC   C4A56130  41.539  41.512   7.350
 7670POPC   C1B56131  41.553  41.297   6.450
 7670POPC   C2B56132  41.547  41.348   6.750
 7670POPC   C3B56133  41.550  41.351   7.050
 7670POPC   C4B56134  41.529  41.319   7.350
 7671POPC   NC356135  25.282  40.801   5.550
 7671POPC   PO456136  25.277  40.750   5.850
 7671POPC   GL156137  25.279  40.747   6.150
 7671POPC   GL256138  25.128  40.694   6.150
 7671POPC   C1A56139  25.245  40.764   6.450
 7671POPC   D2A56140  25.287  40.781   6.750
 7671POPC   C3A56141  25.246  40.801   7.050
 7671POPC   C4A56142  25.238  40.796   7.350
 7671POPC   C1B56143  25.115  40.648   6.450
 7671POPC   C2B56144  25.103  40.600   6.750
 7671POPC   C3B56145  25.125  40.650   7.050
 7671POPC   C4B56146  25.131  40.654   7.350
 7672POPC   NC356147  17.466  37.718   5.550
 7672POPC   PO456148  17.471  37.718   5.850
 7672POPC   GL156149  17.554  37.689   6.150
 7672POPC   GL256150  17.635  37.579   6.150
 7672POPC   C1A56151  17.534  37.648   6.450
 7672POPC   D2A56152  17.509  37.716   6.750
 7672POPC   C3A56153  17.507  37.713   7.050
 7672POPC   C4A56154  17.494  37.708   7.350
 7672POPC   C1B56155  17.700  37.473   6.450
 7672POPC   C2B56156  17.743  37.496   6.750
 7672POPC   C3B56157  17.673  37.516   7.050
 7672POPC   C4B56158  17.699  37.502   7.350
 7673POPC   NC356159  23.742   0.411   5.550
 7673POPC   PO456160  23.746   0.395   5.850
 7673POPC   GL156161  23.754   0.408   6.150
 7673POPC   GL256162  23.625   0.466   6.150
 7673POPC   C1A56163  23.743   0.419   6.450
 7673POPC   D2A56164  23.735   0.477   6.750
 7673POPC   C3A56165  23.716   0.407   7.050
 7673POPC   C4A56166  23.688   0.405   7.350
 7673POPC   C1B56167  23.515   0.598   6.450
 7673POPC   C2B56168  23.492   0.566   6.750
 7673POPC   C3B56169  23.504   0.602   7.050
 7673POPC   C4B56170  23.537   0.604   7.350
 7674POPC   NC356171  33.847  12.036   5.550
 7674POPC   PO456172  33.754  12.079   5.850
 7674POPC   GL156173  33.805  12.030   6.150
 7674POPC   GL256174  33.735  12.140   6.150
 7674POPC   C1A56175  33.838  12.076   6.450
 7674POPC   D2A56176  33.785  12.082   6.750
 7674POPC   C3A56177  33.836  12.073   7.050
 7674POPC   C4A56178  33.821  12.120   7.350
 7674POPC   C1B56179  33.607  12.216   6.450
 7674POPC   C2B56180  33.596  12.207   6.750
 7674POPC   C3B56181  33.531  12.159   7.050
 7674POPC   C4B56182  33.549  12.231   7.350
 7675POPC   NC356183  33.765  26.017   5.550
 7675POPC   PO456184  33.841  26.005   5.850
 7675POPC   GL156185  33.793  26.071   6.150
 7675POPC   GL256186  33.865  26.102   6.150
 7675POPC   C1A56187  33.810  26.062   6.450
 7675POPC   D2A56188  33.751  26.083   6.750
 7675POPC   C3A56189  33.768  26.091   7.050
 7675POPC   C4A56190  33.790  26.064   7.350
 7675POPC   C1B56191  33.920  26.264   6.450
 7675POPC   C2B56192  33.968  26.202   6.750
 7675POPC   C3B56193  33.961  26.277   7.050
 7675POPC   C4B56194  33.966  26.244   7.350
 7676POPC   NC356195  22.165  35.332   5.550
 7676POPC   PO456196  22.127  35.334   5.850
 7676POPC   GL156197  22.163  35.401   6.150
 7676POPC   GL256198  22.268  35.318   6.150
 7676POPC   C1A56199  22.156  35.358   6.450
 7676POPC   D2A56200  22.150  35.307   6.750
 7676POPC   C3A56201  22.150  35.320   7.050
 7676POPC   C4A56202  22.183  35.345   7.350
 7676POPC   C1B56203  22.360  35.200   6.450
 7676POPC   C2B56204  22.412  35.198   6.750
 7676POPC   C3B56205  22.386  35.262   7.050
 7676POPC   C4B56206  22.337  35.188   7.350
 7677POPC   NC356207  44.703  23.696   5.550
 7677POPC   PO456208  44.638  23.680   5.850
 7677POPC   GL156209  44.623  23.759   6.150
 7677POPC   GL256210  44.570  23.793   6.150
 7677POPC   C1A56211  44.700  23.684   6.450
 7677POPC   D2A56212  44.672  23.750   6.750
 7677POPC   C3A56213  44.628  23.743   7.050
 7677POPC   C4A56214  44.668  23.665   7.350
 7677POPC   C1B56215  44.448  23.827   6.450
 7677POPC   C2B56216  44.410  23.769   6.750
 7677POPC   C3B56217  44.411  23.824   7.050
 7677POPC   C4B56218  44.471  23.791   7.350
 7678POPC   NC356219  41.538   4.324   5.550
 7678POPC   PO456220  41.605   4.311   5.850
 7678POPC   GL156221  41.517   4.347   6.150
 7678POPC   GL256222  41.673   4.272   6.150
 7678POPC   C1A56223  41.559   4.347   6.450
 7678POPC   D2A56224  41.509   4.316   6.750
 7678POPC   C3A56225  41.518   4.289   7.050
 7678POPC   C4A56226  41.606   4.364   7.350
 7678POPC   C1B56227  41.777   4.232   6.450
 7678POPC   C2B56228  41.840   4.220   6.750
 7678POPC   C3B56229  41.799   4.216   7.050
 7678POPC   C4B56230  41.842   4.290   7.350
 7679POPC   NC356231   3.501  12.081   5.550
 7679POPC   PO456232   3.580  12.083   5.850
 7679POPC   GL156233   3.507  12.070   6.150
 7679POPC   GL256234   3.619  12.141   6.150
 7679POPC   C1A56235   3.539  12.089   6.450
 7679POPC   D2A56236   3.588  12.073   6.750
 7679POPC   C3A56237   3.534  12.054   7.050
 7679POPC   C4A56238   3.521  12.071   7.350
 7679POPC   C1B56239   3.748  12.172   6.450
 7679POPC   C2B56240   3.814  12.183   6.750
 7679POPC   C3B56241   3.809  12.124   7.050
 7679POPC   C4B56242   3.812  12.171   7.350
 7680POPC   NC356243  19.011  31.475   5.550
 7680POPC   PO456244  19.086  31.467   5.850
 7680POPC   GL156245  19.034  31.487   6.150
 7680POPC   GL256246  19.027  31.555   6.150
 7680POPC   C1A56247  19.025  31.428   6.450
 7680POPC   D2A56248  19.106  31.518   6.750
 7680POPC   C3A56249  19.028  31.511   7.050
 7680POPC   C4A56250  19.060  31.426   7.350
 7680POPC   C1B56251  19.040  31.696   6.450
 7680POPC   C2B56252  19.095  31.698   6.750
 7680POPC   C3B56253  19.015  31.743   7.050
 7680POPC   C4B56254  19.029  31.678   7.350
 7681POPC   NC356255  44.706  19.847   5.550
 7681POPC   PO456256  44.616  19.828   5.850
 7681POPC   GL156257  44.711  19.817   6.150
 7681POPC   GL256258  44.578  19.757   6.150
 7681POPC   C1A56259  44.616  19.810   6.450
 7681POPC   D2A56260  44.628  19.841   6.750
 7681POPC   C3A56261  44.685  19.791   7.050
 7681POPC   C4A56262  44.620  19.862   7.350
 7681POPC   C1B56263  44.465  19.808   6.450
 7681POPC   C2B56264  44.446  19.748   6.750
 7681POPC   C3B56265  44.414  19.782   7.050
 7681POPC   C4B56266  44.381  19.758   7.350
 7682POPC   NC356267  34.587  26.010   5.550
 7682POPC   PO456268  34.623  26.088   5.850
 7682POPC   GL156269  34.589  26.036   6.150
 7682POPC   GL256270  34.573  26.201   6.150
 7682POPC   C1A56271  34.585  26.036   6.450
 7682POPC   D2A56272  34.555  26.036   6.750
 7682POPC   C3A56273  34.613  26.029   7.050
 7682POPC   C4A56274  34.552  25.996   7.350
 7682POPC   C1B56275  34.535  26.245   6.450
 7682POPC   C2B56276  34.476  26.292   6.750
 7682POPC   C3B56277  34.472  26.309   7.050
 7682POPC   C4B56278  34.468  26.280   7.350
 7683POPC   NC356279  11.293  25.290   5.550
 7683POPC   PO456280  11.299  25.239   5.850
 7683POPC   GL156281  11.279  25.244   6.150
 7683POPC   GL256282  11.226  25.299   6.150
 7683POPC   C1A56283  11.311  25.309   6.450
 7683POPC   D2A56284  11.312  25.295   6.750
 7683POPC   C3A56285  11.347  25.239   7.050
 7683POPC   C4A56286  11.325  25.296   7.350
 7683POPC   C1B56287  11.122  25.435   6.450
 7683POPC   C2B56288  11.122  25.426   6.750
 7683POPC   C3B56289  11.051  25.438   7.050
 7683POPC   C4B56290  11.133  25.412   7.350
 7684POPC   NC356291  42.297  22.169   5.550
 7684POPC   PO456292  42.380  22.175   5.850
 7684POPC   GL156293  42.365  22.185   6.150
 7684POPC   GL256294  42.289  22.104   6.150
 7684POPC   C1A56295  42.296  22.182   6.450
 7684POPC   D2A56296  42.355  22.116   6.750
 7684POPC   C3A56297  42.300  22.118   7.050
 7684POPC   C4A56298  42.315  22.166   7.350
 7684POPC   C1B56299  42.124  21.955   6.450
 7684POPC   C2B56300  42.143  21.942   6.750
 7684POPC   C3B56301  42.139  21.996   7.050
 7684POPC   C4B56302  42.196  21.957   7.350
 7685POPC   NC356303  19.844   3.533   5.550
 7685POPC   PO456304  19.864   3.568   5.850
 7685POPC   GL156305  19.879   3.561   6.150
 7685POPC   GL256306  19.835   3.616   6.150
 7685POPC   C1A56307  19.879   3.544   6.450
 7685POPC   D2A56308  19.852   3.553   6.750
 7685POPC   C3A56309  19.836   3.530   7.050
 7685POPC   C4A56310  19.800   3.559   7.350
 7685POPC   C1B56311  19.807   3.820   6.450
 7685POPC   C2B56312  19.722   3.754   6.750
 7685POPC   C3B56313  19.787   3.747   7.050
 7685POPC   C4B56314  19.729   3.829   7.350
 7686POPC   NC356315  44.663  20.656   5.550
 7686POPC   PO456316  44.679  20.650   5.850
 7686POPC   GL156317  44.658  20.600   6.150
 7686POPC   GL256318  44.552  20.726   6.150
 7686POPC   C1A56319  44.625  20.623   6.450
 7686POPC   D2A56320  44.674  20.659   6.750
 7686POPC   C3A56321  44.635  20.565   7.050
 7686POPC   C4A56322  44.656  20.626   7.350
 7686POPC   C1B56323  44.570  20.846   6.450
 7686POPC   C2B56324  44.485  20.835   6.750
 7686POPC   C3B56325  44.548  20.776   7.050
 7686POPC   C4B56326  44.494  20.784   7.350
 7687POPC   NC356327  38.461  17.492   5.550
 7687POPC   PO456328  38.492  17.536   5.850
 7687POPC   GL156329  38.477  17.485   6.150
 7687POPC   GL256330  38.527  17.547   6.150
 7687POPC   C1A56331  38.414  17.541   6.450
 7687POPC   D2A56332  38.471  17.494   6.750
 7687POPC   C3A56333  38.470  17.502   7.050
 7687POPC   C4A56334  38.476  17.474   7.350
 7687POPC   C1B56335  38.686  17.566   6.450
 7687POPC   C2B56336  38.686  17.556   6.750
 7687POPC   C3B56337  38.702  17.588   7.050
 7687POPC   C4B56338  38.737  17.585   7.350
 7688POPC   NC356339  11.310  32.273   5.550
 7688POPC   PO456340  11.277  32.210   5.850
 7688POPC   GL156341  11.267  32.212   6.150
 7688POPC   GL256342  11.140  32.218   6.150
 7688POPC   C1A56343  11.337  32.219   6.450
 7688POPC   D2A56344  11.310  32.211   6.750
 7688POPC   C3A56345  11.305  32.200   7.050
 7688POPC   C4A56346  11.272  32.295   7.350
 7688POPC   C1B56347  11.010  32.245   6.450
 7688POPC   C2B56348  11.063  32.183   6.750
 7688POPC   C3B56349  11.058  32.228   7.050
 7688POPC   C4B56350  11.077  32.205   7.350
 7689POPC   NC356351   6.616  32.979   5.550
 7689POPC   PO456352   6.665  32.997   5.850
 7689POPC   GL156353   6.599  33.002   6.150
 7689POPC   GL256354   6.567  32.983   6.150
 7689POPC   C1A56355   6.609  32.981   6.450
 7689POPC   D2A56356   6.615  32.995   6.750
 7689POPC   C3A56357   6.600  33.019   7.050
 7689POPC   C4A56358   6.672  33.051   7.350
 7689POPC   C1B56359   6.372  33.045   6.450
 7689POPC   C2B56360   6.401  33.076   6.750
 7689POPC   C3B56361   6.413  32.995   7.050
 7689POPC   C4B56362   6.391  33.043   7.350
 7690POPC   NC356363  43.875  36.933   5.550
 7690POPC   PO456364  43.853  36.942   5.850
 7690POPC   GL156365  43.860  36.943   6.150
 7690POPC   GL256366  43.953  36.786   6.150
 7690POPC   C1A56367  43.927  36.899   6.450
 7690POPC   D2A56368  43.890  36.953   6.750
 7690POPC   C3A56369  43.919  36.944   7.050
 7690POPC   C4A56370  43.904  36.879   7.350
 7690POPC   C1B56371  43.979  36.693   6.450
 7690POPC   C2B56372  43.965  36.682   6.750
 7690POPC   C3B56373  43.957  36.671   7.050
 7690POPC   C4B56374  43.974  36.655   7.350
 7691POPC   NC356375   1.209  36.131   5.550
 7691POPC   PO456376   1.234  36.174   5.850
 7691POPC   GL156377   1.217  36.143   6.150
 7691POPC   GL256378   1.354  36.099   6.150
 7691POPC   C1A56379   1.164  36.097   6.450
 7691POPC   D2A56380   1.235  36.112   6.750
 7691POPC   C3A56381   1.168  36.160   7.050
 7691POPC   C4A56382   1.166  36.152   7.350
 7691POPC   C1B56383   1.469  36.108   6.450
 7691POPC   C2B56384   1.422  36.136   6.750
 7691POPC   C3B56385   1.478  36.174   7.050
 7691POPC   C4B56386   1.431  36.121   7.350
 7692POPC   NC356387  43.906  42.292   5.550
 7692POPC   PO456388  43.888  42.293   5.850
 7692POPC   GL156389  43.912  42.380   6.150
 7692POPC   GL256390  43.868  42.409   6.150
 7692POPC   C1A56391  43.858  42.364   6.450
 7692POPC   D2A56392  43.839  42.304   6.750
 7692POPC   C3A56393  43.882  42.346   7.050
 7692POPC   C4A56394  43.847  42.363   7.350
 7692POPC   C1B56395  43.883  42.548   6.450
 7692POPC   C2B56396  43.876  42.552   6.750
 7692POPC   C3B56397  43.805  42.565   7.050
 7692POPC   C4B56398  43.882  42.608   7.350
 7693POPC   NC356399   8.242   6.662   5.550
 7693POPC   PO456400   8.215   6.665   5.850
 7693POPC   GL156401   8.196   6.664   6.150
 7693POPC   GL256402   8.155   6.690   6.150
 7693POPC   C1A56403   8.215   6.621   6.450
 7693POPC   D2A56404   8.167   6.618   6.750
 7693POPC   C3A56405   8.191   6.643   7.050
 7693POPC   C4A56406   8.236   6.667   7.350
 7693POPC   C1B56407   8.019   6.783   6.450
 7693POPC   C2B56408   7.972   6.821   6.750
 7693POPC   C3B56409   8.065   6.783   7.050
 7693POPC   C4B56410   7.984   6.865   7.350
 7694POPC   NC356411  30.655  10.528   5.550
 7694POPC   PO456412  30.700  10.527   5.850
 7694POPC   GL156413  30.678  10.552   6.150
 7694POPC   GL256414  30.858  10.463   6.150
 7694POPC   C1A56415  30.649  10.525   6.450
 7694POPC   D2A56416  30.727  10.538   6.750
 7694POPC   C3A56417  30.699  10.487   7.050
 7694POPC   C4A56418  30.676  10.574   7.350
 7694POPC   C1B56419  30.993  10.473   6.450
 7694POPC   C2B56420  30.901  10.528   6.750
 7694POPC   C3B56421  30.938  10.455   7.050
 7694POPC   C4B56422  30.976  10.456   7.350
 7695POPC   NC356423  16.774  32.203   5.550
 7695POPC   PO456424  16.707  32.199   5.850
 7695POPC   GL156425  16.692  32.241   6.150
 7695POPC   GL256426  16.609  32.220   6.150
 7695POPC   C1A56427  16.698  32.208   6.450
 7695POPC   D2A56428  16.716  32.230   6.750
 7695POPC   C3A56429  16.756  32.276   7.050
 7695POPC   C4A56430  16.710  32.259   7.350
 7695POPC   C1B56431  16.499  32.232   6.450
 7695POPC   C2B56432  16.511  32.253   6.750
 7695POPC   C3B56433  16.499  32.212   7.050
 7695POPC   C4B56434  16.455  32.230   7.350
 7696POPC   NC356435  44.659  32.199   5.550
 7696POPC   PO456436  44.622  32.215   5.850
 7696POPC   GL156437  44.673  32.288   6.150
 7696POPC   GL256438  44.773  32.330   6.150
 7696POPC   C1A56439  44.650  32.204   6.450
 7696POPC   D2A56440  44.688  32.222   6.750
 7696POPC   C3A56441  44.664  32.272   7.050
 7696POPC   C4A56442  44.623  32.275   7.350
 7696POPC   C1B56443  44.885  32.358   6.450
 7696POPC   C2B56444  44.899  32.285   6.750
 7696POPC   C3B56445  44.860  32.354   7.050
 7696POPC   C4B56446  44.926  32.305   7.350
 7697POPC   NC356447  23.729  18.309   5.550
 7697POPC   PO456448  23.709  18.294   5.850
 7697POPC   GL156449  23.713  18.298   6.150
 7697POPC   GL256450  23.645  18.338   6.150
 7697POPC   C1A56451  23.742  18.277   6.450
 7697POPC   D2A56452  23.704  18.260   6.750
 7697POPC   C3A56453  23.677  18.315   7.050
 7697POPC   C4A56454  23.741  18.267   7.350
 7697POPC   C1B56455  23.492  18.467   6.450
 7697POPC   C2B56456  23.535  18.389   6.750
 7697POPC   C3B56457  23.484  18.414   7.050
 7697POPC   C4B56458  23.461  18.459   7.350
 7698POPC   NC356459  15.984  29.896   5.550
 7698POPC   PO456460  15.992  29.959   5.850
 7698POPC   GL156461  15.989  29.900   6.150
 7698POPC   GL256462  16.020  29.847   6.150
 7698POPC   C1A56463  15.940  29.924   6.450
 7698POPC   D2A56464  15.926  29.946   6.750
 7698POPC   C3A56465  15.917  29.935   7.050
 7698POPC   C4A56466  15.939  29.954   7.350
 7698POPC   C1B56467  16.140  29.711   6.450
 7698POPC   C2B56468  16.113  29.773   6.750
 7698POPC   C3B56469  16.094  29.698   7.050
 7698POPC   C4B56470  16.134  29.726   7.350
 7699POPC   NC356471   3.500  23.677   5.550
 7699POPC   PO456472   3.519  23.745   5.850
 7699POPC   GL156473   3.520  23.671   6.150
 7699POPC   GL256474   3.497  23.596   6.150
 7699POPC   C1A56475   3.548  23.668   6.450
 7699POPC   D2A56476   3.493  23.685   6.750
 7699POPC   C3A56477   3.556  23.739   7.050
 7699POPC   C4A56478   3.586  23.737   7.350
 7699POPC   C1B56479   3.407  23.449   6.450
 7699POPC   C2B56480   3.462  23.501   6.750
 7699POPC   C3B56481   3.408  23.510   7.050
 7699POPC   C4B56482   3.450  23.483   7.350
 7700POPC   NC356483  18.273  38.503   5.550
 7700POPC   PO456484  18.281  38.495   5.850
 7700POPC   GL156485  18.297  38.406   6.150
 7700POPC   GL256486  18.121  38.498   6.150
 7700POPC   C1A56487  18.265  38.436   6.450
 7700POPC   D2A56488  18.332  38.410   6.750
 7700POPC   C3A56489  18.311  38.426   7.050
 7700POPC   C4A56490  18.323  38.411   7.350
 7700POPC   C1B56491  18.002  38.488   6.450
 7700POPC   C2B56492  18.021  38.537   6.750
 7700POPC   C3B56493  18.085  38.471   7.050
 7700POPC   C4B56494  18.033  38.519   7.350
 7701POPC   NC356495  41.556  15.932   5.550
 7701POPC   PO456496  41.519  15.951   5.850
 7701POPC   GL156497  41.509  15.996   6.150
 7701POPC   GL256498  41.641  15.834   6.150
 7701POPC   C1A56499  41.583  15.980   6.450
 7701POPC   D2A56500  41.530  15.994   6.750
 7701POPC   C3A56501  41.549  15.906   7.050
 7701POPC   C4A56502  41.573  15.957   7.350
 7701POPC   C1B56503  41.725  15.738   6.450
 7701POPC   C2B56504  41.659  15.798   6.750
 7701POPC   C3B56505  41.722  15.735   7.050
 7701POPC   C4B56506  41.706  15.723   7.350
 7702POPC   NC356507  22.154  22.927   5.550
 7702POPC   PO456508  22.144  22.984   5.850
 7702POPC   GL156509  22.135  22.908   6.150
 7702POPC   GL256510  22.255  22.899   6.150
 7702POPC   C1A56511  22.140  22.987   6.450
 7702POPC   D2A56512  22.200  22.972   6.750
 7702POPC   C3A56513  22.170  22.902   7.050
 7702POPC   C4A56514  22.116  22.912   7.350
 7702POPC   C1B56515  22.442  22.935   6.450
 7702POPC   C2B56516  22.378  22.969   6.750
 7702POPC   C3B56517  22.379  22.977   7.050
 7702POPC   C4B56518  22.369  22.897   7.350
 7703POPC   NC356519  18.302  44.668   5.550
 7703POPC   PO456520  18.306  44.641   5.850
 7703POPC   GL156521  18.247  44.680   6.150
 7703POPC   GL256522  18.142  44.772   6.150
 7703POPC   C1A56523  18.306  44.633   6.450
 7703POPC   D2A56524  18.239  44.707   6.750
 7703POPC   C3A56525  18.253  44.645   7.050
 7703POPC   C4A56526  18.273  44.704   7.350
 7703POPC   C1B56527  18.071  44.790   6.450
 7703POPC   C2B56528  18.040  44.771   6.750
 7703POPC   C3B56529  18.073  44.798   7.050
 7703POPC   C4B56530  18.085  44.772   7.350
 7704POPC   NC356531   4.301  25.267   5.550
 7704POPC   PO456532   4.320  25.244   5.850
 7704POPC   GL156533   4.327  25.294   6.150
 7704POPC   GL256534   4.386  25.229   6.150
 7704POPC   C1A56535   4.276  25.304   6.450
 7704POPC   D2A56536   4.282  25.264   6.750
 7704POPC   C3A56537   4.335  25.239   7.050
 7704POPC   C4A56538   4.299  25.285   7.350
 7704POPC   C1B56539   4.537  25.117   6.450
 7704POPC   C2B56540   4.513  25.181   6.750
 7704POPC   C3B56541   4.551  25.169   7.050
 7704POPC   C4B56542   4.546  25.091   7.350
 7705POPC   NC356543  39.231  25.292   5.550
 7705POPC   PO456544  39.189  25.268   5.850
 7705POPC   GL156545  39.265  25.292   6.150
 7705POPC   GL256546  39.363  25.166   6.150
 7705POPC   C1A56547  39.243  25.217   6.450
 7705POPC   D2A56548  39.248  25.309   6.750
 7705POPC   C3A56549  39.213  25.274   7.050
 7705POPC   C4A56550  39.209  25.244   7.350
 7705POPC   C1B56551  39.403  25.046   6.450
 7705POPC   C2B56552  39.393  25.137   6.750
 7705POPC   C3B56553  39.395  25.114   7.050
 7705POPC   C4B56554  39.413  25.046   7.350
 7706POPC   NC356555  29.888  21.341   5.550
 7706POPC   PO456556  29.944  21.339   5.850
 7706POPC   GL156557  29.911  21.410   6.150
 7706POPC   GL256558  29.844  21.294   6.150
 7706POPC   C1A56559  29.933  21.352   6.450
 7706POPC   D2A56560  29.926  21.398   6.750
 7706POPC   C3A56561  29.960  21.416   7.050
 7706POPC   C4A56562  29.965  21.418   7.350
 7706POPC   C1B56563  29.689  21.232   6.450
 7706POPC   C2B56564  29.712  21.220   6.750
 7706POPC   C3B56565  29.675  21.256   7.050
 7706POPC   C4B56566  29.764  21.244   7.350
 7707POPC   NC356567  16.699  30.664   5.550
 7707POPC   PO456568  16.715  30.732   5.850
 7707POPC   GL156569  16.736  30.718   6.150
 7707POPC   GL256570  16.635  30.766   6.150
 7707POPC   C1A56571  16.727  30.700   6.450
 7707POPC   D2A56572  16.750  30.670   6.750
 7707POPC   C3A56573  16.711  30.723   7.050
 7707POPC   C4A56574  16.713  30.681   7.350
 7707POPC   C1B56575  16.506  30.722   6.450
 7707POPC   C2B56576  16.471  30.710   6.750
 7707POPC   C3B56577  16.515  30.728   7.050
 7707POPC   C4B56578  16.438  30.709   7.350
 7708POPC   NC356579  33.836   3.532   5.550
 7708POPC   PO456580  33.848   3.546   5.850
 7708POPC   GL156581  33.753   3.587   6.150
 7708POPC   GL256582  33.726   3.529   6.150
 7708POPC   C1A56583  33.810   3.501   6.450
 7708POPC   D2A56584  33.837   3.498   6.750
 7708POPC   C3A56585  33.755   3.545   7.050
 7708POPC   C4A56586  33.821   3.494   7.350
 7708POPC   C1B56587  33.555   3.454   6.450
 7708POPC   C2B56588  33.606   3.424   6.750
 7708POPC   C3B56589  33.606   3.431   7.050
 7708POPC   C4B56590  33.602   3.447   7.350
 7709POPC   NC356591  36.895  37.640   5.550
 7709POPC   PO456592  36.912  37.723   5.850
 7709POPC   GL156593  36.944  37.685   6.150
 7709POPC   GL256594  36.846  37.544   6.150
 7709POPC   C1A56595  36.874  37.726   6.450
 7709POPC   D2A56596  36.895  37.655   6.750
 7709POPC   C3A56597  36.932  37.727   7.050
 7709POPC   C4A56598  36.949  37.717   7.350
 7709POPC   C1B56599  36.825  37.458   6.450
 7709POPC   C2B56600  36.790  37.485   6.750
 7709POPC   C3B56601  36.784  37.490   7.050
 7709POPC   C4B56602  36.776  37.428   7.350
 7710POPC   NC356603  39.214  43.929   5.550
 7710POPC   PO456604  39.200  43.934   5.850
 7710POPC   GL156605  39.189  43.838   6.150
 7710POPC   GL256606  39.354  43.916   6.150
 7710POPC   C1A56607  39.253  43.856   6.450
 7710POPC   D2A56608  39.183  43.923   6.750
 7710POPC   C3A56609  39.215  43.915   7.050
 7710POPC   C4A56610  39.264  43.932   7.350
 7710POPC   C1B56611  39.479  44.032   6.450
 7710POPC   C2B56612  39.489  44.051   6.750
 7710POPC   C3B56613  39.410  44.010   7.050
 7710POPC   C4B56614  39.472  43.957   7.350
 7711POPC   NC356615  32.974   5.086   5.550
 7711POPC   PO456616  33.048   5.058   5.850
 7711POPC   GL156617  33.010   5.052   6.150
 7711POPC   GL256618  32.965   5.157   6.150
 7711POPC   C1A56619  33.039   5.065   6.450
 7711POPC   D2A56620  33.005   5.106   6.750
 7711POPC   C3A56621  33.046   5.124   7.050
 7711POPC   C4A56622  33.035   5.117   7.350
 7711POPC   C1B56623  32.909   5.270   6.450
 7711POPC   C2B56624  32.915   5.288   6.750
 7711POPC   C3B56625  32.847   5.259   7.050
 7711POPC   C4B56626  32.895   5.332   7.350
 7712POPC   NC356627   1.956  29.134   5.550
 7712POPC   PO456628   2.005  29.172   5.850
 7712POPC   GL156629   1.964  29.123   6.150
 7712POPC   GL256630   2.101  29.194   6.150
 7712POPC   C1A56631   1.961  29.115   6.450
 7712POPC   D2A56632   1.957  29.120   6.750
 7712POPC   C3A56633   2.008  29.099   7.050
 7712POPC   C4A56634   1.974  29.144   7.350
 7712POPC   C1B56635   2.129  29.340   6.450
 7712POPC   C2B56636   2.130  29.359   6.750
 7712POPC   C3B56637   2.178  29.354   7.050
 7712POPC   C4B56638   2.127  29.335   7.350
 7713POPC   NC356639  12.849  40.806   5.550
 7713POPC   PO456640  12.857  40.812   5.850
 7713POPC   GL156641  12.840  40.784   6.150
 7713POPC   GL256642  12.716  40.650   6.150
 7713POPC   C1A56643  12.883  40.829   6.450
 7713POPC   D2A56644  12.858  40.825   6.750
 7713POPC   C3A56645  12.818  40.790   7.050
 7713POPC   C4A56646  12.893  40.774   7.350
 7713POPC   C1B56647  12.712  40.582   6.450
 7713POPC   C2B56648  12.672  40.586   6.750
 7713POPC   C3B56649  12.670  40.650   7.050
 7713POPC   C4B56650  12.684  40.646   7.350
 7714POPC   NC356651  17.469  43.138   5.550
 7714POPC   PO456652  17.556  43.104   5.850
 7714POPC   GL156653  17.541  43.090   6.150
 7714POPC   GL256654  17.649  43.143   6.150
 7714POPC   C1A56655  17.501  43.068   6.450
 7714POPC   D2A56656  17.514  43.133   6.750
 7714POPC   C3A56657  17.463  43.086   7.050
 7714POPC   C4A56658  17.527  43.066   7.350
 7714POPC   C1B56659  17.802  43.085   6.450
 7714POPC   C2B56660  17.745  43.126   6.750
 7714POPC   C3B56661  17.755  43.104   7.050
 7714POPC   C4B56662  17.747  43.083   7.350
 7715POPC   NC356663  44.671  26.866   5.550
 7715POPC   PO456664  44.687  26.852   5.850
 7715POPC   GL156665  44.681  26.865   6.150
 7715POPC   GL256666  44.714  26.718   6.150
 7715POPC   C1A56667  44.612  26.803   6.450
 7715POPC   D2A56668  44.648  26.779   6.750
 7715POPC   C3A56669  44.697  26.832   7.050
 7715POPC   C4A56670  44.708  26.790   7.350
 7715POPC   C1B56671  44.874  26.671   6.450
 7715POPC   C2B56672  44.845  26.640   6.750
 7715POPC   C3B56673  44.841  26.679   7.050
 7715POPC   C4B56674  44.888  26.639   7.350
 7716POPC   NC356675  43.076  23.739   5.550
 7716POPC   PO456676  43.096  23.685   5.850
 7716POPC   GL156677  43.066  23.689   6.150
 7716POPC   GL256678  43.257  23.708   6.150
 7716POPC   C1A56679  43.148  23.724   6.450
 7716POPC   D2A56680  43.091  23.711   6.750
 7716POPC   C3A56681  43.144  23.681   7.050
 7716POPC   C4A56682  43.082  23.696   7.350
 7716POPC   C1B56683  43.364  23.645   6.450
 7716POPC   C2B56684  43.308  23.667   6.750
 7716POPC   C3B56685  43.356  23.619   7.050
 7716POPC   C4B56686  43.320  23.668   7.350
 7717POPC   NC356687  44.705  41.555   5.550
 7717POPC   PO456688  44.695  41.546   5.850
 7717POPC   GL156689  44.709  41.603   6.150
 7717POPC   GL256690  44.824  41.500   6.150
 7717POPC   C1A56691  44.624  41.577   6.450
 7717POPC   D2A56692  44.706  41.531   6.750
 7717POPC   C3A56693  44.693  41.558   7.050
 7717POPC   C4A56694  44.703  41.607   7.350
 7717POPC   C1B56695  44.877  41.470   6.450
 7717POPC   C2B56696  44.902  41.449   6.750
 7717POPC   C3B56697  44.869  41.452   7.050
 7717POPC   C4B56698  44.881  41.465   7.350
 7718POPC   NC356699  17.536  35.306   5.550
 7718POPC   PO456700  17.555  35.346   5.850
 7718POPC   GL156701  17.525  35.370   6.150
 7718POPC   GL256702  17.494  35.515   6.150
 7718POPC   C1A56703  17.471  35.343   6.450
 7718POPC   D2A56704  17.504  35.368   6.750
 7718POPC   C3A56705  17.464  35.336   7.050
 7718POPC   C4A56706  17.535  35.343   7.350
 7718POPC   C1B56707  17.542  35.557   6.450
 7718POPC   C2B56708  17.552  35.617   6.750
 7718POPC   C3B56709  17.532  35.627   7.050
 7718POPC   C4B56710  17.553  35.587   7.350
 7719POPC   NC356711  26.025  38.452   5.550
 7719POPC   PO456712  26.004  38.491   5.850
 7719POPC   GL156713  26.031  38.421   6.150
 7719POPC   GL256714  26.061  38.559   6.150
 7719POPC   C1A56715  26.025  38.459   6.450
 7719POPC   D2A56716  26.067  38.444   6.750
 7719POPC   C3A56717  26.084  38.457   7.050
 7719POPC   C4A56718  26.019  38.408   7.350
 7719POPC   C1B56719  25.979  38.723   6.450
 7719POPC   C2B56720  25.937  38.699   6.750
 7719POPC   C3B56721  25.975  38.717   7.050
 7719POPC   C4B56722  26.004  38.709   7.350
 7720POPC   NC356723  34.576  30.687   5.550
 7720POPC   PO456724  34.553  30.697   5.850
 7720POPC   GL156725  34.592  30.729   6.150
 7720POPC   GL256726  34.445  30.647   6.150
 7720POPC   C1A56727  34.579  30.711   6.450
 7720POPC   D2A56728  34.534  30.679   6.750
 7720POPC   C3A56729  34.599  30.648   7.050
 7720POPC   C4A56730  34.572  30.737   7.350
 7720POPC   C1B56731  34.350  30.529   6.450
 7720POPC   C2B56732  34.313  30.566   6.750
 7720POPC   C3B56733  34.329  30.580   7.050
 7720POPC   C4B56734  34.337  30.546   7.350
 7721POPC   NC356735  28.403  23.693   5.550
 7721POPC   PO456736  28.344  23.697   5.850
 7721POPC   GL156737  28.360  23.715   6.150
 7721POPC   GL256738  28.441  23.685   6.150
 7721POPC   C1A56739  28.394  23.762   6.450
 7721POPC   D2A56740  28.366  23.724   6.750
 7721POPC   C3A56741  28.384  23.701   7.050
 7721POPC   C4A56742  28.393  23.761   7.350
 7721POPC   C1B56743  28.549  23.532   6.450
 7721POPC   C2B56744  28.536  23.567   6.750
 7721POPC   C3B56745  28.619  23.547   7.050
 7721POPC   C4B56746  28.598  23.594   7.350
 7722POPC   NC356747  30.655  38.460   5.550
 7722POPC   PO456748  30.742  38.420   5.850
 7722POPC   GL156749  30.703  38.429   6.150
 7722POPC   GL256750  30.760  38.291   6.150
 7722POPC   C1A56751  30.682  38.488   6.450
 7722POPC   D2A56752  30.744  38.483   6.750
 7722POPC   C3A56753  30.728  38.467   7.050
 7722POPC   C4A56754  30.667  38.430   7.350
 7722POPC   C1B56755  30.827  38.197   6.450
 7722POPC   C2B56756  30.749  38.239   6.750
 7722POPC   C3B56757  30.755  38.194   7.050
 7722POPC   C4B56758  30.777  38.224   7.350
 7723POPC   NC356759  14.401  29.943   5.550
 7723POPC   PO456760  14.403  29.920   5.850
 7723POPC   GL156761  14.393  29.944   6.150
 7723POPC   GL256762  14.429  30.002   6.150
 7723POPC   C1A56763  14.389  29.969   6.450
 7723POPC   D2A56764  14.398  29.938   6.750
 7723POPC   C3A56765  14.389  29.950   7.050
 7723POPC   C4A56766  14.372  29.881   7.350
 7723POPC   C1B56767  14.415  30.122   6.450
 7723POPC   C2B56768  14.404  30.130   6.750
 7723POPC   C3B56769  14.429  30.191   7.050
 7723POPC   C4B56770  14.399  30.179   7.350
 7724POPC   NC356771  42.364  22.922   5.550
 7724POPC   PO456772  42.286  22.939   5.850
 7724POPC   GL156773  42.336  22.925   6.150
 7724POPC   GL256774  42.478  22.842   6.150
 7724POPC   C1A56775  42.319  22.935   6.450
 7724POPC   D2A56776  42.296  22.935   6.750
 7724POPC   C3A56777  42.380  22.915   7.050
 7724POPC   C4A56778  42.317  22.952   7.350
 7724POPC   C1B56779  42.593  22.763   6.450
 7724POPC   C2B56780  42.507  22.778   6.750
 7724POPC   C3B56781  42.530  22.850   7.050
 7724POPC   C4B56782  42.560  22.762   7.350
 7725POPC   NC356783   8.957  25.272   5.550
 7725POPC   PO456784   8.988  25.256   5.850
 7725POPC   GL156785   8.925  25.294   6.150
 7725POPC   GL256786   9.026  25.414   6.150
 7725POPC   C1A56787   8.991  25.224   6.450
 7725POPC   D2A56788   8.948  25.222   6.750
 7725POPC   C3A56789   9.018  25.279   7.050
 7725POPC   C4A56790   8.925  25.246   7.350
 7725POPC   C1B56791   9.072  25.530   6.450
 7725POPC   C2B56792   9.122  25.446   6.750
 7725POPC   C3B56793   9.044  25.495   7.050
 7725POPC   C4B56794   9.041  25.530   7.350
 7726POPC   NC356795  20.583   1.960   5.550
 7726POPC   PO456796  20.641   2.037   5.850
 7726POPC   GL156797  20.627   2.021   6.150
 7726POPC   GL256798  20.663   2.154   6.150
 7726POPC   C1A56799  20.568   1.983   6.450
 7726POPC   D2A56800  20.619   1.964   6.750
 7726POPC   C3A56801  20.623   1.942   7.050
 7726POPC   C4A56802  20.580   2.030   7.350
 7726POPC   C1B56803  20.638   2.242   6.450
 7726POPC   C2B56804  20.578   2.287   6.750
 7726POPC   C3B56805  20.624   2.224   7.050
 7726POPC   C4B56806  20.651   2.226   7.350
 7727POPC   NC356807  24.472  25.269   5.550
 7727POPC   PO456808  24.458  25.252   5.850
 7727POPC   GL156809  24.450  25.269   6.150
 7727POPC   GL256810  24.369  25.259   6.150
 7727POPC   C1A56811  24.444  25.262   6.450
 7727POPC   D2A56812  24.524  25.279   6.750
 7727POPC   C3A56813  24.445  25.287   7.050
 7727POPC   C4A56814  24.451  25.308   7.350
 7727POPC   C1B56815  24.243  25.176   6.450
 7727POPC   C2B56816  24.220  25.140   6.750
 7727POPC   C3B56817  24.299  25.210   7.050
 7727POPC   C4B56818  24.254  25.225   7.350
 7728POPC   NC356819  25.236  33.020   5.550
 7728POPC   PO456820  25.248  33.073   5.850
 7728POPC   GL156821  25.274  33.037   6.150
 7728POPC   GL256822  25.255  33.101   6.150
 7728POPC   C1A56823  25.249  32.996   6.450
 7728POPC   D2A56824  25.229  33.032   6.750
 7728POPC   C3A56825  25.276  33.035   7.050
 7728POPC   C4A56826  25.298  33.015   7.350
 7728POPC   C1B56827  25.183  33.223   6.450
 7728POPC   C2B56828  25.186  33.231   6.750
 7728POPC   C3B56829  25.194  33.266   7.050
 7728POPC   C4B56830  25.177  33.289   7.350
 7729POPC   NC356831  12.882   5.137   5.550
 7729POPC   PO456832  12.826   5.093   5.850
 7729POPC   GL156833  12.893   5.071   6.150
 7729POPC   GL256834  12.746   5.086   6.150
 7729POPC   C1A56835  12.847   5.068   6.450
 7729POPC   D2A56836  12.901   5.047   6.750
 7729POPC   C3A56837  12.868   5.072   7.050
 7729POPC   C4A56838  12.869   5.072   7.350
 7729POPC   C1B56839  12.610   5.107   6.450
 7729POPC   C2B56840  12.565   5.079   6.750
 7729POPC   C3B56841  12.574   5.125   7.050
 7729POPC   C4B56842  12.643   5.156   7.350
 7730POPC   NC356843  12.110  16.719   5.550
 7730POPC   PO456844  12.079  16.690   5.850
 7730POPC   GL156845  12.109  16.684   6.150
 7730POPC   GL256846  11.989  16.700   6.150
 7730POPC   C1A56847  12.052  16.685   6.450
 7730POPC   D2A56848  12.074  16.781   6.750
 7730POPC   C3A56849  12.076  16.734   7.050
 7730POPC   C4A56850  12.088  16.764   7.350
 7730POPC   C1B56851  11.827  16.721   6.450
 7730POPC   C2B56852  11.845  16.662   6.750
 7730POPC   C3B56853  11.785  16.666   7.050
 7730POPC   C4B56854  11.803  16.700   7.350
 7731POPC   NC356855   1.987  33.751   5.550
 7731POPC   PO456856   1.955  33.786   5.850
 7731POPC   GL156857   2.019  33.814   6.150
 7731POPC   GL256858   1.943  33.905   6.150
 7731POPC   C1A56859   1.974  33.836   6.450
 7731POPC   D2A56860   2.036  33.779   6.750
 7731POPC   C3A56861   2.016  33.770   7.050
 7731POPC   C4A56862   2.005  33.839   7.350
 7731POPC   C1B56863   1.832  33.974   6.450
 7731POPC   C2B56864   1.792  33.976   6.750
 7731POPC   C3B56865   1.827  34.032   7.050
 7731POPC   C4B56866   1.827  34.049   7.350
 7732POPC   NC356867   2.736   7.416   5.550
 7732POPC   PO456868   2.775   7.411   5.850
 7732POPC   GL156869   2.804   7.428   6.150
 7732POPC   GL256870   2.924   7.376   6.150
 7732POPC   C1A56871   2.808   7.453   6.450
 7732POPC   D2A56872   2.775   7.411   6.750
 7732POPC   C3A56873   2.781   7.384   7.050
 7732POPC   C4A56874   2.809   7.456   7.350
 7732POPC   C1B56875   2.998   7.395   6.450
 7732POPC   C2B56876   2.967   7.377   6.750
 7732POPC   C3B56877   3.034   7.429   7.050
 7732POPC   C4B56878   2.977   7.406   7.350
 7733POPC   NC356879  32.986   9.756   5.550
 7733POPC   PO456880  33.041   9.733   5.850
 7733POPC   GL156881  33.023   9.787   6.150
 7733POPC   GL256882  33.088   9.909   6.150
 7733POPC   C1A56883  33.023   9.788   6.450
 7733POPC   D2A56884  32.997   9.732   6.750
 7733POPC   C3A56885  33.057   9.711   7.050
 7733POPC   C4A56886  32.990   9.750   7.350
 7733POPC   C1B56887  33.136  10.010   6.450
 7733POPC   C2B56888  33.132   9.970   6.750
 7733POPC   C3B56889  33.093   9.983   7.050
 7733POPC   C4B56890  33.115   9.993   7.350
 7734POPC   NC356891   9.717  16.777   5.550
 7734POPC   PO456892   9.709  16.689   5.850
 7734POPC   GL156893   9.749  16.711   6.150
 7734POPC   GL256894   9.690  16.663   6.150
 7734POPC   C1A56895   9.740  16.769   6.450
 7734POPC   D2A56896   9.767  16.762   6.750
 7734POPC   C3A56897   9.795  16.682   7.050
 7734POPC   C4A56898   9.702  16.699   7.350
 7734POPC   C1B56899   9.658  16.525   6.450
 7734POPC   C2B56900   9.661  16.483   6.750
 7734POPC   C3B56901   9.669  16.542   7.050
 7734POPC   C4B56902   9.664  16.507   7.350
 7735POPC   NC356903  38.487  26.785   5.550
 7735POPC   PO456904  38.416  26.786   5.850
 7735POPC   GL156905  38.464  26.850   6.150
 7735POPC   GL256906  38.534  26.706   6.150
 7735POPC   C1A56907  38.412  26.851   6.450
 7735POPC   D2A56908  38.460  26.771   6.750
 7735POPC   C3A56909  38.498  26.773   7.050
 7735POPC   C4A56910  38.475  26.770   7.350
 7735POPC   C1B56911  38.621  26.651   6.450
 7735POPC   C2B56912  38.575  26.586   6.750
 7735POPC   C3B56913  38.601  26.608   7.050
 7735POPC   C4B56914  38.600  26.600   7.350
 7736POPC   NC356915   2.724  11.272   5.550
 7736POPC   PO456916   2.761  11.336   5.850
 7736POPC   GL156917   2.800  11.279   6.150
 7736POPC   GL256918   2.614  11.317   6.150
 7736POPC   C1A56919   2.743  11.259   6.450
 7736POPC   D2A56920   2.813  11.325   6.750
 7736POPC   C3A56921   2.737  11.273   7.050
 7736POPC   C4A56922   2.725  11.307   7.350
 7736POPC   C1B56923   2.501  11.276   6.450
 7736POPC   C2B56924   2.540  11.308   6.750
 7736POPC   C3B56925   2.524  11.239   7.050
 7736POPC   C4B56926   2.542  11.228   7.350
 7737POPC   NC356927   5.906  40.039   5.550
 7737POPC   PO456928   5.825  39.976   5.850
 7737POPC   GL156929   5.898  40.035   6.150
 7737POPC   GL256930   5.823  39.905   6.150
 7737POPC   C1A56931   5.845  40.051   6.450
 7737POPC   D2A56932   5.868  39.975   6.750
 7737POPC   C3A56933   5.819  39.992   7.050
 7737POPC   C4A56934   5.916  40.003   7.350
 7737POPC   C1B56935   5.742  39.788   6.450
 7737POPC   C2B56936   5.701  39.838   6.750
 7737POPC   C3B56937   5.764  39.803   7.050
 7737POPC   C4B56938   5.744  39.820   7.350
 7738POPC   NC356939  29.882   6.646   5.550
 7738POPC   PO456940  29.927   6.669   5.850
 7738POPC   GL156941  29.872   6.632   6.150
 7738POPC   GL256942  29.841   6.555   6.150
 7738POPC   C1A56943  29.888   6.628   6.450
 7738POPC   D2A56944  29.942   6.694   6.750
 7738POPC   C3A56945  29.920   6.617   7.050
 7738POPC   C4A56946  29.954   6.610   7.350
 7738POPC   C1B56947  29.814   6.400   6.450
 7738POPC   C2B56948  29.775   6.446   6.750
 7738POPC   C3B56949  29.846   6.398   7.050
 7738POPC   C4B56950  29.793   6.387   7.350
 7739POPC   NC356951  33.023  15.158   5.550
 7739POPC   PO456952  33.039  15.188   5.850
 7739POPC   GL156953  33.007  15.193   6.150
 7739POPC   GL256954  32.880  15.172   6.150
 7739POPC   C1A56955  32.990  15.164   6.450
 7739POPC   D2A56956  33.069  15.146   6.750
 7739POPC   C3A56957  33.032  15.192   7.050
 7739POPC   C4A56958  33.070  15.136   7.350
 7739POPC   C1B56959  32.726  15.157   6.450
 7739POPC   C2B56960  32.796  15.186   6.750
 7739POPC   C3B56961  32.822  15.184   7.050
 7739POPC   C4B56962  32.805  15.201   7.350
 7740POPC   NC356963  32.279  13.585   5.550
 7740POPC   PO456964  32.259  13.644   5.850
 7740POPC   GL156965  32.245  13.588   6.150
 7740POPC   GL256966  32.385  13.675   6.150
 7740POPC   C1A56967  32.261  13.589   6.450
 7740POPC   D2A56968  32.239  13.607   6.750
 7740POPC   C3A56969  32.281  13.657   7.050
 7740POPC   C4A56970  32.227  13.599   7.350
 7740POPC   C1B56971  32.437  13.719   6.450
 7740POPC   C2B56972  32.443  13.725   6.750
 7740POPC   C3B56973  32.518  13.723   7.050
 7740POPC   C4B56974  32.526  13.738   7.350
 7741POPC   NC356975   5.076  13.578   5.550
 7741POPC   PO456976   5.089  13.612   5.850
 7741POPC   GL156977   5.068  13.654   6.150
 7741POPC   GL256978   5.175  13.608   6.150
 7741POPC   C1A56979   5.052  13.600   6.450
 7741POPC   D2A56980   5.064  13.622   6.750
 7741POPC   C3A56981   5.045  13.592   7.050
 7741POPC   C4A56982   5.138  13.584   7.350
 7741POPC   C1B56983   5.292  13.526   6.450
 7741POPC   C2B56984   5.296  13.493   6.750
 7741POPC   C3B56985   5.362  13.509   7.050
 7741POPC   C4B56986   5.317  13.521   7.350
 7742POPC   NC356987   0.477  20.620   5.550
 7742POPC   PO456988   0.391  20.639   5.850
 7742POPC   GL156989   0.484  20.614   6.150
 7742POPC   GL256990   0.542  20.596   6.150
 7742POPC   C1A56991   0.413  20.597   6.450
 7742POPC   D2A56992   0.454  20.617   6.750
 7742POPC   C3A56993   0.480  20.573   7.050
 7742POPC   C4A56994   0.432  20.645   7.350
 7742POPC   C1B56995   0.652  20.583   6.450
 7742POPC   C2B56996   0.654  20.595   6.750
 7742POPC   C3B56997   0.712  20.590   7.050
 7742POPC   C4B56998   0.670  20.598   7.350
 7743POPC   NC356999  35.397   8.947   5.550
 7743POPC   PO457000  35.312   8.978   5.850
 7743POPC   GL157001  35.358   8.945   6.150
 7743POPC   GL257002  35.342   8.835   6.150
 7743POPC   C1A57003  35.343   8.945   6.450
 7743POPC   D2A57004  35.332   8.992   6.750
 7743POPC   C3A57005  35.378   8.989   7.050
 7743POPC   C4A57006  35.368   8.931   7.350
 7743POPC   C1B57007  35.327   8.694   6.450
 7743POPC   C2B57008  35.337   8.697   6.750
 7743POPC   C3B57009  35.312   8.755   7.050
 7743POPC   C4B57010  35.324   8.740   7.350
 7744POPC   NC357011   8.238   5.876   5.550
 7744POPC   PO457012   8.230   5.897   5.850
 7744POPC   GL157013   8.214   5.878   6.150
 7744POPC   GL257014   8.066   6.001   6.150
 7744POPC   C1A57015   8.169   5.841   6.450
 7744POPC   D2A57016   8.233   5.898   6.750
 7744POPC   C3A57017   8.203   5.878   7.050
 7744POPC   C4A57018   8.149   5.896   7.350
 7744POPC   C1B57019   7.992   6.084   6.450
 7744POPC   C2B57020   7.979   6.014   6.750
 7744POPC   C3B57021   8.019   6.078   7.050
 7744POPC   C4B57022   8.036   6.037   7.350
 7745POPC   NC357023  21.396  27.560   5.550
 7745POPC   PO457024  21.408  27.562   5.850
 7745POPC   GL157025  21.360  27.611   6.150
 7745POPC   GL257026  21.504  27.665   6.150
 7745POPC   C1A57027  21.416  27.620   6.450
 7745POPC   D2A57028  21.400  27.549   6.750
 7745POPC   C3A57029  21.412  27.622   7.050
 7745POPC   C4A57030  21.348  27.543   7.350
 7745POPC   C1B57031  21.584  27.680   6.450
 7745POPC   C2B57032  21.585  27.680   6.750
 7745POPC   C3B57033  21.637  27.694   7.050
 7745POPC   C4B57034  21.651  27.651   7.350
 7746POPC   NC357035  22.133  19.072   5.550
 7746POPC   PO457036  22.145  19.060   5.850
 7746POPC   GL157037  22.196  19.074   6.150
 7746POPC   GL257038  22.216  19.144   6.150
 7746POPC   C1A57039  22.159  19.042   6.450
 7746POPC   D2A57040  22.157  19.070   6.750
 7746POPC   C3A57041  22.195  19.055   7.050
 7746POPC   C4A57042  22.152  19.022   7.350
 7746POPC   C1B57043  22.262  19.250   6.450
 7746POPC   C2B57044  22.257  19.289   6.750
 7746POPC   C3B57045  22.277  19.309   7.050
 7746POPC   C4B57046  22.237  19.260   7.350
 7747POPC   NC357047  43.067  22.934   5.550
 7747POPC   PO457048  43.071  22.938   5.850
 7747POPC   GL157049  43.072  22.891   6.150
 7747POPC   GL257050  43.020  22.944   6.150
 7747POPC   C1A57051  43.158  22.950   6.450
 7747POPC   D2A57052  43.123  22.944   6.750
 7747POPC   C3A57053  43.133  22.901   7.050
 7747POPC   C4A57054  43.090  22.967   7.350
 7747POPC   C1B57055  42.907  22.859   6.450
 7747POPC   C2B57056  42.863  22.868   6.750
 7747POPC   C3B57057  42.902  22.859   7.050
 7747POPC   C4B57058  42.914  22.846   7.350
 7748POPC   NC357059  32.286   2.029   5.550
 7748POPC   PO457060  32.200   2.038   5.850
 7748POPC   GL157061  32.238   2.025   6.150
 7748POPC   GL257062  32.334   2.046   6.150
 7748POPC   C1A57063  32.227   2.004   6.450
 7748POPC   D2A57064  32.213   1.974   6.750
 7748POPC   C3A57065  32.202   2.006   7.050
 7748POPC   C4A57066  32.289   1.956   7.350
 7748POPC   C1B57067  32.437   2.171   6.450
 7748POPC   C2B57068  32.380   2.191   6.750
 7748POPC   C3B57069  32.401   2.157   7.050
 7748POPC   C4B57070  32.380   2.170   7.350
 7749POPC   NC357071  12.065  19.868   5.550
 7749POPC   PO457072  12.041  19.819   5.850
 7749POPC   GL157073  12.031  19.879   6.150
 7749POPC   GL257074  11.960  19.839   6.150
 7749POPC   C1A57075  12.054  19.790   6.450
 7749POPC   D2A57076  12.058  19.842   6.750
 7749POPC   C3A57077  12.090  19.875   7.050
 7749POPC   C4A57078  12.030  19.791   7.350
 7749POPC   C1B57079  11.871  19.807   6.450
 7749POPC   C2B57080  11.781  19.795   6.750
 7749POPC   C3B57081  11.801  19.876   7.050
 7749POPC   C4B57082  11.868  19.860   7.350
 7750POPC   NC357083  40.009  24.476   5.550
 7750POPC   PO457084  40.032  24.530   5.850
 7750POPC   GL157085  40.047  24.445   6.150
 7750POPC   GL257086  39.863  24.472   6.150
 7750POPC   C1A57087  39.986  24.489   6.450
 7750POPC   D2A57088  39.971  24.497   6.750
 7750POPC   C3A57089  40.004  24.504   7.050
 7750POPC   C4A57090  39.999  24.535   7.350
 7750POPC   C1B57091  39.745  24.379   6.450
 7750POPC   C2B57092  39.813  24.451   6.750
 7750POPC   C3B57093  39.811  24.368   7.050
 7750POPC   C4B57094  39.792  24.398   7.350
 7751POPC   NC357095  30.662  32.237   5.550
 7751POPC   PO457096  30.679  32.243   5.850
 7751POPC   GL157097  30.713  32.271   6.150
 7751POPC   GL257098  30.777  32.182   6.150
 7751POPC   C1A57099  30.651  32.246   6.450
 7751POPC   D2A57100  30.666  32.277   6.750
 7751POPC   C3A57101  30.649  32.266   7.050
 7751POPC   C4A57102  30.694  32.270   7.350
 7751POPC   C1B57103  30.957  32.165   6.450
 7751POPC   C2B57104  30.900  32.135   6.750
 7751POPC   C3B57105  30.919  32.084   7.050
 7751POPC   C4B57106  30.916  32.124   7.350
 7752POPC   NC357107  19.879  16.001   5.550
 7752POPC   PO457108  19.785  15.920   5.850
 7752POPC   GL157109  19.818  15.966   6.150
 7752POPC   GL257110  19.886  16.073   6.150
 7752POPC   C1A57111  19.797  15.991   6.450
 7752POPC   D2A57112  19.787  15.973   6.750
 7752POPC   C3A57113  19.856  15.936   7.050
 7752POPC   C4A57114  19.815  15.930   7.350
 7752POPC   C1B57115  19.941  16.172   6.450
 7752POPC   C2B57116  20.035  16.193   6.750
 7752POPC   C3B57117  19.939  16.193   7.050
 7752POPC   C4B57118  19.949  16.121   7.350
 7753POPC   NC357119  31.509  35.385   5.550
 7753POPC   PO457120  31.456  35.335   5.850
 7753POPC   GL157121  31.483  35.333   6.150
 7753POPC   GL257122  31.390  35.421   6.150
 7753POPC   C1A57123  31.452  35.323   6.450
 7753POPC   D2A57124  31.502  35.383   6.750
 7753POPC   C3A57125  31.449  35.360   7.050
 7753POPC   C4A57126  31.442  35.325   7.350
 7753POPC   C1B57127  31.285  35.425   6.450
 7753POPC   C2B57128  31.293  35.459   6.750
 7753POPC   C3B57129  31.256  35.419   7.050
 7753POPC   C4B57130  31.219  35.491   7.350
 7754POPC   NC357131   2.025  27.551   5.550
 7754POPC   PO457132   2.031  27.555   5.850
 7754POPC   GL157133   1.945  27.637   6.150
 7754POPC   GL257134   2.044  27.631   6.150
 7754POPC   C1A57135   2.038  27.605   6.450
 7754POPC   D2A57136   1.975  27.637   6.750
 7754POPC   C3A57137   1.989  27.560   7.050
 7754POPC   C4A57138   2.026  27.551   7.350
 7754POPC   C1B57139   2.165  27.732   6.450
 7754POPC   C2B57140   2.126  27.766   6.750
 7754POPC   C3B57141   2.163  27.794   7.050
 7754POPC   C4B57142   2.189  27.715   7.350
 7755POPC   NC357143  43.877   4.347   5.550
 7755POPC   PO457144  43.922   4.362   5.850
 7755POPC   GL157145  43.855   4.318   6.150
 7755POPC   GL257146  44.016   4.392   6.150
 7755POPC   C1A57147  43.900   4.337   6.450
 7755POPC   D2A57148  43.909   4.362   6.750
 7755POPC   C3A57149  43.929   4.342   7.050
 7755POPC   C4A57150  43.862   4.331   7.350
 7755POPC   C1B57151  44.081   4.524   6.450
 7755POPC   C2B57152  44.052   4.538   6.750
 7755POPC   C3B57153  44.065   4.457   7.050
 7755POPC   C4B57154  44.028   4.498   7.350
 7756POPC   NC357155  36.113  20.651   5.550
 7756POPC   PO457156  36.112  20.589   5.850
 7756POPC   GL157157  36.116  20.634   6.150
 7756POPC   GL257158  36.278  20.610   6.150
 7756POPC   C1A57159  36.082  20.638   6.450
 7756POPC   D2A57160  36.137  20.606   6.750
 7756POPC   C3A57161  36.088  20.646   7.050
 7756POPC   C4A57162  36.102  20.609   7.350
 7756POPC   C1B57163  36.378  20.646   6.450
 7756POPC   C2B57164  36.360  20.631   6.750
 7756POPC   C3B57165  36.414  20.710   7.050
 7756POPC   C4B57166  36.388  20.635   7.350
 7757POPC   NC357167  12.116  26.031   5.550
 7757POPC   PO457168  12.103  26.090   5.850
 7757POPC   GL157169  12.061  26.086   6.150
 7757POPC   GL257170  12.169  25.985   6.150
 7757POPC   C1A57171  12.100  26.065   6.450
 7757POPC   D2A57172  12.119  25.993   6.750
 7757POPC   C3A57173  12.103  25.996   7.050
 7757POPC   C4A57174  12.039  26.038   7.350
 7757POPC   C1B57175  12.217  25.875   6.450
 7757POPC   C2B57176  12.272  25.842   6.750
 7757POPC   C3B57177  12.199  25.807   7.050
 7757POPC   C4B57178  12.266  25.885   7.350
 7758POPC   NC357179  13.633  40.040   5.550
 7758POPC   PO457180  13.611  40.008   5.850
 7758POPC   GL157181  13.660  40.043   6.150
 7758POPC   GL257182  13.517  40.052   6.150
 7758POPC   C1A57183  13.586  39.999   6.450
 7758POPC   D2A57184  13.641  39.968   6.750
 7758POPC   C3A57185  13.669  39.985   7.050
 7758POPC   C4A57186  13.664  40.050   7.350
 7758POPC   C1B57187  13.403  40.118   6.450
 7758POPC   C2B57188  13.427  40.137   6.750
 7758POPC   C3B57189  13.396  40.134   7.050
 7758POPC   C4B57190  13.407  40.167   7.350
 7759POPC   NC357191  33.028  26.865   5.550
 7759POPC   PO457192  33.008  26.782   5.850
 7759POPC   GL157193  33.049  26.794   6.150
 7759POPC   GL257194  33.087  26.730   6.150
 7759POPC   C1A57195  33.056  26.836   6.450
 7759POPC   D2A57196  33.007  26.799   6.750
 7759POPC   C3A57197  33.008  26.774   7.050
 7759POPC   C4A57198  33.039  26.813   7.350
 7759POPC   C1B57199  33.269  26.676   6.450
 7759POPC   C2B57200  33.215  26.731   6.750
 7759POPC   C3B57201  33.219  26.654   7.050
 7759POPC   C4B57202  33.220  26.676   7.350
 7760POPC   NC357203  29.143  22.143   5.550
 7760POPC   PO457204  29.164  22.138   5.850
 7760POPC   GL157205  29.102  22.180   6.150
 7760POPC   GL257206  29.126  22.082   6.150
 7760POPC   C1A57207  29.177  22.140   6.450
 7760POPC   D2A57208  29.180  22.194   6.750
 7760POPC   C3A57209  29.140  22.183   7.050
 7760POPC   C4A57210  29.166  22.114   7.350
 7760POPC   C1B57211  29.052  21.983   6.450
 7760POPC   C2B57212  29.048  21.960   6.750
 7760POPC   C3B57213  29.042  21.961   7.050
 7760POPC   C4B57214  29.032  21.899   7.350
 7761POPC   NC357215  43.147  12.837   5.550
 7761POPC   PO457216  43.069  12.821   5.850
 7761POPC   GL157217  43.125  12.867   6.150
 7761POPC   GL257218  43.164  12.983   6.150
 7761POPC   C1A57219  43.102  12.824   6.450
 7761POPC   D2A57220  43.113  12.823   6.750
 7761POPC   C3A57221  43.063  12.895   7.050
 7761POPC   C4A57222  43.103  12.884   7.350
 7761POPC   C1B57223  43.147  13.123   6.450
 7761POPC   C2B57224  43.100  13.107   6.750
 7761POPC   C3B57225  43.141  13.117   7.050
 7761POPC   C4B57226  43.178  13.071   7.350
 7762POPC   NC357227  12.057  21.363   5.550
 7762POPC   PO457228  12.032  21.389   5.850
 7762POPC   GL157229  12.124  21.398   6.150
 7762POPC   GL257230  11.986  21.399   6.150
 7762POPC   C1A57231  12.124  21.395   6.450
 7762POPC   D2A57232  12.058  21.371   6.750
 7762POPC   C3A57233  12.028  21.365   7.050
 7762POPC   C4A57234  12.064  21.356   7.350
 7762POPC   C1B57235  11.866  21.398   6.450
 7762POPC   C2B57236  11.796  21.342   6.750
 7762POPC   C3B57237  11.789  21.366   7.050
 7762POPC   C4B57238  11.835  21.355   7.350
 7763POPC   NC357239  28.410  21.349   5.550
 7763POPC   PO457240  28.401  21.365   5.850
 7763POPC   GL157241  28.354  21.341   6.150
 7763POPC   GL257242  28.472  21.511   6.150
 7763POPC   C1A57243  28.345  21.404   6.450
 7763POPC   D2A57244  28.350  21.421   6.750
 7763POPC   C3A57245  28.346  21.368   7.050
 7763POPC   C4A57246  28.378  21.343   7.350
 7763POPC   C1B57247  28.486  21.635   6.450
 7763POPC   C2B57248  28.524  21.618   6.750
 7763POPC   C3B57249  28.517  21.620   7.050
 7763POPC   C4B57250  28.523  21.634   7.350
 7764POPC   NC357251   2.039  23.671   5.550
 7764POPC   PO457252   1.970  23.677   5.850
 7764POPC   GL157253   1.968  23.680   6.150
 7764POPC   GL257254   2.050  23.802   6.150
 7764POPC   C1A57255   1.945  23.720   6.450
 7764POPC   D2A57256   2.010  23.702   6.750
 7764POPC   C3A57257   1.989  23.700   7.050
 7764POPC   C4A57258   2.005  23.702   7.350
 7764POPC   C1B57259   2.094  23.919   6.450
 7764POPC   C2B57260   2.102  23.910   6.750
 7764POPC   C3B57261   2.068  23.935   7.050
 7764POPC   C4B57262   2.032  23.986   7.350
 7765POPC   NC357263  26.081   5.069   5.550
 7765POPC   PO457264  26.003   5.079   5.850
 7765POPC   GL157265  26.036   5.049   6.150
 7765POPC   GL257266  25.993   4.972   6.150
 7765POPC   C1A57267  26.086   5.113   6.450
 7765POPC   D2A57268  26.025   5.103   6.750
 7765POPC   C3A57269  26.073   5.050   7.050
 7765POPC   C4A57270  25.992   5.140   7.350
 7765POPC   C1B57271  25.890   4.860   6.450
 7765POPC   C2B57272  25.877   4.896   6.750
 7765POPC   C3B57273  25.935   4.897   7.050
 7765POPC   C4B57274  25.942   4.902   7.350
 7766POPC   NC357275   1.941  39.245   5.550
 7766POPC   PO457276   2.019  39.247   5.850
 7766POPC   GL157277   1.983  39.251   6.150
 7766POPC   GL257278   2.065  39.165   6.150
 7766POPC   C1A57279   1.947  39.233   6.450
 7766POPC   D2A57280   2.038  39.182   6.750
 7766POPC   C3A57281   2.005  39.207   7.050
 7766POPC   C4A57282   2.027  39.194   7.350
 7766POPC   C1B57283   2.173  39.141   6.450
 7766POPC   C2B57284   2.164  39.137   6.750
 7766POPC   C3B57285   2.213  39.140   7.050
 7766POPC   C4B57286   2.197  39.127   7.350
 7767POPC   NC357287  40.753  26.796   5.550
 7767POPC   PO457288  40.770  26.853   5.850
 7767POPC   GL157289  40.737  26.774   6.150
 7767POPC   GL257290  40.907  26.919   6.150
 7767POPC   C1A57291  40.756  26.819   6.450
 7767POPC   D2A57292  40.733  26.783   6.750
 7767POPC   C3A57293  40.779  26.846   7.050
 7767POPC   C4A57294  40.833  26.805   7.350
 7767POPC   C1B57295  40.916  26.977   6.450
 7767POPC   C2B57296  40.940  27.044   6.750
 7767POPC   C3B57297  40.949  27.013   7.050
 7767POPC   C4B57298  40.911  26.973   7.350
 7768POPC   NC357299   4.343  37.720   5.550
 7768POPC   PO457300   4.300  37.670   5.850
 7768POPC   GL157301   4.309  37.680   6.150
 7768POPC   GL257302   4.180  37.596   6.150
 7768POPC   C1A57303   4.289  37.706   6.450
 7768POPC   D2A57304   4.342  37.715   6.750
 7768POPC   C3A57305   4.307  37.650   7.050
 7768POPC   C4A57306   4.315  37.708   7.350
 7768POPC   C1B57307   4.107  37.613   6.450
 7768POPC   C2B57308   4.131  37.559   6.750
 7768POPC   C3B57309   4.140  37.570   7.050
 7768POPC   C4B57310   4.124  37.566   7.350
 7769POPC   NC357311  39.254   2.794   5.550
 7769POPC   PO457312  39.203   2.722   5.850
 7769POPC   GL157313  39.246   2.798   6.150
 7769POPC   GL257314  39.279   2.664   6.150
 7769POPC   C1A57315  39.270   2.749   6.450
 7769POPC   D2A57316  39.211   2.766   6.750
 7769POPC   C3A57317  39.207   2.741   7.050
 7769POPC   C4A57318  39.197   2.750   7.350
 7769POPC   C1B57319  39.267   2.553   6.450
 7769POPC   C2B57320  39.246   2.526   6.750
 7769POPC   C3B57321  39.285   2.529   7.050
 7769POPC   C4B57322  39.233   2.549   7.350
 7770POPC   NC357323  31.490   9.750   5.550
 7770POPC   PO457324  31.492   9.788   5.850
 7770POPC   GL157325  31.484   9.763   6.150
 7770POPC   GL257326  31.589   9.847   6.150
 7770POPC   C1A57327  31.435   9.797   6.450
 7770POPC   D2A57328  31.436   9.790   6.750
 7770POPC   C3A57329  31.486   9.748   7.050
 7770POPC   C4A57330  31.423   9.739   7.350
 7770POPC   C1B57331  31.651   9.936   6.450
 7770POPC   C2B57332  31.609   9.939   6.750
 7770POPC   C3B57333  31.665   9.944   7.050
 7770POPC   C4B57334  31.626   9.966   7.350
 7771POPC   NC357335  40.024  36.943   5.550
 7771POPC   PO457336  40.044  36.871   5.850
 7771POPC   GL157337  40.056  36.863   6.150
 7771POPC   GL257338  39.873  36.971   6.150
 7771POPC   C1A57339  40.011  36.892   6.450
 7771POPC   D2A57340  40.052  36.880   6.750
 7771POPC   C3A57341  39.999  36.915   7.050
 7771POPC   C4A57342  40.056  36.947   7.350
 7771POPC   C1B57343  39.755  37.000   6.450
 7771POPC   C2B57344  39.814  36.984   6.750
 7771POPC   C3B57345  39.789  36.983   7.050
 7771POPC   C4B57346  39.808  37.029   7.350
 7772POPC   NC357347  43.911  35.326   5.550
 7772POPC   PO457348  43.865  35.323   5.850
 7772POPC   GL157349  43.867  35.393   6.150
 7772POPC   GL257350  43.970  35.484   6.150
 7772POPC   C1A57351  43.901  35.346   6.450
 7772POPC   D2A57352  43.876  35.398   6.750
 7772POPC   C3A57353  43.900  35.376   7.050
 7772POPC   C4A57354  43.921  35.396   7.350
 7772POPC   C1B57355  43.972  35.559   6.450
 7772POPC   C2B57356  43.950  35.534   6.750
 7772POPC   C3B57357  43.940  35.559   7.050
 7772POPC   C4B57358  43.951  35.617   7.350
 7773POPC   NC357359  17.458  41.574   5.550
 7773POPC   PO457360  17.533  41.561   5.850
 7773POPC   GL157361  17.459  41.578   6.150
 7773POPC   GL257362  17.368  41.473   6.150
 7773POPC   C1A57363  17.462  41.595   6.450
 7773POPC   D2A57364  17.457  41.559   6.750
 7773POPC   C3A57365  17.460  41.529   7.050
 7773POPC   C4A57366  17.544  41.593   7.350
 7773POPC   C1B57367  17.249  41.443   6.450
 7773POPC   C2B57368  17.298  41.452   6.750
 7773POPC   C3B57369  17.240  41.433   7.050
 7773POPC   C4B57370  17.317  41.490   7.350
 7774POPC   NC357371  40.825  19.828   5.550
 7774POPC   PO457372  40.736  19.846   5.850
 7774POPC   GL157373  40.812  19.787   6.150
 7774POPC   GL257374  40.722  19.788   6.150
 7774POPC   C1A57375  40.760  19.878   6.450
 7774POPC   D2A57376  40.761  19.801   6.750
 7774POPC   C3A57377  40.822  19.871   7.050
 7774POPC   C4A57378  40.832  19.879   7.350
 7774POPC   C1B57379  40.591  19.686   6.450
 7774POPC   C2B57380  40.610  19.647   6.750
 7774POPC   C3B57381  40.616  19.685   7.050
 7774POPC   C4B57382  40.656  19.650   7.350
 7775POPC   NC357383  33.844  32.253   5.550
 7775POPC   PO457384  33.794  32.255   5.850
 7775POPC   GL157385  33.828  32.227   6.150
 7775POPC   GL257386  33.905  32.248   6.150
 7775POPC   C1A57387  33.755  32.227   6.450
 7775POPC   D2A57388  33.840  32.252   6.750
 7775POPC   C3A57389  33.794  32.297   7.050
 7775POPC   C4A57390  33.758  32.226   7.350
 7775POPC   C1B57391  34.009  32.249   6.450
 7775POPC   C2B57392  34.053  32.259   6.750
 7775POPC   C3B57393  34.049  32.231   7.050
 7775POPC   C4B57394  34.100  32.231   7.350
 7776POPC   NC357395  29.159  39.979   5.550
 7776POPC   PO457396  29.174  40.049   5.850
 7776POPC   GL157397  29.126  39.974   6.150
 7776POPC   GL257398  29.179  40.080   6.150
 7776POPC   C1A57399  29.125  39.961   6.450
 7776POPC   D2A57400  29.140  39.967   6.750
 7776POPC   C3A57401  29.116  39.995   7.050
 7776POPC   C4A57402  29.167  39.986   7.350
 7776POPC   C1B57403  29.262  40.207   6.450
 7776POPC   C2B57404  29.241  40.277   6.750
 7776POPC   C3B57405  29.210  40.271   7.050
 7776POPC   C4B57406  29.202  40.290   7.350
 7777POPC   NC357407  26.796  32.200   5.550
 7777POPC   PO457408  26.770  32.248   5.850
 7777POPC   GL157409  26.834  32.229   6.150
 7777POPC   GL257410  26.871  32.343   6.150
 7777POPC   C1A57411  26.823  32.261   6.450
 7777POPC   D2A57412  26.861  32.267   6.750
 7777POPC   C3A57413  26.776  32.269   7.050
 7777POPC   C4A57414  26.829  32.234   7.350
 7777POPC   C1B57415  26.866  32.531   6.450
 7777POPC   C2B57416  26.895  32.507   6.750
 7777POPC   C3B57417  26.929  32.457   7.050
 7777POPC   C4B57418  26.927  32.531   7.350
 7778POPC   NC357419   2.780  39.238   5.550
 7778POPC   PO457420   2.763  39.236   5.850
 7778POPC   GL157421   2.723  39.211   6.150
 7778POPC   GL257422   2.773  39.098   6.150
 7778POPC   C1A57423   2.775  39.206   6.450
 7778POPC   D2A57424   2.771  39.260   6.750
 7778POPC   C3A57425   2.780  39.281   7.050
 7778POPC   C4A57426   2.720  39.186   7.350
 7778POPC   C1B57427   2.786  38.939   6.450
 7778POPC   C2B57428   2.784  38.975   6.750
 7778POPC   C3B57429   2.827  39.034   7.050
 7778POPC   C4B57430   2.785  38.986   7.350
 7779POPC   NC357431  33.015  40.743   5.550
 7779POPC   PO457432  33.066  40.795   5.850
 7779POPC   GL157433  33.015  40.761   6.150
 7779POPC   GL257434  32.872  40.849   6.150
 7779POPC   C1A57435  33.070  40.734   6.450
 7779POPC   D2A57436  33.032  40.812   6.750
 7779POPC   C3A57437  33.071  40.787   7.050
 7779POPC   C4A57438  33.047  40.795   7.350
 7779POPC   C1B57439  32.781  40.841   6.450
 7779POPC   C2B57440  32.755  40.840   6.750
 7779POPC   C3B57441  32.800  40.851   7.050
 7779POPC   C4B57442  32.784  40.904   7.350
 7780POPC   NC357443  31.445  19.011   5.550
 7780POPC   PO457444  31.509  19.063   5.850
 7780POPC   GL157445  31.516  19.084   6.150
 7780POPC   GL257446  31.535  18.980   6.150
 7780POPC   C1A57447  31.486  19.036   6.450
 7780POPC   D2A57448  31.482  19.102   6.750
 7780POPC   C3A57449  31.497  19.069   7.050
 7780POPC   C4A57450  31.512  19.102   7.350
 7780POPC   C1B57451  31.595  18.794   6.450
 7780POPC   C2B57452  31.563  18.840   6.750
 7780POPC   C3B57453  31.569  18.830   7.050
 7780POPC   C4B57454  31.627  18.826   7.350
 7781POPC   NC357455  16.694  19.803   5.550
 7781POPC   PO457456  16.701  19.813   5.850
 7781POPC   GL157457  16.717  19.788   6.150
 7781POPC   GL257458  16.834  19.839   6.150
 7781POPC   C1A57459  16.703  19.803   6.450
 7781POPC   D2A57460  16.716  19.864   6.750
 7781POPC   C3A57461  16.734  19.791   7.050
 7781POPC   C4A57462  16.737  19.809   7.350
 7781POPC   C1B57463  17.005  19.849   6.450
 7781POPC   C2B57464  16.959  19.911   6.750
 7781POPC   C3B57465  16.933  19.896   7.050
 7781POPC   C4B57466  16.941  19.854   7.350
 7782POPC   NC357467  33.066  20.656   5.550
 7782POPC   PO457468  33.007  20.609   5.850
 7782POPC   GL157469  32.992  20.594   6.150
 7782POPC   GL257470  33.124  20.570   6.150
 7782POPC   C1A57471  32.990  20.606   6.450
 7782POPC   D2A57472  33.051  20.627   6.750
 7782POPC   C3A57473  33.005  20.658   7.050
 7782POPC   C4A57474  33.072  20.624   7.350
 7782POPC   C1B57475  33.193  20.466   6.450
 7782POPC   C2B57476  33.209  20.496   6.750
 7782POPC   C3B57477  33.269  20.520   7.050
 7782POPC   C4B57478  33.269  20.437   7.350
 7783POPC   NC357479  19.814  42.356   5.550
 7783POPC   PO457480  19.855  42.348   5.850
 7783POPC   GL157481  19.822  42.366   6.150
 7783POPC   GL257482  19.787  42.249   6.150
 7783POPC   C1A57483  19.795  42.296   6.450
 7783POPC   D2A57484  19.833  42.306   6.750
 7783POPC   C3A57485  19.827  42.311   7.050
 7783POPC   C4A57486  19.835  42.326   7.350
 7783POPC   C1B57487  19.610  42.218   6.450
 7783POPC   C2B57488  19.652  42.181   6.750
 7783POPC   C3B57489  19.601  42.156   7.050
 7783POPC   C4B57490  19.640  42.160   7.350
 7784POPC   NC357491  26.863  24.450   5.550
 7784POPC   PO457492  26.865  24.517   5.850
 7784POPC   GL157493  26.776  24.442   6.150
 7784POPC   GL257494  26.854  24.319   6.150
 7784POPC   C1A57495  26.842  24.468   6.450
 7784POPC   D2A57496  26.861  24.514   6.750
 7784POPC   C3A57497  26.802  24.441   7.050
 7784POPC   C4A57498  26.785  24.450   7.350
 7784POPC   C1B57499  26.778  24.231   6.450
 7784POPC   C2B57500  26.842  24.199   6.750
 7784POPC   C3B57501  26.781  24.216   7.050
 7784POPC   C4B57502  26.874  24.259   7.350
 7785POPC   NC357503  43.102  43.063   5.550
 7785POPC   PO457504  43.124  43.087   5.850
 7785POPC   GL157505  43.063  43.078   6.150
 7785POPC   GL257506  43.098  43.215   6.150
 7785POPC   C1A57507  43.093  43.134   6.450
 7785POPC   D2A57508  43.140  43.159   6.750
 7785POPC   C3A57509  43.130  43.062   7.050
 7785POPC   C4A57510  43.154  43.114   7.350
 7785POPC   C1B57511  43.143  43.386   6.450
 7785POPC   C2B57512  43.080  43.408   6.750
 7785POPC   C3B57513  43.119  43.322   7.050
 7785POPC   C4B57514  43.121  43.337   7.350
 7786POPC   NC357515  33.843  43.890   5.550
 7786POPC   PO457516  33.757  43.901   5.850
 7786POPC   GL157517  33.807  43.908   6.150
 7786POPC   GL257518  33.652  43.796   6.150
 7786POPC   C1A57519  33.831  43.882   6.450
 7786POPC   D2A57520  33.775  43.847   6.750
 7786POPC   C3A57521  33.812  43.927   7.050
 7786POPC   C4A57522  33.757  43.883   7.350
 7786POPC   C1B57523  33.580  43.780   6.450
 7786POPC   C2B57524  33.598  43.716   6.750
 7786POPC   C3B57525  33.542  43.795   7.050
 7786POPC   C4B57526  33.585  43.726   7.350
 7787POPC   NC357527  26.853  31.450   5.550
 7787POPC   PO457528  26.847  31.506   5.850
 7787POPC   GL157529  26.862  31.458   6.150
 7787POPC   GL257530  26.792  31.383   6.150
 7787POPC   C1A57531  26.811  31.431   6.450
 7787POPC   D2A57532  26.825  31.493   6.750
 7787POPC   C3A57533  26.825  31.487   7.050
 7787POPC   C4A57534  26.802  31.521   7.350
 7787POPC   C1B57535  26.792  31.265   6.450
 7787POPC   C2B57536  26.744  31.205   6.750
 7787POPC   C3B57537  26.831  31.223   7.050
 7787POPC   C4B57538  26.736  31.249   7.350
 7788POPC   NC357539  41.597  38.481   5.550
 7788POPC   PO457540  41.590  38.489   5.850
 7788POPC   GL157541  41.593  38.415   6.150
 7788POPC   GL257542  41.698  38.422   6.150
 7788POPC   C1A57543  41.605  38.497   6.450
 7788POPC   D2A57544  41.539  38.413   6.750
 7788POPC   C3A57545  41.563  38.441   7.050
 7788POPC   C4A57546  41.511  38.445   7.350
 7788POPC   C1B57547  41.822  38.485   6.450
 7788POPC   C2B57548  41.777  38.424   6.750
 7788POPC   C3B57549  41.818  38.470   7.050
 7788POPC   C4B57550  41.852  38.463   7.350
 7789POPC   NC357551  36.953  44.704   5.550
 7789POPC   PO457552  36.869  44.687   5.850
 7789POPC   GL157553  36.873  44.635   6.150
 7789POPC   GL257554  36.816  44.689   6.150
 7789POPC   C1A57555  36.925  44.624   6.450
 7789POPC   D2A57556  36.902  44.711   6.750
 7789POPC   C3A57557  36.928  44.711   7.050
 7789POPC   C4A57558  36.930  44.632   7.350
 7789POPC   C1B57559  36.653  44.799   6.450
 7789POPC   C2B57560  36.727  44.790   6.750
 7789POPC   C3B57561  36.735  44.766   7.050
 7789POPC   C4B57562  36.653  44.784   7.350
 7790POPC   NC357563  18.239  35.364   5.550
 7790POPC   PO457564  18.316  35.357   5.850
 7790POPC   GL157565  18.254  35.318   6.150
 7790POPC   GL257566  18.166  35.424   6.150
 7790POPC   C1A57567  18.245  35.385   6.450
 7790POPC   D2A57568  18.305  35.303   6.750
 7790POPC   C3A57569  18.311  35.384   7.050
 7790POPC   C4A57570  18.299  35.345   7.350
 7790POPC   C1B57571  18.158  35.589   6.450
 7790POPC   C2B57572  18.078  35.589   6.750
 7790POPC   C3B57573  18.086  35.587   7.050
 7790POPC   C4B57574  18.170  35.535   7.350
 7791POPC   NC357575  34.619   7.430   5.550
 7791POPC   PO457576  34.603   7.411   5.850
 7791POPC   GL157577  34.594   7.405   6.150
 7791POPC   GL257578  34.572   7.551   6.150
 7791POPC   C1A57579  34.549   7.425   6.450
 7791POPC   D2A57580  34.600   7.414   6.750
 7791POPC   C3A57581  34.546   7.456   7.050
 7791POPC   C4A57582  34.610   7.400   7.350
 7791POPC   C1B57583  34.617   7.624   6.450
 7791POPC   C2B57584  34.622   7.650   6.750
 7791POPC   C3B57585  34.660   7.684   7.050
 7791POPC   C4B57586  34.643   7.609   7.350
 7792POPC   NC357587  16.688  36.872   5.550
 7792POPC   PO457588  16.767  36.880   5.850
 7792POPC   GL157589  16.707  36.869   6.150
 7792POPC   GL257590  16.727  36.821   6.150
 7792POPC   C1A57591  16.766  36.887   6.450
 7792POPC   D2A57592  16.776  36.896   6.750
 7792POPC   C3A57593  16.694  36.917   7.050
 7792POPC   C4A57594  16.735  36.920   7.350
 7792POPC   C1B57595  16.756  36.627   6.450
 7792POPC   C2B57596  16.782  36.616   6.750
 7792POPC   C3B57597  16.736  36.653   7.050
 7792POPC   C4B57598  16.789  36.629   7.350
 7793POPC   NC357599  30.735  27.614   5.550
 7793POPC   PO457600  30.672  27.636   5.850
 7793POPC   GL157601  30.717  27.556   6.150
 7793POPC   GL257602  30.834  27.538   6.150
 7793POPC   C1A57603  30.702  27.570   6.450
 7793POPC   D2A57604  30.654  27.564   6.750
 7793POPC   C3A57605  30.745  27.593   7.050
 7793POPC   C4A57606  30.743  27.626   7.350
 7793POPC   C1B57607  30.887  27.493   6.450
 7793POPC   C2B57608  30.938  27.496   6.750
 7793POPC   C3B57609  30.952  27.449   7.050
 7793POPC   C4B57610  30.921  27.498   7.350
 7794POPC   NC357611  22.899   1.966   5.550
 7794POPC   PO457612  22.902   1.980   5.850
 7794POPC   GL157613  22.905   1.941   6.150
 7794POPC   GL257614  23.005   2.098   6.150
 7794POPC   C1A57615  22.981   1.941   6.450
 7794POPC   D2A57616  22.895   1.960   6.750
 7794POPC   C3A57617  22.922   1.976   7.050
 7794POPC   C4A57618  22.915   2.029   7.350
 7794POPC   C1B57619  23.186   2.084   6.450
 7794POPC   C2B57620  23.144   2.087   6.750
 7794POPC   C3B57621  23.186   2.136   7.050
 7794POPC   C4B57622  23.118   2.080   7.350
 7795POPC   NC357623  40.027   3.517   5.550
 7795POPC   PO457624  40.052   3.564   5.850
 7795POPC   GL157625  40.056   3.583   6.150
 7795POPC   GL257626  39.942   3.379   6.150
 7795POPC   C1A57627  40.012   3.498   6.450
 7795POPC   D2A57628  40.052   3.508   6.750
 7795POPC   C3A57629  39.997   3.531   7.050
 7795POPC   C4A57630  40.050   3.568   7.350
 7795POPC   C1B57631  39.909   3.319   6.450
 7795POPC   C2B57632  39.890   3.323   6.750
 7795POPC   C3B57633  39.939   3.317   7.050
 7795POPC   C4B57634  39.861   3.321   7.350
 7796POPC   NC357635  23.755   5.052   5.550
 7796POPC   PO457636  23.722   5.111   5.850
 7796POPC   GL157637  23.705   5.094   6.150
 7796POPC   GL257638  23.737   5.213   6.150
 7796POPC   C1A57639  23.746   5.048   6.450
 7796POPC   D2A57640  23.678   5.095   6.750
 7796POPC   C3A57641  23.735   5.107   7.050
 7796POPC   C4A57642  23.680   5.090   7.350
 7796POPC   C1B57643  23.736   5.323   6.450
 7796POPC   C2B57644  23.749   5.303   6.750
 7796POPC   C3B57645  23.774   5.314   7.050
 7796POPC   C4B57646  23.715   5.378   7.350
 7797POPC   NC357647  41.558   2.779   5.550
 7797POPC   PO457648  41.588   2.735   5.850
 7797POPC   GL157649  41.565   2.798   6.150
 7797POPC   GL257650  41.461   2.682   6.150
 7797POPC   C1A57651  41.582   2.784   6.450
 7797POPC   D2A57652  41.567   2.725   6.750
 7797POPC   C3A57653  41.594   2.761   7.050
 7797POPC   C4A57654  41.534   2.808   7.350
 7797POPC   C1B57655  41.354   2.646   6.450
 7797POPC   C2B57656  41.371   2.683   6.750
 7797POPC   C3B57657  41.335   2.667   7.050
 7797POPC   C4B57658  41.361   2.615   7.350
 7798POPC   NC357659   4.326  12.812   5.550
 7798POPC   PO457660   4.279  12.822   5.850
 7798POPC   GL157661   4.305  12.885   6.150
 7798POPC   GL257662   4.402  12.890   6.150
 7798POPC   C1A57663   4.334  12.842   6.450
 7798POPC   D2A57664   4.330  12.850   6.750
 7798POPC   C3A57665   4.360  12.814   7.050
 7798POPC   C4A57666   4.287  12.893   7.350
 7798POPC   C1B57667   4.526  12.996   6.450
 7798POPC   C2B57668   4.526  12.995   6.750
 7798POPC   C3B57669   4.538  12.969   7.050
 7798POPC   C4B57670   4.561  13.014   7.350
 7799POPC   NC357671  33.822  35.311   5.550
 7799POPC   PO457672  33.848  35.395   5.850
 7799POPC   GL157673  33.760  35.340   6.150
 7799POPC   GL257674  33.868  35.263   6.150
 7799POPC   C1A57675  33.791  35.333   6.450
 7799POPC   D2A57676  33.801  35.354   6.750
 7799POPC   C3A57677  33.838  35.367   7.050
 7799POPC   C4A57678  33.783  35.378   7.350
 7799POPC   C1B57679  33.903  35.081   6.450
 7799POPC   C2B57680  33.862  35.096   6.750
 7799POPC   C3B57681  33.887  35.084   7.050
 7799POPC   C4B57682  33.859  35.092   7.350
 7800POPC   NC357683  40.782  16.756   5.550
 7800POPC   PO457684  40.806  16.724   5.850
 7800POPC   GL157685  40.830  16.745   6.150
 7800POPC   GL257686  40.864  16.730   6.150
 7800POPC   C1A57687  40.771  16.737   6.450
 7800POPC   D2A57688  40.826  16.683   6.750
 7800POPC   C3A57689  40.784  16.777   7.050
 7800POPC   C4A57690  40.797  16.757   7.350
 7800POPC   C1B57691  41.068  16.748   6.450
 7800POPC   C2B57692  41.072  16.689   6.750
 7800POPC   C3B57693  41.057  16.754   7.050
 7800POPC   C4B57694  41.062  16.754   7.350
 7801POPC   NC357695  36.898  34.591   5.550
 7801POPC   PO457696  36.902  34.575   5.850
 7801POPC   GL157697  36.951  34.617   6.150
 7801POPC   GL257698  36.784  34.694   6.150
 7801POPC   C1A57699  36.863  34.600   6.450
 7801POPC   D2A57700  36.873  34.541   6.750
 7801POPC   C3A57701  36.881  34.561   7.050
 7801POPC   C4A57702  36.859  34.591   7.350
 7801POPC   C1B57703  36.680  34.763   6.450
 7801POPC   C2B57704  36.727  34.738   6.750
 7801POPC   C3B57705  36.736  34.680   7.050
 7801POPC   C4B57706  36.701  34.691   7.350
 7802POPC   NC357707  29.917  39.271   5.550
 7802POPC   PO457708  29.935  39.240   5.850
 7802POPC   GL157709  29.940  39.214   6.150
 7802POPC   GL257710  29.872  39.372   6.150
 7802POPC   C1A57711  29.949  39.243   6.450
 7802POPC   D2A57712  29.927  39.268   6.750
 7802POPC   C3A57713  29.904  39.219   7.050
 7802POPC   C4A57714  29.930  39.244   7.350
 7802POPC   C1B57715  29.898  39.455   6.450
 7802POPC   C2B57716  29.860  39.445   6.750
 7802POPC   C3B57717  29.821  39.446   7.050
 7802POPC   C4B57718  29.809  39.513   7.350
 7803POPC   NC357719  15.937  37.666   5.550
 7803POPC   PO457720  15.986  37.710   5.850
 7803POPC   GL157721  15.941  37.685   6.150
 7803POPC   GL257722  16.030  37.799   6.150
 7803POPC   C1A57723  15.943  37.694   6.450
 7803POPC   D2A57724  15.976  37.691   6.750
 7803POPC   C3A57725  15.907  37.653   7.050
 7803POPC   C4A57726  16.004  37.699   7.350
 7803POPC   C1B57727  15.997  37.916   6.450
 7803POPC   C2B57728  16.075  37.958   6.750
 7803POPC   C3B57729  16.002  37.898   7.050
 7803POPC   C4B57730  16.061  37.937   7.350
 7804POPC   NC357731   8.230  35.387   5.550
 7804POPC   PO457732   8.227  35.342   5.850
 7804POPC   GL157733   8.170  35.304   6.150
 7804POPC   GL257734   8.094  35.218   6.150
 7804POPC   C1A57735   8.187  35.332   6.450
 7804POPC   D2A57736   8.237  35.349   6.750
 7804POPC   C3A57737   8.166  35.303   7.050
 7804POPC   C4A57738   8.176  35.401   7.350
 7804POPC   C1B57739   7.994  35.200   6.450
 7804POPC   C2B57740   8.022  35.182   6.750
 7804POPC   C3B57741   7.995  35.201   7.050
 7804POPC   C4B57742   7.965  35.209   7.350
 7805POPC   NC357743  15.140  36.102   5.550
 7805POPC   PO457744  15.132  36.166   5.850
 7805POPC   GL157745  15.178  36.131   6.150
 7805POPC   GL257746  15.239  36.037   6.150
 7805POPC   C1A57747  15.186  36.081   6.450
 7805POPC   D2A57748  15.163  36.145   6.750
 7805POPC   C3A57749  15.141  36.119   7.050
 7805POPC   C4A57750  15.148  36.125   7.350
 7805POPC   C1B57751  15.396  35.961   6.450
 7805POPC   C2B57752  15.333  35.991   6.750
 7805POPC   C3B57753  15.386  35.916   7.050
 7805POPC   C4B57754  15.331  35.898   7.350
 7806POPC   NC357755  15.934  18.280   5.550
 7806POPC   PO457756  15.980  18.306   5.850
 7806POPC   GL157757  15.919  18.257   6.150
 7806POPC   GL257758  16.074  18.288   6.150
 7806POPC   C1A57759  15.930  18.281   6.450
 7806POPC   D2A57760  15.934  18.323   6.750
 7806POPC   C3A57761  15.973  18.324   7.050
 7806POPC   C4A57762  15.951  18.318   7.350
 7806POPC   C1B57763  16.178  18.406   6.450
 7806POPC   C2B57764  16.163  18.352   6.750
 7806POPC   C3B57765  16.195  18.381   7.050
 7806POPC   C4B57766  16.226  18.353   7.350
 7807POPC   NC357767  28.384  40.832   5.550
 7807POPC   PO457768  28.345  40.782   5.850
 7807POPC   GL157769  28.393  40.801   6.150
 7807POPC   GL257770  28.315  40.913   6.150
 7807POPC   C1A57771  28.350  40.763   6.450
 7807POPC   D2A57772  28.387  40.800   6.750
 7807POPC   C3A57773  28.334  40.761   7.050
 7807POPC   C4A57774  28.401  40.832   7.350
 7807POPC   C1B57775  28.311  41.035   6.450
 7807POPC   C2B57776  28.291  41.045   6.750
 7807POPC   C3B57777  28.360  40.998   7.050
 7807POPC   C4B57778  28.296  40.985   7.350
 7808POPC   NC357779   9.706  15.914   5.550
 7808POPC   PO457780   9.702  15.929   5.850
 7808POPC   GL157781   9.704  15.915   6.150
 7808POPC   GL257782   9.689  15.869   6.150
 7808POPC   C1A57783   9.771  15.953   6.450
 7808POPC   D2A57784   9.718  15.978   6.750
 7808POPC   C3A57785   9.745  15.987   7.050
 7808POPC   C4A57786   9.789  15.972   7.350
 7808POPC   C1B57787   9.697  15.760   6.450
 7808POPC   C2B57788   9.623  15.703   6.750
 7808POPC   C3B57789   9.660  15.701   7.050
 7808POPC   C4B57790   9.694  15.721   7.350
 7809POPC   NC357791  40.800  43.104   5.550
 7809POPC   PO457792  40.823  43.122   5.850
 7809POPC   GL157793  40.800  43.153   6.150
 7809POPC   GL257794  40.940  43.024   6.150
 7809POPC   C1A57795  40.759  43.088   6.450
 7809POPC   D2A57796  40.810  43.114   6.750
 7809POPC   C3A57797  40.806  43.107   7.050
 7809POPC   C4A57798  40.818  43.154   7.350
 7809POPC   C1B57799  41.012  43.025   6.450
 7809POPC   C2B57800  41.027  43.015   6.750
 7809POPC   C3B57801  40.972  42.986   7.050
 7809POPC   C4B57802  40.996  43.056   7.350
 7810POPC   NC357803   2.815  24.461   5.550
 7810POPC   PO457804   2.764  24.459   5.850
 7810POPC   GL157805   2.731  24.500   6.150
 7810POPC   GL257806   2.650  24.464   6.150
 7810POPC   C1A57807   2.750  24.479   6.450
 7810POPC   D2A57808   2.735  24.442   6.750
 7810POPC   C3A57809   2.742  24.517   7.050
 7810POPC   C4A57810   2.719  24.476   7.350
 7810POPC   C1B57811   2.540  24.416   6.450
 7810POPC   C2B57812   2.537  24.489   6.750
 7810POPC   C3B57813   2.498  24.480   7.050
 7810POPC   C4B57814   2.559  24.408   7.350
 7811POPC   NC357815  19.014  14.451   5.550
 7811POPC   PO457816  19.039  14.449   5.850
 7811POPC   GL157817  19.098  14.385   6.150
 7811POPC   GL257818  19.165  14.540   6.150
 7811POPC   C1A57819  19.090  14.393   6.450
 7811POPC   D2A57820  19.085  14.434   6.750
 7811POPC   C3A57821  19.075  14.449   7.050
 7811POPC   C4A57822  19.095  14.417   7.350
 7811POPC   C1B57823  19.138  14.621   6.450
 7811POPC   C2B57824  19.139  14.649   6.750
 7811POPC   C3B57825  19.162  14.612   7.050
 7811POPC   C4B57826  19.195  14.629   7.350
 7812POPC   NC357827   2.030  36.878   5.550
 7812POPC   PO457828   2.000  36.905   5.850
 7812POPC   GL157829   1.999  36.916   6.150
 7812POPC   GL257830   2.113  36.886   6.150
 7812POPC   C1A57831   1.993  36.927   6.450
 7812POPC   D2A57832   2.012  36.904   6.750
 7812POPC   C3A57833   1.969  36.868   7.050
 7812POPC   C4A57834   1.991  36.864   7.350
 7812POPC   C1B57835   2.221  36.847   6.450
 7812POPC   C2B57836   2.212  36.800   6.750
 7812POPC   C3B57837   2.281  36.894   7.050
 7812POPC   C4B57838   2.226  36.841   7.350
 7813POPC   NC357839  35.393  25.276   5.550
 7813POPC   PO457840  35.387  25.252   5.850
 7813POPC   GL157841  35.373  25.275   6.150
 7813POPC   GL257842  35.198  25.208   6.150
 7813POPC   C1A57843  35.331  25.271   6.450
 7813POPC   D2A57844  35.307  25.271   6.750
 7813POPC   C3A57845  35.314  25.249   7.050
 7813POPC   C4A57846  35.383  25.298   7.350
 7813POPC   C1B57847  35.064  25.195   6.450
 7813POPC   C2B57848  35.078  25.187   6.750
 7813POPC   C3B57849  35.083  25.236   7.050
 7813POPC   C4B57850  35.060  25.163   7.350
 7814POPC   NC357851  44.615  24.511   5.550
 7814POPC   PO457852  44.674  24.507   5.850
 7814POPC   GL157853  44.638  24.467   6.150
 7814POPC   GL257854  44.519  24.511   6.150
 7814POPC   C1A57855  44.669  24.454   6.450
 7814POPC   D2A57856  44.708  24.464   6.750
 7814POPC   C3A57857  44.673  24.449   7.050
 7814POPC   C4A57858  44.671  24.459   7.350
 7814POPC   C1B57859  44.444  24.535   6.450
 7814POPC   C2B57860  44.454  24.575   6.750
 7814POPC   C3B57861  44.439  24.617   7.050
 7814POPC   C4B57862  44.422  24.543   7.350
 7815POPC   NC357863  27.558  32.280   5.550
 7815POPC   PO457864  27.579  32.276   5.850
 7815POPC   GL157865  27.554  32.249   6.150
 7815POPC   GL257866  27.420  32.227   6.150
 7815POPC   C1A57867  27.577  32.289   6.450
 7815POPC   D2A57868  27.627  32.232   6.750
 7815POPC   C3A57869  27.612  32.237   7.050
 7815POPC   C4A57870  27.576  32.284   7.350
 7815POPC   C1B57871  27.380  32.236   6.450
 7815POPC   C2B57872  27.306  32.225   6.750
 7815POPC   C3B57873  27.315  32.236   7.050
 7815POPC   C4B57874  27.385  32.264   7.350
 7816POPC   NC357875  29.954  16.699   5.550
 7816POPC   PO457876  29.878  16.726   5.850
 7816POPC   GL157877  29.877  16.681   6.150
 7816POPC   GL257878  29.911  16.559   6.150
 7816POPC   C1A57879  29.895  16.703   6.450
 7816POPC   D2A57880  29.920  16.750   6.750
 7816POPC   C3A57881  29.892  16.778   7.050
 7816POPC   C4A57882  29.897  16.718   7.350
 7816POPC   C1B57883  29.898  16.446   6.450
 7816POPC   C2B57884  29.875  16.443   6.750
 7816POPC   C3B57885  29.868  16.517   7.050
 7816POPC   C4B57886  29.895  16.508   7.350
 7817POPC   NC357887  20.637   5.075   5.550
 7817POPC   PO457888  20.621   5.134   5.850
 7817POPC   GL157889  20.569   5.082   6.150
 7817POPC   GL257890  20.470   5.097   6.150
 7817POPC   C1A57891  20.595   5.071   6.450
 7817POPC   D2A57892  20.659   5.135   6.750
 7817POPC   C3A57893  20.599   5.103   7.050
 7817POPC   C4A57894  20.571   5.109   7.350
 7817POPC   C1B57895  20.367   5.062   6.450
 7817POPC   C2B57896  20.397   5.113   6.750
 7817POPC   C3B57897  20.319   5.049   7.050
 7817POPC   C4B57898  20.336   5.125   7.350
 7818POPC   NC357899  19.104  12.071   5.550
 7818POPC   PO457900  19.034  12.085   5.850
 7818POPC   GL157901  19.015  12.048   6.150
 7818POPC   GL257902  19.169  12.067   6.150
 7818POPC   C1A57903  19.052  12.073   6.450
 7818POPC   D2A57904  19.106  12.123   6.750
 7818POPC   C3A57905  19.071  12.073   7.050
 7818POPC   C4A57906  19.020  12.055   7.350
 7818POPC   C1B57907  19.287  11.972   6.450
 7818POPC   C2B57908  19.243  11.950   6.750
 7818POPC   C3B57909  19.306  11.998   7.050
 7818POPC   C4B57910  19.291  11.974   7.350
 7819POPC   NC357911  36.926  29.949   5.550
 7819POPC   PO457912  36.887  29.930   5.850
 7819POPC   GL157913  36.879  29.887   6.150
 7819POPC   GL257914  36.799  29.869   6.150
 7819POPC   C1A57915  36.883  29.969   6.450
 7819POPC   D2A57916  36.917  29.909   6.750
 7819POPC   C3A57917  36.893  29.903   7.050
 7819POPC   C4A57918  36.854  29.929   7.350
 7819POPC   C1B57919  36.707  29.896   6.450
 7819POPC   C2B57920  36.665  29.835   6.750
 7819POPC   C3B57921  36.664  29.805   7.050
 7819POPC   C4B57922  36.707  29.894   7.350
 7820POPC   NC357923  10.517  22.126   5.550
 7820POPC   PO457924  10.501  22.200   5.850
 7820POPC   GL157925  10.542  22.135   6.150
 7820POPC   GL257926  10.422  22.059   6.150
 7820POPC   C1A57927  10.526  22.181   6.450
 7820POPC   D2A57928  10.504  22.146   6.750
 7820POPC   C3A57929  10.477  22.153   7.050
 7820POPC   C4A57930  10.514  22.145   7.350
 7820POPC   C1B57931  10.373  21.980   6.450
 7820POPC   C2B57932  10.344  21.961   6.750
 7820POPC   C3B57933  10.299  21.988   7.050
 7820POPC   C4B57934  10.347  21.986   7.350
 7821POPC   NC357935   1.216  14.429   5.550
 7821POPC   PO457936   1.188  14.412   5.850
 7821POPC   GL157937   1.238  14.417   6.150
 7821POPC   GL257938   1.137  14.493   6.150
 7821POPC   C1A57939   1.252  14.373   6.450
 7821POPC   D2A57940   1.165  14.418   6.750
 7821POPC   C3A57941   1.220  14.388   7.050
 7821POPC   C4A57942   1.252  14.421   7.350
 7821POPC   C1B57943   1.085  14.607   6.450
 7821POPC   C2B57944   1.046  14.596   6.750
 7821POPC   C3B57945   1.056  14.604   7.050
 7821POPC   C4B57946   1.020  14.550   7.350
 7822POPC   NC357947  42.376   5.083   5.550
 7822POPC   PO457948  42.303   5.134   5.850
 7822POPC   GL157949  42.352   5.098   6.150
 7822POPC   GL257950  42.397   5.207   6.150
 7822POPC   C1A57951  42.317   5.069   6.450
 7822POPC   D2A57952  42.318   5.056   6.750
 7822POPC   C3A57953  42.298   5.127   7.050
 7822POPC   C4A57954  42.304   5.138   7.350
 7822POPC   C1B57955  42.423   5.264   6.450
 7822POPC   C2B57956  42.487   5.330   6.750
 7822POPC   C3B57957  42.424   5.286   7.050
 7822POPC   C4B57958  42.493   5.324   7.350
 7823POPC   NC357959   1.178  33.775   5.550
 7823POPC   PO457960   1.227  33.767   5.850
 7823POPC   GL157961   1.220  33.756   6.150
 7823POPC   GL257962   1.335  33.692   6.150
 7823POPC   C1A57963   1.229  33.830   6.450
 7823POPC   D2A57964   1.186  33.842   6.750
 7823POPC   C3A57965   1.215  33.841   7.050
 7823POPC   C4A57966   1.167  33.842   7.350
 7823POPC   C1B57967   1.452  33.678   6.450
 7823POPC   C2B57968   1.385  33.621   6.750
 7823POPC   C3B57969   1.365  33.658   7.050
 7823POPC   C4B57970   1.452  33.635   7.350
 7824POPC   NC357971   2.807  18.325   5.550
 7824POPC   PO457972   2.750  18.302   5.850
 7824POPC   GL157973   2.759  18.293   6.150
 7824POPC   GL257974   2.714  18.399   6.150
 7824POPC   C1A57975   2.730  18.316   6.450
 7824POPC   D2A57976   2.806  18.319   6.750
 7824POPC   C3A57977   2.753  18.238   7.050
 7824POPC   C4A57978   2.728  18.304   7.350
 7824POPC   C1B57979   2.625  18.540   6.450
 7824POPC   C2B57980   2.604  18.544   6.750
 7824POPC   C3B57981   2.628  18.518   7.050
 7824POPC   C4B57982   2.676  18.526   7.350
 7825POPC   NC357983   5.130  41.540   5.550
 7825POPC   PO457984   5.117  41.564   5.850
 7825POPC   GL157985   5.053  41.515   6.150
 7825POPC   GL257986   5.046  41.427   6.150
 7825POPC   C1A57987   5.120  41.553   6.450
 7825POPC   D2A57988   5.050  41.597   6.750
 7825POPC   C3A57989   5.106  41.511   7.050
 7825POPC   C4A57990   5.049  41.561   7.350
 7825POPC   C1B57991   5.020  41.288   6.450
 7825POPC   C2B57992   5.032  41.262   6.750
 7825POPC   C3B57993   5.082  41.310   7.050
 7825POPC   C4B57994   5.063  41.321   7.350
 7826POPC   NC357995  19.814  23.686   5.550
 7826POPC   PO457996  19.802  23.725   5.850
 7826POPC   GL157997  19.863  23.737   6.150
 7826POPC   GL257998  19.934  23.856   6.150
 7826POPC   C1A57999  19.810  23.757   6.450
 7826POPC   D2A58000  19.853  23.721   6.750
 7826POPC   C3A58001  19.883  23.752   7.050
 7826POPC   C4A58002  19.817  23.679   7.350
 7826POPC   C1B58003  20.013  23.937   6.450
 7826POPC   C2B58004  19.987  23.898   6.750
 7826POPC   C3B58005  19.931  23.897   7.050
 7826POPC   C4B58006  19.942  23.963   7.350
 7827POPC   NC358007  25.258  12.098   5.550
 7827POPC   PO458008  25.259  12.063   5.850
 7827POPC   GL158009  25.271  12.055   6.150
 7827POPC   GL258010  25.277  12.193   6.150
 7827POPC   C1A58011  25.250  12.071   6.450
 7827POPC   D2A58012  25.293  12.047   6.750
 7827POPC   C3A58013  25.314  12.104   7.050
 7827POPC   C4A58014  25.279  12.093   7.350
 7827POPC   C1B58015  25.172  12.280   6.450
 7827POPC   C2B58016  25.182  12.366   6.750
 7827POPC   C3B58017  25.249  12.320   7.050
 7827POPC   C4B58018  25.237  12.303   7.350
 7828POPC   NC358019  33.784  43.078   5.550
 7828POPC   PO458020  33.815  43.108   5.850
 7828POPC   GL158021  33.834  43.133   6.150
 7828POPC   GL258022  33.719  43.011   6.150
 7828POPC   C1A58023  33.829  43.088   6.450
 7828POPC   D2A58024  33.826  43.131   6.750
 7828POPC   C3A58025  33.767  43.144   7.050
 7828POPC   C4A58026  33.752  43.127   7.350
 7828POPC   C1B58027  33.665  42.869   6.450
 7828POPC   C2B58028  33.616  42.912   6.750
 7828POPC   C3B58029  33.696  42.892   7.050
 7828POPC   C4B58030  33.631  42.911   7.350
 7829POPC   NC358031  41.564  29.882   5.550
 7829POPC   PO458032  41.593  29.954   5.850
 7829POPC   GL158033  41.606  29.969   6.150
 7829POPC   GL258034  41.561  29.819   6.150
 7829POPC   C1A58035  41.532  29.872   6.450
 7829POPC   D2A58036  41.588  29.933   6.750
 7829POPC   C3A58037  41.551  29.961   7.050
 7829POPC   C4A58038  41.606  29.908   7.350
 7829POPC   C1B58039  41.610  29.640   6.450
 7829POPC   C2B58040  41.648  29.684   6.750
 7829POPC   C3B58041  41.649  29.717   7.050
 7829POPC   C4B58042  41.600  29.708   7.350
 7830POPC   NC358043  37.716   1.245   5.550
 7830POPC   PO458044  37.631   1.211   5.850
 7830POPC   GL158045  37.651   1.208   6.150
 7830POPC   GL258046  37.782   1.142   6.150
 7830POPC   C1A58047  37.632   1.182   6.450
 7830POPC   D2A58048  37.675   1.190   6.750
 7830POPC   C3A58049  37.704   1.254   7.050
 7830POPC   C4A58050  37.677   1.232   7.350
 7830POPC   C1B58051  37.869   1.081   6.450
 7830POPC   C2B58052  37.825   1.026   6.750
 7830POPC   C3B58053  37.906   0.998   7.050
 7830POPC   C4B58054  37.842   1.027   7.350
 7831POPC   NC358055  21.374  18.250   5.550
 7831POPC   PO458056  21.364  18.324   5.850
 7831POPC   GL158057  21.407  18.254   6.150
 7831POPC   GL258058  21.429  18.386   6.150
 7831POPC   C1A58059  21.345  18.278   6.450
 7831POPC   D2A58060  21.382  18.296   6.750
 7831POPC   C3A58061  21.425  18.233   7.050
 7831POPC   C4A58062  21.417  18.315   7.350
 7831POPC   C1B58063  21.385  18.567   6.450
 7831POPC   C2B58064  21.444  18.511   6.750
 7831POPC   C3B58065  21.406  18.562   7.050
 7831POPC   C4B58066  21.444  18.544   7.350
 7832POPC   NC358067  30.732  43.125   5.550
 7832POPC   PO458068  30.744  43.150   5.850
 7832POPC   GL158069  30.680  43.126   6.150
 7832POPC   GL258070  30.556  43.033   6.150
 7832POPC   C1A58071  30.699  43.152   6.450
 7832POPC   D2A58072  30.695  43.068   6.750
 7832POPC   C3A58073  30.729  43.090   7.050
 7832POPC   C4A58074  30.665  43.086   7.350
 7832POPC   C1B58075  30.494  43.056   6.450
 7832POPC   C2B58076  30.454  42.972   6.750
 7832POPC   C3B58077  30.440  42.978   7.050
 7832POPC   C4B58078  30.447  42.986   7.350
 7833POPC   NC358079  33.023  33.834   5.550
 7833POPC   PO458080  33.016  33.845   5.850
 7833POPC   GL158081  32.998  33.795   6.150
 7833POPC   GL258082  32.993  33.882   6.150
 7833POPC   C1A58083  33.067  33.841   6.450
 7833POPC   D2A58084  32.981  33.787   6.750
 7833POPC   C3A58085  32.983  33.842   7.050
 7833POPC   C4A58086  33.037  33.833   7.350
 7833POPC   C1B58087  32.983  34.028   6.450
 7833POPC   C2B58088  32.926  34.006   6.750
 7833POPC   C3B58089  32.929  34.049   7.050
 7833POPC   C4B58090  32.927  34.058   7.350
 7834POPC   NC358091  36.917  25.289   5.550
 7834POPC   PO458092  36.880  25.288   5.850
 7834POPC   GL158093  36.891  25.309   6.150
 7834POPC   GL258094  37.038  25.223   6.150
 7834POPC   C1A58095  36.859  25.271   6.450
 7834POPC   D2A58096  36.911  25.276   6.750
 7834POPC   C3A58097  36.856  25.263   7.050
 7834POPC   C4A58098  36.870  25.292   7.350
 7834POPC   C1B58099  37.169  25.233   6.450
 7834POPC   C2B58100  37.183  25.246   6.750
 7834POPC   C3B58101  37.148  25.310   7.050
 7834POPC   C4B58102  37.108  25.313   7.350
 7835POPC   NC358103  18.332  36.891   5.550
 7835POPC   PO458104  18.255  36.918   5.850
 7835POPC   GL158105  18.276  36.858   6.150
 7835POPC   GL258106  18.385  36.948   6.150
 7835POPC   C1A58107  18.262  36.881   6.450
 7835POPC   D2A58108  18.320  36.919   6.750
 7835POPC   C3A58109  18.249  36.934   7.050
 7835POPC   C4A58110  18.329  36.945   7.350
 7835POPC   C1B58111  18.451  37.034   6.450
 7835POPC   C2B58112  18.476  36.997   6.750
 7835POPC   C3B58113  18.534  37.041   7.050
 7835POPC   C4B58114  18.479  37.073   7.350
 7836POPC   NC358115   7.415  43.074   5.550
 7836POPC   PO458116   7.448  43.118   5.850
 7836POPC   GL158117   7.421  43.089   6.150
 7836POPC   GL258118   7.446  43.007   6.150
 7836POPC   C1A58119   7.414  43.063   6.450
 7836POPC   D2A58120   7.417  43.135   6.750
 7836POPC   C3A58121   7.415  43.090   7.050
 7836POPC   C4A58122   7.381  43.102   7.350
 7836POPC   C1B58123   7.384  42.827   6.450
 7836POPC   C2B58124   7.372  42.844   6.750
 7836POPC   C3B58125   7.410  42.879   7.050
 7836POPC   C4B58126   7.369  42.904   7.350
 7837POPC   NC358127   9.775   5.893   5.550
 7837POPC   PO458128   9.722   5.821   5.850
 7837POPC   GL158129   9.761   5.847   6.150
 7837POPC   GL258130   9.641   5.810   6.150
 7837POPC   C1A58131   9.710   5.851   6.450
 7837POPC   D2A58132   9.718   5.834   6.750
 7837POPC   C3A58133   9.738   5.884   7.050
 7837POPC   C4A58134   9.761   5.825   7.350
 7837POPC   C1B58135   9.551   5.735   6.450
 7837POPC   C2B58136   9.570   5.753   6.750
 7837POPC   C3B58137   9.496   5.733   7.050
 7837POPC   C4B58138   9.516   5.779   7.350
 7838POPC   NC358139  17.495  15.922   5.550
 7838POPC   PO458140  17.555  15.941   5.850
 7838POPC   GL158141  17.487  15.917   6.150
 7838POPC   GL258142  17.383  15.876   6.150
 7838POPC   C1A58143  17.473  16.004   6.450
 7838POPC   D2A58144  17.544  15.971   6.750
 7838POPC   C3A58145  17.543  15.959   7.050
 7838POPC   C4A58146  17.536  15.969   7.350
 7838POPC   C1B58147  17.218  15.893   6.450
 7838POPC   C2B58148  17.279  15.839   6.750
 7838POPC   C3B58149  17.227  15.894   7.050
 7838POPC   C4B58150  17.281  15.929   7.350
 7839POPC   NC358151   1.947  37.694   5.550
 7839POPC   PO458152   1.988  37.705   5.850
 7839POPC   GL158153   1.969  37.643   6.150
 7839POPC   GL258154   1.954  37.516   6.150
 7839POPC   C1A58155   2.026  37.688   6.450
 7839POPC   D2A58156   2.003  37.699   6.750
 7839POPC   C3A58157   2.034  37.645   7.050
 7839POPC   C4A58158   2.004  37.659   7.350
 7839POPC   C1B58159   1.908  37.489   6.450
 7839POPC   C2B58160   1.878  37.425   6.750
 7839POPC   C3B58161   1.882  37.467   7.050
 7839POPC   C4B58162   1.893  37.472   7.350
 7840POPC   NC358163   4.309  26.802   5.550
 7840POPC   PO458164   4.354  26.818   5.850
 7840POPC   GL158165   4.325  26.831   6.150
 7840POPC   GL258166   4.266  26.781   6.150
 7840POPC   C1A58167   4.269  26.854   6.450
 7840POPC   D2A58168   4.332  26.799   6.750
 7840POPC   C3A58169   4.273  26.839   7.050
 7840POPC   C4A58170   4.323  26.837   7.350
 7840POPC   C1B58171   4.135  26.658   6.450
 7840POPC   C2B58172   4.082  26.627   6.750
 7840POPC   C3B58173   4.082  26.628   7.050
 7840POPC   C4B58174   4.117  26.622   7.350
 7841POPC   NC358175  41.591  15.193   5.550
 7841POPC   PO458176  41.558  15.191   5.850
 7841POPC   GL158177  41.569  15.216   6.150
 7841POPC   GL258178  41.638  15.262   6.150
 7841POPC   C1A58179  41.604  15.138   6.450
 7841POPC   D2A58180  41.590  15.155   6.750
 7841POPC   C3A58181  41.514  15.221   7.050
 7841POPC   C4A58182  41.517  15.222   7.350
 7841POPC   C1B58183  41.741  15.262   6.450
 7841POPC   C2B58184  41.834  15.273   6.750
 7841POPC   C3B58185  41.758  15.293   7.050
 7841POPC   C4B58186  41.809  15.261   7.350
 7842POPC   NC358187  18.298  43.842   5.550
 7842POPC   PO458188  18.302  43.843   5.850
 7842POPC   GL158189  18.298  43.931   6.150
 7842POPC   GL258190  18.148  43.832   6.150
 7842POPC   C1A58191  18.248  43.932   6.450
 7842POPC   D2A58192  18.267  43.863   6.750
 7842POPC   C3A58193  18.269  43.857   7.050
 7842POPC   C4A58194  18.263  43.886   7.350
 7842POPC   C1B58195  18.007  43.823   6.450
 7842POPC   C2B58196  18.009  43.782   6.750
 7842POPC   C3B58197  18.086  43.827   7.050
 7842POPC   C4B58198  18.031  43.758   7.350
 7843POPC   NC358199  29.918  13.599   5.550
 7843POPC   PO458200  29.886  13.613   5.850
 7843POPC   GL158201  29.896  13.649   6.150
 7843POPC   GL258202  30.070  13.715   6.150
 7843POPC   C1A58203  29.955  13.619   6.450
 7843POPC   D2A58204  29.905  13.634   6.750
 7843POPC   C3A58205  29.961  13.645   7.050
 7843POPC   C4A58206  29.914  13.641   7.350
 7843POPC   C1B58207  30.094  13.740   6.450
 7843POPC   C2B58208  30.102  13.716   6.750
 7843POPC   C3B58209  30.127  13.702   7.050
 7843POPC   C4B58210  30.188  13.710   7.350
 7844POPC   NC358211   0.435  38.494   5.550
 7844POPC   PO458212   0.393  38.431   5.850
 7844POPC   GL158213   0.434  38.460   6.150
 7844POPC   GL258214   0.473  38.591   6.150
 7844POPC   C1A58215   0.420  38.419   6.450
 7844POPC   D2A58216   0.434  38.468   6.750
 7844POPC   C3A58217   0.453  38.429   7.050
 7844POPC   C4A58218   0.401  38.438   7.350
 7844POPC   C1B58219   0.508  38.654   6.450
 7844POPC   C2B58220   0.552  38.657   6.750
 7844POPC   C3B58221   0.557  38.717   7.050
 7844POPC   C4B58222   0.461  38.711   7.350
 7845POPC   NC358223   2.802   4.326   5.550
 7845POPC   PO458224   2.729   4.359   5.850
 7845POPC   GL158225   2.746   4.304   6.150
 7845POPC   GL258226   2.670   4.193   6.150
 7845POPC   C1A58227   2.795   4.352   6.450
 7845POPC   D2A58228   2.727   4.283   6.750
 7845POPC   C3A58229   2.735   4.280   7.050
 7845POPC   C4A58230   2.804   4.307   7.350
 7845POPC   C1B58231   2.573   4.095   6.450
 7845POPC   C2B58232   2.618   4.141   6.750
 7845POPC   C3B58233   2.655   4.073   7.050
 7845POPC   C4B58234   2.606   4.130   7.350
 7846POPC   NC358235  36.948   4.284   5.550
 7846POPC   PO458236  36.916   4.268   5.850
 7846POPC   GL158237  36.881   4.302   6.150
 7846POPC   GL258238  36.900   4.214   6.150
 7846POPC   C1A58239  36.914   4.350   6.450
 7846POPC   D2A58240  36.870   4.351   6.750
 7846POPC   C3A58241  36.944   4.349   7.050
 7846POPC   C4A58242  36.889   4.324   7.350
 7846POPC   C1B58243  36.956   4.060   6.450
 7846POPC   C2B58244  36.959   4.055   6.750
 7846POPC   C3B58245  36.983   4.082   7.050
 7846POPC   C4B58246  36.963   4.105   7.350
 7847POPC   NC358247  21.412   3.534   5.550
 7847POPC   PO458248  21.428   3.533   5.850
 7847POPC   GL158249  21.345   3.536   6.150
 7847POPC   GL258250  21.489   3.618   6.150
 7847POPC   C1A58251  21.389   3.581   6.450
 7847POPC   D2A58252  21.391   3.515   6.750
 7847POPC   C3A58253  21.339   3.508   7.050
 7847POPC   C4A58254  21.344   3.525   7.350
 7847POPC   C1B58255  21.592   3.666   6.450
 7847POPC   C2B58256  21.589   3.639   6.750
 7847POPC   C3B58257  21.641   3.629   7.050
 7847POPC   C4B58258  21.592   3.657   7.350
 7848POPC   NC358259  22.150  22.192   5.550
 7848POPC   PO458260  22.197  22.178   5.850
 7848POPC   GL158261  22.116  22.209   6.150
 7848POPC   GL258262  22.244  22.098   6.150
 7848POPC   C1A58263  22.157  22.124   6.450
 7848POPC   D2A58264  22.193  22.154   6.750
 7848POPC   C3A58265  22.117  22.211   7.050
 7848POPC   C4A58266  22.205  22.175   7.350
 7848POPC   C1B58267  22.340  22.047   6.450
 7848POPC   C2B58268  22.368  22.033   6.750
 7848POPC   C3B58269  22.371  22.001   7.050
 7848POPC   C4B58270  22.325  22.062   7.350
 7849POPC   NC358271  34.563  34.563   5.550
 7849POPC   PO458272  34.601  34.620   5.850
 7849POPC   GL158273  34.568  34.561   6.150
 7849POPC   GL258274  34.480  34.501   6.150
 7849POPC   C1A58275  34.549  34.564   6.450
 7849POPC   D2A58276  34.596  34.606   6.750
 7849POPC   C3A58277  34.543  34.556   7.050
 7849POPC   C4A58278  34.579  34.590   7.350
 7849POPC   C1B58279  34.302  34.496   6.450
 7849POPC   C2B58280  34.311  34.457   6.750
 7849POPC   C3B58281  34.330  34.518   7.050
 7849POPC   C4B58282  34.390  34.484   7.350
 7850POPC   NC358283  15.208  15.936   5.550
 7850POPC   PO458284  15.153  15.951   5.850
 7850POPC   GL158285  15.185  15.907   6.150
 7850POPC   GL258286  15.194  16.073   6.150
 7850POPC   C1A58287  15.160  15.983   6.450
 7850POPC   D2A58288  15.216  15.909   6.750
 7850POPC   C3A58289  15.160  15.977   7.050
 7850POPC   C4A58290  15.203  15.932   7.350
 7850POPC   C1B58291  15.188  16.254   6.450
 7850POPC   C2B58292  15.125  16.156   6.750
 7850POPC   C3B58293  15.211  16.184   7.050
 7850POPC   C4B58294  15.167  16.185   7.350
 7851POPC   NC358295   0.485  41.553   5.550
 7851POPC   PO458296   0.446  41.585   5.850
 7851POPC   GL158297   0.471  41.604   6.150
 7851POPC   GL258298   0.494  41.454   6.150
 7851POPC   C1A58299   0.442  41.540   6.450
 7851POPC   D2A58300   0.399  41.536   6.750
 7851POPC   C3A58301   0.396  41.560   7.050
 7851POPC   C4A58302   0.409  41.573   7.350
 7851POPC   C1B58303   0.551  41.351   6.450
 7851POPC   C2B58304   0.573  41.317   6.750
 7851POPC   C3B58305   0.536  41.329   7.050
 7851POPC   C4B58306   0.520  41.278   7.350
 7852POPC   NC358307   3.532  40.032   5.550
 7852POPC   PO458308   3.515  39.971   5.850
 7852POPC   GL158309   3.586  40.041   6.150
 7852POPC   GL258310   3.611  40.066   6.150
 7852POPC   C1A58311   3.577  39.989   6.450
 7852POPC   D2A58312   3.542  40.018   6.750
 7852POPC   C3A58313   3.528  39.983   7.050
 7852POPC   C4A58314   3.532  40.052   7.350
 7852POPC   C1B58315   3.753  40.081   6.450
 7852POPC   C2B58316   3.796  40.041   6.750
 7852POPC   C3B58317   3.825  40.067   7.050
 7852POPC   C4B58318   3.754  40.046   7.350
 7853POPC   NC358319  16.719   6.640   5.550
 7853POPC   PO458320  16.778   6.642   5.850
 7853POPC   GL158321  16.758   6.612   6.150
 7853POPC   GL258322  16.794   6.775   6.150
 7853POPC   C1A58323  16.770   6.629   6.450
 7853POPC   D2A58324  16.694   6.680   6.750
 7853POPC   C3A58325  16.713   6.647   7.050
 7853POPC   C4A58326  16.698   6.670   7.350
 7853POPC   C1B58327  16.903   6.786   6.450
 7853POPC   C2B58328  16.879   6.786   6.750
 7853POPC   C3B58329  16.930   6.866   7.050
 7853POPC   C4B58330  16.864   6.833   7.350
 7854POPC   NC358331  35.362  35.327   5.550
 7854POPC   PO458332  35.395  35.317   5.850
 7854POPC   GL158333  35.361  35.363   6.150
 7854POPC   GL258334  35.200  35.305   6.150
 7854POPC   C1A58335  35.308  35.385   6.450
 7854POPC   D2A58336  35.326  35.360   6.750
 7854POPC   C3A58337  35.392  35.362   7.050
 7854POPC   C4A58338  35.313  35.321   7.350
 7854POPC   C1B58339  35.105  35.234   6.450
 7854POPC   C2B58340  35.191  35.208   6.750
 7854POPC   C3B58341  35.111  35.188   7.050
 7854POPC   C4B58342  35.102  35.207   7.350
 7855POPC   NC358343  26.049   4.313   5.550
 7855POPC   PO458344  26.007   4.279   5.850
 7855POPC   GL158345  26.019   4.299   6.150
 7855POPC   GL258346  26.149   4.397   6.150
 7855POPC   C1A58347  26.047   4.305   6.450
 7855POPC   D2A58348  26.057   4.355   6.750
 7855POPC   C3A58349  26.047   4.279   7.050
 7855POPC   C4A58350  26.075   4.347   7.350
 7855POPC   C1B58351  26.245   4.439   6.450
 7855POPC   C2B58352  26.251   4.523   6.750
 7855POPC   C3B58353  26.252   4.483   7.050
 7855POPC   C4B58354  26.243   4.458   7.350
 7856POPC   NC358355  14.425   3.519   5.550
 7856POPC   PO458356  14.367   3.512   5.850
 7856POPC   GL158357  14.384   3.575   6.150
 7856POPC   GL258358  14.351   3.680   6.150
 7856POPC   C1A58359  14.361   3.493   6.450
 7856POPC   D2A58360  14.389   3.565   6.750
 7856POPC   C3A58361  14.363   3.526   7.050
 7856POPC   C4A58362  14.447   3.512   7.350
 7856POPC   C1B58363  14.293   3.748   6.450
 7856POPC   C2B58364  14.387   3.777   6.750
 7856POPC   C3B58365  14.309   3.803   7.050
 7856POPC   C4B58366  14.327   3.781   7.350
 7857POPC   NC358367  36.127  21.354   5.550
 7857POPC   PO458368  36.130  21.411   5.850
 7857POPC   GL158369  36.089  21.397   6.150
 7857POPC   GL258370  36.089  21.307   6.150
 7857POPC   C1A58371  36.137  21.366   6.450
 7857POPC   D2A58372  36.127  21.339   6.750
 7857POPC   C3A58373  36.094  21.340   7.050
 7857POPC   C4A58374  36.120  21.425   7.350
 7857POPC   C1B58375  36.085  21.139   6.450
 7857POPC   C2B58376  36.024  21.107   6.750
 7857POPC   C3B58377  36.082  21.109   7.050
 7857POPC   C4B58378  36.020  21.177   7.350
 7858POPC   NC358379  36.116  27.587   5.550
 7858POPC   PO458380  36.168  27.626   5.850
 7858POPC   GL158381  36.164  27.643   6.150
 7858POPC   GL258382  36.144  27.513   6.150
 7858POPC   C1A58383  36.100  27.603   6.450
 7858POPC   D2A58384  36.105  27.569   6.750
 7858POPC   C3A58385  36.131  27.560   7.050
 7858POPC   C4A58386  36.117  27.572   7.350
 7858POPC   C1B58387  36.127  27.340   6.450
 7858POPC   C2B58388  36.162  27.332   6.750
 7858POPC   C3B58389  36.177  27.382   7.050
 7858POPC   C4B58390  36.168  27.330   7.350
 7859POPC   NC358391  40.745  39.255   5.550
 7859POPC   PO458392  40.767  39.193   5.850
 7859POPC   GL158393  40.816  39.225   6.150
 7859POPC   GL258394  40.948  39.284   6.150
 7859POPC   C1A58395  40.789  39.199   6.450
 7859POPC   D2A58396  40.779  39.212   6.750
 7859POPC   C3A58397  40.745  39.235   7.050
 7859POPC   C4A58398  40.749  39.203   7.350
 7859POPC   C1B58399  41.040  39.343   6.450
 7859POPC   C2B58400  41.006  39.294   6.750
 7859POPC   C3B58401  41.060  39.307   7.050
 7859POPC   C4B58402  41.029  39.322   7.350
 7860POPC   NC358403   1.198  10.570   5.550
 7860POPC   PO458404   1.202  10.574   5.850
 7860POPC   GL158405   1.202  10.562   6.150
 7860POPC   GL258406   1.148  10.375   6.150
 7860POPC   C1A58407   1.202  10.489   6.450
 7860POPC   D2A58408   1.170  10.485   6.750
 7860POPC   C3A58409   1.222  10.551   7.050
 7860POPC   C4A58410   1.172  10.546   7.350
 7860POPC   C1B58411   1.136  10.338   6.450
 7860POPC   C2B58412   1.118  10.326   6.750
 7860POPC   C3B58413   1.064  10.340   7.050
 7860POPC   C4B58414   1.093  10.274   7.350
 7861POPC   NC358415  26.840   1.260   5.550
 7861POPC   PO458416  26.810   1.231   5.850
 7861POPC   GL158417  26.802   1.210   6.150
 7861POPC   GL258418  26.845   1.088   6.150
 7861POPC   C1A58419  26.838   1.223   6.450
 7861POPC   D2A58420  26.778   1.224   6.750
 7861POPC   C3A58421  26.832   1.181   7.050
 7861POPC   C4A58422  26.866   1.256   7.350
 7861POPC   C1B58423  26.852   0.974   6.450
 7861POPC   C2B58424  26.892   0.935   6.750
 7861POPC   C3B58425  26.869   0.962   7.050
 7861POPC   C4B58426  26.858   0.964   7.350
 7862POPC   NC358427  40.733  40.769   5.550
 7862POPC   PO458428  40.757  40.757   5.850
 7862POPC   GL158429  40.797  40.752   6.150
 7862POPC   GL258430  40.892  40.669   6.150
 7862POPC   C1A58431  40.802  40.765   6.450
 7862POPC   D2A58432  40.830  40.763   6.750
 7862POPC   C3A58433  40.824  40.771   7.050
 7862POPC   C4A58434  40.752  40.737   7.350
 7862POPC   C1B58435  41.012  40.648   6.450
 7862POPC   C2B58436  40.980  40.629   6.750
 7862POPC   C3B58437  40.998  40.577   7.050
 7862POPC   C4B58438  40.940  40.607   7.350
 7863POPC   NC358439  33.015  19.842   5.550
 7863POPC   PO458440  33.061  19.791   5.850
 7863POPC   GL158441  32.984  19.842   6.150
 7863POPC   GL258442  33.156  19.832   6.150
 7863POPC   C1A58443  33.026  19.826   6.450
 7863POPC   D2A58444  33.050  19.830   6.750
 7863POPC   C3A58445  33.003  19.861   7.050
 7863POPC   C4A58446  32.996  19.861   7.350
 7863POPC   C1B58447  33.253  19.784   6.450
 7863POPC   C2B58448  33.312  19.810   6.750
 7863POPC   C3B58449  33.242  19.810   7.050
 7863POPC   C4B58450  33.230  19.723   7.350
 7864POPC   NC358451  11.324  40.736   5.550
 7864POPC   PO458452  11.269  40.755   5.850
 7864POPC   GL158453  11.339  40.819   6.150
 7864POPC   GL258454  11.183  40.913   6.150
 7864POPC   C1A58455  11.281  40.800   6.450
 7864POPC   D2A58456  11.331  40.757   6.750
 7864POPC   C3A58457  11.314  40.803   7.050
 7864POPC   C4A58458  11.265  40.801   7.350
 7864POPC   C1B58459  11.159  40.946   6.450
 7864POPC   C2B58460  11.084  40.919   6.750
 7864POPC   C3B58461  11.076  40.907   7.050
 7864POPC   C4B58462  11.103  40.946   7.350
 7865POPC   NC358463  43.857  33.835   5.550
 7865POPC   PO458464  43.934  33.788   5.850
 7865POPC   GL158465  43.841  33.753   6.150
 7865POPC   GL258466  43.974  33.688   6.150
 7865POPC   C1A58467  43.871  33.835   6.450
 7865POPC   D2A58468  43.926  33.765   6.750
 7865POPC   C3A58469  43.869  33.817   7.050
 7865POPC   C4A58470  43.926  33.812   7.350
 7865POPC   C1B58471  44.009  33.554   6.450
 7865POPC   C2B58472  43.965  33.574   6.750
 7865POPC   C3B58473  44.023  33.607   7.050
 7865POPC   C4B58474  43.980  33.618   7.350
 7866POPC   NC358475   2.014  22.203   5.550
 7866POPC   PO458476   1.956  22.152   5.850
 7866POPC   GL158477   2.017  22.184   6.150
 7866POPC   GL258478   1.893  22.226   6.150
 7866POPC   C1A58479   1.970  22.119   6.450
 7866POPC   D2A58480   2.006  22.179   6.750
 7866POPC   C3A58481   1.990  22.175   7.050
 7866POPC   C4A58482   1.970  22.153   7.350
 7866POPC   C1B58483   1.848  22.352   6.450
 7866POPC   C2B58484   1.841  22.369   6.750
 7866POPC   C3B58485   1.832  22.364   7.050
 7866POPC   C4B58486   1.871  22.350   7.350
 7867POPC   NC358487  43.921   6.626   5.550
 7867POPC   PO458488  43.910   6.631   5.850
 7867POPC   GL158489  43.913   6.642   6.150
 7867POPC   GL258490  43.969   6.726   6.150
 7867POPC   C1A58491  43.915   6.613   6.450
 7867POPC   D2A58492  43.883   6.610   6.750
 7867POPC   C3A58493  43.889   6.608   7.050
 7867POPC   C4A58494  43.882   6.641   7.350
 7867POPC   C1B58495  44.032   6.831   6.450
 7867POPC   C2B58496  44.080   6.844   6.750
 7867POPC   C3B58497  44.051   6.788   7.050
 7867POPC   C4B58498  44.110   6.831   7.350
 7868POPC   NC358499   7.371  15.991   5.550
 7868POPC   PO458500   7.440  15.928   5.850
 7868POPC   GL158501   7.376  15.960   6.150
 7868POPC   GL258502   7.405  15.801   6.150
 7868POPC   C1A58503   7.464  15.979   6.450
 7868POPC   D2A58504   7.453  15.991   6.750
 7868POPC   C3A58505   7.422  15.909   7.050
 7868POPC   C4A58506   7.431  15.927   7.350
 7868POPC   C1B58507   7.413  15.662   6.450
 7868POPC   C2B58508   7.461  15.754   6.750
 7868POPC   C3B58509   7.426  15.668   7.050
 7868POPC   C4B58510   7.436  15.715   7.350
 7869POPC   NC358511  37.668  23.757   5.550
 7869POPC   PO458512  37.671  23.744   5.850
 7869POPC   GL158513  37.679  23.722   6.150
 7869POPC   GL258514  37.627  23.651   6.150
 7869POPC   C1A58515  37.682  23.665   6.450
 7869POPC   D2A58516  37.709  23.708   6.750
 7869POPC   C3A58517  37.641  23.752   7.050
 7869POPC   C4A58518  37.689  23.692   7.350
 7869POPC   C1B58519  37.439  23.554   6.450
 7869POPC   C2B58520  37.453  23.518   6.750
 7869POPC   C3B58521  37.475  23.528   7.050
 7869POPC   C4B58522  37.513  23.601   7.350
 7870POPC   NC358523  34.556  29.928   5.550
 7870POPC   PO458524  34.537  29.943   5.850
 7870POPC   GL158525  34.609  29.884   6.150
 7870POPC   GL258526  34.494  29.865   6.150
 7870POPC   C1A58527  34.534  29.953   6.450
 7870POPC   D2A58528  34.606  29.970   6.750
 7870POPC   C3A58529  34.603  29.919   7.050
 7870POPC   C4A58530  34.619  29.957   7.350
 7870POPC   C1B58531  34.308  29.944   6.450
 7870POPC   C2B58532  34.347  29.938   6.750
 7870POPC   C3B58533  34.353  29.886   7.050
 7870POPC   C4B58534  34.366  29.920   7.350
 7871POPC   NC358535  38.467  39.988   5.550
 7871POPC   PO458536  38.466  39.998   5.850
 7871POPC   GL158537  38.426  40.014   6.150
 7871POPC   GL258538  38.404  40.126   6.150
 7871POPC   C1A58539  38.482  39.973   6.450
 7871POPC   D2A58540  38.466  40.001   6.750
 7871POPC   C3A58541  38.440  40.028   7.050
 7871POPC   C4A58542  38.424  40.009   7.350
 7871POPC   C1B58543  38.423  40.240   6.450
 7871POPC   C2B58544  38.353  40.221   6.750
 7871POPC   C3B58545  38.345  40.205   7.050
 7871POPC   C4B58546  38.374  40.261   7.350
 7872POPC   NC358547  23.678  12.040   5.550
 7872POPC   PO458548  23.685  12.048   5.850
 7872POPC   GL158549  23.742  12.110   6.150
 7872POPC   GL258550  23.846  12.060   6.150
 7872POPC   C1A58551  23.758  12.089   6.450
 7872POPC   D2A58552  23.677  12.117   6.750
 7872POPC   C3A58553  23.744  12.106   7.050
 7872POPC   C4A58554  23.726  12.044   7.350
 7872POPC   C1B58555  23.959  12.055   6.450
 7872POPC   C2B58556  23.932  11.981   6.750
 7872POPC   C3B58557  23.954  12.015   7.050
 7872POPC   C4B58558  23.920  11.994   7.350
 7873POPC   NC358559  23.719  42.320   5.550
 7873POPC   PO458560  23.670  42.350   5.850
 7873POPC   GL158561  23.699  42.371   6.150
 7873POPC   GL258562  23.602  42.469   6.150
 7873POPC   C1A58563  23.692  42.318   6.450
 7873POPC   D2A58564  23.761  42.316   6.750
 7873POPC   C3A58565  23.712  42.340   7.050
 7873POPC   C4A58566  23.760  42.298   7.350
 7873POPC   C1B58567  23.498  42.530   6.450
 7873POPC   C2B58568  23.551  42.537   6.750
 7873POPC   C3B58569  23.570  42.558   7.050
 7873POPC   C4B58570  23.536  42.466   7.350
 7874POPC   NC358571   0.412   5.835   5.550
 7874POPC   PO458572   0.465   5.857   5.850
 7874POPC   GL158573   0.405   5.841   6.150
 7874POPC   GL258574   0.384   5.786   6.150
 7874POPC   C1A58575   0.430   5.854   6.450
 7874POPC   D2A58576   0.455   5.910   6.750
 7874POPC   C3A58577   0.459   5.909   7.050
 7874POPC   C4A58578   0.481   5.846   7.350
 7874POPC   C1B58579   0.323   5.626   6.450
 7874POPC   C2B58580   0.286   5.645   6.750
 7874POPC   C3B58581   0.289   5.659   7.050
 7874POPC   C4B58582   0.283   5.698   7.350
 7875POPC   NC358583   8.938  22.968   5.550
 7875POPC   PO458584   8.932  22.939   5.850
 7875POPC   GL158585   8.948  22.955   6.150
 7875POPC   GL258586   8.916  23.019   6.150
 7875POPC   C1A58587   8.957  22.939   6.450
 7875POPC   D2A58588   9.019  22.953   6.750
 7875POPC   C3A58589   8.965  22.970   7.050
 7875POPC   C4A58590   8.935  22.974   7.350
 7875POPC   C1B58591   8.787  23.028   6.450
 7875POPC   C2B58592   8.717  23.097   6.750
 7875POPC   C3B58593   8.762  23.050   7.050
 7875POPC   C4B58594   8.727  23.107   7.350
 7876POPC   NC358595  35.357  40.788   5.550
 7876POPC   PO458596  35.332  40.789   5.850
 7876POPC   GL158597  35.319  40.795   6.150
 7876POPC   GL258598  35.384  40.857   6.150
 7876POPC   C1A58599  35.373  40.814   6.450
 7876POPC   D2A58600  35.356  40.746   6.750
 7876POPC   C3A58601  35.316  40.773   7.050
 7876POPC   C4A58602  35.348  40.822   7.350
 7876POPC   C1B58603  35.512  41.014   6.450
 7876POPC   C2B58604  35.428  40.972   6.750
 7876POPC   C3B58605  35.504  41.052   7.050
 7876POPC   C4B58606  35.423  41.005   7.350
 7877POPC   NC358607  32.999  12.074   5.550
 7877POPC   PO458608  33.021  12.103   5.850
 7877POPC   GL158609  33.030  12.050   6.150
 7877POPC   GL258610  33.039  12.186   6.150
 7877POPC   C1A58611  33.024  12.045   6.450
 7877POPC   D2A58612  33.069  12.066   6.750
 7877POPC   C3A58613  33.019  12.121   7.050
 7877POPC   C4A58614  33.014  12.107   7.350
 7877POPC   C1B58615  33.051  12.321   6.450
 7877POPC   C2B58616  33.059  12.352   6.750
 7877POPC   C3B58617  33.134  12.348   7.050
 7877POPC   C4B58618  33.050  12.276   7.350
 7878POPC   NC358619  10.551  40.055   5.550
 7878POPC   PO458620  10.506  40.051   5.850
 7878POPC   GL158621  10.506  40.050   6.150
 7878POPC   GL258622  10.469  40.083   6.150
 7878POPC   C1A58623  10.531  40.045   6.450
 7878POPC   D2A58624  10.481  40.017   6.750
 7878POPC   C3A58625  10.531  40.029   7.050
 7878POPC   C4A58626  10.550  39.957   7.350
 7878POPC   C1B58627  10.375  40.126   6.450
 7878POPC   C2B58628  10.304  40.176   6.750
 7878POPC   C3B58629  10.351  40.186   7.050
 7878POPC   C4B58630  10.364  40.125   7.350
 7879POPC   NC358631  15.942   1.980   5.550
 7879POPC   PO458632  15.908   1.956   5.850
 7879POPC   GL158633  15.941   2.015   6.150
 7879POPC   GL258634  15.850   2.051   6.150
 7879POPC   C1A58635  15.969   1.941   6.450
 7879POPC   D2A58636  15.988   2.019   6.750
 7879POPC   C3A58637  15.940   2.032   7.050
 7879POPC   C4A58638  15.939   1.968   7.350
 7879POPC   C1B58639  15.812   2.208   6.450
 7879POPC   C2B58640  15.855   2.212   6.750
 7879POPC   C3B58641  15.831   2.179   7.050
 7879POPC   C4B58642  15.807   2.185   7.350
 7880POPC   NC358643  32.233  29.129   5.550
 7880POPC   PO458644  32.286  29.119   5.850
 7880POPC   GL158645  32.287  29.155   6.150
 7880POPC   GL258646  32.226  29.059   6.150
 7880POPC   C1A58647  32.263  29.104   6.450
 7880POPC   D2A58648  32.243  29.160   6.750
 7880POPC   C3A58649  32.293  29.138   7.050
 7880POPC   C4A58650  32.199  29.131   7.350
 7880POPC   C1B58651  32.184  28.893   6.450
 7880POPC   C2B58652  32.177  28.946   6.750
 7880POPC   C3B58653  32.132  28.914   7.050
 7880POPC   C4B58654  32.160  28.903   7.350
 7881POPC   NC358655   2.729  27.632   5.550
 7881POPC   PO458656   2.789  27.563   5.850
 7881POPC   GL158657   2.791  27.628   6.150
 7881POPC   GL258658   2.890  27.555   6.150
 7881POPC   C1A58659   2.785  27.642   6.450
 7881POPC   D2A58660   2.750  27.611   6.750
 7881POPC   C3A58661   2.731  27.636   7.050
 7881POPC   C4A58662   2.783  27.631   7.350
 7881POPC   C1B58663   2.934  27.444   6.450
 7881POPC   C2B58664   2.991  27.428   6.750
 7881POPC   C3B58665   2.961  27.447   7.050
 7881POPC   C4B58666   2.969  27.496   7.350
 7882POPC   NC358667  24.447  12.041   5.550
 7882POPC   PO458668  24.470  12.095   5.850
 7882POPC   GL158669  24.456  12.078   6.150
 7882POPC   GL258670  24.530  11.920   6.150
 7882POPC   C1A58671  24.513  12.069   6.450
 7882POPC   D2A58672  24.522  12.123   6.750
 7882POPC   C3A58673  24.513  12.051   7.050
 7882POPC   C4A58674  24.522  12.106   7.350
 7882POPC   C1B58675  24.646  11.805   6.450
 7882POPC   C2B58676  24.587  11.828   6.750
 7882POPC   C3B58677  24.600  11.811   7.050
 7882POPC   C4B58678  24.615  11.878   7.350
 7883POPC   NC358679   5.878  35.309   5.550
 7883POPC   PO458680   5.859  35.321   5.850
 7883POPC   GL158681   5.840  35.374   6.150
 7883POPC   GL258682   5.824  35.229   6.150
 7883POPC   C1A58683   5.841  35.320   6.450
 7883POPC   D2A58684   5.841  35.388   6.750
 7883POPC   C3A58685   5.894  35.351   7.050
 7883POPC   C4A58686   5.907  35.311   7.350
 7883POPC   C1B58687   5.652  35.193   6.450
 7883POPC   C2B58688   5.708  35.221   6.750
 7883POPC   C3B58689   5.719  35.221   7.050
 7883POPC   C4B58690   5.712  35.222   7.350
 7884POPC   NC358691  24.500  33.815   5.550
 7884POPC   PO458692  24.494  33.793   5.850
 7884POPC   GL158693  24.465  33.820   6.150
 7884POPC   GL258694  24.355  33.697   6.150
 7884POPC   C1A58695  24.538  33.804   6.450
 7884POPC   D2A58696  24.515  33.844   6.750
 7884POPC   C3A58697  24.491  33.794   7.050
 7884POPC   C4A58698  24.456  33.803   7.350
 7884POPC   C1B58699  24.299  33.630   6.450
 7884POPC   C2B58700  24.302  33.642   6.750
 7884POPC   C3B58701  24.338  33.600   7.050
 7884POPC   C4B58702  24.307  33.643   7.350
 7885POPC   NC358703  14.428   4.356   5.550
 7885POPC   PO458704  14.444   4.321   5.850
 7885POPC   GL158705  14.424   4.366   6.150
 7885POPC   GL258706  14.379   4.412   6.150
 7885POPC   C1A58707  14.378   4.303   6.450
 7885POPC   D2A58708  14.365   4.288   6.750
 7885POPC   C3A58709  14.446   4.345   7.050
 7885POPC   C4A58710  14.386   4.339   7.350
 7885POPC   C1B58711  14.336   4.605   6.450
 7885POPC   C2B58712  14.311   4.508   6.750
 7885POPC   C3B58713  14.282   4.566   7.050
 7885POPC   C4B58714  14.297   4.513   7.350
 7886POPC   NC358715   5.879   8.188   5.550
 7886POPC   PO458716   5.908   8.155   5.850
 7886POPC   GL158717   5.862   8.236   6.150
 7886POPC   GL258718   5.773   8.119   6.150
 7886POPC   C1A58719   5.853   8.147   6.450
 7886POPC   D2A58720   5.905   8.219   6.750
 7886POPC   C3A58721   5.855   8.241   7.050
 7886POPC   C4A58722   5.830   8.151   7.350
 7886POPC   C1B58723   5.688   8.009   6.450
 7886POPC   C2B58724   5.651   8.021   6.750
 7886POPC   C3B58725   5.720   8.057   7.050
 7886POPC   C4B58726   5.677   8.005   7.350
 7887POPC   NC358727  21.380  26.029   5.550
 7887POPC   PO458728  21.389  25.996   5.850
 7887POPC   GL158729  21.398  26.026   6.150
 7887POPC   GL258730  21.390  25.969   6.150
 7887POPC   C1A58731  21.386  26.005   6.450
 7887POPC   D2A58732  21.434  26.068   6.750
 7887POPC   C3A58733  21.353  26.026   7.050
 7887POPC   C4A58734  21.416  26.065   7.350
 7887POPC   C1B58735  21.467  25.807   6.450
 7887POPC   C2B58736  21.496  25.812   6.750
 7887POPC   C3B58737  21.491  25.778   7.050
 7887POPC   C4B58738  21.476  25.771   7.350
 7888POPC   NC358739   4.271  44.616   5.550
 7888POPC   PO458740   4.358  44.613   5.850
 7888POPC   GL158741   4.288  44.712   6.150
 7888POPC   GL258742   4.202  44.685   6.150
 7888POPC   C1A58743   4.291  44.678   6.450
 7888POPC   D2A58744   4.300  44.661   6.750
 7888POPC   C3A58745   4.358  44.684   7.050
 7888POPC   C4A58746   4.311  44.641   7.350
 7888POPC   C1B58747   4.041  44.721   6.450
 7888POPC   C2B58748   4.094  44.683   6.750
 7888POPC   C3B58749   4.071  44.716   7.050
 7888POPC   C4B58750   4.093  44.726   7.350
 7889POPC   NC358751  16.703  12.804   5.550
 7889POPC   PO458752  16.719  12.881   5.850
 7889POPC   GL158753  16.727  12.843   6.150
 7889POPC   GL258754  16.881  12.941   6.150
 7889POPC   C1A58755  16.728  12.898   6.450
 7889POPC   D2A58756  16.728  12.851   6.750
 7889POPC   C3A58757  16.749  12.856   7.050
 7889POPC   C4A58758  16.698  12.813   7.350
 7889POPC   C1B58759  16.938  12.910   6.450
 7889POPC   C2B58760  16.978  12.900   6.750
 7889POPC   C3B58761  16.961  12.935   7.050
 7889POPC   C4B58762  16.981  12.914   7.350
 7890POPC   NC358763  17.503  38.428   5.550
 7890POPC   PO458764  17.493  38.448   5.850
 7890POPC   GL158765  17.484  38.487   6.150
 7890POPC   GL258766  17.492  38.607   6.150
 7890POPC   C1A58767  17.489  38.450   6.450
 7890POPC   D2A58768  17.478  38.444   6.750
 7890POPC   C3A58769  17.548  38.466   7.050
 7890POPC   C4A58770  17.513  38.446   7.350
 7890POPC   C1B58771  17.448  38.689   6.450
 7890POPC   C2B58772  17.365  38.656   6.750
 7890POPC   C3B58773  17.367  38.642   7.050
 7890POPC   C4B58774  17.385  38.646   7.350
 7891POPC   NC358775  21.394   0.425   5.550
 7891POPC   PO458776  21.417   0.398   5.850
 7891POPC   GL158777  21.431   0.444   6.150
 7891POPC   GL258778  21.404   0.571   6.150
 7891POPC   C1A58779  21.356   0.487   6.450
 7891POPC   D2A58780  21.346   0.475   6.750
 7891POPC   C3A58781  21.406   0.482   7.050
 7891POPC   C4A58782  21.398   0.444   7.350
 7891POPC   C1B58783  21.404   0.694   6.450
 7891POPC   C2B58784  21.374   0.657   6.750
 7891POPC   C3B58785  21.389   0.692   7.050
 7891POPC   C4B58786  21.381   0.712   7.350
 7892POPC   NC358787  26.051  28.348   5.550
 7892POPC   PO458788  26.058  28.339   5.850
 7892POPC   GL158789  26.084  28.396   6.150
 7892POPC   GL258790  26.168  28.226   6.150
 7892POPC   C1A58791  26.024  28.368   6.450
 7892POPC   D2A58792  26.026  28.412   6.750
 7892POPC   C3A58793  26.079  28.401   7.050
 7892POPC   C4A58794  26.042  28.320   7.350
 7892POPC   C1B58795  26.213  28.162   6.450
 7892POPC   C2B58796  26.238  28.170   6.750
 7892POPC   C3B58797  26.159  28.229   7.050
 7892POPC   C4B58798  26.183  28.198   7.350
 7893POPC   NC358799  15.148  41.573   5.550
 7893POPC   PO458800  15.181  41.532   5.850
 7893POPC   GL158801  15.144  41.590   6.150
 7893POPC   GL258802  15.220  41.485   6.150
 7893POPC   C1A58803  15.156  41.513   6.450
 7893POPC   D2A58804  15.164  41.592   6.750
 7893POPC   C3A58805  15.212  41.586   7.050
 7893POPC   C4A58806  15.193  41.590   7.350
 7893POPC   C1B58807  15.337  41.396   6.450
 7893POPC   C2B58808  15.380  41.329   6.750
 7893POPC   C3B58809  15.366  41.391   7.050
 7893POPC   C4B58810  15.296  41.374   7.350
 7894POPC   NC358811  19.878  33.810   5.550
 7894POPC   PO458812  19.869  33.799   5.850
 7894POPC   GL158813  19.869  33.776   6.150
 7894POPC   GL258814  19.816  33.922   6.150
 7894POPC   C1A58815  19.840  33.780   6.450
 7894POPC   D2A58816  19.837  33.850   6.750
 7894POPC   C3A58817  19.791  33.776   7.050
 7894POPC   C4A58818  19.814  33.751   7.350
 7894POPC   C1B58819  19.834  33.999   6.450
 7894POPC   C2B58820  19.816  34.065   6.750
 7894POPC   C3B58821  19.830  34.015   7.050
 7894POPC   C4B58822  19.758  34.092   7.350
 7895POPC   NC358823   7.417   9.003   5.550
 7895POPC   PO458824   7.446   8.944   5.850
 7895POPC   GL158825   7.404   8.968   6.150
 7895POPC   GL258826   7.509   9.077   6.150
 7895POPC   C1A58827   7.397   8.940   6.450
 7895POPC   D2A58828   7.381   8.946   6.750
 7895POPC   C3A58829   7.409   8.987   7.050
 7895POPC   C4A58830   7.446   8.967   7.350
 7895POPC   C1B58831   7.455   9.257   6.450
 7895POPC   C2B58832   7.525   9.256   6.750
 7895POPC   C3B58833   7.538   9.254   7.050
 7895POPC   C4B58834   7.510   9.254   7.350
 7896POPC   NC358835  26.814  17.494   5.550
 7896POPC   PO458836  26.780  17.511   5.850
 7896POPC   GL158837  26.790  17.523   6.150
 7896POPC   GL258838  26.894  17.557   6.150
 7896POPC   C1A58839  26.814  17.480   6.450
 7896POPC   D2A58840  26.812  17.554   6.750
 7896POPC   C3A58841  26.821  17.532   7.050
 7896POPC   C4A58842  26.867  17.546   7.350
 7896POPC   C1B58843  27.034  17.696   6.450
 7896POPC   C2B58844  27.026  17.712   6.750
 7896POPC   C3B58845  27.030  17.684   7.050
 7896POPC   C4B58846  27.029  17.636   7.350
 7897POPC   NC358847  41.552  43.088   5.550
 7897POPC   PO458848  41.578  43.113   5.850
 7897POPC   GL158849  41.529  43.102   6.150
 7897POPC   GL258850  41.476  43.165   6.150
 7897POPC   C1A58851  41.541  43.134   6.450
 7897POPC   D2A58852  41.542  43.142   6.750
 7897POPC   C3A58853  41.514  43.116   7.050
 7897POPC   C4A58854  41.565  43.108   7.350
 7897POPC   C1B58855  41.330  43.134   6.450
 7897POPC   C2B58856  41.278  43.141   6.750
 7897POPC   C3B58857  41.310  43.155   7.050
 7897POPC   C4B58858  41.328  43.184   7.350
 7898POPC   NC358859  12.061  10.543   5.550
 7898POPC   PO458860  12.065  10.485   5.850
 7898POPC   GL158861  12.058  10.528   6.150
 7898POPC   GL258862  12.050  10.583   6.150
 7898POPC   C1A58863  12.098  10.532   6.450
 7898POPC   D2A58864  12.042  10.535   6.750
 7898POPC   C3A58865  12.086  10.528   7.050
 7898POPC   C4A58866  12.112  10.562   7.350
 7898POPC   C1B58867  11.973  10.779   6.450
 7898POPC   C2B58868  11.957  10.727   6.750
 7898POPC   C3B58869  11.903  10.729   7.050
 7898POPC   C4B58870  11.982  10.705   7.350
 7899POPC   NC358871  41.555  21.383   5.550
 7899POPC   PO458872  41.583  21.406   5.850
 7899POPC   GL158873  41.538  21.346   6.150
 7899POPC   GL258874  41.515  21.520   6.150
 7899POPC   C1A58875  41.513  21.411   6.450
 7899POPC   D2A58876  41.528  21.356   6.750
 7899POPC   C3A58877  41.535  21.339   7.050
 7899POPC   C4A58878  41.557  21.425   7.350
 7899POPC   C1B58879  41.392  21.548   6.450
 7899POPC   C2B58880  41.387  21.615   6.750
 7899POPC   C3B58881  41.433  21.555   7.050
 7899POPC   C4B58882  41.385  21.543   7.350
 7900POPC   NC358883  41.578  36.112   5.550
 7900POPC   PO458884  41.578  36.133   5.850
 7900POPC   GL158885  41.540  36.140   6.150
 7900POPC   GL258886  41.458  36.222   6.150
 7900POPC   C1A58887  41.588  36.138   6.450
 7900POPC   D2A58888  41.534  36.124   6.750
 7900POPC   C3A58889  41.540  36.115   7.050
 7900POPC   C4A58890  41.570  36.137   7.350
 7900POPC   C1B58891  41.407  36.279   6.450
 7900POPC   C2B58892  41.428  36.350   6.750
 7900POPC   C3B58893  41.434  36.321   7.050
 7900POPC   C4B58894  41.448  36.349   7.350
 7901POPC   NC358895  15.146  43.917   5.550
 7901POPC   PO458896  15.224  43.892   5.850
 7901POPC   GL158897  15.223  43.845   6.150
 7901POPC   GL258898  15.276  43.757   6.150
 7901POPC   C1A58899  15.139  43.839   6.450
 7901POPC   D2A58900  15.170  43.917   6.750
 7901POPC   C3A58901  15.200  43.893   7.050
 7901POPC   C4A58902  15.218  43.853   7.350
 7901POPC   C1B58903  15.318  43.727   6.450
 7901POPC   C2B58904  15.297  43.677   6.750
 7901POPC   C3B58905  15.347  43.709   7.050
 7901POPC   C4B58906  15.325  43.654   7.350
 7902POPC   NC358907  29.116  22.963   5.550
 7902POPC   PO458908  29.186  22.961   5.850
 7902POPC   GL158909  29.171  22.920   6.150
 7902POPC   GL258910  29.064  22.791   6.150
 7902POPC   C1A58911  29.178  22.940   6.450
 7902POPC   D2A58912  29.104  22.894   6.750
 7902POPC   C3A58913  29.178  22.904   7.050
 7902POPC   C4A58914  29.181  22.951   7.350
 7902POPC   C1B58915  29.006  22.720   6.450
 7902POPC   C2B58916  29.016  22.703   6.750
 7902POPC   C3B58917  28.974  22.737   7.050
 7902POPC   C4B58918  29.030  22.774   7.350
 7903POPC   NC358919  26.817   7.415   5.550
 7903POPC   PO458920  26.796   7.460   5.850
 7903POPC   GL158921  26.782   7.457   6.150
 7903POPC   GL258922  26.905   7.356   6.150
 7903POPC   C1A58923  26.819   7.424   6.450
 7903POPC   D2A58924  26.840   7.398   6.750
 7903POPC   C3A58925  26.780   7.446   7.050
 7903POPC   C4A58926  26.786   7.425   7.350
 7903POPC   C1B58927  26.945   7.192   6.450
 7903POPC   C2B58928  26.971   7.193   6.750
 7903POPC   C3B58929  27.037   7.288   7.050
 7903POPC   C4B58930  26.981   7.243   7.350
 7904POPC   NC358931   4.347   8.232   5.550
 7904POPC   PO458932   4.321   8.210   5.850
 7904POPC   GL158933   4.268   8.205   6.150
 7904POPC   GL258934   4.428   8.143   6.150
 7904POPC   C1A58935   4.286   8.207   6.450
 7904POPC   D2A58936   4.302   8.192   6.750
 7904POPC   C3A58937   4.366   8.178   7.050
 7904POPC   C4A58938   4.295   8.201   7.350
 7904POPC   C1B58939   4.480   8.014   6.450
 7904POPC   C2B58940   4.549   8.006   6.750
 7904POPC   C3B58941   4.501   8.009   7.050
 7904POPC   C4B58942   4.524   8.055   7.350
 7905POPC   NC358943  27.565  36.949   5.550
 7905POPC   PO458944  27.617  36.912   5.850
 7905POPC   GL158945  27.587  36.864   6.150
 7905POPC   GL258946  27.654  36.957   6.150
 7905POPC   C1A58947  27.556  36.903   6.450
 7905POPC   D2A58948  27.613  36.941   6.750
 7905POPC   C3A58949  27.579  36.953   7.050
 7905POPC   C4A58950  27.601  36.854   7.350
 7905POPC   C1B58951  27.765  37.126   6.450
 7905POPC   C2B58952  27.802  37.058   6.750
 7905POPC   C3B58953  27.742  37.044   7.050
 7905POPC   C4B58954  27.759  37.125   7.350
 7906POPC   NC358955   1.243  15.146   5.550
 7906POPC   PO458956   1.175  15.169   5.850
 7906POPC   GL158957   1.212  15.227   6.150
 7906POPC   GL258958   1.136  15.062   6.150
 7906POPC   C1A58959   1.176  15.150   6.450
 7906POPC   D2A58960   1.194  15.194   6.750
 7906POPC   C3A58961   1.175  15.173   7.050
 7906POPC   C4A58962   1.186  15.151   7.350
 7906POPC   C1B58963   1.067  14.992   6.450
 7906POPC   C2B58964   0.984  14.982   6.750
 7906POPC   C3B58965   1.045  14.997   7.050
 7906POPC   C4B58966   1.015  15.024   7.350
 7907POPC   NC358967  42.364  16.713   5.550
 7907POPC   PO458968  42.290  16.765   5.850
 7907POPC   GL158969  42.360  16.778   6.150
 7907POPC   GL258970  42.354  16.873   6.150
 7907POPC   C1A58971  42.336  16.712   6.450
 7907POPC   D2A58972  42.357  16.728   6.750
 7907POPC   C3A58973  42.284  16.698   7.050
 7907POPC   C4A58974  42.337  16.729   7.350
 7907POPC   C1B58975  42.484  16.937   6.450
 7907POPC   C2B58976  42.447  16.976   6.750
 7907POPC   C3B58977  42.469  16.965   7.050
 7907POPC   C4B58978  42.463  16.952   7.350
 7908POPC   NC358979  43.097  20.582   5.550
 7908POPC   PO458980  43.079  20.577   5.850
 7908POPC   GL158981  43.144  20.596   6.150
 7908POPC   GL258982  43.254  20.714   6.150
 7908POPC   C1A58983  43.076  20.643   6.450
 7908POPC   D2A58984  43.145  20.571   6.750
 7908POPC   C3A58985  43.114  20.569   7.050
 7908POPC   C4A58986  43.101  20.643   7.350
 7908POPC   C1B58987  43.354  20.716   6.450
 7908POPC   C2B58988  43.298  20.761   6.750
 7908POPC   C3B58989  43.332  20.787   7.050
 7908POPC   C4B58990  43.278  20.777   7.350
 7909POPC   NC358991  21.356  43.920   5.550
 7909POPC   PO458992  21.397  43.879   5.850
 7909POPC   GL158993  21.431  43.928   6.150
 7909POPC   GL258994  21.465  43.967   6.150
 7909POPC   C1A58995  21.423  43.873   6.450
 7909POPC   D2A58996  21.396  43.847   6.750
 7909POPC   C3A58997  21.396  43.851   7.050
 7909POPC   C4A58998  21.371  43.896   7.350
 7909POPC   C1B58999  21.612  43.967   6.450
 7909POPC   C2B59000  21.610  44.030   6.750
 7909POPC   C3B59001  21.648  44.016   7.050
 7909POPC   C4B59002  21.596  44.035   7.350
 7910POPC   NC359003   2.760  28.364   5.550
 7910POPC   PO459004   2.717  28.362   5.850
 7910POPC   GL159005   2.814  28.341   6.150
 7910POPC   GL259006   2.722  28.500   6.150
 7910POPC   C1A59007   2.757  28.411   6.450
 7910POPC   D2A59008   2.724  28.416   6.750
 7910POPC   C3A59009   2.805  28.369   7.050
 7910POPC   C4A59010   2.740  28.320   7.350
 7910POPC   C1B59011   2.687  28.650   6.450
 7910POPC   C2B59012   2.751  28.606   6.750
 7910POPC   C3B59013   2.745  28.646   7.050
 7910POPC   C4B59014   2.753  28.604   7.350
 7911POPC   NC359015  12.857  23.756   5.550
 7911POPC   PO459016  12.850  23.676   5.850
 7911POPC   GL159017  12.840  23.747   6.150
 7911POPC   GL259018  12.728  23.704   6.150
 7911POPC   C1A59019  12.897  23.748   6.450
 7911POPC   D2A59020  12.810  23.710   6.750
 7911POPC   C3A59021  12.900  23.691   7.050
 7911POPC   C4A59022  12.859  23.668   7.350
 7911POPC   C1B59023  12.616  23.730   6.450
 7911POPC   C2B59024  12.593  23.738   6.750
 7911POPC   C3B59025  12.595  23.730   7.050
 7911POPC   C4B59026  12.560  23.741   7.350
 7912POPC   NC359027  26.856  38.468   5.550
 7912POPC   PO459028  26.847  38.445   5.850
 7912POPC   GL159029  26.771  38.474   6.150
 7912POPC   GL259030  26.943  38.354   6.150
 7912POPC   C1A59031  26.793  38.463   6.450
 7912POPC   D2A59032  26.816  38.492   6.750
 7912POPC   C3A59033  26.821  38.454   7.050
 7912POPC   C4A59034  26.802  38.462   7.350
 7912POPC   C1B59035  26.974  38.260   6.450
 7912POPC   C2B59036  27.027  38.322   6.750
 7912POPC   C3B59037  26.998  38.244   7.050
 7912POPC   C4B59038  27.017  38.275   7.350
 7913POPC   NC359039   8.935  26.852   5.550
 7913POPC   PO459040   8.987  26.786   5.850
 7913POPC   GL159041   9.004  26.832   6.150
 7913POPC   GL259042   8.876  26.882   6.150
 7913POPC   C1A59043   8.966  26.865   6.450
 7913POPC   D2A59044   8.963  26.821   6.750
 7913POPC   C3A59045   8.966  26.835   7.050
 7913POPC   C4A59046   8.986  26.797   7.350
 7913POPC   C1B59047   8.753  26.956   6.450
 7913POPC   C2B59048   8.805  26.960   6.750
 7913POPC   C3B59049   8.760  26.994   7.050
 7913POPC   C4B59050   8.736  26.962   7.350
 7914POPC   NC359051  31.507  26.076   5.550
 7914POPC   PO459052  31.443  26.041   5.850
 7914POPC   GL159053  31.511  26.080   6.150
 7914POPC   GL259054  31.605  25.974   6.150
 7914POPC   C1A59055  31.426  26.010   6.450
 7914POPC   D2A59056  31.429  26.082   6.750
 7914POPC   C3A59057  31.433  26.075   7.050
 7914POPC   C4A59058  31.521  26.063   7.350
 7914POPC   C1B59059  31.641  25.863   6.450
 7914POPC   C2B59060  31.707  25.836   6.750
 7914POPC   C3B59061  31.711  25.900   7.050
 7914POPC   C4B59062  31.652  25.926   7.350
 7915POPC   NC359063   3.527  29.909   5.550
 7915POPC   PO459064   3.572  29.908   5.850
 7915POPC   GL159065   3.567  29.872   6.150
 7915POPC   GL259066   3.675  29.875   6.150
 7915POPC   C1A59067   3.557  29.873   6.450
 7915POPC   D2A59068   3.588  29.952   6.750
 7915POPC   C3A59069   3.514  29.880   7.050
 7915POPC   C4A59070   3.564  29.952   7.350
 7915POPC   C1B59071   3.744  29.798   6.450
 7915POPC   C2B59072   3.685  29.706   6.750
 7915POPC   C3B59073   3.771  29.774   7.050
 7915POPC   C4B59074   3.722  29.768   7.350
 7916POPC   NC359075  22.913  14.424   5.550
 7916POPC   PO459076  22.974  14.389   5.850
 7916POPC   GL159077  22.896  14.361   6.150
 7916POPC   GL259078  22.835  14.308   6.150
 7916POPC   C1A59079  22.929  14.404   6.450
 7916POPC   D2A59080  22.946  14.362   6.750
 7916POPC   C3A59081  22.985  14.406   7.050
 7916POPC   C4A59082  22.954  14.422   7.350
 7916POPC   C1B59083  22.726  14.222   6.450
 7916POPC   C2B59084  22.686  14.219   6.750
 7916POPC   C3B59085  22.742  14.218   7.050
 7916POPC   C4B59086  22.715  14.243   7.350
 7917POPC   NC359087  21.345  44.633   5.550
 7917POPC   PO459088  21.377  44.655   5.850
 7917POPC   GL159089  21.347  44.660   6.150
 7917POPC   GL259090  21.445  44.588   6.150
 7917POPC   C1A59091  21.365  44.707   6.450
 7917POPC   D2A59092  21.386  44.687   6.750
 7917POPC   C3A59093  21.378  44.687   7.050
 7917POPC   C4A59094  21.419  44.682   7.350
 7917POPC   C1B59095  21.617  44.532   6.450
 7917POPC   C2B59096  21.622  44.481   6.750
 7917POPC   C3B59097  21.526  44.546   7.050
 7917POPC   C4B59098  21.546  44.478   7.350
 7918POPC   NC359099  43.863   9.013   5.550
 7918POPC   PO459100  43.870   8.985   5.850
 7918POPC   GL159101  43.934   8.964   6.150
 7918POPC   GL259102  43.837   9.038   6.150
 7918POPC   C1A59103  43.930   8.953   6.450
 7918POPC   D2A59104  43.918   8.990   6.750
 7918POPC   C3A59105  43.913   8.945   7.050
 7918POPC   C4A59106  43.896   8.999   7.350
 7918POPC   C1B59107  43.784   9.226   6.450
 7918POPC   C2B59108  43.793   9.219   6.750
 7918POPC   C3B59109  43.722   9.141   7.050
 7918POPC   C4B59110  43.745   9.207   7.350
 7919POPC   NC359111  19.852  12.878   5.550
 7919POPC   PO459112  19.838  12.853   5.850
 7919POPC   GL159113  19.818  12.810   6.150
 7919POPC   GL259114  19.965  12.879   6.150
 7919POPC   C1A59115  19.804  12.816   6.450
 7919POPC   D2A59116  19.824  12.814   6.750
 7919POPC   C3A59117  19.836  12.811   7.050
 7919POPC   C4A59118  19.866  12.811   7.350
 7919POPC   C1B59119  20.039  12.900   6.450
 7919POPC   C2B59120  20.126  12.900   6.750
 7919POPC   C3B59121  20.038  12.867   7.050
 7919POPC   C4B59122  20.090  12.888   7.350
 7920POPC   NC359123  17.480   8.995   5.550
 7920POPC   PO459124  17.506   8.963   5.850
 7920POPC   GL159125  17.484   8.989   6.150
 7920POPC   GL259126  17.660   8.993   6.150
 7920POPC   C1A59127  17.460   8.947   6.450
 7920POPC   D2A59128  17.540   9.013   6.750
 7920POPC   C3A59129  17.519   8.996   7.050
 7920POPC   C4A59130  17.507   8.944   7.350
 7920POPC   C1B59131  17.716   8.910   6.450
 7920POPC   C2B59132  17.748   8.943   6.750
 7920POPC   C3B59133  17.803   8.911   7.050
 7920POPC   C4B59134  17.721   8.894   7.350
 7921POPC   NC359135   5.851   7.469   5.550
 7921POPC   PO459136   5.880   7.402   5.850
 7921POPC   GL159137   5.893   7.431   6.150
 7921POPC   GL259138   5.782   7.455   6.150
 7921POPC   C1A59139   5.847   7.373   6.450
 7921POPC   D2A59140   5.873   7.395   6.750
 7921POPC   C3A59141   5.839   7.385   7.050
 7921POPC   C4A59142   5.846   7.382   7.350
 7921POPC   C1B59143   5.647   7.415   6.450
 7921POPC   C2B59144   5.590   7.485   6.750
 7921POPC   C3B59145   5.645   7.421   7.050
 7921POPC   C4B59146   5.602   7.426   7.350
 7922POPC   NC359147  33.789   1.226   5.550
 7922POPC   PO459148  33.774   1.244   5.850
 7922POPC   GL159149  33.843   1.232   6.150
 7922POPC   GL259150  33.747   1.311   6.150
 7922POPC   C1A59151  33.837   1.183   6.450
 7922POPC   D2A59152  33.774   1.225   6.750
 7922POPC   C3A59153  33.838   1.223   7.050
 7922POPC   C4A59154  33.786   1.187   7.350
 7922POPC   C1B59155  33.588   1.442   6.450
 7922POPC   C2B59156  33.608   1.405   6.750
 7922POPC   C3B59157  33.624   1.431   7.050
 7922POPC   C4B59158  33.651   1.415   7.350
 7923POPC   NC359159  40.766   5.825   5.550
 7923POPC   PO459160  40.805   5.847   5.850
 7923POPC   GL159161  40.759   5.825   6.150
 7923POPC   GL259162  40.687   5.920   6.150
 7923POPC   C1A59163  40.740   5.828   6.450
 7923POPC   D2A59164  40.814   5.885   6.750
 7923POPC   C3A59165  40.826   5.918   7.050
 7923POPC   C4A59166  40.801   5.871   7.350
 7923POPC   C1B59167  40.536   6.013   6.450
 7923POPC   C2B59168  40.628   6.066   6.750
 7923POPC   C3B59169  40.617   6.012   7.050
 7923POPC   C4B59170  40.610   6.017   7.350
 7924POPC   NC359171  26.796  12.034   5.550
 7924POPC   PO459172  26.820  12.107   5.850
 7924POPC   GL159173  26.827  12.038   6.150
 7924POPC   GL259174  26.701  12.161   6.150
 7924POPC   C1A59175  26.828  12.101   6.450
 7924POPC   D2A59176  26.775  12.124   6.750
 7924POPC   C3A59177  26.780  12.062   7.050
 7924POPC   C4A59178  26.785  12.028   7.350
 7924POPC   C1B59179  26.593  12.202   6.450
 7924POPC   C2B59180  26.651  12.253   6.750
 7924POPC   C3B59181  26.632  12.222   7.050
 7924POPC   C4B59182  26.576  12.186   7.350
 7925POPC   NC359183  40.806  42.361   5.550
 7925POPC   PO459184  40.772  42.380   5.850
 7925POPC   GL159185  40.828  42.343   6.150
 7925POPC   GL259186  40.756  42.438   6.150
 7925POPC   C1A59187  40.788  42.314   6.450
 7925POPC   D2A59188  40.740  42.369   6.750
 7925POPC   C3A59189  40.831  42.355   7.050
 7925POPC   C4A59190  40.771  42.356   7.350
 7925POPC   C1B59191  40.831  42.540   6.450
 7925POPC   C2B59192  40.825  42.566   6.750
 7925POPC   C3B59193  40.838  42.555   7.050
 7925POPC   C4B59194  40.796  42.534   7.350
 7926POPC   NC359195  10.536  44.687   5.550
 7926POPC   PO459196  10.509  44.653   5.850
 7926POPC   GL159197  10.570  44.633   6.150
 7926POPC   GL259198  10.491  44.777   6.150
 7926POPC   C1A59199  10.496  44.706   6.450
 7926POPC   D2A59200  10.489  44.663   6.750
 7926POPC   C3A59201  10.500  44.620   7.050
 7926POPC   C4A59202  10.538  44.634   7.350
 7926POPC   C1B59203  10.312  44.872   6.450
 7926POPC   C2B59204  10.355  44.823   6.750
 7926POPC   C3B59205  10.394  44.871   7.050
 7926POPC   C4B59206  10.389  44.825   7.350
 7927POPC   NC359207  39.236  18.261   5.550
 7927POPC   PO459208  39.223  18.331   5.850
 7927POPC   GL159209  39.236  18.327   6.150
 7927POPC   GL259210  39.341  18.285   6.150
 7927POPC   C1A59211  39.246  18.277   6.450
 7927POPC   D2A59212  39.185  18.312   6.750
 7927POPC   C3A59213  39.211  18.284   7.050
 7927POPC   C4A59214  39.204  18.243   7.350
 7927POPC   C1B59215  39.473  18.225   6.450
 7927POPC   C2B59216  39.452  18.267   6.750
 7927POPC   C3B59217  39.493  18.295   7.050
 7927POPC   C4B59218  39.467  18.259   7.350
 7928POPC   NC359219  12.043  15.942   5.550
 7928POPC   PO459220  12.111  15.999   5.850
 7928POPC   GL159221  12.039  15.907   6.150
 7928POPC   GL259222  12.126  15.782   6.150
 7928POPC   C1A59223  12.113  15.968   6.450
 7928POPC   D2A59224  12.039  15.926   6.750
 7928POPC   C3A59225  12.088  15.985   7.050
 7928POPC   C4A59226  12.083  15.955   7.350
 7928POPC   C1B59227  12.152  15.702   6.450
 7928POPC   C2B59228  12.158  15.732   6.750
 7928POPC   C3B59229  12.151  15.698   7.050
 7928POPC   C4B59230  12.088  15.716   7.350
 7929POPC   NC359231   5.084  36.928   5.550
 7929POPC   PO459232   5.086  36.927   5.850
 7929POPC   GL159233   5.081  36.920   6.150
 7929POPC   GL259234   4.976  37.035   6.150
 7929POPC   C1A59235   5.073  36.890   6.450
 7929POPC   D2A59236   5.088  36.918   6.750
 7929POPC   C3A59237   5.116  36.898   7.050
 7929POPC   C4A59238   5.104  36.885   7.350
 7929POPC   C1B59239   4.917  37.054   6.450
 7929POPC   C2B59240   4.951  37.129   6.750
 7929POPC   C3B59241   4.918  37.143   7.050
 7929POPC   C4B59242   4.905  37.107   7.350
 7930POPC   NC359243  22.984  33.802   5.550
 7930POPC   PO459244  22.967  33.787   5.850
 7930POPC   GL159245  22.898  33.757   6.150
 7930POPC   GL259246  22.775  33.758   6.150
 7930POPC   C1A59247  22.932  33.761   6.450
 7930POPC   D2A59248  22.927  33.820   6.750
 7930POPC   C3A59249  22.959  33.847   7.050
 7930POPC   C4A59250  22.889  33.774   7.350
 7930POPC   C1B59251  22.723  33.709   6.450
 7930POPC   C2B59252  22.712  33.769   6.750
 7930POPC   C3B59253  22.696  33.718   7.050
 7930POPC   C4B59254  22.679  33.766   7.350
 7931POPC   NC359255  26.845  25.259   5.550
 7931POPC   PO459256  26.823  25.241   5.850
 7931POPC   GL159257  26.839  25.273   6.150
 7931POPC   GL259258  26.703  25.216   6.150
 7931POPC   C1A59259  26.783  25.288   6.450
 7931POPC   D2A59260  26.800  25.273   6.750
 7931POPC   C3A59261  26.863  25.259   7.050
 7931POPC   C4A59262  26.866  25.288   7.350
 7931POPC   C1B59263  26.532  25.273   6.450
 7931POPC   C2B59264  26.537  25.275   6.750
 7931POPC   C3B59265  26.570  25.214   7.050
 7931POPC   C4B59266  26.600  25.258   7.350
 7932POPC   NC359267  28.375  16.711   5.550
 7932POPC   PO459268  28.352  16.686   5.850
 7932POPC   GL159269  28.355  16.725   6.150
 7932POPC   GL259270  28.310  16.820   6.150
 7932POPC   C1A59271  28.367  16.748   6.450
 7932POPC   D2A59272  28.335  16.720   6.750
 7932POPC   C3A59273  28.374  16.757   7.050
 7932POPC   C4A59274  28.386  16.735   7.350
 7932POPC   C1B59275  28.253  16.935   6.450
 7932POPC   C2B59276  28.332  17.006   6.750
 7932POPC   C3B59277  28.279  16.922   7.050
 7932POPC   C4B59278  28.254  16.981   7.350
 7933POPC   NC359279  12.820  17.512   5.550
 7933POPC   PO459280  12.885  17.474   5.850
 7933POPC   GL159281  12.888  17.513   6.150
 7933POPC   GL259282  12.841  17.630   6.150
 7933POPC   C1A59283  12.900  17.550   6.450
 7933POPC   D2A59284  12.857  17.463   6.750
 7933POPC   C3A59285  12.894  17.480   7.050
 7933POPC   C4A59286  12.837  17.476   7.350
 7933POPC   C1B59287  12.879  17.725   6.450
 7933POPC   C2B59288  12.867  17.790   6.750
 7933POPC   C3B59289  12.936  17.720   7.050
 7933POPC   C4B59290  12.876  17.714   7.350
 7934POPC   NC359291  35.318  23.739   5.550
 7934POPC   PO459292  35.383  23.726   5.850
 7934POPC   GL159293  35.395  23.675   6.150
 7934POPC   GL259294  35.373  23.565   6.150
 7934POPC   C1A59295  35.348  23.702   6.450
 7934POPC   D2A59296  35.359  23.707   6.750
 7934POPC   C3A59297  35.394  23.730   7.050
 7934POPC   C4A59298  35.397  23.739   7.350
 7934POPC   C1B59299  35.289  23.456   6.450
 7934POPC   C2B59300  35.321  23.420   6.750
 7934POPC   C3B59301  35.288  23.418   7.050
 7934POPC   C4B59302  35.283  23.504   7.350
 7935POPC   NC359303   5.876  33.057   5.550
 7935POPC   PO459304   5.917  32.981   5.850
 7935POPC   GL159305   5.887  33.041   6.150
 7935POPC   GL259306   5.897  32.973   6.150
 7935POPC   C1A59307   5.838  33.038   6.450
 7935POPC   D2A59308   5.889  33.042   6.750
 7935POPC   C3A59309   5.853  33.052   7.050
 7935POPC   C4A59310   5.819  33.018   7.350
 7935POPC   C1B59311   6.004  32.806   6.450
 7935POPC   C2B59312   6.072  32.830   6.750
 7935POPC   C3B59313   6.058  32.850   7.050
 7935POPC   C4B59314   5.974  32.785   7.350
 7936POPC   NC359315  19.061  29.927   5.550
 7936POPC   PO459316  19.083  29.889   5.850
 7936POPC   GL159317  19.046  29.903   6.150
 7936POPC   GL259318  18.984  29.801   6.150
 7936POPC   C1A59319  19.084  29.894   6.450
 7936POPC   D2A59320  19.076  29.953   6.750
 7936POPC   C3A59321  19.107  29.934   7.050
 7936POPC   C4A59322  19.015  29.906   7.350
 7936POPC   C1B59323  18.959  29.656   6.450
 7936POPC   C2B59324  18.934  29.696   6.750
 7936POPC   C3B59325  18.950  29.694   7.050
 7936POPC   C4B59326  18.951  29.714   7.350
 7937POPC   NC359327  28.398  26.851   5.550
 7937POPC   PO459328  28.382  26.798   5.850
 7937POPC   GL159329  28.378  26.845   6.150
 7937POPC   GL259330  28.298  26.928   6.150
 7937POPC   C1A59331  28.408  26.839   6.450
 7937POPC   D2A59332  28.356  26.830   6.750
 7937POPC   C3A59333  28.362  26.817   7.050
 7937POPC   C4A59334  28.349  26.858   7.350
 7937POPC   C1B59335  28.143  26.980   6.450
 7937POPC   C2B59336  28.130  26.941   6.750
 7937POPC   C3B59337  28.192  26.919   7.050
 7937POPC   C4B59338  28.145  26.975   7.350
 7938POPC   NC359339  22.915  18.290   5.550
 7938POPC   PO459340  22.965  18.280   5.850
 7938POPC   GL159341  22.935  18.297   6.150
 7938POPC   GL259342  22.850  18.389   6.150
 7938POPC   C1A59343  22.890  18.278   6.450
 7938POPC   D2A59344  22.953  18.243   6.750
 7938POPC   C3A59345  22.967  18.254   7.050
 7938POPC   C4A59346  22.922  18.293   7.350
 7938POPC   C1B59347  22.718  18.387   6.450
 7938POPC   C2B59348  22.763  18.427   6.750
 7938POPC   C3B59349  22.745  18.446   7.050
 7938POPC   C4B59350  22.772  18.392   7.350
 7939POPC   NC359351  29.137  12.890   5.550
 7939POPC   PO459352  29.125  12.889   5.850
 7939POPC   GL159353  29.148  12.868   6.150
 7939POPC   GL259354  29.221  12.723   6.150
 7939POPC   C1A59355  29.109  12.889   6.450
 7939POPC   D2A59356  29.193  12.813   6.750
 7939POPC   C3A59357  29.097  12.886   7.050
 7939POPC   C4A59358  29.175  12.858   7.350
 7939POPC   C1B59359  29.288  12.680   6.450
 7939POPC   C2B59360  29.274  12.589   6.750
 7939POPC   C3B59361  29.317  12.652   7.050
 7939POPC   C4B59362  29.269  12.636   7.350
 7940POPC   NC359363  15.180  43.088   5.550
 7940POPC   PO459364  15.158  43.160   5.850
 7940POPC   GL159365  15.162  43.149   6.150
 7940POPC   GL259366  15.302  43.029   6.150
 7940POPC   C1A59367  15.149  43.103   6.450
 7940POPC   D2A59368  15.186  43.134   6.750
 7940POPC   C3A59369  15.143  43.110   7.050
 7940POPC   C4A59370  15.179  43.134   7.350
 7940POPC   C1B59371  15.391  42.992   6.450
 7940POPC   C2B59372  15.358  42.964   6.750
 7940POPC   C3B59373  15.397  42.961   7.050
 7940POPC   C4B59374  15.419  42.943   7.350
 7941POPC   NC359375   2.771  13.656   5.550
 7941POPC   PO459376   2.794  13.652   5.850
 7941POPC   GL159377   2.741  13.585   6.150
 7941POPC   GL259378   2.672  13.683   6.150
 7941POPC   C1A59379   2.782  13.639   6.450
 7941POPC   D2A59380   2.809  13.578   6.750
 7941POPC   C3A59381   2.732  13.626   7.050
 7941POPC   C4A59382   2.810  13.583   7.350
 7941POPC   C1B59383   2.592  13.847   6.450
 7941POPC   C2B59384   2.567  13.819   6.750
 7941POPC   C3B59385   2.559  13.785   7.050
 7941POPC   C4B59386   2.633  13.759   7.350
 7942POPC   NC359387  37.662  17.556   5.550
 7942POPC   PO459388  37.649  17.551   5.850
 7942POPC   GL159389  37.664  17.496   6.150
 7942POPC   GL259390  37.698  17.575   6.150
 7942POPC   C1A59391  37.706  17.477   6.450
 7942POPC   D2A59392  37.691  17.483   6.750
 7942POPC   C3A59393  37.684  17.542   7.050
 7942POPC   C4A59394  37.704  17.475   7.350
 7942POPC   C1B59395  37.724  17.777   6.450
 7942POPC   C2B59396  37.806  17.744   6.750
 7942POPC   C3B59397  37.748  17.705   7.050
 7942POPC   C4B59398  37.786  17.709   7.350
 7943POPC   NC359399  17.491  32.283   5.550
 7943POPC   PO459400  17.545  32.284   5.850
 7943POPC   GL159401  17.499  32.260   6.150
 7943POPC   GL259402  17.642  32.145   6.150
 7943POPC   C1A59403  17.485  32.285   6.450
 7943POPC   D2A59404  17.531  32.281   6.750
 7943POPC   C3A59405  17.505  32.207   7.050
 7943POPC   C4A59406  17.487  32.224   7.350
 7943POPC   C1B59407  17.684  32.123   6.450
 7943POPC   C2B59408  17.645  32.069   6.750
 7943POPC   C3B59409  17.648  32.087   7.050
 7943POPC   C4B59410  17.694  32.105   7.350
 7944POPC   NC359411  33.806   0.429   5.550
 7944POPC   PO459412  33.825   0.436   5.850
 7944POPC   GL159413  33.836   0.397   6.150
 7944POPC   GL259414  33.750   0.527   6.150
 7944POPC   C1A59415  33.808   0.409   6.450
 7944POPC   D2A59416  33.758   0.477   6.750
 7944POPC   C3A59417  33.789   0.430   7.050
 7944POPC   C4A59418  33.781   0.430   7.350
 7944POPC   C1B59419  33.668   0.688   6.450
 7944POPC   C2B59420  33.652   0.646   6.750
 7944POPC   C3B59421  33.675   0.664   7.050
 7944POPC   C4B59422  33.674   0.637   7.350
 7945POPC   NC359423   4.333  20.591   5.550
 7945POPC   PO459424   4.281  20.609   5.850
 7945POPC   GL159425   4.268  20.599   6.150
 7945POPC   GL259426   4.352  20.733   6.150
 7945POPC   C1A59427   4.346  20.644   6.450
 7945POPC   D2A59428   4.298  20.599   6.750
 7945POPC   C3A59429   4.365  20.617   7.050
 7945POPC   C4A59430   4.305  20.623   7.350
 7945POPC   C1B59431   4.310  20.842   6.450
 7945POPC   C2B59432   4.297  20.893   6.750
 7945POPC   C3B59433   4.365  20.816   7.050
 7945POPC   C4B59434   4.290  20.879   7.350
 7946POPC   NC359435  43.859  12.882   5.550
 7946POPC   PO459436  43.865  12.887   5.850
 7946POPC   GL159437  43.924  12.901   6.150
 7946POPC   GL259438  43.811  12.889   6.150
 7946POPC   C1A59439  43.909  12.815   6.450
 7946POPC   D2A59440  43.872  12.825   6.750
 7946POPC   C3A59441  43.860  12.835   7.050
 7946POPC   C4A59442  43.906  12.820   7.350
 7946POPC   C1B59443  43.672  12.979   6.450
 7946POPC   C2B59444  43.676  12.970   6.750
 7946POPC   C3B59445  43.633  12.972   7.050
 7946POPC   C4B59446  43.701  12.940   7.350
 7947POPC   NC359447  17.481   8.149   5.550
 7947POPC   PO459448  17.512   8.147   5.850
 7947POPC   GL159449  17.481   8.222   6.150
 7947POPC   GL259450  17.605   8.273   6.150
 7947POPC   C1A59451  17.529   8.211   6.450
 7947POPC   D2A59452  17.517   8.150   6.750
 7947POPC   C3A59453  17.460   8.179   7.050
 7947POPC   C4A59454  17.468   8.237   7.350
 7947POPC   C1B59455  17.729   8.316   6.450
 7947POPC   C2B59456  17.710   8.256   6.750
 7947POPC   C3B59457  17.719   8.235   7.050
 7947POPC   C4B59458  17.754   8.232   7.350
 7948POPC   NC359459  15.153  44.696   5.550
 7948POPC   PO459460  15.214  44.685   5.850
 7948POPC   GL159461  15.163  44.636   6.150
 7948POPC   GL259462  15.090  44.797   6.150
 7948POPC   C1A59463  15.161  44.696   6.450
 7948POPC   D2A59464  15.161  44.678   6.750
 7948POPC   C3A59465  15.168  44.662   7.050
 7948POPC   C4A59466  15.141  44.618   7.350
 7948POPC   C1B59467  15.086  44.903   6.450
 7948POPC   C2B59468  15.034  44.904   6.750
 7948POPC   C3B59469  15.056  44.926   7.050
 7948POPC   C4B59470  15.091  44.828   7.350
 7949POPC   NC359471  32.284  30.740   5.550
 7949POPC   PO459472  32.251  30.677   5.850
 7949POPC   GL159473  32.222  30.662   6.150
 7949POPC   GL259474  32.371  30.758   6.150
 7949POPC   C1A59475  32.281  30.727   6.450
 7949POPC   D2A59476  32.228  30.690   6.750
 7949POPC   C3A59477  32.206  30.690   7.050
 7949POPC   C4A59478  32.255  30.720   7.350
 7949POPC   C1B59479  32.501  30.735   6.450
 7949POPC   C2B59480  32.520  30.709   6.750
 7949POPC   C3B59481  32.466  30.799   7.050
 7949POPC   C4B59482  32.480  30.723   7.350
 7950POPC   NC359483  44.642  34.616   5.550
 7950POPC   PO459484  44.623  34.567   5.850
 7950POPC   GL159485  44.671  34.585   6.150
 7950POPC   GL259486  44.579  34.629   6.150
 7950POPC   C1A59487  44.698  34.546   6.450
 7950POPC   D2A59488  44.622  34.616   6.750
 7950POPC   C3A59489  44.682  34.567   7.050
 7950POPC   C4A59490  44.707  34.625   7.350
 7950POPC   C1B59491  44.407  34.573   6.450
 7950POPC   C2B59492  44.370  34.645   6.750
 7950POPC   C3B59493  44.424  34.574   7.050
 7950POPC   C4B59494  44.409  34.577   7.350
 7951POPC   NC359495  44.641   9.728   5.550
 7951POPC   PO459496  44.646   9.699   5.850
 7951POPC   GL159497  44.625   9.769   6.150
 7951POPC   GL259498  44.746   9.827   6.150
 7951POPC   C1A59499  44.675   9.781   6.450
 7951POPC   D2A59500  44.678   9.740   6.750
 7951POPC   C3A59501  44.672   9.773   7.050
 7951POPC   C4A59502  44.616   9.766   7.350
 7951POPC   C1B59503  44.854   9.825   6.450
 7951POPC   C2B59504  44.938   9.854   6.750
 7951POPC   C3B59505  44.895   9.844   7.050
 7951POPC   C4B59506  44.864   9.869   7.350
 7952POPC   NC359507  19.841  15.174   5.550
 7952POPC   PO459508  19.807  15.222   5.850
 7952POPC   GL159509  19.854  15.227   6.150
 7952POPC   GL259510  19.667  15.241   6.150
 7952POPC   C1A59511  19.823  15.222   6.450
 7952POPC   D2A59512  19.855  15.151   6.750
 7952POPC   C3A59513  19.880  15.141   7.050
 7952POPC   C4A59514  19.817  15.180   7.350
 7952POPC   C1B59515  19.612  15.262   6.450
 7952POPC   C2B59516  19.633  15.295   6.750
 7952POPC   C3B59517  19.560  15.214   7.050
 7952POPC   C4B59518  19.602  15.274   7.350
 7953POPC   NC359519  26.776  35.315   5.550
 7953POPC   PO459520  26.833  35.358   5.850
 7953POPC   GL159521  26.846  35.377   6.150
 7953POPC   GL259522  26.769  35.205   6.150
 7953POPC   C1A59523  26.786  35.365   6.450
 7953POPC   D2A59524  26.849  35.346   6.750
 7953POPC   C3A59525  26.817  35.337   7.050
 7953POPC   C4A59526  26.788  35.328   7.350
 7953POPC   C1B59527  26.796  35.064   6.450
 7953POPC   C2B59528  26.781  35.107   6.750
 7953POPC   C3B59529  26.743  35.147   7.050
 7953POPC   C4B59530  26.739  35.118   7.350
 7954POPC   NC359531  44.630  22.154   5.550
 7954POPC   PO459532  44.627  22.133   5.850
 7954POPC   GL159533  44.676  22.118   6.150
 7954POPC   GL259534  44.652  22.053   6.150
 7954POPC   C1A59535  44.656  22.126   6.450
 7954POPC   D2A59536  44.637  22.166   6.750
 7954POPC   C3A59537  44.650  22.114   7.050
 7954POPC   C4A59538  44.678  22.166   7.350
 7954POPC   C1B59539  44.695  21.951   6.450
 7954POPC   C2B59540  44.696  21.879   6.750
 7954POPC   C3B59541  44.633  21.925   7.050
 7954POPC   C4B59542  44.654  21.872   7.350
 7955POPC   NC359543   1.998  42.375   5.550
 7955POPC   PO459544   2.036  42.365   5.850
 7955POPC   GL159545   1.987  42.320   6.150
 7955POPC   GL259546   2.013  42.200   6.150
 7955POPC   C1A59547   2.017  42.352   6.450
 7955POPC   D2A59548   1.983  42.344   6.750
 7955POPC   C3A59549   1.997  42.286   7.050
 7955POPC   C4A59550   2.028  42.372   7.350
 7955POPC   C1B59551   2.098  42.138   6.450
 7955POPC   C2B59552   2.087  42.097   6.750
 7955POPC   C3B59553   2.102  42.094   7.050
 7955POPC   C4B59554   2.108  42.107   7.350
 7956POPC   NC359555   5.120  11.291   5.550
 7956POPC   PO459556   5.054  11.293   5.850
 7956POPC   GL159557   5.059  11.310   6.150
 7956POPC   GL259558   5.026  11.209   6.150
 7956POPC   C1A59559   5.083  11.332   6.450
 7956POPC   D2A59560   5.119  11.265   6.750
 7956POPC   C3A59561   5.115  11.268   7.050
 7956POPC   C4A59562   5.123  11.271   7.350
 7956POPC   C1B59563   5.022  11.117   6.450
 7956POPC   C2B59564   4.932  11.042   6.750
 7956POPC   C3B59565   4.934  11.072   7.050
 7956POPC   C4B59566   4.950  11.068   7.350
 7957POPC   NC359567  34.579  18.313   5.550
 7957POPC   PO459568  34.531  18.312   5.850
 7957POPC   GL159569  34.557  18.288   6.150
 7957POPC   GL259570  34.427  18.307   6.150
 7957POPC   C1A59571  34.568  18.294   6.450
 7957POPC   D2A59572  34.590  18.282   6.750
 7957POPC   C3A59573  34.608  18.332   7.050
 7957POPC   C4A59574  34.571  18.284   7.350
 7957POPC   C1B59575  34.377  18.430   6.450
 7957POPC   C2B59576  34.376  18.374   6.750
 7957POPC   C3B59577  34.379  18.389   7.050
 7957POPC   C4B59578  34.400  18.440   7.350
 7958POPC   NC359579  31.433  43.082   5.550
 7958POPC   PO459580  31.473  43.121   5.850
 7958POPC   GL159581  31.505  43.101   6.150
 7958POPC   GL259582  31.605  43.185   6.150
 7958POPC   C1A59583  31.429  43.146   6.450
 7958POPC   D2A59584  31.451  43.147   6.750
 7958POPC   C3A59585  31.510  43.085   7.050
 7958POPC   C4A59586  31.462  43.100   7.350
 7958POPC   C1B59587  31.658  43.306   6.450
 7958POPC   C2B59588  31.603  43.336   6.750
 7958POPC   C3B59589  31.649  43.276   7.050
 7958POPC   C4B59590  31.650  43.322   7.350
 7959POPC   NC359591  36.876  43.879   5.550
 7959POPC   PO459592  36.913  43.861   5.850
 7959POPC   GL159593  36.932  43.910   6.150
 7959POPC   GL259594  36.954  44.016   6.150
 7959POPC   C1A59595  36.937  43.876   6.450
 7959POPC   D2A59596  36.867  43.862   6.750
 7959POPC   C3A59597  36.952  43.859   7.050
 7959POPC   C4A59598  36.926  43.859   7.350
 7959POPC   C1B59599  37.092  44.026   6.450
 7959POPC   C2B59600  37.040  44.107   6.750
 7959POPC   C3B59601  37.069  44.109   7.050
 7959POPC   C4B59602  37.086  44.120   7.350
 7960POPC   NC359603   9.722  12.091   5.550
 7960POPC   PO459604   9.784  12.099   5.850
 7960POPC   GL159605   9.788  12.096   6.150
 7960POPC   GL259606   9.814  12.169   6.150
 7960POPC   C1A59607   9.742  12.053   6.450
 7960POPC   D2A59608   9.735  12.038   6.750
 7960POPC   C3A59609   9.738  12.080   7.050
 7960POPC   C4A59610   9.768  12.073   7.350
 7960POPC   C1B59611   9.933  12.200   6.450
 7960POPC   C2B59612   9.928  12.191   6.750
 7960POPC   C3B59613   9.968  12.231   7.050
 7960POPC   C4B59614   9.964  12.231   7.350
 7961POPC   NC359615  29.144  35.325   5.550
 7961POPC   PO459616  29.172  35.336   5.850
 7961POPC   GL159617  29.102  35.350   6.150
 7961POPC   GL259618  29.079  35.242   6.150
 7961POPC   C1A59619  29.176  35.383   6.450
 7961POPC   D2A59620  29.167  35.320   6.750
 7961POPC   C3A59621  29.165  35.382   7.050
 7961POPC   C4A59622  29.183  35.396   7.350
 7961POPC   C1B59623  28.935  35.143   6.450
 7961POPC   C2B59624  28.969  35.171   6.750
 7961POPC   C3B59625  28.922  35.211   7.050
 7961POPC   C4B59626  28.931  35.170   7.350
 7962POPC   NC359627  17.461  12.102   5.550
 7962POPC   PO459628  17.510  12.110   5.850
 7962POPC   GL159629  17.536  12.049   6.150
 7962POPC   GL259630  17.388  12.151   6.150
 7962POPC   C1A59631  17.556  12.049   6.450
 7962POPC   D2A59632  17.526  12.044   6.750
 7962POPC   C3A59633  17.457  12.099   7.050
 7962POPC   C4A59634  17.495  12.063   7.350
 7962POPC   C1B59635  17.322  12.277   6.450
 7962POPC   C2B59636  17.316  12.236   6.750
 7962POPC   C3B59637  17.336  12.307   7.050
 7962POPC   C4B59638  17.319  12.212   7.350
 7963POPC   NC359639   4.350  13.633   5.550
 7963POPC   PO459640   4.315  13.623   5.850
 7963POPC   GL159641   4.270  13.597   6.150
 7963POPC   GL259642   4.406  13.704   6.150
 7963POPC   C1A59643   4.280  13.634   6.450
 7963POPC   D2A59644   4.340  13.607   6.750
 7963POPC   C3A59645   4.342  13.671   7.050
 7963POPC   C4A59646   4.367  13.665   7.350
 7963POPC   C1B59647   4.456  13.834   6.450
 7963POPC   C2B59648   4.536  13.786   6.750
 7963POPC   C3B59649   4.468  13.816   7.050
 7963POPC   C4B59650   4.509  13.788   7.350
 7964POPC   NC359651   0.434  26.795   5.550
 7964POPC   PO459652   0.476  26.781   5.850
 7964POPC   GL159653   0.478  26.796   6.150
 7964POPC   GL259654   0.565  26.682   6.150
 7964POPC   C1A59655   0.408  26.833   6.450
 7964POPC   D2A59656   0.482  26.779   6.750
 7964POPC   C3A59657   0.396  26.811   7.050
 7964POPC   C4A59658   0.466  26.855   7.350
 7964POPC   C1B59659   0.559  26.648   6.450
 7964POPC   C2B59660   0.563  26.652   6.750
 7964POPC   C3B59661   0.610  26.646   7.050
 7964POPC   C4B59662   0.635  26.580   7.350
 7965POPC   NC359663  33.796  14.367   5.550
 7965POPC   PO459664  33.774  14.419   5.850
 7965POPC   GL159665  33.769  14.437   6.150
 7965POPC   GL259666  33.710  14.395   6.150
 7965POPC   C1A59667  33.837  14.429   6.450
 7965POPC   D2A59668  33.825  14.446   6.750
 7965POPC   C3A59669  33.793  14.399   7.050
 7965POPC   C4A59670  33.752  14.382   7.350
 7965POPC   C1B59671  33.580  14.346   6.450
 7965POPC   C2B59672  33.565  14.251   6.750
 7965POPC   C3B59673  33.527  14.255   7.050
 7965POPC   C4B59674  33.525  14.324   7.350
 7966POPC   NC359675  15.951  39.208   5.550
 7966POPC   PO459676  15.969  39.196   5.850
 7966POPC   GL159677  15.941  39.237   6.150
 7966POPC   GL259678  16.050  39.227   6.150
 7966POPC   C1A59679  15.937  39.266   6.450
 7966POPC   D2A59680  15.943  39.241   6.750
 7966POPC   C3A59681  15.962  39.196   7.050
 7966POPC   C4A59682  15.963  39.227   7.350
 7966POPC   C1B59683  16.212  39.106   6.450
 7966POPC   C2B59684  16.164  39.155   6.750
 7966POPC   C3B59685  16.237  39.169   7.050
 7966POPC   C4B59686  16.170  39.167   7.350
 7967POPC   NC359687  35.394  17.507   5.550
 7967POPC   PO459688  35.354  17.457   5.850
 7967POPC   GL159689  35.307  17.478   6.150
 7967POPC   GL259690  35.492  17.494   6.150
 7967POPC   C1A59691  35.365  17.542   6.450
 7967POPC   D2A59692  35.345  17.549   6.750
 7967POPC   C3A59693  35.306  17.557   7.050
 7967POPC   C4A59694  35.327  17.466   7.350
 7967POPC   C1B59695  35.570  17.396   6.450
 7967POPC   C2B59696  35.544  17.415   6.750
 7967POPC   C3B59697  35.535  17.374   7.050
 7967POPC   C4B59698  35.560  17.448   7.350
 7968POPC   NC359699  13.608  22.951   5.550
 7968POPC   PO459700  13.669  22.985   5.850
 7968POPC   GL159701  13.585  22.922   6.150
 7968POPC   GL259702  13.713  23.011   6.150
 7968POPC   C1A59703  13.660  22.894   6.450
 7968POPC   D2A59704  13.593  22.899   6.750
 7968POPC   C3A59705  13.613  22.987   7.050
 7968POPC   C4A59706  13.601  22.939   7.350
 7968POPC   C1B59707  13.825  23.024   6.450
 7968POPC   C2B59708  13.869  23.076   6.750
 7968POPC   C3B59709  13.851  23.021   7.050
 7968POPC   C4B59710  13.817  23.087   7.350
 7969POPC   NC359711  27.553  16.737   5.550
 7969POPC   PO459712  27.600  16.763   5.850
 7969POPC   GL159713  27.585  16.765   6.150
 7969POPC   GL259714  27.747  16.719   6.150
 7969POPC   C1A59715  27.599  16.709   6.450
 7969POPC   D2A59716  27.584  16.737   6.750
 7969POPC   C3A59717  27.590  16.683   7.050
 7969POPC   C4A59718  27.623  16.768   7.350
 7969POPC   C1B59719  27.836  16.765   6.450
 7969POPC   C2B59720  27.860  16.710   6.750
 7969POPC   C3B59721  27.799  16.678   7.050
 7969POPC   C4B59722  27.876  16.675   7.350
 7970POPC   NC359723  27.588  20.631   5.550
 7970POPC   PO459724  27.623  20.598   5.850
 7970POPC   GL159725  27.602  20.618   6.150
 7970POPC   GL259726  27.590  20.486   6.150
 7970POPC   C1A59727  27.562  20.563   6.450
 7970POPC   D2A59728  27.597  20.627   6.750
 7970POPC   C3A59729  27.543  20.565   7.050
 7970POPC   C4A59730  27.599  20.604   7.350
 7970POPC   C1B59731  27.532  20.390   6.450
 7970POPC   C2B59732  27.569  20.371   6.750
 7970POPC   C3B59733  27.535  20.381   7.050
 7970POPC   C4B59734  27.499  20.388   7.350
 7971POPC   NC359735  16.753  42.363   5.550
 7971POPC   PO459736  16.689  42.289   5.850
 7971POPC   GL159737  16.744  42.321   6.150
 7971POPC   GL259738  16.694  42.412   6.150
 7971POPC   C1A59739  16.688  42.376   6.450
 7971POPC   D2A59740  16.690  42.348   6.750
 7971POPC   C3A59741  16.725  42.292   7.050
 7971POPC   C4A59742  16.738  42.305   7.350
 7971POPC   C1B59743  16.689  42.622   6.450
 7971POPC   C2B59744  16.693  42.557   6.750
 7971POPC   C3B59745  16.727  42.538   7.050
 7971POPC   C4B59746  16.682  42.530   7.350
 7972POPC   NC359747  42.290  38.440   5.550
 7972POPC   PO459748  42.342  38.406   5.850
 7972POPC   GL159749  42.379  38.445   6.150
 7972POPC   GL259750  42.415  38.313   6.150
 7972POPC   C1A59751  42.345  38.494   6.450
 7972POPC   D2A59752  42.339  38.472   6.750
 7972POPC   C3A59753  42.307  38.429   7.050
 7972POPC   C4A59754  42.292  38.443   7.350
 7972POPC   C1B59755  42.397  38.222   6.450
 7972POPC   C2B59756  42.426  38.200   6.750
 7972POPC   C3B59757  42.461  38.260   7.050
 7972POPC   C4B59758  42.379  38.230   7.350
 7973POPC   NC359759  36.108  35.382   5.550
 7973POPC   PO459760  36.162  35.392   5.850
 7973POPC   GL159761  36.156  35.363   6.150
 7973POPC   GL259762  36.070  35.206   6.150
 7973POPC   C1A59763  36.080  35.309   6.450
 7973POPC   D2A59764  36.114  35.352   6.750
 7973POPC   C3A59765  36.170  35.348   7.050
 7973POPC   C4A59766  36.151  35.379   7.350
 7973POPC   C1B59767  36.030  35.127   6.450
 7973POPC   C2B59768  36.012  35.077   6.750
 7973POPC   C3B59769  36.021  35.162   7.050
 7973POPC   C4B59770  35.994  35.099   7.350
 7974POPC   NC359771  14.375  38.408   5.550
 7974POPC   PO459772  14.419  38.433   5.850
 7974POPC   GL159773  14.403  38.457   6.150
 7974POPC   GL259774  14.275  38.571   6.150
 7974POPC   C1A59775  14.355  38.493   6.450
 7974POPC   D2A59776  14.418  38.482   6.750
 7974POPC   C3A59777  14.429  38.444   7.050
 7974POPC   C4A59778  14.396  38.433   7.350
 7974POPC   C1B59779  14.248  38.641   6.450
 7974POPC   C2B59780  14.252  38.609   6.750
 7974POPC   C3B59781  14.253  38.596   7.050
 7974POPC   C4B59782  14.285  38.638   7.350
 7975POPC   NC359783  44.622  37.661   5.550
 7975POPC   PO459784  44.703  37.687   5.850
 7975POPC   GL159785  44.632  37.705   6.150
 7975POPC   GL259786  44.516  37.728   6.150
 7975POPC   C1A59787  44.697  37.649   6.450
 7975POPC   D2A59788  44.680  37.722   6.750
 7975POPC   C3A59789  44.689  37.659   7.050
 7975POPC   C4A59790  44.618  37.721   7.350
 7975POPC   C1B59791  44.381  37.784   6.450
 7975POPC   C2B59792  44.418  37.774   6.750
 7975POPC   C3B59793  44.454  37.706   7.050
 7975POPC   C4B59794  44.470  37.796   7.350
 7976POPC   NC359795  12.857  12.106   5.550
 7976POPC   PO459796  12.842  12.111   5.850
 7976POPC   GL159797  12.888  12.037   6.150
 7976POPC   GL259798  12.909  12.116   6.150
 7976POPC   C1A59799  12.865  12.064   6.450
 7976POPC   D2A59800  12.869  12.094   6.750
 7976POPC   C3A59801  12.872  12.096   7.050
 7976POPC   C4A59802  12.892  12.060   7.350
 7976POPC   C1B59803  13.051  12.216   6.450
 7976POPC   C2B59804  13.022  12.238   6.750
 7976POPC   C3B59805  13.023  12.255   7.050
 7976POPC   C4B59806  13.051  12.265   7.350
 7977POPC   NC359807  39.215  17.478   5.550
 7977POPC   PO459808  39.212  17.460   5.850
 7977POPC   GL159809  39.272  17.530   6.150
 7977POPC   GL259810  39.149  17.436   6.150
 7977POPC   C1A59811  39.188  17.501   6.450
 7977POPC   D2A59812  39.249  17.527   6.750
 7977POPC   C3A59813  39.239  17.527   7.050
 7977POPC   C4A59814  39.263  17.477   7.350
 7977POPC   C1B59815  39.155  17.246   6.450
 7977POPC   C2B59816  39.174  17.250   6.750
 7977POPC   C3B59817  39.084  17.236   7.050
 7977POPC   C4B59818  39.129  17.300   7.350
 7978POPC   NC359819  39.986  19.850   5.550
 7978POPC   PO459820  40.004  19.821   5.850
 7978POPC   GL159821  40.016  19.833   6.150
 7978POPC   GL259822  40.090  19.879   6.150
 7978POPC   C1A59823  39.962  19.794   6.450
 7978POPC   D2A59824  39.964  19.810   6.750
 7978POPC   C3A59825  40.027  19.790   7.050
 7978POPC   C4A59826  40.010  19.836   7.350
 7978POPC   C1B59827  40.304  19.861   6.450
 7978POPC   C2B59828  40.292  19.808   6.750
 7978POPC   C3B59829  40.226  19.881   7.050
 7978POPC   C4B59830  40.302  19.816   7.350
 7979POPC   NC359831  21.414  33.840   5.550
 7979POPC   PO459832  21.405  33.769   5.850
 7979POPC   GL159833  21.383  33.817   6.150
 7979POPC   GL259834  21.363  33.647   6.150
 7979POPC   C1A59835  21.360  33.788   6.450
 7979POPC   D2A59836  21.421  33.841   6.750
 7979POPC   C3A59837  21.387  33.814   7.050
 7979POPC   C4A59838  21.409  33.806   7.350
 7979POPC   C1B59839  21.320  33.568   6.450
 7979POPC   C2B59840  21.323  33.526   6.750
 7979POPC   C3B59841  21.305  33.553   7.050
 7979POPC   C4B59842  21.314  33.597   7.350
 7980POPC   NC359843  40.003  15.135   5.550
 7980POPC   PO459844  40.024  15.191   5.850
 7980POPC   GL159845  40.032  15.217   6.150
 7980POPC   GL259846  40.169  15.171   6.150
 7980POPC   C1A59847  39.985  15.161   6.450
 7980POPC   D2A59848  40.054  15.170   6.750
 7980POPC   C3A59849  39.975  15.173   7.050
 7980POPC   C4A59850  40.005  15.154   7.350
 7980POPC   C1B59851  40.296  15.182   6.450
 7980POPC   C2B59852  40.264  15.244   6.750
 7980POPC   C3B59853  40.265  15.159   7.050
 7980POPC   C4B59854  40.302  15.230   7.350
 7981POPC   NC359855  13.607  44.660   5.550
 7981POPC   PO459856  13.637  44.706   5.850
 7981POPC   GL159857  13.631  44.669   6.150
 7981POPC   GL259858  13.573  44.596   6.150
 7981POPC   C1A59859  13.581  44.702   6.450
 7981POPC   D2A59860  13.603  44.679   6.750
 7981POPC   C3A59861  13.596  44.622   7.050
 7981POPC   C4A59862  13.652  44.655   7.350
 7981POPC   C1B59863  13.544  44.476   6.450
 7981POPC   C2B59864  13.558  44.452   6.750
 7981POPC   C3B59865  13.574  44.385   7.050
 7981POPC   C4B59866  13.561  44.416   7.350
 7982POPC   NC359867  26.835  33.059   5.550
 7982POPC   PO459868  26.829  33.039   5.850
 7982POPC   GL159869  26.841  33.052   6.150
 7982POPC   GL259870  26.876  32.861   6.150
 7982POPC   C1A59871  26.847  33.036   6.450
 7982POPC   D2A59872  26.799  33.004   6.750
 7982POPC   C3A59873  26.844  33.016   7.050
 7982POPC   C4A59874  26.852  33.059   7.350
 7982POPC   C1B59875  26.926  32.758   6.450
 7982POPC   C2B59876  26.872  32.788   6.750
 7982POPC   C3B59877  26.903  32.785   7.050
 7982POPC   C4B59878  26.905  32.749   7.350
 7983POPC   NC359879   9.724  10.514   5.550
 7983POPC   PO459880   9.743  10.480   5.850
 7983POPC   GL159881   9.747  10.553   6.150
 7983POPC   GL259882   9.611  10.544   6.150
 7983POPC   C1A59883   9.720  10.533   6.450
 7983POPC   D2A59884   9.727  10.476   6.750
 7983POPC   C3A59885   9.766  10.484   7.050
 7983POPC   C4A59886   9.718  10.533   7.350
 7983POPC   C1B59887   9.540  10.623   6.450
 7983POPC   C2B59888   9.537  10.658   6.750
 7983POPC   C3B59889   9.551  10.652   7.050
 7983POPC   C4B59890   9.533  10.569   7.350
 7984POPC   NC359891  19.849  43.926   5.550
 7984POPC   PO459892  19.828  43.932   5.850
 7984POPC   GL159893  19.815  43.888   6.150
 7984POPC   GL259894  19.926  43.973   6.150
 7984POPC   C1A59895  19.838  43.886   6.450
 7984POPC   D2A59896  19.802  43.923   6.750
 7984POPC   C3A59897  19.861  43.922   7.050
 7984POPC   C4A59898  19.879  43.882   7.350
 7984POPC   C1B59899  19.991  44.010   6.450
 7984POPC   C2B59900  20.060  44.038   6.750
 7984POPC   C3B59901  20.032  44.069   7.050
 7984POPC   C4B59902  20.043  44.046   7.350
 7985POPC   NC359903  22.191   4.341   5.550
 7985POPC   PO459904  22.133   4.292   5.850
 7985POPC   GL159905  22.145   4.291   6.150
 7985POPC   GL259906  22.248   4.408   6.150
 7985POPC   C1A59907  22.198   4.271   6.450
 7985POPC   D2A59908  22.172   4.303   6.750
 7985POPC   C3A59909  22.128   4.317   7.050
 7985POPC   C4A59910  22.187   4.279   7.350
 7985POPC   C1B59911  22.322   4.490   6.450
 7985POPC   C2B59912  22.314   4.452   6.750
 7985POPC   C3B59913  22.298   4.468   7.050
 7985POPC   C4B59914  22.339   4.502   7.350
 7986POPC   NC359915   2.717   1.212   5.550
 7986POPC   PO459916   2.796   1.202   5.850
 7986POPC   GL159917   2.762   1.213   6.150
 7986POPC   GL259918   2.616   1.308   6.150
 7986POPC   C1A59919   2.735   1.175   6.450
 7986POPC   D2A59920   2.763   1.261   6.750
 7986POPC   C3A59921   2.756   1.214   7.050
 7986POPC   C4A59922   2.742   1.197   7.350
 7986POPC   C1B59923   2.526   1.404   6.450
 7986POPC   C2B59924   2.586   1.347   6.750
 7986POPC   C3B59925   2.551   1.336   7.050
 7986POPC   C4B59926   2.577   1.368   7.350
 7987POPC   NC359927  34.620   3.548   5.550
 7987POPC   PO459928  34.598   3.527   5.850
 7987POPC   GL159929  34.584   3.497   6.150
 7987POPC   GL259930  34.493   3.466   6.150
 7987POPC   C1A59931  34.567   3.583   6.450
 7987POPC   D2A59932  34.529   3.521   6.750
 7987POPC   C3A59933  34.551   3.506   7.050
 7987POPC   C4A59934  34.607   3.558   7.350
 7987POPC   C1B59935  34.295   3.497   6.450
 7987POPC   C2B59936  34.336   3.528   6.750
 7987POPC   C3B59937  34.361   3.493   7.050
 7987POPC   C4B59938  34.316   3.496   7.350
 7988POPC   NC359939  21.436  32.281   5.550
 7988POPC   PO459940  21.394  32.278   5.850
 7988POPC   GL159941  21.432  32.236   6.150
 7988POPC   GL259942  21.316  32.327   6.150
 7988POPC   C1A59943  21.360  32.225   6.450
 7988POPC   D2A59944  21.383  32.270   6.750
 7988POPC   C3A59945  21.349  32.250   7.050
 7988POPC   C4A59946  21.342  32.222   7.350
 7988POPC   C1B59947  21.209  32.388   6.450
 7988POPC   C2B59948  21.222  32.469   6.750
 7988POPC   C3B59949  21.171  32.383   7.050
 7988POPC   C4B59950  21.219  32.467   7.350
 7989POPC   NC359951   9.735  11.313   5.550
 7989POPC   PO459952   9.748  11.296   5.850
 7989POPC   GL159953   9.778  11.276   6.150
 7989POPC   GL259954   9.766  11.139   6.150
 7989POPC   C1A59955   9.729  11.334   6.450
 7989POPC   D2A59956   9.780  11.265   6.750
 7989POPC   C3A59957   9.748  11.310   7.050
 7989POPC   C4A59958   9.729  11.259   7.350
 7989POPC   C1B59959   9.830  11.039   6.450
 7989POPC   C2B59960   9.794  11.073   6.750
 7989POPC   C3B59961   9.783  11.075   7.050
 7989POPC   C4B59962   9.778  11.071   7.350
 7990POPC   NC359963  15.149   1.178   5.550
 7990POPC   PO459964  15.178   1.232   5.850
 7990POPC   GL159965  15.191   1.178   6.150
 7990POPC   GL259966  15.346   1.192   6.150
 7990POPC   C1A59967  15.201   1.217   6.450
 7990POPC   D2A59968  15.170   1.165   6.750
 7990POPC   C3A59969  15.188   1.203   7.050
 7990POPC   C4A59970  15.149   1.175   7.350
 7990POPC   C1B59971  15.389   1.119   6.450
 7990POPC   C2B59972  15.467   1.200   6.750
 7990POPC   C3B59973  15.375   1.170   7.050
 7990POPC   C4B59974  15.375   1.104   7.350
 7991POPC   NC359975  39.980  38.417   5.550
 7991POPC   PO459976  39.983  38.421   5.850
 7991POPC   GL159977  40.031  38.473   6.150
 7991POPC   GL259978  40.044  38.561   6.150
 7991POPC   C1A59979  40.013  38.433   6.450
 7991POPC   D2A59980  40.003  38.490   6.750
 7991POPC   C3A59981  40.050  38.454   7.050
 7991POPC   C4A59982  39.987  38.417   7.350
 7991POPC   C1B59983  40.221  38.662   6.450
 7991POPC   C2B59984  40.146  38.602   6.750
 7991POPC   C3B59985  40.161  38.651   7.050
 7991POPC   C4B59986  40.164  38.638   7.350
 7992POPC   NC359987   4.282  15.224   5.550
 7992POPC   PO459988   4.341  15.179   5.850
 7992POPC   GL159989   4.293  15.164   6.150
 7992POPC   GL259990   4.461  15.084   6.150
 7992POPC   C1A59991   4.355  15.188   6.450
 7992POPC   D2A59992   4.324  15.149   6.750
 7992POPC   C3A59993   4.304  15.165   7.050
 7992POPC   C4A59994   4.290  15.220   7.350
 7992POPC   C1B59995   4.541  15.027   6.450
 7992POPC   C2B59996   4.494  15.086   6.750
 7992POPC   C3B59997   4.537  15.050   7.050
 7992POPC   C4B59998   4.568  15.078   7.350
 7993POPC   NC359999  43.839  27.557   5.550
 7993POPC   PO460000  43.887  27.605   5.850
 7993POPC   GL160001  43.935  27.598   6.150
 7993POPC   GL260002  43.873  27.439   6.150
 7993POPC   C1A60003  43.915  27.606   6.450
 7993POPC   D2A60004  43.838  27.569   6.750
 7993POPC   C3A60005  43.872  27.636   7.050
 7993POPC   C4A60006  43.927  27.627   7.350
 7993POPC   C1B60007  43.921  27.334   6.450
 7993POPC   C2B60008  43.856  27.359   6.750
 7993POPC   C3B60009  43.921  27.299   7.050
 7993POPC   C4B60010  43.897  27.345   7.350
 7994POPC   NC360011  25.242   9.009   5.550
 7994POPC   PO460012  25.295   9.016   5.850
 7994POPC   GL160013  25.220   9.006   6.150
 7994POPC   GL260014  25.198   8.887   6.150
 7994POPC   C1A60015  25.251   8.979   6.450
 7994POPC   D2A60016  25.299   8.946   6.750
 7994POPC   C3A60017  25.307   8.955   7.050
 7994POPC   C4A60018  25.248   8.948   7.350
 7994POPC   C1B60019  25.062   8.763   6.450
 7994POPC   C2B60020  25.108   8.822   6.750
 7994POPC   C3B60021  25.085   8.814   7.050
 7994POPC   C4B60022  25.081   8.800   7.350
 7995POPC   NC360023  28.378  11.258   5.550
 7995POPC   PO460024  28.333  11.297   5.850
 7995POPC   GL160025  28.406  11.278   6.150
 7995POPC   GL260026  28.204  11.356   6.150
 7995POPC   C1A60027  28.328  11.284   6.450
 7995POPC   D2A60028  28.358  11.295   6.750
 7995POPC   C3A60029  28.322  11.272   7.050
 7995POPC   C4A60030  28.411  11.349   7.350
 7995POPC   C1B60031  28.147  11.390   6.450
 7995POPC   C2B60032  28.155  11.384   6.750
 7995POPC   C3B60033  28.102  11.336   7.050
 7995POPC   C4B60034  28.158  11.345   7.350
 7996POPC   NC360035  33.833  22.123   5.550
 7996POPC   PO460036  33.849  22.140   5.850
 7996POPC   GL160037  33.755  22.178   6.150
 7996POPC   GL260038  33.706  22.188   6.150
 7996POPC   C1A60039  33.824  22.178   6.450
 7996POPC   D2A60040  33.779  22.114   6.750
 7996POPC   C3A60041  33.761  22.144   7.050
 7996POPC   C4A60042  33.766  22.132   7.350
 7996POPC   C1B60043  33.544  22.134   6.450
 7996POPC   C2B60044  33.561  22.170   6.750
 7996POPC   C3B60045  33.523  22.194   7.050
 7996POPC   C4B60046  33.502  22.163   7.350
 7997POPC   NC360047   1.240   2.020   5.550
 7997POPC   PO460048   1.249   1.987   5.850
 7997POPC   GL160049   1.217   2.009   6.150
 7997POPC   GL260050   1.164   1.827   6.150
 7997POPC   C1A60051   1.215   1.990   6.450
 7997POPC   D2A60052   1.221   2.015   6.750
 7997POPC   C3A60053   1.232   1.998   7.050
 7997POPC   C4A60054   1.215   2.037   7.350
 7997POPC   C1B60055   1.183   1.740   6.450
 7997POPC   C2B60056   1.221   1.742   6.750
 7997POPC   C3B60057   1.205   1.712   7.050
 7997POPC   C4B60058   1.210   1.724   7.350
 7998POPC   NC360059   4.277  28.338   5.550
 7998POPC   PO460060   4.357  28.381   5.850
 7998POPC   GL160061   4.277  28.364   6.150
 7998POPC   GL260062   4.150  28.391   6.150
 7998POPC   C1A60063   4.359  28.395   6.450
 7998POPC   D2A60064   4.301  28.415   6.750
 7998POPC   C3A60065   4.357  28.327   7.050
 7998POPC   C4A60066   4.308  28.399   7.350
 7998POPC   C1B60067   4.074  28.445   6.450
 7998POPC   C2B60068   4.031  28.445   6.750
 7998POPC   C3B60069   4.111  28.391   7.050
 7998POPC   C4B60070   4.032  28.386   7.350
 7999POPC   NC360071  18.306  12.029   5.550
 7999POPC   PO460072  18.240  12.090   5.850
 7999POPC   GL160073  18.324  12.044   6.150
 7999POPC   GL260074  18.245  12.170   6.150
 7999POPC   C1A60075  18.253  12.112   6.450
 7999POPC   D2A60076  18.269  12.028   6.750
 7999POPC   C3A60077  18.263  12.044   7.050
 7999POPC   C4A60078  18.293  12.100   7.350
 7999POPC   C1B60079  18.076  12.271   6.450
 7999POPC   C2B60080  18.103  12.289   6.750
 7999POPC   C3B60081  18.148  12.230   7.050
 7999POPC   C4B60082  18.113  12.286   7.350
 8000POPC   NC360083  29.170   3.492   5.550
 8000POPC   PO460084  29.121   3.504   5.850
 8000POPC   GL160085  29.099   3.494   6.150
 8000POPC   GL260086  29.152   3.433   6.150
 8000POPC   C1A60087  29.132   3.571   6.450
 8000POPC   D2A60088  29.132   3.581   6.750
 8000POPC   C3A60089  29.184   3.495   7.050
 8000POPC   C4A60090  29.135   3.563   7.350
 8000POPC   C1B60091  29.070   3.336   6.450
 8000POPC   C2B60092  29.109   3.275   6.750
 8000POPC   C3B60093  29.067   3.268   7.050
 8000POPC   C4B60094  29.090   3.282   7.350
 8001POPC   NC360095  11.259  31.510   5.550
 8001POPC   PO460096  11.276  31.439   5.850
 8001POPC   GL160097  11.312  31.516   6.150
 8001POPC   GL260098  11.339  31.570   6.150
 8001POPC   C1A60099  11.292  31.444   6.450
 8001POPC   D2A60100  11.311  31.442   6.750
 8001POPC   C3A60101  11.265  31.444   7.050
 8001POPC   C4A60102  11.325  31.430   7.350
 8001POPC   C1B60103  11.458  31.609   6.450
 8001POPC   C2B60104  11.470  31.696   6.750
 8001POPC   C3B60105  11.448  31.698   7.050
 8001POPC   C4B60106  11.509  31.616   7.350
 8002POPC   NC360107  22.900   8.993   5.550
 8002POPC   PO460108  22.907   9.022   5.850
 8002POPC   GL160109  22.909   8.939   6.150
 8002POPC   GL260110  22.876   8.812   6.150
 8002POPC   C1A60111  22.986   8.931   6.450
 8002POPC   D2A60112  22.915   9.017   6.750
 8002POPC   C3A60113  22.969   8.925   7.050
 8002POPC   C4A60114  22.920   8.974   7.350
 8002POPC   C1B60115  22.931   8.774   6.450
 8002POPC   C2B60116  22.903   8.749   6.750
 8002POPC   C3B60117  22.929   8.743   7.050
 8002POPC   C4B60118  22.900   8.721   7.350
 8003POPC   NC360119  22.211  18.303   5.550
 8003POPC   PO460120  22.202  18.265   5.850
 8003POPC   GL160121  22.134  18.258   6.150
 8003POPC   GL260122  22.288  18.259   6.150
 8003POPC   C1A60123  22.196  18.281   6.450
 8003POPC   D2A60124  22.126  18.286   6.750
 8003POPC   C3A60125  22.176  18.302   7.050
 8003POPC   C4A60126  22.130  18.299   7.350
 8003POPC   C1B60127  22.362  18.269   6.450
 8003POPC   C2B60128  22.379  18.260   6.750
 8003POPC   C3B60129  22.368  18.254   7.050
 8003POPC   C4B60130  22.461  18.221   7.350
 8004POPC   NC360131  11.331   1.972   5.550
 8004POPC   PO460132  11.267   1.947   5.850
 8004POPC   GL160133  11.257   2.011   6.150
 8004POPC   GL260134  11.438   1.896   6.150
 8004POPC   C1A60135  11.297   2.002   6.450
 8004POPC   D2A60136  11.256   1.982   6.750
 8004POPC   C3A60137  11.287   1.984   7.050
 8004POPC   C4A60138  11.321   2.001   7.350
 8004POPC   C1B60139  11.531   1.877   6.450
 8004POPC   C2B60140  11.450   1.861   6.750
 8004POPC   C3B60141  11.544   1.791   7.050
 8004POPC   C4B60142  11.494   1.850   7.350
 8005POPC   NC360143  43.845  34.598   5.550
 8005POPC   PO460144  43.857  34.536   5.850
 8005POPC   GL160145  43.838  34.609   6.150
 8005POPC   GL260146  43.961  34.568   6.150
 8005POPC   C1A60147  43.934  34.534   6.450
 8005POPC   D2A60148  43.923  34.537   6.750
 8005POPC   C3A60149  43.935  34.617   7.050
 8005POPC   C4A60150  43.898  34.620   7.350
 8005POPC   C1B60151  44.136  34.705   6.450
 8005POPC   C2B60152  44.117  34.682   6.750
 8005POPC   C3B60153  44.084  34.623   7.050
 8005POPC   C4B60154  44.156  34.706   7.350
 8006POPC   NC360155  44.652   2.023   5.550
 8006POPC   PO460156  44.613   1.959   5.850
 8006POPC   GL160157  44.708   2.009   6.150
 8006POPC   GL260158  44.629   2.159   6.150
 8006POPC   C1A60159  44.676   2.027   6.450
 8006POPC   D2A60160  44.635   1.970   6.750
 8006POPC   C3A60161  44.707   2.010   7.050
 8006POPC   C4A60162  44.711   1.975   7.350
 8006POPC   C1B60163  44.645   2.225   6.450
 8006POPC   C2B60164  44.636   2.279   6.750
 8006POPC   C3B60165  44.671   2.287   7.050
 8006POPC   C4B60166  44.663   2.225   7.350
 8007POPC   NC360167  35.376  14.420   5.550
 8007POPC   PO460168  35.319  14.402   5.850
 8007POPC   GL160169  35.346  14.412   6.150
 8007POPC   GL260170  35.234  14.412   6.150
 8007POPC   C1A60171  35.379  14.365   6.450
 8007POPC   D2A60172  35.347  14.412   6.750
 8007POPC   C3A60173  35.350  14.416   7.050
 8007POPC   C4A60174  35.355  14.365   7.350
 8007POPC   C1B60175  35.143  14.461   6.450
 8007POPC   C2B60176  35.110  14.409   6.750
 8007POPC   C3B60177  35.085  14.384   7.050
 8007POPC   C4B60178  35.115  14.453   7.350
 8008POPC   NC360179  32.980  26.056   5.550
 8008POPC   PO460180  33.047  26.038   5.850
 8008POPC   GL160181  33.041  26.011   6.150
 8008POPC   GL260182  33.042  25.965   6.150
 8008POPC   C1A60183  33.046  26.068   6.450
 8008POPC   D2A60184  33.006  26.084   6.750
 8008POPC   C3A60185  33.005  26.039   7.050
 8008POPC   C4A60186  33.071  26.012   7.350
 8008POPC   C1B60187  33.077  25.811   6.450
 8008POPC   C2B60188  33.135  25.757   6.750
 8008POPC   C3B60189  33.099  25.778   7.050
 8008POPC   C4B60190  33.119  25.804   7.350
 8009POPC   NC360191  12.854  43.107   5.550
 8009POPC   PO460192  12.878  43.103   5.850
 8009POPC   GL160193  12.871  43.152   6.150
 8009POPC   GL260194  12.819  43.232   6.150
 8009POPC   C1A60195  12.817  43.066   6.450
 8009POPC   D2A60196  12.887  43.072   6.750
 8009POPC   C3A60197  12.811  43.091   7.050
 8009POPC   C4A60198  12.901  43.080   7.350
 8009POPC   C1B60199  12.777  43.334   6.450
 8009POPC   C2B60200  12.762  43.380   6.750
 8009POPC   C3B60201  12.750  43.315   7.050
 8009POPC   C4B60202  12.793  43.359   7.350
 8010POPC   NC360203   9.758  33.808   5.550
 8010POPC   PO460204   9.771  33.811   5.850
 8010POPC   GL160205   9.772  33.798   6.150
 8010POPC   GL260206   9.635  33.899   6.150
 8010POPC   C1A60207   9.739  33.834   6.450
 8010POPC   D2A60208   9.778  33.807   6.750
 8010POPC   C3A60209   9.742  33.777   7.050
 8010POPC   C4A60210   9.755  33.845   7.350
 8010POPC   C1B60211   9.574  33.910   6.450
 8010POPC   C2B60212   9.521  33.943   6.750
 8010POPC   C3B60213   9.587  33.910   7.050
 8010POPC   C4B60214   9.527  33.901   7.350
 8011POPC   NC360215  13.591  21.384   5.550
 8011POPC   PO460216  13.634  21.424   5.850
 8011POPC   GL160217  13.672  21.337   6.150
 8011POPC   GL260218  13.708  21.528   6.150
 8011POPC   C1A60219  13.639  21.403   6.450
 8011POPC   D2A60220  13.675  21.393   6.750
 8011POPC   C3A60221  13.611  21.342   7.050
 8011POPC   C4A60222  13.593  21.345   7.350
 8011POPC   C1B60223  13.692  21.615   6.450
 8011POPC   C2B60224  13.789  21.634   6.750
 8011POPC   C3B60225  13.725  21.578   7.050
 8011POPC   C4B60226  13.696  21.577   7.350
 8012POPC   NC360227  44.711   7.420   5.550
 8012POPC   PO460228  44.654   7.463   5.850
 8012POPC   GL160229  44.630   7.449   6.150
 8012POPC   GL260230  44.688   7.572   6.150
 8012POPC   C1A60231  44.667   7.452   6.450
 8012POPC   D2A60232  44.646   7.462   6.750
 8012POPC   C3A60233  44.702   7.460   7.050
 8012POPC   C4A60234  44.695   7.428   7.350
 8012POPC   C1B60235  44.775   7.665   6.450
 8012POPC   C2B60236  44.754   7.599   6.750
 8012POPC   C3B60237  44.815   7.603   7.050
 8012POPC   C4B60238  44.842   7.594   7.350
 8013POPC   NC360239   3.523  33.773   5.550
 8013POPC   PO460240   3.569  33.837   5.850
 8013POPC   GL160241   3.569  33.825   6.150
 8013POPC   GL260242   3.586  33.896   6.150
 8013POPC   C1A60243   3.570  33.769   6.450
 8013POPC   D2A60244   3.505  33.821   6.750
 8013POPC   C3A60245   3.588  33.774   7.050
 8013POPC   C4A60246   3.563  33.788   7.350
 8013POPC   C1B60247   3.593  34.056   6.450
 8013POPC   C2B60248   3.590  34.010   6.750
 8013POPC   C3B60249   3.608  33.987   7.050
 8013POPC   C4B60250   3.622  34.017   7.350
 8014POPC   NC360251   0.477   7.434   5.550
 8014POPC   PO460252   0.413   7.375   5.850
 8014POPC   GL160253   0.414   7.436   6.150
 8014POPC   GL260254   0.333   7.378   6.150
 8014POPC   C1A60255   0.400   7.399   6.450
 8014POPC   D2A60256   0.469   7.467   6.750
 8014POPC   C3A60257   0.420   7.391   7.050
 8014POPC   C4A60258   0.456   7.442   7.350
 8014POPC   C1B60259   0.209   7.372   6.450
 8014POPC   C2B60260   0.204   7.354   6.750
 8014POPC   C3B60261   0.220   7.314   7.050
 8014POPC   C4B60262   0.227   7.304   7.350
 8015POPC   NC360263  29.907  40.829   5.550
 8015POPC   PO460264  29.940  40.777   5.850
 8015POPC   GL160265  29.888  40.820   6.150
 8015POPC   GL260266  29.809  40.799   6.150
 8015POPC   C1A60267  29.942  40.816   6.450
 8015POPC   D2A60268  29.918  40.817   6.750
 8015POPC   C3A60269  29.910  40.805   7.050
 8015POPC   C4A60270  29.954  40.791   7.350
 8015POPC   C1B60271  29.649  40.927   6.450
 8015POPC   C2B60272  29.664  40.849   6.750
 8015POPC   C3B60273  29.676  40.876   7.050
 8015POPC   C4B60274  29.708  40.930   7.350
 8016POPC   NC360275  37.633  44.669   5.550
 8016POPC   PO460276  37.686  44.672   5.850
 8016POPC   GL160277  37.635  44.661   6.150
 8016POPC   GL260278  37.746  44.579   6.150
 8016POPC   C1A60279  37.673  44.692   6.450
 8016POPC   D2A60280  37.679  44.615   6.750
 8016POPC   C3A60281  37.707  44.664   7.050
 8016POPC   C4A60282  37.668  44.635   7.350
 8016POPC   C1B60283  37.918  44.517   6.450
 8016POPC   C2B60284  37.893  44.545   6.750
 8016POPC   C3B60285  37.880  44.513   7.050
 8016POPC   C4B60286  37.859  44.501   7.350
 8017POPC   NC360287  16.699  38.463   5.550
 8017POPC   PO460288  16.771  38.454   5.850
 8017POPC   GL160289  16.687  38.421   6.150
 8017POPC   GL260290  16.815  38.390   6.150
 8017POPC   C1A60291  16.708  38.505   6.450
 8017POPC   D2A60292  16.725  38.412   6.750
 8017POPC   C3A60293  16.713  38.440   7.050
 8017POPC   C4A60294  16.703  38.485   7.350
 8017POPC   C1B60295  16.976  38.332   6.450
 8017POPC   C2B60296  16.954  38.342   6.750
 8017POPC   C3B60297  16.951  38.360   7.050
 8017POPC   C4B60298  16.972  38.360   7.350
 8018POPC   NC360299  12.071   5.837   5.550
 8018POPC   PO460300  12.030   5.878   5.850
 8018POPC   GL160301  12.033   5.894   6.150
 8018POPC   GL260302  12.192   5.945   6.150
 8018POPC   C1A60303  12.053   5.846   6.450
 8018POPC   D2A60304  12.052   5.870   6.750
 8018POPC   C3A60305  12.106   5.915   7.050
 8018POPC   C4A60306  12.034   5.822   7.350
 8018POPC   C1B60307  12.312   5.974   6.450
 8018POPC   C2B60308  12.320   6.014   6.750
 8018POPC   C3B60309  12.300   5.924   7.050
 8018POPC   C4B60310  12.350   5.932   7.350
 8019POPC   NC360311  14.361  28.333   5.550
 8019POPC   PO460312  14.391  28.367   5.850
 8019POPC   GL160313  14.402  28.355   6.150
 8019POPC   GL260314  14.427  28.504   6.150
 8019POPC   C1A60315  14.453  28.346   6.450
 8019POPC   D2A60316  14.430  28.369   6.750
 8019POPC   C3A60317  14.371  28.394   7.050
 8019POPC   C4A60318  14.382  28.365   7.350
 8019POPC   C1B60319  14.421  28.626   6.450
 8019POPC   C2B60320  14.402  28.636   6.750
 8019POPC   C3B60321  14.347  28.594   7.050
 8019POPC   C4B60322  14.329  28.659   7.350
 8020POPC   NC360323   3.578  13.678   5.550
 8020POPC   PO460324   3.516  13.660   5.850
 8020POPC   GL160325   3.547  13.663   6.150
 8020POPC   GL260326   3.443  13.686   6.150
 8020POPC   C1A60327   3.494  13.622   6.450
 8020POPC   D2A60328   3.544  13.587   6.750
 8020POPC   C3A60329   3.492  13.614   7.050
 8020POPC   C4A60330   3.499  13.607   7.350
 8020POPC   C1B60331   3.298  13.669   6.450
 8020POPC   C2B60332   3.343  13.729   6.750
 8020POPC   C3B60333   3.279  13.750   7.050
 8020POPC   C4B60334   3.321  13.749   7.350
 8021POPC   NC360335  21.413  12.825   5.550
 8021POPC   PO460336  21.395  12.850   5.850
 8021POPC   GL160337  21.428  12.892   6.150
 8021POPC   GL260338  21.356  12.957   6.150
 8021POPC   C1A60339  21.400  12.811   6.450
 8021POPC   D2A60340  21.413  12.888   6.750
 8021POPC   C3A60341  21.339  12.827   7.050
 8021POPC   C4A60342  21.363  12.831   7.350
 8021POPC   C1B60343  21.320  13.094   6.450
 8021POPC   C2B60344  21.369  13.106   6.750
 8021POPC   C3B60345  21.343  13.139   7.050
 8021POPC   C4B60346  21.339  13.146   7.350
 8022POPC   NC360347  37.700  24.440   5.550
 8022POPC   PO460348  37.696  24.508   5.850
 8022POPC   GL160349  37.709  24.505   6.150
 8022POPC   GL260350  37.658  24.544   6.150
 8022POPC   C1A60351  37.676  24.530   6.450
 8022POPC   D2A60352  37.720  24.510   6.750
 8022POPC   C3A60353  37.678  24.446   7.050
 8022POPC   C4A60354  37.725  24.510   7.350
 8022POPC   C1B60355  37.538  24.730   6.450
 8022POPC   C2B60356  37.579  24.710   6.750
 8022POPC   C3B60357  37.517  24.716   7.050
 8022POPC   C4B60358  37.550  24.687   7.350
 8023POPC   NC360359  11.281  11.332   5.550
 8023POPC   PO460360  11.268  11.259   5.850
 8023POPC   GL160361  11.318  11.295   6.150
 8023POPC   GL260362  11.377  11.317   6.150
 8023POPC   C1A60363  11.281  11.346   6.450
 8023POPC   D2A60364  11.281  11.269   6.750
 8023POPC   C3A60365  11.300  11.338   7.050
 8023POPC   C4A60366  11.299  11.325   7.350
 8023POPC   C1B60367  11.561  11.308   6.450
 8023POPC   C2B60368  11.557  11.339   6.750
 8023POPC   C3B60369  11.576  11.325   7.050
 8023POPC   C4B60370  11.516  11.315   7.350
 8024POPC   NC360371  22.948  13.594   5.550
 8024POPC   PO460372  22.983  13.580   5.850
 8024POPC   GL160373  22.933  13.644   6.150
 8024POPC   GL260374  22.939  13.483   6.150
 8024POPC   C1A60375  22.970  13.585   6.450
 8024POPC   D2A60376  22.982  13.586   6.750
 8024POPC   C3A60377  22.900  13.665   7.050
 8024POPC   C4A60378  22.970  13.650   7.350
 8024POPC   C1B60379  22.980  13.349   6.450
 8024POPC   C2B60380  22.965  13.403   6.750
 8024POPC   C3B60381  22.930  13.419   7.050
 8024POPC   C4B60382  22.935  13.416   7.350
 8025POPC   NC360383  32.225  19.054   5.550
 8025POPC   PO460384  32.281  19.029   5.850
 8025POPC   GL160385  32.212  19.089   6.150
 8025POPC   GL260386  32.107  19.051   6.150
 8025POPC   C1A60387  32.288  19.107   6.450
 8025POPC   D2A60388  32.243  19.074   6.750
 8025POPC   C3A60389  32.226  19.076   7.050
 8025POPC   C4A60390  32.242  19.072   7.350
 8025POPC   C1B60391  31.994  19.057   6.450
 8025POPC   C2B60392  32.012  19.140   6.750
 8025POPC   C3B60393  31.975  19.065   7.050
 8025POPC   C4B60394  32.032  19.053   7.350
 8026POPC   NC360395   5.827  43.857   5.550
 8026POPC   PO460396   5.824  43.924   5.850
 8026POPC   GL160397   5.863  43.902   6.150
 8026POPC   GL260398   6.036  43.875   6.150
 8026POPC   C1A60399   5.876  43.925   6.450
 8026POPC   D2A60400   5.886  43.848   6.750
 8026POPC   C3A60401   5.915  43.865   7.050
 8026POPC   C4A60402   5.876  43.870   7.350
 8026POPC   C1B60403   6.152  43.920   6.450
 8026POPC   C2B60404   6.116  43.842   6.750
 8026POPC   C3B60405   6.156  43.869   7.050
 8026POPC   C4B60406   6.144  43.893   7.350
 8027POPC   NC360407  28.386  12.081   5.550
 8027POPC   PO460408  28.410  12.110   5.850
 8027POPC   GL160409  28.351  12.064   6.150
 8027POPC   GL260410  28.468  12.101   6.150
 8027POPC   C1A60411  28.412  12.095   6.450
 8027POPC   D2A60412  28.348  12.060   6.750
 8027POPC   C3A60413  28.407  12.108   7.050
 8027POPC   C4A60414  28.366  12.117   7.350
 8027POPC   C1B60415  28.656  12.042   6.450
 8027POPC   C2B60416  28.601  12.089   6.750
 8027POPC   C3B60417  28.636  12.033   7.050
 8027POPC   C4B60418  28.641  12.104   7.350
 8028POPC   NC360419  18.289  22.135   5.550
 8028POPC   PO460420  18.253  22.194   5.850
 8028POPC   GL160421  18.257  22.136   6.150
 8028POPC   GL260422  18.429  22.092   6.150
 8028POPC   C1A60423  18.251  22.148   6.450
 8028POPC   D2A60424  18.305  22.154   6.750
 8028POPC   C3A60425  18.307  22.169   7.050
 8028POPC   C4A60426  18.316  22.183   7.350
 8028POPC   C1B60427  18.503  22.061   6.450
 8028POPC   C2B60428  18.444  22.033   6.750
 8028POPC   C3B60429  18.521  22.065   7.050
 8028POPC   C4B60430  18.477  22.029   7.350
 8029POPC   NC360431  15.150  14.412   5.550
 8029POPC   PO460432  15.136  14.408   5.850
 8029POPC   GL160433  15.165  14.434   6.150
 8029POPC   GL260434  15.183  14.278   6.150
 8029POPC   C1A60435  15.135  14.418   6.450
 8029POPC   D2A60436  15.220  14.420   6.750
 8029POPC   C3A60437  15.136  14.437   7.050
 8029POPC   C4A60438  15.142  14.426   7.350
 8029POPC   C1B60439  15.148  14.151   6.450
 8029POPC   C2B60440  15.222  14.200   6.750
 8029POPC   C3B60441  15.179  14.181   7.050
 8029POPC   C4B60442  15.184  14.191   7.350
 8030POPC   NC360443  34.546  22.919   5.550
 8030POPC   PO460444  34.568  22.899   5.850
 8030POPC   GL160445  34.578  22.918   6.150
 8030POPC   GL260446  34.449  22.912   6.150
 8030POPC   C1A60447  34.577  22.910   6.450
 8030POPC   D2A60448  34.612  22.910   6.750
 8030POPC   C3A60449  34.568  22.943   7.050
 8030POPC   C4A60450  34.555  22.918   7.350
 8030POPC   C1B60451  34.354  22.839   6.450
 8030POPC   C2B60452  34.368  22.804   6.750
 8030POPC   C3B60453  34.330  22.842   7.050
 8030POPC   C4B60454  34.321  22.845   7.350
 8031POPC   NC360455  27.551  31.489   5.550
 8031POPC   PO460456  27.561  31.511   5.850
 8031POPC   GL160457  27.629  31.465   6.150
 8031POPC   GL260458  27.758  31.479   6.150
 8031POPC   C1A60459  27.638  31.471   6.450
 8031POPC   D2A60460  27.617  31.460   6.750
 8031POPC   C3A60461  27.585  31.432   7.050
 8031POPC   C4A60462  27.551  31.516   7.350
 8031POPC   C1B60463  27.809  31.395   6.450
 8031POPC   C2B60464  27.852  31.380   6.750
 8031POPC   C3B60465  27.837  31.449   7.050
 8031POPC   C4B60466  27.874  31.375   7.350
 8032POPC   NC360467  30.702  37.636   5.550
 8032POPC   PO460468  30.739  37.700   5.850
 8032POPC   GL160469  30.679  37.709   6.150
 8032POPC   GL260470  30.839  37.747   6.150
 8032POPC   C1A60471  30.735  37.712   6.450
 8032POPC   D2A60472  30.729  37.682   6.750
 8032POPC   C3A60473  30.675  37.727   7.050
 8032POPC   C4A60474  30.684  37.647   7.350
 8032POPC   C1B60475  30.905  37.762   6.450
 8032POPC   C2B60476  30.914  37.712   6.750
 8032POPC   C3B60477  30.914  37.773   7.050
 8032POPC   C4B60478  30.917  37.756   7.350
 8033POPC   NC360479   3.564  15.961   5.550
 8033POPC   PO460480   3.540  15.956   5.850
 8033POPC   GL160481   3.555  15.998   6.150
 8033POPC   GL260482   3.694  15.995   6.150
 8033POPC   C1A60483   3.506  15.938   6.450
 8033POPC   D2A60484   3.564  15.924   6.750
 8033POPC   C3A60485   3.532  15.916   7.050
 8033POPC   C4A60486   3.561  15.936   7.350
 8033POPC   C1B60487   3.835  15.940   6.450
 8033POPC   C2B60488   3.795  15.976   6.750
 8033POPC   C3B60489   3.824  15.986   7.050
 8033POPC   C4B60490   3.782  15.958   7.350
 8034POPC   NC360491  35.365  26.015   5.550
 8034POPC   PO460492  35.325  26.042   5.850
 8034POPC   GL160493  35.305  26.058   6.150
 8034POPC   GL260494  35.445  25.970   6.150
 8034POPC   C1A60495  35.324  26.033   6.450
 8034POPC   D2A60496  35.373  25.991   6.750
 8034POPC   C3A60497  35.310  26.012   7.050
 8034POPC   C4A60498  35.401  26.043   7.350
 8034POPC   C1B60499  35.450  25.807   6.450
 8034POPC   C2B60500  35.439  25.781   6.750
 8034POPC   C3B60501  35.488  25.851   7.050
 8034POPC   C4B60502  35.497  25.776   7.350
 8035POPC   NC360503   0.485   0.457   5.550
 8035POPC   PO460504   0.409   0.407   5.850
 8035POPC   GL160505   0.429   0.409   6.150
 8035POPC   GL260506   0.358   0.532   6.150
 8035POPC   C1A60507   0.484   0.464   6.450
 8035POPC   D2A60508   0.421   0.405   6.750
 8035POPC   C3A60509   0.407   0.396   7.050
 8035POPC   C4A60510   0.458   0.403   7.350
 8035POPC   C1B60511   0.313   0.675   6.450
 8035POPC   C2B60512   0.379   0.629   6.750
 8035POPC   C3B60513   0.370   0.710   7.050
 8035POPC   C4B60514   0.374   0.709   7.350
 8036POPC   NC360515  27.572  22.190   5.550
 8036POPC   PO460516  27.547  22.192   5.850
 8036POPC   GL160517  27.636  22.132   6.150
 8036POPC   GL260518  27.695  22.243   6.150
 8036POPC   C1A60519  27.605  22.143   6.450
 8036POPC   D2A60520  27.574  22.173   6.750
 8036POPC   C3A60521  27.584  22.123   7.050
 8036POPC   C4A60522  27.574  22.125   7.350
 8036POPC   C1B60523  27.765  22.260   6.450
 8036POPC   C2B60524  27.787  22.322   6.750
 8036POPC   C3B60525  27.849  22.326   7.050
 8036POPC   C4B60526  27.771  22.304   7.350
 8037POPC   NC360527  32.992  43.934   5.550
 8037POPC   PO460528  33.045  43.860   5.850
 8037POPC   GL160529  33.072  43.914   6.150
 8037POPC   GL260530  32.934  43.906   6.150
 8037POPC   C1A60531  33.004  43.880   6.450
 8037POPC   D2A60532  32.983  43.849   6.750
 8037POPC   C3A60533  33.007  43.885   7.050
 8037POPC   C4A60534  33.005  43.925   7.350
 8037POPC   C1B60535  32.784  43.860   6.450
 8037POPC   C2B60536  32.770  43.834   6.750
 8037POPC   C3B60537  32.786  43.880   7.050
 8037POPC   C4B60538  32.803  43.874   7.350
 8038POPC   NC360539  36.916  31.515   5.550
 8038POPC   PO460540  36.932  31.423   5.850
 8038POPC   GL160541  36.937  31.509   6.150
 8038POPC   GL260542  36.960  31.573   6.150
 8038POPC   C1A60543  36.883  31.485   6.450
 8038POPC   D2A60544  36.940  31.464   6.750
 8038POPC   C3A60545  36.867  31.512   7.050
 8038POPC   C4A60546  36.931  31.520   7.350
 8038POPC   C1B60547  37.087  31.650   6.450
 8038POPC   C2B60548  37.075  31.693   6.750
 8038POPC   C3B60549  37.039  31.628   7.050
 8038POPC   C4B60550  37.065  31.690   7.350
 8039POPC   NC360551  29.151  19.067   5.550
 8039POPC   PO460552  29.120  19.108   5.850
 8039POPC   GL160553  29.165  19.011   6.150
 8039POPC   GL260554  29.267  19.075   6.150
 8039POPC   C1A60555  29.110  19.091   6.450
 8039POPC   D2A60556  29.113  19.059   6.750
 8039POPC   C3A60557  29.174  19.058   7.050
 8039POPC   C4A60558  29.184  19.068   7.350
 8039POPC   C1B60559  29.368  19.002   6.450
 8039POPC   C2B60560  29.415  19.040   6.750
 8039POPC   C3B60561  29.345  19.023   7.050
 8039POPC   C4B60562  29.426  18.958   7.350
 8040POPC   NC360563   4.288   5.093   5.550
 8040POPC   PO460564   4.289   5.054   5.850
 8040POPC   GL160565   4.299   5.119   6.150
 8040POPC   GL260566   4.401   5.152   6.150
 8040POPC   C1A60567   4.344   5.073   6.450
 8040POPC   D2A60568   4.272   5.096   6.750
 8040POPC   C3A60569   4.325   5.069   7.050
 8040POPC   C4A60570   4.274   5.070   7.350
 8040POPC   C1B60571   4.475   5.253   6.450
 8040POPC   C2B60572   4.509   5.265   6.750
 8040POPC   C3B60573   4.495   5.225   7.050
 8040POPC   C4B60574   4.539   5.236   7.350
 8041POPC   NC360575  26.864   8.972   5.550
 8041POPC   PO460576  26.817   8.979   5.850
 8041POPC   GL160577  26.786   8.939   6.150
 8041POPC   GL260578  26.929   9.035   6.150
 8041POPC   C1A60579  26.854   8.965   6.450
 8041POPC   D2A60580  26.860   8.971   6.750
 8041POPC   C3A60581  26.782   9.020   7.050
 8041POPC   C4A60582  26.827   8.967   7.350
 8041POPC   C1B60583  27.047   8.959   6.450
 8041POPC   C2B60584  27.075   9.043   6.750
 8041POPC   C3B60585  27.040   9.048   7.050
 8041POPC   C4B60586  27.078   8.951   7.350
 8042POPC   NC360587  42.379  10.497   5.550
 8042POPC   PO460588  42.382  10.545   5.850
 8042POPC   GL160589  42.335  10.494   6.150
 8042POPC   GL260590  42.407  10.460   6.150
 8042POPC   C1A60591  42.379  10.550   6.450
 8042POPC   D2A60592  42.289  10.535   6.750
 8042POPC   C3A60593  42.292  10.563   7.050
 8042POPC   C4A60594  42.349  10.508   7.350
 8042POPC   C1B60595  42.617  10.436   6.450
 8042POPC   C2B60596  42.595  10.411   6.750
 8042POPC   C3B60597  42.538  10.466   7.050
 8042POPC   C4B60598  42.613  10.465   7.350
 8043POPC   NC360599   9.744  26.070   5.550
 8043POPC   PO460600   9.771  26.005   5.850
 8043POPC   GL160601   9.720  26.014   6.150
 8043POPC   GL260602   9.749  26.167   6.150
 8043POPC   C1A60603   9.715  25.994   6.450
 8043POPC   D2A60604   9.793  26.024   6.750
 8043POPC   C3A60605   9.772  26.030   7.050
 8043POPC   C4A60606   9.727  26.043   7.350
 8043POPC   C1B60607   9.742  26.265   6.450
 8043POPC   C2B60608   9.768  26.335   6.750
 8043POPC   C3B60609   9.786  26.326   7.050
 8043POPC   C4B60610   9.766  26.333   7.350
 8044POPC   NC360611  23.754  44.627   5.550
 8044POPC   PO460612  23.741  44.693   5.850
 8044POPC   GL160613  23.689  44.616   6.150
 8044POPC   GL260614  23.876  44.654   6.150
 8044POPC   C1A60615  23.729  44.628   6.450
 8044POPC   D2A60616  23.685  44.648   6.750
 8044POPC   C3A60617  23.730  44.630   7.050
 8044POPC   C4A60618  23.664  44.651   7.350
 8044POPC   C1B60619  23.962  44.723   6.450
 8044POPC   C2B60620  24.009  44.652   6.750
 8044POPC   C3B60621  23.936  44.716   7.050
 8044POPC   C4B60622  23.940  44.652   7.350
 8045POPC   NC360623  15.948  23.668   5.550
 8045POPC   PO460624  15.963  23.672   5.850
 8045POPC   GL160625  15.928  23.762   6.150
 8045POPC   GL260626  16.091  23.738   6.150
 8045POPC   C1A60627  15.910  23.743   6.450
 8045POPC   D2A60628  15.943  23.686   6.750
 8045POPC   C3A60629  15.949  23.724   7.050
 8045POPC   C4A60630  15.988  23.679   7.350
 8045POPC   C1B60631  16.249  23.647   6.450
 8045POPC   C2B60632  16.206  23.653   6.750
 8045POPC   C3B60633  16.216  23.713   7.050
 8045POPC   C4B60634  16.247  23.672   7.350
 8046POPC   NC360635  16.709  39.279   5.550
 8046POPC   PO460636  16.703  39.202   5.850
 8046POPC   GL160637  16.722  39.239   6.150
 8046POPC   GL260638  16.739  39.367   6.150
 8046POPC   C1A60639  16.744  39.206   6.450
 8046POPC   D2A60640  16.747  39.261   6.750
 8046POPC   C3A60641  16.733  39.230   7.050
 8046POPC   C4A60642  16.767  39.246   7.350
 8046POPC   C1B60643  16.684  39.481   6.450
 8046POPC   C2B60644  16.664  39.497   6.750
 8046POPC   C3B60645  16.695  39.446   7.050
 8046POPC   C4B60646  16.747  39.513   7.350
 8047POPC   NC360647  34.586   0.423   5.550
 8047POPC   PO460648  34.544   0.481   5.850
 8047POPC   GL160649  34.531   0.447   6.150
 8047POPC   GL260650  34.669   0.385   6.150
 8047POPC   C1A60651  34.557   0.393   6.450
 8047POPC   D2A60652  34.587   0.447   6.750
 8047POPC   C3A60653  34.572   0.401   7.050
 8047POPC   C4A60654  34.578   0.483   7.350
 8047POPC   C1B60655  34.769   0.298   6.450
 8047POPC   C2B60656  34.718   0.212   6.750
 8047POPC   C3B60657  34.724   0.289   7.050
 8047POPC   C4B60658  34.742   0.298   7.350
 8048POPC   NC360659  12.077  27.599   5.550
 8048POPC   PO460660  12.083  27.583   5.850
 8048POPC   GL160661  12.093  27.551   6.150
 8048POPC   GL260662  11.950  27.541   6.150
 8048POPC   C1A60663  12.116  27.563   6.450
 8048POPC   D2A60664  12.122  27.567   6.750
 8048POPC   C3A60665  12.049  27.605   7.050
 8048POPC   C4A60666  12.111  27.630   7.350
 8048POPC   C1B60667  11.786  27.618   6.450
 8048POPC   C2B60668  11.834  27.552   6.750
 8048POPC   C3B60669  11.829  27.564   7.050
 8048POPC   C4B60670  11.778  27.610   7.350
 8049POPC   NC360671  24.446  43.869   5.550
 8049POPC   PO460672  24.503  43.884   5.850
 8049POPC   GL160673  24.459  43.887   6.150
 8049POPC   GL260674  24.483  44.033   6.150
 8049POPC   C1A60675  24.470  43.925   6.450
 8049POPC   D2A60676  24.490  43.899   6.750
 8049POPC   C3A60677  24.494  43.836   7.050
 8049POPC   C4A60678  24.502  43.918   7.350
 8049POPC   C1B60679  24.504  44.138   6.450
 8049POPC   C2B60680  24.519  44.151   6.750
 8049POPC   C3B60681  24.502  44.167   7.050
 8049POPC   C4B60682  24.504  44.118   7.350
 8050POPC   NC360683  26.811  30.661   5.550
 8050POPC   PO460684  26.862  30.723   5.850
 8050POPC   GL160685  26.832  30.726   6.150
 8050POPC   GL260686  26.943  30.794   6.150
 8050POPC   C1A60687  26.786  30.733   6.450
 8050POPC   D2A60688  26.847  30.705   6.750
 8050POPC   C3A60689  26.864  30.727   7.050
 8050POPC   C4A60690  26.778  30.672   7.350
 8050POPC   C1B60691  26.961  30.825   6.450
 8050POPC   C2B60692  26.952  30.868   6.750
 8050POPC   C3B60693  26.973  30.897   7.050
 8050POPC   C4B60694  26.989  30.869   7.350
 8051POPC   NC360695  20.657   6.627   5.550
 8051POPC   PO460696  20.581   6.647   5.850
 8051POPC   GL160697  20.603   6.684   6.150
 8051POPC   GL260698  20.631   6.512   6.150
 8051POPC   C1A60699  20.580   6.663   6.450
 8051POPC   D2A60700  20.598   6.686   6.750
 8051POPC   C3A60701  20.576   6.618   7.050
 8051POPC   C4A60702  20.620   6.692   7.350
 8051POPC   C1B60703  20.669   6.416   6.450
 8051POPC   C2B60704  20.700   6.358   6.750
 8051POPC   C3B60705  20.645   6.420   7.050
 8051POPC   C4B60706  20.650   6.405   7.350
 8052POPC   NC360707  40.012  43.892   5.550
 8052POPC   PO460708  40.047  43.852   5.850
 8052POPC   GL160709  40.056  43.905   6.150
 8052POPC   GL260710  40.114  43.888   6.150
 8052POPC   C1A60711  40.041  43.837   6.450
 8052POPC   D2A60712  40.007  43.846   6.750
 8052POPC   C3A60713  40.055  43.891   7.050
 8052POPC   C4A60714  39.993  43.864   7.350
 8052POPC   C1B60715  40.191  43.772   6.450
 8052POPC   C2B60716  40.220  43.749   6.750
 8052POPC   C3B60717  40.279  43.815   7.050
 8052POPC   C4B60718  40.271  43.776   7.350
 8053POPC   NC360719  34.531  12.851   5.550
 8053POPC   PO460720  34.550  12.846   5.850
 8053POPC   GL160721  34.611  12.852   6.150
 8053POPC   GL260722  34.566  12.734   6.150
 8053POPC   C1A60723  34.576  12.878   6.450
 8053POPC   D2A60724  34.560  12.866   6.750
 8053POPC   C3A60725  34.603  12.861   7.050
 8053POPC   C4A60726  34.539  12.813   7.350
 8053POPC   C1B60727  34.616  12.616   6.450
 8053POPC   C2B60728  34.558  12.616   6.750
 8053POPC   C3B60729  34.593  12.554   7.050
 8053POPC   C4B60730  34.594  12.590   7.350
 8054POPC   NC360731  12.036  24.459   5.550
 8054POPC   PO460732  12.116  24.445   5.850
 8054POPC   GL160733  12.034  24.493   6.150
 8054POPC   GL260734  12.183  24.476   6.150
 8054POPC   C1A60735  12.081  24.523   6.450
 8054POPC   D2A60736  12.036  24.501   6.750
 8054POPC   C3A60737  12.075  24.442   7.050
 8054POPC   C4A60738  12.082  24.522   7.350
 8054POPC   C1B60739  12.278  24.459   6.450
 8054POPC   C2B60740  12.356  24.437   6.750
 8054POPC   C3B60741  12.373  24.495   7.050
 8054POPC   C4B60742  12.305  24.477   7.350
 8055POPC   NC360743  31.478  14.440   5.550
 8055POPC   PO460744  31.457  14.447   5.850
 8055POPC   GL160745  31.448  14.439   6.150
 8055POPC   GL260746  31.600  14.464   6.150
 8055POPC   C1A60747  31.492  14.431   6.450
 8055POPC   D2A60748  31.429  14.450   6.750
 8055POPC   C3A60749  31.425  14.390   7.050
 8055POPC   C4A60750  31.486  14.405   7.350
 8055POPC   C1B60751  31.652  14.471   6.450
 8055POPC   C2B60752  31.710  14.563   6.750
 8055POPC   C3B60753  31.715  14.499   7.050
 8055POPC   C4B60754  31.676  14.544   7.350
 8056POPC   NC360755  39.189  26.070   5.550
 8056POPC   PO460756  39.266  26.030   5.850
 8056POPC   GL160757  39.230  26.053   6.150
 8056POPC   GL260758  39.153  26.036   6.150
 8056POPC   C1A60759  39.220  26.065   6.450
 8056POPC   D2A60760  39.241  26.081   6.750
 8056POPC   C3A60761  39.207  25.999   7.050
 8056POPC   C4A60762  39.242  26.070   7.350
 8056POPC   C1B60763  39.000  25.895   6.450
 8056POPC   C2B60764  39.042  25.969   6.750
 8056POPC   C3B60765  38.969  25.953   7.050
 8056POPC   C4B60766  39.014  25.929   7.350
 8057POPC   NC360767  20.652  28.323   5.550
 8057POPC   PO460768  20.629  28.325   5.850
 8057POPC   GL160769  20.650  28.338   6.150
 8057POPC   GL260770  20.606  28.447   6.150
 8057POPC   C1A60771  20.560  28.358   6.450
 8057POPC   D2A60772  20.650  28.369   6.750
 8057POPC   C3A60773  20.647  28.373   7.050
 8057POPC   C4A60774  20.589  28.413   7.350
 8057POPC   C1B60775  20.604  28.660   6.450
 8057POPC   C2B60776  20.623  28.651   6.750
 8057POPC   C3B60777  20.566  28.608   7.050
 8057POPC   C4B60778  20.609  28.607   7.350
 8058POPC   NC360779   0.433  12.118   5.550
 8058POPC   PO460780   0.463  12.109   5.850
 8058POPC   GL160781   0.391  12.106   6.150
 8058POPC   GL260782   0.520  12.213   6.150
 8058POPC   C1A60783   0.398  12.082   6.450
 8058POPC   D2A60784   0.454  12.116   6.750
 8058POPC   C3A60785   0.484  12.126   7.050
 8058POPC   C4A60786   0.476  12.119   7.350
 8058POPC   C1B60787   0.597  12.266   6.450
 8058POPC   C2B60788   0.630  12.240   6.750
 8058POPC   C3B60789   0.607  12.287   7.050
 8058POPC   C4B60790   0.577  12.284   7.350
 8059POPC   NC360791  17.490  36.115   5.550
 8059POPC   PO460792  17.542  36.168   5.850
 8059POPC   GL160793  17.499  36.092   6.150
 8059POPC   GL260794  17.614  36.196   6.150
 8059POPC   C1A60795  17.510  36.174   6.450
 8059POPC   D2A60796  17.517  36.159   6.750
 8059POPC   C3A60797  17.467  36.141   7.050
 8059POPC   C4A60798  17.542  36.110   7.350
 8059POPC   C1B60799  17.704  36.291   6.450
 8059POPC   C2B60800  17.652  36.309   6.750
 8059POPC   C3B60801  17.656  36.274   7.050
 8059POPC   C4B60802  17.668  36.349   7.350
 8060POPC   NC360803  33.004   3.541   5.550
 8060POPC   PO460804  32.985   3.539   5.850
 8060POPC   GL160805  32.998   3.567   6.150
 8060POPC   GL260806  33.174   3.588   6.150
 8060POPC   C1A60807  32.988   3.503   6.450
 8060POPC   D2A60808  33.021   3.547   6.750
 8060POPC   C3A60809  33.008   3.538   7.050
 8060POPC   C4A60810  33.038   3.574   7.350
 8060POPC   C1B60811  33.229   3.604   6.450
 8060POPC   C2B60812  33.222   3.655   6.750
 8060POPC   C3B60813  33.254   3.621   7.050
 8060POPC   C4B60814  33.299   3.622   7.350
 8061POPC   NC360815  40.033  28.415   5.550
 8061POPC   PO460816  40.021  28.377   5.850
 8061POPC   GL160817  39.962  28.388   6.150
 8061POPC   GL260818  39.881  28.298   6.150
 8061POPC   C1A60819  40.052  28.380   6.450
 8061POPC   D2A60820  40.044  28.386   6.750
 8061POPC   C3A60821  39.982  28.332   7.050
 8061POPC   C4A60822  40.006  28.363   7.350
 8061POPC   C1B60823  39.810  28.216   6.450
 8061POPC   C2B60824  39.749  28.218   6.750
 8061POPC   C3B60825  39.742  28.262   7.050
 8061POPC   C4B60826  39.773  28.219   7.350
 8062POPC   NC360827  25.307  36.137   5.550
 8062POPC   PO460828  25.294  36.164   5.850
 8062POPC   GL160829  25.258  36.155   6.150
 8062POPC   GL260830  25.234  36.002   6.150
 8062POPC   C1A60831  25.299  36.150   6.450
 8062POPC   D2A60832  25.255  36.150   6.750
 8062POPC   C3A60833  25.221  36.112   7.050
 8062POPC   C4A60834  25.224  36.141   7.350
 8062POPC   C1B60835  25.275  35.920   6.450
 8062POPC   C2B60836  25.331  35.907   6.750
 8062POPC   C3B60837  25.273  35.916   7.050
 8062POPC   C4B60838  25.313  35.909   7.350
 8063POPC   NC360839   8.175  22.908   5.550
 8063POPC   PO460840   8.177  22.930   5.850
 8063POPC   GL160841   8.200  22.970   6.150
 8063POPC   GL260842   8.241  23.047   6.150
 8063POPC   C1A60843   8.215  22.981   6.450
 8063POPC   D2A60844   8.212  22.931   6.750
 8063POPC   C3A60845   8.181  22.922   7.050
 8063POPC   C4A60846   8.224  22.901   7.350
 8063POPC   C1B60847   8.301  23.175   6.450
 8063POPC   C2B60848   8.286  23.136   6.750
 8063POPC   C3B60849   8.363  23.160   7.050
 8063POPC   C4B60850   8.288  23.181   7.350
 8064POPC   NC360851  11.260  19.836   5.550
 8064POPC   PO460852  11.327  19.862   5.850
 8064POPC   GL160853  11.315  19.872   6.150
 8064POPC   GL260854  11.186  19.715   6.150
 8064POPC   C1A60855  11.321  19.803   6.450
 8064POPC   D2A60856  11.346  19.843   6.750
 8064POPC   C3A60857  11.303  19.854   7.050
 8064POPC   C4A60858  11.252  19.864   7.350
 8064POPC   C1B60859  11.104  19.696   6.450
 8064POPC   C2B60860  11.148  19.649   6.750
 8064POPC   C3B60861  11.172  19.635   7.050
 8064POPC   C4B60862  11.148  19.636   7.350
 8065POPC   NC360863  25.240   5.057   5.550
 8065POPC   PO460864  25.257   5.046   5.850
 8065POPC   GL160865  25.280   5.097   6.150
 8065POPC   GL260866  25.338   5.180   6.150
 8065POPC   C1A60867  25.292   5.091   6.450
 8065POPC   D2A60868  25.293   5.047   6.750
 8065POPC   C3A60869  25.246   5.050   7.050
 8065POPC   C4A60870  25.248   5.142   7.350
 8065POPC   C1B60871  25.373   5.331   6.450
 8065POPC   C2B60872  25.467   5.304   6.750
 8065POPC   C3B60873  25.422   5.300   7.050
 8065POPC   C4B60874  25.388   5.324   7.350
 8066POPC   NC360875  42.358  37.699   5.550
 8066POPC   PO460876  42.381  37.708   5.850
 8066POPC   GL160877  42.335  37.665   6.150
 8066POPC   GL260878  42.426  37.774   6.150
 8066POPC   C1A60879  42.364  37.696   6.450
 8066POPC   D2A60880  42.352  37.654   6.750
 8066POPC   C3A60881  42.384  37.691   7.050
 8066POPC   C4A60882  42.301  37.634   7.350
 8066POPC   C1B60883  42.446  37.942   6.450
 8066POPC   C2B60884  42.470  37.873   6.750
 8066POPC   C3B60885  42.435  37.881   7.050
 8066POPC   C4B60886  42.433  37.916   7.350
 8067POPC   NC360887  12.073  31.519   5.550
 8067POPC   PO460888  12.034  31.440   5.850
 8067POPC   GL160889  12.115  31.485   6.150
 8067POPC   GL260890  12.005  31.593   6.150
 8067POPC   C1A60891  12.078  31.479   6.450
 8067POPC   D2A60892  12.073  31.493   6.750
 8067POPC   C3A60893  12.074  31.515   7.050
 8067POPC   C4A60894  12.056  31.470   7.350
 8067POPC   C1B60895  11.958  31.677   6.450
 8067POPC   C2B60896  12.016  31.740   6.750
 8067POPC   C3B60897  11.992  31.696   7.050
 8067POPC   C4B60898  11.953  31.678   7.350
 8068POPC   NC360899  36.927  11.298   5.550
 8068POPC   PO460900  36.863  11.337   5.850
 8068POPC   GL160901  36.861  11.347   6.150
 8068POPC   GL260902  36.978  11.459   6.150
 8068POPC   C1A60903  36.892  11.251   6.450
 8068POPC   D2A60904  36.931  11.275   6.750
 8068POPC   C3A60905  36.889  11.338   7.050
 8068POPC   C4A60906  36.935  11.323   7.350
 8068POPC   C1B60907  37.013  11.531   6.450
 8068POPC   C2B60908  36.959  11.571   6.750
 8068POPC   C3B60909  36.965  11.568   7.050
 8068POPC   C4B60910  36.990  11.535   7.350
 8069POPC   NC360911  19.789  40.747   5.550
 8069POPC   PO460912  19.825  40.810   5.850
 8069POPC   GL160913  19.791  40.739   6.150
 8069POPC   GL260914  19.789  40.844   6.150
 8069POPC   C1A60915  19.817  40.776   6.450
 8069POPC   D2A60916  19.804  40.748   6.750
 8069POPC   C3A60917  19.866  40.757   7.050
 8069POPC   C4A60918  19.835  40.826   7.350
 8069POPC   C1B60919  19.693  40.944   6.450
 8069POPC   C2B60920  19.728  40.942   6.750
 8069POPC   C3B60921  19.722  40.962   7.050
 8069POPC   C4B60922  19.632  40.962   7.350
 8070POPC   NC360923  24.524  22.949   5.550
 8070POPC   PO460924  24.532  22.945   5.850
 8070POPC   GL160925  24.502  22.965   6.150
 8070POPC   GL260926  24.421  22.929   6.150
 8070POPC   C1A60927  24.508  22.896   6.450
 8070POPC   D2A60928  24.441  22.896   6.750
 8070POPC   C3A60929  24.454  22.980   7.050
 8070POPC   C4A60930  24.538  22.965   7.350
 8070POPC   C1B60931  24.223  22.821   6.450
 8070POPC   C2B60932  24.266  22.791   6.750
 8070POPC   C3B60933  24.279  22.880   7.050
 8070POPC   C4B60934  24.250  22.801   7.350
 8071POPC   NC360935  11.299  37.712   5.550
 8071POPC   PO460936  11.307  37.656   5.850
 8071POPC   GL160937  11.273  37.717   6.150
 8071POPC   GL260938  11.416  37.735   6.150
 8071POPC   C1A60939  11.304  37.655   6.450
 8071POPC   D2A60940  11.273  37.639   6.750
 8071POPC   C3A60941  11.253  37.717   7.050
 8071POPC   C4A60942  11.269  37.659   7.350
 8071POPC   C1B60943  11.489  37.771   6.450
 8071POPC   C2B60944  11.507  37.780   6.750
 8071POPC   C3B60945  11.495  37.803   7.050
 8071POPC   C4B60946  11.577  37.727   7.350
 8072POPC   NC360947  40.019  26.000   5.550
 8072POPC   PO460948  39.968  26.020   5.850
 8072POPC   GL160949  40.031  26.048   6.150
 8072POPC   GL260950  39.984  26.114   6.150
 8072POPC   C1A60951  40.033  26.011   6.450
 8072POPC   D2A60952  40.027  26.054   6.750
 8072POPC   C3A60953  39.966  26.086   7.050
 8072POPC   C4A60954  39.990  26.079   7.350
 8072POPC   C1B60955  39.866  26.294   6.450
 8072POPC   C2B60956  39.939  26.230   6.750
 8072POPC   C3B60957  39.879  26.232   7.050
 8072POPC   C4B60958  39.858  26.301   7.350
 8073POPC   NC360959  17.513  30.745   5.550
 8073POPC   PO460960  17.493  30.720   5.850
 8073POPC   GL160961  17.527  30.672   6.150
 8073POPC   GL260962  17.353  30.691   6.150
 8073POPC   C1A60963  17.536  30.729   6.450
 8073POPC   D2A60964  17.551  30.743   6.750
 8073POPC   C3A60965  17.481  30.666   7.050
 8073POPC   C4A60966  17.548  30.682   7.350
 8073POPC   C1B60967  17.242  30.602   6.450
 8073POPC   C2B60968  17.295  30.608   6.750
 8073POPC   C3B60969  17.259  30.623   7.050
 8073POPC   C4B60970  17.308  30.625   7.350
 8074POPC   NC360971   8.998   8.169   5.550
 8074POPC   PO460972   8.944   8.164   5.850
 8074POPC   GL160973   9.003   8.202   6.150
 8074POPC   GL260974   9.090   8.246   6.150
 8074POPC   C1A60975   8.954   8.208   6.450
 8074POPC   D2A60976   8.946   8.240   6.750
 8074POPC   C3A60977   9.005   8.185   7.050
 8074POPC   C4A60978   8.924   8.174   7.350
 8074POPC   C1B60979   9.215   8.250   6.450
 8074POPC   C2B60980   9.258   8.277   6.750
 8074POPC   C3B60981   9.225   8.238   7.050
 8074POPC   C4B60982   9.261   8.246   7.350
 8075POPC   NC360983  38.484  10.519   5.550
 8075POPC   PO460984  38.437  10.513   5.850
 8075POPC   GL160985  38.459  10.550   6.150
 8075POPC   GL260986  38.550  10.558   6.150
 8075POPC   C1A60987  38.411  10.494   6.450
 8075POPC   D2A60988  38.408  10.480   6.750
 8075POPC   C3A60989  38.436  10.509   7.050
 8075POPC   C4A60990  38.420  10.488   7.350
 8075POPC   C1B60991  38.696  10.581   6.450
 8075POPC   C2B60992  38.687  10.652   6.750
 8075POPC   C3B60993  38.692  10.667   7.050
 8075POPC   C4B60994  38.732  10.594   7.350
 8076POPC   NC360995  37.704  16.748   5.550
 8076POPC   PO460996  37.660  16.712   5.850
 8076POPC   GL160997  37.630  16.692   6.150
 8076POPC   GL260998  37.540  16.751   6.150
 8076POPC   C1A60999  37.664  16.774   6.450
 8076POPC   D2A61000  37.703  16.698   6.750
 8076POPC   C3A61001  37.651  16.683   7.050
 8076POPC   C4A61002  37.668  16.699   7.350
 8076POPC   C1B61003  37.408  16.822   6.450
 8076POPC   C2B61004  37.493  16.841   6.750
 8076POPC   C3B61005  37.483  16.832   7.050
 8076POPC   C4B61006  37.408  16.797   7.350
 8077POPC   NC361007  12.122  22.165   5.550
 8077POPC   PO461008  12.075  22.207   5.850
 8077POPC   GL161009  12.053  22.133   6.150
 8077POPC   GL261010  11.938  22.138   6.150
 8077POPC   C1A61011  12.057  22.147   6.450
 8077POPC   D2A61012  12.078  22.145   6.750
 8077POPC   C3A61013  12.029  22.125   7.050
 8077POPC   C4A61014  12.074  22.211   7.350
 8077POPC   C1B61015  11.808  22.085   6.450
 8077POPC   C2B61016  11.857  22.130   6.750
 8077POPC   C3B61017  11.832  22.070   7.050
 8077POPC   C4B61018  11.805  22.070   7.350
 8078POPC   NC361019  29.100   5.107   5.550
 8078POPC   PO461020  29.188   5.051   5.850
 8078POPC   GL161021  29.181   5.070   6.150
 8078POPC   GL261022  29.139   4.963   6.150
 8078POPC   C1A61023  29.132   5.090   6.450
 8078POPC   D2A61024  29.116   5.109   6.750
 8078POPC   C3A61025  29.139   5.048   7.050
 8078POPC   C4A61026  29.178   5.058   7.350
 8078POPC   C1B61027  29.163   4.844   6.450
 8078POPC   C2B61028  29.163   4.800   6.750
 8078POPC   C3B61029  29.157   4.824   7.050
 8078POPC   C4B61030  29.154   4.813   7.350
 8079POPC   NC361031  18.284  15.219   5.550
 8079POPC   PO461032  18.267  15.143   5.850
 8079POPC   GL161033  18.242  15.216   6.150
 8079POPC   GL261034  18.288  15.066   6.150
 8079POPC   C1A61035  18.308  15.228   6.450
 8079POPC   D2A61036  18.278  15.205   6.750
 8079POPC   C3A61037  18.253  15.195   7.050
 8079POPC   C4A61038  18.234  15.137   7.350
 8079POPC   C1B61039  18.359  14.885   6.450
 8079POPC   C2B61040  18.357  14.944   6.750
 8079POPC   C3B61041  18.337  14.936   7.050
 8079POPC   C4B61042  18.298  14.932   7.350
 8080POPC   NC361043   8.148  43.092   5.550
 8080POPC   PO461044   8.215  43.078   5.850
 8080POPC   GL161045   8.219  43.110   6.150
 8080POPC   GL261046   8.249  43.007   6.150
 8080POPC   C1A61047   8.220  43.073   6.450
 8080POPC   D2A61048   8.240  43.120   6.750
 8080POPC   C3A61049   8.159  43.143   7.050
 8080POPC   C4A61050   8.206  43.158   7.350
 8080POPC   C1B61051   8.334  42.864   6.450
 8080POPC   C2B61052   8.310  42.866   6.750
 8080POPC   C3B61053   8.317  42.876   7.050
 8080POPC   C4B61054   8.326  42.904   7.350
 8081POPC   NC361055  37.675  35.353   5.550
 8081POPC   PO461056  37.652  35.365   5.850
 8081POPC   GL161057  37.724  35.352   6.150
 8081POPC   GL261058  37.564  35.275   6.150
 8081POPC   C1A61059  37.643  35.315   6.450
 8081POPC   D2A61060  37.639  35.346   6.750
 8081POPC   C3A61061  37.634  35.329   7.050
 8081POPC   C4A61062  37.703  35.321   7.350
 8081POPC   C1B61063  37.468  35.260   6.450
 8081POPC   C2B61064  37.408  35.269   6.750
 8081POPC   C3B61065  37.434  35.325   7.050
 8081POPC   C4B61066  37.440  35.263   7.350
 8082POPC   NC361067  12.094   6.657   5.550
 8082POPC   PO461068  12.043   6.641   5.850
 8082POPC   GL161069  12.122   6.636   6.150
 8082POPC   GL261070  12.223   6.682   6.150
 8082POPC   C1A61071  12.037   6.656   6.450
 8082POPC   D2A61072  12.033   6.694   6.750
 8082POPC   C3A61073  12.061   6.670   7.050
 8082POPC   C4A61074  12.082   6.658   7.350
 8082POPC   C1B61075  12.293   6.693   6.450
 8082POPC   C2B61076  12.289   6.696   6.750
 8082POPC   C3B61077  12.330   6.711   7.050
 8082POPC   C4B61078  12.304   6.710   7.350
 8083POPC   NC361079  41.525  40.021   5.550
 8083POPC   PO461080  41.604  40.048   5.850
 8083POPC   GL161081  41.518  40.030   6.150
 8083POPC   GL261082  41.632  40.027   6.150
 8083POPC   C1A61083  41.557  39.957   6.450
 8083POPC   D2A61084  41.564  40.029   6.750
 8083POPC   C3A61085  41.535  40.051   7.050
 8083POPC   C4A61086  41.509  39.967   7.350
 8083POPC   C1B61087  41.815  40.109   6.450
 8083POPC   C2B61088  41.824  40.077   6.750
 8083POPC   C3B61089  41.809  40.047   7.050
 8083POPC   C4B61090  41.796  40.088   7.350
 8084POPC   NC361091  34.535   9.795   5.550
 8084POPC   PO461092  34.549   9.741   5.850
 8084POPC   GL161093  34.614   9.767   6.150
 8084POPC   GL261094  34.581   9.610   6.150
 8084POPC   C1A61095  34.610   9.749   6.450
 8084POPC   D2A61096  34.588   9.769   6.750
 8084POPC   C3A61097  34.567   9.709   7.050
 8084POPC   C4A61098  34.577   9.737   7.350
 8084POPC   C1B61099  34.592   9.537   6.450
 8084POPC   C2B61100  34.624   9.529   6.750
 8084POPC   C3B61101  34.636   9.461   7.050
 8084POPC   C4B61102  34.593   9.475   7.350
 8085POPC   NC361103  36.876  22.121   5.550
 8085POPC   PO461104  36.894  22.129   5.850
 8085POPC   GL161105  36.876  22.122   6.150
 8085POPC   GL261106  37.062  22.141   6.150
 8085POPC   C1A61107  36.893  22.154   6.450
 8085POPC   D2A61108  36.916  22.199   6.750
 8085POPC   C3A61109  36.953  22.166   7.050
 8085POPC   C4A61110  36.905  22.177   7.350
 8085POPC   C1B61111  37.150  22.151   6.450
 8085POPC   C2B61112  37.149  22.211   6.750
 8085POPC   C3B61113  37.199  22.156   7.050
 8085POPC   C4B61114  37.120  22.210   7.350
 8086POPC   NC361115  17.533  16.757   5.550
 8086POPC   PO461116  17.501  16.775   5.850
 8086POPC   GL161117  17.466  16.759   6.150
 8086POPC   GL261118  17.575  16.838   6.150
 8086POPC   C1A61119  17.467  16.719   6.450
 8086POPC   D2A61120  17.516  16.762   6.750
 8086POPC   C3A61121  17.509  16.719   7.050
 8086POPC   C4A61122  17.552  16.738   7.350
 8086POPC   C1B61123  17.617  16.958   6.450
 8086POPC   C2B61124  17.628  17.003   6.750
 8086POPC   C3B61125  17.629  16.916   7.050
 8086POPC   C4B61126  17.593  16.958   7.350
 8087POPC   NC361127  12.838   2.776   5.550
 8087POPC   PO461128  12.874   2.725   5.850
 8087POPC   GL161129  12.829   2.759   6.150
 8087POPC   GL261130  13.002   2.758   6.150
 8087POPC   C1A61131  12.882   2.717   6.450
 8087POPC   D2A61132  12.867   2.720   6.750
 8087POPC   C3A61133  12.809   2.742   7.050
 8087POPC   C4A61134  12.833   2.735   7.350
 8087POPC   C1B61135  13.117   2.631   6.450
 8087POPC   C2B61136  13.121   2.643   6.750
 8087POPC   C3B61137  13.108   2.612   7.050
 8087POPC   C4B61138  13.066   2.610   7.350
 8088POPC   NC361139  25.290  25.236   5.550
 8088POPC   PO461140  25.286  25.300   5.850
 8088POPC   GL161141  25.241  25.310   6.150
 8088POPC   GL261142  25.178  25.135   6.150
 8088POPC   C1A61143  25.264  25.252   6.450
 8088POPC   D2A61144  25.226  25.272   6.750
 8088POPC   C3A61145  25.243  25.263   7.050
 8088POPC   C4A61146  25.240  25.233   7.350
 8088POPC   C1B61147  25.084  25.059   6.450
 8088POPC   C2B61148  25.076  25.072   6.750
 8088POPC   C3B61149  25.112  25.087   7.050
 8088POPC   C4B61150  25.103  25.071   7.350
 8089POPC   NC361151  16.001   5.872   5.550
 8089POPC   PO461152  15.992   5.882   5.850
 8089POPC   GL161153  15.988   5.872   6.150
 8089POPC   GL261154  15.922   5.713   6.150
 8089POPC   C1A61155  15.958   5.844   6.450
 8089POPC   D2A61156  15.937   5.839   6.750
 8089POPC   C3A61157  15.929   5.883   7.050
 8089POPC   C4A61158  15.962   5.880   7.350
 8089POPC   C1B61159  15.961   5.639   6.450
 8089POPC   C2B61160  15.989   5.585   6.750
 8089POPC   C3B61161  16.002   5.598   7.050
 8089POPC   C4B61162  15.995   5.589   7.350
 8090POPC   NC361163  40.800  12.061   5.550
 8090POPC   PO461164  40.785  12.113   5.850
 8090POPC   GL161165  40.803  12.050   6.150
 8090POPC   GL261166  40.674  11.973   6.150
 8090POPC   C1A61167  40.805  12.099   6.450
 8090POPC   D2A61168  40.797  12.108   6.750
 8090POPC   C3A61169  40.825  12.099   7.050
 8090POPC   C4A61170  40.766  12.105   7.350
 8090POPC   C1B61171  40.678  11.821   6.450
 8090POPC   C2B61172  40.614  11.838   6.750
 8090POPC   C3B61173  40.632  11.883   7.050
 8090POPC   C4B61174  40.646  11.841   7.350
 8091POPC   NC361175  38.469  29.883   5.550
 8091POPC   PO461176  38.421  29.965   5.850
 8091POPC   GL161177  38.465  29.916   6.150
 8091POPC   GL261178  38.534  30.023   6.150
 8091POPC   C1A61179  38.451  29.928   6.450
 8091POPC   D2A61180  38.461  29.924   6.750
 8091POPC   C3A61181  38.443  29.883   7.050
 8091POPC   C4A61182  38.421  29.914   7.350
 8091POPC   C1B61183  38.700  29.992   6.450
 8091POPC   C2B61184  38.721  30.053   6.750
 8091POPC   C3B61185  38.719  30.027   7.050
 8091POPC   C4B61186  38.641  30.073   7.350
 8092POPC   NC361187   1.207  24.440   5.550
 8092POPC   PO461188   1.186  24.528   5.850
 8092POPC   GL161189   1.213  24.533   6.150
 8092POPC   GL261190   1.304  24.472   6.150
 8092POPC   C1A61191   1.199  24.518   6.450
 8092POPC   D2A61192   1.209  24.443   6.750
 8092POPC   C3A61193   1.207  24.472   7.050
 8092POPC   C4A61194   1.205  24.501   7.350
 8092POPC   C1B61195   1.398  24.378   6.450
 8092POPC   C2B61196   1.464  24.329   6.750
 8092POPC   C3B61197   1.398  24.342   7.050
 8092POPC   C4B61198   1.458  24.361   7.350
 8093POPC   NC361199  44.683  22.972   5.550
 8093POPC   PO461200  44.620  22.959   5.850
 8093POPC   GL161201  44.675  22.982   6.150
 8093POPC   GL261202  44.574  22.946   6.150
 8093POPC   C1A61203  44.688  22.973   6.450
 8093POPC   D2A61204  44.681  22.958   6.750
 8093POPC   C3A61205  44.662  22.890   7.050
 8093POPC   C4A61206  44.658  22.902   7.350
 8093POPC   C1B61207  44.450  22.972   6.450
 8093POPC   C2B61208  44.406  22.971   6.750
 8093POPC   C3B61209  44.419  22.977   7.050
 8093POPC   C4B61210  44.430  22.891   7.350
 8094POPC   NC361211  29.959  11.300   5.550
 8094POPC   PO461212  29.945  11.335   5.850
 8094POPC   GL161213  29.962  11.312   6.150
 8094POPC   GL261214  29.913  11.155   6.150
 8094POPC   C1A61215  29.905  11.323   6.450
 8094POPC   D2A61216  29.890  11.304   6.750
 8094POPC   C3A61217  29.903  11.311   7.050
 8094POPC   C4A61218  29.962  11.292   7.350
 8094POPC   C1B61219  29.883  11.062   6.450
 8094POPC   C2B61220  29.871  11.060   6.750
 8094POPC   C3B61221  29.790  11.022   7.050
 8094POPC   C4B61222  29.814  11.028   7.350
 8095POPC   NC361223   5.854  44.685   5.550
 8095POPC   PO461224   5.867  44.617   5.850
 8095POPC   GL161225   5.893  44.632   6.150
 8095POPC   GL261226   5.805  44.515   6.150
 8095POPC   C1A61227   5.866  44.699   6.450
 8095POPC   D2A61228   5.852  44.641   6.750
 8095POPC   C3A61229   5.862  44.634   7.050
 8095POPC   C4A61230   5.907  44.622   7.350
 8095POPC   C1B61231   5.789  44.411   6.450
 8095POPC   C2B61232   5.817  44.426   6.750
 8095POPC   C3B61233   5.838  44.399   7.050
 8095POPC   C4B61234   5.844  44.375   7.350
 8096POPC   NC361235  22.186  36.162   5.550
 8096POPC   PO461236  22.200  36.123   5.850
 8096POPC   GL161237  22.125  36.080   6.150
 8096POPC   GL261238  22.138  35.986   6.150
 8096POPC   C1A61239  22.201  36.127   6.450
 8096POPC   D2A61240  22.146  36.114   6.750
 8096POPC   C3A61241  22.178  36.123   7.050
 8096POPC   C4A61242  22.137  36.160   7.350
 8096POPC   C1B61243  22.162  35.883   6.450
 8096POPC   C2B61244  22.108  35.872   6.750
 8096POPC   C3B61245  22.112  35.830   7.050
 8096POPC   C4B61246  22.119  35.857   7.350
 8097POPC   NC361247  20.593  14.382   5.550
 8097POPC   PO461248  20.614  14.362   5.850
 8097POPC   GL161249  20.658  14.447   6.150
 8097POPC   GL261250  20.493  14.371   6.150
 8097POPC   C1A61251  20.573  14.369   6.450
 8097POPC   D2A61252  20.615  14.374   6.750
 8097POPC   C3A61253  20.571  14.432   7.050
 8097POPC   C4A61254  20.580  14.444   7.350
 8097POPC   C1B61255  20.453  14.252   6.450
 8097POPC   C2B61256  20.381  14.291   6.750
 8097POPC   C3B61257  20.436  14.251   7.050
 8097POPC   C4B61258  20.423  14.286   7.350
 8098POPC   NC361259  27.624   2.021   5.550
 8098POPC   PO461260  27.633   1.962   5.850
 8098POPC   GL161261  27.580   1.976   6.150
 8098POPC   GL261262  27.551   1.876   6.150
 8098POPC   C1A61263  27.632   1.948   6.450
 8098POPC   D2A61264  27.577   1.983   6.750
 8098POPC   C3A61265  27.605   1.972   7.050
 8098POPC   C4A61266  27.615   2.016   7.350
 8098POPC   C1B61267  27.389   1.822   6.450
 8098POPC   C2B61268  27.446   1.799   6.750
 8098POPC   C3B61269  27.410   1.772   7.050
 8098POPC   C4B61270  27.428   1.859   7.350
 8099POPC   NC361271   8.185  41.568   5.550
 8099POPC   PO461272   8.197  41.579   5.850
 8099POPC   GL161273   8.225  41.578   6.150
 8099POPC   GL261274   8.093  41.485   6.150
 8099POPC   C1A61275   8.207  41.565   6.450
 8099POPC   D2A61276   8.238  41.593   6.750
 8099POPC   C3A61277   8.155  41.521   7.050
 8099POPC   C4A61278   8.179  41.583   7.350
 8099POPC   C1B61279   7.983  41.367   6.450
 8099POPC   C2B61280   7.965  41.442   6.750
 8099POPC   C3B61281   7.972  41.409   7.050
 8099POPC   C4B61282   7.968  41.417   7.350
 8100POPC   NC361283  34.578   8.946   5.550
 8100POPC   PO461284  34.538   8.983   5.850
 8100POPC   GL161285  34.607   8.976   6.150
 8100POPC   GL261286  34.488   8.883   6.150
 8100POPC   C1A61287  34.610   8.941   6.450
 8100POPC   D2A61288  34.559   8.942   6.750
 8100POPC   C3A61289  34.618   8.929   7.050
 8100POPC   C4A61290  34.532   8.999   7.350
 8100POPC   C1B61291  34.468   8.686   6.450
 8100POPC   C2B61292  34.472   8.757   6.750
 8100POPC   C3B61293  34.468   8.773   7.050
 8100POPC   C4B61294  34.549   8.697   7.350
 8101POPC   NC361295  40.780  17.532   5.550
 8101POPC   PO461296  40.794  17.488   5.850
 8101POPC   GL161297  40.733  17.540   6.150
 8101POPC   GL261298  40.756  17.355   6.150
 8101POPC   C1A61299  40.783  17.533   6.450
 8101POPC   D2A61300  40.832  17.529   6.750
 8101POPC   C3A61301  40.815  17.493   7.050
 8101POPC   C4A61302  40.800  17.542   7.350
 8101POPC   C1B61303  40.793  17.228   6.450
 8101POPC   C2B61304  40.841  17.216   6.750
 8101POPC   C3B61305  40.806  17.299   7.050
 8101POPC   C4B61306  40.806  17.287   7.350
 8102POPC   NC361307  19.031  38.457   5.550
 8102POPC   PO461308  19.102  38.430   5.850
 8102POPC   GL161309  19.084  38.452   6.150
 8102POPC   GL261310  18.926  38.375   6.150
 8102POPC   C1A61311  19.043  38.463   6.450
 8102POPC   D2A61312  19.033  38.435   6.750
 8102POPC   C3A61313  19.032  38.459   7.050
 8102POPC   C4A61314  19.086  38.471   7.350
 8102POPC   C1B61315  18.785  38.399   6.450
 8102POPC   C2B61316  18.843  38.376   6.750
 8102POPC   C3B61317  18.848  38.365   7.050
 8102POPC   C4B61318  18.861  38.390   7.350
 8103POPC   NC361319  11.298   5.900   5.550
 8103POPC   PO461320  11.345   5.841   5.850
 8103POPC   GL161321  11.269   5.823   6.150
 8103POPC   GL261322  11.157   5.930   6.150
 8103POPC   C1A61323  11.308   5.873   6.450
 8103POPC   D2A61324  11.305   5.868   6.750
 8103POPC   C3A61325  11.277   5.876   7.050
 8103POPC   C4A61326  11.286   5.907   7.350
 8103POPC   C1B61327  11.025   5.916   6.450
 8103POPC   C2B61328  11.102   5.953   6.750
 8103POPC   C3B61329  11.075   5.939   7.050
 8103POPC   C4B61330  11.023   5.905   7.350
 8104POPC   NC361331   4.286  31.519   5.550
 8104POPC   PO461332   4.289  31.477   5.850
 8104POPC   GL161333   4.330  31.505   6.150
 8104POPC   GL261334   4.179  31.521   6.150
 8104POPC   C1A61335   4.307  31.468   6.450
 8104POPC   D2A61336   4.357  31.462   6.750
 8104POPC   C3A61337   4.286  31.458   7.050
 8104POPC   C4A61338   4.325  31.494   7.350
 8104POPC   C1B61339   4.057  31.521   6.450
 8104POPC   C2B61340   4.042  31.530   6.750
 8104POPC   C3B61341   4.065  31.521   7.050
 8104POPC   C4B61342   4.068  31.503   7.350
 8105POPC   NC361343  10.506  14.389   5.550
 8105POPC   PO461344  10.512  14.362   5.850
 8105POPC   GL161345  10.490  14.449   6.150
 8105POPC   GL261346  10.613  14.556   6.150
 8105POPC   C1A61347  10.482  14.391   6.450
 8105POPC   D2A61348  10.513  14.432   6.750
 8105POPC   C3A61349  10.512  14.409   7.050
 8105POPC   C4A61350  10.517  14.374   7.350
 8105POPC   C1B61351  10.641  14.639   6.450
 8105POPC   C2B61352  10.614  14.678   6.750
 8105POPC   C3B61353  10.576  14.656   7.050
 8105POPC   C4B61354  10.570  14.680   7.350
 8106POPC   NC361355   1.257  20.587   5.550
 8106POPC   PO461356   1.246  20.561   5.850
 8106POPC   GL161357   1.253  20.583   6.150
 8106POPC   GL261358   1.134  20.692   6.150
 8106POPC   C1A61359   1.227  20.593   6.450
 8106POPC   D2A61360   1.206  20.647   6.750
 8106POPC   C3A61361   1.217  20.580   7.050
 8106POPC   C4A61362   1.178  20.609   7.350
 8106POPC   C1B61363   1.120  20.838   6.450
 8106POPC   C2B61364   1.119  20.848   6.750
 8106POPC   C3B61365   1.089  20.869   7.050
 8106POPC   C4B61366   1.144  20.795   7.350
 8107POPC   NC361367  29.144  20.650   5.550
 8107POPC   PO461368  29.140  20.659   5.850
 8107POPC   GL161369  29.167  20.605   6.150
 8107POPC   GL261370  29.249  20.546   6.150
 8107POPC   C1A61371  29.104  20.597   6.450
 8107POPC   D2A61372  29.155  20.617   6.750
 8107POPC   C3A61373  29.180  20.645   7.050
 8107POPC   C4A61374  29.141  20.598   7.350
 8107POPC   C1B61375  29.363  20.427   6.450
 8107POPC   C2B61376  29.282  20.442   6.750
 8107POPC   C3B61377  29.333  20.388   7.050
 8107POPC   C4B61378  29.289  20.388   7.350
 8108POPC   NC361379  38.410   1.191   5.550
 8108POPC   PO461380  38.476   1.233   5.850
 8108POPC   GL161381  38.483   1.244   6.150
 8108POPC   GL261382  38.497   1.086   6.150
 8108POPC   C1A61383  38.436   1.248   6.450
 8108POPC   D2A61384  38.441   1.255   6.750
 8108POPC   C3A61385  38.412   1.235   7.050
 8108POPC   C4A61386  38.415   1.204   7.350
 8108POPC   C1B61387  38.530   0.925   6.450
 8108POPC   C2B61388  38.463   1.011   6.750
 8108POPC   C3B61389  38.464   0.922   7.050
 8108POPC   C4B61390  38.510   0.942   7.350
 8109POPC   NC361391   9.725  38.465   5.550
 8109POPC   PO461392   9.749  38.462   5.850
 8109POPC   GL161393   9.766  38.477   6.150
 8109POPC   GL261394   9.703  38.343   6.150
 8109POPC   C1A61395   9.722  38.431   6.450
 8109POPC   D2A61396   9.726  38.419   6.750
 8109POPC   C3A61397   9.739  38.436   7.050
 8109POPC   C4A61398   9.701  38.409   7.350
 8109POPC   C1B61399   9.564  38.225   6.450
 8109POPC   C2B61400   9.587  38.221   6.750
 8109POPC   C3B61401   9.605  38.237   7.050
 8109POPC   C4B61402   9.538  38.299   7.350
 8110POPC   NC361403  39.195  36.150   5.550
 8110POPC   PO461404  39.186  36.113   5.850
 8110POPC   GL161405  39.236  36.140   6.150
 8110POPC   GL261406  39.245  36.024   6.150
 8110POPC   C1A61407  39.225  36.154   6.450
 8110POPC   D2A61408  39.235  36.154   6.750
 8110POPC   C3A61409  39.274  36.109   7.050
 8110POPC   C4A61410  39.210  36.142   7.350
 8110POPC   C1B61411  39.168  35.867   6.450
 8110POPC   C2B61412  39.137  35.892   6.750
 8110POPC   C3B61413  39.131  35.868   7.050
 8110POPC   C4B61414  39.163  35.891   7.350
 8111POPC   NC361415  13.581  15.993   5.550
 8111POPC   PO461416  13.636  15.951   5.850
 8111POPC   GL161417  13.650  15.935   6.150
 8111POPC   GL261418  13.511  16.067   6.150
 8111POPC   C1A61419  13.591  15.990   6.450
 8111POPC   D2A61420  13.630  15.917   6.750
 8111POPC   C3A61421  13.597  15.934   7.050
 8111POPC   C4A61422  13.632  15.963   7.350
 8111POPC   C1B61423  13.481  16.101   6.450
 8111POPC   C2B61424  13.457  16.189   6.750
 8111POPC   C3B61425  13.422  16.104   7.050
 8111POPC   C4B61426  13.435  16.103   7.350
 8112POPC   NC361427  36.120  29.931   5.550
 8112POPC   PO461428  36.157  29.914   5.850
 8112POPC   GL161429  36.157  29.949   6.150
 8112POPC   GL261430  36.078  30.064   6.150
 8112POPC   C1A61431  36.107  29.921   6.450
 8112POPC   D2A61432  36.094  29.880   6.750
 8112POPC   C3A61433  36.140  29.897   7.050
 8112POPC   C4A61434  36.120  29.925   7.350
 8112POPC   C1B61435  36.019  30.144   6.450
 8112POPC   C2B61436  36.075  30.159   6.750
 8112POPC   C3B61437  36.018  30.111   7.050
 8112POPC   C4B61438  36.024  30.157   7.350
 8113POPC   NC361439  35.381  15.934   5.550
 8113POPC   PO461440  35.350  15.906   5.850
 8113POPC   GL161441  35.327  15.939   6.150
 8113POPC   GL261442  35.336  16.065   6.150
 8113POPC   C1A61443  35.328  15.930   6.450
 8113POPC   D2A61444  35.315  16.002   6.750
 8113POPC   C3A61445  35.328  15.917   7.050
 8113POPC   C4A61446  35.377  15.923   7.350
 8113POPC   C1B61447  35.308  16.236   6.450
 8113POPC   C2B61448  35.243  16.182   6.750
 8113POPC   C3B61449  35.250  16.235   7.050
 8113POPC   C4B61450  35.244  16.147   7.350
 8114POPC   NC361451   0.469  22.963   5.550
 8114POPC   PO461452   0.398  22.963   5.850
 8114POPC   GL161453   0.451  22.929   6.150
 8114POPC   GL261454   0.416  22.799   6.150
 8114POPC   C1A61455   0.480  22.912   6.450
 8114POPC   D2A61456   0.482  22.917   6.750
 8114POPC   C3A61457   0.448  22.978   7.050
 8114POPC   C4A61458   0.409  22.928   7.350
 8114POPC   C1B61459   0.419  22.698   6.450
 8114POPC   C2B61460   0.424  22.649   6.750
 8114POPC   C3B61461   0.392  22.697   7.050
 8114POPC   C4B61462   0.399  22.705   7.350
 8115POPC   NC361463  39.248  24.471   5.550
 8115POPC   PO461464  39.212  24.496   5.850
 8115POPC   GL161465  39.275  24.477   6.150
 8115POPC   GL261466  39.364  24.392   6.150
 8115POPC   C1A61467  39.240  24.490   6.450
 8115POPC   D2A61468  39.252  24.446   6.750
 8115POPC   C3A61469  39.251  24.510   7.050
 8115POPC   C4A61470  39.252  24.473   7.350
 8115POPC   C1B61471  39.416  24.338   6.450
 8115POPC   C2B61472  39.407  24.327   6.750
 8115POPC   C3B61473  39.374  24.282   7.050
 8115POPC   C4B61474  39.362  24.355   7.350
 8116POPC   NC361475  30.682   5.078   5.550
 8116POPC   PO461476  30.686   5.069   5.850
 8116POPC   GL161477  30.745   5.113   6.150
 8116POPC   GL261478  30.831   5.200   6.150
 8116POPC   C1A61479  30.678   5.096   6.450
 8116POPC   D2A61480  30.702   5.095   6.750
 8116POPC   C3A61481  30.675   5.070   7.050
 8116POPC   C4A61482  30.745   5.077   7.350
 8116POPC   C1B61483  30.929   5.252   6.450
 8116POPC   C2B61484  30.925   5.243   6.750
 8116POPC   C3B61485  30.873   5.243   7.050
 8116POPC   C4B61486  30.932   5.264   7.350
 8117POPC   NC361487  43.080  38.425   5.550
 8117POPC   PO461488  43.094  38.470   5.850
 8117POPC   GL161489  43.126  38.426   6.150
 8117POPC   GL261490  43.182  38.398   6.150
 8117POPC   C1A61491  43.145  38.439   6.450
 8117POPC   D2A61492  43.158  38.418   6.750
 8117POPC   C3A61493  43.135  38.460   7.050
 8117POPC   C4A61494  43.111  38.477   7.350
 8117POPC   C1B61495  43.281  38.320   6.450
 8117POPC   C2B61496  43.288  38.323   6.750
 8117POPC   C3B61497  43.311  38.246   7.050
 8117POPC   C4B61498  43.270  38.295   7.350
 8118POPC   NC361499   5.107   1.967   5.550
 8118POPC   PO461500   5.100   1.980   5.850
 8118POPC   GL161501   5.065   1.956   6.150
 8118POPC   GL261502   5.084   2.103   6.150
 8118POPC   C1A61503   5.140   2.035   6.450
 8118POPC   D2A61504   5.100   2.033   6.750
 8118POPC   C3A61505   5.055   2.037   7.050
 8118POPC   C4A61506   5.081   1.975   7.350
 8118POPC   C1B61507   5.163   2.213   6.450
 8118POPC   C2B61508   5.167   2.240   6.750
 8118POPC   C3B61509   5.126   2.190   7.050
 8118POPC   C4B61510   5.088   2.195   7.350
 8119POPC   NC361511  15.207  29.887   5.550
 8119POPC   PO461512  15.194  29.874   5.850
 8119POPC   GL161513  15.142  29.939   6.150
 8119POPC   GL261514  15.069  29.931   6.150
 8119POPC   C1A61515  15.180  29.902   6.450
 8119POPC   D2A61516  15.145  29.970   6.750
 8119POPC   C3A61517  15.172  29.947   7.050
 8119POPC   C4A61518  15.194  29.898   7.350
 8119POPC   C1B61519  14.995  30.023   6.450
 8119POPC   C2B61520  14.996  29.987   6.750
 8119POPC   C3B61521  14.926  30.049   7.050
 8119POPC   C4B61522  14.955  30.050   7.350
 8120POPC   NC361523  18.282   4.318   5.550
 8120POPC   PO461524  18.237   4.359   5.850
 8120POPC   GL161525  18.237   4.354   6.150
 8120POPC   GL261526  18.352   4.219   6.150
 8120POPC   C1A61527  18.328   4.338   6.450
 8120POPC   D2A61528  18.267   4.270   6.750
 8120POPC   C3A61529  18.266   4.358   7.050
 8120POPC   C4A61530  18.286   4.283   7.350
 8120POPC   C1B61531  18.328   4.083   6.450
 8120POPC   C2B61532  18.312   4.083   6.750
 8120POPC   C3B61533  18.327   4.105   7.050
 8120POPC   C4B61534  18.365   4.079   7.350
 8121POPC   NC361535  22.934  19.068   5.550
 8121POPC   PO461536  22.960  19.029   5.850
 8121POPC   GL161537  22.970  19.014   6.150
 8121POPC   GL261538  23.058  18.994   6.150
 8121POPC   C1A61539  22.983  19.074   6.450
 8121POPC   D2A61540  22.976  19.036   6.750
 8121POPC   C3A61541  22.980  19.041   7.050
 8121POPC   C4A61542  22.981  19.087   7.350
 8121POPC   C1B61543  23.173  18.956   6.450
 8121POPC   C2B61544  23.173  18.926   6.750
 8121POPC   C3B61545  23.181  18.992   7.050
 8121POPC   C4B61546  23.185  18.950   7.350
 8122POPC   NC361547  28.330  18.313   5.550
 8122POPC   PO461548  28.398  18.246   5.850
 8122POPC   GL161549  28.358  18.251   6.150
 8122POPC   GL261550  28.272  18.306   6.150
 8122POPC   C1A61551  28.351  18.330   6.450
 8122POPC   D2A61552  28.336  18.315   6.750
 8122POPC   C3A61553  28.321  18.270   7.050
 8122POPC   C4A61554  28.389  18.264   7.350
 8122POPC   C1B61555  28.140  18.352   6.450
 8122POPC   C2B61556  28.102  18.311   6.750
 8122POPC   C3B61557  28.139  18.330   7.050
 8122POPC   C4B61558  28.116  18.303   7.350
 8123POPC   NC361559   1.970  18.302   5.550
 8123POPC   PO461560   1.974  18.282   5.850
 8123POPC   GL161561   1.988  18.322   6.150
 8123POPC   GL261562   1.917  18.336   6.150
 8123POPC   C1A61563   1.994  18.274   6.450
 8123POPC   D2A61564   1.945  18.318   6.750
 8123POPC   C3A61565   2.037  18.242   7.050
 8123POPC   C4A61566   2.001  18.251   7.350
 8123POPC   C1B61567   1.777  18.337   6.450
 8123POPC   C2B61568   1.765  18.382   6.750
 8123POPC   C3B61569   1.797  18.356   7.050
 8123POPC   C4B61570   1.718  18.427   7.350
 8124POPC   NC361571  12.805  20.660   5.550
 8124POPC   PO461572  12.826  20.642   5.850
 8124POPC   GL161573  12.855  20.563   6.150
 8124POPC   GL261574  12.960  20.574   6.150
 8124POPC   C1A61575  12.897  20.628   6.450
 8124POPC   D2A61576  12.886  20.593   6.750
 8124POPC   C3A61577  12.875  20.579   7.050
 8124POPC   C4A61578  12.863  20.643   7.350
 8124POPC   C1B61579  13.057  20.587   6.450
 8124POPC   C2B61580  13.116  20.553   6.750
 8124POPC   C3B61581  13.047  20.518   7.050
 8124POPC   C4B61582  13.093  20.535   7.350
 8125POPC   NC361583  31.495  19.812   5.550
 8125POPC   PO461584  31.459  19.829   5.850
 8125POPC   GL161585  31.482  19.823   6.150
 8125POPC   GL261586  31.556  19.901   6.150
 8125POPC   C1A61587  31.439  19.872   6.450
 8125POPC   D2A61588  31.499  19.794   6.750
 8125POPC   C3A61589  31.480  19.794   7.050
 8125POPC   C4A61590  31.423  19.811   7.350
 8125POPC   C1B61591  31.670  20.080   6.450
 8125POPC   C2B61592  31.603  20.081   6.750
 8125POPC   C3B61593  31.591  20.017   7.050
 8125POPC   C4B61594  31.582  20.027   7.350
 8126POPC   NC361595  16.697  28.326   5.550
 8126POPC   PO461596  16.765  28.354   5.850
 8126POPC   GL161597  16.722  28.333   6.150
 8126POPC   GL261598  16.761  28.425   6.150
 8126POPC   C1A61599  16.696  28.335   6.450
 8126POPC   D2A61600  16.725  28.409   6.750
 8126POPC   C3A61601  16.697  28.414   7.050
 8126POPC   C4A61602  16.731  28.404   7.350
 8126POPC   C1B61603  16.881  28.585   6.450
 8126POPC   C2B61604  16.853  28.619   6.750
 8126POPC   C3B61605  16.889  28.570   7.050
 8126POPC   C4B61606  16.833  28.558   7.350
 8127POPC   NC361607  19.028   0.450   5.550
 8127POPC   PO461608  19.062   0.458   5.850
 8127POPC   GL161609  19.014   0.413   6.150
 8127POPC   GL261610  19.002   0.539   6.150
 8127POPC   C1A61611  19.095   0.446   6.450
 8127POPC   D2A61612  19.053   0.453   6.750
 8127POPC   C3A61613  19.070   0.415   7.050
 8127POPC   C4A61614  19.090   0.431   7.350
 8127POPC   C1B61615  18.844   0.577   6.450
 8127POPC   C2B61616  18.916   0.617   6.750
 8127POPC   C3B61617  18.868   0.648   7.050
 8127POPC   C4B61618  18.856   0.561   7.350
 8128POPC   NC361619  38.448  16.710   5.550
 8128POPC   PO461620  38.447  16.751   5.850
 8128POPC   GL161621  38.453  16.684   6.150
 8128POPC   GL261622  38.541  16.671   6.150
 8128POPC   C1A61623  38.450  16.746   6.450
 8128POPC   D2A61624  38.442  16.751   6.750
 8128POPC   C3A61625  38.451  16.725   7.050
 8128POPC   C4A61626  38.447  16.773   7.350
 8128POPC   C1B61627  38.700  16.642   6.450
 8128POPC   C2B61628  38.684  16.599   6.750
 8128POPC   C3B61629  38.694  16.580   7.050
 8128POPC   C4B61630  38.636  16.607   7.350
 8129POPC   NC361631  29.123  26.064   5.550
 8129POPC   PO461632  29.176  25.994   5.850
 8129POPC   GL161633  29.148  26.020   6.150
 8129POPC   GL261634  29.207  25.952   6.150
 8129POPC   C1A61635  29.150  26.083   6.450
 8129POPC   D2A61636  29.151  25.996   6.750
 8129POPC   C3A61637  29.109  26.025   7.050
 8129POPC   C4A61638  29.174  26.002   7.350
 8129POPC   C1B61639  29.302  25.920   6.450
 8129POPC   C2B61640  29.349  25.906   6.750
 8129POPC   C3B61641  29.307  25.920   7.050
 8129POPC   C4B61642  29.337  25.838   7.350
 8130POPC   NC361643  19.791  13.624   5.550
 8130POPC   PO461644  19.845  13.671   5.850
 8130POPC   GL161645  19.799  13.647   6.150
 8130POPC   GL261646  19.724  13.705   6.150
 8130POPC   C1A61647  19.877  13.596   6.450
 8130POPC   D2A61648  19.821  13.657   6.750
 8130POPC   C3A61649  19.811  13.622   7.050
 8130POPC   C4A61650  19.799  13.676   7.350
 8130POPC   C1B61651  19.649  13.726   6.450
 8130POPC   C2B61652  19.566  13.690   6.750
 8130POPC   C3B61653  19.608  13.712   7.050
 8130POPC   C4B61654  19.635  13.783   7.350
 8131POPC   NC361655  36.922  14.409   5.550
 8131POPC   PO461656  36.908  14.368   5.850
 8131POPC   GL161657  36.908  14.396   6.150
 8131POPC   GL261658  36.765  14.327   6.150
 8131POPC   C1A61659  36.945  14.393   6.450
 8131POPC   D2A61660  36.918  14.381   6.750
 8131POPC   C3A61661  36.941  14.409   7.050
 8131POPC   C4A61662  36.891  14.402   7.350
 8131POPC   C1B61663  36.624  14.297   6.450
 8131POPC   C2B61664  36.672  14.308   6.750
 8131POPC   C3B61665  36.691  14.297   7.050
 8131POPC   C4B61666  36.636  14.350   7.350
 8132POPC   NC361667  41.560  19.044   5.550
 8132POPC   PO461668  41.551  19.027   5.850
 8132POPC   GL161669  41.586  19.072   6.150
 8132POPC   GL261670  41.502  19.188   6.150
 8132POPC   C1A61671  41.512  19.016   6.450
 8132POPC   D2A61672  41.530  19.034   6.750
 8132POPC   C3A61673  41.598  19.056   7.050
 8132POPC   C4A61674  41.553  19.060   7.350
 8132POPC   C1B61675  41.505  19.291   6.450
 8132POPC   C2B61676  41.430  19.283   6.750
 8132POPC   C3B61677  41.449  19.298   7.050
 8132POPC   C4B61678  41.460  19.276   7.350
 8133POPC   NC361679  20.650  10.481   5.550
 8133POPC   PO461680  20.626  10.574   5.850
 8133POPC   GL161681  20.649  10.568   6.150
 8133POPC   GL261682  20.650  10.395   6.150
 8133POPC   C1A61683  20.569  10.520   6.450
 8133POPC   D2A61684  20.637  10.542   6.750
 8133POPC   C3A61685  20.638  10.507   7.050
 8133POPC   C4A61686  20.642  10.509   7.350
 8133POPC   C1B61687  20.635  10.317   6.450
 8133POPC   C2B61688  20.624  10.240   6.750
 8133POPC   C3B61689  20.594  10.258   7.050
 8133POPC   C4B61690  20.665  10.276   7.350
 8134POPC   NC361691  33.027   1.247   5.550
 8134POPC   PO461692  33.039   1.215   5.850
 8134POPC   GL161693  32.990   1.190   6.150
 8134POPC   GL261694  33.142   1.147   6.150
 8134POPC   C1A61695  33.015   1.199   6.450
 8134POPC   D2A61696  33.067   1.237   6.750
 8134POPC   C3A61697  33.051   1.169   7.050
 8134POPC   C4A61698  33.011   1.228   7.350
 8134POPC   C1B61699  33.289   1.151   6.450
 8134POPC   C2B61700  33.237   1.118   6.750
 8134POPC   C3B61701  33.222   1.200   7.050
 8134POPC   C4B61702  33.316   1.127   7.350
 8135POPC   NC361703  44.620  26.048   5.550
 8135POPC   PO461704  44.699  25.998   5.850
 8135POPC   GL161705  44.669  26.003   6.150
 8135POPC   GL261706  44.631  25.939   6.150
 8135POPC   C1A61707  44.675  26.077   6.450
 8135POPC   D2A61708  44.689  25.994   6.750
 8135POPC   C3A61709  44.688  26.052   7.050
 8135POPC   C4A61710  44.694  26.048   7.350
 8135POPC   C1B61711  44.625  25.857   6.450
 8135POPC   C2B61712  44.574  25.809   6.750
 8135POPC   C3B61713  44.586  25.790   7.050
 8135POPC   C4B61714  44.567  25.856   7.350
 8136POPC   NC361715  42.383  40.824   5.550
 8136POPC   PO461716  42.358  40.773   5.850
 8136POPC   GL161717  42.351  40.817   6.150
 8136POPC   GL261718  42.247  40.794   6.150
 8136POPC   C1A61719  42.288  40.822   6.450
 8136POPC   D2A61720  42.291  40.738   6.750
 8136POPC   C3A61721  42.298  40.810   7.050
 8136POPC   C4A61722  42.298  40.749   7.350
 8136POPC   C1B61723  42.077  40.777   6.450
 8136POPC   C2B61724  42.035  40.792   6.750
 8136POPC   C3B61725  42.074  40.739   7.050
 8136POPC   C4B61726  42.067  40.794   7.350
 8137POPC   NC361727   4.270   1.243   5.550
 8137POPC   PO461728   4.345   1.175   5.850
 8137POPC   GL161729   4.296   1.250   6.150
 8137POPC   GL261730   4.323   1.316   6.150
 8137POPC   C1A61731   4.296   1.180   6.450
 8137POPC   D2A61732   4.303   1.248   6.750
 8137POPC   C3A61733   4.301   1.232   7.050
 8137POPC   C4A61734   4.328   1.183   7.350
 8137POPC   C1B61735   4.319   1.490   6.450
 8137POPC   C2B61736   4.325   1.501   6.750
 8137POPC   C3B61737   4.246   1.431   7.050
 8137POPC   C4B61738   4.297   1.468   7.350
 8138POPC   NC361739  22.166  19.824   5.550
 8138POPC   PO461740  22.173  19.880   5.850
 8138POPC   GL161741  22.133  19.805   6.150
 8138POPC   GL261742  22.271  19.799   6.150
 8138POPC   C1A61743  22.146  19.873   6.450
 8138POPC   D2A61744  22.191  19.834   6.750
 8138POPC   C3A61745  22.157  19.860   7.050
 8138POPC   C4A61746  22.204  19.865   7.350
 8138POPC   C1B61747  22.418  19.754   6.450
 8138POPC   C2B61748  22.409  19.684   6.750
 8138POPC   C3B61749  22.349  19.724   7.050
 8138POPC   C4B61750  22.373  19.740   7.350
 8139POPC   NC361751  43.137  24.512   5.550
 8139POPC   PO461752  43.075  24.488   5.850
 8139POPC   GL161753  43.093  24.455   6.150
 8139POPC   GL261754  43.000  24.381   6.150
 8139POPC   C1A61755  43.118  24.535   6.450
 8139POPC   D2A61756  43.160  24.475   6.750
 8139POPC   C3A61757  43.074  24.512   7.050
 8139POPC   C4A61758  43.140  24.523   7.350
 8139POPC   C1B61759  42.862  24.327   6.450
 8139POPC   C2B61760  42.951  24.379   6.750
 8139POPC   C3B61761  42.907  24.310   7.050
 8139POPC   C4B61762  42.866  24.385   7.350
 8140POPC   NC361763  28.414  15.155   5.550
 8140POPC   PO461764  28.408  15.211   5.850
 8140POPC   GL161765  28.324  15.213   6.150
 8140POPC   GL261766  28.353  15.100   6.150
 8140POPC   C1A61767  28.387  15.172   6.450
 8140POPC   D2A61768  28.400  15.148   6.750
 8140POPC   C3A61769  28.345  15.196   7.050
 8140POPC   C4A61770  28.399  15.215   7.350
 8140POPC   C1B61771  28.201  14.980   6.450
 8140POPC   C2B61772  28.247  14.913   6.750
 8140POPC   C3B61773  28.259  14.961   7.050
 8140POPC   C4B61774  28.271  15.009   7.350
 8141POPC   NC361775   4.287  23.701   5.550
 8141POPC   PO461776   4.318  23.744   5.850
 8141POPC   GL161777   4.310  23.739   6.150
 8141POPC   GL261778   4.442  23.674   6.150
 8141POPC   C1A61779   4.305  23.720   6.450
 8141POPC   D2A61780   4.365  23.729   6.750
 8141POPC   C3A61781   4.298  23.724   7.050
 8141POPC   C4A61782   4.288  23.743   7.350
 8141POPC   C1B61783   4.568  23.615   6.450
 8141POPC   C2B61784   4.573  23.626   6.750
 8141POPC   C3B61785   4.536  23.552   7.050
 8141POPC   C4B61786   4.573  23.555   7.350
 8142POPC   NC361787  12.832  21.342   5.550
 8142POPC   PO461788  12.804  21.398   5.850
 8142POPC   GL161789  12.877  21.399   6.150
 8142POPC   GL261790  12.746  21.303   6.150
 8142POPC   C1A61791  12.844  21.413   6.450
 8142POPC   D2A61792  12.865  21.369   6.750
 8142POPC   C3A61793  12.889  21.413   7.050
 8142POPC   C4A61794  12.842  21.376   7.350
 8142POPC   C1B61795  12.666  21.316   6.450
 8142POPC   C2B61796  12.665  21.283   6.750
 8142POPC   C3B61797  12.592  21.265   7.050
 8142POPC   C4B61798  12.617  21.263   7.350
 8143POPC   NC361799  35.365  11.252   5.550
 8143POPC   PO461800  35.400  11.325   5.850
 8143POPC   GL161801  35.370  11.342   6.150
 8143POPC   GL261802  35.390  11.180   6.150
 8143POPC   C1A61803  35.390  11.330   6.450
 8143POPC   D2A61804  35.342  11.260   6.750
 8143POPC   C3A61805  35.362  11.263   7.050
 8143POPC   C4A61806  35.312  11.321   7.350
 8143POPC   C1B61807  35.288  11.034   6.450
 8143POPC   C2B61808  35.298  11.097   6.750
 8143POPC   C3B61809  35.358  11.089   7.050
 8143POPC   C4B61810  35.366  11.092   7.350
 8144POPC   NC361811  24.504  40.775   5.550
 8144POPC   PO461812  24.460  40.804   5.850
 8144POPC   GL161813  24.499  40.817   6.150
 8144POPC   GL261814  24.535  40.724   6.150
 8144POPC   C1A61815  24.468  40.775   6.450
 8144POPC   D2A61816  24.505  40.758   6.750
 8144POPC   C3A61817  24.452  40.765   7.050
 8144POPC   C4A61818  24.490  40.741   7.350
 8144POPC   C1B61819  24.607  40.606   6.450
 8144POPC   C2B61820  24.611  40.529   6.750
 8144POPC   C3B61821  24.621  40.601   7.050
 8144POPC   C4B61822  24.588  40.593   7.350
 8145POPC   NC361823  35.346  41.592   5.550
 8145POPC   PO461824  35.303  41.524   5.850
 8145POPC   GL161825  35.310  41.559   6.150
 8145POPC   GL261826  35.445  41.481   6.150
 8145POPC   C1A61827  35.383  41.559   6.450
 8145POPC   D2A61828  35.367  41.541   6.750
 8145POPC   C3A61829  35.369  41.584   7.050
 8145POPC   C4A61830  35.356  41.566   7.350
 8145POPC   C1B61831  35.468  41.363   6.450
 8145POPC   C2B61832  35.525  41.374   6.750
 8145POPC   C3B61833  35.554  41.345   7.050
 8145POPC   C4B61834  35.467  41.373   7.350
 8146POPC   NC361835  26.780  23.675   5.550
 8146POPC   PO461836  26.795  23.704   5.850
 8146POPC   GL161837  26.791  23.665   6.150
 8146POPC   GL261838  26.784  23.809   6.150
 8146POPC   C1A61839  26.816  23.746   6.450
 8146POPC   D2A61840  26.844  23.713   6.750
 8146POPC   C3A61841  26.815  23.722   7.050
 8146POPC   C4A61842  26.795  23.732   7.350
 8146POPC   C1B61843  26.699  23.973   6.450
 8146POPC   C2B61844  26.738  23.884   6.750
 8146POPC   C3B61845  26.675  23.893   7.050
 8146POPC   C4B61846  26.722  23.921   7.350
 8147POPC   NC361847  39.205  19.054   5.550
 8147POPC   PO461848  39.205  19.098   5.850
 8147POPC   GL161849  39.203  19.023   6.150
 8147POPC   GL261850  39.344  19.091   6.150
 8147POPC   C1A61851  39.216  19.064   6.450
 8147POPC   D2A61852  39.206  19.060   6.750
 8147POPC   C3A61853  39.186  19.050   7.050
 8147POPC   C4A61854  39.188  19.068   7.350
 8147POPC   C1B61855  39.476  19.214   6.450
 8147POPC   C2B61856  39.417  19.245   6.750
 8147POPC   C3B61857  39.445  19.211   7.050
 8147POPC   C4B61858  39.431  19.217   7.350
 8148POPC   NC361859  28.349  20.589   5.550
 8148POPC   PO461860  28.337  20.561   5.850
 8148POPC   GL161861  28.321  20.649   6.150
 8148POPC   GL261862  28.466  20.589   6.150
 8148POPC   C1A61863  28.334  20.594   6.450
 8148POPC   D2A61864  28.387  20.637   6.750
 8148POPC   C3A61865  28.396  20.619   7.050
 8148POPC   C4A61866  28.380  20.569   7.350
 8148POPC   C1B61867  28.612  20.561   6.450
 8148POPC   C2B61868  28.623  20.537   6.750
 8148POPC   C3B61869  28.639  20.586   7.050
 8148POPC   C4B61870  28.580  20.561   7.350
 8149POPC   NC361871   4.347  26.031   5.550
 8149POPC   PO461872   4.277  26.083   5.850
 8149POPC   GL161873   4.342  26.072   6.150
 8149POPC   GL261874   4.247  25.989   6.150
 8149POPC   C1A61875   4.353  26.064   6.450
 8149POPC   D2A61876   4.334  26.029   6.750
 8149POPC   C3A61877   4.278  25.997   7.050
 8149POPC   C4A61878   4.327  26.000   7.350
 8149POPC   C1B61879   4.130  25.900   6.450
 8149POPC   C2B61880   4.150  25.904   6.750
 8149POPC   C3B61881   4.078  25.905   7.050
 8149POPC   C4B61882   4.135  25.898   7.350
 8150POPC   NC361883  34.618  15.984   5.550
 8150POPC   PO461884  34.577  15.923   5.850
 8150POPC   GL161885  34.604  15.953   6.150
 8150POPC   GL261886  34.677  15.994   6.150
 8150POPC   C1A61887  34.554  15.925   6.450
 8150POPC   D2A61888  34.575  15.924   6.750
 8150POPC   C3A61889  34.623  15.958   7.050
 8150POPC   C4A61890  34.541  15.912   7.350
 8150POPC   C1B61891  34.789  16.095   6.450
 8150POPC   C2B61892  34.811  16.138   6.750
 8150POPC   C3B61893  34.765  16.155   7.050
 8150POPC   C4B61894  34.778  16.153   7.350
 8151POPC   NC361895  11.308  38.491   5.550
 8151POPC   PO461896  11.346  38.500   5.850
 8151POPC   GL161897  11.267  38.471   6.150
 8151POPC   GL261898  11.269  38.517   6.150
 8151POPC   C1A61899  11.300  38.467   6.450
 8151POPC   D2A61900  11.322  38.439   6.750
 8151POPC   C3A61901  11.299  38.427   7.050
 8151POPC   C4A61902  11.343  38.447   7.350
 8151POPC   C1B61903  11.145  38.660   6.450
 8151POPC   C2B61904  11.200  38.692   6.750
 8151POPC   C3B61905  11.178  38.643   7.050
 8151POPC   C4B61906  11.130  38.650   7.350
 8152POPC   NC361907   1.941  10.516   5.550
 8152POPC   PO461908   1.983  10.519   5.850
 8152POPC   GL161909   1.958  10.498   6.150
 8152POPC   GL261910   1.842  10.569   6.150
 8152POPC   C1A61911   2.039  10.567   6.450
 8152POPC   D2A61912   2.021  10.507   6.750
 8152POPC   C3A61913   1.995  10.536   7.050
 8152POPC   C4A61914   2.031  10.516   7.350
 8152POPC   C1B61915   1.799  10.678   6.450
 8152POPC   C2B61916   1.747  10.663   6.750
 8152POPC   C3B61917   1.794  10.702   7.050
 8152POPC   C4B61918   1.740  10.682   7.350
 8153POPC   NC361919  43.840   5.850   5.550
 8153POPC   PO461920  43.883   5.853   5.850
 8153POPC   GL161921  43.903   5.833   6.150
 8153POPC   GL261922  44.036   5.889   6.150
 8153POPC   C1A61923  43.934   5.905   6.450
 8153POPC   D2A61924  43.850   5.892   6.750
 8153POPC   C3A61925  43.933   5.859   7.050
 8153POPC   C4A61926  43.898   5.834   7.350
 8153POPC   C1B61927  44.104   5.935   6.450
 8153POPC   C2B61928  44.153   5.923   6.750
 8153POPC   C3B61929  44.092   5.930   7.050
 8153POPC   C4B61930  44.115   5.930   7.350
 8154POPC   NC361931  23.726  35.331   5.550
 8154POPC   PO461932  23.676  35.324   5.850
 8154POPC   GL161933  23.710  35.399   6.150
 8154POPC   GL261934  23.714  35.486   6.150
 8154POPC   C1A61935  23.735  35.304   6.450
 8154POPC   D2A61936  23.717  35.376   6.750
 8154POPC   C3A61937  23.761  35.372   7.050
 8154POPC   C4A61938  23.744  35.342   7.350
 8154POPC   C1B61939  23.660  35.579   6.450
 8154POPC   C2B61940  23.634  35.604   6.750
 8154POPC   C3B61941  23.696  35.624   7.050
 8154POPC   C4B61942  23.684  35.584   7.350
 8155POPC   NC361943   1.963  40.815   5.550
 8155POPC   PO461944   1.981  40.787   5.850
 8155POPC   GL161945   1.951  40.752   6.150
 8155POPC   GL261946   2.035  40.721   6.150
 8155POPC   C1A61947   2.034  40.802   6.450
 8155POPC   D2A61948   1.963  40.758   6.750
 8155POPC   C3A61949   2.027  40.746   7.050
 8155POPC   C4A61950   1.948  40.805   7.350
 8155POPC   C1B61951   2.152  40.569   6.450
 8155POPC   C2B61952   2.169  40.607   6.750
 8155POPC   C3B61953   2.124  40.598   7.050
 8155POPC   C4B61954   2.115  40.604   7.350
 8156POPC   NC361955   9.784  42.342   5.550
 8156POPC   PO461956   9.778  42.383   5.850
 8156POPC   GL161957   9.796  42.355   6.150
 8156POPC   GL261958   9.871  42.202   6.150
 8156POPC   C1A61959   9.753  42.375   6.450
 8156POPC   D2A61960   9.735  42.309   6.750
 8156POPC   C3A61961   9.721  42.347   7.050
 8156POPC   C4A61962   9.713  42.353   7.350
 8156POPC   C1B61963   9.869  42.160   6.450
 8156POPC   C2B61964   9.896  42.185   6.750
 8156POPC   C3B61965   9.951  42.132   7.050
 8156POPC   C4B61966   9.936  42.180   7.350
 8157POPC   NC361967  44.690  39.266   5.550
 8157POPC   PO461968  44.695  39.268   5.850
 8157POPC   GL161969  44.616  39.266   6.150
 8157POPC   GL261970  44.563  39.376   6.150
 8157POPC   C1A61971  44.647  39.238   6.450
 8157POPC   D2A61972  44.676  39.222   6.750
 8157POPC   C3A61973  44.620  39.208   7.050
 8157POPC   C4A61974  44.659  39.202   7.350
 8157POPC   C1B61975  44.546  39.431   6.450
 8157POPC   C2B61976  44.551  39.405   6.750
 8157POPC   C3B61977  44.518  39.452   7.050
 8157POPC   C4B61978  44.573  39.436   7.350
 8158POPC   NC361979  25.227  23.676   5.550
 8158POPC   PO461980  25.312  23.681   5.850
 8158POPC   GL161981  25.262  23.757   6.150
 8158POPC   GL261982  25.306  23.628   6.150
 8158POPC   C1A61983  25.244  23.683   6.450
 8158POPC   D2A61984  25.257  23.704   6.750
 8158POPC   C3A61985  25.298  23.695   7.050
 8158POPC   C4A61986  25.217  23.718   7.350
 8158POPC   C1B61987  25.428  23.517   6.450
 8158POPC   C2B61988  25.456  23.574   6.750
 8158POPC   C3B61989  25.477  23.571   7.050
 8158POPC   C4B61990  25.392  23.489   7.350
 8159POPC   NC361991   6.627  36.106   5.550
 8159POPC   PO461992   6.596  36.158   5.850
 8159POPC   GL161993   6.647  36.156   6.150
 8159POPC   GL261994   6.754  36.022   6.150
 8159POPC   C1A61995   6.692  36.100   6.450
 8159POPC   D2A61996   6.632  36.121   6.750
 8159POPC   C3A61997   6.672  36.091   7.050
 8159POPC   C4A61998   6.636  36.152   7.350
 8159POPC   C1B61999   6.815  35.914   6.450
 8159POPC   C2B62000   6.795  35.999   6.750
 8159POPC   C3B62001   6.828  35.970   7.050
 8159POPC   C4B62002   6.830  35.933   7.350
 8160POPC   NC362003   3.535  26.796   5.550
 8160POPC   PO462004   3.501  26.808   5.850
 8160POPC   GL162005   3.563  26.800   6.150
 8160POPC   GL262006   3.458  26.766   6.150
 8160POPC   C1A62007   3.582  26.832   6.450
 8160POPC   D2A62008   3.590  26.850   6.750
 8160POPC   C3A62009   3.577  26.799   7.050
 8160POPC   C4A62010   3.554  26.806   7.350
 8160POPC   C1B62011   3.284  26.664   6.450
 8160POPC   C2B62012   3.335  26.671   6.750
 8160POPC   C3B62013   3.357  26.691   7.050
 8160POPC   C4B62014   3.308  26.718   7.350
 8161POPC   NC362015  44.640  25.262   5.550
 8161POPC   PO462016  44.626  25.286   5.850
 8161POPC   GL162017  44.655  25.251   6.150
 8161POPC   GL262018  44.612  25.356   6.150
 8161POPC   C1A62019  44.688  25.247   6.450
 8161POPC   D2A62020  44.698  25.224   6.750
 8161POPC   C3A62021  44.628  25.241   7.050
 8161POPC   C4A62022  44.678  25.226   7.350
 8161POPC   C1B62023  44.533  25.520   6.450
 8161POPC   C2B62024  44.564  25.530   6.750
 8161POPC   C3B62025  44.544  25.515   7.050
 8161POPC   C4B62026  44.601  25.531   7.350
 8162POPC   NC362027  36.927  39.252   5.550
 8162POPC   PO462028  36.904  39.182   5.850
 8162POPC   GL162029  36.923  39.280   6.150
 8162POPC   GL262030  36.935  39.088   6.150
 8162POPC   C1A62031  36.935  39.199   6.450
 8162POPC   D2A62032  36.865  39.249   6.750
 8162POPC   C3A62033  36.944  39.219   7.050
 8162POPC   C4A62034  36.921  39.251   7.350
 8162POPC   C1B62035  36.975  38.941   6.450
 8162POPC   C2B62036  36.927  38.957   6.750
 8162POPC   C3B62037  36.914  38.967   7.050
 8162POPC   C4B62038  36.964  39.000   7.350
 8163POPC   NC362039  19.076  28.325   5.550
 8163POPC   PO462040  19.030  28.369   5.850
 8163POPC   GL162041  19.027  28.328   6.150
 8163POPC   GL262042  19.158  28.401   6.150
 8163POPC   C1A62043  19.107  28.392   6.450
 8163POPC   D2A62044  19.087  28.386   6.750
 8163POPC   C3A62045  19.049  28.389   7.050
 8163POPC   C4A62046  19.107  28.352   7.350
 8163POPC   C1B62047  19.344  28.357   6.450
 8163POPC   C2B62048  19.346  28.369   6.750
 8163POPC   C3B62049  19.322  28.357   7.050
 8163POPC   C4B62050  19.262  28.368   7.350
 8164POPC   NC362051  41.589   3.555   5.550
 8164POPC   PO462052  41.595   3.503   5.850
 8164POPC   GL162053  41.542   3.493   6.150
 8164POPC   GL262054  41.608   3.616   6.150
 8164POPC   C1A62055  41.517   3.551   6.450
 8164POPC   D2A62056  41.569   3.495   6.750
 8164POPC   C3A62057  41.548   3.538   7.050
 8164POPC   C4A62058  41.568   3.567   7.350
 8164POPC   C1B62059  41.615   3.802   6.450
 8164POPC   C2B62060  41.582   3.756   6.750
 8164POPC   C3B62061  41.621   3.764   7.050
 8164POPC   C4B62062  41.630   3.766   7.350
 8165POPC   NC362063   0.469  36.093   5.550
 8165POPC   PO462064   0.413  36.173   5.850
 8165POPC   GL162065   0.483  36.078   6.150
 8165POPC   GL262066   0.593  36.170   6.150
 8165POPC   C1A62067   0.446  36.174   6.450
 8165POPC   D2A62068   0.439  36.137   6.750
 8165POPC   C3A62069   0.475  36.106   7.050
 8165POPC   C4A62070   0.444  36.177   7.350
 8165POPC   C1B62071   0.686  36.235   6.450
 8165POPC   C2B62072   0.673  36.300   6.750
 8165POPC   C3B62073   0.657  36.276   7.050
 8165POPC   C4B62074   0.652  36.285   7.350
 8166POPC   NC362075  31.458  44.654   5.550
 8166POPC   PO462076  31.427  44.696   5.850
 8166POPC   GL162077  31.444  44.703   6.150
 8166POPC   GL262078  31.380  44.678   6.150
 8166POPC   C1A62079  31.457  44.671   6.450
 8166POPC   D2A62080  31.497  44.706   6.750
 8166POPC   C3A62081  31.506  44.686   7.050
 8166POPC   C4A62082  31.426  44.688   7.350
 8166POPC   C1B62083  31.227  44.744   6.450
 8166POPC   C2B62084  31.240  44.717   6.750
 8166POPC   C3B62085  31.235  44.771   7.050
 8166POPC   C4B62086  31.205  44.774   7.350
 8167POPC   NC362087  19.037   5.104   5.550
 8167POPC   PO462088  19.041   5.129   5.850
 8167POPC   GL162089  19.037   5.106   6.150
 8167POPC   GL262090  19.123   5.167   6.150
 8167POPC   C1A62091  19.068   5.111   6.450
 8167POPC   D2A62092  19.033   5.059   6.750
 8167POPC   C3A62093  19.068   5.089   7.050
 8167POPC   C4A62094  19.044   5.133   7.350
 8167POPC   C1B62095  19.294   5.212   6.450
 8167POPC   C2B62096  19.235   5.209   6.750
 8167POPC   C3B62097  19.227   5.270   7.050
 8167POPC   C4B62098  19.278   5.271   7.350
 8168POPC   NC362099  35.344  39.221   5.550
 8168POPC   PO462100  35.304  39.200   5.850
 8168POPC   GL162101  35.367  39.226   6.150
 8168POPC   GL262102  35.371  39.372   6.150
 8168POPC   C1A62103  35.381  39.197   6.450
 8168POPC   D2A62104  35.303  39.273   6.750
 8168POPC   C3A62105  35.381  39.216   7.050
 8168POPC   C4A62106  35.327  39.248   7.350
 8168POPC   C1B62107  35.411  39.449   6.450
 8168POPC   C2B62108  35.403  39.446   6.750
 8168POPC   C3B62109  35.384  39.502   7.050
 8168POPC   C4B62110  35.382  39.485   7.350
 8169POPC   NC362111  16.731  29.098   5.550
 8169POPC   PO462112  16.757  29.187   5.850
 8169POPC   GL162113  16.696  29.168   6.150
 8169POPC   GL262114  16.883  29.170   6.150
 8169POPC   C1A62115  16.713  29.099   6.450
 8169POPC   D2A62116  16.737  29.184   6.750
 8169POPC   C3A62117  16.712  29.120   7.050
 8169POPC   C4A62118  16.700  29.156   7.350
 8169POPC   C1B62119  16.919  29.283   6.450
 8169POPC   C2B62120  16.961  29.267   6.750
 8169POPC   C3B62121  16.966  29.300   7.050
 8169POPC   C4B62122  16.942  29.241   7.350
 8170POPC   NC362123  29.957   1.170   5.550
 8170POPC   PO462124  29.950   1.235   5.850
 8170POPC   GL162125  29.883   1.204   6.150
 8170POPC   GL262126  29.860   1.065   6.150
 8170POPC   C1A62127  29.877   1.197   6.450
 8170POPC   D2A62128  29.944   1.260   6.750
 8170POPC   C3A62129  29.914   1.196   7.050
 8170POPC   C4A62130  29.959   1.177   7.350
 8170POPC   C1B62131  29.751   1.019   6.450
 8170POPC   C2B62132  29.737   0.971   6.750
 8170POPC   C3B62133  29.796   0.973   7.050
 8170POPC   C4B62134  29.832   0.989   7.350
 8171POPC   NC362135   8.991  43.086   5.550
 8171POPC   PO462136   8.935  43.131   5.850
 8171POPC   GL162137   9.018  43.083   6.150
 8171POPC   GL262138   8.933  43.230   6.150
 8171POPC   C1A62139   8.950  43.131   6.450
 8171POPC   D2A62140   8.940  43.118   6.750
 8171POPC   C3A62141   8.935  43.133   7.050
 8171POPC   C4A62142   8.934  43.069   7.350
 8171POPC   C1B62143   8.931  43.381   6.450
 8171POPC   C2B62144   8.898  43.374   6.750
 8171POPC   C3B62145   8.894  43.341   7.050
 8171POPC   C4B62146   8.915  43.356   7.350
 8172POPC   NC362147  19.101  10.531   5.550
 8172POPC   PO462148  19.019  10.571   5.850
 8172POPC   GL162149  19.092  10.492   6.150
 8172POPC   GL262150  19.013  10.669   6.150
 8172POPC   C1A62151  19.021  10.507   6.450
 8172POPC   D2A62152  19.031  10.542   6.750
 8172POPC   C3A62153  19.040  10.544   7.050
 8172POPC   C4A62154  19.099  10.517   7.350
 8172POPC   C1B62155  18.903  10.690   6.450
 8172POPC   C2B62156  18.876  10.686   6.750
 8172POPC   C3B62157  18.914  10.768   7.050
 8172POPC   C4B62158  18.907  10.700   7.350
 8173POPC   NC362159   0.424  36.911   5.550
 8173POPC   PO462160   0.447  36.948   5.850
 8173POPC   GL162161   0.462  36.900   6.150
 8173POPC   GL262162   0.506  36.957   6.150
 8173POPC   C1A62163   0.419  36.953   6.450
 8173POPC   D2A62164   0.392  36.879   6.750
 8173POPC   C3A62165   0.443  36.872   7.050
 8173POPC   C4A62166   0.390  36.935   7.350
 8173POPC   C1B62167   0.594  37.121   6.450
 8173POPC   C2B62168   0.552  37.089   6.750
 8173POPC   C3B62169   0.579  37.053   7.050
 8173POPC   C4B62170   0.623  37.114   7.350
 8174POPC   NC362171   4.333  43.884   5.550
 8174POPC   PO462172   4.321  43.883   5.850
 8174POPC   GL162173   4.335  43.888   6.150
 8174POPC   GL262174   4.447  43.998   6.150
 8174POPC   C1A62175   4.322  43.890   6.450
 8174POPC   D2A62176   4.326  43.887   6.750
 8174POPC   C3A62177   4.276  43.853   7.050
 8174POPC   C4A62178   4.283  43.867   7.350
 8174POPC   C1B62179   4.543  44.031   6.450
 8174POPC   C2B62180   4.503  44.048   6.750
 8174POPC   C3B62181   4.507  44.023   7.050
 8174POPC   C4B62182   4.544  44.062   7.350
 8175POPC   NC362183   2.014  29.939   5.550
 8175POPC   PO462184   1.999  29.910   5.850
 8175POPC   GL162185   1.947  29.963   6.150
 8175POPC   GL262186   2.028  30.038   6.150
 8175POPC   C1A62187   2.028  29.887   6.450
 8175POPC   D2A62188   2.009  29.964   6.750
 8175POPC   C3A62189   1.996  29.885   7.050
 8175POPC   C4A62190   1.992  29.874   7.350
 8175POPC   C1B62191   1.974  30.168   6.450
 8175POPC   C2B62192   1.941  30.209   6.750
 8175POPC   C3B62193   1.978  30.215   7.050
 8175POPC   C4B62194   1.942  30.200   7.350
 8176POPC   NC362195  17.506  40.753   5.550
 8176POPC   PO462196  17.512  40.797   5.850
 8176POPC   GL162197  17.488  40.801   6.150
 8176POPC   GL262198  17.634  40.838   6.150
 8176POPC   C1A62199  17.477  40.739   6.450
 8176POPC   D2A62200  17.540  40.785   6.750
 8176POPC   C3A62201  17.529  40.797   7.050
 8176POPC   C4A62202  17.474  40.799   7.350
 8176POPC   C1B62203  17.731  40.790   6.450
 8176POPC   C2B62204  17.774  40.787   6.750
 8176POPC   C3B62205  17.727  40.846   7.050
 8176POPC   C4B62206  17.760  40.776   7.350
 8177POPC   NC362207  44.658  29.142   5.550
 8177POPC   PO462208  44.635  29.134   5.850
 8177POPC   GL162209  44.698  29.135   6.150
 8177POPC   GL262210  44.699  29.293   6.150
 8177POPC   C1A62211  44.667  29.097   6.450
 8177POPC   D2A62212  44.624  29.168   6.750
 8177POPC   C3A62213  44.664  29.130   7.050
 8177POPC   C4A62214  44.676  29.184   7.350
 8177POPC   C1B62215  44.711  29.436   6.450
 8177POPC   C2B62216  44.731  29.416   6.750
 8177POPC   C3B62217  44.700  29.404   7.050
 8177POPC   C4B62218  44.740  29.410   7.350
 8178POPC   NC362219   4.289  39.989   5.550
 8178POPC   PO462220   4.338  40.000   5.850
 8178POPC   GL162221   4.341  40.057   6.150
 8178POPC   GL262222   4.206  39.906   6.150
 8178POPC   C1A62223   4.361  39.961   6.450
 8178POPC   D2A62224   4.271  40.026   6.750
 8178POPC   C3A62225   4.291  40.004   7.050
 8178POPC   C4A62226   4.329  39.988   7.350
 8178POPC   C1B62227   4.147  39.854   6.450
 8178POPC   C2B62228   4.166  39.819   6.750
 8178POPC   C3B62229   4.075  39.812   7.050
 8178POPC   C4B62230   4.097  39.816   7.350
 8179POPC   NC362231   9.791  22.890   5.550
 8179POPC   PO462232   9.706  22.937   5.850
 8179POPC   GL162233   9.789  22.956   6.150
 8179POPC   GL262234   9.662  22.988   6.150
 8179POPC   C1A62235   9.763  22.942   6.450
 8179POPC   D2A62236   9.710  22.984   6.750
 8179POPC   C3A62237   9.773  22.984   7.050
 8179POPC   C4A62238   9.788  22.974   7.350
 8179POPC   C1B62239   9.576  23.055   6.450
 8179POPC   C2B62240   9.522  23.074   6.750
 8179POPC   C3B62241   9.566  23.090   7.050
 8179POPC   C4B62242   9.531  23.074   7.350
 8180POPC   NC362243  19.823  25.996   5.550
 8180POPC   PO462244  19.817  26.089   5.850
 8180POPC   GL162245  19.816  25.992   6.150
 8180POPC   GL262246  19.693  26.118   6.150
 8180POPC   C1A62247  19.796  26.090   6.450
 8180POPC   D2A62248  19.884  26.059   6.750
 8180POPC   C3A62249  19.829  25.999   7.050
 8180POPC   C4A62250  19.823  26.030   7.350
 8180POPC   C1B62251  19.600  26.130   6.450
 8180POPC   C2B62252  19.660  26.174   6.750
 8180POPC   C3B62253  19.656  26.162   7.050
 8180POPC   C4B62254  19.643  26.193   7.350
 8181POPC   NC362255  43.881  20.581   5.550
 8181POPC   PO462256  43.902  20.617   5.850
 8181POPC   GL162257  43.929  20.567   6.150
 8181POPC   GL262258  43.748  20.669   6.150
 8181POPC   C1A62259  43.933  20.611   6.450
 8181POPC   D2A62260  43.861  20.623   6.750
 8181POPC   C3A62261  43.886  20.570   7.050
 8181POPC   C4A62262  43.914  20.608   7.350
 8181POPC   C1B62263  43.699  20.739   6.450
 8181POPC   C2B62264  43.697  20.779   6.750
 8181POPC   C3B62265  43.687  20.786   7.050
 8181POPC   C4B62266  43.717  20.802   7.350
 8182POPC   NC362267  40.788  29.126   5.550
 8182POPC   PO462268  40.788  29.172   5.850
 8182POPC   GL162269  40.793  29.144   6.150
 8182POPC   GL262270  40.757  29.027   6.150
 8182POPC   C1A62271  40.790  29.183   6.450
 8182POPC   D2A62272  40.734  29.189   6.750
 8182POPC   C3A62273  40.740  29.141   7.050
 8182POPC   C4A62274  40.815  29.100   7.350
 8182POPC   C1B62275  40.754  28.852   6.450
 8182POPC   C2B62276  40.717  28.927   6.750
 8182POPC   C3B62277  40.719  28.888   7.050
 8182POPC   C4B62278  40.737  28.932   7.350
 8183POPC   NC362279   6.633  42.354   5.550
 8183POPC   PO462280   6.617  42.293   5.850
 8183POPC   GL162281   6.685  42.292   6.150
 8183POPC   GL262282   6.819  42.288   6.150
 8183POPC   C1A62283   6.660  42.375   6.450
 8183POPC   D2A62284   6.665  42.382   6.750
 8183POPC   C3A62285   6.674  42.339   7.050
 8183POPC   C4A62286   6.613  42.362   7.350
 8183POPC   C1B62287   6.876  42.355   6.450
 8183POPC   C2B62288   6.856  42.345   6.750
 8183POPC   C3B62289   6.939  42.286   7.050
 8183POPC   C4B62290   6.863  42.301   7.350
 8184POPC   NC362291  19.097  19.849   5.550
 8184POPC   PO462292  19.066  19.869   5.850
 8184POPC   GL162293  19.066  19.832   6.150
 8184POPC   GL262294  19.097  19.677   6.150
 8184POPC   C1A62295  19.059  19.821   6.450
 8184POPC   D2A62296  19.087  19.787   6.750
 8184POPC   C3A62297  19.085  19.823   7.050
 8184POPC   C4A62298  19.107  19.826   7.350
 8184POPC   C1B62299  19.079  19.587   6.450
 8184POPC   C2B62300  19.042  19.574   6.750
 8184POPC   C3B62301  19.130  19.612   7.050
 8184POPC   C4B62302  19.140  19.618   7.350
 8185POPC   NC362303  32.998  35.363   5.550
 8185POPC   PO462304  33.013  35.345   5.850
 8185POPC   GL162305  33.049  35.315   6.150
 8185POPC   GL262306  33.148  35.347   6.150
 8185POPC   C1A62307  33.034  35.389   6.450
 8185POPC   D2A62308  32.976  35.345   6.750
 8185POPC   C3A62309  33.053  35.398   7.050
 8185POPC   C4A62310  33.011  35.339   7.350
 8185POPC   C1B62311  33.274  35.223   6.450
 8185POPC   C2B62312  33.254  35.262   6.750
 8185POPC   C3B62313  33.209  35.257   7.050
 8185POPC   C4B62314  33.261  35.257   7.350
 8186POPC   NC362315  23.675  37.686   5.550
 8186POPC   PO462316  23.728  37.647   5.850
 8186POPC   GL162317  23.702  37.650   6.150
 8186POPC   GL262318  23.562  37.694   6.150
 8186POPC   C1A62319  23.705  37.693   6.450
 8186POPC   D2A62320  23.725  37.668   6.750
 8186POPC   C3A62321  23.732  37.678   7.050
 8186POPC   C4A62322  23.762  37.717   7.350
 8186POPC   C1B62323  23.490  37.681   6.450
 8186POPC   C2B62324  23.465  37.687   6.750
 8186POPC   C3B62325  23.428  37.655   7.050
 8186POPC   C4B62326  23.419  37.670   7.350
 8187POPC   NC362327  32.996  22.170   5.550
 8187POPC   PO462328  33.044  22.116   5.850
 8187POPC   GL162329  33.004  22.202   6.150
 8187POPC   GL262330  33.127  22.115   6.150
 8187POPC   C1A62331  33.065  22.163   6.450
 8187POPC   D2A62332  32.984  22.151   6.750
 8187POPC   C3A62333  33.039  22.211   7.050
 8187POPC   C4A62334  33.051  22.138   7.350
 8187POPC   C1B62335  33.175  22.030   6.450
 8187POPC   C2B62336  33.236  22.052   6.750
 8187POPC   C3B62337  33.252  21.988   7.050
 8187POPC   C4B62338  33.211  22.005   7.350
 8188POPC   NC362339  31.454  31.507   5.550
 8188POPC   PO462340  31.511  31.455   5.850
 8188POPC   GL162341  31.507  31.489   6.150
 8188POPC   GL262342  31.561  31.563   6.150
 8188POPC   C1A62343  31.496  31.467   6.450
 8188POPC   D2A62344  31.456  31.473   6.750
 8188POPC   C3A62345  31.494  31.449   7.050
 8188POPC   C4A62346  31.452  31.430   7.350
 8188POPC   C1B62347  31.665  31.634   6.450
 8188POPC   C2B62348  31.679  31.638   6.750
 8188POPC   C3B62349  31.679  31.644   7.050
 8188POPC   C4B62350  31.631  31.642   7.350
 8189POPC   NC362351  10.549  32.979   5.550
 8189POPC   PO462352  10.514  32.987   5.850
 8189POPC   GL162353  10.497  33.026   6.150
 8189POPC   GL262354  10.443  33.105   6.150
 8189POPC   C1A62355  10.503  33.060   6.450
 8189POPC   D2A62356  10.512  33.038   6.750
 8189POPC   C3A62357  10.554  32.980   7.050
 8189POPC   C4A62358  10.526  33.061   7.350
 8189POPC   C1B62359  10.440  33.242   6.450
 8189POPC   C2B62360  10.435  33.233   6.750
 8189POPC   C3B62361  10.443  33.242   7.050
 8189POPC   C4B62362  10.406  33.262   7.350
 8190POPC   NC362363  36.895  30.665   5.550
 8190POPC   PO462364  36.926  30.727   5.850
 8190POPC   GL162365  36.894  30.676   6.150
 8190POPC   GL262366  37.012  30.772   6.150
 8190POPC   C1A62367  36.909  30.667   6.450
 8190POPC   D2A62368  36.912  30.678   6.750
 8190POPC   C3A62369  36.913  30.657   7.050
 8190POPC   C4A62370  36.858  30.742   7.350
 8190POPC   C1B62371  37.096  30.863   6.450
 8190POPC   C2B62372  37.060  30.881   6.750
 8190POPC   C3B62373  37.139  30.869   7.050
 8190POPC   C4B62374  37.100  30.885   7.350
 8191POPC   NC362375  11.270  29.915   5.550
 8191POPC   PO462376  11.299  29.925   5.850
 8191POPC   GL162377  11.348  29.936   6.150
 8191POPC   GL262378  11.294  30.058   6.150
 8191POPC   C1A62379  11.261  29.872   6.450
 8191POPC   D2A62380  11.337  29.899   6.750
 8191POPC   C3A62381  11.253  29.963   7.050
 8191POPC   C4A62382  11.260  29.930   7.350
 8191POPC   C1B62383  11.291  30.220   6.450
 8191POPC   C2B62384  11.255  30.214   6.750
 8191POPC   C3B62385  11.335  30.171   7.050
 8191POPC   C4B62386  11.241  30.172   7.350
 8192POPC   NC362387   4.315  41.587   5.550
 8192POPC   PO462388   4.350  41.597   5.850
 8192POPC   GL162389   4.311  41.555   6.150
 8192POPC   GL262390   4.413  41.682   6.150
 8192POPC   C1A62391   4.269  41.526   6.450
 8192POPC   D2A62392   4.338  41.578   6.750
 8192POPC   C3A62393   4.280  41.519   7.050
 8192POPC   C4A62394   4.312  41.544   7.350
 8192POPC   C1B62395   4.477  41.720   6.450
 8192POPC   C2B62396   4.470  41.698   6.750
 8192POPC   C3B62397   4.460  41.724   7.050
 8192POPC   C4B62398   4.548  41.689   7.350
 8193POPC   NC362399  21.354  22.128   5.550
 8193POPC   PO462400  21.345  22.201   5.850
 8193POPC   GL162401  21.389  22.196   6.150
 8193POPC   GL262402  21.291  22.253   6.150
 8193POPC   C1A62403  21.352  22.116   6.450
 8193POPC   D2A62404  21.430  22.136   6.750
 8193POPC   C3A62405  21.399  22.119   7.050
 8193POPC   C4A62406  21.352  22.127   7.350
 8193POPC   C1B62407  21.214  22.416   6.450
 8193POPC   C2B62408  21.195  22.343   6.750
 8193POPC   C3B62409  21.275  22.358   7.050
 8193POPC   C4B62410  21.218  22.412   7.350
 8194POPC   NC362411  43.070   5.063   5.550
 8194POPC   PO462412  43.141   5.094   5.850
 8194POPC   GL162413  43.131   5.089   6.150
 8194POPC   GL262414  43.016   5.106   6.150
 8194POPC   C1A62415  43.158   5.062   6.450
 8194POPC   D2A62416  43.146   5.050   6.750
 8194POPC   C3A62417  43.090   5.089   7.050
 8194POPC   C4A62418  43.077   5.054   7.350
 8194POPC   C1B62419  42.861   5.090   6.450
 8194POPC   C2B62420  42.834   5.084   6.750
 8194POPC   C3B62421  42.846   5.087   7.050
 8194POPC   C4B62422  42.876   5.076   7.350
 8195POPC   NC362423  41.565   0.453   5.550
 8195POPC   PO462424  41.568   0.467   5.850
 8195POPC   GL162425  41.525   0.388   6.150
 8195POPC   GL262426  41.495   0.332   6.150
 8195POPC   C1A62427  41.585   0.398   6.450
 8195POPC   D2A62428  41.571   0.415   6.750
 8195POPC   C3A62429  41.509   0.456   7.050
 8195POPC   C4A62430  41.516   0.446   7.350
 8195POPC   C1B62431  41.490   0.247   6.450
 8195POPC   C2B62432  41.401   0.229   6.750
 8195POPC   C3B62433  41.475   0.251   7.050
 8195POPC   C4B62434  41.391   0.212   7.350
 8196POPC   NC362435  37.663  15.132   5.550
 8196POPC   PO462436  37.720  15.215   5.850
 8196POPC   GL162437  37.685  15.178   6.150
 8196POPC   GL262438  37.809  15.230   6.150
 8196POPC   C1A62439  37.661  15.156   6.450
 8196POPC   D2A62440  37.672  15.161   6.750
 8196POPC   C3A62441  37.652  15.182   7.050
 8196POPC   C4A62442  37.704  15.212   7.350
 8196POPC   C1B62443  37.870  15.287   6.450
 8196POPC   C2B62444  37.875  15.286   6.750
 8196POPC   C3B62445  37.924  15.274   7.050
 8196POPC   C4B62446  37.911  15.274   7.350
 8197POPC   NC362447  29.176  30.728   5.550
 8197POPC   PO462448  29.111  30.668   5.850
 8197POPC   GL162449  29.124  30.670   6.150
 8197POPC   GL262450  29.219  30.733   6.150
 8197POPC   C1A62451  29.174  30.702   6.450
 8197POPC   D2A62452  29.153  30.653   6.750
 8197POPC   C3A62453  29.176  30.734   7.050
 8197POPC   C4A62454  29.121  30.744   7.350
 8197POPC   C1B62455  29.438  30.750   6.450
 8197POPC   C2B62456  29.393  30.699   6.750
 8197POPC   C3B62457  29.408  30.696   7.050
 8197POPC   C4B62458  29.400  30.756   7.350
 8198POPC   NC362459   2.030   7.445   5.550
 8198POPC   PO462460   2.009   7.400   5.850
 8198POPC   GL162461   2.000   7.441   6.150
 8198POPC   GL262462   2.129   7.359   6.150
 8198POPC   C1A62463   1.980   7.441   6.450
 8198POPC   D2A62464   2.029   7.382   6.750
 8198POPC   C3A62465   1.971   7.450   7.050
 8198POPC   C4A62466   2.032   7.418   7.350
 8198POPC   C1B62467   2.193   7.236   6.450
 8198POPC   C2B62468   2.225   7.267   6.750
 8198POPC   C3B62469   2.204   7.259   7.050
 8198POPC   C4B62470   2.152   7.230   7.350
 8199POPC   NC362471  17.492   5.833   5.550
 8199POPC   PO462472  17.518   5.908   5.850
 8199POPC   GL162473  17.468   5.824   6.150
 8199POPC   GL262474  17.678   5.906   6.150
 8199POPC   C1A62475  17.508   5.913   6.450
 8199POPC   D2A62476  17.511   5.828   6.750
 8199POPC   C3A62477  17.494   5.885   7.050
 8199POPC   C4A62478  17.474   5.911   7.350
 8199POPC   C1B62479  17.737   5.908   6.450
 8199POPC   C2B62480  17.743   5.903   6.750
 8199POPC   C3B62481  17.712   5.916   7.050
 8199POPC   C4B62482  17.735   5.841   7.350
 8200POPC   NC362483  28.364   8.994   5.550
 8200POPC   PO462484  28.396   9.018   5.850
 8200POPC   GL162485  28.357   9.014   6.150
 8200POPC   GL262486  28.522   8.891   6.150
 8200POPC   C1A62487  28.411   8.994   6.450
 8200POPC   D2A62488  28.361   9.003   6.750
 8200POPC   C3A62489  28.391   8.976   7.050
 8200POPC   C4A62490  28.413   9.002   7.350
 8200POPC   C1B62491  28.557   8.849   6.450
 8200POPC   C2B62492  28.576   8.862   6.750
 8200POPC   C3B62493  28.606   8.875   7.050
 8200POPC   C4B62494  28.626   8.824   7.350
 8201POPC   NC362495  17.497   0.433   5.550
 8201POPC   PO462496  17.498   0.449   5.850
 8201POPC   GL162497  17.548   0.474   6.150
 8201POPC   GL262498  17.575   0.570   6.150
 8201POPC   C1A62499  17.547   0.462   6.450
 8201POPC   D2A62500  17.487   0.455   6.750
 8201POPC   C3A62501  17.472   0.427   7.050
 8201POPC   C4A62502  17.523   0.390   7.350
 8201POPC   C1B62503  17.644   0.664   6.450
 8201POPC   C2B62504  17.685   0.645   6.750
 8201POPC   C3B62505  17.649   0.644   7.050
 8201POPC   C4B62506  17.638   0.628   7.350
 8202POPC   NC362507   5.062  15.918   5.550
 8202POPC   PO462508   5.093  15.964   5.850
 8202POPC   GL162509   5.092  15.999   6.150
 8202POPC   GL262510   5.110  16.053   6.150
 8202POPC   C1A62511   5.126  15.976   6.450
 8202POPC   D2A62512   5.124  15.913   6.750
 8202POPC   C3A62513   5.056  15.952   7.050
 8202POPC   C4A62514   5.112  15.993   7.350
 8202POPC   C1B62515   5.083  16.169   6.450
 8202POPC   C2B62516   5.054  16.251   6.750
 8202POPC   C3B62517   5.129  16.223   7.050
 8202POPC   C4B62518   5.112  16.241   7.350
 8203POPC   NC362519  40.780  12.827   5.550
 8203POPC   PO462520  40.818  12.896   5.850
 8203POPC   GL162521  40.829  12.846   6.150
 8203POPC   GL262522  40.925  12.840   6.150
 8203POPC   C1A62523  40.758  12.847   6.450
 8203POPC   D2A62524  40.829  12.899   6.750
 8203POPC   C3A62525  40.821  12.855   7.050
 8203POPC   C4A62526  40.787  12.847   7.350
 8203POPC   C1B62527  41.073  12.927   6.450
 8203POPC   C2B62528  41.007  12.868   6.750
 8203POPC   C3B62529  41.035  12.883   7.050
 8203POPC   C4B62530  41.045  12.879   7.350
 8204POPC   NC362531   2.009  34.612   5.550
 8204POPC   PO462532   1.958  34.584   5.850
 8204POPC   GL162533   1.949  34.571   6.150
 8204POPC   GL262534   2.143  34.559   6.150
 8204POPC   C1A62535   1.943  34.556   6.450
 8204POPC   D2A62536   1.950  34.554   6.750
 8204POPC   C3A62537   2.024  34.527   7.050
 8204POPC   C4A62538   2.013  34.557   7.350
 8204POPC   C1B62539   2.267  34.624   6.450
 8204POPC   C2B62540   2.202  34.683   6.750
 8204POPC   C3B62541   2.231  34.633   7.050
 8204POPC   C4B62542   2.208  34.618   7.350
 8205POPC   NC362543  22.159  16.002   5.550
 8205POPC   PO462544  22.126  15.962   5.850
 8205POPC   GL162545  22.117  15.943   6.150
 8205POPC   GL262546  22.234  15.970   6.150
 8205POPC   C1A62547  22.153  15.963   6.450
 8205POPC   D2A62548  22.163  15.965   6.750
 8205POPC   C3A62549  22.145  15.970   7.050
 8205POPC   C4A62550  22.208  15.997   7.350
 8205POPC   C1B62551  22.441  15.864   6.450
 8205POPC   C2B62552  22.401  15.846   6.750
 8205POPC   C3B62553  22.450  15.858   7.050
 8205POPC   C4B62554  22.449  15.928   7.350
 8206POPC   NC362555   5.088  10.526   5.550
 8206POPC   PO462556   5.135  10.508   5.850
 8206POPC   GL162557   5.131  10.528   6.150
 8206POPC   GL262558   5.132  10.467   6.150
 8206POPC   C1A62559   5.119  10.475   6.450
 8206POPC   D2A62560   5.059  10.481   6.750
 8206POPC   C3A62561   5.054  10.547   7.050
 8206POPC   C4A62562   5.121  10.548   7.350
 8206POPC   C1B62563   5.289  10.348   6.450
 8206POPC   C2B62564   5.255  10.370   6.750
 8206POPC   C3B62565   5.224  10.299   7.050
 8206POPC   C4B62566   5.313  10.369   7.350
 8207POPC   NC362567  26.040  36.893   5.550
 8207POPC   PO462568  26.058  36.865   5.850
 8207POPC   GL162569  26.079  36.880   6.150
 8207POPC   GL262570  26.141  36.863   6.150
 8207POPC   C1A62571  26.002  36.892   6.450
 8207POPC   D2A62572  26.048  36.909   6.750
 8207POPC   C3A62573  26.076  36.867   7.050
 8207POPC   C4A62574  26.022  36.934   7.350
 8207POPC   C1B62575  26.220  36.745   6.450
 8207POPC   C2B62576  26.267  36.748   6.750
 8207POPC   C3B62577  26.226  36.720   7.050
 8207POPC   C4B62578  26.297  36.766   7.350
 8208POPC   NC362579   1.240  43.062   5.550
 8208POPC   PO462580   1.240  43.143   5.850
 8208POPC   GL162581   1.233  43.073   6.150
 8208POPC   GL262582   1.111  43.193   6.150
 8208POPC   C1A62583   1.244  43.095   6.450
 8208POPC   D2A62584   1.177  43.131   6.750
 8208POPC   C3A62585   1.173  43.127   7.050
 8208POPC   C4A62586   1.182  43.136   7.350
 8208POPC   C1B62587   1.042  43.299   6.450
 8208POPC   C2B62588   1.107  43.316   6.750
 8208POPC   C3B62589   1.032  43.288   7.050
 8208POPC   C4B62590   1.035  43.319   7.350
 8209POPC   NC362591  15.952  25.274   5.550
 8209POPC   PO462592  15.933  25.298   5.850
 8209POPC   GL162593  15.917  25.224   6.150
 8209POPC   GL262594  15.863  25.210   6.150
 8209POPC   C1A62595  15.935  25.292   6.450
 8209POPC   D2A62596  15.989  25.294   6.750
 8209POPC   C3A62597  15.972  25.232   7.050
 8209POPC   C4A62598  15.907  25.246   7.350
 8209POPC   C1B62599  15.753  25.119   6.450
 8209POPC   C2B62600  15.737  25.095   6.750
 8209POPC   C3B62601  15.728  25.076   7.050
 8209POPC   C4B62602  15.798  25.071   7.350
 8210POPC   NC362603  33.754  36.095   5.550
 8210POPC   PO462604  33.814  36.131   5.850
 8210POPC   GL162605  33.774  36.147   6.150
 8210POPC   GL262606  33.877  36.234   6.150
 8210POPC   C1A62607  33.814  36.118   6.450
 8210POPC   D2A62608  33.777  36.122   6.750
 8210POPC   C3A62609  33.790  36.141   7.050
 8210POPC   C4A62610  33.844  36.163   7.350
 8210POPC   C1B62611  33.902  36.397   6.450
 8210POPC   C2B62612  33.909  36.383   6.750
 8210POPC   C3B62613  33.929  36.317   7.050
 8210POPC   C4B62614  33.914  36.327   7.350
 8211POPC   NC362615  44.705  13.614   5.550
 8211POPC   PO462616  44.688  13.625   5.850
 8211POPC   GL162617  44.710  13.646   6.150
 8211POPC   GL262618  44.812  13.569   6.150
 8211POPC   C1A62619  44.708  13.595   6.450
 8211POPC   D2A62620  44.663  13.612   6.750
 8211POPC   C3A62621  44.663  13.643   7.050
 8211POPC   C4A62622  44.614  13.633   7.350
 8211POPC   C1B62623  44.915  13.514   6.450
 8211POPC   C2B62624  44.852  13.460   6.750
 8211POPC   C3B62625  44.895  13.523   7.050
 8211POPC   C4B62626  44.868  13.480   7.350
 8212POPC   NC362627  14.422  36.922   5.550
 8212POPC   PO462628  14.422  36.867   5.850
 8212POPC   GL162629  14.379  36.915   6.150
 8212POPC   GL262630  14.480  36.992   6.150
 8212POPC   C1A62631  14.368  36.918   6.450
 8212POPC   D2A62632  14.432  36.911   6.750
 8212POPC   C3A62633  14.432  36.893   7.050
 8212POPC   C4A62634  14.383  36.869   7.350
 8212POPC   C1B62635  14.472  37.107   6.450
 8212POPC   C2B62636  14.526  37.090   6.750
 8212POPC   C3B62637  14.535  37.142   7.050
 8212POPC   C4B62638  14.467  37.086   7.350
 8213POPC   NC362639  14.425   2.802   5.550
 8213POPC   PO462640  14.354   2.778   5.850
 8213POPC   GL162641  14.419   2.746   6.150
 8213POPC   GL262642  14.301   2.680   6.150
 8213POPC   C1A62643  14.388   2.746   6.450
 8213POPC   D2A62644  14.417   2.749   6.750
 8213POPC   C3A62645  14.436   2.808   7.050
 8213POPC   C4A62646  14.444   2.734   7.350
 8213POPC   C1B62647  14.198   2.628   6.450
 8213POPC   C2B62648  14.277   2.620   6.750
 8213POPC   C3B62649  14.264   2.557   7.050
 8213POPC   C4B62650  14.248   2.596   7.350
 8214POPC   NC362651  29.098  39.273   5.550
 8214POPC   PO462652  29.149  39.192   5.850
 8214POPC   GL162653  29.116  39.212   6.150
 8214POPC   GL262654  29.284  39.244   6.150
 8214POPC   C1A62655  29.178  39.264   6.450
 8214POPC   D2A62656  29.182  39.195   6.750
 8214POPC   C3A62657  29.179  39.211   7.050
 8214POPC   C4A62658  29.174  39.201   7.350
 8214POPC   C1B62659  29.364  39.343   6.450
 8214POPC   C2B62660  29.343  39.303   6.750
 8214POPC   C3B62661  29.382  39.347   7.050
 8214POPC   C4B62662  29.336  39.281   7.350
 8215POPC   NC362663  38.447  19.026   5.550
 8215POPC   PO462664  38.416  19.017   5.850
 8215POPC   GL162665  38.443  19.046   6.150
 8215POPC   GL262666  38.340  19.122   6.150
 8215POPC   C1A62667  38.475  19.012   6.450
 8215POPC   D2A62668  38.477  19.104   6.750
 8215POPC   C3A62669  38.505  19.016   7.050
 8215POPC   C4A62670  38.419  19.077   7.350
 8215POPC   C1B62671  38.240  19.259   6.450
 8215POPC   C2B62672  38.294  19.183   6.750
 8215POPC   C3B62673  38.258  19.173   7.050
 8215POPC   C4B62674  38.259  19.252   7.350
 8216POPC   NC362675   3.588  32.279   5.550
 8216POPC   PO462676   3.519  32.266   5.850
 8216POPC   GL162677   3.571  32.210   6.150
 8216POPC   GL262678   3.690  32.218   6.150
 8216POPC   C1A62679   3.518  32.254   6.450
 8216POPC   D2A62680   3.590  32.257   6.750
 8216POPC   C3A62681   3.568  32.270   7.050
 8216POPC   C4A62682   3.555  32.206   7.350
 8216POPC   C1B62683   3.770  32.172   6.450
 8216POPC   C2B62684   3.763  32.113   6.750
 8216POPC   C3B62685   3.793  32.137   7.050
 8216POPC   C4B62686   3.822  32.140   7.350
 8217POPC   NC362687  19.084  40.035   5.550
 8217POPC   PO462688  19.068  39.983   5.850
 8217POPC   GL162689  19.063  40.026   6.150
 8217POPC   GL262690  18.923  39.938   6.150
 8217POPC   C1A62691  19.034  40.016   6.450
 8217POPC   D2A62692  19.075  39.998   6.750
 8217POPC   C3A62693  19.014  40.030   7.050
 8217POPC   C4A62694  19.077  39.965   7.350
 8217POPC   C1B62695  18.814  39.932   6.450
 8217POPC   C2B62696  18.817  39.910   6.750
 8217POPC   C3B62697  18.784  39.966   7.050
 8217POPC   C4B62698  18.777  39.973   7.350
 8218POPC   NC362699  12.887  31.426   5.550
 8218POPC   PO462700  12.812  31.430   5.850
 8218POPC   GL162701  12.856  31.498   6.150
 8218POPC   GL262702  12.779  31.607   6.150
 8218POPC   C1A62703  12.899  31.431   6.450
 8218POPC   D2A62704  12.889  31.519   6.750
 8218POPC   C3A62705  12.843  31.497   7.050
 8218POPC   C4A62706  12.819  31.426   7.350
 8218POPC   C1B62707  12.737  31.738   6.450
 8218POPC   C2B62708  12.796  31.732   6.750
 8218POPC   C3B62709  12.790  31.690   7.050
 8218POPC   C4B62710  12.823  31.697   7.350
 8219POPC   NC362711  26.084  32.199   5.550
 8219POPC   PO462712  26.047  32.220   5.850
 8219POPC   GL162713  26.009  32.265   6.150
 8219POPC   GL262714  25.996  32.317   6.150
 8219POPC   C1A62715  26.076  32.283   6.450
 8219POPC   D2A62716  26.036  32.201   6.750
 8219POPC   C3A62717  26.088  32.263   7.050
 8219POPC   C4A62718  26.008  32.241   7.350
 8219POPC   C1B62719  25.952  32.509   6.450
 8219POPC   C2B62720  25.900  32.518   6.750
 8219POPC   C3B62721  25.921  32.512   7.050
 8219POPC   C4B62722  25.964  32.468   7.350
 8220POPC   NC362723   5.861  12.840   5.550
 8220POPC   PO462724   5.900  12.896   5.850
 8220POPC   GL162725   5.851  12.889   6.150
 8220POPC   GL262726   5.805  12.785   6.150
 8220POPC   C1A62727   5.868  12.846   6.450
 8220POPC   D2A62728   5.912  12.893   6.750
 8220POPC   C3A62729   5.886  12.818   7.050
 8220POPC   C4A62730   5.910  12.840   7.350
 8220POPC   C1B62731   5.784  12.679   6.450
 8220POPC   C2B62732   5.763  12.610   6.750
 8220POPC   C3B62733   5.769  12.627   7.050
 8220POPC   C4B62734   5.783  12.632   7.350
 8221POPC   NC362735  42.314  44.668   5.550
 8221POPC   PO462736  42.361  44.673   5.850
 8221POPC   GL162737  42.357  44.658   6.150
 8221POPC   GL262738  42.229  44.629   6.150
 8221POPC   C1A62739  42.337  44.682   6.450
 8221POPC   D2A62740  42.379  44.624   6.750
 8221POPC   C3A62741  42.298  44.622   7.050
 8221POPC   C4A62742  42.296  44.705   7.350
 8221POPC   C1B62743  42.096  44.652   6.450
 8221POPC   C2B62744  42.098  44.652   6.750
 8221POPC   C3B62745  42.043  44.583   7.050
 8221POPC   C4B62746  42.037  44.662   7.350
 8222POPC   NC362747  19.107  21.411   5.550
 8222POPC   PO462748  19.062  21.348   5.850
 8222POPC   GL162749  19.097  21.367   6.150
 8222POPC   GL262750  19.166  21.528   6.150
 8222POPC   C1A62751  19.065  21.370   6.450
 8222POPC   D2A62752  19.087  21.362   6.750
 8222POPC   C3A62753  19.071  21.383   7.050
 8222POPC   C4A62754  19.042  21.396   7.350
 8222POPC   C1B62755  19.178  21.578   6.450
 8222POPC   C2B62756  19.160  21.585   6.750
 8222POPC   C3B62757  19.228  21.628   7.050
 8222POPC   C4B62758  19.195  21.583   7.350
 8223POPC   NC362759   4.282  30.685   5.550
 8223POPC   PO462760   4.355  30.658   5.850
 8223POPC   GL162761   4.333  30.709   6.150
 8223POPC   GL262762   4.251  30.585   6.150
 8223POPC   C1A62763   4.339  30.683   6.450
 8223POPC   D2A62764   4.306  30.744   6.750
 8223POPC   C3A62765   4.359  30.745   7.050
 8223POPC   C4A62766   4.339  30.652   7.350
 8223POPC   C1B62767   4.180  30.547   6.450
 8223POPC   C2B62768   4.114  30.537   6.750
 8223POPC   C3B62769   4.176  30.524   7.050
 8223POPC   C4B62770   4.181  30.531   7.350
 8224POPC   NC362771  11.303  10.535   5.550
 8224POPC   PO462772  11.300  10.551   5.850
 8224POPC   GL162773  11.272  10.555   6.150
 8224POPC   GL262774  11.223  10.535   6.150
 8224POPC   C1A62775  11.265  10.490   6.450
 8224POPC   D2A62776  11.308  10.542   6.750
 8224POPC   C3A62777  11.325  10.555   7.050
 8224POPC   C4A62778  11.334  10.557   7.350
 8224POPC   C1B62779  11.072  10.491   6.450
 8224POPC   C2B62780  11.084  10.446   6.750
 8224POPC   C3B62781  11.062  10.459   7.050
 8224POPC   C4B62782  11.085  10.481   7.350
 8225POPC   NC362783  26.020  23.664   5.550
 8225POPC   PO462784  26.022  23.667   5.850
 8225POPC   GL162785  26.031  23.687   6.150
 8225POPC   GL262786  25.932  23.757   6.150
 8225POPC   C1A62787  26.027  23.701   6.450
 8225POPC   D2A62788  26.039  23.692   6.750
 8225POPC   C3A62789  26.038  23.754   7.050
 8225POPC   C4A62790  25.998  23.741   7.350
 8225POPC   C1B62791  25.840  23.868   6.450
 8225POPC   C2B62792  25.816  23.869   6.750
 8225POPC   C3B62793  25.815  23.906   7.050
 8225POPC   C4B62794  25.858  23.813   7.350
 8226POPC   NC362795  16.705  25.999   5.550
 8226POPC   PO462796  16.738  26.058   5.850
 8226POPC   GL162797  16.760  26.035   6.150
 8226POPC   GL262798  16.733  26.135   6.150
 8226POPC   C1A62799  16.769  26.056   6.450
 8226POPC   D2A62800  16.737  26.060   6.750
 8226POPC   C3A62801  16.718  26.006   7.050
 8226POPC   C4A62802  16.724  26.051   7.350
 8226POPC   C1B62803  16.724  26.307   6.450
 8226POPC   C2B62804  16.746  26.265   6.750
 8226POPC   C3B62805  16.781  26.260   7.050
 8226POPC   C4B62806  16.726  26.331   7.350
 8227POPC   NC362807  18.311  14.443   5.550
 8227POPC   PO462808  18.311  14.445   5.850
 8227POPC   GL162809  18.255  14.436   6.150
 8227POPC   GL262810  18.167  14.323   6.150
 8227POPC   C1A62811  18.286  14.440   6.450
 8227POPC   D2A62812  18.241  14.446   6.750
 8227POPC   C3A62813  18.292  14.368   7.050
 8227POPC   C4A62814  18.304  14.452   7.350
 8227POPC   C1B62815  18.060  14.368   6.450
 8227POPC   C2B62816  18.046  14.350   6.750
 8227POPC   C3B62817  18.036  14.326   7.050
 8227POPC   C4B62818  18.031  14.328   7.350
 8228POPC   NC362819  30.737  30.653   5.550
 8228POPC   PO462820  30.709  30.690   5.850
 8228POPC   GL162821  30.688  30.703   6.150
 8228POPC   GL262822  30.554  30.735   6.150
 8228POPC   C1A62823  30.718  30.657   6.450
 8228POPC   D2A62824  30.743  30.717   6.750
 8228POPC   C3A62825  30.734  30.716   7.050
 8228POPC   C4A62826  30.701  30.679   7.350
 8228POPC   C1B62827  30.410  30.682   6.450
 8228POPC   C2B62828  30.404  30.630   6.750
 8228POPC   C3B62829  30.434  30.713   7.050
 8228POPC   C4B62830  30.436  30.672   7.350
 8229POPC   NC362831  12.102  36.093   5.550
 8229POPC   PO462832  12.082  36.116   5.850
 8229POPC   GL162833  12.066  36.098   6.150
 8229POPC   GL262834  12.011  36.287   6.150
 8229POPC   C1A62835  12.079  36.094   6.450
 8229POPC   D2A62836  12.074  36.079   6.750
 8229POPC   C3A62837  12.068  36.164   7.050
 8229POPC   C4A62838  12.033  36.097   7.350
 8229POPC   C1B62839  11.951  36.351   6.450
 8229POPC   C2B62840  11.931  36.324   6.750
 8229POPC   C3B62841  11.971  36.390   7.050
 8229POPC   C4B62842  11.972  36.354   7.350
 8230POPC   NC362843  11.346  30.730   5.550
 8230POPC   PO462844  11.274  30.713   5.850
 8230POPC   GL162845  11.280  30.715   6.150
 8230POPC   GL262846  11.414  30.744   6.150
 8230POPC   C1A62847  11.327  30.709   6.450
 8230POPC   D2A62848  11.322  30.693   6.750
 8230POPC   C3A62849  11.331  30.659   7.050
 8230POPC   C4A62850  11.288  30.673   7.350
 8230POPC   C1B62851  11.495  30.827   6.450
 8230POPC   C2B62852  11.509  30.879   6.750
 8230POPC   C3B62853  11.478  30.810   7.050
 8230POPC   C4B62854  11.482  30.833   7.350
 8231POPC   NC362855  22.984  22.980   5.550
 8231POPC   PO462856  22.895  22.962   5.850
 8231POPC   GL162857  22.974  22.972   6.150
 8231POPC   GL262858  23.098  22.948   6.150
 8231POPC   C1A62859  22.890  22.913   6.450
 8231POPC   D2A62860  22.971  22.917   6.750
 8231POPC   C3A62861  22.952  22.901   7.050
 8231POPC   C4A62862  22.923  22.921   7.350
 8231POPC   C1B62863  23.212  22.873   6.450
 8231POPC   C2B62864  23.175  22.929   6.750
 8231POPC   C3B62865  23.200  22.861   7.050
 8231POPC   C4B62866  23.220  22.931   7.350
 8232POPC   NC362867  41.525  36.949   5.550
 8232POPC   PO462868  41.566  36.927   5.850
 8232POPC   GL162869  41.525  36.855   6.150
 8232POPC   GL262870  41.572  37.046   6.150
 8232POPC   C1A62871  41.561  36.896   6.450
 8232POPC   D2A62872  41.540  36.867   6.750
 8232POPC   C3A62873  41.607  36.882   7.050
 8232POPC   C4A62874  41.567  36.897   7.350
 8232POPC   C1B62875  41.517  37.167   6.450
 8232POPC   C2B62876  41.506  37.166   6.750
 8232POPC   C3B62877  41.529  37.163   7.050
 8232POPC   C4B62878  41.496  37.130   7.350
 8233POPC   NC362879  28.407  22.190   5.550
 8233POPC   PO462880  28.407  22.181   5.850
 8233POPC   GL162881  28.337  22.208   6.150
 8233POPC   GL262882  28.509  22.256   6.150
 8233POPC   C1A62883  28.329  22.189   6.450
 8233POPC   D2A62884  28.404  22.119   6.750
 8233POPC   C3A62885  28.378  22.120   7.050
 8233POPC   C4A62886  28.354  22.137   7.350
 8233POPC   C1B62887  28.566  22.349   6.450
 8233POPC   C2B62888  28.602  22.366   6.750
 8233POPC   C3B62889  28.558  22.324   7.050
 8233POPC   C4B62890  28.555  22.304   7.350
 8234POPC   NC362891  22.199  11.257   5.550
 8234POPC   PO462892  22.115  11.297   5.850
 8234POPC   GL162893  22.204  11.325   6.150
 8234POPC   GL262894  22.259  11.241   6.150
 8234POPC   C1A62895  22.133  11.302   6.450
 8234POPC   D2A62896  22.143  11.263   6.750
 8234POPC   C3A62897  22.128  11.263   7.050
 8234POPC   C4A62898  22.177  11.310   7.350
 8234POPC   C1B62899  22.386  11.176   6.450
 8234POPC   C2B62900  22.385  11.168   6.750
 8234POPC   C3B62901  22.311  11.163   7.050
 8234POPC   C4B62902  22.363  11.175   7.350
 8235POPC   NC362903  19.812  36.903   5.550
 8235POPC   PO462904  19.794  36.893   5.850
 8235POPC   GL162905  19.839  36.930   6.150
 8235POPC   GL262906  19.896  36.973   6.150
 8235POPC   C1A62907  19.867  36.948   6.450
 8235POPC   D2A62908  19.796  36.921   6.750
 8235POPC   C3A62909  19.794  36.918   7.050
 8235POPC   C4A62910  19.797  36.855   7.350
 8235POPC   C1B62911  19.957  37.119   6.450
 8235POPC   C2B62912  19.984  37.082   6.750
 8235POPC   C3B62913  19.934  37.148   7.050
 8235POPC   C4B62914  19.946  37.138   7.350
 8236POPC   NC362915  24.458  26.000   5.550
 8236POPC   PO462916  24.487  26.038   5.850
 8236POPC   GL162917  24.456  26.041   6.150
 8236POPC   GL262918  24.563  26.114   6.150
 8236POPC   C1A62919  24.490  26.033   6.450
 8236POPC   D2A62920  24.459  26.009   6.750
 8236POPC   C3A62921  24.533  25.993   7.050
 8236POPC   C4A62922  24.499  26.054   7.350
 8236POPC   C1B62923  24.773  26.109   6.450
 8236POPC   C2B62924  24.746  26.083   6.750
 8236POPC   C3B62925  24.750  26.095   7.050
 8236POPC   C4B62926  24.764  26.114   7.350
 8237POPC   NC362927  30.734  21.364   5.550
 8237POPC   PO462928  30.647  21.399   5.850
 8237POPC   GL162929  30.667  21.429   6.150
 8237POPC   GL262930  30.608  21.269   6.150
 8237POPC   C1A62931  30.740  21.358   6.450
 8237POPC   D2A62932  30.706  21.405   6.750
 8237POPC   C3A62933  30.677  21.416   7.050
 8237POPC   C4A62934  30.707  21.340   7.350
 8237POPC   C1B62935  30.634  21.132   6.450
 8237POPC   C2B62936  30.598  21.147   6.750
 8237POPC   C3B62937  30.606  21.127   7.050
 8237POPC   C4B62938  30.592  21.138   7.350
 8238POPC   NC362939  36.157   4.279   5.550
 8238POPC   PO462940  36.176   4.277   5.850
 8238POPC   GL162941  36.170   4.276   6.150
 8238POPC   GL262942  36.085   4.211   6.150
 8238POPC   C1A62943  36.172   4.351   6.450
 8238POPC   D2A62944  36.085   4.324   6.750
 8238POPC   C3A62945  36.097   4.269   7.050
 8238POPC   C4A62946  36.093   4.294   7.350
 8238POPC   C1B62947  36.010   4.127   6.450
 8238POPC   C2B62948  35.974   4.167   6.750
 8238POPC   C3B62949  35.966   4.126   7.050
 8238POPC   C4B62950  35.935   4.113   7.350
 8239POPC   NC362951  29.958  40.019   5.550
 8239POPC   PO462952  29.883  40.021   5.850
 8239POPC   GL162953  29.948  40.014   6.150
 8239POPC   GL262954  29.826  40.118   6.150
 8239POPC   C1A62955  29.934  40.028   6.450
 8239POPC   D2A62956  29.898  39.990   6.750
 8239POPC   C3A62957  29.923  40.005   7.050
 8239POPC   C4A62958  29.931  40.029   7.350
 8239POPC   C1B62959  29.722  40.238   6.450
 8239POPC   C2B62960  29.716  40.225   6.750
 8239POPC   C3B62961  29.717  40.158   7.050
 8239POPC   C4B62962  29.777  40.202   7.350
 8240POPC   NC362963  27.601  25.262   5.550
 8240POPC   PO462964  27.626  25.222   5.850
 8240POPC   GL162965  27.577  25.305   6.150
 8240POPC   GL262966  27.706  25.348   6.150
 8240POPC   C1A62967  27.574  25.296   6.450
 8240POPC   D2A62968  27.626  25.245   6.750
 8240POPC   C3A62969  27.625  25.287   7.050
 8240POPC   C4A62970  27.640  25.291   7.350
 8240POPC   C1B62971  27.749  25.441   6.450
 8240POPC   C2B62972  27.847  25.402   6.750
 8240POPC   C3B62973  27.803  25.454   7.050
 8240POPC   C4B62974  27.775  25.440   7.350
 8241POPC   NC362975  29.918   7.433   5.550
 8241POPC   PO462976  29.898   7.437   5.850
 8241POPC   GL162977  29.875   7.439   6.150
 8241POPC   GL262978  29.804   7.519   6.150
 8241POPC   C1A62979  29.945   7.460   6.450
 8241POPC   D2A62980  29.892   7.438   6.750
 8241POPC   C3A62981  29.890   7.442   7.050
 8241POPC   C4A62982  29.897   7.428   7.350
 8241POPC   C1B62983  29.691   7.542   6.450
 8241POPC   C2B62984  29.693   7.531   6.750
 8241POPC   C3B62985  29.685   7.518   7.050
 8241POPC   C4B62986  29.680   7.543   7.350
 8242POPC   NC362987  15.933  11.304   5.550
 8242POPC   PO462988  15.946  11.304   5.850
 8242POPC   GL162989  16.002  11.341   6.150
 8242POPC   GL262990  16.018  11.356   6.150
 8242POPC   C1A62991  15.999  11.315   6.450
 8242POPC   D2A62992  16.005  11.283   6.750
 8242POPC   C3A62993  15.982  11.336   7.050
 8242POPC   C4A62994  15.938  11.262   7.350
 8242POPC   C1B62995  16.065  11.458   6.450
 8242POPC   C2B62996  16.091  11.520   6.750
 8242POPC   C3B62997  16.093  11.483   7.050
 8242POPC   C4B62998  16.092  11.515   7.350
 8243POPC   NC362999   1.185  21.414   5.550
 8243POPC   PO463000   1.221  21.407   5.850
 8243POPC   GL163001   1.252  21.404   6.150
 8243POPC   GL263002   1.289  21.271   6.150
 8243POPC   C1A63003   1.232  21.426   6.450
 8243POPC   D2A63004   1.208  21.413   6.750
 8243POPC   C3A63005   1.232  21.421   7.050
 8243POPC   C4A63006   1.207  21.368   7.350
 8243POPC   C1B63007   1.388  21.251   6.450
 8243POPC   C2B63008   1.358  21.172   6.750
 8243POPC   C3B63009   1.435  21.245   7.050
 8243POPC   C4B63010   1.424  21.262   7.350
 8244POPC   NC363011  26.036  20.590   5.550
 8244POPC   PO463012  26.009  20.589   5.850
 8244POPC   GL163013  26.003  20.581   6.150
 8244POPC   GL263014  26.028  20.687   6.150
 8244POPC   C1A63015  26.026  20.566   6.450
 8244POPC   D2A63016  25.996  20.620   6.750
 8244POPC   C3A63017  26.007  20.627   7.050
 8244POPC   C4A63018  26.086  20.636   7.350
 8244POPC   C1B63019  25.965  20.875   6.450
 8244POPC   C2B63020  25.991  20.843   6.750
 8244POPC   C3B63021  25.972  20.861   7.050
 8244POPC   C4B63022  25.953  20.870   7.350
 8245POPC   NC363023   4.303   8.965   5.550
 8245POPC   PO463024   4.270   8.948   5.850
 8245POPC   GL163025   4.354   8.933   6.150
 8245POPC   GL263026   4.438   8.909   6.150
 8245POPC   C1A63027   4.320   8.968   6.450
 8245POPC   D2A63028   4.341   9.022   6.750
 8245POPC   C3A63029   4.354   8.932   7.050
 8245POPC   C4A63030   4.314   8.965   7.350
 8245POPC   C1B63031   4.504   8.820   6.450
 8245POPC   C2B63032   4.499   8.838   6.750
 8245POPC   C3B63033   4.594   8.908   7.050
 8245POPC   C4B63034   4.591   8.849   7.350
 8246POPC   NC363035  19.064  33.798   5.550
 8246POPC   PO463036  19.052  33.785   5.850
 8246POPC   GL163037  19.092  33.770   6.150
 8246POPC   GL263038  19.150  33.817   6.150
 8246POPC   C1A63039  19.018  33.759   6.450
 8246POPC   D2A63040  19.105  33.772   6.750
 8246POPC   C3A63041  19.018  33.807   7.050
 8246POPC   C4A63042  19.105  33.840   7.350
 8246POPC   C1B63043  19.267  33.788   6.450
 8246POPC   C2B63044  19.285  33.811   6.750
 8246POPC   C3B63045  19.352  33.808   7.050
 8246POPC   C4B63046  19.290  33.783   7.350
 8247POPC   NC363047  34.596   8.184   5.550
 8247POPC   PO463048  34.572   8.225   5.850
 8247POPC   GL163049  34.570   8.152   6.150
 8247POPC   GL263050  34.609   8.103   6.150
 8247POPC   C1A63051  34.541   8.223   6.450
 8247POPC   D2A63052  34.584   8.235   6.750
 8247POPC   C3A63053  34.560   8.177   7.050
 8247POPC   C4A63054  34.617   8.180   7.350
 8247POPC   C1B63055  34.781   8.033   6.450
 8247POPC   C2B63056  34.784   8.010   6.750
 8247POPC   C3B63057  34.691   8.052   7.050
 8247POPC   C4B63058  34.697   7.972   7.350
 8248POPC   NC363059  43.885  39.959   5.550
 8248POPC   PO463060  43.848  40.029   5.850
 8248POPC   GL163061  43.876  39.991   6.150
 8248POPC   GL263062  43.817  39.890   6.150
 8248POPC   C1A63063  43.889  40.013   6.450
 8248POPC   D2A63064  43.870  39.966   6.750
 8248POPC   C3A63065  43.896  39.987   7.050
 8248POPC   C4A63066  43.878  39.962   7.350
 8248POPC   C1B63067  43.758  39.747   6.450
 8248POPC   C2B63068  43.763  39.820   6.750
 8248POPC   C3B63069  43.722  39.776   7.050
 8248POPC   C4B63070  43.740  39.755   7.350
 8249POPC   NC363071  17.484  31.425   5.550
 8249POPC   PO463072  17.493  31.426   5.850
 8249POPC   GL163073  17.518  31.511   6.150
 8249POPC   GL263074  17.644  31.557   6.150
 8249POPC   C1A63075  17.501  31.445   6.450
 8249POPC   D2A63076  17.523  31.512   6.750
 8249POPC   C3A63077  17.523  31.487   7.050
 8249POPC   C4A63078  17.489  31.482   7.350
 8249POPC   C1B63079  17.758  31.579   6.450
 8249POPC   C2B63080  17.695  31.596   6.750
 8249POPC   C3B63081  17.752  31.597   7.050
 8249POPC   C4B63082  17.751  31.570   7.350
 8250POPC   NC363083  39.204  40.804   5.550
 8250POPC   PO463084  39.254  40.827   5.850
 8250POPC   GL163085  39.210  40.831   6.150
 8250POPC   GL263086  39.327  40.926   6.150
 8250POPC   C1A63087  39.185  40.734   6.450
 8250POPC   D2A63088  39.281  40.767   6.750
 8250POPC   C3A63089  39.246  40.750   7.050
 8250POPC   C4A63090  39.253  40.794   7.350
 8250POPC   C1B63091  39.381  41.013   6.450
 8250POPC   C2B63092  39.346  41.030   6.750
 8250POPC   C3B63093  39.340  41.022   7.050
 8250POPC   C4B63094  39.334  40.955   7.350
 8251POPC   NC363095  33.840   9.739   5.550
 8251POPC   PO463096  33.751   9.766   5.850
 8251POPC   GL163097  33.807   9.753   6.150
 8251POPC   GL263098  33.840   9.862   6.150
 8251POPC   C1A63099  33.777   9.776   6.450
 8251POPC   D2A63100  33.805   9.777   6.750
 8251POPC   C3A63101  33.774   9.752   7.050
 8251POPC   C4A63102  33.844   9.781   7.350
 8251POPC   C1B63103  33.892   9.940   6.450
 8251POPC   C2B63104  33.839   9.974   6.750
 8251POPC   C3B63105  33.909  10.027   7.050
 8251POPC   C4B63106  33.906   9.942   7.350
 8252POPC   NC363107  18.265  26.864   5.550
 8252POPC   PO463108  18.240  26.818   5.850
 8252POPC   GL163109  18.301  26.860   6.150
 8252POPC   GL263110  18.201  26.733   6.150
 8252POPC   C1A63111  18.270  26.784   6.450
 8252POPC   D2A63112  18.280  26.778   6.750
 8252POPC   C3A63113  18.256  26.858   7.050
 8252POPC   C4A63114  18.268  26.839   7.350
 8252POPC   C1B63115  18.000  26.791   6.450
 8252POPC   C2B63116  18.011  26.734   6.750
 8252POPC   C3B63117  18.056  26.721   7.050
 8252POPC   C4B63118  18.051  26.781   7.350
 8253POPC   NC363119   1.238  40.766   5.550
 8253POPC   PO463120   1.170  40.760   5.850
 8253POPC   GL163121   1.223  40.772   6.150
 8253POPC   GL263122   1.233  40.646   6.150
 8253POPC   C1A63123   1.184  40.827   6.450
 8253POPC   D2A63124   1.236  40.745   6.750
 8253POPC   C3A63125   1.215  40.778   7.050
 8253POPC   C4A63126   1.253  40.743   7.350
 8253POPC   C1B63127   1.203  40.509   6.450
 8253POPC   C2B63128   1.257  40.576   6.750
 8253POPC   C3B63129   1.257  40.495   7.050
 8253POPC   C4B63130   1.195  40.564   7.350
 8254POPC   NC363131  43.871   8.179   5.550
 8254POPC   PO463132  43.873   8.223   5.850
 8254POPC   GL163133  43.863   8.149   6.150
 8254POPC   GL263134  43.741   8.233   6.150
 8254POPC   C1A63135  43.922   8.233   6.450
 8254POPC   D2A63136  43.925   8.233   6.750
 8254POPC   C3A63137  43.869   8.234   7.050
 8254POPC   C4A63138  43.892   8.234   7.350
 8254POPC   C1B63139  43.633   8.133   6.450
 8254POPC   C2B63140  43.611   8.182   6.750
 8254POPC   C3B63141  43.593   8.165   7.050
 8254POPC   C4B63142  43.595   8.177   7.350
 8255POPC   NC363143  31.487  29.109   5.550
 8255POPC   PO463144  31.513  29.152   5.850
 8255POPC   GL163145  31.465  29.177   6.150
 8255POPC   GL263146  31.440  29.253   6.150
 8255POPC   C1A63147  31.482  29.157   6.450
 8255POPC   D2A63148  31.518  29.157   6.750
 8255POPC   C3A63149  31.494  29.184   7.050
 8255POPC   C4A63150  31.515  29.178   7.350
 8255POPC   C1B63151  31.292  29.355   6.450
 8255POPC   C2B63152  31.264  29.358   6.750
 8255POPC   C3B63153  31.266  29.327   7.050
 8255POPC   C4B63154  31.337  29.344   7.350
 8256POPC   NC363155   6.675  22.130   5.550
 8256POPC   PO463156   6.645  22.137   5.850
 8256POPC   GL163157   6.641  22.186   6.150
 8256POPC   GL263158   6.662  22.093   6.150
 8256POPC   C1A63159   6.679  22.144   6.450
 8256POPC   D2A63160   6.679  22.152   6.750
 8256POPC   C3A63161   6.652  22.179   7.050
 8256POPC   C4A63162   6.636  22.180   7.350
 8256POPC   C1B63163   6.711  21.913   6.450
 8256POPC   C2B63164   6.759  21.981   6.750
 8256POPC   C3B63165   6.705  21.946   7.050
 8256POPC   C4B63166   6.751  21.917   7.350
 8257POPC   NC363167  38.435  21.425   5.550
 8257POPC   PO463168  38.446  21.427   5.850
 8257POPC   GL163169  38.452  21.428   6.150
 8257POPC   GL263170  38.372  21.424   6.150
 8257POPC   C1A63171  38.501  21.367   6.450
 8257POPC   D2A63172  38.478  21.351   6.750
 8257POPC   C3A63173  38.492  21.340   7.050
 8257POPC   C4A63174  38.418  21.351   7.350
 8257POPC   C1B63175  38.213  21.398   6.450
 8257POPC   C2B63176  38.156  21.322   6.750
 8257POPC   C3B63177  38.248  21.328   7.050
 8257POPC   C4B63178  38.232  21.356   7.350
 8258POPC   NC363179  21.413  43.110   5.550
 8258POPC   PO463180  21.391  43.110   5.850
 8258POPC   GL163181  21.357  43.068   6.150
 8258POPC   GL263182  21.450  43.216   6.150
 8258POPC   C1A63183  21.393  43.063   6.450
 8258POPC   D2A63184  21.407  43.121   6.750
 8258POPC   C3A63185  21.349  43.096   7.050
 8258POPC   C4A63186  21.382  43.102   7.350
 8258POPC   C1B63187  21.529  43.228   6.450
 8258POPC   C2B63188  21.563  43.265   6.750
 8258POPC   C3B63189  21.546  43.287   7.050
 8258POPC   C4B63190  21.538  43.255   7.350
 8259POPC   NC363191  12.042  37.725   5.550
 8259POPC   PO463192  12.075  37.680   5.850
 8259POPC   GL163193  12.049  37.711   6.150
 8259POPC   GL263194  12.128  37.744   6.150
 8259POPC   C1A63195  12.065  37.671   6.450
 8259POPC   D2A63196  12.040  37.638   6.750
 8259POPC   C3A63197  12.125  37.699   7.050
 8259POPC   C4A63198  12.087  37.711   7.350
 8259POPC   C1B63199  12.133  37.909   6.450
 8259POPC   C2B63200  12.196  37.874   6.750
 8259POPC   C3B63201  12.147  37.898   7.050
 8259POPC   C4B63202  12.133  37.922   7.350
 8260POPC   NC363203  17.506  26.840   5.550
 8260POPC   PO463204  17.530  26.821   5.850
 8260POPC   GL163205  17.534  26.799   6.150
 8260POPC   GL263206  17.369  26.866   6.150
 8260POPC   C1A63207  17.514  26.805   6.450
 8260POPC   D2A63208  17.474  26.814   6.750
 8260POPC   C3A63209  17.556  26.831   7.050
 8260POPC   C4A63210  17.523  26.843   7.350
 8260POPC   C1B63211  17.245  26.941   6.450
 8260POPC   C2B63212  17.287  26.908   6.750
 8260POPC   C3B63213  17.303  26.919   7.050
 8260POPC   C4B63214  17.284  26.880   7.350
 8261POPC   NC363215  17.520  40.054   5.550
 8261POPC   PO463216  17.498  40.025   5.850
 8261POPC   GL163217  17.463  40.053   6.150
 8261POPC   GL263218  17.588  39.981   6.150
 8261POPC   C1A63219  17.472  39.966   6.450
 8261POPC   D2A63220  17.509  39.969   6.750
 8261POPC   C3A63221  17.525  40.035   7.050
 8261POPC   C4A63222  17.471  40.017   7.350
 8261POPC   C1B63223  17.728  39.969   6.450
 8261POPC   C2B63224  17.767  40.006   6.750
 8261POPC   C3B63225  17.733  39.979   7.050
 8261POPC   C4B63226  17.778  40.052   7.350
 8262POPC   NC363227  34.569  37.709   5.550
 8262POPC   PO463228  34.602  37.716   5.850
 8262POPC   GL163229  34.625  37.653   6.150
 8262POPC   GL263230  34.708  37.732   6.150
 8262POPC   C1A63231  34.545  37.712   6.450
 8262POPC   D2A63232  34.603  37.679   6.750
 8262POPC   C3A63233  34.570  37.711   7.050
 8262POPC   C4A63234  34.625  37.649   7.350
 8262POPC   C1B63235  34.740  37.880   6.450
 8262POPC   C2B63236  34.757  37.847   6.750
 8262POPC   C3B63237  34.781  37.842   7.050
 8262POPC   C4B63238  34.767  37.832   7.350
 8263POPC   NC363239  36.170  37.675   5.550
 8263POPC   PO463240  36.080  37.723   5.850
 8263POPC   GL163241  36.086  37.708   6.150
 8263POPC   GL263242  36.220  37.748   6.150
 8263POPC   C1A63243  36.111  37.701   6.450
 8263POPC   D2A63244  36.129  37.706   6.750
 8263POPC   C3A63245  36.175  37.630   7.050
 8263POPC   C4A63246  36.167  37.658   7.350
 8263POPC   C1B63247  36.323  37.849   6.450
 8263POPC   C2B63248  36.348  37.886   6.750
 8263POPC   C3B63249  36.295  37.860   7.050
 8263POPC   C4B63250  36.263  37.812   7.350
 8264POPC   NC363251  35.384   0.403   5.550
 8264POPC   PO463252  35.317   0.422   5.850
 8264POPC   GL163253  35.345   0.400   6.150
 8264POPC   GL263254  35.347   0.298   6.150
 8264POPC   C1A63255  35.333   0.471   6.450
 8264POPC   D2A63256  35.394   0.480   6.750
 8264POPC   C3A63257  35.361   0.439   7.050
 8264POPC   C4A63258  35.306   0.449   7.350
 8264POPC   C1B63259  35.353   0.213   6.450
 8264POPC   C2B63260  35.302   0.206   6.750
 8264POPC   C3B63261  35.335   0.224   7.050
 8264POPC   C4B63262  35.320   0.222   7.350
 8265POPC   NC363263  31.442   1.197   5.550
 8265POPC   PO463264  31.462   1.185   5.850
 8265POPC   GL163265  31.476   1.251   6.150
 8265POPC   GL263266  31.309   1.276   6.150
 8265POPC   C1A63267  31.450   1.186   6.450
 8265POPC   D2A63268  31.469   1.244   6.750
 8265POPC   C3A63269  31.493   1.216   7.050
 8265POPC   C4A63270  31.423   1.239   7.350
 8265POPC   C1B63271  31.215   1.289   6.450
 8265POPC   C2B63272  31.226   1.209   6.750
 8265POPC   C3B63273  31.193   1.288   7.050
 8265POPC   C4B63274  31.269   1.258   7.350
 8266POPC   NC363275   5.898   6.609   5.550
 8266POPC   PO463276   5.865   6.666   5.850
 8266POPC   GL163277   5.824   6.596   6.150
 8266POPC   GL263278   5.959   6.582   6.150
 8266POPC   C1A63279   5.907   6.665   6.450
 8266POPC   D2A63280   5.826   6.606   6.750
 8266POPC   C3A63281   5.875   6.642   7.050
 8266POPC   C4A63282   5.913   6.664   7.350
 8266POPC   C1B63283   5.962   6.450   6.450
 8266POPC   C2B63284   5.985   6.393   6.750
 8266POPC   C3B63285   5.967   6.421   7.050
 8266POPC   C4B63286   6.013   6.390   7.350
 8267POPC   NC363287  43.899   3.534   5.550
 8267POPC   PO463288  43.869   3.554   5.850
 8267POPC   GL163289  43.911   3.532   6.150
 8267POPC   GL263290  43.761   3.537   6.150
 8267POPC   C1A63291  43.862   3.499   6.450
 8267POPC   D2A63292  43.861   3.547   6.750
 8267POPC   C3A63293  43.849   3.584   7.050
 8267POPC   C4A63294  43.903   3.550   7.350
 8267POPC   C1B63295  43.642   3.593   6.450
 8267POPC   C2B63296  43.650   3.672   6.750
 8267POPC   C3B63297  43.644   3.645   7.050
 8267POPC   C4B63298  43.621   3.598   7.350
 8268POPC   NC363299   3.587  29.122   5.550
 8268POPC   PO463300   3.539  29.146   5.850
 8268POPC   GL163301   3.583  29.115   6.150
 8268POPC   GL263302   3.502  29.263   6.150
 8268POPC   C1A63303   3.541  29.113   6.450
 8268POPC   D2A63304   3.547  29.167   6.750
 8268POPC   C3A63305   3.558  29.160   7.050
 8268POPC   C4A63306   3.580  29.139   7.350
 8268POPC   C1B63307   3.488  29.371   6.450
 8268POPC   C2B63308   3.431  29.431   6.750
 8268POPC   C3B63309   3.454  29.403   7.050
 8268POPC   C4B63310   3.454  29.377   7.350
 8269POPC   NC363311  26.842  13.644   5.550
 8269POPC   PO463312  26.832  13.629   5.850
 8269POPC   GL163313  26.774  13.626   6.150
 8269POPC   GL263314  26.860  13.486   6.150
 8269POPC   C1A63315  26.837  13.672   6.450
 8269POPC   D2A63316  26.836  13.675   6.750
 8269POPC   C3A63317  26.816  13.585   7.050
 8269POPC   C4A63318  26.781  13.615   7.350
 8269POPC   C1B63319  26.890  13.437   6.450
 8269POPC   C2B63320  26.901  13.390   6.750
 8269POPC   C3B63321  26.913  13.347   7.050
 8269POPC   C4B63322  26.879  13.343   7.350
 8270POPC   NC363323  36.900  15.184   5.550
 8270POPC   PO463324  36.893  15.200   5.850
 8270POPC   GL163325  36.921  15.137   6.150
 8270POPC   GL263326  37.016  15.096   6.150
 8270POPC   C1A63327  36.930  15.207   6.450
 8270POPC   D2A63328  36.880  15.212   6.750
 8270POPC   C3A63329  36.883  15.178   7.050
 8270POPC   C4A63330  36.881  15.204   7.350
 8270POPC   C1B63331  37.081  15.108   6.450
 8270POPC   C2B63332  37.093  15.060   6.750
 8270POPC   C3B63333  37.086  15.093   7.050
 8270POPC   C4B63334  37.173  15.058   7.350
 8271POPC   NC363335  16.749  41.552   5.550
 8271POPC   PO463336  16.706  41.558   5.850
 8271POPC   GL163337  16.764  41.563   6.150
 8271POPC   GL263338  16.726  41.652   6.150
 8271POPC   C1A63339  16.768  41.535   6.450
 8271POPC   D2A63340  16.756  41.571   6.750
 8271POPC   C3A63341  16.709  41.537   7.050
 8271POPC   C4A63342  16.700  41.574   7.350
 8271POPC   C1B63343  16.796  41.775   6.450
 8271POPC   C2B63344  16.718  41.765   6.750
 8271POPC   C3B63345  16.799  41.796   7.050
 8271POPC   C4B63346  16.753  41.857   7.350
 8272POPC   NC363347  10.550  12.847   5.550
 8272POPC   PO463348  10.566  12.828   5.850
 8272POPC   GL163349  10.530  12.836   6.150
 8272POPC   GL263350  10.391  12.890   6.150
 8272POPC   C1A63351  10.539  12.820   6.450
 8272POPC   D2A63352  10.480  12.844   6.750
 8272POPC   C3A63353  10.494  12.839   7.050
 8272POPC   C4A63354  10.487  12.824   7.350
 8272POPC   C1B63355  10.363  12.998   6.450
 8272POPC   C2B63356  10.302  13.016   6.750
 8272POPC   C3B63357  10.330  12.982   7.050
 8272POPC   C4B63358  10.271  13.017   7.350
 8273POPC   NC363359  43.115  14.446   5.550
 8273POPC   PO463360  43.096  14.403   5.850
 8273POPC   GL163361  43.121  14.383   6.150
 8273POPC   GL263362  43.262  14.412   6.150
 8273POPC   C1A63363  43.090  14.431   6.450
 8273POPC   D2A63364  43.097  14.360   6.750
 8273POPC   C3A63365  43.160  14.439   7.050
 8273POPC   C4A63366  43.099  14.430   7.350
 8273POPC   C1B63367  43.389  14.408   6.450
 8273POPC   C2B63368  43.343  14.454   6.750
 8273POPC   C3B63369  43.342  14.461   7.050
 8273POPC   C4B63370  43.324  14.409   7.350
 8274POPC   NC363371  33.012  13.633   5.550
 8274POPC   PO463372  33.060  13.656   5.850
 8274POPC   GL163373  32.995  13.599   6.150
 8274POPC   GL263374  33.108  13.536   6.150
 8274POPC   C1A63375  32.977  13.585   6.450
 8274POPC   D2A63376  33.038  13.670   6.750
 8274POPC   C3A63377  33.069  13.631   7.050
 8274POPC   C4A63378  32.986  13.669   7.350
 8274POPC   C1B63379  33.077  13.405   6.450
 8274POPC   C2B63380  33.090  13.350   6.750
 8274POPC   C3B63381  33.074  13.360   7.050
 8274POPC   C4B63382  33.071  13.345   7.350
 8275POPC   NC363383  28.377  34.530   5.550
 8275POPC   PO463384  28.356  34.622   5.850
 8275POPC   GL163385  28.399  34.555   6.150
 8275POPC   GL263386  28.324  34.672   6.150
 8275POPC   C1A63387  28.343  34.542   6.450
 8275POPC   D2A63388  28.385  34.588   6.750
 8275POPC   C3A63389  28.361  34.580   7.050
 8275POPC   C4A63390  28.352  34.612   7.350
 8275POPC   C1B63391  28.381  34.841   6.450
 8275POPC   C2B63392  28.299  34.791   6.750
 8275POPC   C3B63393  28.376  34.871   7.050
 8275POPC   C4B63394  28.320  34.792   7.350
 8276POPC   NC363395  34.567  33.014   5.550
 8276POPC   PO463396  34.576  33.023   5.850
 8276POPC   GL163397  34.568  33.016   6.150
 8276POPC   GL263398  34.452  33.121   6.150
 8276POPC   C1A63399  34.551  33.050   6.450
 8276POPC   D2A63400  34.602  33.038   6.750
 8276POPC   C3A63401  34.543  32.997   7.050
 8276POPC   C4A63402  34.563  33.008   7.350
 8276POPC   C1B63403  34.401  33.236   6.450
 8276POPC   C2B63404  34.390  33.231   6.750
 8276POPC   C3B63405  34.420  33.191   7.050
 8276POPC   C4B63406  34.402  33.216   7.350
 8277POPC   NC363407  26.055   8.994   5.550
 8277POPC   PO463408  26.051   8.945   5.850
 8277POPC   GL163409  26.028   8.940   6.150
 8277POPC   GL263410  26.033   8.802   6.150
 8277POPC   C1A63411  26.057   8.923   6.450
 8277POPC   D2A63412  26.041   8.939   6.750
 8277POPC   C3A63413  26.045   8.937   7.050
 8277POPC   C4A63414  26.022   8.950   7.350
 8277POPC   C1B63415  26.042   8.697   6.450
 8277POPC   C2B63416  26.100   8.742   6.750
 8277POPC   C3B63417  26.041   8.699   7.050
 8277POPC   C4B63418  26.025   8.740   7.350
 8278POPC   NC363419   1.234   0.416   5.550
 8278POPC   PO463420   1.239   0.472   5.850
 8278POPC   GL163421   1.246   0.408   6.150
 8278POPC   GL263422   1.362   0.448   6.150
 8278POPC   C1A63423   1.222   0.477   6.450
 8278POPC   D2A63424   1.164   0.484   6.750
 8278POPC   C3A63425   1.262   0.434   7.050
 8278POPC   C4A63426   1.242   0.394   7.350
 8278POPC   C1B63427   1.489   0.401   6.450
 8278POPC   C2B63428   1.452   0.380   6.750
 8278POPC   C3B63429   1.424   0.395   7.050
 8278POPC   C4B63430   1.412   0.325   7.350
 8279POPC   NC363431  10.531  25.996   5.550
 8279POPC   PO463432  10.498  26.034   5.850
 8279POPC   GL163433  10.481  26.048   6.150
 8279POPC   GL263434  10.614  25.947   6.150
 8279POPC   C1A63435  10.524  26.000   6.450
 8279POPC   D2A63436  10.494  26.001   6.750
 8279POPC   C3A63437  10.520  26.074   7.050
 8279POPC   C4A63438  10.562  26.007   7.350
 8279POPC   C1B63439  10.692  25.919   6.450
 8279POPC   C2B63440  10.670  25.851   6.750
 8279POPC   C3B63441  10.730  25.857   7.050
 8279POPC   C4B63442  10.731  25.830   7.350
 8280POPC   NC363443  44.650   1.255   5.550
 8280POPC   PO463444  44.617   1.196   5.850
 8280POPC   GL163445  44.629   1.174   6.150
 8280POPC   GL263446  44.652   1.078   6.150
 8280POPC   C1A63447  44.668   1.178   6.450
 8280POPC   D2A63448  44.701   1.208   6.750
 8280POPC   C3A63449  44.703   1.200   7.050
 8280POPC   C4A63450  44.667   1.191   7.350
 8280POPC   C1B63451  44.528   0.948   6.450
 8280POPC   C2B63452  44.591   1.025   6.750
 8280POPC   C3B63453  44.535   0.987   7.050
 8280POPC   C4B63454  44.542   0.961   7.350
 8281POPC   NC363455  42.378  18.316   5.550
 8281POPC   PO463456  42.328  18.237   5.850
 8281POPC   GL163457  42.351  18.329   6.150
 8281POPC   GL263458  42.380  18.154   6.150
 8281POPC   C1A63459  42.357  18.250   6.450
 8281POPC   D2A63460  42.371  18.274   6.750
 8281POPC   C3A63461  42.319  18.321   7.050
 8281POPC   C4A63462  42.290  18.251   7.350
 8281POPC   C1B63463  42.415  18.006   6.450
 8281POPC   C2B63464  42.433  18.054   6.750
 8281POPC   C3B63465  42.444  18.004   7.050
 8281POPC   C4B63466  42.389  18.040   7.350
 8282POPC   NC363467  12.076  41.522   5.550
 8282POPC   PO463468  12.074  41.577   5.850
 8282POPC   GL163469  12.103  41.510   6.150
 8282POPC   GL263470  12.105  41.700   6.150
 8282POPC   C1A63471  12.096  41.573   6.450
 8282POPC   D2A63472  12.040  41.517   6.750
 8282POPC   C3A63473  12.049  41.582   7.050
 8282POPC   C4A63474  12.032  41.557   7.350
 8282POPC   C1B63475  12.122  41.828   6.450
 8282POPC   C2B63476  12.160  41.795   6.750
 8282POPC   C3B63477  12.120  41.783   7.050
 8282POPC   C4B63478  12.180  41.823   7.350
 8283POPC   NC363479  30.691  28.390   5.550
 8283POPC   PO463480  30.743  28.379   5.850
 8283POPC   GL163481  30.658  28.341   6.150
 8283POPC   GL263482  30.571  28.299   6.150
 8283POPC   C1A63483  30.724  28.405   6.450
 8283POPC   D2A63484  30.673  28.334   6.750
 8283POPC   C3A63485  30.744  28.408   7.050
 8283POPC   C4A63486  30.695  28.381   7.350
 8283POPC   C1B63487  30.567  28.208   6.450
 8283POPC   C2B63488  30.541  28.187   6.750
 8283POPC   C3B63489  30.569  28.193   7.050
 8283POPC   C4B63490  30.554  28.199   7.350
 8284POPC   NC363491   9.764   1.252   5.550
 8284POPC   PO463492   9.793   1.240   5.850
 8284POPC   GL163493   9.735   1.207   6.150
 8284POPC   GL263494   9.818   1.155   6.150
 8284POPC   C1A63495   9.754   1.199   6.450
 8284POPC   D2A63496   9.750   1.217   6.750
 8284POPC   C3A63497   9.762   1.225   7.050
 8284POPC   C4A63498   9.734   1.208   7.350
 8284POPC   C1B63499   9.947   1.117   6.450
 8284POPC   C2B63500  10.024   1.086   6.750
 8284POPC   C3B63501  10.019   1.145   7.050
 8284POPC   C4B63502   9.939   1.081   7.350
 8285POPC   NC363503  15.204   3.536   5.550
 8285POPC   PO463504  15.195   3.577   5.850
 8285POPC   GL163505  15.143   3.521   6.150
 8285POPC   GL263506  15.075   3.596   6.150
 8285POPC   C1A63507  15.181   3.573   6.450
 8285POPC   D2A63508  15.171   3.535   6.750
 8285POPC   C3A63509  15.151   3.539   7.050
 8285POPC   C4A63510  15.202   3.509   7.350
 8285POPC   C1B63511  14.939   3.641   6.450
 8285POPC   C2B63512  14.978   3.570   6.750
 8285POPC   C3B63513  14.963   3.632   7.050
 8285POPC   C4B63514  14.984   3.575   7.350
 8286POPC   NC363515  38.495  33.051   5.550
 8286POPC   PO463516  38.488  32.979   5.850
 8286POPC   GL163517  38.483  33.050   6.150
 8286POPC   GL263518  38.301  33.037   6.150
 8286POPC   C1A63519  38.437  32.974   6.450
 8286POPC   D2A63520  38.415  33.010   6.750
 8286POPC   C3A63521  38.490  33.062   7.050
 8286POPC   C4A63522  38.437  32.978   7.350
 8286POPC   C1B63523  38.234  33.047   6.450
 8286POPC   C2B63524  38.223  33.015   6.750
 8286POPC   C3B63525  38.210  33.054   7.050
 8286POPC   C4B63526  38.238  32.988   7.350
 8287POPC   NC363527  27.603  19.881   5.550
 8287POPC   PO463528  27.553  19.827   5.850
 8287POPC   GL163529  27.559  19.869   6.150
 8287POPC   GL263530  27.678  19.739   6.150
 8287POPC   C1A63531  27.547  19.818   6.450
 8287POPC   D2A63532  27.581  19.790   6.750
 8287POPC   C3A63533  27.587  19.878   7.050
 8287POPC   C4A63534  27.562  19.875   7.350
 8287POPC   C1B63535  27.785  19.619   6.450
 8287POPC   C2B63536  27.798  19.649   6.750
 8287POPC   C3B63537  27.741  19.636   7.050
 8287POPC   C4B63538  27.752  19.639   7.350
 8288POPC   NC363539  14.448  42.360   5.550
 8288POPC   PO463540  14.413  42.331   5.850
 8288POPC   GL163541  14.355  42.342   6.150
 8288POPC   GL263542  14.287  42.229   6.150
 8288POPC   C1A63543  14.428  42.345   6.450
 8288POPC   D2A63544  14.429  42.315   6.750
 8288POPC   C3A63545  14.427  42.369   7.050
 8288POPC   C4A63546  14.378  42.368   7.350
 8288POPC   C1B63547  14.245  42.182   6.450
 8288POPC   C2B63548  14.216  42.204   6.750
 8288POPC   C3B63549  14.198  42.191   7.050
 8288POPC   C4B63550  14.164  42.148   7.350
 8289POPC   NC363551  40.774  41.579   5.550
 8289POPC   PO463552  40.817  41.571   5.850
 8289POPC   GL163553  40.745  41.563   6.150
 8289POPC   GL263554  40.830  41.504   6.150
 8289POPC   C1A63555  40.813  41.530   6.450
 8289POPC   D2A63556  40.800  41.535   6.750
 8289POPC   C3A63557  40.826  41.571   7.050
 8289POPC   C4A63558  40.749  41.520   7.350
 8289POPC   C1B63559  40.974  41.377   6.450
 8289POPC   C2B63560  40.919  41.395   6.750
 8289POPC   C3B63561  40.919  41.353   7.050
 8289POPC   C4B63562  40.911  41.386   7.350
 8290POPC   NC363563  33.841   2.034   5.550
 8290POPC   PO463564  33.755   1.953   5.850
 8290POPC   GL163565  33.776   1.982   6.150
 8290POPC   GL263566  33.837   1.823   6.150
 8290POPC   C1A63567  33.819   1.982   6.450
 8290POPC   D2A63568  33.762   1.956   6.750
 8290POPC   C3A63569  33.811   2.012   7.050
 8290POPC   C4A63570  33.827   2.031   7.350
 8290POPC   C1B63571  33.773   1.782   6.450
 8290POPC   C2B63572  33.825   1.727   6.750
 8290POPC   C3B63573  33.789   1.760   7.050
 8290POPC   C4B63574  33.817   1.743   7.350
 8291POPC   NC363575  31.510  11.314   5.550
 8291POPC   PO463576  31.509  11.265   5.850
 8291POPC   GL163577  31.444  11.303   6.150
 8291POPC   GL263578  31.491  11.194   6.150
 8291POPC   C1A63579  31.446  11.335   6.450
 8291POPC   D2A63580  31.445  11.309   6.750
 8291POPC   C3A63581  31.426  11.291   7.050
 8291POPC   C4A63582  31.431  11.322   7.350
 8291POPC   C1B63583  31.472  11.036   6.450
 8291POPC   C2B63584  31.437  11.075   6.750
 8291POPC   C3B63585  31.492  11.023   7.050
 8291POPC   C4B63586  31.500  11.083   7.350
 8292POPC   NC363587   0.390   4.362   5.550
 8292POPC   PO463588   0.402   4.273   5.850
 8292POPC   GL163589   0.421   4.354   6.150
 8292POPC   GL263590   0.532   4.355   6.150
 8292POPC   C1A63591   0.442   4.329   6.450
 8292POPC   D2A63592   0.473   4.322   6.750
 8292POPC   C3A63593   0.405   4.299   7.050
 8292POPC   C4A63594   0.433   4.348   7.350
 8292POPC   C1B63595   0.693   4.261   6.450
 8292POPC   C2B63596   0.703   4.309   6.750
 8292POPC   C3B63597   0.700   4.330   7.050
 8292POPC   C4B63598   0.639   4.266   7.350
 8293POPC   NC363599  11.272   5.132   5.550
 8293POPC   PO463600  11.350   5.140   5.850
 8293POPC   GL163601  11.257   5.080   6.150
 8293POPC   GL263602  11.131   5.122   6.150
 8293POPC   C1A63603  11.310   5.053   6.450
 8293POPC   D2A63604  11.261   5.112   6.750
 8293POPC   C3A63605  11.256   5.072   7.050
 8293POPC   C4A63606  11.330   5.072   7.350
 8293POPC   C1B63607  11.013   5.098   6.450
 8293POPC   C2B63608  11.088   5.111   6.750
 8293POPC   C3B63609  11.014   5.042   7.050
 8293POPC   C4B63610  11.053   5.097   7.350
 8294POPC   NC363611  12.883  15.146   5.550
 8294POPC   PO463612  12.814  15.224   5.850
 8294POPC   GL163613  12.804  15.144   6.150
 8294POPC   GL263614  12.845  15.032   6.150
 8294POPC   C1A63615  12.877  15.158   6.450
 8294POPC   D2A63616  12.839  15.204   6.750
 8294POPC   C3A63617  12.850  15.176   7.050
 8294POPC   C4A63618  12.859  15.214   7.350
 8294POPC   C1B63619  12.793  14.894   6.450
 8294POPC   C2B63620  12.866  14.931   6.750
 8294POPC   C3B63621  12.837  14.973   7.050
 8294POPC   C4B63622  12.839  14.975   7.350
 8295POPC   NC363623   4.362  19.062   5.550
 8295POPC   PO463624   4.348  19.067   5.850
 8295POPC   GL163625   4.350  19.086   6.150
 8295POPC   GL263626   4.447  19.000   6.150
 8295POPC   C1A63627   4.322  19.068   6.450
 8295POPC   D2A63628   4.306  19.051   6.750
 8295POPC   C3A63629   4.268  19.045   7.050
 8295POPC   C4A63630   4.367  19.071   7.350
 8295POPC   C1B63631   4.554  18.995   6.450
 8295POPC   C2B63632   4.597  19.030   6.750
 8295POPC   C3B63633   4.582  19.053   7.050
 8295POPC   C4B63634   4.567  18.992   7.350
 8296POPC   NC363635  33.808  10.495   5.550
 8296POPC   PO463636  33.760  10.514   5.850
 8296POPC   GL163637  33.760  10.509   6.150
 8296POPC   GL263638  33.710  10.497   6.150
 8296POPC   C1A63639  33.819  10.564   6.450
 8296POPC   D2A63640  33.811  10.494   6.750
 8296POPC   C3A63641  33.837  10.493   7.050
 8296POPC   C4A63642  33.842  10.558   7.350
 8296POPC   C1B63643  33.585  10.430   6.450
 8296POPC   C2B63644  33.598  10.463   6.750
 8296POPC   C3B63645  33.621  10.420   7.050
 8296POPC   C4B63646  33.527  10.411   7.350
 8297POPC   NC363647   6.681  16.004   5.550
 8297POPC   PO463648   6.612  15.985   5.850
 8297POPC   GL163649   6.684  15.977   6.150
 8297POPC   GL263650   6.633  15.876   6.150
 8297POPC   C1A63651   6.687  15.938   6.450
 8297POPC   D2A63652   6.670  16.005   6.750
 8297POPC   C3A63653   6.665  15.956   7.050
 8297POPC   C4A63654   6.653  15.969   7.350
 8297POPC   C1B63655   6.640  15.688   6.450
 8297POPC   C2B63656   6.699  15.726   6.750
 8297POPC   C3B63657   6.625  15.748   7.050
 8297POPC   C4B63658   6.686  15.755   7.350
 8298POPC   NC363659   1.239  36.883   5.550
 8298POPC   PO463660   1.216  36.932   5.850
 8298POPC   GL163661   1.167  36.885   6.150
 8298POPC   GL263662   1.311  36.868   6.150
 8298POPC   C1A63663   1.204  36.902   6.450
 8298POPC   D2A63664   1.208  36.867   6.750
 8298POPC   C3A63665   1.187  36.942   7.050
 8298POPC   C4A63666   1.261  36.908   7.350
 8298POPC   C1B63667   1.498  36.868   6.450
 8298POPC   C2B63668   1.445  36.937   6.750
 8298POPC   C3B63669   1.513  36.930   7.050
 8298POPC   C4B63670   1.472  36.912   7.350
 8299POPC   NC363671  37.663  30.738   5.550
 8299POPC   PO463672  37.654  30.692   5.850
 8299POPC   GL163673  37.643  30.737   6.150
 8299POPC   GL263674  37.744  30.770   6.150
 8299POPC   C1A63675  37.723  30.690   6.450
 8299POPC   D2A63676  37.656  30.718   6.750
 8299POPC   C3A63677  37.654  30.685   7.050
 8299POPC   C4A63678  37.633  30.668   7.350
 8299POPC   C1B63679  37.800  30.941   6.450
 8299POPC   C2B63680  37.874  30.903   6.750
 8299POPC   C3B63681  37.781  30.872   7.050
 8299POPC   C4B63682  37.781  30.911   7.350
 8300POPC   NC363683  17.495   3.574   5.550
 8300POPC   PO463684  17.524   3.509   5.850
 8300POPC   GL163685  17.513   3.542   6.150
 8300POPC   GL263686  17.338   3.575   6.150
 8300POPC   C1A63687  17.555   3.551   6.450
 8300POPC   D2A63688  17.511   3.571   6.750
 8300POPC   C3A63689  17.473   3.512   7.050
 8300POPC   C4A63690  17.486   3.517   7.350
 8300POPC   C1B63691  17.229   3.499   6.450
 8300POPC   C2B63692  17.250   3.537   6.750
 8300POPC   C3B63693  17.263   3.567   7.050
 8300POPC   C4B63694  17.300   3.508   7.350
 8301POPC   NC363695  43.083  22.192   5.550
 8301POPC   PO463696  43.125  22.156   5.850
 8301POPC   GL163697  43.091  22.153   6.150
 8301POPC   GL263698  43.150  22.228   6.150
 8301POPC   C1A63699  43.075  22.155   6.450
 8301POPC   D2A63700  43.093  22.119   6.750
 8301POPC   C3A63701  43.069  22.140   7.050
 8301POPC   C4A63702  43.156  22.124   7.350
 8301POPC   C1B63703  43.313  22.336   6.450
 8301POPC   C2B63704  43.296  22.347   6.750
 8301POPC   C3B63705  43.314  22.330   7.050
 8301POPC   C4B63706  43.265  22.340   7.350
 8302POPC   NC363707   1.983   2.034   5.550
 8302POPC   PO463708   1.957   1.948   5.850
 8302POPC   GL163709   2.039   1.975   6.150
 8302POPC   GL263710   1.994   1.885   6.150
 8302POPC   C1A63711   2.016   1.947   6.450
 8302POPC   D2A63712   1.950   1.957   6.750
 8302POPC   C3A63713   1.983   2.007   7.050
 8302POPC   C4A63714   1.992   1.997   7.350
 8302POPC   C1B63715   2.021   1.701   6.450
 8302POPC   C2B63716   2.095   1.746   6.750
 8302POPC   C3B63717   2.036   1.705   7.050
 8302POPC   C4B63718   2.040   1.747   7.350
 8303POPC   NC363719  24.465  22.208   5.550
 8303POPC   PO463720  24.482  22.202   5.850
 8303POPC   GL163721  24.533  22.153   6.150
 8303POPC   GL263722  24.498  22.305   6.150
 8303POPC   C1A63723  24.442  22.185   6.450
 8303POPC   D2A63724  24.440  22.187   6.750
 8303POPC   C3A63725  24.458  22.206   7.050
 8303POPC   C4A63726  24.502  22.165   7.350
 8303POPC   C1B63727  24.527  22.447   6.450
 8303POPC   C2B63728  24.463  22.402   6.750
 8303POPC   C3B63729  24.443  22.459   7.050
 8303POPC   C4B63730  24.485  22.409   7.350
 8304POPC   NC363731  20.588   0.415   5.550
 8304POPC   PO463732  20.632   0.396   5.850
 8304POPC   GL163733  20.600   0.441   6.150
 8304POPC   GL263734  20.481   0.305   6.150
 8304POPC   C1A63735  20.565   0.477   6.450
 8304POPC   D2A63736  20.602   0.404   6.750
 8304POPC   C3A63737  20.648   0.399   7.050
 8304POPC   C4A63738  20.578   0.388   7.350
 8304POPC   C1B63739  20.423   0.297   6.450
 8304POPC   C2B63740  20.452   0.301   6.750
 8304POPC   C3B63741  20.402   0.319   7.050
 8304POPC   C4B63742  20.443   0.228   7.350
 8305POPC   NC363743   9.772  31.519   5.550
 8305POPC   PO463744   9.731  31.448   5.850
 8305POPC   GL163745   9.749  31.511   6.150
 8305POPC   GL263746   9.826  31.488   6.150
 8305POPC   C1A63747   9.709  31.488   6.450
 8305POPC   D2A63748   9.718  31.490   6.750
 8305POPC   C3A63749   9.779  31.431   7.050
 8305POPC   C4A63750   9.747  31.474   7.350
 8305POPC   C1B63751   9.979  31.470   6.450
 8305POPC   C2B63752   9.956  31.469   6.750
 8305POPC   C3B63753  10.017  31.480   7.050
 8305POPC   C4B63754   9.984  31.499   7.350
 8306POPC   NC363755  18.279  15.993   5.550
 8306POPC   PO463756  18.309  15.977   5.850
 8306POPC   GL163757  18.312  15.959   6.150
 8306POPC   GL263758  18.328  16.088   6.150
 8306POPC   C1A63759  18.321  15.955   6.450
 8306POPC   D2A63760  18.295  15.927   6.750
 8306POPC   C3A63761  18.236  15.988   7.050
 8306POPC   C4A63762  18.283  15.916   7.350
 8306POPC   C1B63763  18.393  16.212   6.450
 8306POPC   C2B63764  18.352  16.208   6.750
 8306POPC   C3B63765  18.407  16.216   7.050
 8306POPC   C4B63766  18.349  16.195   7.350
 8307POPC   NC363767  19.054  25.224   5.550
 8307POPC   PO463768  19.083  25.292   5.850
 8307POPC   GL163769  19.083  25.266   6.150
 8307POPC   GL263770  19.165  25.150   6.150
 8307POPC   C1A63771  19.013  25.280   6.450
 8307POPC   D2A63772  19.056  25.264   6.750
 8307POPC   C3A63773  19.044  25.301   7.050
 8307POPC   C4A63774  19.016  25.246   7.350
 8307POPC   C1B63775  19.174  25.026   6.450
 8307POPC   C2B63776  19.155  25.074   6.750
 8307POPC   C3B63777  19.174  25.076   7.050
 8307POPC   C4B63778  19.205  25.070   7.350
 8308POPC   NC363779  40.047  30.690   5.550
 8308POPC   PO463780  39.963  30.687   5.850
 8308POPC   GL163781  40.036  30.699   6.150
 8308POPC   GL263782  40.110  30.751   6.150
 8308POPC   C1A63783  39.989  30.676   6.450
 8308POPC   D2A63784  39.963  30.739   6.750
 8308POPC   C3A63785  39.984  30.727   7.050
 8308POPC   C4A63786  39.975  30.676   7.350
 8308POPC   C1B63787  40.244  30.755   6.450
 8308POPC   C2B63788  40.250  30.722   6.750
 8308POPC   C3B63789  40.275  30.711   7.050
 8308POPC   C4B63790  40.216  30.766   7.350
 8309POPC   NC363791  24.445   3.567   5.550
 8309POPC   PO463792  24.501   3.538   5.850
 8309POPC   GL163793  24.466   3.534   6.150
 8309POPC   GL263794  24.623   3.612   6.150
 8309POPC   C1A63795  24.463   3.533   6.450
 8309POPC   D2A63796  24.463   3.535   6.750
 8309POPC   C3A63797  24.477   3.514   7.050
 8309POPC   C4A63798  24.440   3.509   7.350
 8309POPC   C1B63799  24.720   3.657   6.450
 8309POPC   C2B63800  24.692   3.707   6.750
 8309POPC   C3B63801  24.706   3.649   7.050
 8309POPC   C4B63802  24.673   3.635   7.350
 8310POPC   NC363803   1.184  31.489   5.550
 8310POPC   PO463804   1.169  31.480   5.850
 8310POPC   GL163805   1.231  31.480   6.150
 8310POPC   GL263806   1.199  31.337   6.150
 8310POPC   C1A63807   1.194  31.464   6.450
 8310POPC   D2A63808   1.180  31.431   6.750
 8310POPC   C3A63809   1.187  31.446   7.050
 8310POPC   C4A63810   1.249  31.448   7.350
 8310POPC   C1B63811   1.180  31.258   6.450
 8310POPC   C2B63812   1.257  31.259   6.750
 8310POPC   C3B63813   1.242  31.185   7.050
 8310POPC   C4B63814   1.271  31.268   7.350
 8311POPC   NC363815  36.087   1.191   5.550
 8311POPC   PO463816  36.100   1.196   5.850
 8311POPC   GL163817  36.156   1.201   6.150
 8311POPC   GL263818  36.005   1.301   6.150
 8311POPC   C1A63819  36.165   1.232   6.450
 8311POPC   D2A63820  36.133   1.168   6.750
 8311POPC   C3A63821  36.157   1.210   7.050
 8311POPC   C4A63822  36.163   1.240   7.350
 8311POPC   C1B63823  35.978   1.399   6.450
 8311POPC   C2B63824  35.940   1.378   6.750
 8311POPC   C3B63825  35.941   1.331   7.050
 8311POPC   C4B63826  35.908   1.368   7.350
 8312POPC   NC363827  19.073  41.534   5.550
 8312POPC   PO463828  19.069  41.535   5.850
 8312POPC   GL163829  19.067  41.577   6.150
 8312POPC   GL263830  18.893  41.591   6.150
 8312POPC   C1A63831  19.075  41.561   6.450
 8312POPC   D2A63832  19.105  41.598   6.750
 8312POPC   C3A63833  19.108  41.554   7.050
 8312POPC   C4A63834  19.105  41.557   7.350
 8312POPC   C1B63835  18.799  41.581   6.450
 8312POPC   C2B63836  18.831  41.609   6.750
 8312POPC   C3B63837  18.852  41.590   7.050
 8312POPC   C4B63838  18.848  41.647   7.350
 8313POPC   NC363839   6.694   8.926   5.550
 8313POPC   PO463840   6.600   9.006   5.850
 8313POPC   GL163841   6.639   8.989   6.150
 8313POPC   GL263842   6.555   8.896   6.150
 8313POPC   C1A63843   6.600   8.965   6.450
 8313POPC   D2A63844   6.596   8.971   6.750
 8313POPC   C3A63845   6.688   8.932   7.050
 8313POPC   C4A63846   6.609   8.950   7.350
 8313POPC   C1B63847   6.525   8.772   6.450
 8313POPC   C2B63848   6.568   8.772   6.750
 8313POPC   C3B63849   6.497   8.791   7.050
 8313POPC   C4B63850   6.505   8.732   7.350
 8314POPC   NC363851  39.183   0.395   5.550
 8314POPC   PO463852  39.210   0.452   5.850
 8314POPC   GL163853  39.205   0.389   6.150
 8314POPC   GL263854  39.123   0.459   6.150
 8314POPC   C1A63855  39.239   0.434   6.450
 8314POPC   D2A63856  39.188   0.485   6.750
 8314POPC   C3A63857  39.211   0.471   7.050
 8314POPC   C4A63858  39.182   0.470   7.350
 8314POPC   C1B63859  39.046   0.597   6.450
 8314POPC   C2B63860  39.007   0.571   6.750
 8314POPC   C3B63861  39.054   0.550   7.050
 8314POPC   C4B63862  39.053   0.581   7.350
 8315POPC   NC363863  35.401  44.664   5.550
 8315POPC   PO463864  35.389  44.674   5.850
 8315POPC   GL163865  35.375  44.689   6.150
 8315POPC   GL263866  35.387  44.821   6.150
 8315POPC   C1A63867  35.335  44.702   6.450
 8315POPC   D2A63868  35.365  44.699   6.750
 8315POPC   C3A63869  35.362  44.645   7.050
 8315POPC   C4A63870  35.323  44.666   7.350
 8315POPC   C1B63871  35.448  44.905   6.450
 8315POPC   C2B63872  35.380  44.938   6.750
 8315POPC   C3B63873  35.357  44.952   7.050
 8315POPC   C4B63874  35.389  44.882   7.350
 8316POPC   NC363875  15.210   1.994   5.550
 8316POPC   PO463876  15.204   1.980   5.850
 8316POPC   GL163877  15.159   1.948   6.150
 8316POPC   GL263878  15.289   1.872   6.150
 8316POPC   C1A63879  15.192   2.006   6.450
 8316POPC   D2A63880  15.176   2.024   6.750
 8316POPC   C3A63881  15.209   2.021   7.050
 8316POPC   C4A63882  15.196   2.034   7.350
 8316POPC   C1B63883  15.310   1.774   6.450
 8316POPC   C2B63884  15.335   1.827   6.750
 8316POPC   C3B63885  15.358   1.812   7.050
 8316POPC   C4B63886  15.276   1.779   7.350
 8317POPC   NC363887  35.306  37.646   5.550
 8317POPC   PO463888  35.332  37.698   5.850
 8317POPC   GL163889  35.374  37.662   6.150
 8317POPC   GL263890  35.259  37.785   6.150
 8317POPC   C1A63891  35.330  37.668   6.450
 8317POPC   D2A63892  35.315  37.663   6.750
 8317POPC   C3A63893  35.399  37.717   7.050
 8317POPC   C4A63894  35.380  37.693   7.350
 8317POPC   C1B63895  35.188  37.821   6.450
 8317POPC   C2B63896  35.094  37.791   6.750
 8317POPC   C3B63897  35.121  37.832   7.050
 8317POPC   C4B63898  35.104  37.801   7.350
 8318POPC   NC363899  42.355  19.044   5.550
 8318POPC   PO463900  42.310  19.094   5.850
 8318POPC   GL163901  42.344  19.058   6.150
 8318POPC   GL263902  42.278  19.016   6.150
 8318POPC   C1A63903  42.292  19.056   6.450
 8318POPC   D2A63904  42.296  19.046   6.750
 8318POPC   C3A63905  42.320  19.098   7.050
 8318POPC   C4A63906  42.304  19.062   7.350
 8318POPC   C1B63907  42.140  18.881   6.450
 8318POPC   C2B63908  42.094  18.908   6.750
 8318POPC   C3B63909  42.100  18.874   7.050
 8318POPC   C4B63910  42.097  18.918   7.350
 8319POPC   NC363911  12.807  36.097   5.550
 8319POPC   PO463912  12.848  36.157   5.850
 8319POPC   GL163913  12.894  36.093   6.150
 8319POPC   GL263914  12.951  36.053   6.150
 8319POPC   C1A63915  12.869  36.169   6.450
 8319POPC   D2A63916  12.884  36.105   6.750
 8319POPC   C3A63917  12.881  36.122   7.050
 8319POPC   C4A63918  12.846  36.094   7.350
 8319POPC   C1B63919  13.054  35.951   6.450
 8319POPC   C2B63920  13.077  36.013   6.750
 8319POPC   C3B63921  13.094  36.005   7.050
 8319POPC   C4B63922  13.018  35.968   7.350
 8320POPC   NC363923   8.972  10.568   5.550
 8320POPC   PO463924   9.020  10.549   5.850
 8320POPC   GL163925   8.963  10.500   6.150
 8320POPC   GL263926   8.816  10.635   6.150
 8320POPC   C1A63927   8.937  10.541   6.450
 8320POPC   D2A63928   8.935  10.538   6.750
 8320POPC   C3A63929   8.926  10.517   7.050
 8320POPC   C4A63930   8.926  10.568   7.350
 8320POPC   C1B63931   8.788  10.632   6.450
 8320POPC   C2B63932   8.805  10.684   6.750
 8320POPC   C3B63933   8.795  10.652   7.050
 8320POPC   C4B63934   8.754  10.691   7.350
 8321POPC   NC363935  29.966   3.543   5.550
 8321POPC   PO463936  29.940   3.550   5.850
 8321POPC   GL163937  29.881   3.497   6.150
 8321POPC   GL263938  29.829   3.549   6.150
 8321POPC   C1A63939  29.919   3.514   6.450
 8321POPC   D2A63940  29.940   3.564   6.750
 8321POPC   C3A63941  29.893   3.548   7.050
 8321POPC   C4A63942  29.943   3.498   7.350
 8321POPC   C1B63943  29.693   3.587   6.450
 8321POPC   C2B63944  29.666   3.614   6.750
 8321POPC   C3B63945  29.670   3.654   7.050
 8321POPC   C4B63946  29.728   3.596   7.350
 8322POPC   NC363947  19.022  26.840   5.550
 8322POPC   PO463948  19.034  26.858   5.850
 8322POPC   GL163949  19.051  26.834   6.150
 8322POPC   GL263950  18.999  26.968   6.150
 8322POPC   C1A63951  19.084  26.786   6.450
 8322POPC   D2A63952  19.022  26.853   6.750
 8322POPC   C3A63953  19.062  26.841   7.050
 8322POPC   C4A63954  19.065  26.843   7.350
 8322POPC   C1B63955  18.952  27.035   6.450
 8322POPC   C2B63956  19.026  27.028   6.750
 8322POPC   C3B63957  18.981  27.031   7.050
 8322POPC   C4B63958  18.957  27.063   7.350
 8323POPC   NC363959   1.246   9.744   5.550
 8323POPC   PO463960   1.254   9.698   5.850
 8323POPC   GL163961   1.232   9.732   6.150
 8323POPC   GL263962   1.042   9.705   6.150
 8323POPC   C1A63963   1.244   9.773   6.450
 8323POPC   D2A63964   1.185   9.735   6.750
 8323POPC   C3A63965   1.249   9.741   7.050
 8323POPC   C4A63966   1.244   9.780   7.350
 8323POPC   C1B63967   1.003   9.714   6.450
 8323POPC   C2B63968   0.922   9.788   6.750
 8323POPC   C3B63969   0.947   9.734   7.050
 8323POPC   C4B63970   1.010   9.741   7.350
 8324POPC   NC363971  22.988  43.888   5.550
 8324POPC   PO463972  22.908  43.911   5.850
 8324POPC   GL163973  22.948  43.880   6.150
 8324POPC   GL263974  22.833  43.946   6.150
 8324POPC   C1A63975  22.924  43.889   6.450
 8324POPC   D2A63976  22.972  43.901   6.750
 8324POPC   C3A63977  22.964  43.896   7.050
 8324POPC   C4A63978  22.934  43.902   7.350
 8324POPC   C1B63979  22.857  44.064   6.450
 8324POPC   C2B63980  22.821  44.121   6.750
 8324POPC   C3B63981  22.809  44.139   7.050
 8324POPC   C4B63982  22.837  44.080   7.350
 8325POPC   NC363983  38.406  15.919   5.550
 8325POPC   PO463984  38.485  15.997   5.850
 8325POPC   GL163985  38.457  15.966   6.150
 8325POPC   GL263986  38.296  15.966   6.150
 8325POPC   C1A63987  38.494  15.920   6.450
 8325POPC   D2A63988  38.479  15.944   6.750
 8325POPC   C3A63989  38.504  15.956   7.050
 8325POPC   C4A63990  38.491  15.914   7.350
 8325POPC   C1B63991  38.165  16.056   6.450
 8325POPC   C2B63992  38.216  16.011   6.750
 8325POPC   C3B63993  38.218  16.061   7.050
 8325POPC   C4B63994  38.170  16.046   7.350
 8326POPC   NC363995  24.450  37.661   5.550
 8326POPC   PO463996  24.536  37.641   5.850
 8326POPC   GL163997  24.489  37.631   6.150
 8326POPC   GL263998  24.610  37.670   6.150
 8326POPC   C1A63999  24.499  37.650   6.450
 8326POPC   D2A64000  24.475  37.684   6.750
 8326POPC   C3A64001  24.462  37.727   7.050
 8326POPC   C4A64002  24.462  37.649   7.350
 8326POPC   C1B64003  24.770  37.643   6.450
 8326POPC   C2B64004  24.785  37.624   6.750
 8326POPC   C3B64005  24.731  37.607   7.050
 8326POPC   C4B64006  24.745  37.622   7.350
 8327POPC   NC364007  19.811  12.033   5.550
 8327POPC   PO464008  19.788  12.093   5.850
 8327POPC   GL164009  19.838  12.027   6.150
 8327POPC   GL264010  19.745  12.144   6.150
 8327POPC   C1A64011  19.825  12.117   6.450
 8327POPC   D2A64012  19.797  12.075   6.750
 8327POPC   C3A64013  19.868  12.117   7.050
 8327POPC   C4A64014  19.819  12.066   7.350
 8327POPC   C1B64015  19.631  12.176   6.450
 8327POPC   C2B64016  19.656  12.174   6.750
 8327POPC   C3B64017  19.628  12.188   7.050
 8327POPC   C4B64018  19.648  12.252   7.350
 8328POPC   NC364019  15.985  21.436   5.550
 8328POPC   PO464020  15.922  21.361   5.850
 8328POPC   GL164021  15.910  21.419   6.150
 8328POPC   GL264022  15.930  21.490   6.150
 8328POPC   C1A64023  15.934  21.401   6.450
 8328POPC   D2A64024  15.940  21.374   6.750
 8328POPC   C3A64025  15.939  21.341   7.050
 8328POPC   C4A64026  15.913  21.396   7.350
 8328POPC   C1B64027  15.936  21.610   6.450
 8328POPC   C2B64028  15.860  21.630   6.750
 8328POPC   C3B64029  15.905  21.602   7.050
 8328POPC   C4B64030  15.902  21.650   7.350
 8329POPC   NC364031  13.608  37.720   5.550
 8329POPC   PO464032  13.627  37.636   5.850
 8329POPC   GL164033  13.649  37.665   6.150
 8329POPC   GL264034  13.622  37.800   6.150
 8329POPC   C1A64035  13.581  37.723   6.450
 8329POPC   D2A64036  13.587  37.721   6.750
 8329POPC   C3A64037  13.593  37.658   7.050
 8329POPC   C4A64038  13.662  37.650   7.350
 8329POPC   C1B64039  13.669  37.955   6.450
 8329POPC   C2B64040  13.669  37.958   6.750
 8329POPC   C3B64041  13.638  37.883   7.050
 8329POPC   C4B64042  13.688  37.968   7.350
 8330POPC   NC364043  32.204  32.221   5.550
 8330POPC   PO464044  32.246  32.245   5.850
 8330POPC   GL164045  32.236  32.203   6.150
 8330POPC   GL264046  32.106  32.323   6.150
 8330POPC   C1A64047  32.210  32.211   6.450
 8330POPC   D2A64048  32.288  32.261   6.750
 8330POPC   C3A64049  32.258  32.223   7.050
 8330POPC   C4A64050  32.202  32.228   7.350
 8330POPC   C1B64051  31.997  32.346   6.450
 8330POPC   C2B64052  32.046  32.388   6.750
 8330POPC   C3B64053  32.070  32.353   7.050
 8330POPC   C4B64054  32.060  32.389   7.350
 8331POPC   NC364055  43.095  36.940   5.550
 8331POPC   PO464056  43.076  36.900   5.850
 8331POPC   GL164057  43.079  36.860   6.150
 8331POPC   GL264058  43.186  36.839   6.150
 8331POPC   C1A64059  43.150  36.866   6.450
 8331POPC   D2A64060  43.116  36.860   6.750
 8331POPC   C3A64061  43.128  36.935   7.050
 8331POPC   C4A64062  43.147  36.905   7.350
 8331POPC   C1B64063  43.351  36.840   6.450
 8331POPC   C2B64064  43.362  36.817   6.750
 8331POPC   C3B64065  43.384  36.802   7.050
 8331POPC   C4B64066  43.349  36.860   7.350
 8332POPC   NC364067   3.494  26.058   5.550
 8332POPC   PO464068   3.583  26.027   5.850
 8332POPC   GL164069   3.583  26.087   6.150
 8332POPC   GL264070   3.481  25.910   6.150
 8332POPC   C1A64071   3.570  26.083   6.450
 8332POPC   D2A64072   3.561  26.033   6.750
 8332POPC   C3A64073   3.574  26.089   7.050
 8332POPC   C4A64074   3.505  26.082   7.350
 8332POPC   C1B64075   3.438  25.805   6.450
 8332POPC   C2B64076   3.501  25.797   6.750
 8332POPC   C3B64077   3.468  25.792   7.050
 8332POPC   C4B64078   3.460  25.767   7.350
 8333POPC   NC364079  40.023  32.287   5.550
 8333POPC   PO464080  40.012  32.297   5.850
 8333POPC   GL164081  40.035  32.228   6.150
 8333POPC   GL264082  39.856  32.241   6.150
 8333POPC   C1A64083  40.002  32.201   6.450
 8333POPC   D2A64084  40.028  32.256   6.750
 8333POPC   C3A64085  40.044  32.247   7.050
 8333POPC   C4A64086  40.028  32.281   7.350
 8333POPC   C1B64087  39.744  32.340   6.450
 8333POPC   C2B64088  39.809  32.318   6.750
 8333POPC   C3B64089  39.726  32.279   7.050
 8333POPC   C4B64090  39.722  32.352   7.350
 8334POPC   NC364091  26.768  26.043   5.550
 8334POPC   PO464092  26.835  26.087   5.850
 8334POPC   GL164093  26.839  26.050   6.150
 8334POPC   GL264094  26.770  25.978   6.150
 8334POPC   C1A64095  26.837  26.090   6.450
 8334POPC   D2A64096  26.796  26.071   6.750
 8334POPC   C3A64097  26.791  26.007   7.050
 8334POPC   C4A64098  26.865  26.009   7.350
 8334POPC   C1B64099  26.682  25.878   6.450
 8334POPC   C2B64100  26.712  25.797   6.750
 8334POPC   C3B64101  26.656  25.795   7.050
 8334POPC   C4B64102  26.632  25.795   7.350
 8335POPC   NC364103  16.772   7.443   5.550
 8335POPC   PO464104  16.755   7.446   5.850
 8335POPC   GL164105  16.762   7.390   6.150
 8335POPC   GL264106  16.808   7.576   6.150
 8335POPC   C1A64107  16.778   7.410   6.450
 8335POPC   D2A64108  16.753   7.471   6.750
 8335POPC   C3A64109  16.703   7.462   7.050
 8335POPC   C4A64110  16.717   7.407   7.350
 8335POPC   C1B64111  16.758   7.692   6.450
 8335POPC   C2B64112  16.796   7.615   6.750
 8335POPC   C3B64113  16.826   7.648   7.050
 8335POPC   C4B64114  16.786   7.637   7.350
 8336POPC   NC364115  42.331   7.381   5.550
 8336POPC   PO464116  42.299   7.382   5.850
 8336POPC   GL164117  42.310   7.434   6.150
 8336POPC   GL264118  42.459   7.535   6.150
 8336POPC   C1A64119  42.300   7.427   6.450
 8336POPC   D2A64120  42.304   7.464   6.750
 8336POPC   C3A64121  42.370   7.377   7.050
 8336POPC   C4A64122  42.351   7.402   7.350
 8336POPC   C1B64123  42.553   7.606   6.450
 8336POPC   C2B64124  42.487   7.591   6.750
 8336POPC   C3B64125  42.525   7.568   7.050
 8336POPC   C4B64126  42.543   7.596   7.350
 8337POPC   NC364127   5.887  37.726   5.550
 8337POPC   PO464128   5.869  37.688   5.850
 8337POPC   GL164129   5.902  37.722   6.150
 8337POPC   GL264130   5.755  37.539   6.150
 8337POPC   C1A64131   5.916  37.717   6.450
 8337POPC   D2A64132   5.825  37.705   6.750
 8337POPC   C3A64133   5.892  37.651   7.050
 8337POPC   C4A64134   5.842  37.684   7.350
 8337POPC   C1B64135   5.772  37.438   6.450
 8337POPC   C2B64136   5.719  37.512   6.750
 8337POPC   C3B64137   5.763  37.500   7.050
 8337POPC   C4B64138   5.706  37.459   7.350
 8338POPC   NC364139  29.159   9.771   5.550
 8338POPC   PO464140  29.111   9.708   5.850
 8338POPC   GL164141  29.156   9.793   6.150
 8338POPC   GL264142  29.058   9.739   6.150
 8338POPC   C1A64143  29.160   9.761   6.450
 8338POPC   D2A64144  29.115   9.769   6.750
 8338POPC   C3A64145  29.151   9.703   7.050
 8338POPC   C4A64146  29.155   9.780   7.350
 8338POPC   C1B64147  28.864   9.794   6.450
 8338POPC   C2B64148  28.864   9.867   6.750
 8338POPC   C3B64149  28.913   9.792   7.050
 8338POPC   C4B64150  28.943   9.855   7.350
 8339POPC   NC364151  26.021  25.252   5.550
 8339POPC   PO464152  26.079  25.292   5.850
 8339POPC   GL164153  26.011  25.276   6.150
 8339POPC   GL264154  25.873  25.286   6.150
 8339POPC   C1A64155  26.059  25.299   6.450
 8339POPC   D2A64156  26.087  25.310   6.750
 8339POPC   C3A64157  26.016  25.260   7.050
 8339POPC   C4A64158  26.043  25.245   7.350
 8339POPC   C1B64159  25.792  25.280   6.450
 8339POPC   C2B64160  25.768  25.356   6.750
 8339POPC   C3B64161  25.770  25.370   7.050
 8339POPC   C4B64162  25.798  25.326   7.350
 8340POPC   NC364163   1.250  34.546   5.550
 8340POPC   PO464164   1.225  34.602   5.850
 8340POPC   GL164165   1.261  34.621   6.150
 8340POPC   GL264166   1.065  34.540   6.150
 8340POPC   C1A64167   1.228  34.555   6.450
 8340POPC   D2A64168   1.231  34.616   6.750
 8340POPC   C3A64169   1.199  34.602   7.050
 8340POPC   C4A64170   1.219  34.529   7.350
 8340POPC   C1B64171   1.020  34.485   6.450
 8340POPC   C2B64172   1.006  34.422   6.750
 8340POPC   C3B64173   0.950  34.471   7.050
 8340POPC   C4B64174   0.957  34.466   7.350
 8341POPC   NC364175   5.086   5.872   5.550
 8341POPC   PO464176   5.083   5.853   5.850
 8341POPC   GL164177   5.116   5.832   6.150
 8341POPC   GL264178   5.012   5.725   6.150
 8341POPC   C1A64179   5.136   5.864   6.450
 8341POPC   D2A64180   5.054   5.918   6.750
 8341POPC   C3A64181   5.104   5.841   7.050
 8341POPC   C4A64182   5.090   5.865   7.350
 8341POPC   C1B64183   4.956   5.706   6.450
 8341POPC   C2B64184   4.948   5.615   6.750
 8341POPC   C3B64185   4.931   5.680   7.050
 8341POPC   C4B64186   4.925   5.667   7.350
 8342POPC   NC364187   8.205   2.002   5.550
 8342POPC   PO464188   8.163   2.019   5.850
 8342POPC   GL164189   8.208   2.014   6.150
 8342POPC   GL264190   8.352   1.968   6.150
 8342POPC   C1A64191   8.199   1.982   6.450
 8342POPC   D2A64192   8.246   2.030   6.750
 8342POPC   C3A64193   8.177   2.011   7.050
 8342POPC   C4A64194   8.180   1.979   7.350
 8342POPC   C1B64195   8.394   1.929   6.450
 8342POPC   C2B64196   8.442   1.971   6.750
 8342POPC   C3B64197   8.393   1.896   7.050
 8342POPC   C4B64198   8.443   1.898   7.350
 8343POPC   NC364199  40.036  42.363   5.550
 8343POPC   PO464200  40.020  42.364   5.850
 8343POPC   GL164201  40.034  42.340   6.150
 8343POPC   GL264202  40.163  42.389   6.150
 8343POPC   C1A64203  40.051  42.288   6.450
 8343POPC   D2A64204  40.006  42.351   6.750
 8343POPC   C3A64205  40.051  42.338   7.050
 8343POPC   C4A64206  40.046  42.328   7.350
 8343POPC   C1B64207  40.256  42.331   6.450
 8343POPC   C2B64208  40.286  42.363   6.750
 8343POPC   C3B64209  40.242  42.359   7.050
 8343POPC   C4B64210  40.247  42.330   7.350
 8344POPC   NC364211   5.880  32.287   5.550
 8344POPC   PO464212   5.895  32.232   5.850
 8344POPC   GL164213   5.903  32.208   6.150
 8344POPC   GL264214   5.968  32.293   6.150
 8344POPC   C1A64215   5.861  32.258   6.450
 8344POPC   D2A64216   5.820  32.262   6.750
 8344POPC   C3A64217   5.914  32.241   7.050
 8344POPC   C4A64218   5.848  32.230   7.350
 8344POPC   C1B64219   6.155  32.303   6.450
 8344POPC   C2B64220   6.138  32.355   6.750
 8344POPC   C3B64221   6.065  32.280   7.050
 8344POPC   C4B64222   6.099  32.328   7.350
 8345POPC   NC364223  22.128  26.838   5.550
 8345POPC   PO464224  22.128  26.818   5.850
 8345POPC   GL164225  22.132  26.819   6.150
 8345POPC   GL264226  22.031  26.845   6.150
 8345POPC   C1A64227  22.115  26.832   6.450
 8345POPC   D2A64228  22.119  26.794   6.750
 8345POPC   C3A64229  22.210  26.833   7.050
 8345POPC   C4A64230  22.205  26.818   7.350
 8345POPC   C1B64231  21.996  26.969   6.450
 8345POPC   C2B64232  21.988  26.956   6.750
 8345POPC   C3B64233  21.924  26.944   7.050
 8345POPC   C4B64234  21.930  26.928   7.350
 8346POPC   NC364235  43.837  31.487   5.550
 8346POPC   PO464236  43.935  31.507   5.850
 8346POPC   GL164237  43.853  31.449   6.150
 8346POPC   GL264238  43.991  31.509   6.150
 8346POPC   C1A64239  43.872  31.481   6.450
 8346POPC   D2A64240  43.869  31.518   6.750
 8346POPC   C3A64241  43.920  31.442   7.050
 8346POPC   C4A64242  43.922  31.465   7.350
 8346POPC   C1B64243  44.098  31.627   6.450
 8346POPC   C2B64244  44.073  31.602   6.750
 8346POPC   C3B64245  44.111  31.624   7.050
 8346POPC   C4B64246  44.144  31.651   7.350
 8347POPC   NC364247   4.333  34.559   5.550
 8347POPC   PO464248   4.304  34.591   5.850
 8347POPC   GL164249   4.357  34.581   6.150
 8347POPC   GL264250   4.391  34.529   6.150
 8347POPC   C1A64251   4.282  34.589   6.450
 8347POPC   D2A64252   4.342  34.609   6.750
 8347POPC   C3A64253   4.347  34.527   7.050
 8347POPC   C4A64254   4.338  34.530   7.350
 8347POPC   C1B64255   4.544  34.448   6.450
 8347POPC   C2B64256   4.577  34.492   6.750
 8347POPC   C3B64257   4.499  34.453   7.050
 8347POPC   C4B64258   4.508  34.406   7.350
 8348POPC   NC364259  32.207   1.257   5.550
 8348POPC   PO464260  32.265   1.177   5.850
 8348POPC   GL164261  32.220   1.203   6.150
 8348POPC   GL264262  32.161   1.091   6.150
 8348POPC   C1A64263  32.297   1.171   6.450
 8348POPC   D2A64264  32.229   1.232   6.750
 8348POPC   C3A64265  32.243   1.227   7.050
 8348POPC   C4A64266  32.239   1.242   7.350
 8348POPC   C1B64267  32.043   1.042   6.450
 8348POPC   C2B64268  32.072   1.069   6.750
 8348POPC   C3B64269  32.075   1.011   7.050
 8348POPC   C4B64270  32.033   1.107   7.350
 8349POPC   NC364271   3.524  28.357   5.550
 8349POPC   PO464272   3.559  28.365   5.850
 8349POPC   GL164273   3.580  28.369   6.150
 8349POPC   GL264274   3.571  28.278   6.150
 8349POPC   C1A64275   3.590  28.418   6.450
 8349POPC   D2A64276   3.568  28.398   6.750
 8349POPC   C3A64277   3.503  28.376   7.050
 8349POPC   C4A64278   3.515  28.332   7.350
 8349POPC   C1B64279   3.603  28.134   6.450
 8349POPC   C2B64280   3.580  28.113   6.750
 8349POPC   C3B64281   3.652  28.159   7.050
 8349POPC   C4B64282   3.602  28.107   7.350
 8350POPC   NC364283   8.217  36.116   5.550
 8350POPC   PO464284   8.229  36.131   5.850
 8350POPC   GL164285   8.178  36.124   6.150
 8350POPC   GL264286   8.048  36.097   6.150
 8350POPC   C1A64287   8.155  36.148   6.450
 8350POPC   D2A64288   8.154  36.117   6.750
 8350POPC   C3A64289   8.202  36.081   7.050
 8350POPC   C4A64290   8.170  36.132   7.350
 8350POPC   C1B64291   7.967  36.099   6.450
 8350POPC   C2B64292   7.941  36.092   6.750
 8350POPC   C3B64293   7.978  36.120   7.050
 8350POPC   C4B64294   7.929  36.078   7.350
 8351POPC   NC364295  15.990  15.141   5.550
 8351POPC   PO464296  15.924  15.183   5.850
 8351POPC   GL164297  15.942  15.149   6.150
 8351POPC   GL264298  16.060  15.278   6.150
 8351POPC   C1A64299  15.940  15.138   6.450
 8351POPC   D2A64300  15.940  15.181   6.750
 8351POPC   C3A64301  15.990  15.139   7.050
 8351POPC   C4A64302  15.957  15.143   7.350
 8351POPC   C1B64303  16.175  15.360   6.450
 8351POPC   C2B64304  16.152  15.350   6.750
 8351POPC   C3B64305  16.115  15.389   7.050
 8351POPC   C4B64306  16.168  15.318   7.350
 8352POPC   NC364307   8.199   0.449   5.550
 8352POPC   PO464308   8.166   0.475   5.850
 8352POPC   GL164309   8.193   0.451   6.150
 8352POPC   GL264310   8.068   0.566   6.150
 8352POPC   C1A64311   8.242   0.459   6.450
 8352POPC   D2A64312   8.220   0.475   6.750
 8352POPC   C3A64313   8.172   0.443   7.050
 8352POPC   C4A64314   8.180   0.395   7.350
 8352POPC   C1B64315   8.025   0.591   6.450
 8352POPC   C2B64316   7.975   0.571   6.750
 8352POPC   C3B64317   7.999   0.606   7.050
 8352POPC   C4B64318   7.982   0.614   7.350
 8353POPC   NC364319  43.099   9.774   5.550
 8353POPC   PO464320  43.086   9.699   5.850
 8353POPC   GL164321  43.112   9.771   6.150
 8353POPC   GL264322  43.010   9.738   6.150
 8353POPC   C1A64323  43.076   9.742   6.450
 8353POPC   D2A64324  43.144   9.778   6.750
 8353POPC   C3A64325  43.132   9.726   7.050
 8353POPC   C4A64326  43.113   9.791   7.350
 8353POPC   C1B64327  42.888   9.699   6.450
 8353POPC   C2B64328  42.900   9.742   6.750
 8353POPC   C3B64329  42.892   9.689   7.050
 8353POPC   C4B64330  42.910   9.702   7.350
 8354POPC   NC364331  36.168   2.024   5.550
 8354POPC   PO464332  36.112   1.975   5.850
 8354POPC   GL164333  36.127   1.942   6.150
 8354POPC   GL264334  36.200   1.964   6.150
 8354POPC   C1A64335  36.147   1.960   6.450
 8354POPC   D2A64336  36.095   2.031   6.750
 8354POPC   C3A64337  36.138   1.995   7.050
 8354POPC   C4A64338  36.146   2.031   7.350
 8354POPC   C1B64339  36.337   1.932   6.450
 8354POPC   C2B64340  36.340   1.906   6.750
 8354POPC   C3B64341  36.353   1.863   7.050
 8354POPC   C4B64342  36.353   1.843   7.350
 8355POPC   NC364343  23.666   1.240   5.550
 8355POPC   PO464344  23.672   1.206   5.850
 8355POPC   GL164345  23.671   1.210   6.150
 8355POPC   GL264346  23.846   1.339   6.150
 8355POPC   C1A64347  23.754   1.200   6.450
 8355POPC   D2A64348  23.753   1.224   6.750
 8355POPC   C3A64349  23.704   1.228   7.050
 8355POPC   C4A64350  23.683   1.237   7.350
 8355POPC   C1B64351  23.900   1.444   6.450
 8355POPC   C2B64352  23.835   1.410   6.750
 8355POPC   C3B64353  23.890   1.419   7.050
 8355POPC   C4B64354  23.868   1.420   7.350
 8356POPC   NC364355  29.943  27.588   5.550
 8356POPC   PO464356  29.934  27.558   5.850
 8356POPC   GL164357  29.891  27.641   6.150
 8356POPC   GL264358  29.941  27.729   6.150
 8356POPC   C1A64359  29.884  27.633   6.450
 8356POPC   D2A64360  29.877  27.616   6.750
 8356POPC   C3A64361  29.943  27.619   7.050
 8356POPC   C4A64362  29.882  27.590   7.350
 8356POPC   C1B64363  30.000  27.845   6.450
 8356POPC   C2B64364  30.001  27.817   6.750
 8356POPC   C3B64365  30.055  27.804   7.050
 8356POPC   C4B64366  30.040  27.843   7.350
 8357POPC   NC364367  25.264  31.447   5.550
 8357POPC   PO464368  25.291  31.449   5.850
 8357POPC   GL164369  25.218  31.501   6.150
 8357POPC   GL264370  25.232  31.587   6.150
 8357POPC   C1A64371  25.287  31.473   6.450
 8357POPC   D2A64372  25.301  31.455   6.750
 8357POPC   C3A64373  25.218  31.512   7.050
 8357POPC   C4A64374  25.252  31.510   7.350
 8357POPC   C1B64375  25.214  31.712   6.450
 8357POPC   C2B64376  25.190  31.750   6.750
 8357POPC   C3B64377  25.275  31.730   7.050
 8357POPC   C4B64378  25.241  31.708   7.350
 8358POPC   NC364379  26.845  15.960   5.550
 8358POPC   PO464380  26.815  15.909   5.850
 8358POPC   GL164381  26.790  15.914   6.150
 8358POPC   GL264382  26.763  15.900   6.150
 8358POPC   C1A64383  26.793  15.956   6.450
 8358POPC   D2A64384  26.849  15.993   6.750
 8358POPC   C3A64385  26.813  15.936   7.050
 8358POPC   C4A64386  26.783  15.911   7.350
 8358POPC   C1B64387  26.571  15.782   6.450
 8358POPC   C2B64388  26.634  15.802   6.750
 8358POPC   C3B64389  26.597  15.821   7.050
 8358POPC   C4B64390  26.658  15.850   7.350
 8359POPC   NC364391   2.038  32.213   5.550
 8359POPC   PO464392   1.996  32.218   5.850
 8359POPC   GL164393   2.035  32.230   6.150
 8359POPC   GL264394   2.083  32.235   6.150
 8359POPC   C1A64395   1.977  32.271   6.450
 8359POPC   D2A64396   2.018  32.224   6.750
 8359POPC   C3A64397   2.001  32.269   7.050
 8359POPC   C4A64398   1.997  32.237   7.350
 8359POPC   C1B64399   2.220  32.129   6.450
 8359POPC   C2B64400   2.229  32.165   6.750
 8359POPC   C3B64401   2.208  32.102   7.050
 8359POPC   C4B64402   2.249  32.126   7.350
 8360POPC   NC364403   7.447  32.244   5.550
 8360POPC   PO464404   7.398  32.266   5.850
 8360POPC   GL164405   7.414  32.248   6.150
 8360POPC   GL264406   7.350  32.392   6.150
 8360POPC   C1A64407   7.406  32.279   6.450
 8360POPC   D2A64408   7.446  32.269   6.750
 8360POPC   C3A64409   7.420  32.212   7.050
 8360POPC   C4A64410   7.457  32.240   7.350
 8360POPC   C1B64411   7.330  32.450   6.450
 8360POPC   C2B64412   7.336  32.498   6.750
 8360POPC   C3B64413   7.387  32.487   7.050
 8360POPC   C4B64414   7.317  32.517   7.350
 8361POPC   NC364415  19.797  14.396   5.550
 8361POPC   PO464416  19.822  14.399   5.850
 8361POPC   GL164417  19.882  14.379   6.150
 8361POPC   GL264418  19.684  14.403   6.150
 8361POPC   C1A64419  19.869  14.436   6.450
 8361POPC   D2A64420  19.843  14.405   6.750
 8361POPC   C3A64421  19.843  14.447   7.050
 8361POPC   C4A64422  19.797  14.432   7.350
 8361POPC   C1B64423  19.629  14.297   6.450
 8361POPC   C2B64424  19.568  14.392   6.750
 8361POPC   C3B64425  19.546  14.377   7.050
 8361POPC   C4B64426  19.592  14.360   7.350
 8362POPC   NC364427  26.777  21.341   5.550
 8362POPC   PO464428  26.796  21.357   5.850
 8362POPC   GL164429  26.813  21.339   6.150
 8362POPC   GL264430  26.976  21.470   6.150
 8362POPC   C1A64431  26.788  21.399   6.450
 8362POPC   D2A64432  26.799  21.397   6.750
 8362POPC   C3A64433  26.855  21.348   7.050
 8362POPC   C4A64434  26.806  21.404   7.350
 8362POPC   C1B64435  27.069  21.503   6.450
 8362POPC   C2B64436  27.091  21.447   6.750
 8362POPC   C3B64437  27.051  21.440   7.050
 8362POPC   C4B64438  27.050  21.457   7.350
 8363POPC   NC364439  25.265  42.373   5.550
 8363POPC   PO464440  25.295  42.323   5.850
 8363POPC   GL164441  25.243  42.373   6.150
 8363POPC   GL264442  25.276  42.267   6.150
 8363POPC   C1A64443  25.299  42.324   6.450
 8363POPC   D2A64444  25.311  42.287   6.750
 8363POPC   C3A64445  25.245  42.376   7.050
 8363POPC   C4A64446  25.302  42.356   7.350
 8363POPC   C1B64447  25.320  42.144   6.450
 8363POPC   C2B64448  25.338  42.087   6.750
 8363POPC   C3B64449  25.405  42.101   7.050
 8363POPC   C4B64450  25.314  42.132   7.350
 8364POPC   NC364451   5.124  27.544   5.550
 8364POPC   PO464452   5.115  27.631   5.850
 8364POPC   GL164453   5.045  27.544   6.150
 8364POPC   GL264454   5.166  27.690   6.150
 8364POPC   C1A64455   5.046  27.632   6.450
 8364POPC   D2A64456   5.062  27.582   6.750
 8364POPC   C3A64457   5.137  27.640   7.050
 8364POPC   C4A64458   5.113  27.642   7.350
 8364POPC   C1B64459   5.191  27.844   6.450
 8364POPC   C2B64460   5.254  27.836   6.750
 8364POPC   C3B64461   5.280  27.798   7.050
 8364POPC   C4B64462   5.279  27.818   7.350
 8365POPC   NC364463  28.366   5.127   5.550
 8365POPC   PO464464  28.402   5.094   5.850
 8365POPC   GL164465  28.342   5.121   6.150
 8365POPC   GL264466  28.225   4.974   6.150
 8365POPC   C1A64467  28.362   5.069   6.450
 8365POPC   D2A64468  28.408   5.075   6.750
 8365POPC   C3A64469  28.408   5.080   7.050
 8365POPC   C4A64470  28.360   5.085   7.350
 8365POPC   C1B64471  28.217   4.918   6.450
 8365POPC   C2B64472  28.132   4.911   6.750
 8365POPC   C3B64473  28.162   4.980   7.050
 8365POPC   C4B64474  28.200   4.943   7.350
 8366POPC   NC364475  21.395  29.119   5.550
 8366POPC   PO464476  21.433  29.113   5.850
 8366POPC   GL164477  21.427  29.112   6.150
 8366POPC   GL264478  21.446  29.070   6.150
 8366POPC   C1A64479  21.379  29.151   6.450
 8366POPC   D2A64480  21.349  29.191   6.750
 8366POPC   C3A64481  21.423  29.172   7.050
 8366POPC   C4A64482  21.392  29.122   7.350
 8366POPC   C1B64483  21.572  28.923   6.450
 8366POPC   C2B64484  21.577  28.973   6.750
 8366POPC   C3B64485  21.532  28.926   7.050
 8366POPC   C4B64486  21.573  28.931   7.350
 8367POPC   NC364487  21.370   4.345   5.550
 8367POPC   PO464488  21.342   4.338   5.850
 8367POPC   GL164489  21.372   4.280   6.150
 8367POPC   GL264490  21.433   4.454   6.150
 8367POPC   C1A64491  21.407   4.341   6.450
 8367POPC   D2A64492  21.431   4.326   6.750
 8367POPC   C3A64493  21.417   4.297   7.050
 8367POPC   C4A64494  21.348   4.361   7.350
 8367POPC   C1B64495  21.522   4.513   6.450
 8367POPC   C2B64496  21.486   4.561   6.750
 8367POPC   C3B64497  21.523   4.495   7.050
 8367POPC   C4B64498  21.562   4.517   7.350
 8368POPC   NC364499  22.916  24.513   5.550
 8368POPC   PO464500  22.966  24.447   5.850
 8368POPC   GL164501  22.899  24.478   6.150
 8368POPC   GL264502  23.002  24.632   6.150
 8368POPC   C1A64503  22.904  24.448   6.450
 8368POPC   D2A64504  22.908  24.454   6.750
 8368POPC   C3A64505  22.967  24.494   7.050
 8368POPC   C4A64506  22.918  24.443   7.350
 8368POPC   C1B64507  22.954  24.723   6.450
 8368POPC   C2B64508  22.985  24.704   6.750
 8368POPC   C3B64509  23.002  24.753   7.050
 8368POPC   C4B64510  22.943  24.731   7.350
 8369POPC   NC364511  34.562  40.011   5.550
 8369POPC   PO464512  34.540  39.998   5.850
 8369POPC   GL164513  34.531  39.981   6.150
 8369POPC   GL264514  34.704  39.909   6.150
 8369POPC   C1A64515  34.575  39.980   6.450
 8369POPC   D2A64516  34.595  40.032   6.750
 8369POPC   C3A64517  34.600  40.054   7.050
 8369POPC   C4A64518  34.544  39.982   7.350
 8369POPC   C1B64519  34.784  39.866   6.450
 8369POPC   C2B64520  34.796  39.846   6.750
 8369POPC   C3B64521  34.788  39.905   7.050
 8369POPC   C4B64522  34.768  39.908   7.350
 8370POPC   NC364523  27.562  14.378   5.550
 8370POPC   PO464524  27.596  14.434   5.850
 8370POPC   GL164525  27.615  14.376   6.150
 8370POPC   GL264526  27.747  14.328   6.150
 8370POPC   C1A64527  27.624  14.448   6.450
 8370POPC   D2A64528  27.629  14.425   6.750
 8370POPC   C3A64529  27.554  14.440   7.050
 8370POPC   C4A64530  27.614  14.433   7.350
 8370POPC   C1B64531  27.847  14.257   6.450
 8370POPC   C2B64532  27.820  14.322   6.750
 8370POPC   C3B64533  27.782  14.340   7.050
 8370POPC   C4B64534  27.827  14.295   7.350
 8371POPC   NC364535  40.005   1.945   5.550
 8371POPC   PO464536  39.976   1.973   5.850
 8371POPC   GL164537  39.989   2.038   6.150
 8371POPC   GL264538  39.938   2.067   6.150
 8371POPC   C1A64539  39.969   2.011   6.450
 8371POPC   D2A64540  40.048   1.941   6.750
 8371POPC   C3A64541  40.001   2.001   7.050
 8371POPC   C4A64542  40.004   2.008   7.350
 8371POPC   C1B64543  39.866   2.170   6.450
 8371POPC   C2B64544  39.853   2.164   6.750
 8371POPC   C3B64545  39.835   2.162   7.050
 8371POPC   C4B64546  39.794   2.151   7.350
 8372POPC   NC364547   7.449  37.712   5.550
 8372POPC   PO464548   7.421  37.692   5.850
 8372POPC   GL164549   7.380  37.728   6.150
 8372POPC   GL264550   7.532  37.740   6.150
 8372POPC   C1A64551   7.466  37.671   6.450
 8372POPC   D2A64552   7.448  37.642   6.750
 8372POPC   C3A64553   7.374  37.636   7.050
 8372POPC   C4A64554   7.427  37.645   7.350
 8372POPC   C1B64555   7.647  37.792   6.450
 8372POPC   C2B64556   7.653  37.754   6.750
 8372POPC   C3B64557   7.616  37.774   7.050
 8372POPC   C4B64558   7.697  37.822   7.350
 8373POPC   NC364559  41.577   1.214   5.550
 8373POPC   PO464560  41.524   1.231   5.850
 8373POPC   GL164561  41.533   1.166   6.150
 8373POPC   GL264562  41.713   1.199   6.150
 8373POPC   C1A64563  41.577   1.230   6.450
 8373POPC   D2A64564  41.583   1.186   6.750
 8373POPC   C3A64565  41.543   1.170   7.050
 8373POPC   C4A64566  41.558   1.248   7.350
 8373POPC   C1B64567  41.806   1.205   6.450
 8373POPC   C2B64568  41.812   1.166   6.750
 8373POPC   C3B64569  41.815   1.253   7.050
 8373POPC   C4B64570  41.776   1.243   7.350
 8374POPC   NC364571  15.207  12.827   5.550
 8374POPC   PO464572  15.183  12.896   5.850
 8374POPC   GL164573  15.209  12.876   6.150
 8374POPC   GL264574  15.050  12.940   6.150
 8374POPC   C1A64575  15.146  12.826   6.450
 8374POPC   D2A64576  15.214  12.802   6.750
 8374POPC   C3A64577  15.203  12.811   7.050
 8374POPC   C4A64578  15.210  12.845   7.350
 8374POPC   C1B64579  15.020  13.016   6.450
 8374POPC   C2B64580  14.937  13.001   6.750
 8374POPC   C3B64581  14.930  13.046   7.050
 8374POPC   C4B64582  14.932  13.000   7.350
 8375POPC   NC364583  19.862  33.042   5.550
 8375POPC   PO464584  19.821  33.030   5.850
 8375POPC   GL164585  19.806  33.040   6.150
 8375POPC   GL264586  19.702  32.935   6.150
 8375POPC   C1A64587  19.872  33.041   6.450
 8375POPC   D2A64588  19.801  32.981   6.750
 8375POPC   C3A64589  19.791  33.011   7.050
 8375POPC   C4A64590  19.853  33.018   7.350
 8375POPC   C1B64591  19.638  32.851   6.450
 8375POPC   C2B64592  19.675  32.835   6.750
 8375POPC   C3B64593  19.689  32.872   7.050
 8375POPC   C4B64594  19.598  32.822   7.350
 8376POPC   NC364595  18.316  19.862   5.550
 8376POPC   PO464596  18.271  19.866   5.850
 8376POPC   GL164597  18.243  19.847   6.150
 8376POPC   GL264598  18.324  19.937   6.150
 8376POPC   C1A64599  18.302  19.859   6.450
 8376POPC   D2A64600  18.271  19.837   6.750
 8376POPC   C3A64601  18.295  19.785   7.050
 8376POPC   C4A64602  18.319  19.837   7.350
 8376POPC   C1B64603  18.473  20.018   6.450
 8376POPC   C2B64604  18.478  19.997   6.750
 8376POPC   C3B64605  18.458  20.070   7.050
 8376POPC   C4B64606  18.429  20.020   7.350
 8377POPC   NC364607  43.885  22.942   5.550
 8377POPC   PO464608  43.855  22.905   5.850
 8377POPC   GL164609  43.928  22.975   6.150
 8377POPC   GL264610  43.940  22.814   6.150
 8377POPC   C1A64611  43.915  22.974   6.450
 8377POPC   D2A64612  43.884  22.918   6.750
 8377POPC   C3A64613  43.840  22.977   7.050
 8377POPC   C4A64614  43.880  22.893   7.350
 8377POPC   C1B64615  43.920  22.698   6.450
 8377POPC   C2B64616  43.985  22.659   6.750
 8377POPC   C3B64617  43.948  22.690   7.050
 8377POPC   C4B64618  43.947  22.745   7.350
 8378POPC   NC364619  43.901  37.726   5.550
 8378POPC   PO464620  43.842  37.672   5.850
 8378POPC   GL164621  43.848  37.700   6.150
 8378POPC   GL264622  43.773  37.807   6.150
 8378POPC   C1A64623  43.886  37.712   6.450
 8378POPC   D2A64624  43.914  37.690   6.750
 8378POPC   C3A64625  43.838  37.724   7.050
 8378POPC   C4A64626  43.848  37.655   7.350
 8378POPC   C1B64627  43.671  37.824   6.450
 8378POPC   C2B64628  43.699  37.862   6.750
 8378POPC   C3B64629  43.731  37.882   7.050
 8378POPC   C4B64630  43.670  37.804   7.350
 8379POPC   NC364631  12.846  29.174   5.550
 8379POPC   PO464632  12.842  29.135   5.850
 8379POPC   GL164633  12.826  29.178   6.150
 8379POPC   GL264634  13.006  29.081   6.150
 8379POPC   C1A64635  12.838  29.103   6.450
 8379POPC   D2A64636  12.881  29.131   6.750
 8379POPC   C3A64637  12.803  29.156   7.050
 8379POPC   C4A64638  12.814  29.151   7.350
 8379POPC   C1B64639  13.045  29.049   6.450
 8379POPC   C2B64640  13.066  29.083   6.750
 8379POPC   C3B64641  13.096  29.051   7.050
 8379POPC   C4B64642  13.040  29.065   7.350
 8380POPC   NC364643  42.382  32.993   5.550
 8380POPC   PO464644  42.319  32.984   5.850
 8380POPC   GL164645  42.338  33.027   6.150
 8380POPC   GL264646  42.363  33.126   6.150
 8380POPC   C1A64647  42.355  33.070   6.450
 8380POPC   D2A64648  42.326  32.978   6.750
 8380POPC   C3A64649  42.367  33.004   7.050
 8380POPC   C4A64650  42.332  33.060   7.350
 8380POPC   C1B64651  42.407  33.251   6.450
 8380POPC   C2B64652  42.399  33.244   6.750
 8380POPC   C3B64653  42.466  33.273   7.050
 8380POPC   C4B64654  42.390  33.220   7.350
 8381POPC   NC364655  40.832   8.943   5.550
 8381POPC   PO464656  40.752   8.999   5.850
 8381POPC   GL164657  40.759   8.959   6.150
 8381POPC   GL264658  40.793   9.089   6.150
 8381POPC   C1A64659  40.743   9.021   6.450
 8381POPC   D2A64660  40.778   8.987   6.750
 8381POPC   C3A64661  40.775   8.949   7.050
 8381POPC   C4A64662  40.812   9.021   7.350
 8381POPC   C1B64663  40.769   9.186   6.450
 8381POPC   C2B64664  40.833   9.269   6.750
 8381POPC   C3B64665  40.808   9.193   7.050
 8381POPC   C4B64666  40.849   9.245   7.350
 8382POPC   NC364667  40.762  32.975   5.550
 8382POPC   PO464668  40.829  33.059   5.850
 8382POPC   GL164669  40.811  33.024   6.150
 8382POPC   GL264670  40.865  32.880   6.150
 8382POPC   C1A64671  40.823  32.975   6.450
 8382POPC   D2A64672  40.814  33.043   6.750
 8382POPC   C3A64673  40.779  33.060   7.050
 8382POPC   C4A64674  40.778  33.065   7.350
 8382POPC   C1B64675  40.897  32.753   6.450
 8382POPC   C2B64676  40.815  32.780   6.750
 8382POPC   C3B64677  40.890  32.793   7.050
 8382POPC   C4B64678  40.887  32.763   7.350
 8383POPC   NC364679  15.140  26.774   5.550
 8383POPC   PO464680  15.178  26.802   5.850
 8383POPC   GL164681  15.216  26.835   6.150
 8383POPC   GL264682  15.220  26.896   6.150
 8383POPC   C1A64683  15.210  26.841   6.450
 8383POPC   D2A64684  15.157  26.805   6.750
 8383POPC   C3A64685  15.133  26.856   7.050
 8383POPC   C4A64686  15.218  26.815   7.350
 8383POPC   C1B64687  15.132  27.077   6.450
 8383POPC   C2B64688  15.124  27.083   6.750
 8383POPC   C3B64689  15.196  27.097   7.050
 8383POPC   C4B64690  15.143  27.054   7.350
 8384POPC   NC364691  39.231   1.185   5.550
 8384POPC   PO464692  39.263   1.177   5.850
 8384POPC   GL164693  39.227   1.263   6.150
 8384POPC   GL264694  39.165   1.078   6.150
 8384POPC   C1A64695  39.242   1.253   6.450
 8384POPC   D2A64696  39.213   1.201   6.750
 8384POPC   C3A64697  39.269   1.204   7.050
 8384POPC   C4A64698  39.191   1.236   7.350
 8384POPC   C1B64699  39.188   0.984   6.450
 8384POPC   C2B64700  39.213   0.918   6.750
 8384POPC   C3B64701  39.169   0.989   7.050
 8384POPC   C4B64702  39.217   0.939   7.350
 8385POPC   NC364703  35.334   1.230   5.550
 8385POPC   PO464704  35.347   1.234   5.850
 8385POPC   GL164705  35.387   1.261   6.150
 8385POPC   GL264706  35.420   1.246   6.150
 8385POPC   C1A64707  35.322   1.184   6.450
 8385POPC   D2A64708  35.401   1.175   6.750
 8385POPC   C3A64709  35.383   1.188   7.050
 8385POPC   C4A64710  35.337   1.193   7.350
 8385POPC   C1B64711  35.608   1.345   6.450
 8385POPC   C2B64712  35.576   1.276   6.750
 8385POPC   C3B64713  35.557   1.317   7.050
 8385POPC   C4B64714  35.568   1.283   7.350
 8386POPC   NC364715   8.188   8.242   5.550
 8386POPC   PO464716   8.162   8.203   5.850
 8386POPC   GL164717   8.219   8.194   6.150
 8386POPC   GL264718   8.060   8.234   6.150
 8386POPC   C1A64719   8.224   8.190   6.450
 8386POPC   D2A64720   8.213   8.192   6.750
 8386POPC   C3A64721   8.148   8.206   7.050
 8386POPC   C4A64722   8.217   8.156   7.350
 8386POPC   C1B64723   7.951   8.227   6.450
 8386POPC   C2B64724   7.956   8.211   6.750
 8386POPC   C3B64725   7.977   8.215   7.050
 8386POPC   C4B64726   7.921   8.230   7.350
 8387POPC   NC364727  12.040  43.861   5.550
 8387POPC   PO464728  12.072  43.851   5.850
 8387POPC   GL164729  12.100  43.852   6.150
 8387POPC   GL264730  12.032  44.018   6.150
 8387POPC   C1A64731  12.071  43.889   6.450
 8387POPC   D2A64732  12.091  43.881   6.750
 8387POPC   C3A64733  12.123  43.867   7.050
 8387POPC   C4A64734  12.103  43.890   7.350
 8387POPC   C1B64735  11.895  44.134   6.450
 8387POPC   C2B64736  11.922  44.100   6.750
 8387POPC   C3B64737  11.966  44.098   7.050
 8387POPC   C4B64738  11.904  44.058   7.350
 8388POPC   NC364739  10.533  33.826   5.550
 8388POPC   PO464740  10.481  33.797   5.850
 8388POPC   GL164741  10.528  33.799   6.150
 8388POPC   GL264742  10.571  33.944   6.150
 8388POPC   C1A64743  10.480  33.823   6.450
 8388POPC   D2A64744  10.479  33.772   6.750
 8388POPC   C3A64745  10.486  33.757   7.050
 8388POPC   C4A64746  10.570  33.767   7.350
 8388POPC   C1B64747  10.505  34.049   6.450
 8388POPC   C2B64748  10.525  34.081   6.750
 8388POPC   C3B64749  10.601  34.055   7.050
 8388POPC   C4B64750  10.564  34.095   7.350
 8389POPC   NC364751  44.699  12.045   5.550
 8389POPC   PO464752  44.694  12.044   5.850
 8389POPC   GL164753  44.692  12.088   6.150
 8389POPC   GL264754  44.594  12.186   6.150
 8389POPC   C1A64755  44.627  12.084   6.450
 8389POPC   D2A64756  44.645  12.027   6.750
 8389POPC   C3A64757  44.692  12.087   7.050
 8389POPC   C4A64758  44.703  12.042   7.350
 8389POPC   C1B64759  44.519  12.274   6.450
 8389POPC   C2B64760  44.527  12.322   6.750
 8389POPC   C3B64761  44.511  12.299   7.050
 8389POPC   C4B64762  44.577  12.344   7.350
 8390POPC   NC364763  41.584   2.009   5.550
 8390POPC   PO464764  41.527   1.980   5.850
 8390POPC   GL164765  41.518   2.017   6.150
 8390POPC   GL264766  41.637   1.936   6.150
 8390POPC   C1A64767  41.600   1.952   6.450
 8390POPC   D2A64768  41.591   1.973   6.750
 8390POPC   C3A64769  41.570   1.988   7.050
 8390POPC   C4A64770  41.571   1.963   7.350
 8390POPC   C1B64771  41.835   1.969   6.450
 8390POPC   C2B64772  41.790   1.942   6.750
 8390POPC   C3B64773  41.781   1.893   7.050
 8390POPC   C4B64774  41.774   1.914   7.350
 8391POPC   NC364775  33.775   8.149   5.550
 8391POPC   PO464776  33.766   8.237   5.850
 8391POPC   GL164777  33.828   8.198   6.150
 8391POPC   GL264778  33.673   8.269   6.150
 8391POPC   C1A64779  33.806   8.152   6.450
 8391POPC   D2A64780  33.811   8.213   6.750
 8391POPC   C3A64781  33.752   8.152   7.050
 8391POPC   C4A64782  33.768   8.213   7.350
 8391POPC   C1B64783  33.631   8.361   6.450
 8391POPC   C2B64784  33.603   8.331   6.750
 8391POPC   C3B64785  33.647   8.309   7.050
 8391POPC   C4B64786  33.563   8.389   7.350
 8392POPC   NC364787   2.725  29.898   5.550
 8392POPC   PO464788   2.718  29.949   5.850
 8392POPC   GL164789   2.764  29.944   6.150
 8392POPC   GL264790   2.751  29.756   6.150
 8392POPC   C1A64791   2.767  29.953   6.450
 8392POPC   D2A64792   2.727  29.963   6.750
 8392POPC   C3A64793   2.791  29.925   7.050
 8392POPC   C4A64794   2.812  29.907   7.350
 8392POPC   C1B64795   2.684  29.694   6.450
 8392POPC   C2B64796   2.692  29.660   6.750
 8392POPC   C3B64797   2.672  29.662   7.050
 8392POPC   C4B64798   2.667  29.639   7.350
 8393POPC   NC364799  29.172  42.328   5.550
 8393POPC   PO464800  29.156  42.375   5.850
 8393POPC   GL164801  29.160  42.304   6.150
 8393POPC   GL264802  29.009  42.350   6.150
 8393POPC   C1A64803  29.189  42.294   6.450
 8393POPC   D2A64804  29.181  42.330   6.750
 8393POPC   C3A64805  29.194  42.362   7.050
 8393POPC   C4A64806  29.106  42.375   7.350
 8393POPC   C1B64807  28.858  42.368   6.450
 8393POPC   C2B64808  28.930  42.380   6.750
 8393POPC   C3B64809  28.908  42.331   7.050
 8393POPC   C4B64810  28.851  42.339   7.350
 8394POPC   NC364811   3.518   1.986   5.550
 8394POPC   PO464812   3.528   1.984   5.850
 8394POPC   GL164813   3.582   1.970   6.150
 8394POPC   GL264814   3.569   1.867   6.150
 8394POPC   C1A64815   3.568   1.964   6.450
 8394POPC   D2A64816   3.560   2.015   6.750
 8394POPC   C3A64817   3.498   1.978   7.050
 8394POPC   C4A64818   3.518   2.004   7.350
 8394POPC   C1B64819   3.682   1.793   6.450
 8394POPC   C2B64820   3.699   1.789   6.750
 8394POPC   C3B64821   3.672   1.772   7.050
 8394POPC   C4B64822   3.720   1.746   7.350
 8395POPC   NC364823  15.201   5.095   5.550
 8395POPC   PO464824  15.227   5.046   5.850
 8395POPC   GL164825  15.211   5.047   6.150
 8395POPC   GL264826  15.062   5.045   6.150
 8395POPC   C1A64827  15.192   5.065   6.450
 8395POPC   D2A64828  15.144   5.131   6.750
 8395POPC   C3A64829  15.165   5.137   7.050
 8395POPC   C4A64830  15.198   5.123   7.350
 8395POPC   C1B64831  14.919   5.060   6.450
 8395POPC   C2B64832  14.894   5.033   6.750
 8395POPC   C3B64833  14.897   5.030   7.050
 8395POPC   C4B64834  14.942   5.029   7.350
 8396POPC   NC364835  40.802  30.657   5.550
 8396POPC   PO464836  40.807  30.705   5.850
 8396POPC   GL164837  40.738  30.723   6.150
 8396POPC   GL264838  40.744  30.576   6.150
 8396POPC   C1A64839  40.816  30.673   6.450
 8396POPC   D2A64840  40.764  30.668   6.750
 8396POPC   C3A64841  40.750  30.680   7.050
 8396POPC   C4A64842  40.763  30.738   7.350
 8396POPC   C1B64843  40.730  30.455   6.450
 8396POPC   C2B64844  40.665  30.498   6.750
 8396POPC   C3B64845  40.695  30.427   7.050
 8396POPC   C4B64846  40.739  30.429   7.350
 8397POPC   NC364847  31.476   7.391   5.550
 8397POPC   PO464848  31.446   7.408   5.850
 8397POPC   GL164849  31.448   7.424   6.150
 8397POPC   GL264850  31.620   7.427   6.150
 8397POPC   C1A64851  31.459   7.373   6.450
 8397POPC   D2A64852  31.504   7.463   6.750
 8397POPC   C3A64853  31.425   7.405   7.050
 8397POPC   C4A64854  31.488   7.420   7.350
 8397POPC   C1B64855  31.750   7.403   6.450
 8397POPC   C2B64856  31.757   7.430   6.750
 8397POPC   C3B64857  31.707   7.432   7.050
 8397POPC   C4B64858  31.695   7.457   7.350
 8398POPC   NC364859  30.713  18.243   5.550
 8398POPC   PO464860  30.683  18.274   5.850
 8398POPC   GL164861  30.717  18.282   6.150
 8398POPC   GL264862  30.658  18.148   6.150
 8398POPC   C1A64863  30.695  18.239   6.450
 8398POPC   D2A64864  30.701  18.297   6.750
 8398POPC   C3A64865  30.694  18.285   7.050
 8398POPC   C4A64866  30.675  18.302   7.350
 8398POPC   C1B64867  30.599  18.042   6.450
 8398POPC   C2B64868  30.552  18.065   6.750
 8398POPC   C3B64869  30.576  18.109   7.050
 8398POPC   C4B64870  30.574  18.020   7.350
 8399POPC   NC364871  30.694  34.601   5.550
 8399POPC   PO464872  30.712  34.589   5.850
 8399POPC   GL164873  30.694  34.606   6.150
 8399POPC   GL264874  30.759  34.635   6.150
 8399POPC   C1A64875  30.741  34.528   6.450
 8399POPC   D2A64876  30.675  34.605   6.750
 8399POPC   C3A64877  30.701  34.557   7.050
 8399POPC   C4A64878  30.740  34.555   7.350
 8399POPC   C1B64879  30.854  34.746   6.450
 8399POPC   C2B64880  30.900  34.727   6.750
 8399POPC   C3B64881  30.826  34.782   7.050
 8399POPC   C4B64882  30.866  34.760   7.350
 8400POPC   NC364883  40.786  36.933   5.550
 8400POPC   PO464884  40.816  36.921   5.850
 8400POPC   GL164885  40.798  36.923   6.150
 8400POPC   GL264886  40.892  36.998   6.150
 8400POPC   C1A64887  40.774  36.881   6.450
 8400POPC   D2A64888  40.816  36.952   6.750
 8400POPC   C3A64889  40.783  36.910   7.050
 8400POPC   C4A64890  40.771  36.854   7.350
 8400POPC   C1B64891  41.032  37.048   6.450
 8400POPC   C2B64892  40.936  37.037   6.750
 8400POPC   C3B64893  40.956  37.021   7.050
 8400POPC   C4B64894  40.944  37.029   7.350
 8401POPC   NC364895   2.038   1.225   5.550
 8401POPC   PO464896   2.023   1.186   5.850
 8401POPC   GL164897   1.995   1.245   6.150
 8401POPC   GL264898   1.889   1.184   6.150
 8401POPC   C1A64899   1.982   1.246   6.450
 8401POPC   D2A64900   1.977   1.262   6.750
 8401POPC   C3A64901   1.964   1.215   7.050
 8401POPC   C4A64902   1.970   1.217   7.350
 8401POPC   C1B64903   1.710   1.195   6.450
 8401POPC   C2B64904   1.771   1.270   6.750
 8401POPC   C3B64905   1.727   1.260   7.050
 8401POPC   C4B64906   1.705   1.229   7.350
 8402POPC   NC364907  10.496  25.245   5.550
 8402POPC   PO464908  10.526  25.225   5.850
 8402POPC   GL164909  10.521  25.307   6.150
 8402POPC   GL264910  10.650  25.268   6.150
 8402POPC   C1A64911  10.485  25.314   6.450
 8402POPC   D2A64912  10.540  25.277   6.750
 8402POPC   C3A64913  10.518  25.291   7.050
 8402POPC   C4A64914  10.556  25.254   7.350
 8402POPC   C1B64915  10.750  25.302   6.450
 8402POPC   C2B64916  10.741  25.377   6.750
 8402POPC   C3B64917  10.747  25.313   7.050
 8402POPC   C4B64918  10.801  25.340   7.350
 8403POPC   NC364919  16.775   3.550   5.550
 8403POPC   PO464920  16.758   3.566   5.850
 8403POPC   GL164921  16.694   3.545   6.150
 8403POPC   GL264922  16.779   3.397   6.150
 8403POPC   C1A64923  16.687   3.556   6.450
 8403POPC   D2A64924  16.709   3.506   6.750
 8403POPC   C3A64925  16.737   3.575   7.050
 8403POPC   C4A64926  16.686   3.589   7.350
 8403POPC   C1B64927  16.799   3.276   6.450
 8403POPC   C2B64928  16.823   3.304   6.750
 8403POPC   C3B64929  16.799   3.329   7.050
 8403POPC   C4B64930  16.837   3.333   7.350
 8404POPC   NC364931  30.741  15.940   5.550
 8404POPC   PO464932  30.721  15.913   5.850
 8404POPC   GL164933  30.702  15.905   6.150
 8404POPC   GL264934  30.737  16.036   6.150
 8404POPC   C1A64935  30.651  15.969   6.450
 8404POPC   D2A64936  30.709  15.915   6.750
 8404POPC   C3A64937  30.674  15.924   7.050
 8404POPC   C4A64938  30.672  15.977   7.350
 8404POPC   C1B64939  30.764  16.167   6.450
 8404POPC   C2B64940  30.710  16.235   6.750
 8404POPC   C3B64941  30.746  16.177   7.050
 8404POPC   C4B64942  30.736  16.214   7.350
 8405POPC   NC364943   3.577  25.253   5.550
 8405POPC   PO464944   3.579  25.231   5.850
 8405POPC   GL164945   3.517  25.276   6.150
 8405POPC   GL264946   3.550  25.346   6.150
 8405POPC   C1A64947   3.544  25.311   6.450
 8405POPC   D2A64948   3.559  25.302   6.750
 8405POPC   C3A64949   3.512  25.315   7.050
 8405POPC   C4A64950   3.545  25.249   7.350
 8405POPC   C1B64951   3.594  25.520   6.450
 8405POPC   C2B64952   3.605  25.500   6.750
 8405POPC   C3B64953   3.568  25.550   7.050
 8405POPC   C4B64954   3.630  25.526   7.350
 8406POPC   NC364955  27.620  29.880   5.550
 8406POPC   PO464956  27.606  29.950   5.850
 8406POPC   GL164957  27.550  29.877   6.150
 8406POPC   GL264958  27.471  29.959   6.150
 8406POPC   C1A64959  27.550  29.955   6.450
 8406POPC   D2A64960  27.600  29.942   6.750
 8406POPC   C3A64961  27.550  29.878   7.050
 8406POPC   C4A64962  27.549  29.912   7.350
 8406POPC   C1B64963  27.348  29.930   6.450
 8406POPC   C2B64964  27.324  29.905   6.750
 8406POPC   C3B64965  27.387  29.933   7.050
 8406POPC   C4B64966  27.295  29.948   7.350
 8407POPC   NC364967  13.603   2.008   5.550
 8407POPC   PO464968  13.652   2.038   5.850
 8407POPC   GL164969  13.636   1.972   6.150
 8407POPC   GL264970  13.729   2.076   6.150
 8407POPC   C1A64971  13.643   2.030   6.450
 8407POPC   D2A64972  13.593   2.020   6.750
 8407POPC   C3A64973  13.617   1.967   7.050
 8407POPC   C4A64974  13.588   2.039   7.350
 8407POPC   C1B64975  13.784   2.125   6.450
 8407POPC   C2B64976  13.843   2.170   6.750
 8407POPC   C3B64977  13.774   2.197   7.050
 8407POPC   C4B64978  13.781   2.196   7.350
 8408POPC   NC364979  17.462   2.752   5.550
 8408POPC   PO464980  17.549   2.749   5.850
 8408POPC   GL164981  17.472   2.763   6.150
 8408POPC   GL264982  17.444   2.684   6.150
 8408POPC   C1A64983  17.487   2.789   6.450
 8408POPC   D2A64984  17.531   2.728   6.750
 8408POPC   C3A64985  17.527   2.741   7.050
 8408POPC   C4A64986  17.484   2.716   7.350
 8408POPC   C1B64987  17.268   2.595   6.450
 8408POPC   C2B64988  17.313   2.647   6.750
 8408POPC   C3B64989  17.347   2.600   7.050
 8408POPC   C4B64990  17.349   2.614   7.350
 8409POPC   NC364991  26.845  28.348   5.550
 8409POPC   PO464992  26.852  28.326   5.850
 8409POPC   GL164993  26.795  28.410   6.150
 8409POPC   GL264994  26.797  28.287   6.150
 8409POPC   C1A64995  26.828  28.374   6.450
 8409POPC   D2A64996  26.848  28.358   6.750
 8409POPC   C3A64997  26.816  28.406   7.050
 8409POPC   C4A64998  26.794  28.342   7.350
 8409POPC   C1B64999  26.791  28.161   6.450
 8409POPC   C2B65000  26.768  28.142   6.750
 8409POPC   C3B65001  26.725  28.109   7.050
 8409POPC   C4B65002  26.717  28.126   7.350
 8410POPC   NC365003   5.849  20.638   5.550
 8410POPC   PO465004   5.883  20.584   5.850
 8410POPC   GL165005   5.853  20.585   6.150
 8410POPC   GL265006   5.938  20.476   6.150
 8410POPC   C1A65007   5.898  20.605   6.450
 8410POPC   D2A65008   5.910  20.656   6.750
 8410POPC   C3A65009   5.880  20.650   7.050
 8410POPC   C4A65010   5.852  20.602   7.350
 8410POPC   C1B65011   6.031  20.376   6.450
 8410POPC   C2B65012   6.045  20.406   6.750
 8410POPC   C3B65013   6.007  20.390   7.050
 8410POPC   C4B65014   5.965  20.444   7.350
 8411POPC   NC365015  29.110   2.027   5.550
 8411POPC   PO465016  29.192   1.982   5.850
 8411POPC   GL165017  29.120   1.985   6.150
 8411POPC   GL265018  29.076   2.126   6.150
 8411POPC   C1A65019  29.106   2.021   6.450
 8411POPC   D2A65020  29.180   1.994   6.750
 8411POPC   C3A65021  29.123   1.984   7.050
 8411POPC   C4A65022  29.144   1.986   7.350
 8411POPC   C1B65023  29.091   2.261   6.450
 8411POPC   C2B65024  29.091   2.226   6.750
 8411POPC   C3B65025  29.041   2.246   7.050
 8411POPC   C4B65026  29.034   2.221   7.350
 8412POPC   NC365027  22.206  13.592   5.550
 8412POPC   PO465028  22.139  13.606   5.850
 8412POPC   GL165029  22.128  13.624   6.150
 8412POPC   GL265030  22.148  13.511   6.150
 8412POPC   C1A65031  22.128  13.578   6.450
 8412POPC   D2A65032  22.126  13.614   6.750
 8412POPC   C3A65033  22.162  13.640   7.050
 8412POPC   C4A65034  22.175  13.674   7.350
 8412POPC   C1B65035  22.194  13.393   6.450
 8412POPC   C2B65036  22.243  13.433   6.750
 8412POPC   C3B65037  22.170  13.383   7.050
 8412POPC   C4B65038  22.259  13.373   7.350
 8413POPC   NC365039  30.722   2.785   5.550
 8413POPC   PO465040  30.670   2.803   5.850
 8413POPC   GL165041  30.722   2.716   6.150
 8413POPC   GL265042  30.541   2.825   6.150
 8413POPC   C1A65043  30.651   2.722   6.450
 8413POPC   D2A65044  30.647   2.750   6.750
 8413POPC   C3A65045  30.729   2.790   7.050
 8413POPC   C4A65046  30.692   2.799   7.350
 8413POPC   C1B65047  30.421   2.758   6.450
 8413POPC   C2B65048  30.463   2.832   6.750
 8413POPC   C3B65049  30.435   2.821   7.050
 8413POPC   C4B65050  30.403   2.819   7.350
 8414POPC   NC365051  19.787  11.327   5.550
 8414POPC   PO465052  19.876  11.258   5.850
 8414POPC   GL165053  19.839  11.305   6.150
 8414POPC   GL265054  19.876  11.466   6.150
 8414POPC   C1A65055  19.785  11.312   6.450
 8414POPC   D2A65056  19.823  11.311   6.750
 8414POPC   C3A65057  19.842  11.263   7.050
 8414POPC   C4A65058  19.863  11.321   7.350
 8414POPC   C1B65059  19.962  11.536   6.450
 8414POPC   C2B65060  19.920  11.552   6.750
 8414POPC   C3B65061  19.961  11.499   7.050
 8414POPC   C4B65062  19.904  11.494   7.350
 8415POPC   NC365063  35.395  40.015   5.550
 8415POPC   PO465064  35.312  39.971   5.850
 8415POPC   GL165065  35.361  40.029   6.150
 8415POPC   GL265066  35.302  39.886   6.150
 8415POPC   C1A65067  35.311  40.036   6.450
 8415POPC   D2A65068  35.371  40.004   6.750
 8415POPC   C3A65069  35.401  39.978   7.050
 8415POPC   C4A65070  35.330  40.000   7.350
 8415POPC   C1B65071  35.151  39.838   6.450
 8415POPC   C2B65072  35.136  39.854   6.750
 8415POPC   C3B65073  35.164  39.829   7.050
 8415POPC   C4B65074  35.147  39.864   7.350
 8416POPC   NC365075  42.325   6.656   5.550
 8416POPC   PO465076  42.377   6.651   5.850
 8416POPC   GL165077  42.377   6.612   6.150
 8416POPC   GL265078  42.431   6.509   6.150
 8416POPC   C1A65079  42.289   6.644   6.450
 8416POPC   D2A65080  42.296   6.670   6.750
 8416POPC   C3A65081  42.317   6.658   7.050
 8416POPC   C4A65082  42.349   6.645   7.350
 8416POPC   C1B65083  42.505   6.448   6.450
 8416POPC   C2B65084  42.473   6.463   6.750
 8416POPC   C3B65085  42.454   6.438   7.050
 8416POPC   C4B65086  42.532   6.454   7.350
 8417POPC   NC365087  21.339  21.361   5.550
 8417POPC   PO465088  21.413  21.366   5.850
 8417POPC   GL165089  21.421  21.412   6.150
 8417POPC   GL265090  21.349  21.280   6.150
 8417POPC   C1A65091  21.338  21.414   6.450
 8417POPC   D2A65092  21.368  21.338   6.750
 8417POPC   C3A65093  21.425  21.431   7.050
 8417POPC   C4A65094  21.376  21.361   7.350
 8417POPC   C1B65095  21.208  21.175   6.450
 8417POPC   C2B65096  21.259  21.189   6.750
 8417POPC   C3B65097  21.244  21.211   7.050
 8417POPC   C4B65098  21.198  21.237   7.350
 8418POPC   NC365099  11.305  32.988   5.550
 8418POPC   PO465100  11.320  33.073   5.850
 8418POPC   GL165101  11.277  33.041   6.150
 8418POPC   GL265102  11.295  33.117   6.150
 8418POPC   C1A65103  11.321  33.044   6.450
 8418POPC   D2A65104  11.335  33.056   6.750
 8418POPC   C3A65105  11.311  33.051   7.050
 8418POPC   C4A65106  11.290  32.976   7.350
 8418POPC   C1B65107  11.358  33.298   6.450
 8418POPC   C2B65108  11.288  33.309   6.750
 8418POPC   C3B65109  11.314  33.237   7.050
 8418POPC   C4B65110  11.279  33.303   7.350
 8419POPC   NC365111  26.048   3.584   5.550
 8419POPC   PO465112  26.016   3.579   5.850
 8419POPC   GL165113  26.071   3.558   6.150
 8419POPC   GL265114  26.180   3.549   6.150
 8419POPC   C1A65115  26.071   3.510   6.450
 8419POPC   D2A65116  26.058   3.591   6.750
 8419POPC   C3A65117  26.000   3.570   7.050
 8419POPC   C4A65118  26.091   3.584   7.350
 8419POPC   C1B65119  26.295   3.507   6.450
 8419POPC   C2B65120  26.266   3.530   6.750
 8419POPC   C3B65121  26.335   3.594   7.050
 8419POPC   C4B65122  26.291   3.505   7.350
 8420POPC   NC365123  42.359   8.227   5.550
 8420POPC   PO465124  42.337   8.222   5.850
 8420POPC   GL165125  42.334   8.169   6.150
 8420POPC   GL265126  42.495   8.182   6.150
 8420POPC   C1A65127  42.333   8.154   6.450
 8420POPC   D2A65128  42.351   8.185   6.750
 8420POPC   C3A65129  42.326   8.185   7.050
 8420POPC   C4A65130  42.348   8.197   7.350
 8420POPC   C1B65131  42.599   8.269   6.450
 8420POPC   C2B65132  42.598   8.206   6.750
 8420POPC   C3B65133  42.567   8.237   7.050
 8420POPC   C4B65134  42.559   8.205   7.350
 8421POPC   NC365135   1.196  18.279   5.550
 8421POPC   PO465136   1.234  18.311   5.850
 8421POPC   GL165137   1.223  18.235   6.150
 8421POPC   GL265138   1.106  18.345   6.150
 8421POPC   C1A65139   1.244  18.315   6.450
 8421POPC   D2A65140   1.245  18.311   6.750
 8421POPC   C3A65141   1.225  18.308   7.050
 8421POPC   C4A65142   1.235  18.331   7.350
 8421POPC   C1B65143   1.007  18.396   6.450
 8421POPC   C2B65144   0.975  18.467   6.750
 8421POPC   C3B65145   1.041  18.468   7.050
 8421POPC   C4B65146   1.002  18.404   7.350
 8422POPC   NC365147  20.623  33.028   5.550
 8422POPC   PO465148  20.606  33.020   5.850
 8422POPC   GL165149  20.591  33.064   6.150
 8422POPC   GL265150  20.721  32.896   6.150
 8422POPC   C1A65151  20.593  33.002   6.450
 8422POPC   D2A65152  20.573  33.026   6.750
 8422POPC   C3A65153  20.583  33.030   7.050
 8422POPC   C4A65154  20.640  33.042   7.350
 8422POPC   C1B65155  20.778  32.788   6.450
 8422POPC   C2B65156  20.793  32.775   6.750
 8422POPC   C3B65157  20.723  32.832   7.050
 8422POPC   C4B65158  20.711  32.764   7.350
 8423POPC   NC365159   2.016  16.726   5.550
 8423POPC   PO465160   1.978  16.728   5.850
 8423POPC   GL165161   1.940  16.774   6.150
 8423POPC   GL265162   1.931  16.787   6.150
 8423POPC   C1A65163   2.026  16.728   6.450
 8423POPC   D2A65164   2.029  16.727   6.750
 8423POPC   C3A65165   2.039  16.681   7.050
 8423POPC   C4A65166   1.977  16.701   7.350
 8423POPC   C1B65167   1.824  16.937   6.450
 8423POPC   C2B65168   1.835  16.871   6.750
 8423POPC   C3B65169   1.767  16.908   7.050
 8423POPC   C4B65170   1.755  16.925   7.350
 8424POPC   NC365171  22.140  21.350   5.550
 8424POPC   PO465172  22.124  21.370   5.850
 8424POPC   GL165173  22.151  21.414   6.150
 8424POPC   GL265174  22.091  21.267   6.150
 8424POPC   C1A65175  22.119  21.380   6.450
 8424POPC   D2A65176  22.121  21.394   6.750
 8424POPC   C3A65177  22.174  21.404   7.050
 8424POPC   C4A65178  22.128  21.384   7.350
 8424POPC   C1B65179  22.054  21.179   6.450
 8424POPC   C2B65180  22.064  21.131   6.750
 8424POPC   C3B65181  22.010  21.203   7.050
 8424POPC   C4B65182  22.066  21.217   7.350
 8425POPC   NC365183   3.559   5.101   5.550
 8425POPC   PO465184   3.520   5.099   5.850
 8425POPC   GL165185   3.565   5.089   6.150
 8425POPC   GL265186   3.433   5.089   6.150
 8425POPC   C1A65187   3.566   5.131   6.450
 8425POPC   D2A65188   3.521   5.047   6.750
 8425POPC   C3A65189   3.539   5.053   7.050
 8425POPC   C4A65190   3.515   5.110   7.350
 8425POPC   C1B65191   3.280   4.991   6.450
 8425POPC   C2B65192   3.333   5.024   6.750
 8425POPC   C3B65193   3.285   4.961   7.050
 8425POPC   C4B65194   3.323   4.977   7.350
 8426POPC   NC365195   5.115  31.460   5.550
 8426POPC   PO465196   5.093  31.428   5.850
 8426POPC   GL165197   5.120  31.481   6.150
 8426POPC   GL265198   5.208  31.507   6.150
 8426POPC   C1A65199   5.135  31.463   6.450
 8426POPC   D2A65200   5.129  31.486   6.750
 8426POPC   C3A65201   5.057  31.520   7.050
 8426POPC   C4A65202   5.071  31.464   7.350
 8426POPC   C1B65203   5.264  31.591   6.450
 8426POPC   C2B65204   5.332  31.617   6.750
 8426POPC   C3B65205   5.305  31.574   7.050
 8426POPC   C4B65206   5.311  31.557   7.350
 8427POPC   NC365207  32.275  35.346   5.550
 8427POPC   PO465208  32.239  35.360   5.850
 8427POPC   GL165209  32.219  35.319   6.150
 8427POPC   GL265210  32.200  35.229   6.150
 8427POPC   C1A65211  32.258  35.353   6.450
 8427POPC   D2A65212  32.256  35.400   6.750
 8427POPC   C3A65213  32.289  35.316   7.050
 8427POPC   C4A65214  32.252  35.401   7.350
 8427POPC   C1B65215  32.090  35.189   6.450
 8427POPC   C2B65216  32.135  35.120   6.750
 8427POPC   C3B65217  32.148  35.128   7.050
 8427POPC   C4B65218  32.128  35.144   7.350
 8428POPC   NC365219  36.889  42.373   5.550
 8428POPC   PO465220  36.878  42.307   5.850
 8428POPC   GL165221  36.898  42.298   6.150
 8428POPC   GL265222  36.989  42.343   6.150
 8428POPC   C1A65223  36.876  42.366   6.450
 8428POPC   D2A65224  36.931  42.337   6.750
 8428POPC   C3A65225  36.936  42.294   7.050
 8428POPC   C4A65226  36.901  42.313   7.350
 8428POPC   C1B65227  37.121  42.313   6.450
 8428POPC   C2B65228  37.152  42.221   6.750
 8428POPC   C3B65229  37.163  42.305   7.050
 8428POPC   C4B65230  37.163  42.236   7.350
 8429POPC   NC365231   8.946   7.469   5.550
 8429POPC   PO465232   8.945   7.394   5.850
 8429POPC   GL165233   8.946   7.408   6.150
 8429POPC   GL265234   8.870   7.312   6.150
 8429POPC   C1A65235   8.934   7.378   6.450
 8429POPC   D2A65236   9.006   7.424   6.750
 8429POPC   C3A65237   8.927   7.385   7.050
 8429POPC   C4A65238   8.964   7.459   7.350
 8429POPC   C1B65239   8.829   7.237   6.450
 8429POPC   C2B65240   8.797   7.251   6.750
 8429POPC   C3B65241   8.853   7.273   7.050
 8429POPC   C4B65242   8.863   7.212   7.350
 8430POPC   NC365243  24.507  21.412   5.550
 8430POPC   PO465244  24.469  21.361   5.850
 8430POPC   GL165245  24.498  21.369   6.150
 8430POPC   GL265246  24.556  21.477   6.150
 8430POPC   C1A65247  24.523  21.432   6.450
 8430POPC   D2A65248  24.472  21.336   6.750
 8430POPC   C3A65249  24.519  21.404   7.050
 8430POPC   C4A65250  24.474  21.367   7.350
 8430POPC   C1B65251  24.513  21.621   6.450
 8430POPC   C2B65252  24.517  21.612   6.750
 8430POPC   C3B65253  24.518  21.671   7.050
 8430POPC   C4B65254  24.526  21.598   7.350
 8431POPC   NC365255  22.938  41.537   5.550
 8431POPC   PO465256  22.977  41.599   5.850
 8431POPC   GL165257  22.935  41.556   6.150
 8431POPC   GL265258  23.038  41.691   6.150
 8431POPC   C1A65259  22.985  41.603   6.450
 8431POPC   D2A65260  22.954  41.602   6.750
 8431POPC   C3A65261  22.913  41.558   7.050
 8431POPC   C4A65262  22.977  41.553   7.350
 8431POPC   C1B65263  23.138  41.705   6.450
 8431POPC   C2B65264  23.106  41.770   6.750
 8431POPC   C3B65265  23.133  41.708   7.050
 8431POPC   C4B65266  23.071  41.758   7.350
 8432POPC   NC365267  19.051   1.948   5.550
 8432POPC   PO465268  19.091   1.971   5.850
 8432POPC   GL165269  19.088   2.009   6.150
 8432POPC   GL265270  19.107   2.125   6.150
 8432POPC   C1A65271  19.030   1.947   6.450
 8432POPC   D2A65272  19.099   2.038   6.750
 8432POPC   C3A65273  19.013   2.000   7.050
 8432POPC   C4A65274  19.091   1.979   7.350
 8432POPC   C1B65275  19.186   2.152   6.450
 8432POPC   C2B65276  19.200   2.192   6.750
 8432POPC   C3B65277  19.191   2.229   7.050
 8432POPC   C4B65278  19.216   2.204   7.350
 8433POPC   NC365279  22.195  12.895   5.550
 8433POPC   PO465280  22.202  12.855   5.850
 8433POPC   GL165281  22.149  12.812   6.150
 8433POPC   GL265282  22.001  12.795   6.150
 8433POPC   C1A65283  22.163  12.899   6.450
 8433POPC   D2A65284  22.137  12.854   6.750
 8433POPC   C3A65285  22.146  12.898   7.050
 8433POPC   C4A65286  22.131  12.855   7.350
 8433POPC   C1B65287  21.967  12.755   6.450
 8433POPC   C2B65288  21.957  12.690   6.750
 8433POPC   C3B65289  21.946  12.775   7.050
 8433POPC   C4B65290  21.956  12.687   7.350
 8434POPC   NC365291  19.089   8.954   5.550
 8434POPC   PO465292  19.033   8.975   5.850
 8434POPC   GL165293  19.082   8.929   6.150
 8434POPC   GL265294  19.153   8.987   6.150
 8434POPC   C1A65295  19.093   8.997   6.450
 8434POPC   D2A65296  19.099   8.989   6.750
 8434POPC   C3A65297  19.056   8.933   7.050
 8434POPC   C4A65298  19.011   8.972   7.350
 8434POPC   C1B65299  19.334   8.959   6.450
 8434POPC   C2B65300  19.305   8.912   6.750
 8434POPC   C3B65301  19.346   8.938   7.050
 8434POPC   C4B65302  19.332   8.928   7.350
 8435POPC   NC365303  40.009  10.571   5.550
 8435POPC   PO465304  39.974  10.510   5.850
 8435POPC   GL165305  40.025  10.557   6.150
 8435POPC   GL265306  39.952  10.648   6.150
 8435POPC   C1A65307  40.005  10.528   6.450
 8435POPC   D2A65308  40.026  10.534   6.750
 8435POPC   C3A65309  40.033  10.516   7.050
 8435POPC   C4A65310  40.042  10.513   7.350
 8435POPC   C1B65311  39.938  10.760   6.450
 8435POPC   C2B65312  39.891  10.739   6.750
 8435POPC   C3B65313  39.890  10.770   7.050
 8435POPC   C4B65314  39.944  10.736   7.350
 8436POPC   NC365315   8.187  12.060   5.550
 8436POPC   PO465316   8.209  12.076   5.850
 8436POPC   GL165317   8.239  12.087   6.150
 8436POPC   GL265318   8.045  12.038   6.150
 8436POPC   C1A65319   8.172  12.119   6.450
 8436POPC   D2A65320   8.168  12.098   6.750
 8436POPC   C3A65321   8.175  12.041   7.050
 8436POPC   C4A65322   8.219  12.091   7.350
 8436POPC   C1B65323   7.948  11.934   6.450
 8436POPC   C2B65324   7.962  11.994   6.750
 8436POPC   C3B65325   7.943  12.003   7.050
 8436POPC   C4B65326   8.004  11.967   7.350
 8437POPC   NC365327  44.693  35.360   5.550
 8437POPC   PO465328  44.705  35.346   5.850
 8437POPC   GL165329  44.627  35.308   6.150
 8437POPC   GL265330  44.523  35.309   6.150
 8437POPC   C1A65331  44.661  35.316   6.450
 8437POPC   D2A65332  44.694  35.318   6.750
 8437POPC   C3A65333  44.697  35.330   7.050
 8437POPC   C4A65334  44.635  35.337   7.350
 8437POPC   C1B65335  44.381  35.253   6.450
 8437POPC   C2B65336  44.429  35.281   6.750
 8437POPC   C3B65337  44.456  35.251   7.050
 8437POPC   C4B65338  44.371  35.261   7.350
 8438POPC   NC365339  33.835  37.649   5.550
 8438POPC   PO465340  33.829  37.669   5.850
 8438POPC   GL165341  33.762  37.648   6.150
 8438POPC   GL265342  33.958  37.675   6.150
 8438POPC   C1A65343  33.792  37.687   6.450
 8438POPC   D2A65344  33.779  37.719   6.750
 8438POPC   C3A65345  33.843  37.681   7.050
 8438POPC   C4A65346  33.839  37.661   7.350
 8438POPC   C1B65347  34.086  37.781   6.450
 8438POPC   C2B65348  34.085  37.776   6.750
 8438POPC   C3B65349  34.087  37.752   7.050
 8438POPC   C4B65350  34.017  37.804   7.350
 8439POPC   NC365351  33.751  15.166   5.550
 8439POPC   PO465352  33.809  15.208   5.850
 8439POPC   GL165353  33.774  15.135   6.150
 8439POPC   GL265354  33.714  15.190   6.150
 8439POPC   C1A65355  33.811  15.202   6.450
 8439POPC   D2A65356  33.832  15.164   6.750
 8439POPC   C3A65357  33.793  15.205   7.050
 8439POPC   C4A65358  33.768  15.153   7.350
 8439POPC   C1B65359  33.503  15.144   6.450
 8439POPC   C2B65360  33.501  15.210   6.750
 8439POPC   C3B65361  33.594  15.139   7.050
 8439POPC   C4B65362  33.528  15.133   7.350
 8440POPC   NC365363   6.661   1.249   5.550
 8440POPC   PO465364   6.614   1.235   5.850
 8440POPC   GL165365   6.641   1.253   6.150
 8440POPC   GL265366   6.560   1.222   6.150
 8440POPC   C1A65367   6.680   1.189   6.450
 8440POPC   D2A65368   6.691   1.187   6.750
 8440POPC   C3A65369   6.617   1.222   7.050
 8440POPC   C4A65370   6.601   1.240   7.350
 8440POPC   C1B65371   6.369   1.198   6.450
 8440POPC   C2B65372   6.443   1.179   6.750
 8440POPC   C3B65373   6.382   1.233   7.050
 8440POPC   C4B65374   6.366   1.149   7.350
 8441POPC   NC365375  36.951  27.607   5.550
 8441POPC   PO465376  36.943  27.568   5.850
 8441POPC   GL165377  36.901  27.576   6.150
 8441POPC   GL265378  36.937  27.534   6.150
 8441POPC   C1A65379  36.920  27.597   6.450
 8441POPC   D2A65380  36.890  27.574   6.750
 8441POPC   C3A65381  36.910  27.619   7.050
 8441POPC   C4A65382  36.934  27.575   7.350
 8441POPC   C1B65383  37.069  27.393   6.450
 8441POPC   C2B65384  37.071  27.346   6.750
 8441POPC   C3B65385  37.056  27.404   7.050
 8441POPC   C4B65386  37.085  27.391   7.350
 8442POPC   NC365387  34.561  36.880   5.550
 8442POPC   PO465388  34.601  36.878   5.850
 8442POPC   GL165389  34.543  36.855   6.150
 8442POPC   GL265390  34.570  37.031   6.150
 8442POPC   C1A65391  34.529  36.878   6.450
 8442POPC   D2A65392  34.572  36.859   6.750
 8442POPC   C3A65393  34.563  36.912   7.050
 8442POPC   C4A65394  34.552  36.904   7.350
 8442POPC   C1B65395  34.536  37.129   6.450
 8442POPC   C2B65396  34.551  37.202   6.750
 8442POPC   C3B65397  34.546  37.124   7.050
 8442POPC   C4B65398  34.582  37.165   7.350
 8443POPC   NC365399  43.907   7.464   5.550
 8443POPC   PO465400  43.892   7.458   5.850
 8443POPC   GL165401  43.906   7.470   6.150
 8443POPC   GL265402  43.782   7.530   6.150
 8443POPC   C1A65403  43.879   7.466   6.450
 8443POPC   D2A65404  43.890   7.374   6.750
 8443POPC   C3A65405  43.843   7.422   7.050
 8443POPC   C4A65406  43.879   7.383   7.350
 8443POPC   C1B65407  43.736   7.644   6.450
 8443POPC   C2B65408  43.748   7.667   6.750
 8443POPC   C3B65409  43.733   7.577   7.050
 8443POPC   C4B65410  43.758   7.576   7.350
 8444POPC   NC365411  16.743  21.351   5.550
 8444POPC   PO465412  16.733  21.373   5.850
 8444POPC   GL165413  16.702  21.380   6.150
 8444POPC   GL265414  16.670  21.343   6.150
 8444POPC   C1A65415  16.761  21.342   6.450
 8444POPC   D2A65416  16.756  21.391   6.750
 8444POPC   C3A65417  16.750  21.388   7.050
 8444POPC   C4A65418  16.743  21.344   7.350
 8444POPC   C1B65419  16.586  21.249   6.450
 8444POPC   C2B65420  16.534  21.270   6.750
 8444POPC   C3B65421  16.507  21.249   7.050
 8444POPC   C4B65422  16.567  21.243   7.350
 8445POPC   NC365423  11.316   3.537   5.550
 8445POPC   PO465424  11.326   3.577   5.850
 8445POPC   GL165425  11.317   3.517   6.150
 8445POPC   GL265426  11.240   3.632   6.150
 8445POPC   C1A65427  11.343   3.571   6.450
 8445POPC   D2A65428  11.318   3.587   6.750
 8445POPC   C3A65429  11.262   3.493   7.050
 8445POPC   C4A65430  11.276   3.554   7.350
 8445POPC   C1B65431  11.173   3.731   6.450
 8445POPC   C2B65432  11.087   3.690   6.750
 8445POPC   C3B65433  11.148   3.705   7.050
 8445POPC   C4B65434  11.150   3.682   7.350
 8446POPC   NC365435   9.713  40.750   5.550
 8446POPC   PO465436   9.703  40.817   5.850
 8446POPC   GL165437   9.716  40.798   6.150
 8446POPC   GL265438   9.634  40.674   6.150
 8446POPC   C1A65439   9.724  40.810   6.450
 8446POPC   D2A65440   9.785  40.748   6.750
 8446POPC   C3A65441   9.702  40.752   7.050
 8446POPC   C4A65442   9.750  40.733   7.350
 8446POPC   C1B65443   9.612  40.583   6.450
 8446POPC   C2B65444   9.556  40.612   6.750
 8446POPC   C3B65445   9.624  40.548   7.050
 8446POPC   C4B65446   9.595  40.596   7.350
 8447POPC   NC365447  10.502   9.713   5.550
 8447POPC   PO465448  10.486   9.778   5.850
 8447POPC   GL165449  10.551   9.752   6.150
 8447POPC   GL265450  10.556   9.806   6.150
 8447POPC   C1A65451  10.480   9.778   6.450
 8447POPC   D2A65452  10.552   9.740   6.750
 8447POPC   C3A65453  10.552   9.787   7.050
 8447POPC   C4A65454  10.535   9.702   7.350
 8447POPC   C1B65455  10.655   9.924   6.450
 8447POPC   C2B65456  10.651   9.975   6.750
 8447POPC   C3B65457  10.646   9.945   7.050
 8447POPC   C4B65458  10.686   9.928   7.350
 8448POPC   NC365459  31.438  41.592   5.550
 8448POPC   PO465460  31.449  41.572   5.850
 8448POPC   GL165461  31.517  41.553   6.150
 8448POPC   GL265462  31.530  41.675   6.150
 8448POPC   C1A65463  31.490  41.513   6.450
 8448POPC   D2A65464  31.467  41.580   6.750
 8448POPC   C3A65465  31.446  41.583   7.050
 8448POPC   C4A65466  31.486  41.536   7.350
 8448POPC   C1B65467  31.636  41.695   6.450
 8448POPC   C2B65468  31.680  41.718   6.750
 8448POPC   C3B65469  31.686  41.692   7.050
 8448POPC   C4B65470  31.616  41.760   7.350
 8449POPC   NC365471  34.609  27.555   5.550
 8449POPC   PO465472  34.560  27.566   5.850
 8449POPC   GL165473  34.568  27.608   6.150
 8449POPC   GL265474  34.687  27.516   6.150
 8449POPC   C1A65475  34.578  27.594   6.450
 8449POPC   D2A65476  34.597  27.560   6.750
 8449POPC   C3A65477  34.596  27.544   7.050
 8449POPC   C4A65478  34.618  27.566   7.350
 8449POPC   C1B65479  34.781  27.414   6.450
 8449POPC   C2B65480  34.781  27.437   6.750
 8449POPC   C3B65481  34.749  27.428   7.050
 8449POPC   C4B65482  34.790  27.444   7.350
 8450POPC   NC365483  14.362  39.251   5.550
 8450POPC   PO465484  14.392  39.279   5.850
 8450POPC   GL165485  14.419  39.237   6.150
 8450POPC   GL265486  14.392  39.328   6.150
 8450POPC   C1A65487  14.453  39.278   6.450
 8450POPC   D2A65488  14.390  39.194   6.750
 8450POPC   C3A65489  14.445  39.253   7.050
 8450POPC   C4A65490  14.408  39.269   7.350
 8450POPC   C1B65491  14.448  39.464   6.450
 8450POPC   C2B65492  14.392  39.504   6.750
 8450POPC   C3B65493  14.425  39.439   7.050
 8450POPC   C4B65494  14.415  39.472   7.350
 8451POPC   NC365495  41.552  22.180   5.550
 8451POPC   PO465496  41.554  22.129   5.850
 8451POPC   GL165497  41.561  22.184   6.150
 8451POPC   GL265498  41.478  22.089   6.150
 8451POPC   C1A65499  41.580  22.153   6.450
 8451POPC   D2A65500  41.563  22.180   6.750
 8451POPC   C3A65501  41.523  22.165   7.050
 8451POPC   C4A65502  41.525  22.210   7.350
 8451POPC   C1B65503  41.376  22.004   6.450
 8451POPC   C2B65504  41.399  22.021   6.750
 8451POPC   C3B65505  41.325  21.999   7.050
 8451POPC   C4B65506  41.361  21.983   7.350
 8452POPC   NC365507  19.852  34.587   5.550
 8452POPC   PO465508  19.853  34.544   5.850
 8452POPC   GL165509  19.821  34.613   6.150
 8452POPC   GL265510  19.834  34.408   6.150
 8452POPC   C1A65511  19.856  34.556   6.450
 8452POPC   D2A65512  19.859  34.605   6.750
 8452POPC   C3A65513  19.844  34.602   7.050
 8452POPC   C4A65514  19.787  34.541   7.350
 8452POPC   C1B65515  19.793  34.333   6.450
 8452POPC   C2B65516  19.728  34.382   6.750
 8452POPC   C3B65517  19.725  34.368   7.050
 8452POPC   C4B65518  19.741  34.379   7.350
 8453POPC   NC365519  44.670  15.932   5.550
 8453POPC   PO465520  44.710  15.970   5.850
 8453POPC   GL165521  44.625  15.911   6.150
 8453POPC   GL265522  44.680  16.091   6.150
 8453POPC   C1A65523  44.677  15.972   6.450
 8453POPC   D2A65524  44.642  15.983   6.750
 8453POPC   C3A65525  44.691  15.929   7.050
 8453POPC   C4A65526  44.711  15.930   7.350
 8453POPC   C1B65527  44.735  16.241   6.450
 8453POPC   C2B65528  44.661  16.244   6.750
 8453POPC   C3B65529  44.685  16.229   7.050
 8453POPC   C4B65530  44.732  16.201   7.350
 8454POPC   NC365531   8.986  12.055   5.550
 8454POPC   PO465532   9.003  12.117   5.850
 8454POPC   GL165533   8.992  12.042   6.150
 8454POPC   GL265534   9.033  12.193   6.150
 8454POPC   C1A65535   8.932  12.098   6.450
 8454POPC   D2A65536   8.927  12.030   6.750
 8454POPC   C3A65537   8.992  12.091   7.050
 8454POPC   C4A65538   8.952  12.031   7.350
 8454POPC   C1B65539   9.105  12.293   6.450
 8454POPC   C2B65540   9.105  12.295   6.750
 8454POPC   C3B65541   9.198  12.232   7.050
 8454POPC   C4B65542   9.199  12.236   7.350
 8455POPC   NC365543   8.955  14.422   5.550
 8455POPC   PO465544   8.965  14.451   5.850
 8455POPC   GL165545   8.941  14.409   6.150
 8455POPC   GL265546   8.986  14.519   6.150
 8455POPC   C1A65547   8.977  14.363   6.450
 8455POPC   D2A65548   8.965  14.404   6.750
 8455POPC   C3A65549   8.980  14.453   7.050
 8455POPC   C4A65550   8.924  14.375   7.350
 8455POPC   C1B65551   9.102  14.610   6.450
 8455POPC   C2B65552   9.076  14.643   6.750
 8455POPC   C3B65553   9.109  14.683   7.050
 8455POPC   C4B65554   9.101  14.683   7.350
 8456POPC   NC365555  16.754  43.855   5.550
 8456POPC   PO465556  16.771  43.885   5.850
 8456POPC   GL165557  16.730  43.843   6.150
 8456POPC   GL265558  16.714  44.047   6.150
 8456POPC   C1A65559  16.730  43.877   6.450
 8456POPC   D2A65560  16.743  43.915   6.750
 8456POPC   C3A65561  16.764  43.900   7.050
 8456POPC   C4A65562  16.708  43.906   7.350
 8456POPC   C1B65563  16.605  44.085   6.450
 8456POPC   C2B65564  16.643  44.087   6.750
 8456POPC   C3B65565  16.627  44.120   7.050
 8456POPC   C4B65566  16.632  44.149   7.350
 8457POPC   NC365567  18.318  28.324   5.550
 8457POPC   PO465568  18.243  28.360   5.850
 8457POPC   GL165569  18.256  28.418   6.150
 8457POPC   GL265570  18.237  28.241   6.150
 8457POPC   C1A65571  18.310  28.331   6.450
 8457POPC   D2A65572  18.331  28.366   6.750
 8457POPC   C3A65573  18.281  28.419   7.050
 8457POPC   C4A65574  18.277  28.374   7.350
 8457POPC   C1B65575  18.305  28.152   6.450
 8457POPC   C2B65576  18.257  28.078   6.750
 8457POPC   C3B65577  18.240  28.100   7.050
 8457POPC   C4B65578  18.294  28.123   7.350
 8458POPC   NC365579  40.042  44.642   5.550
 8458POPC   PO465580  39.966  44.654   5.850
 8458POPC   GL165581  39.998  44.682   6.150
 8458POPC   GL265582  39.925  44.737   6.150
 8458POPC   C1A65583  39.975  44.690   6.450
 8458POPC   D2A65584  39.980  44.690   6.750
 8458POPC   C3A65585  39.979  44.652   7.050
 8458POPC   C4A65586  39.958  44.619   7.350
 8458POPC   C1B65587  39.858  44.817   6.450
 8458POPC   C2B65588  39.901  44.899   6.750
 8458POPC   C3B65589  39.839  44.818   7.050
 8458POPC   C4B65590  39.828  44.852   7.350
 8459POPC   NC365591  36.927   1.959   5.550
 8459POPC   PO465592  36.855   1.943   5.850
 8459POPC   GL165593  36.946   2.036   6.150
 8459POPC   GL265594  37.052   1.976   6.150
 8459POPC   C1A65595  36.916   1.977   6.450
 8459POPC   D2A65596  36.905   1.986   6.750
 8459POPC   C3A65597  36.889   1.979   7.050
 8459POPC   C4A65598  36.936   2.017   7.350
 8459POPC   C1B65599  37.111   1.951   6.450
 8459POPC   C2B65600  37.125   1.883   6.750
 8459POPC   C3B65601  37.160   1.953   7.050
 8459POPC   C4B65602  37.179   1.884   7.350
 8460POPC   NC365603  23.723   3.530   5.550
 8460POPC   PO465604  23.749   3.579   5.850
 8460POPC   GL165605  23.695   3.521   6.150
 8460POPC   GL265606  23.760   3.406   6.150
 8460POPC   C1A65607  23.687   3.552   6.450
 8460POPC   D2A65608  23.701   3.493   6.750
 8460POPC   C3A65609  23.761   3.544   7.050
 8460POPC   C4A65610  23.739   3.501   7.350
 8460POPC   C1B65611  23.846   3.308   6.450
 8460POPC   C2B65612  23.887   3.306   6.750
 8460POPC   C3B65613  23.886   3.301   7.050
 8460POPC   C4B65614  23.827   3.295   7.350
 8461POPC   NC365615  14.368  43.861   5.550
 8461POPC   PO465616  14.376  43.924   5.850
 8461POPC   GL165617  14.392  43.915   6.150
 8461POPC   GL265618  14.379  43.801   6.150
 8461POPC   C1A65619  14.427  43.902   6.450
 8461POPC   D2A65620  14.379  43.932   6.750
 8461POPC   C3A65621  14.435  43.869   7.050
 8461POPC   C4A65622  14.409  43.881   7.350
 8461POPC   C1B65623  14.438  43.671   6.450
 8461POPC   C2B65624  14.374  43.654   6.750
 8461POPC   C3B65625  14.439  43.634   7.050
 8461POPC   C4B65626  14.412  43.668   7.350
 8462POPC   NC365627   3.563  24.493   5.550
 8462POPC   PO465628   3.570  24.471   5.850
 8462POPC   GL165629   3.523  24.503   6.150
 8462POPC   GL265630   3.452  24.406   6.150
 8462POPC   C1A65631   3.518  24.482   6.450
 8462POPC   D2A65632   3.563  24.451   6.750
 8462POPC   C3A65633   3.582  24.485   7.050
 8462POPC   C4A65634   3.579  24.469   7.350
 8462POPC   C1B65635   3.405  24.370   6.450
 8462POPC   C2B65636   3.362  24.279   6.750
 8462POPC   C3B65637   3.376  24.279   7.050
 8462POPC   C4B65638   3.327  24.275   7.350
 8463POPC   NC365639  11.264   8.182   5.550
 8463POPC   PO465640  11.308   8.200   5.850
 8463POPC   GL165641  11.343   8.237   6.150
 8463POPC   GL265642  11.315   8.280   6.150
 8463POPC   C1A65643  11.321   8.158   6.450
 8463POPC   D2A65644  11.321   8.180   6.750
 8463POPC   C3A65645  11.303   8.186   7.050
 8463POPC   C4A65646  11.347   8.206   7.350
 8463POPC   C1B65647  11.408   8.485   6.450
 8463POPC   C2B65648  11.359   8.412   6.750
 8463POPC   C3B65649  11.324   8.455   7.050
 8463POPC   C4B65650  11.342   8.450   7.350
 8464POPC   NC365651  33.808  33.804   5.550
 8464POPC   PO465652  33.751  33.818   5.850
 8464POPC   GL165653  33.841  33.785   6.150
 8464POPC   GL265654  33.707  33.687   6.150
 8464POPC   C1A65655  33.807  33.849   6.450
 8464POPC   D2A65656  33.834  33.822   6.750
 8464POPC   C3A65657  33.838  33.762   7.050
 8464POPC   C4A65658  33.759  33.842   7.350
 8464POPC   C1B65659  33.562  33.707   6.450
 8464POPC   C2B65660  33.565  33.624   6.750
 8464POPC   C3B65661  33.631  33.702   7.050
 8464POPC   C4B65662  33.635  33.676   7.350
 8465POPC   NC365663   2.017  13.612   5.550
 8465POPC   PO465664   2.009  13.668   5.850
 8465POPC   GL165665   1.941  13.641   6.150
 8465POPC   GL265666   1.997  13.763   6.150
 8465POPC   C1A65667   1.960  13.604   6.450
 8465POPC   D2A65668   2.003  13.614   6.750
 8465POPC   C3A65669   2.003  13.587   7.050
 8465POPC   C4A65670   1.982  13.633   7.350
 8465POPC   C1B65671   1.974  13.903   6.450
 8465POPC   C2B65672   2.015  13.903   6.750
 8465POPC   C3B65673   1.961  13.922   7.050
 8465POPC   C4B65674   1.993  13.892   7.350
 8466POPC   NC365675   2.773  30.652   5.550
 8466POPC   PO465676   2.733  30.734   5.850
 8466POPC   GL165677   2.755  30.669   6.150
 8466POPC   GL265678   2.734  30.815   6.150
 8466POPC   C1A65679   2.815  30.745   6.450
 8466POPC   D2A65680   2.741  30.734   6.750
 8466POPC   C3A65681   2.758  30.672   7.050
 8466POPC   C4A65682   2.790  30.678   7.350
 8466POPC   C1B65683   2.685  30.895   6.450
 8466POPC   C2B65684   2.761  30.950   6.750
 8466POPC   C3B65685   2.685  30.956   7.050
 8466POPC   C4B65686   2.694  30.974   7.350
 8467POPC   NC365687  12.084  12.055   5.550
 8467POPC   PO465688  12.085  12.046   5.850
 8467POPC   GL165689  12.061  12.098   6.150
 8467POPC   GL265690  11.969  12.208   6.150
 8467POPC   C1A65691  12.031  12.041   6.450
 8467POPC   D2A65692  12.087  12.046   6.750
 8467POPC   C3A65693  12.075  12.086   7.050
 8467POPC   C4A65694  12.039  12.084   7.350
 8467POPC   C1B65695  11.914  12.330   6.450
 8467POPC   C2B65696  11.924  12.237   6.750
 8467POPC   C3B65697  11.913  12.302   7.050
 8467POPC   C4B65698  11.957  12.322   7.350
 8468POPC   NC365699   5.082  33.776   5.550
 8468POPC   PO465700   5.063  33.787   5.850
 8468POPC   GL165701   5.089  33.795   6.150
 8468POPC   GL265702   5.059  33.690   6.150
 8468POPC   C1A65703   5.111  33.830   6.450
 8468POPC   D2A65704   5.070  33.792   6.750
 8468POPC   C3A65705   5.086  33.792   7.050
 8468POPC   C4A65706   5.113  33.839   7.350
 8468POPC   C1B65707   4.931  33.585   6.450
 8468POPC   C2B65708   4.894  33.583   6.750
 8468POPC   C3B65709   4.902  33.627   7.050
 8468POPC   C4B65710   4.906  33.557   7.350
 8469POPC   NC365711  44.636  28.324   5.550
 8469POPC   PO465712  44.641  28.402   5.850
 8469POPC   GL165713  44.666  28.410   6.150
 8469POPC   GL265714  44.629  28.221   6.150
 8469POPC   C1A65715  44.709  28.361   6.450
 8469POPC   D2A65716  44.613  28.373   6.750
 8469POPC   C3A65717  44.613  28.319   7.050
 8469POPC   C4A65718  44.675  28.394   7.350
 8469POPC   C1B65719  44.577  28.125   6.450
 8469POPC   C2B65720  44.578  28.136   6.750
 8469POPC   C3B65721  44.578  28.082   7.050
 8469POPC   C4B65722  44.637  28.147   7.350
 8470POPC   NC365723   0.432  16.744   5.550
 8470POPC   PO465724   0.436  16.774   5.850
 8470POPC   GL165725   0.411  16.705   6.150
 8470POPC   GL265726   0.550  16.709   6.150
 8470POPC   C1A65727   0.451  16.686   6.450
 8470POPC   D2A65728   0.473  16.760   6.750
 8470POPC   C3A65729   0.404  16.696   7.050
 8470POPC   C4A65730   0.395  16.697   7.350
 8470POPC   C1B65731   0.718  16.735   6.450
 8470POPC   C2B65732   0.693  16.749   6.750
 8470POPC   C3B65733   0.727  16.760   7.050
 8470POPC   C4B65734   0.697  16.793   7.350
 8471POPC   NC365735  10.572   5.894   5.550
 8471POPC   PO465736  10.516   5.906   5.850
 8471POPC   GL165737  10.511   5.896   6.150
 8471POPC   GL265738  10.687   5.907   6.150
 8471POPC   C1A65739  10.478   5.848   6.450
 8471POPC   D2A65740  10.475   5.842   6.750
 8471POPC   C3A65741  10.521   5.832   7.050
 8471POPC   C4A65742  10.474   5.885   7.350
 8471POPC   C1B65743  10.778   5.967   6.450
 8471POPC   C2B65744  10.729   5.993   6.750
 8471POPC   C3B65745  10.762   6.025   7.050
 8471POPC   C4B65746  10.754   5.953   7.350
 8472POPC   NC365747  32.278   0.422   5.550
 8472POPC   PO465748  32.291   0.449   5.850
 8472POPC   GL165749  32.291   0.472   6.150
 8472POPC   GL265750  32.243   0.557   6.150
 8472POPC   C1A65751  32.229   0.486   6.450
 8472POPC   D2A65752  32.292   0.407   6.750
 8472POPC   C3A65753  32.231   0.484   7.050
 8472POPC   C4A65754  32.279   0.475   7.350
 8472POPC   C1B65755  32.343   0.656   6.450
 8472POPC   C2B65756  32.287   0.711   6.750
 8472POPC   C3B65757  32.325   0.711   7.050
 8472POPC   C4B65758  32.277   0.662   7.350
 8473POPC   NC365759  17.537  20.598   5.550
 8473POPC   PO465760  17.552  20.580   5.850
 8473POPC   GL165761  17.466  20.585   6.150
 8473POPC   GL265762  17.340  20.568   6.150
 8473POPC   C1A65763  17.479  20.568   6.450
 8473POPC   D2A65764  17.482  20.643   6.750
 8473POPC   C3A65765  17.461  20.617   7.050
 8473POPC   C4A65766  17.512  20.608   7.350
 8473POPC   C1B65767  17.227  20.607   6.450
 8473POPC   C2B65768  17.217  20.662   6.750
 8473POPC   C3B65769  17.240  20.595   7.050
 8473POPC   C4B65770  17.306  20.587   7.350
 8474POPC   NC365771  31.506   2.815   5.550
 8474POPC   PO465772  31.479   2.733   5.850
 8474POPC   GL165773  31.459   2.789   6.150
 8474POPC   GL265774  31.541   2.625   6.150
 8474POPC   C1A65775  31.516   2.773   6.450
 8474POPC   D2A65776  31.487   2.783   6.750
 8474POPC   C3A65777  31.514   2.810   7.050
 8474POPC   C4A65778  31.489   2.791   7.350
 8474POPC   C1B65779  31.515   2.496   6.450
 8474POPC   C2B65780  31.542   2.492   6.750
 8474POPC   C3B65781  31.552   2.487   7.050
 8474POPC   C4B65782  31.570   2.488   7.350
 8475POPC   NC365783   9.717  27.596   5.550
 8475POPC   PO465784   9.731  27.580   5.850
 8475POPC   GL165785   9.738  27.598   6.150
 8475POPC   GL265786   9.715  27.750   6.150
 8475POPC   C1A65787   9.724  27.564   6.450
 8475POPC   D2A65788   9.747  27.631   6.750
 8475POPC   C3A65789   9.755  27.549   7.050
 8475POPC   C4A65790   9.701  27.580   7.350
 8475POPC   C1B65791   9.777  27.832   6.450
 8475POPC   C2B65792   9.713  27.837   6.750
 8475POPC   C3B65793   9.768  27.812   7.050
 8475POPC   C4B65794   9.758  27.863   7.350
 8476POPC   NC365795   8.217  15.222   5.550
 8476POPC   PO465796   8.208  15.167   5.850
 8476POPC   GL165797   8.179  15.226   6.150
 8476POPC   GL265798   8.159  15.108   6.150
 8476POPC   C1A65799   8.173  15.215   6.450
 8476POPC   D2A65800   8.164  15.203   6.750
 8476POPC   C3A65801   8.168  15.159   7.050
 8476POPC   C4A65802   8.162  15.148   7.350
 8476POPC   C1B65803   7.995  14.997   6.450
 8476POPC   C2B65804   8.002  14.969   6.750
 8476POPC   C3B65805   8.042  14.980   7.050
 8476POPC   C4B65806   8.047  15.010   7.350
 8477POPC   NC365807  43.158   6.629   5.550
 8477POPC   PO465808  43.127   6.642   5.850
 8477POPC   GL165809  43.112   6.628   6.150
 8477POPC   GL265810  42.967   6.631   6.150
 8477POPC   C1A65811  43.141   6.683   6.450
 8477POPC   D2A65812  43.076   6.632   6.750
 8477POPC   C3A65813  43.157   6.691   7.050
 8477POPC   C4A65814  43.075   6.689   7.350
 8477POPC   C1B65815  42.816   6.688   6.450
 8477POPC   C2B65816  42.838   6.620   6.750
 8477POPC   C3B65817  42.816   6.683   7.050
 8477POPC   C4B65818  42.878   6.598   7.350
 8478POPC   NC365819  23.751  25.224   5.550
 8478POPC   PO465820  23.676  25.249   5.850
 8478POPC   GL165821  23.745  25.239   6.150
 8478POPC   GL265822  23.723  25.431   6.150
 8478POPC   C1A65823  23.674  25.248   6.450
 8478POPC   D2A65824  23.667  25.260   6.750
 8478POPC   C3A65825  23.679  25.313   7.050
 8478POPC   C4A65826  23.664  25.223   7.350
 8478POPC   C1B65827  23.607  25.552   6.450
 8478POPC   C2B65828  23.665  25.510   6.750
 8478POPC   C3B65829  23.644  25.505   7.050
 8478POPC   C4B65830  23.634  25.513   7.350
 8479POPC   NC365831   7.467   1.263   5.550
 8479POPC   PO465832   7.438   1.259   5.850
 8479POPC   GL165833   7.375   1.245   6.150
 8479POPC   GL265834   7.499   1.206   6.150
 8479POPC   C1A65835   7.427   1.229   6.450
 8479POPC   D2A65836   7.400   1.260   6.750
 8479POPC   C3A65837   7.386   1.234   7.050
 8479POPC   C4A65838   7.381   1.195   7.350
 8479POPC   C1B65839   7.656   1.151   6.450
 8479POPC   C2B65840   7.693   1.153   6.750
 8479POPC   C3B65841   7.637   1.148   7.050
 8479POPC   C4B65842   7.684   1.161   7.350
 8480POPC   NC365843  24.467  28.386   5.550
 8480POPC   PO465844  24.533  28.339   5.850
 8480POPC   GL165845  24.531  28.372   6.150
 8480POPC   GL265846  24.605  28.449   6.150
 8480POPC   C1A65847  24.486  28.394   6.450
 8480POPC   D2A65848  24.485  28.387   6.750
 8480POPC   C3A65849  24.483  28.418   7.050
 8480POPC   C4A65850  24.456  28.320   7.350
 8480POPC   C1B65851  24.701  28.505   6.450
 8480POPC   C2B65852  24.681  28.465   6.750
 8480POPC   C3B65853  24.710  28.480   7.050
 8480POPC   C4B65854  24.731  28.482   7.350
 8481POPC   NC365855   0.399  34.544   5.550
 8481POPC   PO465856   0.438  34.535   5.850
 8481POPC   GL165857   0.448  34.575   6.150
 8481POPC   GL265858   0.390  34.652   6.150
 8481POPC   C1A65859   0.433  34.612   6.450
 8481POPC   D2A65860   0.472  34.564   6.750
 8481POPC   C3A65861   0.466  34.594   7.050
 8481POPC   C4A65862   0.436  34.541   7.350
 8481POPC   C1B65863   0.352  34.851   6.450
 8481POPC   C2B65864   0.369  34.765   6.750
 8481POPC   C3B65865   0.365  34.836   7.050
 8481POPC   C4B65866   0.341  34.797   7.350
 8482POPC   NC365867  10.555   6.639   5.550
 8482POPC   PO465868  10.564   6.639   5.850
 8482POPC   GL165869  10.483   6.685   6.150
 8482POPC   GL265870  10.382   6.665   6.150
 8482POPC   C1A65871  10.476   6.602   6.450
 8482POPC   D2A65872  10.479   6.637   6.750
 8482POPC   C3A65873  10.536   6.603   7.050
 8482POPC   C4A65874  10.536   6.660   7.350
 8482POPC   C1B65875  10.296   6.621   6.450
 8482POPC   C2B65876  10.225   6.598   6.750
 8482POPC   C3B65877  10.304   6.624   7.050
 8482POPC   C4B65878  10.294   6.639   7.350
 8483POPC   NC365879  26.866   8.211   5.550
 8483POPC   PO465880  26.775   8.180   5.850
 8483POPC   GL165881  26.805   8.178   6.150
 8483POPC   GL265882  26.801   8.087   6.150
 8483POPC   C1A65883  26.772   8.170   6.450
 8483POPC   D2A65884  26.814   8.238   6.750
 8483POPC   C3A65885  26.788   8.214   7.050
 8483POPC   C4A65886  26.797   8.226   7.350
 8483POPC   C1B65887  26.824   7.903   6.450
 8483POPC   C2B65888  26.820   7.977   6.750
 8483POPC   C3B65889  26.909   7.967   7.050
 8483POPC   C4B65890  26.847   8.001   7.350
 8484POPC   NC365891  12.827  32.298   5.550
 8484POPC   PO465892  12.891  32.219   5.850
 8484POPC   GL165893  12.848  32.294   6.150
 8484POPC   GL265894  12.764  32.108   6.150
 8484POPC   C1A65895  12.879  32.266   6.450
 8484POPC   D2A65896  12.895  32.294   6.750
 8484POPC   C3A65897  12.859  32.284   7.050
 8484POPC   C4A65898  12.895  32.256   7.350
 8484POPC   C1B65899  12.768  31.993   6.450
 8484POPC   C2B65900  12.758  32.070   6.750
 8484POPC   C3B65901  12.768  31.979   7.050
 8484POPC   C4B65902  12.708  32.030   7.350
 8485POPC   NC365903  25.299   0.392   5.550
 8485POPC   PO465904  25.251   0.412   5.850
 8485POPC   GL165905  25.252   0.435   6.150
 8485POPC   GL265906  25.147   0.543   6.150
 8485POPC   C1A65907  25.304   0.450   6.450
 8485POPC   D2A65908  25.301   0.473   6.750
 8485POPC   C3A65909  25.272   0.421   7.050
 8485POPC   C4A65910  25.306   0.467   7.350
 8485POPC   C1B65911  25.056   0.632   6.450
 8485POPC   C2B65912  25.063   0.646   6.750
 8485POPC   C3B65913  25.085   0.620   7.050
 8485POPC   C4B65914  25.081   0.587   7.350
 8486POPC   NC365915  12.064  43.089   5.550
 8486POPC   PO465916  12.052  43.111   5.850
 8486POPC   GL165917  12.086  43.091   6.150
 8486POPC   GL265918  12.160  43.113   6.150
 8486POPC   C1A65919  12.045  43.148   6.450
 8486POPC   D2A65920  12.083  43.090   6.750
 8486POPC   C3A65921  12.055  43.076   7.050
 8486POPC   C4A65922  12.115  43.108   7.350
 8486POPC   C1B65923  12.337  42.996   6.450
 8486POPC   C2B65924  12.348  43.014   6.750
 8486POPC   C3B65925  12.309  43.069   7.050
 8486POPC   C4B65926  12.318  43.068   7.350
 8487POPC   NC365927   0.390  25.280   5.550
 8487POPC   PO465928   0.456  25.234   5.850
 8487POPC   GL165929   0.473  25.234   6.150
 8487POPC   GL265930   0.312  25.206   6.150
 8487POPC   C1A65931   0.450  25.240   6.450
 8487POPC   D2A65932   0.406  25.245   6.750
 8487POPC   C3A65933   0.482  25.223   7.050
 8487POPC   C4A65934   0.444  25.224   7.350
 8487POPC   C1B65935   0.226  25.218   6.450
 8487POPC   C2B65936   0.223  25.190   6.750
 8487POPC   C3B65937   0.221  25.279   7.050
 8487POPC   C4B65938   0.158  25.265   7.350
 8488POPC   NC365939  42.298  14.375   5.550
 8488POPC   PO465940  42.298  14.451   5.850
 8488POPC   GL165941  42.288  14.442   6.150
 8488POPC   GL265942  42.246  14.378   6.150
 8488POPC   C1A65943  42.293  14.423   6.450
 8488POPC   D2A65944  42.367  14.389   6.750
 8488POPC   C3A65945  42.320  14.397   7.050
 8488POPC   C4A65946  42.377  14.372   7.350
 8488POPC   C1B65947  42.120  14.342   6.450
 8488POPC   C2B65948  42.075  14.389   6.750
 8488POPC   C3B65949  42.055  14.342   7.050
 8488POPC   C4B65950  42.075  14.421   7.350
 8489POPC   NC365951  37.663  40.761   5.550
 8489POPC   PO465952  37.682  40.817   5.850
 8489POPC   GL165953  37.707  40.816   6.150
 8489POPC   GL265954  37.527  40.815   6.150
 8489POPC   C1A65955  37.660  40.830   6.450
 8489POPC   D2A65956  37.704  40.771   6.750
 8489POPC   C3A65957  37.721  40.803   7.050
 8489POPC   C4A65958  37.650  40.754   7.350
 8489POPC   C1B65959  37.450  40.959   6.450
 8489POPC   C2B65960  37.426  40.880   6.750
 8489POPC   C3B65961  37.473  40.894   7.050
 8489POPC   C4B65962  37.430  40.912   7.350
 8490POPC   NC365963  32.991  41.575   5.550
 8490POPC   PO465964  33.042  41.515   5.850
 8490POPC   GL165965  33.057  41.588   6.150
 8490POPC   GL265966  32.876  41.619   6.150
 8490POPC   C1A65967  33.000  41.603   6.450
 8490POPC   D2A65968  33.004  41.553   6.750
 8490POPC   C3A65969  33.062  41.517   7.050
 8490POPC   C4A65970  33.005  41.561   7.350
 8490POPC   C1B65971  32.796  41.676   6.450
 8490POPC   C2B65972  32.811  41.678   6.750
 8490POPC   C3B65973  32.821  41.625   7.050
 8490POPC   C4B65974  32.837  41.598   7.350
 8491POPC   NC365975   5.083  28.352   5.550
 8491POPC   PO465976   5.060  28.345   5.850
 8491POPC   GL165977   5.097  28.416   6.150
 8491POPC   GL265978   4.999  28.288   6.150
 8491POPC   C1A65979   5.120  28.414   6.450
 8491POPC   D2A65980   5.095  28.401   6.750
 8491POPC   C3A65981   5.048  28.405   7.050
 8491POPC   C4A65982   5.107  28.320   7.350
 8491POPC   C1B65983   4.975  28.129   6.450
 8491POPC   C2B65984   5.028  28.121   6.750
 8491POPC   C3B65985   5.014  28.173   7.050
 8491POPC   C4B65986   5.029  28.099   7.350
 8492POPC   NC365987  37.723  34.546   5.550
 8492POPC   PO465988  37.689  34.557   5.850
 8492POPC   GL165989  37.693  34.577   6.150
 8492POPC   GL265990  37.594  34.479   6.150
 8492POPC   C1A65991  37.675  34.585   6.450
 8492POPC   D2A65992  37.661  34.608   6.750
 8492POPC   C3A65993  37.717  34.540   7.050
 8492POPC   C4A65994  37.705  34.601   7.350
 8492POPC   C1B65995  37.435  34.498   6.450
 8492POPC   C2B65996  37.442  34.478   6.750
 8492POPC   C3B65997  37.457  34.400   7.050
 8492POPC   C4B65998  37.482  34.413   7.350
 8493POPC   NC365999  39.254  28.378   5.550
 8493POPC   PO466000  39.249  28.393   5.850
 8493POPC   GL166001  39.266  28.382   6.150
 8493POPC   GL266002  39.239  28.520   6.150
 8493POPC   C1A66003  39.214  28.365   6.450
 8493POPC   D2A66004  39.233  28.405   6.750
 8493POPC   C3A66005  39.270  28.335   7.050
 8493POPC   C4A66006  39.248  28.322   7.350
 8493POPC   C1B66007  39.115  28.647   6.450
 8493POPC   C2B66008  39.119  28.596   6.750
 8493POPC   C3B66009  39.156  28.591   7.050
 8493POPC   C4B66010  39.125  28.556   7.350
 8494POPC   NC366011  20.659  23.731   5.550
 8494POPC   PO466012  20.644  23.699   5.850
 8494POPC   GL166013  20.623  23.703   6.150
 8494POPC   GL266014  20.574  23.660   6.150
 8494POPC   C1A66015  20.574  23.701   6.450
 8494POPC   D2A66016  20.618  23.669   6.750
 8494POPC   C3A66017  20.650  23.727   7.050
 8494POPC   C4A66018  20.587  23.674   7.350
 8494POPC   C1B66019  20.412  23.506   6.450
 8494POPC   C2B66020  20.446  23.509   6.750
 8494POPC   C3B66021  20.410  23.503   7.050
 8494POPC   C4B66022  20.447  23.532   7.350
 8495POPC   NC366023   1.246  12.050   5.550
 8495POPC   PO466024   1.214  12.041   5.850
 8495POPC   GL166025   1.229  12.039   6.150
 8495POPC   GL266026   1.091  12.169   6.150
 8495POPC   C1A66027   1.243  12.096   6.450
 8495POPC   D2A66028   1.227  12.030   6.750
 8495POPC   C3A66029   1.250  12.089   7.050
 8495POPC   C4A66030   1.208  12.125   7.350
 8495POPC   C1B66031   1.033  12.267   6.450
 8495POPC   C2B66032   1.007  12.260   6.750
 8495POPC   C3B66033   1.007  12.199   7.050
 8495POPC   C4B66034   0.993  12.197   7.350
 8496POPC   NC366035  12.103  33.848   5.550
 8496POPC   PO466036  12.030  33.801   5.850
 8496POPC   GL166037  12.103  33.756   6.150
 8496POPC   GL266038  12.192  33.806   6.150
 8496POPC   C1A66039  12.088  33.849   6.450
 8496POPC   D2A66040  12.058  33.789   6.750
 8496POPC   C3A66041  12.030  33.848   7.050
 8496POPC   C4A66042  12.074  33.843   7.350
 8496POPC   C1B66043  12.337  33.761   6.450
 8496POPC   C2B66044  12.353  33.798   6.750
 8496POPC   C3B66045  12.348  33.739   7.050
 8496POPC   C4B66046  12.315  33.746   7.350
 8497POPC   NC366047  19.107   2.764   5.550
 8497POPC   PO466048  19.091   2.803   5.850
 8497POPC   GL166049  19.100   2.784   6.150
 8497POPC   GL266050  18.948   2.800   6.150
 8497POPC   C1A66051  19.028   2.783   6.450
 8497POPC   D2A66052  19.044   2.753   6.750
 8497POPC   C3A66053  19.050   2.763   7.050
 8497POPC   C4A66054  19.059   2.757   7.350
 8497POPC   C1B66055  18.815   2.841   6.450
 8497POPC   C2B66056  18.838   2.804   6.750
 8497POPC   C3B66057  18.829   2.846   7.050
 8497POPC   C4B66058  18.822   2.857   7.350
 8498POPC   NC366059  23.733   2.736   5.550
 8498POPC   PO466060  23.672   2.786   5.850
 8498POPC   GL166061  23.678   2.810   6.150
 8498POPC   GL266062  23.703   2.933   6.150
 8498POPC   C1A66063  23.679   2.745   6.450
 8498POPC   D2A66064  23.692   2.745   6.750
 8498POPC   C3A66065  23.755   2.744   7.050
 8498POPC   C4A66066  23.673   2.796   7.350
 8498POPC   C1B66067  23.739   3.007   6.450
 8498POPC   C2B66068  23.749   2.972   6.750
 8498POPC   C3B66069  23.686   3.039   7.050
 8498POPC   C4B66070  23.688   3.055   7.350
 8499POPC   NC366071   1.961  30.724   5.550
 8499POPC   PO466072   2.029  30.706   5.850
 8499POPC   GL166073   2.022  30.737   6.150
 8499POPC   GL266074   1.867  30.628   6.150
 8499POPC   C1A66075   1.968  30.647   6.450
 8499POPC   D2A66076   2.003  30.692   6.750
 8499POPC   C3A66077   2.007  30.686   7.050
 8499POPC   C4A66078   1.954  30.711   7.350
 8499POPC   C1B66079   1.712  30.657   6.450
 8499POPC   C2B66080   1.728  30.621   6.750
 8499POPC   C3B66081   1.757  30.615   7.050
 8499POPC   C4B66082   1.738  30.639   7.350
 8500POPC   NC366083  39.186   4.362   5.550
 8500POPC   PO466084  39.261   4.350   5.850
 8500POPC   GL166085  39.248   4.320   6.150
 8500POPC   GL266086  39.094   4.275   6.150
 8500POPC   C1A66087  39.205   4.305   6.450
 8500POPC   D2A66088  39.197   4.275   6.750
 8500POPC   C3A66089  39.187   4.324   7.050
 8500POPC   C4A66090  39.232   4.295   7.350
 8500POPC   C1B66091  38.999   4.240   6.450
 8500POPC   C2B66092  38.973   4.268   6.750
 8500POPC   C3B66093  38.947   4.276   7.050
 8500POPC   C4B66094  38.946   4.225   7.350
 8501POPC   NC366095  16.761  24.466   5.550
 8501POPC   PO466096  16.773  24.440   5.850
 8501POPC   GL166097  16.700  24.450   6.150
 8501POPC   GL266098  16.655  24.505   6.150
 8501POPC   C1A66099  16.697  24.524   6.450
 8501POPC   D2A66100  16.725  24.488   6.750
 8501POPC   C3A66101  16.768  24.447   7.050
 8501POPC   C4A66102  16.686  24.512   7.350
 8501POPC   C1B66103  16.477  24.570   6.450
 8501POPC   C2B66104  16.457  24.499   6.750
 8501POPC   C3B66105  16.533  24.544   7.050
 8501POPC   C4B66106  16.450  24.559   7.350
 8502POPC   NC366107   2.745  44.659   5.550
 8502POPC   PO466108   2.731  44.651   5.850
 8502POPC   GL166109   2.763  44.707   6.150
 8502POPC   GL266110   2.649  44.703   6.150
 8502POPC   C1A66111   2.777  44.626   6.450
 8502POPC   D2A66112   2.755  44.670   6.750
 8502POPC   C3A66113   2.815  44.636   7.050
 8502POPC   C4A66114   2.735  44.679   7.350
 8502POPC   C1B66115   2.486  44.773   6.450
 8502POPC   C2B66116   2.494  44.729   6.750
 8502POPC   C3B66117   2.515  44.787   7.050
 8502POPC   C4B66118   2.545  44.729   7.350
 8503POPC   NC366119   8.926  15.982   5.550
 8503POPC   PO466120   8.982  15.998   5.850
 8503POPC   GL166121   8.953  15.931   6.150
 8503POPC   GL266122   9.046  16.060   6.150
 8503POPC   C1A66123   9.018  15.937   6.450
 8503POPC   D2A66124   8.974  15.974   6.750
 8503POPC   C3A66125   9.008  15.980   7.050
 8503POPC   C4A66126   8.939  15.931   7.350
 8503POPC   C1B66127   9.156  16.129   6.450
 8503POPC   C2B66128   9.194  16.084   6.750
 8503POPC   C3B66129   9.108  16.105   7.050
 8503POPC   C4B66130   9.190  16.144   7.350
 8504POPC   NC366131  29.930  37.632   5.550
 8504POPC   PO466132  29.931  37.688   5.850
 8504POPC   GL166133  29.914  37.636   6.150
 8504POPC   GL266134  29.981  37.626   6.150
 8504POPC   C1A66135  29.904  37.700   6.450
 8504POPC   D2A66136  29.880  37.687   6.750
 8504POPC   C3A66137  29.902  37.678   7.050
 8504POPC   C4A66138  29.885  37.676   7.350
 8504POPC   C1B66139  30.136  37.505   6.450
 8504POPC   C2B66140  30.065  37.478   6.750
 8504POPC   C3B66141  30.133  37.479   7.050
 8504POPC   C4B66142  30.095  37.538   7.350
 8505POPC   NC366143  44.640  36.089   5.550
 8505POPC   PO466144  44.651  36.105   5.850
 8505POPC   GL166145  44.703  36.097   6.150
 8505POPC   GL266146  44.828  36.124   6.150
 8505POPC   C1A66147  44.629  36.113   6.450
 8505POPC   D2A66148  44.682  36.117   6.750
 8505POPC   C3A66149  44.662  36.083   7.050
 8505POPC   C4A66150  44.710  36.093   7.350
 8505POPC   C1B66151  44.860  36.054   6.450
 8505POPC   C2B66152  44.855  36.028   6.750
 8505POPC   C3B66153  44.902  36.061   7.050
 8505POPC   C4B66154  44.918  36.041   7.350
 8506POPC   NC366155   1.260  11.275   5.550
 8506POPC   PO466156   1.248  11.321   5.850
 8506POPC   GL166157   1.236  11.329   6.150
 8506POPC   GL266158   1.250  11.155   6.150
 8506POPC   C1A66159   1.203  11.262   6.450
 8506POPC   D2A66160   1.264  11.307   6.750
 8506POPC   C3A66161   1.248  11.251   7.050
 8506POPC   C4A66162   1.261  11.337   7.350
 8506POPC   C1B66163   1.222  11.073   6.450
 8506POPC   C2B66164   1.200  11.015   6.750
 8506POPC   C3B66165   1.277  11.011   7.050
 8506POPC   C4B66166   1.266  11.053   7.350
 8507POPC   NC366167  15.131  25.281   5.550
 8507POPC   PO466168  15.192  25.300   5.850
 8507POPC   GL166169  15.198  25.222   6.150
 8507POPC   GL266170  15.238  25.188   6.150
 8507POPC   C1A66171  15.216  25.228   6.450
 8507POPC   D2A66172  15.175  25.310   6.750
 8507POPC   C3A66173  15.143  25.255   7.050
 8507POPC   C4A66174  15.134  25.232   7.350
 8507POPC   C1B66175  15.274  25.065   6.450
 8507POPC   C2B66176  15.280  25.067   6.750
 8507POPC   C3B66177  15.265  25.079   7.050
 8507POPC   C4B66178  15.307  25.038   7.350
 8508POPC   NC366179  33.005  14.442   5.550
 8508POPC   PO466180  33.067  14.434   5.850
 8508POPC   GL166181  33.055  14.437   6.150
 8508POPC   GL266182  33.134  14.546   6.150
 8508POPC   C1A66183  33.024  14.394   6.450
 8508POPC   D2A66184  33.059  14.366   6.750
 8508POPC   C3A66185  33.044  14.379   7.050
 8508POPC   C4A66186  32.975  14.410   7.350
 8508POPC   C1B66187  33.174  14.642   6.450
 8508POPC   C2B66188  33.204  14.568   6.750
 8508POPC   C3B66189  33.170  14.639   7.050
 8508POPC   C4B66190  33.173  14.573   7.350
 8509POPC   NC366191  28.336   5.902   5.550
 8509POPC   PO466192  28.346   5.911   5.850
 8509POPC   GL166193  28.389   5.870   6.150
 8509POPC   GL266194  28.445   5.946   6.150
 8509POPC   C1A66195  28.351   5.906   6.450
 8509POPC   D2A66196  28.360   5.894   6.750
 8509POPC   C3A66197  28.335   5.862   7.050
 8509POPC   C4A66198  28.364   5.833   7.350
 8509POPC   C1B66199  28.590   5.950   6.450
 8509POPC   C2B66200  28.620   5.987   6.750
 8509POPC   C3B66201  28.636   6.019   7.050
 8509POPC   C4B66202  28.632   5.980   7.350
 8510POPC   NC366203  15.195  17.510   5.550
 8510POPC   PO466204  15.187  17.548   5.850
 8510POPC   GL166205  15.199  17.509   6.150
 8510POPC   GL266206  15.129  17.641   6.150
 8510POPC   C1A66207  15.218  17.471   6.450
 8510POPC   D2A66208  15.147  17.533   6.750
 8510POPC   C3A66209  15.134  17.551   7.050
 8510POPC   C4A66210  15.197  17.490   7.350
 8510POPC   C1B66211  15.164  17.749   6.450
 8510POPC   C2B66212  15.166  17.762   6.750
 8510POPC   C3B66213  15.177  17.775   7.050
 8510POPC   C4B66214  15.125  17.789   7.350
 8511POPC   NC366215  26.780  19.883   5.550
 8511POPC   PO466216  26.830  19.808   5.850
 8511POPC   GL166217  26.848  19.834   6.150
 8511POPC   GL266218  26.759  19.756   6.150
 8511POPC   C1A66219  26.826  19.848   6.450
 8511POPC   D2A66220  26.811  19.805   6.750
 8511POPC   C3A66221  26.853  19.850   7.050
 8511POPC   C4A66222  26.774  19.881   7.350
 8511POPC   C1B66223  26.735  19.583   6.450
 8511POPC   C2B66224  26.794  19.625   6.750
 8511POPC   C3B66225  26.778  19.583   7.050
 8511POPC   C4B66226  26.765  19.612   7.350
 8512POPC   NC366227  29.938  29.097   5.550
 8512POPC   PO466228  29.878  29.171   5.850
 8512POPC   GL166229  29.902  29.109   6.150
 8512POPC   GL266230  29.761  29.065   6.150
 8512POPC   C1A66231  29.922  29.160   6.450
 8512POPC   D2A66232  29.912  29.166   6.750
 8512POPC   C3A66233  29.890  29.183   7.050
 8512POPC   C4A66234  29.878  29.157   7.350
 8512POPC   C1B66235  29.689  29.066   6.450
 8512POPC   C2B66236  29.723  29.001   6.750
 8512POPC   C3B66237  29.729  29.053   7.050
 8512POPC   C4B66238  29.662  29.020   7.350
 8513POPC   NC366239   5.107  15.150   5.550
 8513POPC   PO466240   5.111  15.165   5.850
 8513POPC   GL166241   5.108  15.169   6.150
 8513POPC   GL266242   5.255  15.163   6.150
 8513POPC   C1A66243   5.140  15.131   6.450
 8513POPC   D2A66244   5.096  15.144   6.750
 8513POPC   C3A66245   5.130  15.167   7.050
 8513POPC   C4A66246   5.128  15.139   7.350
 8513POPC   C1B66247   5.373  15.224   6.450
 8513POPC   C2B66248   5.346  15.168   6.750
 8513POPC   C3B66249   5.315  15.212   7.050
 8513POPC   C4B66250   5.350  15.208   7.350
 8514POPC   NC366251  24.530   8.936   5.550
 8514POPC   PO466252  24.517   8.936   5.850
 8514POPC   GL166253  24.519   8.964   6.150
 8514POPC   GL266254  24.332   9.004   6.150
 8514POPC   C1A66255  24.443   8.947   6.450
 8514POPC   D2A66256  24.521   8.942   6.750
 8514POPC   C3A66257  24.486   8.979   7.050
 8514POPC   C4A66258  24.511   8.955   7.350
 8514POPC   C1B66259  24.271   8.961   6.450
 8514POPC   C2B66260  24.234   9.002   6.750
 8514POPC   C3B66261  24.196   8.973   7.050
 8514POPC   C4B66262  24.226   9.002   7.350
 8515POPC   NC366263   8.972  44.701   5.550
 8515POPC   PO466264   8.968  44.632   5.850
 8515POPC   GL166265   8.988  44.677   6.150
 8515POPC   GL266266   8.928  44.585   6.150
 8515POPC   C1A66267   9.012  44.684   6.450
 8515POPC   D2A66268   8.923  44.626   6.750
 8515POPC   C3A66269   8.961  44.656   7.050
 8515POPC   C4A66270   8.954  44.680   7.350
 8515POPC   C1B66271   8.799  44.435   6.450
 8515POPC   C2B66272   8.799  44.413   6.750
 8515POPC   C3B66273   8.813  44.496   7.050
 8515POPC   C4B66274   8.832  44.508   7.350
 8516POPC   NC366275  23.714  23.694   5.550
 8516POPC   PO466276  23.669  23.716   5.850
 8516POPC   GL166277  23.725  23.672   6.150
 8516POPC   GL266278  23.669  23.636   6.150
 8516POPC   C1A66279  23.673  23.680   6.450
 8516POPC   D2A66280  23.711  23.742   6.750
 8516POPC   C3A66281  23.719  23.705   7.050
 8516POPC   C4A66282  23.697  23.708   7.350
 8516POPC   C1B66283  23.608  23.521   6.450
 8516POPC   C2B66284  23.580  23.509   6.750
 8516POPC   C3B66285  23.536  23.511   7.050
 8516POPC   C4B66286  23.534  23.529   7.350
 8517POPC   NC366287  24.468   9.745   5.550
 8517POPC   PO466288  24.534   9.714   5.850
 8517POPC   GL166289  24.533   9.788   6.150
 8517POPC   GL266290  24.355   9.767   6.150
 8517POPC   C1A66291  24.524   9.718   6.450
 8517POPC   D2A66292  24.539   9.784   6.750
 8517POPC   C3A66293  24.482   9.784   7.050
 8517POPC   C4A66294  24.538   9.740   7.350
 8517POPC   C1B66295  24.250   9.750   6.450
 8517POPC   C2B66296  24.285   9.744   6.750
 8517POPC   C3B66297  24.224   9.732   7.050
 8517POPC   C4B66298  24.267   9.702   7.350
 8518POPC   NC366299  36.080   8.214   5.550
 8518POPC   PO466300  36.170   8.198   5.850
 8518POPC   GL166301  36.117   8.180   6.150
 8518POPC   GL266302  36.057   8.117   6.150
 8518POPC   C1A66303  36.145   8.236   6.450
 8518POPC   D2A66304  36.177   8.210   6.750
 8518POPC   C3A66305  36.089   8.231   7.050
 8518POPC   C4A66306  36.167   8.191   7.350
 8518POPC   C1B66307  35.906   8.070   6.450
 8518POPC   C2B66308  35.873   8.027   6.750
 8518POPC   C3B66309  35.876   8.093   7.050
 8518POPC   C4B66310  35.875   8.036   7.350
 8519POPC   NC366311  35.358  36.178   5.550
 8519POPC   PO466312  35.347  36.082   5.850
 8519POPC   GL166313  35.360  36.139   6.150
 8519POPC   GL266314  35.292  36.003   6.150
 8519POPC   C1A66315  35.335  36.164   6.450
 8519POPC   D2A66316  35.398  36.099   6.750
 8519POPC   C3A66317  35.367  36.176   7.050
 8519POPC   C4A66318  35.346  36.137   7.350
 8519POPC   C1B66319  35.273  35.885   6.450
 8519POPC   C2B66320  35.334  35.891   6.750
 8519POPC   C3B66321  35.274  35.848   7.050
 8519POPC   C4B66322  35.306  35.871   7.350
 8520POPC   NC366323  29.100  34.572   5.550
 8520POPC   PO466324  29.151  34.531   5.850
 8520POPC   GL166325  29.136  34.623   6.150
 8520POPC   GL266326  29.085  34.496   6.150
 8520POPC   C1A66327  29.155  34.573   6.450
 8520POPC   D2A66328  29.131  34.578   6.750
 8520POPC   C3A66329  29.098  34.567   7.050
 8520POPC   C4A66330  29.154  34.534   7.350
 8520POPC   C1B66331  28.966  34.469   6.450
 8520POPC   C2B66332  28.904  34.375   6.750
 8520POPC   C3B66333  28.938  34.382   7.050
 8520POPC   C4B66334  28.987  34.448   7.350
 8521POPC   NC366335  38.414  31.449   5.550
 8521POPC   PO466336  38.458  31.481   5.850
 8521POPC   GL166337  38.451  31.428   6.150
 8521POPC   GL266338  38.584  31.513   6.150
 8521POPC   C1A66339  38.454  31.504   6.450
 8521POPC   D2A66340  38.427  31.503   6.750
 8521POPC   C3A66341  38.409  31.465   7.050
 8521POPC   C4A66342  38.491  31.470   7.350
 8521POPC   C1B66343  38.611  31.684   6.450
 8521POPC   C2B66344  38.592  31.614   6.750
 8521POPC   C3B66345  38.654  31.646   7.050
 8521POPC   C4B66346  38.627  31.660   7.350
 8522POPC   NC366347  31.490  29.898   5.550
 8522POPC   PO466348  31.484  29.897   5.850
 8522POPC   GL166349  31.439  29.943   6.150
 8522POPC   GL266350  31.361  30.006   6.150
 8522POPC   C1A66351  31.431  29.904   6.450
 8522POPC   D2A66352  31.423  29.926   6.750
 8522POPC   C3A66353  31.509  29.967   7.050
 8522POPC   C4A66354  31.442  29.882   7.350
 8522POPC   C1B66355  31.317  30.040   6.450
 8522POPC   C2B66356  31.317  30.073   6.750
 8522POPC   C3B66357  31.286  30.099   7.050
 8522POPC   C4B66358  31.318  30.075   7.350
 8523POPC   NC366359   1.999  19.785   5.550
 8523POPC   PO466360   2.005  19.791   5.850
 8523POPC   GL166361   1.955  19.791   6.150
 8523POPC   GL266362   1.839  19.790   6.150
 8523POPC   C1A66363   2.015  19.869   6.450
 8523POPC   D2A66364   1.940  19.810   6.750
 8523POPC   C3A66365   1.977  19.807   7.050
 8523POPC   C4A66366   1.958  19.859   7.350
 8523POPC   C1B66367   1.816  19.737   6.450
 8523POPC   C2B66368   1.801  19.743   6.750
 8523POPC   C3B66369   1.765  19.749   7.050
 8523POPC   C4B66370   1.751  19.733   7.350
 8524POPC   NC366371  19.811  35.304   5.550
 8524POPC   PO466372  19.812  35.344   5.850
 8524POPC   GL166373  19.799  35.389   6.150
 8524POPC   GL266374  19.908  35.520   6.150
 8524POPC   C1A66375  19.874  35.376   6.450
 8524POPC   D2A66376  19.877  35.400   6.750
 8524POPC   C3A66377  19.833  35.344   7.050
 8524POPC   C4A66378  19.785  35.367   7.350
 8524POPC   C1B66379  19.892  35.595   6.450
 8524POPC   C2B66380  19.855  35.618   6.750
 8524POPC   C3B66381  19.887  35.544   7.050
 8524POPC   C4B66382  19.854  35.621   7.350
 8525POPC   NC366383  35.384   9.753   5.550
 8525POPC   PO466384  35.359   9.759   5.850
 8525POPC   GL166385  35.389   9.738   6.150
 8525POPC   GL266386  35.249   9.756   6.150
 8525POPC   C1A66387  35.316   9.712   6.450
 8525POPC   D2A66388  35.385   9.771   6.750
 8525POPC   C3A66389  35.392   9.731   7.050
 8525POPC   C4A66390  35.307   9.741   7.350
 8525POPC   C1B66391  35.073   9.785   6.450
 8525POPC   C2B66392  35.142   9.753   6.750
 8525POPC   C3B66393  35.128   9.825   7.050
 8525POPC   C4B66394  35.084   9.772   7.350
 8526POPC   NC366395  24.458   7.453   5.550
 8526POPC   PO466396  24.504   7.400   5.850
 8526POPC   GL166397  24.440   7.450   6.150
 8526POPC   GL266398  24.547   7.509   6.150
 8526POPC   C1A66399  24.516   7.443   6.450
 8526POPC   D2A66400  24.466   7.428   6.750
 8526POPC   C3A66401  24.453   7.439   7.050
 8526POPC   C4A66402  24.441   7.423   7.350
 8526POPC   C1B66403  24.692   7.625   6.450
 8526POPC   C2B66404  24.685   7.587   6.750
 8526POPC   C3B66405  24.647   7.564   7.050
 8526POPC   C4B66406  24.648   7.619   7.350
 8527POPC   NC366407  41.559  34.558   5.550
 8527POPC   PO466408  41.594  34.577   5.850
 8527POPC   GL166409  41.534  34.601   6.150
 8527POPC   GL266410  41.723  34.524   6.150
 8527POPC   C1A66411  41.565  34.605   6.450
 8527POPC   D2A66412  41.591  34.599   6.750
 8527POPC   C3A66413  41.583  34.584   7.050
 8527POPC   C4A66414  41.541  34.542   7.350
 8527POPC   C1B66415  41.825  34.470   6.450
 8527POPC   C2B66416  41.764  34.482   6.750
 8527POPC   C3B66417  41.786  34.520   7.050
 8527POPC   C4B66418  41.743  34.475   7.350
 8528POPC   NC366419   6.630  39.196   5.550
 8528POPC   PO466420   6.666  39.230   5.850
 8528POPC   GL166421   6.600  39.261   6.150
 8528POPC   GL266422   6.570  39.191   6.150
 8528POPC   C1A66423   6.680  39.223   6.450
 8528POPC   D2A66424   6.650  39.238   6.750
 8528POPC   C3A66425   6.661  39.243   7.050
 8528POPC   C4A66426   6.608  39.244   7.350
 8528POPC   C1B66427   6.447  39.148   6.450
 8528POPC   C2B66428   6.428  39.118   6.750
 8528POPC   C3B66429   6.379  39.086   7.050
 8528POPC   C4B66430   6.390  39.090   7.350
 8529POPC   NC366431  44.635   8.974   5.550
 8529POPC   PO466432  44.631   8.989   5.850
 8529POPC   GL166433  44.702   8.994   6.150
 8529POPC   GL266434  44.748   8.936   6.150
 8529POPC   C1A66435  44.688   9.001   6.450
 8529POPC   D2A66436  44.621   8.928   6.750
 8529POPC   C3A66437  44.699   8.963   7.050
 8529POPC   C4A66438  44.621   8.956   7.350
 8529POPC   C1B66439  44.913   8.822   6.450
 8529POPC   C2B66440  44.887   8.822   6.750
 8529POPC   C3B66441  44.831   8.841   7.050
 8529POPC   C4B66442  44.893   8.883   7.350
 8530POPC   NC366443  29.897  20.616   5.550
 8530POPC   PO466444  29.903  20.636   5.850
 8530POPC   GL166445  29.889  20.593   6.150
 8530POPC   GL266446  30.019  20.671   6.150
 8530POPC   C1A66447  29.888  20.594   6.450
 8530POPC   D2A66448  29.885  20.602   6.750
 8530POPC   C3A66449  29.953  20.659   7.050
 8530POPC   C4A66450  29.884  20.655   7.350
 8530POPC   C1B66451  30.155  20.619   6.450
 8530POPC   C2B66452  30.189  20.622   6.750
 8530POPC   C3B66453  30.150  20.680   7.050
 8530POPC   C4B66454  30.118  20.678   7.350
 8531POPC   NC366455  26.823  42.342   5.550
 8531POPC   PO466456  26.833  42.314   5.850
 8531POPC   GL166457  26.790  42.320   6.150
 8531POPC   GL266458  26.665  42.363   6.150
 8531POPC   C1A66459  26.797  42.328   6.450
 8531POPC   D2A66460  26.823  42.351   6.750
 8531POPC   C3A66461  26.768  42.307   7.050
 8531POPC   C4A66462  26.840  42.356   7.350
 8531POPC   C1B66463  26.587  42.426   6.450
 8531POPC   C2B66464  26.585  42.416   6.750
 8531POPC   C3B66465  26.602  42.407   7.050
 8531POPC   C4B66466  26.638  42.419   7.350
 8532POPC   NC366467  25.280  26.000   5.550
 8532POPC   PO466468  25.272  26.022   5.850
 8532POPC   GL166469  25.254  26.082   6.150
 8532POPC   GL266470  25.189  26.166   6.150
 8532POPC   C1A66471  25.301  26.080   6.450
 8532POPC   D2A66472  25.266  25.994   6.750
 8532POPC   C3A66473  25.243  26.033   7.050
 8532POPC   C4A66474  25.292  26.025   7.350
 8532POPC   C1B66475  25.088  26.205   6.450
 8532POPC   C2B66476  25.117  26.241   6.750
 8532POPC   C3B66477  25.147  26.217   7.050
 8532POPC   C4B66478  25.117  26.218   7.350
 8533POPC   NC366479  30.691  39.253   5.550
 8533POPC   PO466480  30.689  39.244   5.850
 8533POPC   GL166481  30.659  39.280   6.150
 8533POPC   GL266482  30.717  39.342   6.150
 8533POPC   C1A66483  30.745  39.271   6.450
 8533POPC   D2A66484  30.668  39.204   6.750
 8533POPC   C3A66485  30.682  39.281   7.050
 8533POPC   C4A66486  30.658  39.258   7.350
 8533POPC   C1B66487  30.772  39.490   6.450
 8533POPC   C2B66488  30.841  39.485   6.750
 8533POPC   C3B66489  30.770  39.432   7.050
 8533POPC   C4B66490  30.807  39.469   7.350
 8534POPC   NC366491  39.251  12.816   5.550
 8534POPC   PO466492  39.212  12.825   5.850
 8534POPC   GL166493  39.260  12.891   6.150
 8534POPC   GL266494  39.282  12.963   6.150
 8534POPC   C1A66495  39.230  12.846   6.450
 8534POPC   D2A66496  39.246  12.896   6.750
 8534POPC   C3A66497  39.264  12.859   7.050
 8534POPC   C4A66498  39.249  12.817   7.350
 8534POPC   C1B66499  39.419  12.952   6.450
 8534POPC   C2B66500  39.432  12.982   6.750
 8534POPC   C3B66501  39.437  13.051   7.050
 8534POPC   C4B66502  39.384  13.047   7.350
 8535POPC   NC366503  24.501  24.455   5.550
 8535POPC   PO466504  24.483  24.445   5.850
 8535POPC   GL166505  24.447  24.527   6.150
 8535POPC   GL266506  24.354  24.532   6.150
 8535POPC   C1A66507  24.526  24.503   6.450
 8535POPC   D2A66508  24.498  24.448   6.750
 8535POPC   C3A66509  24.463  24.539   7.050
 8535POPC   C4A66510  24.483  24.444   7.350
 8535POPC   C1B66511  24.252  24.469   6.450
 8535POPC   C2B66512  24.249  24.467   6.750
 8535POPC   C3B66513  24.253  24.535   7.050
 8535POPC   C4B66514  24.202  24.509   7.350
 8536POPC   NC366515  17.469  19.064   5.550
 8536POPC   PO466516  17.467  19.062   5.850
 8536POPC   GL166517  17.552  19.022   6.150
 8536POPC   GL266518  17.424  18.932   6.150
 8536POPC   C1A66519  17.555  19.078   6.450
 8536POPC   D2A66520  17.526  19.031   6.750
 8536POPC   C3A66521  17.556  19.042   7.050
 8536POPC   C4A66522  17.485  19.022   7.350
 8536POPC   C1B66523  17.330  18.875   6.450
 8536POPC   C2B66524  17.337  18.885   6.750
 8536POPC   C3B66525  17.352  18.894   7.050
 8536POPC   C4B66526  17.337  18.860   7.350
 8537POPC   NC366527  33.058  36.949   5.550
 8537POPC   PO466528  32.997  36.867   5.850
 8537POPC   GL166529  33.056  36.929   6.150
 8537POPC   GL266530  32.902  36.796   6.150
 8537POPC   C1A66531  33.026  36.877   6.450
 8537POPC   D2A66532  33.073  36.915   6.750
 8537POPC   C3A66533  33.064  36.935   7.050
 8537POPC   C4A66534  32.992  36.919   7.350
 8537POPC   C1B66535  32.839  36.763   6.450
 8537POPC   C2B66536  32.876  36.727   6.750
 8537POPC   C3B66537  32.842  36.668   7.050
 8537POPC   C4B66538  32.890  36.697   7.350
 8538POPC   NC366539  17.489  27.631   5.550
 8538POPC   PO466540  17.539  27.618   5.850
 8538POPC   GL166541  17.545  27.641   6.150
 8538POPC   GL266542  17.341  27.643   6.150
 8538POPC   C1A66543  17.519  27.602   6.450
 8538POPC   D2A66544  17.499  27.551   6.750
 8538POPC   C3A66545  17.522  27.621   7.050
 8538POPC   C4A66546  17.463  27.641   7.350
 8538POPC   C1B66547  17.308  27.699   6.450
 8538POPC   C2B66548  17.222  27.652   6.750
 8538POPC   C3B66549  17.256  27.705   7.050
 8538POPC   C4B66550  17.287  27.643   7.350
 8539POPC   NC366551  18.286  37.687   5.550
 8539POPC   PO466552  18.324  37.729   5.850
 8539POPC   GL166553  18.279  37.687   6.150
 8539POPC   GL266554  18.285  37.560   6.150
 8539POPC   C1A66555  18.293  37.685   6.450
 8539POPC   D2A66556  18.265  37.653   6.750
 8539POPC   C3A66557  18.239  37.724   7.050
 8539POPC   C4A66558  18.300  37.694   7.350
 8539POPC   C1B66559  18.356  37.474   6.450
 8539POPC   C2B66560  18.422  37.405   6.750
 8539POPC   C3B66561  18.414  37.423   7.050
 8539POPC   C4B66562  18.423  37.439   7.350
 8540POPC   NC366563  33.765  42.285   5.550
 8540POPC   PO466564  33.768  42.303   5.850
 8540POPC   GL166565  33.757  42.298   6.150
 8540POPC   GL266566  33.686  42.445   6.150
 8540POPC   C1A66567  33.794  42.323   6.450
 8540POPC   D2A66568  33.848  42.370   6.750
 8540POPC   C3A66569  33.834  42.367   7.050
 8540POPC   C4A66570  33.838  42.341   7.350
 8540POPC   C1B66571  33.668  42.581   6.450
 8540POPC   C2B66572  33.699  42.532   6.750
 8540POPC   C3B66573  33.639  42.536   7.050
 8540POPC   C4B66574  33.694  42.585   7.350
 8541POPC   NC366575   0.406  10.520   5.550
 8541POPC   PO466576   0.440  10.563   5.850
 8541POPC   GL166577   0.465  10.486   6.150
 8541POPC   GL266578   0.338  10.648   6.150
 8541POPC   C1A66579   0.425  10.510   6.450
 8541POPC   D2A66580   0.414  10.511   6.750
 8541POPC   C3A66581   0.463  10.534   7.050
 8541POPC   C4A66582   0.465  10.554   7.350
 8541POPC   C1B66583   0.385  10.727   6.450
 8541POPC   C2B66584   0.286  10.796   6.750
 8541POPC   C3B66585   0.327  10.788   7.050
 8541POPC   C4B66586   0.313  10.755   7.350
 8542POPC   NC366587  40.032  31.434   5.550
 8542POPC   PO466588  40.043  31.460   5.850
 8542POPC   GL166589  39.988  31.476   6.150
 8542POPC   GL266590  39.932  31.521   6.150
 8542POPC   C1A66591  39.983  31.478   6.450
 8542POPC   D2A66592  40.038  31.506   6.750
 8542POPC   C3A66593  40.047  31.519   7.050
 8542POPC   C4A66594  39.989  31.513   7.350
 8542POPC   C1B66595  39.749  31.536   6.450
 8542POPC   C2B66596  39.744  31.527   6.750
 8542POPC   C3B66597  39.724  31.499   7.050
 8542POPC   C4B66598  39.751  31.496   7.350
 8543POPC   NC366599  15.145   0.408   5.550
 8543POPC   PO466600  15.174   0.483   5.850
 8543POPC   GL166601  15.202   0.485   6.150
 8543POPC   GL266602  15.094   0.448   6.150
 8543POPC   C1A66603  15.144   0.442   6.450
 8543POPC   D2A66604  15.225   0.486   6.750
 8543POPC   C3A66605  15.186   0.484   7.050
 8543POPC   C4A66606  15.139   0.416   7.350
 8543POPC   C1B66607  14.892   0.404   6.450
 8543POPC   C2B66608  14.901   0.349   6.750
 8543POPC   C3B66609  14.982   0.392   7.050
 8543POPC   C4B66610  14.912   0.351   7.350
 8544POPC   NC366611  22.891   5.881   5.550
 8544POPC   PO466612  22.957   5.880   5.850
 8544POPC   GL166613  22.955   5.856   6.150
 8544POPC   GL266614  23.060   5.874   6.150
 8544POPC   C1A66615  22.972   5.856   6.450
 8544POPC   D2A66616  22.973   5.853   6.750
 8544POPC   C3A66617  22.917   5.821   7.050
 8544POPC   C4A66618  22.908   5.820   7.350
 8544POPC   C1B66619  23.128   5.789   6.450
 8544POPC   C2B66620  23.147   5.765   6.750
 8544POPC   C3B66621  23.218   5.791   7.050
 8544POPC   C4B66622  23.150   5.806   7.350
 8545POPC   NC366623  13.671   7.440   5.550
 8545POPC   PO466624  13.657   7.420   5.850
 8545POPC   GL166625  13.636   7.451   6.150
 8545POPC   GL266626  13.710   7.351   6.150
 8545POPC   C1A66627  13.634   7.418   6.450
 8545POPC   D2A66628  13.671   7.432   6.750
 8545POPC   C3A66629  13.677   7.444   7.050
 8545POPC   C4A66630  13.658   7.466   7.350
 8545POPC   C1B66631  13.776   7.214   6.450
 8545POPC   C2B66632  13.723   7.184   6.750
 8545POPC   C3B66633  13.773   7.170   7.050
 8545POPC   C4B66634  13.788   7.192   7.350
 8546POPC   NC366635  37.678   3.567   5.550
 8546POPC   PO466636  37.720   3.525   5.850
 8546POPC   GL166637  37.726   3.542   6.150
 8546POPC   GL266638  37.735   3.651   6.150
 8546POPC   C1A66639  37.661   3.514   6.450
 8546POPC   D2A66640  37.668   3.542   6.750
 8546POPC   C3A66641  37.665   3.529   7.050
 8546POPC   C4A66642  37.703   3.574   7.350
 8546POPC   C1B66643  37.717   3.798   6.450
 8546POPC   C2B66644  37.724   3.792   6.750
 8546POPC   C3B66645  37.779   3.741   7.050
 8546POPC   C4B66646  37.742   3.752   7.350
 8547POPC   NC366647  31.432  20.632   5.550
 8547POPC   PO466648  31.506  20.605   5.850
 8547POPC   GL166649  31.428  20.587   6.150
 8547POPC   GL266650  31.581  20.715   6.150
 8547POPC   C1A66651  31.484  20.645   6.450
 8547POPC   D2A66652  31.501  20.616   6.750
 8547POPC   C3A66653  31.480  20.616   7.050
 8547POPC   C4A66654  31.454  20.657   7.350
 8547POPC   C1B66655  31.690  20.815   6.450
 8547POPC   C2B66656  31.690  20.794   6.750
 8547POPC   C3B66657  31.636  20.765   7.050
 8547POPC   C4B66658  31.666  20.803   7.350
 8548POPC   NC366659  33.827   7.454   5.550
 8548POPC   PO466660  33.830   7.438   5.850
 8548POPC   GL166661  33.752   7.426   6.150
 8548POPC   GL266662  33.861   7.543   6.150
 8548POPC   C1A66663  33.829   7.421   6.450
 8548POPC   D2A66664  33.770   7.386   6.750
 8548POPC   C3A66665  33.766   7.461   7.050
 8548POPC   C4A66666  33.791   7.406   7.350
 8548POPC   C1B66667  33.940   7.661   6.450
 8548POPC   C2B66668  33.935   7.605   6.750
 8548POPC   C3B66669  33.913   7.620   7.050
 8548POPC   C4B66670  33.959   7.649   7.350
 8549POPC   NC366671  11.276  22.977   5.550
 8549POPC   PO466672  11.283  22.921   5.850
 8549POPC   GL166673  11.333  22.917   6.150
 8549POPC   GL266674  11.386  22.869   6.150
 8549POPC   C1A66675  11.259  22.897   6.450
 8549POPC   D2A66676  11.293  22.979   6.750
 8549POPC   C3A66677  11.275  22.930   7.050
 8549POPC   C4A66678  11.300  22.892   7.350
 8549POPC   C1B66679  11.584  22.900   6.450
 8549POPC   C2B66680  11.516  22.886   6.750
 8549POPC   C3B66681  11.498  22.911   7.050
 8549POPC   C4B66682  11.571  22.823   7.350
 8550POPC   NC366683  41.601  37.700   5.550
 8550POPC   PO466684  41.551  37.648   5.850
 8550POPC   GL166685  41.520  37.697   6.150
 8550POPC   GL266686  41.664  37.721   6.150
 8550POPC   C1A66687  41.509  37.659   6.450
 8550POPC   D2A66688  41.536  37.659   6.750
 8550POPC   C3A66689  41.513  37.689   7.050
 8550POPC   C4A66690  41.529  37.637   7.350
 8550POPC   C1B66691  41.849  37.721   6.450
 8550POPC   C2B66692  41.786  37.749   6.750
 8550POPC   C3B66693  41.830  37.711   7.050
 8550POPC   C4B66694  41.811  37.716   7.350
 8551POPC   NC366695   6.685  12.079   5.550
 8551POPC   PO466696   6.692  12.076   5.850
 8551POPC   GL166697   6.690  12.048   6.150
 8551POPC   GL266698   6.569  12.067   6.150
 8551POPC   C1A66699   6.658  12.057   6.450
 8551POPC   D2A66700   6.658  12.072   6.750
 8551POPC   C3A66701   6.628  12.078   7.050
 8551POPC   C4A66702   6.607  12.078   7.350
 8551POPC   C1B66703   6.412  12.161   6.450
 8551POPC   C2B66704   6.427  12.170   6.750
 8551POPC   C3B66705   6.439  12.091   7.050
 8551POPC   C4B66706   6.431  12.159   7.350
 8552POPC   NC366707  42.294  26.061   5.550
 8552POPC   PO466708  42.321  26.071   5.850
 8552POPC   GL166709  42.333  26.077   6.150
 8552POPC   GL266710  42.422  25.964   6.150
 8552POPC   C1A66711  42.346  26.087   6.450
 8552POPC   D2A66712  42.342  26.057   6.750
 8552POPC   C3A66713  42.356  26.071   7.050
 8552POPC   C4A66714  42.318  26.005   7.350
 8552POPC   C1B66715  42.502  25.863   6.450
 8552POPC   C2B66716  42.554  25.899   6.750
 8552POPC   C3B66717  42.502  25.942   7.050
 8552POPC   C4B66718  42.565  25.878   7.350
 8553POPC   NC366719  12.871  19.096   5.550
 8553POPC   PO466720  12.853  19.019   5.850
 8553POPC   GL166721  12.874  19.064   6.150
 8553POPC   GL266722  12.851  19.204   6.150
 8553POPC   C1A66723  12.890  19.062   6.450
 8553POPC   D2A66724  12.900  19.013   6.750
 8553POPC   C3A66725  12.871  19.053   7.050
 8553POPC   C4A66726  12.874  19.069   7.350
 8553POPC   C1B66727  12.774  19.295   6.450
 8553POPC   C2B66728  12.748  19.329   6.750
 8553POPC   C3B66729  12.758  19.320   7.050
 8553POPC   C4B66730  12.751  19.300   7.350
 8554POPC   NC366731  42.378  30.724   5.550
 8554POPC   PO466732  42.359  30.723   5.850
 8554POPC   GL166733  42.323  30.668   6.150
 8554POPC   GL266734  42.351  30.822   6.150
 8554POPC   C1A66735  42.311  30.664   6.450
 8554POPC   D2A66736  42.343  30.718   6.750
 8554POPC   C3A66737  42.325  30.648   7.050
 8554POPC   C4A66738  42.381  30.695   7.350
 8554POPC   C1B66739  42.501  30.903   6.450
 8554POPC   C2B66740  42.430  30.884   6.750
 8554POPC   C3B66741  42.433  30.908   7.050
 8554POPC   C4B66742  42.506  30.954   7.350
 8555POPC   NC366743  36.859   5.895   5.550
 8555POPC   PO466744  36.925   5.897   5.850
 8555POPC   GL166745  36.869   5.822   6.150
 8555POPC   GL266746  36.814   5.871   6.150
 8555POPC   C1A66747  36.876   5.855   6.450
 8555POPC   D2A66748  36.863   5.886   6.750
 8555POPC   C3A66749  36.921   5.916   7.050
 8555POPC   C4A66750  36.882   5.897   7.350
 8555POPC   C1B66751  36.667   5.817   6.450
 8555POPC   C2B66752  36.681   5.792   6.750
 8555POPC   C3B66753  36.609   5.786   7.050
 8555POPC   C4B66754  36.648   5.797   7.350
 8556POPC   NC366755   3.582  20.626   5.550
 8556POPC   PO466756   3.505  20.566   5.850
 8556POPC   GL166757   3.544  20.581   6.150
 8556POPC   GL266758   3.462  20.621   6.150
 8556POPC   C1A66759   3.578  20.578   6.450
 8556POPC   D2A66760   3.502  20.582   6.750
 8556POPC   C3A66761   3.565  20.589   7.050
 8556POPC   C4A66762   3.524  20.618   7.350
 8556POPC   C1B66763   3.323  20.537   6.450
 8556POPC   C2B66764   3.252  20.556   6.750
 8556POPC   C3B66765   3.296  20.500   7.050
 8556POPC   C4B66766   3.276  20.540   7.350
 8557POPC   NC366767   8.980   6.669   5.550
 8557POPC   PO466768   8.954   6.678   5.850
 8557POPC   GL166769   8.981   6.690   6.150
 8557POPC   GL266770   8.845   6.667   6.150
 8557POPC   C1A66771   8.935   6.693   6.450
 8557POPC   D2A66772   8.941   6.647   6.750
 8557POPC   C3A66773   8.928   6.682   7.050
 8557POPC   C4A66774   8.993   6.676   7.350
 8557POPC   C1B66775   8.717   6.723   6.450
 8557POPC   C2B66776   8.697   6.703   6.750
 8557POPC   C3B66777   8.731   6.757   7.050
 8557POPC   C4B66778   8.735   6.719   7.350
 8558POPC   NC366779   9.761  36.882   5.550
 8558POPC   PO466780   9.785  36.911   5.850
 8558POPC   GL166781   9.733  36.918   6.150
 8558POPC   GL266782   9.757  37.039   6.150
 8558POPC   C1A66783   9.790  36.929   6.450
 8558POPC   D2A66784   9.758  36.898   6.750
 8558POPC   C3A66785   9.780  36.859   7.050
 8558POPC   C4A66786   9.767  36.856   7.350
 8558POPC   C1B66787   9.832  37.153   6.450
 8558POPC   C2B66788   9.844  37.162   6.750
 8558POPC   C3B66789   9.886  37.104   7.050
 8558POPC   C4B66790   9.897  37.141   7.350
 8559POPC   NC366791  11.349  41.570   5.550
 8559POPC   PO466792  11.253  41.528   5.850
 8559POPC   GL166793  11.289  41.593   6.150
 8559POPC   GL266794  11.457  41.507   6.150
 8559POPC   C1A66795  11.328  41.545   6.450
 8559POPC   D2A66796  11.319  41.528   6.750
 8559POPC   C3A66797  11.257  41.536   7.050
 8559POPC   C4A66798  11.343  41.604   7.350
 8559POPC   C1B66799  11.563  41.507   6.450
 8559POPC   C2B66800  11.515  41.432   6.750
 8559POPC   C3B66801  11.485  41.450   7.050
 8559POPC   C4B66802  11.540  41.462   7.350
 8560POPC   NC366803  16.732  17.480   5.550
 8560POPC   PO466804  16.774  17.503   5.850
 8560POPC   GL166805  16.768  17.537   6.150
 8560POPC   GL266806  16.662  17.545   6.150
 8560POPC   C1A66807  16.729  17.527   6.450
 8560POPC   D2A66808  16.693  17.549   6.750
 8560POPC   C3A66809  16.731  17.467   7.050
 8560POPC   C4A66810  16.737  17.478   7.350
 8560POPC   C1B66811  16.507  17.637   6.450
 8560POPC   C2B66812  16.557  17.649   6.750
 8560POPC   C3B66813  16.466  17.634   7.050
 8560POPC   C4B66814  16.471  17.663   7.350
 8561POPC   NC366815  23.678   8.973   5.550
 8561POPC   PO466816  23.694   8.966   5.850
 8561POPC   GL166817  23.763   8.924   6.150
 8561POPC   GL266818  23.583   8.873   6.150
 8561POPC   C1A66819  23.687   8.993   6.450
 8561POPC   D2A66820  23.711   9.018   6.750
 8561POPC   C3A66821  23.734   9.010   7.050
 8561POPC   C4A66822  23.727   8.949   7.350
 8561POPC   C1B66823  23.488   8.809   6.450
 8561POPC   C2B66824  23.578   8.796   6.750
 8561POPC   C3B66825  23.561   8.809   7.050
 8561POPC   C4B66826  23.574   8.798   7.350
 8562POPC   NC366827  43.905  25.225   5.550
 8562POPC   PO466828  43.925  25.273   5.850
 8562POPC   GL166829  43.910  25.235   6.150
 8562POPC   GL266830  44.034  25.280   6.150
 8562POPC   C1A66831  43.856  25.271   6.450
 8562POPC   D2A66832  43.877  25.304   6.750
 8562POPC   C3A66833  43.880  25.227   7.050
 8562POPC   C4A66834  43.901  25.230   7.350
 8562POPC   C1B66835  44.119  25.364   6.450
 8562POPC   C2B66836  44.169  25.292   6.750
 8562POPC   C3B66837  44.168  25.289   7.050
 8562POPC   C4B66838  44.146  25.302   7.350
 8563POPC   NC366839  29.892  15.221   5.550
 8563POPC   PO466840  29.879  15.209   5.850
 8563POPC   GL166841  29.889  15.204   6.150
 8563POPC   GL266842  29.892  15.312   6.150
 8563POPC   C1A66843  29.928  15.207   6.450
 8563POPC   D2A66844  29.893  15.179   6.750
 8563POPC   C3A66845  29.880  15.140   7.050
 8563POPC   C4A66846  29.948  15.202   7.350
 8563POPC   C1B66847  29.871  15.379   6.450
 8563POPC   C2B66848  29.876  15.424   6.750
 8563POPC   C3B66849  29.808  15.469   7.050
 8563POPC   C4B66850  29.840  15.458   7.350
 8564POPC   NC366851  43.932   5.089   5.550
 8564POPC   PO466852  43.857   5.115   5.850
 8564POPC   GL166853  43.876   5.067   6.150
 8564POPC   GL266854  43.833   5.238   6.150
 8564POPC   C1A66855  43.918   5.103   6.450
 8564POPC   D2A66856  43.868   5.049   6.750
 8564POPC   C3A66857  43.918   5.087   7.050
 8564POPC   C4A66858  43.860   5.074   7.350
 8564POPC   C1B66859  43.758   5.293   6.450
 8564POPC   C2B66860  43.727   5.281   6.750
 8564POPC   C3B66861  43.743   5.266   7.050
 8564POPC   C4B66862  43.706   5.256   7.350
 8565POPC   NC366863  35.305  32.980   5.550
 8565POPC   PO466864  35.384  32.997   5.850
 8565POPC   GL166865  35.343  33.034   6.150
 8565POPC   GL266866  35.479  33.013   6.150
 8565POPC   C1A66867  35.309  33.074   6.450
 8565POPC   D2A66868  35.396  32.995   6.750
 8565POPC   C3A66869  35.313  33.041   7.050
 8565POPC   C4A66870  35.343  33.024   7.350
 8565POPC   C1B66871  35.569  33.112   6.450
 8565POPC   C2B66872  35.611  33.108   6.750
 8565POPC   C3B66873  35.612  33.124   7.050
 8565POPC   C4B66874  35.594  33.050   7.350
 8566POPC   NC366875  26.837  10.534   5.550
 8566POPC   PO466876  26.818  10.519   5.850
 8566POPC   GL166877  26.818  10.492   6.150
 8566POPC   GL266878  26.909  10.659   6.150
 8566POPC   C1A66879  26.776  10.530   6.450
 8566POPC   D2A66880  26.799  10.534   6.750
 8566POPC   C3A66881  26.833  10.524   7.050
 8566POPC   C4A66882  26.791  10.505   7.350
 8566POPC   C1B66883  26.938  10.672   6.450
 8566POPC   C2B66884  27.001  10.761   6.750
 8566POPC   C3B66885  27.023  10.713   7.050
 8566POPC   C4B66886  26.944  10.722   7.350
 8567POPC   NC366887   6.597   5.882   5.550
 8567POPC   PO466888   6.678   5.839   5.850
 8567POPC   GL166889   6.675   5.904   6.150
 8567POPC   GL266890   6.539   5.780   6.150
 8567POPC   C1A66891   6.601   5.820   6.450
 8567POPC   D2A66892   6.650   5.839   6.750
 8567POPC   C3A66893   6.639   5.891   7.050
 8567POPC   C4A66894   6.688   5.896   7.350
 8567POPC   C1B66895   6.421   5.719   6.450
 8567POPC   C2B66896   6.407   5.754   6.750
 8567POPC   C3B66897   6.469   5.712   7.050
 8567POPC   C4B66898   6.396   5.733   7.350
 8568POPC   NC366899  25.992  26.848   5.550
 8568POPC   PO466900  26.072  26.807   5.850
 8568POPC   GL166901  26.039  26.863   6.150
 8568POPC   GL266902  26.149  26.875   6.150
 8568POPC   C1A66903  26.066  26.848   6.450
 8568POPC   D2A66904  26.015  26.807   6.750
 8568POPC   C3A66905  26.057  26.785   7.050
 8568POPC   C4A66906  26.035  26.809   7.350
 8568POPC   C1B66907  26.311  26.936   6.450
 8568POPC   C2B66908  26.227  26.909   6.750
 8568POPC   C3B66909  26.279  26.953   7.050
 8568POPC   C4B66910  26.222  26.891   7.350
 8569POPC   NC366911  11.323  40.006   5.550
 8569POPC   PO466912  11.334  40.021   5.850
 8569POPC   GL166913  11.336  39.997   6.150
 8569POPC   GL266914  11.454  39.924   6.150
 8569POPC   C1A66915  11.293  40.016   6.450
 8569POPC   D2A66916  11.323  40.043   6.750
 8569POPC   C3A66917  11.318  39.990   7.050
 8569POPC   C4A66918  11.301  40.001   7.350
 8569POPC   C1B66919  11.588  39.965   6.450
 8569POPC   C2B66920  11.543  39.934   6.750
 8569POPC   C3B66921  11.496  39.909   7.050
 8569POPC   C4B66922  11.517  39.975   7.350
 8570POPC   NC366923   5.118  36.095   5.550
 8570POPC   PO466924   5.112  36.105   5.850
 8570POPC   GL166925   5.079  36.079   6.150
 8570POPC   GL266926   5.063  36.010   6.150
 8570POPC   C1A66927   5.060  36.165   6.450
 8570POPC   D2A66928   5.044  36.137   6.750
 8570POPC   C3A66929   5.072  36.114   7.050
 8570POPC   C4A66930   5.129  36.101   7.350
 8570POPC   C1B66931   5.082  35.852   6.450
 8570POPC   C2B66932   5.060  35.851   6.750
 8570POPC   C3B66933   5.103  35.867   7.050
 8570POPC   C4B66934   5.130  35.881   7.350
 8571POPC   NC366935   4.343   4.364   5.550
 8571POPC   PO466936   4.276   4.311   5.850
 8571POPC   GL166937   4.289   4.278   6.150
 8571POPC   GL266938   4.426   4.400   6.150
 8571POPC   C1A66939   4.307   4.293   6.450
 8571POPC   D2A66940   4.294   4.313   6.750
 8571POPC   C3A66941   4.348   4.352   7.050
 8571POPC   C4A66942   4.290   4.346   7.350
 8571POPC   C1B66943   4.422   4.484   6.450
 8571POPC   C2B66944   4.420   4.512   6.750
 8571POPC   C3B66945   4.420   4.523   7.050
 8571POPC   C4B66946   4.462   4.491   7.350
 8572POPC   NC366947  28.385  29.158   5.550
 8572POPC   PO466948  28.393  29.173   5.850
 8572POPC   GL166949  28.337  29.116   6.150
 8572POPC   GL266950  28.464  29.258   6.150
 8572POPC   C1A66951  28.330  29.163   6.450
 8572POPC   D2A66952  28.372  29.127   6.750
 8572POPC   C3A66953  28.396  29.170   7.050
 8572POPC   C4A66954  28.400  29.189   7.350
 8572POPC   C1B66955  28.467  29.338   6.450
 8572POPC   C2B66956  28.515  29.345   6.750
 8572POPC   C3B66957  28.498  29.325   7.050
 8572POPC   C4B66958  28.499  29.389   7.350
 8573POPC   NC366959  42.360  12.063   5.550
 8573POPC   PO466960  42.308  12.107   5.850
 8573POPC   GL166961  42.381  12.096   6.150
 8573POPC   GL266962  42.394  11.902   6.150
 8573POPC   C1A66963  42.301  12.042   6.450
 8573POPC   D2A66964  42.339  12.066   6.750
 8573POPC   C3A66965  42.306  12.055   7.050
 8573POPC   C4A66966  42.315  12.101   7.350
 8573POPC   C1B66967  42.339  11.779   6.450
 8573POPC   C2B66968  42.330  11.803   6.750
 8573POPC   C3B66969  42.355  11.786   7.050
 8573POPC   C4B66970  42.395  11.846   7.350
 8574POPC   NC366971   1.233  22.132   5.550
 8574POPC   PO466972   1.169  22.205   5.850
 8574POPC   GL166973   1.173  22.193   6.150
 8574POPC   GL266974   1.057  22.200   6.150
 8574POPC   C1A66975   1.224  22.131   6.450
 8574POPC   D2A66976   1.200  22.172   6.750
 8574POPC   C3A66977   1.208  22.153   7.050
 8574POPC   C4A66978   1.230  22.168   7.350
 8574POPC   C1B66979   0.939  22.204   6.450
 8574POPC   C2B66980   0.944  22.235   6.750
 8574POPC   C3B66981   0.997  22.234   7.050
 8574POPC   C4B66982   1.023  22.275   7.350
 8575POPC   NC366983   0.451  33.010   5.550
 8575POPC   PO466984   0.430  33.049   5.850
 8575POPC   GL166985   0.395  33.001   6.150
 8575POPC   GL266986   0.328  33.009   6.150
 8575POPC   C1A66987   0.459  32.975   6.450
 8575POPC   D2A66988   0.433  32.997   6.750
 8575POPC   C3A66989   0.463  33.017   7.050
 8575POPC   C4A66990   0.403  33.004   7.350
 8575POPC   C1B66991   0.273  32.905   6.450
 8575POPC   C2B66992   0.204  32.894   6.750
 8575POPC   C3B66993   0.252  32.888   7.050
 8575POPC   C4B66994   0.175  32.914   7.350
 8576POPC   NC366995  13.662  24.492   5.550
 8576POPC   PO466996  13.588  24.456   5.850
 8576POPC   GL166997  13.641  24.497   6.150
 8576POPC   GL266998  13.692  24.449   6.150
 8576POPC   C1A66999  13.623  24.481   6.450
 8576POPC   D2A67000  13.629  24.523   6.750
 8576POPC   C3A67001  13.597  24.455   7.050
 8576POPC   C4A67002  13.597  24.486   7.350
 8576POPC   C1B67003  13.777  24.343   6.450
 8576POPC   C2B67004  13.821  24.295   6.750
 8576POPC   C3B67005  13.790  24.370   7.050
 8576POPC   C4B67006  13.820  24.368   7.350
 8577POPC   NC367007  43.070  39.967   5.550
 8577POPC   PO467008  43.065  40.053   5.850
 8577POPC   GL167009  43.155  39.985   6.150
 8577POPC   GL267010  42.948  39.966   6.150
 8577POPC   C1A67011  43.132  39.994   6.450
 8577POPC   D2A67012  43.100  40.020   6.750
 8577POPC   C3A67013  43.157  40.010   7.050
 8577POPC   C4A67014  43.080  40.025   7.350
 8577POPC   C1B67015  42.839  39.992   6.450
 8577POPC   C2B67016  42.818  39.930   6.750
 8577POPC   C3B67017  42.877  39.969   7.050
 8577POPC   C4B67018  42.895  39.975   7.350
 8578POPC   NC367019   5.133  33.046   5.550
 8578POPC   PO467020   5.096  33.012   5.850
 8578POPC   GL167021   5.081  33.053   6.150
 8578POPC   GL267022   4.983  33.113   6.150
 8578POPC   C1A67023   5.054  32.985   6.450
 8578POPC   D2A67024   5.068  32.977   6.750
 8578POPC   C3A67025   5.117  33.061   7.050
 8578POPC   C4A67026   5.142  33.070   7.350
 8578POPC   C1B67027   4.912  33.112   6.450
 8578POPC   C2B67028   4.933  33.154   6.750
 8578POPC   C3B67029   4.848  33.137   7.050
 8578POPC   C4B67030   4.876  33.191   7.350
 8579POPC   NC367031  24.527   1.244   5.550
 8579POPC   PO467032  24.498   1.201   5.850
 8579POPC   GL167033  24.505   1.240   6.150
 8579POPC   GL267034  24.471   1.335   6.150
 8579POPC   C1A67035  24.443   1.197   6.450
 8579POPC   D2A67036  24.496   1.205   6.750
 8579POPC   C3A67037  24.491   1.222   7.050
 8579POPC   C4A67038  24.501   1.184   7.350
 8579POPC   C1B67039  24.525   1.419   6.450
 8579POPC   C2B67040  24.546   1.454   6.750
 8579POPC   C3B67041  24.530   1.447   7.050
 8579POPC   C4B67042  24.502   1.493   7.350
 8580POPC   NC367043   0.391  40.775   5.550
 8580POPC   PO467044   0.444  40.741   5.850
 8580POPC   GL167045   0.445  40.832   6.150
 8580POPC   GL267046   0.449  40.893   6.150
 8580POPC   C1A67047   0.449  40.821   6.450
 8580POPC   D2A67048   0.409  40.790   6.750
 8580POPC   C3A67049   0.432  40.795   7.050
 8580POPC   C4A67050   0.423  40.818   7.350
 8580POPC   C1B67051   0.584  41.046   6.450
 8580POPC   C2B67052   0.571  41.036   6.750
 8580POPC   C3B67053   0.575  40.980   7.050
 8580POPC   C4B67054   0.568  41.028   7.350
 8581POPC   NC367055  37.723  11.346   5.550
 8581POPC   PO467056  37.694  11.315   5.850
 8581POPC   GL167057  37.663  11.345   6.150
 8581POPC   GL267058  37.688  11.419   6.150
 8581POPC   C1A67059  37.706  11.319   6.450
 8581POPC   D2A67060  37.726  11.304   6.750
 8581POPC   C3A67061  37.687  11.259   7.050
 8581POPC   C4A67062  37.701  11.343   7.350
 8581POPC   C1B67063  37.577  11.548   6.450
 8581POPC   C2B67064  37.659  11.511   6.750
 8581POPC   C3B67065  37.663  11.589   7.050
 8581POPC   C4B67066  37.614  11.507   7.350
 8582POPC   NC367067   5.099  29.963   5.550
 8582POPC   PO467068   5.075  29.889   5.850
 8582POPC   GL167069   5.115  29.966   6.150
 8582POPC   GL267070   5.090  29.809   6.150
 8582POPC   C1A67071   5.121  29.951   6.450
 8582POPC   D2A67072   5.086  29.935   6.750
 8582POPC   C3A67073   5.073  29.919   7.050
 8582POPC   C4A67074   5.073  29.908   7.350
 8582POPC   C1B67075   5.181  29.731   6.450
 8582POPC   C2B67076   5.163  29.645   6.750
 8582POPC   C3B67077   5.161  29.675   7.050
 8582POPC   C4B67078   5.202  29.689   7.350
 8583POPC   NC367079  36.934  28.350   5.550
 8583POPC   PO467080  36.891  28.392   5.850
 8583POPC   GL167081  36.877  28.418   6.150
 8583POPC   GL267082  36.816  28.329   6.150
 8583POPC   C1A67083  36.939  28.377   6.450
 8583POPC   D2A67084  36.923  28.321   6.750
 8583POPC   C3A67085  36.906  28.376   7.050
 8583POPC   C4A67086  36.919  28.349   7.350
 8583POPC   C1B67087  36.680  28.301   6.450
 8583POPC   C2B67088  36.627  28.223   6.750
 8583POPC   C3B67089  36.703  28.261   7.050
 8583POPC   C4B67090  36.635  28.238   7.350
 8584POPC   NC367091  11.294  26.843   5.550
 8584POPC   PO467092  11.342  26.826   5.850
 8584POPC   GL167093  11.279  26.818   6.150
 8584POPC   GL267094  11.375  26.861   6.150
 8584POPC   C1A67095  11.269  26.777   6.450
 8584POPC   D2A67096  11.328  26.843   6.750
 8584POPC   C3A67097  11.252  26.857   7.050
 8584POPC   C4A67098  11.262  26.771   7.350
 8584POPC   C1B67099  11.563  26.900   6.450
 8584POPC   C2B67100  11.513  26.874   6.750
 8584POPC   C3B67101  11.563  26.882   7.050
 8584POPC   C4B67102  11.577  26.885   7.350
 8585POPC   NC367103   2.755  34.561   5.550
 8585POPC   PO467104   2.732  34.605   5.850
 8585POPC   GL167105   2.774  34.572   6.150
 8585POPC   GL267106   2.699  34.711   6.150
 8585POPC   C1A67107   2.775  34.545   6.450
 8585POPC   D2A67108   2.732  34.618   6.750
 8585POPC   C3A67109   2.731  34.572   7.050
 8585POPC   C4A67110   2.780  34.538   7.350
 8585POPC   C1B67111   2.628  34.790   6.450
 8585POPC   C2B67112   2.574  34.798   6.750
 8585POPC   C3B67113   2.565  34.792   7.050
 8585POPC   C4B67114   2.627  34.818   7.350
 8586POPC   NC367115  15.222  40.004   5.550
 8586POPC   PO467116  15.140  40.057   5.850
 8586POPC   GL167117  15.226  40.045   6.150
 8586POPC   GL267118  15.064  40.011   6.150
 8586POPC   C1A67119  15.180  40.006   6.450
 8586POPC   D2A67120  15.187  39.990   6.750
 8586POPC   C3A67121  15.136  39.975   7.050
 8586POPC   C4A67122  15.157  40.034   7.350
 8586POPC   C1B67123  14.980  39.931   6.450
 8586POPC   C2B67124  14.906  39.920   6.750
 8586POPC   C3B67125  14.940  39.937   7.050
 8586POPC   C4B67126  14.955  39.908   7.350
 8587POPC   NC367127  41.566   5.057   5.550
 8587POPC   PO467128  41.547   5.120   5.850
 8587POPC   GL167129  41.534   5.127   6.150
 8587POPC   GL267130  41.633   5.262   6.150
 8587POPC   C1A67131  41.541   5.136   6.450
 8587POPC   D2A67132  41.586   5.051   6.750
 8587POPC   C3A67133  41.534   5.100   7.050
 8587POPC   C4A67134  41.510   5.115   7.350
 8587POPC   C1B67135  41.610   5.362   6.450
 8587POPC   C2B67136  41.589   5.305   6.750
 8587POPC   C3B67137  41.603   5.360   7.050
 8587POPC   C4B67138  41.567   5.349   7.350
 8588POPC   NC367139  35.312  29.925   5.550
 8588POPC   PO467140  35.398  29.952   5.850
 8588POPC   GL167141  35.391  29.954   6.150
 8588POPC   GL267142  35.437  29.807   6.150
 8588POPC   C1A67143  35.366  29.894   6.450
 8588POPC   D2A67144  35.309  29.930   6.750
 8588POPC   C3A67145  35.388  29.878   7.050
 8588POPC   C4A67146  35.329  29.899   7.350
 8588POPC   C1B67147  35.498  29.692   6.450
 8588POPC   C2B67148  35.446  29.703   6.750
 8588POPC   C3B67149  35.534  29.678   7.050
 8588POPC   C4B67150  35.450  29.725   7.350
 8589POPC   NC367151  15.921  17.544   5.550
 8589POPC   PO467152  15.938  17.529   5.850
 8589POPC   GL167153  15.912  17.459   6.150
 8589POPC   GL267154  15.830  17.629   6.150
 8589POPC   C1A67155  15.920  17.475   6.450
 8589POPC   D2A67156  15.922  17.537   6.750
 8589POPC   C3A67157  15.979  17.461   7.050
 8589POPC   C4A67158  15.925  17.485   7.350
 8589POPC   C1B67159  15.752  17.728   6.450
 8589POPC   C2B67160  15.806  17.645   6.750
 8589POPC   C3B67161  15.749  17.657   7.050
 8589POPC   C4B67162  15.750  17.710   7.350
 8590POPC   NC367163  43.150   0.427   5.550
 8590POPC   PO467164  43.082   0.474   5.850
 8590POPC   GL167165  43.112   0.425   6.150
 8590POPC   GL267166  42.968   0.441   6.150
 8590POPC   C1A67167  43.069   0.412   6.450
 8590POPC   D2A67168  43.089   0.403   6.750
 8590POPC   C3A67169  43.127   0.410   7.050
 8590POPC   C4A67170  43.100   0.460   7.350
 8590POPC   C1B67171  42.827   0.364   6.450
 8590POPC   C2B67172  42.867   0.346   6.750
 8590POPC   C3B67173  42.830   0.414   7.050
 8590POPC   C4B67174  42.866   0.425   7.350
 8591POPC   NC367175  12.896  18.261   5.550
 8591POPC   PO467176  12.898  18.279   5.850
 8591POPC   GL167177  12.893  18.325   6.150
 8591POPC   GL267178  12.846  18.184   6.150
 8591POPC   C1A67179  12.884  18.328   6.450
 8591POPC   D2A67180  12.812  18.285   6.750
 8591POPC   C3A67181  12.834  18.236   7.050
 8591POPC   C4A67182  12.815  18.269   7.350
 8591POPC   C1B67183  12.853  18.047   6.450
 8591POPC   C2B67184  12.872  18.022   6.750
 8591POPC   C3B67185  12.829  18.007   7.050
 8591POPC   C4B67186  12.817  18.018   7.350
 8592POPC   NC367187  28.388  39.262   5.550
 8592POPC   PO467188  28.385  39.188   5.850
 8592POPC   GL167189  28.335  39.271   6.150
 8592POPC   GL267190  28.317  39.063   6.150
 8592POPC   C1A67191  28.356  39.257   6.450
 8592POPC   D2A67192  28.395  39.248   6.750
 8592POPC   C3A67193  28.383  39.226   7.050
 8592POPC   C4A67194  28.381  39.270   7.350
 8592POPC   C1B67195  28.305  39.031   6.450
 8592POPC   C2B67196  28.301  38.946   6.750
 8592POPC   C3B67197  28.265  38.988   7.050
 8592POPC   C4B67198  28.340  38.981   7.350
 8593POPC   NC367199  16.726  35.393   5.550
 8593POPC   PO467200  16.768  35.371   5.850
 8593POPC   GL167201  16.775  35.391   6.150
 8593POPC   GL267202  16.667  35.426   6.150
 8593POPC   C1A67203  16.769  35.365   6.450
 8593POPC   D2A67204  16.714  35.316   6.750
 8593POPC   C3A67205  16.764  35.330   7.050
 8593POPC   C4A67206  16.708  35.347   7.350
 8593POPC   C1B67207  16.481  35.492   6.450
 8593POPC   C2B67208  16.536  35.501   6.750
 8593POPC   C3B67209  16.501  35.523   7.050
 8593POPC   C4B67210  16.525  35.450   7.350
 8594POPC   NC367211  15.916  27.607   5.550
 8594POPC   PO467212  15.923  27.543   5.850
 8594POPC   GL167213  15.987  27.571   6.150
 8594POPC   GL267214  15.961  27.437   6.150
 8594POPC   C1A67215  16.004  27.565   6.450
 8594POPC   D2A67216  15.909  27.624   6.750
 8594POPC   C3A67217  15.920  27.606   7.050
 8594POPC   C4A67218  16.002  27.640   7.350
 8594POPC   C1B67219  16.002  27.349   6.450
 8594POPC   C2B67220  16.091  27.338   6.750
 8594POPC   C3B67221  16.057  27.325   7.050
 8594POPC   C4B67222  16.012  27.406   7.350
 8595POPC   NC367223  43.152  31.434   5.550
 8595POPC   PO467224  43.062  31.488   5.850
 8595POPC   GL167225  43.150  31.430   6.150
 8595POPC   GL267226  43.201  31.392   6.150
 8595POPC   C1A67227  43.083  31.487   6.450
 8595POPC   D2A67228  43.160  31.482   6.750
 8595POPC   C3A67229  43.101  31.461   7.050
 8595POPC   C4A67230  43.101  31.440   7.350
 8595POPC   C1B67231  43.249  31.248   6.450
 8595POPC   C2B67232  43.163  31.243   6.750
 8595POPC   C3B67233  43.222  31.214   7.050
 8595POPC   C4B67234  43.195  31.253   7.350
 8596POPC   NC367235  15.977  14.362   5.550
 8596POPC   PO467236  15.963  14.438   5.850
 8596POPC   GL167237  15.958  14.439   6.150
 8596POPC   GL267238  15.865  14.270   6.150
 8596POPC   C1A67239  15.971  14.411   6.450
 8596POPC   D2A67240  16.004  14.444   6.750
 8596POPC   C3A67241  15.957  14.407   7.050
 8596POPC   C4A67242  15.932  14.360   7.350
 8596POPC   C1B67243  15.755  14.237   6.450
 8596POPC   C2B67244  15.798  14.205   6.750
 8596POPC   C3B67245  15.831  14.224   7.050
 8596POPC   C4B67246  15.755  14.190   7.350
 8597POPC   NC367247  25.229   5.862   5.550
 8597POPC   PO467248  25.298   5.863   5.850
 8597POPC   GL167249  25.259   5.883   6.150
 8597POPC   GL267250  25.174   5.785   6.150
 8597POPC   C1A67251  25.294   5.877   6.450
 8597POPC   D2A67252  25.247   5.852   6.750
 8597POPC   C3A67253  25.271   5.902   7.050
 8597POPC   C4A67254  25.226   5.852   7.350
 8597POPC   C1B67255  25.056   5.711   6.450
 8597POPC   C2B67256  25.069   5.702   6.750
 8597POPC   C3B67257  25.063   5.717   7.050
 8597POPC   C4B67258  25.066   5.671   7.350
 8598POPC   NC367259  17.461  19.792   5.550
 8598POPC   PO467260  17.546  19.787   5.850
 8598POPC   GL167261  17.477  19.882   6.150
 8598POPC   GL267262  17.480  19.665   6.150
 8598POPC   C1A67263  17.549  19.793   6.450
 8598POPC   D2A67264  17.519  19.792   6.750
 8598POPC   C3A67265  17.489  19.811   7.050
 8598POPC   C4A67266  17.554  19.860   7.350
 8598POPC   C1B67267  17.502  19.628   6.450
 8598POPC   C2B67268  17.497  19.606   6.750
 8598POPC   C3B67269  17.544  19.564   7.050
 8598POPC   C4B67270  17.498  19.537   7.350
 8599POPC   NC367271   4.274  18.327   5.550
 8599POPC   PO467272   4.367  18.285   5.850
 8599POPC   GL167273   4.302  18.319   6.150
 8599POPC   GL267274   4.218  18.254   6.150
 8599POPC   C1A67275   4.283  18.313   6.450
 8599POPC   D2A67276   4.339  18.248   6.750
 8599POPC   C3A67277   4.297  18.328   7.050
 8599POPC   C4A67278   4.279  18.316   7.350
 8599POPC   C1B67279   4.106  18.258   6.450
 8599POPC   C2B67280   4.086  18.234   6.750
 8599POPC   C3B67281   4.097  18.266   7.050
 8599POPC   C4B67282   4.091  18.205   7.350
 8600POPC   NC367283  31.454  37.677   5.550
 8600POPC   PO467284  31.427  37.684   5.850
 8600POPC   GL167285  31.448  37.701   6.150
 8600POPC   GL267286  31.343  37.721   6.150
 8600POPC   C1A67287  31.441  37.658   6.450
 8600POPC   D2A67288  31.430  37.723   6.750
 8600POPC   C3A67289  31.481  37.725   7.050
 8600POPC   C4A67290  31.496  37.659   7.350
 8600POPC   C1B67291  31.243  37.816   6.450
 8600POPC   C2B67292  31.315  37.812   6.750
 8600POPC   C3B67293  31.256  37.839   7.050
 8600POPC   C4B67294  31.296  37.870   7.350
 8601POPC   NC367295  38.433  43.153   5.550
 8601POPC   PO467296  38.423  43.100   5.850
 8601POPC   GL167297  38.499  43.132   6.150
 8601POPC   GL267298  38.407  43.222   6.150
 8601POPC   C1A67299  38.413  43.143   6.450
 8601POPC   D2A67300  38.421  43.101   6.750
 8601POPC   C3A67301  38.440  43.144   7.050
 8601POPC   C4A67302  38.467  43.091   7.350
 8601POPC   C1B67303  38.292  43.226   6.450
 8601POPC   C2B67304  38.253  43.276   6.750
 8601POPC   C3B67305  38.229  43.298   7.050
 8601POPC   C4B67306  38.281  43.278   7.350
 8602POPC   NC367307  42.318  42.328   5.550
 8602POPC   PO467308  42.315  42.318   5.850
 8602POPC   GL167309  42.337  42.286   6.150
 8602POPC   GL267310  42.325  42.221   6.150
 8602POPC   C1A67311  42.367  42.304   6.450
 8602POPC   D2A67312  42.305  42.343   6.750
 8602POPC   C3A67313  42.342  42.338   7.050
 8602POPC   C4A67314  42.370  42.351   7.350
 8602POPC   C1B67315  42.431  42.098   6.450
 8602POPC   C2B67316  42.391  42.067   6.750
 8602POPC   C3B67317  42.398  42.073   7.050
 8602POPC   C4B67318  42.374  42.050   7.350
 8603POPC   NC367319  35.318  22.897   5.550
 8603POPC   PO467320  35.370  22.910   5.850
 8603POPC   GL167321  35.380  22.971   6.150
 8603POPC   GL267322  35.284  22.850   6.150
 8603POPC   C1A67323  35.374  22.970   6.450
 8603POPC   D2A67324  35.392  22.925   6.750
 8603POPC   C3A67325  35.365  22.908   7.050
 8603POPC   C4A67326  35.316  22.919   7.350
 8603POPC   C1B67327  35.129  22.728   6.450
 8603POPC   C2B67328  35.146  22.709   6.750
 8603POPC   C3B67329  35.171  22.768   7.050
 8603POPC   C4B67330  35.148  22.723   7.350
 8604POPC   NC367331  40.752   2.737   5.550
 8604POPC   PO467332  40.748   2.738   5.850
 8604POPC   GL167333  40.805   2.728   6.150
 8604POPC   GL267334  40.842   2.672   6.150
 8604POPC   C1A67335  40.756   2.801   6.450
 8604POPC   D2A67336  40.779   2.766   6.750
 8604POPC   C3A67337  40.750   2.738   7.050
 8604POPC   C4A67338  40.784   2.733   7.350
 8604POPC   C1B67339  40.949   2.614   6.450
 8604POPC   C2B67340  40.943   2.529   6.750
 8604POPC   C3B67341  40.900   2.582   7.050
 8604POPC   C4B67342  40.940   2.566   7.350
 8605POPC   NC367343  16.734  20.622   5.550
 8605POPC   PO467344  16.726  20.580   5.850
 8605POPC   GL167345  16.772  20.616   6.150
 8605POPC   GL267346  16.809  20.569   6.150
 8605POPC   C1A67347  16.755  20.594   6.450
 8605POPC   D2A67348  16.697  20.575   6.750
 8605POPC   C3A67349  16.750  20.594   7.050
 8605POPC   C4A67350  16.722  20.615   7.350
 8605POPC   C1B67351  16.923  20.422   6.450
 8605POPC   C2B67352  16.974  20.440   6.750
 8605POPC   C3B67353  16.885  20.437   7.050
 8605POPC   C4B67354  16.910  20.474   7.350
 8606POPC   NC367355  11.345   9.788   5.550
 8606POPC   PO467356  11.265   9.771   5.850
 8606POPC   GL167357  11.277   9.786   6.150
 8606POPC   GL267358  11.362   9.839   6.150
 8606POPC   C1A67359  11.309   9.784   6.450
 8606POPC   D2A67360  11.299   9.798   6.750
 8606POPC   C3A67361  11.293   9.724   7.050
 8606POPC   C4A67362  11.324   9.771   7.350
 8606POPC   C1B67363  11.481   9.971   6.450
 8606POPC   C2B67364  11.435   9.980   6.750
 8606POPC   C3B67365  11.441   9.945   7.050
 8606POPC   C4B67366  11.500   9.913   7.350
 8607POPC   NC367367  34.607  21.430   5.550
 8607POPC   PO467368  34.552  21.372   5.850
 8607POPC   GL167369  34.621  21.393   6.150
 8607POPC   GL267370  34.658  21.282   6.150
 8607POPC   C1A67371  34.618  21.358   6.450
 8607POPC   D2A67372  34.591  21.365   6.750
 8607POPC   C3A67373  34.573  21.375   7.050
 8607POPC   C4A67374  34.619  21.411   7.350
 8607POPC   C1B67375  34.727  21.217   6.450
 8607POPC   C2B67376  34.751  21.236   6.750
 8607POPC   C3B67377  34.774  21.188   7.050
 8607POPC   C4B67378  34.748  21.258   7.350
 8608POPC   NC367379  23.756  19.793   5.550
 8608POPC   PO467380  23.742  19.867   5.850
 8608POPC   GL167381  23.671  19.785   6.150
 8608POPC   GL267382  23.750  19.942   6.150
 8608POPC   C1A67383  23.696  19.786   6.450
 8608POPC   D2A67384  23.716  19.797   6.750
 8608POPC   C3A67385  23.687  19.873   7.050
 8608POPC   C4A67386  23.683  19.788   7.350
 8608POPC   C1B67387  23.801  20.055   6.450
 8608POPC   C2B67388  23.799  20.090   6.750
 8608POPC   C3B67389  23.860  20.013   7.050
 8608POPC   C4B67390  23.778  20.009   7.350
 8609POPC   NC367391  37.704  43.915   5.550
 8609POPC   PO467392  37.710  43.875   5.850
 8609POPC   GL167393  37.726  43.899   6.150
 8609POPC   GL267394  37.569  43.947   6.150
 8609POPC   C1A67395  37.700  43.841   6.450
 8609POPC   D2A67396  37.712  43.891   6.750
 8609POPC   C3A67397  37.704  43.917   7.050
 8609POPC   C4A67398  37.660  43.878   7.350
 8609POPC   C1B67399  37.533  44.073   6.450
 8609POPC   C2B67400  37.512  44.095   6.750
 8609POPC   C3B67401  37.521  44.056   7.050
 8609POPC   C4B67402  37.550  44.089   7.350
 8610POPC   NC367403  43.930  16.716   5.550
 8610POPC   PO467404  43.846  16.753   5.850
 8610POPC   GL167405  43.877  16.777   6.150
 8610POPC   GL267406  43.743  16.790   6.150
 8610POPC   C1A67407  43.844  16.776   6.450
 8610POPC   D2A67408  43.890  16.701   6.750
 8610POPC   C3A67409  43.930  16.768   7.050
 8610POPC   C4A67410  43.870  16.774   7.350
 8610POPC   C1B67411  43.632  16.853   6.450
 8610POPC   C2B67412  43.694  16.797   6.750
 8610POPC   C3B67413  43.641  16.804   7.050
 8610POPC   C4B67414  43.617  16.854   7.350
 8611POPC   NC367415  32.979   2.737   5.550
 8611POPC   PO467416  33.036   2.799   5.850
 8611POPC   GL167417  33.072   2.765   6.150
 8611POPC   GL267418  32.950   2.870   6.150
 8611POPC   C1A67419  32.995   2.758   6.450
 8611POPC   D2A67420  33.068   2.791   6.750
 8611POPC   C3A67421  33.029   2.770   7.050
 8611POPC   C4A67422  33.034   2.718   7.350
 8611POPC   C1B67423  32.926   2.943   6.450
 8611POPC   C2B67424  32.910   3.006   6.750
 8611POPC   C3B67425  32.963   2.960   7.050
 8611POPC   C4B67426  32.897   3.014   7.350
 8612POPC   NC367427  12.099   5.064   5.550
 8612POPC   PO467428  12.032   5.139   5.850
 8612POPC   GL167429  12.111   5.063   6.150
 8612POPC   GL267430  12.212   5.149   6.150
 8612POPC   C1A67431  12.037   5.046   6.450
 8612POPC   D2A67432  12.112   5.122   6.750
 8612POPC   C3A67433  12.100   5.134   7.050
 8612POPC   C4A67434  12.098   5.141   7.350
 8612POPC   C1B67435  12.298   5.238   6.450
 8612POPC   C2B67436  12.306   5.267   6.750
 8612POPC   C3B67437  12.230   5.245   7.050
 8612POPC   C4B67438  12.275   5.298   7.350
 8613POPC   NC367439  20.607  18.282   5.550
 8613POPC   PO467440  20.609  18.321   5.850
 8613POPC   GL167441  20.580  18.296   6.150
 8613POPC   GL267442  20.539  18.401   6.150
 8613POPC   C1A67443  20.653  18.325   6.450
 8613POPC   D2A67444  20.622  18.315   6.750
 8613POPC   C3A67445  20.574  18.276   7.050
 8613POPC   C4A67446  20.638  18.255   7.350
 8613POPC   C1B67447  20.482  18.508   6.450
 8613POPC   C2B67448  20.418  18.512   6.750
 8613POPC   C3B67449  20.446  18.518   7.050
 8613POPC   C4B67450  20.482  18.493   7.350
 8614POPC   NC367451  22.134  16.688   5.550
 8614POPC   PO467452  22.118  16.768   5.850
 8614POPC   GL167453  22.155  16.715   6.150
 8614POPC   GL267454  22.069  16.720   6.150
 8614POPC   C1A67455  22.129  16.749   6.450
 8614POPC   D2A67456  22.135  16.717   6.750
 8614POPC   C3A67457  22.144  16.688   7.050
 8614POPC   C4A67458  22.139  16.730   7.350
 8614POPC   C1B67459  21.942  16.636   6.450
 8614POPC   C2B67460  21.929  16.661   6.750
 8614POPC   C3B67461  21.911  16.650   7.050
 8614POPC   C4B67462  21.913  16.648   7.350
 8615POPC   NC367463   8.945  12.884   5.550
 8615POPC   PO467464   8.976  12.879   5.850
 8615POPC   GL167465   8.929  12.804   6.150
 8615POPC   GL267466   8.928  12.770   6.150
 8615POPC   C1A67467   9.016  12.847   6.450
 8615POPC   D2A67468   8.965  12.865   6.750
 8615POPC   C3A67469   8.970  12.883   7.050
 8615POPC   C4A67470   8.932  12.883   7.350
 8615POPC   C1B67471   8.781  12.668   6.450
 8615POPC   C2B67472   8.800  12.618   6.750
 8615POPC   C3B67473   8.835  12.613   7.050
 8615POPC   C4B67474   8.804  12.700   7.350
 8616POPC   NC367475   9.737  36.164   5.550
 8616POPC   PO467476   9.750  36.171   5.850
 8616POPC   GL167477   9.772  36.172   6.150
 8616POPC   GL267478   9.650  36.131   6.150
 8616POPC   C1A67479   9.768  36.140   6.450
 8616POPC   D2A67480   9.789  36.094   6.750
 8616POPC   C3A67481   9.796  36.092   7.050
 8616POPC   C4A67482   9.732  36.101   7.350
 8616POPC   C1B67483   9.531  36.093   6.450
 8616POPC   C2B67484   9.558  36.052   6.750
 8616POPC   C3B67485   9.486  36.059   7.050
 8616POPC   C4B67486   9.468  36.083   7.350
 8617POPC   NC367487   4.311  11.255   5.550
 8617POPC   PO467488   4.274  11.279   5.850
 8617POPC   GL167489   4.343  11.316   6.150
 8617POPC   GL267490   4.401  11.295   6.150
 8617POPC   C1A67491   4.310  11.320   6.450
 8617POPC   D2A67492   4.280  11.348   6.750
 8617POPC   C3A67493   4.358  11.298   7.050
 8617POPC   C4A67494   4.319  11.338   7.350
 8617POPC   C1B67495   4.605  11.387   6.450
 8617POPC   C2B67496   4.533  11.328   6.750
 8617POPC   C3B67497   4.596  11.398   7.050
 8617POPC   C4B67498   4.555  11.324   7.350
 8618POPC   NC367499  19.083  39.194   5.550
 8618POPC   PO467500  19.064  39.266   5.850
 8618POPC   GL167501  19.058  39.201   6.150
 8618POPC   GL267502  18.989  39.318   6.150
 8618POPC   C1A67503  19.071  39.214   6.450
 8618POPC   D2A67504  19.012  39.251   6.750
 8618POPC   C3A67505  19.049  39.258   7.050
 8618POPC   C4A67506  19.056  39.254   7.350
 8618POPC   C1B67507  18.906  39.395   6.450
 8618POPC   C2B67508  18.815  39.386   6.750
 8618POPC   C3B67509  18.874  39.356   7.050
 8618POPC   C4B67510  18.842  39.370   7.350
 8619POPC   NC367511  33.001  30.659   5.550
 8619POPC   PO467512  33.065  30.661   5.850
 8619POPC   GL167513  33.011  30.698   6.150
 8619POPC   GL267514  33.023  30.623   6.150
 8619POPC   C1A67515  32.997  30.650   6.450
 8619POPC   D2A67516  33.069  30.659   6.750
 8619POPC   C3A67517  33.028  30.716   7.050
 8619POPC   C4A67518  33.035  30.671   7.350
 8619POPC   C1B67519  32.934  30.474   6.450
 8619POPC   C2B67520  32.975  30.452   6.750
 8619POPC   C3B67521  32.920  30.439   7.050
 8619POPC   C4B67522  32.955  30.468   7.350
 8620POPC   NC367523  39.268  15.143   5.550
 8620POPC   PO467524  39.220  15.221   5.850
 8620POPC   GL167525  39.272  15.227   6.150
 8620POPC   GL267526  39.139  15.221   6.150
 8620POPC   C1A67527  39.233  15.146   6.450
 8620POPC   D2A67528  39.274  15.217   6.750
 8620POPC   C3A67529  39.221  15.157   7.050
 8620POPC   C4A67530  39.256  15.209   7.350
 8620POPC   C1B67531  39.040  15.236   6.450
 8620POPC   C2B67532  39.025  15.286   6.750
 8620POPC   C3B67533  39.020  15.317   7.050
 8620POPC   C4B67534  38.958  15.290   7.350
 8621POPC   NC367535  39.992  19.028   5.550
 8621POPC   PO467536  40.023  19.044   5.850
 8621POPC   GL167537  40.052  19.076   6.150
 8621POPC   GL267538  40.158  19.008   6.150
 8621POPC   C1A67539  40.028  19.071   6.450
 8621POPC   D2A67540  40.035  19.061   6.750
 8621POPC   C3A67541  39.978  19.084   7.050
 8621POPC   C4A67542  39.989  19.104   7.350
 8621POPC   C1B67543  40.187  18.960   6.450
 8621POPC   C2B67544  40.204  18.906   6.750
 8621POPC   C3B67545  40.238  18.915   7.050
 8621POPC   C4B67546  40.214  18.935   7.350
 8622POPC   NC367547  32.219  37.709   5.550
 8622POPC   PO467548  32.250  37.641   5.850
 8622POPC   GL167549  32.215  37.641   6.150
 8622POPC   GL267550  32.328  37.691   6.150
 8622POPC   C1A67551  32.244  37.635   6.450
 8622POPC   D2A67552  32.243  37.674   6.750
 8622POPC   C3A67553  32.274  37.643   7.050
 8622POPC   C4A67554  32.265  37.714   7.350
 8622POPC   C1B67555  32.470  37.659   6.450
 8622POPC   C2B67556  32.546  37.699   6.750
 8622POPC   C3B67557  32.533  37.689   7.050
 8622POPC   C4B67558  32.535  37.701   7.350
 8623POPC   NC367559  34.615  44.670   5.550
 8623POPC   PO467560  34.595  44.661   5.850
 8623POPC   GL167561  34.609  44.707   6.150
 8623POPC   GL267562  34.691  44.630   6.150
 8623POPC   C1A67563  34.579  44.698   6.450
 8623POPC   D2A67564  34.572  44.657   6.750
 8623POPC   C3A67565  34.557  44.675   7.050
 8623POPC   C4A67566  34.560  44.712   7.350
 8623POPC   C1B67567  34.784  44.480   6.450
 8623POPC   C2B67568  34.737  44.494   6.750
 8623POPC   C3B67569  34.828  44.517   7.050
 8623POPC   C4B67570  34.742  44.555   7.350
 8624POPC   NC367571  39.212  39.224   5.550
 8624POPC   PO467572  39.211  39.243   5.850
 8624POPC   GL167573  39.224  39.217   6.150
 8624POPC   GL267574  39.188  39.344   6.150
 8624POPC   C1A67575  39.215  39.184   6.450
 8624POPC   D2A67576  39.244  39.224   6.750
 8624POPC   C3A67577  39.187  39.253   7.050
 8624POPC   C4A67578  39.207  39.217   7.350
 8624POPC   C1B67579  39.071  39.465   6.450
 8624POPC   C2B67580  39.047  39.409   6.750
 8624POPC   C3B67581  39.118  39.414   7.050
 8624POPC   C4B67582  39.077  39.457   7.350
 8625POPC   NC367583  29.914   8.185   5.550
 8625POPC   PO467584  29.916   8.158   5.850
 8625POPC   GL167585  29.956   8.166   6.150
 8625POPC   GL267586  30.001   8.045   6.150
 8625POPC   C1A67587  29.885   8.214   6.450
 8625POPC   D2A67588  29.919   8.240   6.750
 8625POPC   C3A67589  29.880   8.176   7.050
 8625POPC   C4A67590  29.964   8.168   7.350
 8625POPC   C1B67591  30.010   8.022   6.450
 8625POPC   C2B67592  29.998   8.022   6.750
 8625POPC   C3B67593  30.067   8.024   7.050
 8625POPC   C4B67594  30.058   7.998   7.350
 8626POPC   NC367595  15.971  15.923   5.550
 8626POPC   PO467596  15.944  15.943   5.850
 8626POPC   GL167597  15.999  15.937   6.150
 8626POPC   GL267598  15.897  16.062   6.150
 8626POPC   C1A67599  15.965  15.950   6.450
 8626POPC   D2A67600  15.914  15.988   6.750
 8626POPC   C3A67601  15.921  15.963   7.050
 8626POPC   C4A67602  15.905  15.994   7.350
 8626POPC   C1B67603  15.947  16.187   6.450
 8626POPC   C2B67604  15.882  16.236   6.750
 8626POPC   C3B67605  15.918  16.212   7.050
 8626POPC   C4B67606  15.921  16.238   7.350
 8627POPC   NC367607  42.326  12.880   5.550
 8627POPC   PO467608  42.373  12.831   5.850
 8627POPC   GL167609  42.351  12.826   6.150
 8627POPC   GL267610  42.445  12.774   6.150
 8627POPC   C1A67611  42.330  12.808   6.450
 8627POPC   D2A67612  42.334  12.835   6.750
 8627POPC   C3A67613  42.303  12.855   7.050
 8627POPC   C4A67614  42.336  12.894   7.350
 8627POPC   C1B67615  42.595  12.793   6.450
 8627POPC   C2B67616  42.568  12.785   6.750
 8627POPC   C3B67617  42.597  12.811   7.050
 8627POPC   C4B67618  42.594  12.745   7.350
 8628POPC   NC367619  13.662  22.171   5.550
 8628POPC   PO467620  13.648  22.138   5.850
 8628POPC   GL167621  13.631  22.145   6.150
 8628POPC   GL267622  13.537  22.175   6.150
 8628POPC   C1A67623  13.654  22.159   6.450
 8628POPC   D2A67624  13.644  22.178   6.750
 8628POPC   C3A67625  13.641  22.177   7.050
 8628POPC   C4A67626  13.647  22.175   7.350
 8628POPC   C1B67627  13.337  22.142   6.450
 8628POPC   C2B67628  13.366  22.174   6.750
 8628POPC   C3B67629  13.380  22.164   7.050
 8628POPC   C4B67630  13.337  22.142   7.350
 8629POPC   NC367631  26.781   6.627   5.550
 8629POPC   PO467632  26.782   6.663   5.850
 8629POPC   GL167633  26.794   6.599   6.150
 8629POPC   GL267634  26.858   6.500   6.150
 8629POPC   C1A67635  26.820   6.597   6.450
 8629POPC   D2A67636  26.860   6.691   6.750
 8629POPC   C3A67637  26.849   6.624   7.050
 8629POPC   C4A67638  26.845   6.645   7.350
 8629POPC   C1B67639  26.924   6.409   6.450
 8629POPC   C2B67640  26.903   6.429   6.750
 8629POPC   C3B67641  26.958   6.458   7.050
 8629POPC   C4B67642  26.929   6.407   7.350
 8630POPC   NC367643  15.935   0.422   5.550
 8630POPC   PO467644  16.001   0.476   5.850
 8630POPC   GL167645  15.982   0.487   6.150
 8630POPC   GL267646  16.048   0.510   6.150
 8630POPC   C1A67647  15.956   0.454   6.450
 8630POPC   D2A67648  15.985   0.446   6.750
 8630POPC   C3A67649  15.961   0.415   7.050
 8630POPC   C4A67650  15.950   0.412   7.350
 8630POPC   C1B67651  16.090   0.656   6.450
 8630POPC   C2B67652  16.103   0.644   6.750
 8630POPC   C3B67653  16.038   0.657   7.050
 8630POPC   C4B67654  16.079   0.610   7.350
 8631POPC   NC367655   6.664  32.259   5.550
 8631POPC   PO467656   6.634  32.226   5.850
 8631POPC   GL167657   6.631  32.252   6.150
 8631POPC   GL267658   6.636  32.334   6.150
 8631POPC   C1A67659   6.610  32.296   6.450
 8631POPC   D2A67660   6.632  32.257   6.750
 8631POPC   C3A67661   6.649  32.294   7.050
 8631POPC   C4A67662   6.615  32.235   7.350
 8631POPC   C1B67663   6.684  32.490   6.450
 8631POPC   C2B67664   6.698  32.468   6.750
 8631POPC   C3B67665   6.731  32.506   7.050
 8631POPC   C4B67666   6.689  32.501   7.350
 8632POPC   NC367667  26.783   9.785   5.550
 8632POPC   PO467668  26.845   9.778   5.850
 8632POPC   GL167669  26.786   9.793   6.150
 8632POPC   GL267670  26.719   9.711   6.150
 8632POPC   C1A67671  26.783   9.752   6.450
 8632POPC   D2A67672  26.771   9.735   6.750
 8632POPC   C3A67673  26.830   9.745   7.050
 8632POPC   C4A67674  26.856   9.736   7.350
 8632POPC   C1B67675  26.559   9.749   6.450
 8632POPC   C2B67676  26.545   9.768   6.750
 8632POPC   C3B67677  26.527   9.776   7.050
 8632POPC   C4B67678  26.592   9.756   7.350
 8633POPC   NC367679  15.971   4.320   5.550
 8633POPC   PO467680  15.964   4.267   5.850
 8633POPC   GL167681  15.924   4.342   6.150
 8633POPC   GL267682  15.850   4.243   6.150
 8633POPC   C1A67683  15.952   4.328   6.450
 8633POPC   D2A67684  15.929   4.322   6.750
 8633POPC   C3A67685  15.906   4.286   7.050
 8633POPC   C4A67686  15.929   4.360   7.350
 8633POPC   C1B67687  15.841   4.128   6.450
 8633POPC   C2B67688  15.857   4.148   6.750
 8633POPC   C3B67689  15.871   4.097   7.050
 8633POPC   C4B67690  15.784   4.137   7.350
 8634POPC   NC367691  13.638  23.686   5.550
 8634POPC   PO467692  13.633  23.726   5.850
 8634POPC   GL167693  13.637  23.676   6.150
 8634POPC   GL267694  13.710  23.792   6.150
 8634POPC   C1A67695  13.618  23.703   6.450
 8634POPC   D2A67696  13.665  23.728   6.750
 8634POPC   C3A67697  13.639  23.731   7.050
 8634POPC   C4A67698  13.605  23.675   7.350
 8634POPC   C1B67699  13.859  23.761   6.450
 8634POPC   C2B67700  13.893  23.788   6.750
 8634POPC   C3B67701  13.846  23.774   7.050
 8634POPC   C4B67702  13.846  23.798   7.350
 8635POPC   NC367703  26.075  14.443   5.550
 8635POPC   PO467704  26.038  14.422   5.850
 8635POPC   GL167705  25.996  14.420   6.150
 8635POPC   GL267706  26.008  14.575   6.150
 8635POPC   C1A67707  26.014  14.385   6.450
 8635POPC   D2A67708  26.060  14.373   6.750
 8635POPC   C3A67709  26.086  14.372   7.050
 8635POPC   C4A67710  26.028  14.432   7.350
 8635POPC   C1B67711  26.043  14.653   6.450
 8635POPC   C2B67712  25.960  14.638   6.750
 8635POPC   C3B67713  25.949  14.678   7.050
 8635POPC   C4B67714  25.975  14.671   7.350
 8636POPC   NC367715   1.972   2.802   5.550
 8636POPC   PO467716   2.027   2.727   5.850
 8636POPC   GL167717   2.004   2.810   6.150
 8636POPC   GL267718   2.087   2.874   6.150
 8636POPC   C1A67719   1.987   2.743   6.450
 8636POPC   D2A67720   1.980   2.806   6.750
 8636POPC   C3A67721   2.037   2.780   7.050
 8636POPC   C4A67722   2.037   2.791   7.350
 8636POPC   C1B67723   2.193   2.927   6.450
 8636POPC   C2B67724   2.142   2.978   6.750
 8636POPC   C3B67725   2.157   2.956   7.050
 8636POPC   C4B67726   2.175   2.910   7.350
 8637POPC   NC367727   2.029  41.585   5.550
 8637POPC   PO467728   1.965  41.571   5.850
 8637POPC   GL167729   2.023  41.583   6.150
 8637POPC   GL267730   2.007  41.481   6.150
 8637POPC   C1A67731   1.981  41.586   6.450
 8637POPC   D2A67732   2.020  41.516   6.750
 8637POPC   C3A67733   1.986  41.512   7.050
 8637POPC   C4A67734   1.973  41.595   7.350
 8637POPC   C1B67735   2.045  41.340   6.450
 8637POPC   C2B67736   1.968  41.296   6.750
 8637POPC   C3B67737   2.027  41.343   7.050
 8637POPC   C4B67738   1.997  41.342   7.350
 8638POPC   NC367739  31.426  40.808   5.550
 8638POPC   PO467740  31.426  40.761   5.850
 8638POPC   GL167741  31.445  40.827   6.150
 8638POPC   GL267742  31.393  40.825   6.150
 8638POPC   C1A67743  31.463  40.764   6.450
 8638POPC   D2A67744  31.508  40.735   6.750
 8638POPC   C3A67745  31.508  40.735   7.050
 8638POPC   C4A67746  31.472  40.759   7.350
 8638POPC   C1B67747  31.219  40.780   6.450
 8638POPC   C2B67748  31.272  40.833   6.750
 8638POPC   C3B67749  31.213  40.844   7.050
 8638POPC   C4B67750  31.227  40.852   7.350
 8639POPC   NC367751  26.082  35.367   5.550
 8639POPC   PO467752  26.052  35.343   5.850
 8639POPC   GL167753  26.000  35.321   6.150
 8639POPC   GL267754  25.910  35.253   6.150
 8639POPC   C1A67755  26.041  35.313   6.450
 8639POPC   D2A67756  26.044  35.397   6.750
 8639POPC   C3A67757  25.995  35.349   7.050
 8639POPC   C4A67758  26.086  35.304   7.350
 8639POPC   C1B67759  25.811  35.281   6.450
 8639POPC   C2B67760  25.843  35.247   6.750
 8639POPC   C3B67761  25.808  35.228   7.050
 8639POPC   C4B67762  25.838  35.212   7.350
 8640POPC   NC367763  10.553   1.220   5.550
 8640POPC   PO467764  10.511   1.229   5.850
 8640POPC   GL167765  10.517   1.249   6.150
 8640POPC   GL267766  10.456   1.107   6.150
 8640POPC   C1A67767  10.566   1.207   6.450
 8640POPC   D2A67768  10.544   1.255   6.750
 8640POPC   C3A67769  10.544   1.241   7.050
 8640POPC   C4A67770  10.514   1.205   7.350
 8640POPC   C1B67771  10.426   0.975   6.450
 8640POPC   C2B67772  10.408   1.026   6.750
 8640POPC   C3B67773  10.411   0.976   7.050
 8640POPC   C4B67774  10.488   0.937   7.350
 8641POPC   NC367775  35.398  13.620   5.550
 8641POPC   PO467776  35.399  13.663   5.850
 8641POPC   GL167777  35.302  13.581   6.150
 8641POPC   GL267778  35.204  13.613   6.150
 8641POPC   C1A67779  35.339  13.587   6.450
 8641POPC   D2A67780  35.338  13.600   6.750
 8641POPC   C3A67781  35.305  13.674   7.050
 8641POPC   C4A67782  35.328  13.589   7.350
 8641POPC   C1B67783  35.133  13.606   6.450
 8641POPC   C2B67784  35.077  13.571   6.750
 8641POPC   C3B67785  35.081  13.545   7.050
 8641POPC   C4B67786  35.082  13.560   7.350
 8642POPC   NC367787   5.914  40.756   5.550
 8642POPC   PO467788   5.822  40.779   5.850
 8642POPC   GL167789   5.881  40.746   6.150
 8642POPC   GL267790   5.986  40.798   6.150
 8642POPC   C1A67791   5.888  40.781   6.450
 8642POPC   D2A67792   5.864  40.745   6.750
 8642POPC   C3A67793   5.865  40.780   7.050
 8642POPC   C4A67794   5.828  40.734   7.350
 8642POPC   C1B67795   6.122  40.832   6.450
 8642POPC   C2B67796   6.156  40.775   6.750
 8642POPC   C3B67797   6.130  40.777   7.050
 8642POPC   C4B67798   6.118  40.814   7.350
 8643POPC   NC367799  40.014  43.155   5.550
 8643POPC   PO467800  40.049  43.143   5.850
 8643POPC   GL167801  39.978  43.154   6.150
 8643POPC   GL267802  40.083  43.231   6.150
 8643POPC   C1A67803  39.975  43.104   6.450
 8643POPC   D2A67804  39.968  43.114   6.750
 8643POPC   C3A67805  39.985  43.079   7.050
 8643POPC   C4A67806  40.023  43.095   7.350
 8643POPC   C1B67807  40.197  43.298   6.450
 8643POPC   C2B67808  40.192  43.267   6.750
 8643POPC   C3B67809  40.131  43.274   7.050
 8643POPC   C4B67810  40.225  43.317   7.350
 8644POPC   NC367811   7.402  33.767   5.550
 8644POPC   PO467812   7.373  33.781   5.850
 8644POPC   GL167813   7.456  33.832   6.150
 8644POPC   GL267814   7.356  33.742   6.150
 8644POPC   C1A67815   7.396  33.765   6.450
 8644POPC   D2A67816   7.394  33.781   6.750
 8644POPC   C3A67817   7.464  33.837   7.050
 8644POPC   C4A67818   7.389  33.809   7.350
 8644POPC   C1B67819   7.204  33.628   6.450
 8644POPC   C2B67820   7.286  33.635   6.750
 8644POPC   C3B67821   7.223  33.630   7.050
 8644POPC   C4B67822   7.197  33.622   7.350
 8645POPC   NC367823  29.935  26.078   5.550
 8645POPC   PO467824  29.958  26.086   5.850
 8645POPC   GL167825  29.938  26.000   6.150
 8645POPC   GL267826  29.784  25.991   6.150
 8645POPC   C1A67827  29.968  26.029   6.450
 8645POPC   D2A67828  29.893  25.994   6.750
 8645POPC   C3A67829  29.964  26.064   7.050
 8645POPC   C4A67830  29.939  26.065   7.350
 8645POPC   C1B67831  29.629  26.007   6.450
 8645POPC   C2B67832  29.662  25.970   6.750
 8645POPC   C3B67833  29.646  26.052   7.050
 8645POPC   C4B67834  29.663  26.027   7.350
 8646POPC   NC367835  38.448   3.546   5.550
 8646POPC   PO467836  38.427   3.583   5.850
 8646POPC   GL167837  38.467   3.508   6.150
 8646POPC   GL267838  38.512   3.699   6.150
 8646POPC   C1A67839  38.457   3.585   6.450
 8646POPC   D2A67840  38.498   3.572   6.750
 8646POPC   C3A67841  38.454   3.506   7.050
 8646POPC   C4A67842  38.430   3.514   7.350
 8646POPC   C1B67843  38.549   3.761   6.450
 8646POPC   C2B67844  38.546   3.732   6.750
 8646POPC   C3B67845  38.603   3.727   7.050
 8646POPC   C4B67846  38.606   3.716   7.350
 8647POPC   NC367847   8.211   9.796   5.550
 8647POPC   PO467848   8.192   9.741   5.850
 8647POPC   GL167849   8.231   9.761   6.150
 8647POPC   GL267850   8.285   9.856   6.150
 8647POPC   C1A67851   8.241   9.751   6.450
 8647POPC   D2A67852   8.233   9.763   6.750
 8647POPC   C3A67853   8.173   9.757   7.050
 8647POPC   C4A67854   8.175   9.732   7.350
 8647POPC   C1B67855   8.261   9.974   6.450
 8647POPC   C2B67856   8.301  10.009   6.750
 8647POPC   C3B67857   8.336   9.987   7.050
 8647POPC   C4B67858   8.323   9.988   7.350
 8648POPC   NC367859  36.103   0.448   5.550
 8648POPC   PO467860  36.161   0.402   5.850
 8648POPC   GL167861  36.167   0.439   6.150
 8648POPC   GL267862  36.004   0.440   6.150
 8648POPC   C1A67863  36.139   0.434   6.450
 8648POPC   D2A67864  36.097   0.438   6.750
 8648POPC   C3A67865  36.111   0.403   7.050
 8648POPC   C4A67866  36.095   0.427   7.350
 8648POPC   C1B67867  35.883   0.515   6.450
 8648POPC   C2B67868  35.897   0.497   6.750
 8648POPC   C3B67869  35.919   0.443   7.050
 8648POPC   C4B67870  35.834   0.441   7.350
 8649POPC   NC367871  40.036   0.452   5.550
 8649POPC   PO467872  40.030   0.409   5.850
 8649POPC   GL167873  39.982   0.436   6.150
 8649POPC   GL267874  39.977   0.299   6.150
 8649POPC   C1A67875  40.049   0.435   6.450
 8649POPC   D2A67876  40.019   0.424   6.750
 8649POPC   C3A67877  39.984   0.417   7.050
 8649POPC   C4A67878  39.985   0.419   7.350
 8649POPC   C1B67879  39.920   0.183   6.450
 8649POPC   C2B67880  40.011   0.228   6.750
 8649POPC   C3B67881  39.949   0.155   7.050
 8649POPC   C4B67882  39.947   0.147   7.350
 8650POPC   NC367883  40.786  11.313   5.550
 8650POPC   PO467884  40.752  11.294   5.850
 8650POPC   GL167885  40.748  11.264   6.150
 8650POPC   GL267886  40.803  11.164   6.150
 8650POPC   C1A67887  40.809  11.306   6.450
 8650POPC   D2A67888  40.772  11.328   6.750
 8650POPC   C3A67889  40.805  11.254   7.050
 8650POPC   C4A67890  40.782  11.321   7.350
 8650POPC   C1B67891  40.731  11.071   6.450
 8650POPC   C2B67892  40.767  11.047   6.750
 8650POPC   C3B67893  40.734  11.013   7.050
 8650POPC   C4B67894  40.807  11.007   7.350
 8651POPC   NC367895  16.735  40.817   5.550
 8651POPC   PO467896  16.771  40.809   5.850
 8651POPC   GL167897  16.762  40.788   6.150
 8651POPC   GL267898  16.749  40.869   6.150
 8651POPC   C1A67899  16.767  40.788   6.450
 8651POPC   D2A67900  16.730  40.786   6.750
 8651POPC   C3A67901  16.707  40.739   7.050
 8651POPC   C4A67902  16.774  40.817   7.350
 8651POPC   C1B67903  16.713  41.012   6.450
 8651POPC   C2B67904  16.709  41.078   6.750
 8651POPC   C3B67905  16.704  41.008   7.050
 8651POPC   C4B67906  16.671  41.002   7.350
 8652POPC   NC367907  43.934  43.067   5.550
 8652POPC   PO467908  43.920  43.079   5.850
 8652POPC   GL167909  43.849  43.130   6.150
 8652POPC   GL267910  43.762  43.200   6.150
 8652POPC   C1A67911  43.915  43.103   6.450
 8652POPC   D2A67912  43.907  43.084   6.750
 8652POPC   C3A67913  43.847  43.130   7.050
 8652POPC   C4A67914  43.920  43.100   7.350
 8652POPC   C1B67915  43.678  43.252   6.450
 8652POPC   C2B67916  43.646  43.247   6.750
 8652POPC   C3B67917  43.675  43.210   7.050
 8652POPC   C4B67918  43.696  43.243   7.350
 8653POPC   NC367919  35.355   7.449   5.550
 8653POPC   PO467920  35.308   7.443   5.850
 8653POPC   GL167921  35.390   7.425   6.150
 8653POPC   GL267922  35.248   7.527   6.150
 8653POPC   C1A67923  35.380   7.398   6.450
 8653POPC   D2A67924  35.321   7.428   6.750
 8653POPC   C3A67925  35.370   7.388   7.050
 8653POPC   C4A67926  35.395   7.422   7.350
 8653POPC   C1B67927  35.171   7.610   6.450
 8653POPC   C2B67928  35.141   7.599   6.750
 8653POPC   C3B67929  35.106   7.557   7.050
 8653POPC   C4B67930  35.197   7.574   7.350
 8654POPC   NC367931  41.546  30.668   5.550
 8654POPC   PO467932  41.544  30.732   5.850
 8654POPC   GL167933  41.573  30.712   6.150
 8654POPC   GL267934  41.516  30.601   6.150
 8654POPC   C1A67935  41.551  30.691   6.450
 8654POPC   D2A67936  41.575  30.746   6.750
 8654POPC   C3A67937  41.602  30.740   7.050
 8654POPC   C4A67938  41.561  30.669   7.350
 8654POPC   C1B67939  41.529  30.425   6.450
 8654POPC   C2B67940  41.547  30.482   6.750
 8654POPC   C3B67941  41.527  30.445   7.050
 8654POPC   C4B67942  41.580  30.496   7.350
 8655POPC   NC367943   9.720  43.855   5.550
 8655POPC   PO467944   9.744  43.868   5.850
 8655POPC   GL167945   9.795  43.881   6.150
 8655POPC   GL267946   9.891  43.955   6.150
 8655POPC   C1A67947   9.702  43.892   6.450
 8655POPC   D2A67948   9.707  43.924   6.750
 8655POPC   C3A67949   9.750  43.846   7.050
 8655POPC   C4A67950   9.753  43.885   7.350
 8655POPC   C1B67951  10.032  43.916   6.450
 8655POPC   C2B67952  10.027  43.929   6.750
 8655POPC   C3B67953   9.966  43.924   7.050
 8655POPC   C4B67954   9.979  43.909   7.350
 8656POPC   NC367955   7.463  41.568   5.550
 8656POPC   PO467956   7.453  41.520   5.850
 8656POPC   GL167957   7.415  41.511   6.150
 8656POPC   GL267958   7.341  41.676   6.150
 8656POPC   C1A67959   7.392  41.515   6.450
 8656POPC   D2A67960   7.396  41.573   6.750
 8656POPC   C3A67961   7.377  41.574   7.050
 8656POPC   C4A67962   7.417  41.601   7.350
 8656POPC   C1B67963   7.222  41.774   6.450
 8656POPC   C2B67964   7.213  41.762   6.750
 8656POPC   C3B67965   7.265  41.770   7.050
 8656POPC   C4B67966   7.224  41.749   7.350
 8657POPC   NC367967  14.368  30.691   5.550
 8657POPC   PO467968  14.385  30.726   5.850
 8657POPC   GL167969  14.442  30.690   6.150
 8657POPC   GL267970  14.473  30.739   6.150
 8657POPC   C1A67971  14.415  30.673   6.450
 8657POPC   D2A67972  14.391  30.656   6.750
 8657POPC   C3A67973  14.444  30.691   7.050
 8657POPC   C4A67974  14.393  30.674   7.350
 8657POPC   C1B67975  14.544  30.861   6.450
 8657POPC   C2B67976  14.623  30.912   6.750
 8657POPC   C3B67977  14.543  30.882   7.050
 8657POPC   C4B67978  14.544  30.895   7.350
 8658POPC   NC367979  17.470  22.983   5.550
 8658POPC   PO467980  17.515  22.924   5.850
 8658POPC   GL167981  17.511  22.968   6.150
 8658POPC   GL267982  17.361  22.971   6.150
 8658POPC   C1A67983  17.544  22.967   6.450
 8658POPC   D2A67984  17.476  22.897   6.750
 8658POPC   C3A67985  17.536  22.921   7.050
 8658POPC   C4A67986  17.547  22.961   7.350
 8658POPC   C1B67987  17.256  22.952   6.450
 8658POPC   C2B67988  17.280  22.969   6.750
 8658POPC   C3B67989  17.302  22.999   7.050
 8658POPC   C4B67990  17.270  23.017   7.350
 8659POPC   NC367991  18.265  29.180   5.550
 8659POPC   PO467992  18.247  29.168   5.850
 8659POPC   GL167993  18.252  29.172   6.150
 8659POPC   GL267994  18.208  29.289   6.150
 8659POPC   C1A67995  18.314  29.189   6.450
 8659POPC   D2A67996  18.241  29.181   6.750
 8659POPC   C3A67997  18.258  29.115   7.050
 8659POPC   C4A67998  18.319  29.158   7.350
 8659POPC   C1B67999  18.216  29.348   6.450
 8659POPC   C2B68000  18.197  29.337   6.750
 8659POPC   C3B68001  18.181  29.400   7.050
 8659POPC   C4B68002  18.216  29.375   7.350
 8660POPC   NC368003  41.607  12.818   5.550
 8660POPC   PO468004  41.576  12.843   5.850
 8660POPC   GL168005  41.586  12.807   6.150
 8660POPC   GL268006  41.476  12.910   6.150
 8660POPC   C1A68007  41.520  12.864   6.450
 8660POPC   D2A68008  41.524  12.806   6.750
 8660POPC   C3A68009  41.602  12.896   7.050
 8660POPC   C4A68010  41.568  12.887   7.350
 8660POPC   C1B68011  41.321  12.958   6.450
 8660POPC   C2B68012  41.348  13.018   6.750
 8660POPC   C3B68013  41.369  12.950   7.050
 8660POPC   C4B68014  41.358  13.026   7.350
 8661POPC   NC368015  44.707  11.305   5.550
 8661POPC   PO468016  44.707  11.259   5.850
 8661POPC   GL168017  44.683  11.341   6.150
 8661POPC   GL268018  44.589  11.442   6.150
 8661POPC   C1A68019  44.698  11.327   6.450
 8661POPC   D2A68020  44.672  11.293   6.750
 8661POPC   C3A68021  44.642  11.316   7.050
 8661POPC   C4A68022  44.686  11.303   7.350
 8661POPC   C1B68023  44.540  11.500   6.450
 8661POPC   C2B68024  44.527  11.569   6.750
 8661POPC   C3B68025  44.571  11.550   7.050
 8661POPC   C4B68026  44.542  11.520   7.350
 8662POPC   NC368027  27.597   8.199   5.550
 8662POPC   PO468028  27.616   8.172   5.850
 8662POPC   GL168029  27.553   8.243   6.150
 8662POPC   GL268030  27.708   8.217   6.150
 8662POPC   C1A68031  27.643   8.221   6.450
 8662POPC   D2A68032  27.553   8.239   6.750
 8662POPC   C3A68033  27.573   8.206   7.050
 8662POPC   C4A68034  27.549   8.216   7.350
 8662POPC   C1B68035  27.792   8.275   6.450
 8662POPC   C2B68036  27.824   8.262   6.750
 8662POPC   C3B68037  27.796   8.210   7.050
 8662POPC   C4B68038  27.858   8.207   7.350
 8663POPC   NC368039  26.864  29.885   5.550
 8663POPC   PO468040  26.832  29.876   5.850
 8663POPC   GL168041  26.775  29.933   6.150
 8663POPC   GL268042  26.920  30.014   6.150
 8663POPC   C1A68043  26.817  29.969   6.450
 8663POPC   D2A68044  26.778  29.926   6.750
 8663POPC   C3A68045  26.816  29.903   7.050
 8663POPC   C4A68046  26.827  29.964   7.350
 8663POPC   C1B68047  26.944  30.115   6.450
 8663POPC   C2B68048  26.969  30.080   6.750
 8663POPC   C3B68049  26.929  30.152   7.050
 8663POPC   C4B68050  27.019  30.127   7.350
 8664POPC   NC368051  17.546   7.392   5.550
 8664POPC   PO468052  17.550   7.399   5.850
 8664POPC   GL168053  17.552   7.440   6.150
 8664POPC   GL268054  17.596   7.347   6.150
 8664POPC   C1A68055  17.458   7.466   6.450
 8664POPC   D2A68056  17.541   7.450   6.750
 8664POPC   C3A68057  17.553   7.443   7.050
 8664POPC   C4A68058  17.470   7.381   7.350
 8664POPC   C1B68059  17.755   7.263   6.450
 8664POPC   C2B68060  17.733   7.289   6.750
 8664POPC   C3B68061  17.746   7.309   7.050
 8664POPC   C4B68062  17.730   7.298   7.350
 8665POPC   NC368063  35.397  29.181   5.550
 8665POPC   PO468064  35.333  29.101   5.850
 8665POPC   GL168065  35.390  29.111   6.150
 8665POPC   GL268066  35.456  29.036   6.150
 8665POPC   C1A68067  35.364  29.191   6.450
 8665POPC   D2A68068  35.392  29.163   6.750
 8665POPC   C3A68069  35.328  29.169   7.050
 8665POPC   C4A68070  35.372  29.146   7.350
 8665POPC   C1B68071  35.564  29.006   6.450
 8665POPC   C2B68072  35.540  28.979   6.750
 8665POPC   C3B68073  35.574  29.057   7.050
 8665POPC   C4B68074  35.607  29.005   7.350
 8666POPC   NC368075  27.594  15.191   5.550
 8666POPC   PO468076  27.563  15.190   5.850
 8666POPC   GL168077  27.568  15.160   6.150
 8666POPC   GL268078  27.709  15.272   6.150
 8666POPC   C1A68079  27.545  15.219   6.450
 8666POPC   D2A68080  27.632  15.169   6.750
 8666POPC   C3A68081  27.621  15.187   7.050
 8666POPC   C4A68082  27.638  15.156   7.350
 8666POPC   C1B68083  27.791  15.364   6.450
 8666POPC   C2B68084  27.714  15.316   6.750
 8666POPC   C3B68085  27.721  15.339   7.050
 8666POPC   C4B68086  27.726  15.353   7.350
 8667POPC   NC368087  24.534   4.345   5.550
 8667POPC   PO468088  24.459   4.346   5.850
 8667POPC   GL168089  24.460   4.293   6.150
 8667POPC   GL268090  24.612   4.241   6.150
 8667POPC   C1A68091  24.508   4.315   6.450
 8667POPC   D2A68092  24.457   4.294   6.750
 8667POPC   C3A68093  24.446   4.338   7.050
 8667POPC   C4A68094  24.454   4.275   7.350
 8667POPC   C1B68095  24.641   4.109   6.450
 8667POPC   C2B68096  24.626   4.144   6.750
 8667POPC   C3B68097  24.671   4.090   7.050
 8667POPC   C4B68098  24.678   4.126   7.350
 8668POPC   NC368099   1.245  30.729   5.550
 8668POPC   PO468100   1.178  30.706   5.850
 8668POPC   GL168101   1.221  30.734   6.150
 8668POPC   GL268102   1.143  30.597   6.150
 8668POPC   C1A68103   1.215  30.713   6.450
 8668POPC   D2A68104   1.228  30.717   6.750
 8668POPC   C3A68105   1.201  30.744   7.050
 8668POPC   C4A68106   1.241  30.658   7.350
 8668POPC   C1B68107   1.046  30.526   6.450
 8668POPC   C2B68108   0.973  30.536   6.750
 8668POPC   C3B68109   0.990  30.574   7.050
 8668POPC   C4B68110   0.991  30.597   7.350
 8669POPC   NC368111  13.665  33.814   5.550
 8669POPC   PO468112  13.625  33.824   5.850
 8669POPC   GL168113  13.627  33.764   6.150
 8669POPC   GL268114  13.492  33.835   6.150
 8669POPC   C1A68115  13.642  33.777   6.450
 8669POPC   D2A68116  13.658  33.801   6.750
 8669POPC   C3A68117  13.615  33.841   7.050
 8669POPC   C4A68118  13.594  33.760   7.350
 8669POPC   C1B68119  13.406  33.902   6.450
 8669POPC   C2B68120  13.433  33.942   6.750
 8669POPC   C3B68121  13.427  33.979   7.050
 8669POPC   C4B68122  13.416  33.949   7.350
 8670POPC   NC368123  21.351  23.736   5.550
 8670POPC   PO468124  21.373  23.742   5.850
 8670POPC   GL168125  21.356  23.744   6.150
 8670POPC   GL268126  21.395  23.801   6.150
 8670POPC   C1A68127  21.374  23.731   6.450
 8670POPC   D2A68128  21.339  23.762   6.750
 8670POPC   C3A68129  21.420  23.740   7.050
 8670POPC   C4A68130  21.382  23.734   7.350
 8670POPC   C1B68131  21.347  23.913   6.450
 8670POPC   C2B68132  21.364  23.974   6.750
 8670POPC   C3B68133  21.369  23.989   7.050
 8670POPC   C4B68134  21.336  23.954   7.350
 8671POPC   NC368135  10.521  29.913   5.550
 8671POPC   PO468136  10.517  29.881   5.850
 8671POPC   GL168137  10.554  29.889   6.150
 8671POPC   GL268138  10.506  29.843   6.150
 8671POPC   C1A68139  10.532  29.950   6.450
 8671POPC   D2A68140  10.531  29.954   6.750
 8671POPC   C3A68141  10.537  29.917   7.050
 8671POPC   C4A68142  10.573  29.929   7.350
 8671POPC   C1B68143  10.600  29.710   6.450
 8671POPC   C2B68144  10.597  29.709   6.750
 8671POPC   C3B68145  10.520  29.635   7.050
 8671POPC   C4B68146  10.567  29.700   7.350
 8672POPC   NC368147   9.783  22.133   5.550
 8672POPC   PO468148   9.702  22.151   5.850
 8672POPC   GL168149   9.753  22.207   6.150
 8672POPC   GL268150   9.882  22.143   6.150
 8672POPC   C1A68151   9.787  22.207   6.450
 8672POPC   D2A68152   9.731  22.190   6.750
 8672POPC   C3A68153   9.717  22.117   7.050
 8672POPC   C4A68154   9.718  22.144   7.350
 8672POPC   C1B68155  10.032  22.145   6.450
 8672POPC   C2B68156   9.977  22.138   6.750
 8672POPC   C3B68157  10.020  22.111   7.050
 8672POPC   C4B68158  10.027  22.146   7.350
 8673POPC   NC368159  33.786  23.670   5.550
 8673POPC   PO468160  33.764  23.689   5.850
 8673POPC   GL168161  33.758  23.686   6.150
 8673POPC   GL268162  33.775  23.788   6.150
 8673POPC   C1A68163  33.834  23.755   6.450
 8673POPC   D2A68164  33.811  23.664   6.750
 8673POPC   C3A68165  33.769  23.702   7.050
 8673POPC   C4A68166  33.810  23.753   7.350
 8673POPC   C1B68167  33.721  23.911   6.450
 8673POPC   C2B68168  33.648  23.917   6.750
 8673POPC   C3B68169  33.718  23.927   7.050
 8673POPC   C4B68170  33.724  23.929   7.350
 8674POPC   NC368171  16.686  43.148   5.550
 8674POPC   PO468172  16.750  43.156   5.850
 8674POPC   GL168173  16.708  43.065   6.150
 8674POPC   GL268174  16.699  42.988   6.150
 8674POPC   C1A68175  16.739  43.073   6.450
 8674POPC   D2A68176  16.713  43.102   6.750
 8674POPC   C3A68177  16.751  43.062   7.050
 8674POPC   C4A68178  16.732  43.076   7.350
 8674POPC   C1B68179  16.609  42.861   6.450
 8674POPC   C2B68180  16.620  42.893   6.750
 8674POPC   C3B68181  16.587  42.865   7.050
 8674POPC   C4B68182  16.655  42.907   7.350
 8675POPC   NC368183  36.082  15.925   5.550
 8675POPC   PO468184  36.090  15.946   5.850
 8675POPC   GL168185  36.141  15.923   6.150
 8675POPC   GL268186  36.069  15.833   6.150
 8675POPC   C1A68187  36.079  15.960   6.450
 8675POPC   D2A68188  36.121  15.920   6.750
 8675POPC   C3A68189  36.088  15.944   7.050
 8675POPC   C4A68190  36.094  15.940   7.350
 8675POPC   C1B68191  35.972  15.724   6.450
 8675POPC   C2B68192  35.975  15.708   6.750
 8675POPC   C3B68193  36.029  15.747   7.050
 8675POPC   C4B68194  36.000  15.710   7.350
 8676POPC   NC368195  20.591  11.310   5.550
 8676POPC   PO468196  20.596  11.292   5.850
 8676POPC   GL168197  20.642  11.298   6.150
 8676POPC   GL268198  20.605  11.446   6.150
 8676POPC   C1A68199  20.637  11.346   6.450
 8676POPC   D2A68200  20.630  11.268   6.750
 8676POPC   C3A68201  20.565  11.312   7.050
 8676POPC   C4A68202  20.569  11.333   7.350
 8676POPC   C1B68203  20.660  11.529   6.450
 8676POPC   C2B68204  20.639  11.558   6.750
 8676POPC   C3B68205  20.624  11.512   7.050
 8676POPC   C4B68206  20.628  11.596   7.350
 8677POPC   NC368207  39.231  22.943   5.550
 8677POPC   PO468208  39.198  22.892   5.850
 8677POPC   GL168209  39.276  22.896   6.150
 8677POPC   GL268210  39.360  22.938   6.150
 8677POPC   C1A68211  39.194  22.951   6.450
 8677POPC   D2A68212  39.226  22.902   6.750
 8677POPC   C3A68213  39.250  22.953   7.050
 8677POPC   C4A68214  39.275  22.912   7.350
 8677POPC   C1B68215  39.510  22.928   6.450
 8677POPC   C2B68216  39.526  22.945   6.750
 8677POPC   C3B68217  39.468  22.994   7.050
 8677POPC   C4B68218  39.454  22.926   7.350
 8678POPC   NC368219   3.542   7.411   5.550
 8678POPC   PO468220   3.565   7.430   5.850
 8678POPC   GL168221   3.492   7.466   6.150
 8678POPC   GL268222   3.536   7.524   6.150
 8678POPC   C1A68223   3.538   7.392   6.450
 8678POPC   D2A68224   3.560   7.449   6.750
 8678POPC   C3A68225   3.517   7.435   7.050
 8678POPC   C4A68226   3.515   7.460   7.350
 8678POPC   C1B68227   3.501   7.681   6.450
 8678POPC   C2B68228   3.530   7.708   6.750
 8678POPC   C3B68229   3.563   7.645   7.050
 8678POPC   C4B68230   3.524   7.659   7.350
 8679POPC   NC368231  43.901  28.379   5.550
 8679POPC   PO468232  43.913  28.373   5.850
 8679POPC   GL168233  43.856  28.403   6.150
 8679POPC   GL268234  43.849  28.225   6.150
 8679POPC   C1A68235  43.889  28.396   6.450
 8679POPC   D2A68236  43.903  28.361   6.750
 8679POPC   C3A68237  43.858  28.380   7.050
 8679POPC   C4A68238  43.909  28.385   7.350
 8679POPC   C1B68239  43.770  28.202   6.450
 8679POPC   C2B68240  43.760  28.151   6.750
 8679POPC   C3B68241  43.708  28.150   7.050
 8679POPC   C4B68242  43.741  28.139   7.350
 8680POPC   NC368243   8.180  14.448   5.550
 8680POPC   PO468244   8.195  14.442   5.850
 8680POPC   GL168245   8.165  14.412   6.150
 8680POPC   GL268246   8.083  14.397   6.150
 8680POPC   C1A68247   8.176  14.447   6.450
 8680POPC   D2A68248   8.212  14.379   6.750
 8680POPC   C3A68249   8.231  14.373   7.050
 8680POPC   C4A68250   8.151  14.405   7.350
 8680POPC   C1B68251   7.929  14.322   6.450
 8680POPC   C2B68252   7.944  14.339   6.750
 8680POPC   C3B68253   7.963  14.336   7.050
 8680POPC   C4B68254   7.949  14.401   7.350
 8681POPC   NC368255  20.651   8.994   5.550
 8681POPC   PO468256  20.623   9.012   5.850
 8681POPC   GL168257  20.590   8.938   6.150
 8681POPC   GL268258  20.473   9.036   6.150
 8681POPC   C1A68259  20.623   8.986   6.450
 8681POPC   D2A68260  20.587   8.999   6.750
 8681POPC   C3A68261  20.634   8.992   7.050
 8681POPC   C4A68262  20.591   8.930   7.350
 8681POPC   C1B68263  20.418   9.092   6.450
 8681POPC   C2B68264  20.358   9.063   6.750
 8681POPC   C3B68265  20.404   9.108   7.050
 8681POPC   C4B68266  20.396   9.052   7.350
 8682POPC   NC368267  16.720  16.766   5.550
 8682POPC   PO468268  16.715  16.731   5.850
 8682POPC   GL168269  16.766  16.703   6.150
 8682POPC   GL268270  16.685  16.584   6.150
 8682POPC   C1A68271  16.719  16.688   6.450
 8682POPC   D2A68272  16.686  16.750   6.750
 8682POPC   C3A68273  16.711  16.779   7.050
 8682POPC   C4A68274  16.728  16.756   7.350
 8682POPC   C1B68275  16.705  16.486   6.450
 8682POPC   C2B68276  16.682  16.461   6.750
 8682POPC   C3B68277  16.696  16.525   7.050
 8682POPC   C4B68278  16.645  16.530   7.350
 8683POPC   NC368279  36.104  19.802   5.550
 8683POPC   PO468280  36.154  19.869   5.850
 8683POPC   GL168281  36.157  19.834   6.150
 8683POPC   GL268282  36.019  19.806   6.150
 8683POPC   C1A68283  36.168  19.802   6.450
 8683POPC   D2A68284  36.080  19.872   6.750
 8683POPC   C3A68285  36.119  19.842   7.050
 8683POPC   C4A68286  36.111  19.850   7.350
 8683POPC   C1B68287  35.839  19.876   6.450
 8683POPC   C2B68288  35.830  19.824   6.750
 8683POPC   C3B68289  35.872  19.831   7.050
 8683POPC   C4B68290  35.867  19.842   7.350
 8684POPC   NC368291  11.258   1.222   5.550
 8684POPC   PO468292  11.294   1.259   5.850
 8684POPC   GL168293  11.304   1.242   6.150
 8684POPC   GL268294  11.313   1.091   6.150
 8684POPC   C1A68295  11.287   1.221   6.450
 8684POPC   D2A68296  11.341   1.208   6.750
 8684POPC   C3A68297  11.269   1.208   7.050
 8684POPC   C4A68298  11.281   1.165   7.350
 8684POPC   C1B68299  11.352   0.963   6.450
 8684POPC   C2B68300  11.360   0.943   6.750
 8684POPC   C3B68301  11.349   0.984   7.050
 8684POPC   C4B68302  11.353   0.973   7.350
 8685POPC   NC368303  29.118  10.479   5.550
 8685POPC   PO468304  29.122  10.539   5.850
 8685POPC   GL168305  29.120  10.491   6.150
 8685POPC   GL268306  29.294  10.459   6.150
 8685POPC   C1A68307  29.115  10.571   6.450
 8685POPC   D2A68308  29.175  10.532   6.750
 8685POPC   C3A68309  29.097  10.523   7.050
 8685POPC   C4A68310  29.126  10.566   7.350
 8685POPC   C1B68311  29.319  10.416   6.450
 8685POPC   C2B68312  29.410  10.392   6.750
 8685POPC   C3B68313  29.334  10.445   7.050
 8685POPC   C4B68314  29.399  10.424   7.350
 8686POPC   NC368315  25.291  11.301   5.550
 8686POPC   PO468316  25.273  11.270   5.850
 8686POPC   GL168317  25.242  11.307   6.150
 8686POPC   GL268318  25.334  11.160   6.150
 8686POPC   C1A68319  25.257  11.322   6.450
 8686POPC   D2A68320  25.306  11.296   6.750
 8686POPC   C3A68321  25.245  11.287   7.050
 8686POPC   C4A68322  25.218  11.322   7.350
 8686POPC   C1B68323  25.341  11.075   6.450
 8686POPC   C2B68324  25.420  11.122   6.750
 8686POPC   C3B68325  25.363  11.129   7.050
 8686POPC   C4B68326  25.400  11.038   7.350
 8687POPC   NC368327  29.945   5.908   5.550
 8687POPC   PO468328  29.877   5.828   5.850
 8687POPC   GL168329  29.883   5.874   6.150
 8687POPC   GL268330  30.031   5.906   6.150
 8687POPC   C1A68331  29.936   5.907   6.450
 8687POPC   D2A68332  29.900   5.915   6.750
 8687POPC   C3A68333  29.880   5.819   7.050
 8687POPC   C4A68334  29.886   5.828   7.350
 8687POPC   C1B68335  30.097   6.006   6.450
 8687POPC   C2B68336  30.146   5.954   6.750
 8687POPC   C3B68337  30.158   5.988   7.050
 8687POPC   C4B68338  30.123   6.023   7.350
 8688POPC   NC368339  21.369  32.999   5.550
 8688POPC   PO468340  21.425  33.016   5.850
 8688POPC   GL168341  21.433  32.998   6.150
 8688POPC   GL268342  21.352  33.147   6.150
 8688POPC   C1A68343  21.416  33.027   6.450
 8688POPC   D2A68344  21.377  33.035   6.750
 8688POPC   C3A68345  21.376  33.000   7.050
 8688POPC   C4A68346  21.410  32.996   7.350
 8688POPC   C1B68347  21.437  33.276   6.450
 8688POPC   C2B68348  21.371  33.266   6.750
 8688POPC   C3B68349  21.346  33.232   7.050
 8688POPC   C4B68350  21.429  33.285   7.350
 8689POPC   NC368351  15.149  27.584   5.550
 8689POPC   PO468352  15.169  27.548   5.850
 8689POPC   GL168353  15.145  27.642   6.150
 8689POPC   GL268354  15.325  27.625   6.150
 8689POPC   C1A68355  15.205  27.561   6.450
 8689POPC   D2A68356  15.170  27.598   6.750
 8689POPC   C3A68357  15.145  27.608   7.050
 8689POPC   C4A68358  15.165  27.559   7.350
 8689POPC   C1B68359  15.430  27.675   6.450
 8689POPC   C2B68360  15.405  27.671   6.750
 8689POPC   C3B68361  15.409  27.743   7.050
 8689POPC   C4B68362  15.354  27.721   7.350
 8690POPC   NC368363  31.503  22.942   5.550
 8690POPC   PO468364  31.460  22.957   5.850
 8690POPC   GL168365  31.522  22.899   6.150
 8690POPC   GL268366  31.555  22.827   6.150
 8690POPC   C1A68367  31.474  22.908   6.450
 8690POPC   D2A68368  31.502  22.894   6.750
 8690POPC   C3A68369  31.497  22.940   7.050
 8690POPC   C4A68370  31.515  22.982   7.350
 8690POPC   C1B68371  31.658  22.720   6.450
 8690POPC   C2B68372  31.667  22.715   6.750
 8690POPC   C3B68373  31.645  22.725   7.050
 8690POPC   C4B68374  31.618  22.784   7.350
 8691POPC   NC368375   1.182  16.689   5.550
 8691POPC   PO468376   1.253  16.688   5.850
 8691POPC   GL168377   1.245  16.771   6.150
 8691POPC   GL268378   1.060  16.696   6.150
 8691POPC   C1A68379   1.182  16.716   6.450
 8691POPC   D2A68380   1.242  16.743   6.750
 8691POPC   C3A68381   1.219  16.777   7.050
 8691POPC   C4A68382   1.207  16.757   7.350
 8691POPC   C1B68383   1.002  16.708   6.450
 8691POPC   C2B68384   0.948  16.764   6.750
 8691POPC   C3B68385   0.921  16.764   7.050
 8691POPC   C4B68386   0.980  16.714   7.350
 8692POPC   NC368387  22.954   0.442   5.550
 8692POPC   PO468388  22.961   0.404   5.850
 8692POPC   GL168389  22.964   0.410   6.150
 8692POPC   GL268390  23.063   0.518   6.150
 8692POPC   C1A68391  22.946   0.418   6.450
 8692POPC   D2A68392  22.945   0.437   6.750
 8692POPC   C3A68393  22.958   0.398   7.050
 8692POPC   C4A68394  22.948   0.402   7.350
 8692POPC   C1B68395  23.201   0.567   6.450
 8692POPC   C2B68396  23.167   0.494   6.750
 8692POPC   C3B68397  23.156   0.546   7.050
 8692POPC   C4B68398  23.148   0.486   7.350
 8693POPC   NC368399  15.978  32.271   5.550
 8693POPC   PO468400  15.956  32.221   5.850
 8693POPC   GL168401  16.003  32.242   6.150
 8693POPC   GL268402  15.935  32.089   6.150
 8693POPC   C1A68403  15.978  32.210   6.450
 8693POPC   D2A68404  15.958  32.263   6.750
 8693POPC   C3A68405  16.005  32.203   7.050
 8693POPC   C4A68406  15.946  32.275   7.350
 8693POPC   C1B68407  15.998  31.976   6.450
 8693POPC   C2B68408  16.003  31.973   6.750
 8693POPC   C3B68409  16.019  32.050   7.050
 8693POPC   C4B68410  15.950  31.958   7.350
 8694POPC   NC368411  18.307  36.175   5.550
 8694POPC   PO468412  18.326  36.138   5.850
 8694POPC   GL168413  18.272  36.149   6.150
 8694POPC   GL268414  18.161  36.179   6.150
 8694POPC   C1A68415  18.260  36.122   6.450
 8694POPC   D2A68416  18.303  36.169   6.750
 8694POPC   C3A68417  18.312  36.123   7.050
 8694POPC   C4A68418  18.313  36.138   7.350
 8694POPC   C1B68419  18.077  36.121   6.450
 8694POPC   C2B68420  18.033  36.125   6.750
 8694POPC   C3B68421  18.003  36.103   7.050
 8694POPC   C4B68422  18.051  36.122   7.350
 8695POPC   NC368423  27.576  24.488   5.550
 8695POPC   PO468424  27.551  24.473   5.850
 8695POPC   GL168425  27.581  24.539   6.150
 8695POPC   GL268426  27.743  24.604   6.150
 8695POPC   C1A68427  27.596  24.458   6.450
 8695POPC   D2A68428  27.588  24.514   6.750
 8695POPC   C3A68429  27.546  24.448   7.050
 8695POPC   C4A68430  27.546  24.497   7.350
 8695POPC   C1B68431  27.823  24.574   6.450
 8695POPC   C2B68432  27.793  24.633   6.750
 8695POPC   C3B68433  27.842  24.640   7.050
 8695POPC   C4B68434  27.769  24.594   7.350
 8696POPC   NC368435  28.392  33.827   5.550
 8696POPC   PO468436  28.391  33.756   5.850
 8696POPC   GL168437  28.379  33.773   6.150
 8696POPC   GL268438  28.275  33.935   6.150
 8696POPC   C1A68439  28.340  33.788   6.450
 8696POPC   D2A68440  28.394  33.754   6.750
 8696POPC   C3A68441  28.410  33.830   7.050
 8696POPC   C4A68442  28.355  33.795   7.350
 8696POPC   C1B68443  28.240  33.931   6.450
 8696POPC   C2B68444  28.219  33.959   6.750
 8696POPC   C3B68445  28.221  33.952   7.050
 8696POPC   C4B68446  28.186  33.999   7.350
 8697POPC   NC368447   9.763   1.991   5.550
 8697POPC   PO468448   9.722   2.036   5.850
 8697POPC   GL168449   9.766   2.023   6.150
 8697POPC   GL268450   9.630   2.033   6.150
 8697POPC   C1A68451   9.745   2.022   6.450
 8697POPC   D2A68452   9.744   2.030   6.750
 8697POPC   C3A68453   9.698   1.991   7.050
 8697POPC   C4A68454   9.792   2.030   7.350
 8697POPC   C1B68455   9.505   2.125   6.450
 8697POPC   C2B68456   9.568   2.064   6.750
 8697POPC   C3B68457   9.517   2.066   7.050
 8697POPC   C4B68458   9.551   2.092   7.350
 8698POPC   NC368459  43.911  36.141   5.550
 8698POPC   PO468460  43.905  36.127   5.850
 8698POPC   GL168461  43.898  36.101   6.150
 8698POPC   GL268462  43.958  36.154   6.150
 8698POPC   C1A68463  43.917  36.081   6.450
 8698POPC   D2A68464  43.903  36.127   6.750
 8698POPC   C3A68465  43.884  36.087   7.050
 8698POPC   C4A68466  43.873  36.092   7.350
 8698POPC   C1B68467  44.167  36.214   6.450
 8698POPC   C2B68468  44.109  36.197   6.750
 8698POPC   C3B68469  44.086  36.259   7.050
 8698POPC   C4B68470  44.088  36.183   7.350
 8699POPC   NC368471  20.578  27.581   5.550
 8699POPC   PO468472  20.654  27.566   5.850
 8699POPC   GL168473  20.646  27.546   6.150
 8699POPC   GL268474  20.712  27.541   6.150
 8699POPC   C1A68475  20.578  27.640   6.450
 8699POPC   D2A68476  20.630  27.590   6.750
 8699POPC   C3A68477  20.570  27.548   7.050
 8699POPC   C4A68478  20.593  27.573   7.350
 8699POPC   C1B68479  20.773  27.453   6.450
 8699POPC   C2B68480  20.788  27.405   6.750
 8699POPC   C3B68481  20.729  27.427   7.050
 8699POPC   C4B68482  20.741  27.406   7.350
 8700POPC   NC368483  16.685   4.353   5.550
 8700POPC   PO468484  16.698   4.285   5.850
 8700POPC   GL168485  16.707   4.350   6.150
 8700POPC   GL268486  16.878   4.340   6.150
 8700POPC   C1A68487  16.717   4.293   6.450
 8700POPC   D2A68488  16.723   4.285   6.750
 8700POPC   C3A68489  16.757   4.321   7.050
 8700POPC   C4A68490  16.751   4.298   7.350
 8700POPC   C1B68491  16.999   4.317   6.450
 8700POPC   C2B68492  16.978   4.327   6.750
 8700POPC   C3B68493  16.934   4.295   7.050
 8700POPC   C4B68494  17.019   4.267   7.350
 8701POPC   NC368495  25.999  19.086   5.550
 8701POPC   PO468496  26.085  19.070   5.850
 8701POPC   GL168497  25.994  19.050   6.150
 8701POPC   GL268498  26.064  18.914   6.150
 8701POPC   C1A68499  26.025  19.093   6.450
 8701POPC   D2A68500  26.082  19.074   6.750
 8701POPC   C3A68501  26.049  19.085   7.050
 8701POPC   C4A68502  26.063  19.105   7.350
 8701POPC   C1B68503  26.150  18.823   6.450
 8701POPC   C2B68504  26.121  18.854   6.750
 8701POPC   C3B68505  26.132  18.783   7.050
 8701POPC   C4B68506  26.130  18.847   7.350
 8702POPC   NC368507  22.950  19.835   5.550
 8702POPC   PO468508  22.984  19.854   5.850
 8702POPC   GL168509  22.915  19.794   6.150
 8702POPC   GL268510  23.019  19.735   6.150
 8702POPC   C1A68511  22.944  19.796   6.450
 8702POPC   D2A68512  22.890  19.873   6.750
 8702POPC   C3A68513  22.928  19.818   7.050
 8702POPC   C4A68514  22.954  19.835   7.350
 8702POPC   C1B68515  23.044  19.670   6.450
 8702POPC   C2B68516  23.112  19.658   6.750
 8702POPC   C3B68517  23.070  19.603   7.050
 8702POPC   C4B68518  23.124  19.680   7.350
 8703POPC   NC368519  22.888  43.133   5.550
 8703POPC   PO468520  22.962  43.086   5.850
 8703POPC   GL168521  22.948  43.088   6.150
 8703POPC   GL268522  22.806  43.171   6.150
 8703POPC   C1A68523  22.954  43.133   6.450
 8703POPC   D2A68524  22.987  43.116   6.750
 8703POPC   C3A68525  22.918  43.113   7.050
 8703POPC   C4A68526  22.925  43.080   7.350
 8703POPC   C1B68527  22.740  43.229   6.450
 8703POPC   C2B68528  22.747  43.290   6.750
 8703POPC   C3B68529  22.738  43.265   7.050
 8703POPC   C4B68530  22.748  43.309   7.350
 8704POPC   NC368531  14.408  12.066   5.550
 8704POPC   PO468532  14.397  12.082   5.850
 8704POPC   GL168533  14.384  12.072   6.150
 8704POPC   GL268534  14.347  12.012   6.150
 8704POPC   C1A68535  14.425  12.057   6.450
 8704POPC   D2A68536  14.387  12.120   6.750
 8704POPC   C3A68537  14.433  12.099   7.050
 8704POPC   C4A68538  14.419  12.040   7.350
 8704POPC   C1B68539  14.211  11.924   6.450
 8704POPC   C2B68540  14.286  11.857   6.750
 8704POPC   C3B68541  14.260  11.918   7.050
 8704POPC   C4B68542  14.296  11.890   7.350
 8705POPC   NC368543   8.200  36.919   5.550
 8705POPC   PO468544   8.206  36.865   5.850
 8705POPC   GL168545   8.191  36.860   6.150
 8705POPC   GL268546   8.058  36.965   6.150
 8705POPC   C1A68547   8.205  36.911   6.450
 8705POPC   D2A68548   8.164  36.898   6.750
 8705POPC   C3A68549   8.232  36.894   7.050
 8705POPC   C4A68550   8.190  36.927   7.350
 8705POPC   C1B68551   7.936  37.052   6.450
 8705POPC   C2B68552   7.979  37.022   6.750
 8705POPC   C3B68553   7.957  36.983   7.050
 8705POPC   C4B68554   7.998  36.995   7.350
 8706POPC   NC368555  32.283  43.885   5.550
 8706POPC   PO468556  32.224  43.848   5.850
 8706POPC   GL168557  32.260  43.869   6.150
 8706POPC   GL268558  32.143  43.860   6.150
 8706POPC   C1A68559  32.226  43.888   6.450
 8706POPC   D2A68560  32.261  43.850   6.750
 8706POPC   C3A68561  32.210  43.868   7.050
 8706POPC   C4A68562  32.246  43.872   7.350
 8706POPC   C1B68563  32.063  43.743   6.450
 8706POPC   C2B68564  32.088  43.701   6.750
 8706POPC   C3B68565  32.067  43.694   7.050
 8706POPC   C4B68566  32.081  43.698   7.350
 8707POPC   NC368567  27.612  21.363   5.550
 8707POPC   PO468568  27.583  21.404   5.850
 8707POPC   GL168569  27.611  21.432   6.150
 8707POPC   GL268570  27.464  21.356   6.150
 8707POPC   C1A68571  27.596  21.404   6.450
 8707POPC   D2A68572  27.544  21.358   6.750
 8707POPC   C3A68573  27.587  21.366   7.050
 8707POPC   C4A68574  27.589  21.360   7.350
 8707POPC   C1B68575  27.330  21.290   6.450
 8707POPC   C2B68576  27.380  21.308   6.750
 8707POPC   C3B68577  27.329  21.237   7.050
 8707POPC   C4B68578  27.329  21.293   7.350
 8708POPC   NC368579   6.682  41.523   5.550
 8708POPC   PO468580   6.653  41.561   5.850
 8708POPC   GL168581   6.609  41.567   6.150
 8708POPC   GL268582   6.502  41.531   6.150
 8708POPC   C1A68583   6.649  41.598   6.450
 8708POPC   D2A68584   6.638  41.591   6.750
 8708POPC   C3A68585   6.668  41.515   7.050
 8708POPC   C4A68586   6.598  41.602   7.350
 8708POPC   C1B68587   6.379  41.464   6.450
 8708POPC   C2B68588   6.408  41.516   6.750
 8708POPC   C3B68589   6.385  41.504   7.050
 8708POPC   C4B68590   6.369  41.490   7.350
 8709POPC   NC368591  44.688  33.034   5.550
 8709POPC   PO468592  44.704  33.074   5.850
 8709POPC   GL168593  44.637  33.043   6.150
 8709POPC   GL268594  44.524  33.119   6.150
 8709POPC   C1A68595  44.626  33.059   6.450
 8709POPC   D2A68596  44.634  33.026   6.750
 8709POPC   C3A68597  44.692  33.058   7.050
 8709POPC   C4A68598  44.626  33.045   7.350
 8709POPC   C1B68599  44.440  33.161   6.450
 8709POPC   C2B68600  44.488  33.219   6.750
 8709POPC   C3B68601  44.523  33.174   7.050
 8709POPC   C4B68602  44.467  33.194   7.350
 8710POPC   NC368603  10.499  15.154   5.550
 8710POPC   PO468604  10.558  15.135   5.850
 8710POPC   GL168605  10.558  15.159   6.150
 8710POPC   GL268606  10.602  15.226   6.150
 8710POPC   C1A68607  10.538  15.165   6.450
 8710POPC   D2A68608  10.479  15.217   6.750
 8710POPC   C3A68609  10.482  15.205   7.050
 8710POPC   C4A68610  10.519  15.130   7.350
 8710POPC   C1B68611  10.700  15.362   6.450
 8710POPC   C2B68612  10.721  15.381   6.750
 8710POPC   C3B68613  10.722  15.305   7.050
 8710POPC   C4B68614  10.672  15.305   7.350
 8711POPC   NC368615  16.714  12.038   5.550
 8711POPC   PO468616  16.723  12.033   5.850
 8711POPC   GL168617  16.692  12.093   6.150
 8711POPC   GL268618  16.670  11.913   6.150
 8711POPC   C1A68619  16.775  12.051   6.450
 8711POPC   D2A68620  16.774  12.117   6.750
 8711POPC   C3A68621  16.710  12.078   7.050
 8711POPC   C4A68622  16.746  12.090   7.350
 8711POPC   C1B68623  16.695  11.846   6.450
 8711POPC   C2B68624  16.662  11.878   6.750
 8711POPC   C3B68625  16.724  11.835   7.050
 8711POPC   C4B68626  16.650  11.798   7.350
 8712POPC   NC368627  32.278   7.401   5.550
 8712POPC   PO468628  32.259   7.468   5.850
 8712POPC   GL168629  32.232   7.451   6.150
 8712POPC   GL268630  32.089   7.371   6.150
 8712POPC   C1A68631  32.202   7.434   6.450
 8712POPC   D2A68632  32.225   7.420   6.750
 8712POPC   C3A68633  32.284   7.443   7.050
 8712POPC   C4A68634  32.291   7.379   7.350
 8712POPC   C1B68635  31.971   7.434   6.450
 8712POPC   C2B68636  32.004   7.394   6.750
 8712POPC   C3B68637  31.963   7.409   7.050
 8712POPC   C4B68638  31.987   7.400   7.350
 8713POPC   NC368639   9.762  26.798   5.550
 8713POPC   PO468640   9.758  26.867   5.850
 8713POPC   GL168641   9.749  26.772   6.150
 8713POPC   GL268642   9.643  26.682   6.150
 8713POPC   C1A68643   9.794  26.814   6.450
 8713POPC   D2A68644   9.709  26.786   6.750
 8713POPC   C3A68645   9.756  26.801   7.050
 8713POPC   C4A68646   9.732  26.814   7.350
 8713POPC   C1B68647   9.575  26.627   6.450
 8713POPC   C2B68648   9.608  26.580   6.750
 8713POPC   C3B68649   9.623  26.646   7.050
 8713POPC   C4B68650   9.576  26.611   7.350
 8714POPC   NC368651  26.053  33.048   5.550
 8714POPC   PO468652  26.013  32.992   5.850
 8714POPC   GL168653  26.011  33.008   6.150
 8714POPC   GL268654  26.075  32.918   6.150
 8714POPC   C1A68655  26.024  32.983   6.450
 8714POPC   D2A68656  26.086  33.054   6.750
 8714POPC   C3A68657  26.005  33.002   7.050
 8714POPC   C4A68658  26.023  32.977   7.350
 8714POPC   C1B68659  26.075  32.744   6.450
 8714POPC   C2B68660  26.110  32.785   6.750
 8714POPC   C3B68661  26.064  32.794   7.050
 8714POPC   C4B68662  26.109  32.784   7.350
 8715POPC   NC368663   3.510   5.836   5.550
 8715POPC   PO468664   3.533   5.883   5.850
 8715POPC   GL168665   3.554   5.904   6.150
 8715POPC   GL268666   3.634   5.941   6.150
 8715POPC   C1A68667   3.558   5.852   6.450
 8715POPC   D2A68668   3.550   5.890   6.750
 8715POPC   C3A68669   3.527   5.826   7.050
 8715POPC   C4A68670   3.543   5.889   7.350
 8715POPC   C1B68671   3.787   5.987   6.450
 8715POPC   C2B68672   3.804   6.024   6.750
 8715POPC   C3B68673   3.747   5.947   7.050
 8715POPC   C4B68674   3.811   5.974   7.350
 8716POPC   NC368675  22.140   9.013   5.550
 8716POPC   PO468676  22.172   9.014   5.850
 8716POPC   GL168677  22.183   8.929   6.150
 8716POPC   GL268678  21.995   8.974   6.150
 8716POPC   C1A68679  22.165   8.937   6.450
 8716POPC   D2A68680  22.175   9.022   6.750
 8716POPC   C3A68681  22.189   8.927   7.050
 8716POPC   C4A68682  22.161   8.946   7.350
 8716POPC   C1B68683  21.924   8.968   6.450
 8716POPC   C2B68684  21.920   8.959   6.750
 8716POPC   C3B68685  21.949   8.908   7.050
 8716POPC   C4B68686  21.938   8.964   7.350
 8717POPC   NC368687  20.569  32.253   5.550
 8717POPC   PO468688  20.637  32.207   5.850
 8717POPC   GL168689  20.576  32.285   6.150
 8717POPC   GL268690  20.619  32.151   6.150
 8717POPC   C1A68691  20.568  32.274   6.450
 8717POPC   D2A68692  20.563  32.252   6.750
 8717POPC   C3A68693  20.614  32.268   7.050
 8717POPC   C4A68694  20.636  32.262   7.350
 8717POPC   C1B68695  20.766  32.045   6.450
 8717POPC   C2B68696  20.746  31.993   6.750
 8717POPC   C3B68697  20.756  32.008   7.050
 8717POPC   C4B68698  20.716  31.981   7.350
 8718POPC   NC368699  19.860  29.876   5.550
 8718POPC   PO468700  19.816  29.928   5.850
 8718POPC   GL168701  19.877  29.912   6.150
 8718POPC   GL268702  19.998  29.914   6.150
 8718POPC   C1A68703  19.816  29.931   6.450
 8718POPC   D2A68704  19.854  29.896   6.750
 8718POPC   C3A68705  19.806  29.941   7.050
 8718POPC   C4A68706  19.805  29.965   7.350
 8718POPC   C1B68707  20.040  29.800   6.450
 8718POPC   C2B68708  20.111  29.861   6.750
 8718POPC   C3B68709  20.049  29.839   7.050
 8718POPC   C4B68710  20.069  29.892   7.350
 8719POPC   NC368711  41.587  33.010   5.550
 8719POPC   PO468712  41.576  33.021   5.850
 8719POPC   GL168713  41.585  32.987   6.150
 8719POPC   GL268714  41.501  32.935   6.150
 8719POPC   C1A68715  41.514  33.030   6.450
 8719POPC   D2A68716  41.539  32.991   6.750
 8719POPC   C3A68717  41.581  33.052   7.050
 8719POPC   C4A68718  41.566  33.054   7.350
 8719POPC   C1B68719  41.535  32.809   6.450
 8719POPC   C2B68720  41.550  32.789   6.750
 8719POPC   C3B68721  41.474  32.750   7.050
 8719POPC   C4B68722  41.482  32.768   7.350
 8720POPC   NC368723  29.927  22.917   5.550
 8720POPC   PO468724  29.969  22.948   5.850
 8720POPC   GL168725  29.903  22.944   6.150
 8720POPC   GL268726  29.973  22.886   6.150
 8720POPC   C1A68727  29.952  22.938   6.450
 8720POPC   D2A68728  29.885  22.974   6.750
 8720POPC   C3A68729  29.953  22.958   7.050
 8720POPC   C4A68730  29.886  22.955   7.350
 8720POPC   C1B68731  30.068  22.749   6.450
 8720POPC   C2B68732  30.105  22.731   6.750
 8720POPC   C3B68733  30.065  22.746   7.050
 8720POPC   C4B68734  30.131  22.808   7.350
 8721POPC   NC368735   1.994  19.046   5.550
 8721POPC   PO468736   1.968  19.010   5.850
 8721POPC   GL168737   2.001  19.089   6.150
 8721POPC   GL268738   1.857  19.059   6.150
 8721POPC   C1A68739   1.992  19.047   6.450
 8721POPC   D2A68740   1.992  19.023   6.750
 8721POPC   C3A68741   1.985  19.010   7.050
 8721POPC   C4A68742   1.972  19.089   7.350
 8721POPC   C1B68743   1.712  19.118   6.450
 8721POPC   C2B68744   1.756  19.091   6.750
 8721POPC   C3B68745   1.789  19.086   7.050
 8721POPC   C4B68746   1.762  19.109   7.350
 8722POPC   NC368747  39.960   5.860   5.550
 8722POPC   PO468748  39.989   5.858   5.850
 8722POPC   GL168749  40.011   5.863   6.150
 8722POPC   GL268750  39.929   5.792   6.150
 8722POPC   C1A68751  40.019   5.873   6.450
 8722POPC   D2A68752  40.015   5.856   6.750
 8722POPC   C3A68753  39.982   5.912   7.050
 8722POPC   C4A68754  40.036   5.840   7.350
 8722POPC   C1B68755  39.855   5.619   6.450
 8722POPC   C2B68756  39.865   5.684   6.750
 8722POPC   C3B68757  39.825   5.679   7.050
 8722POPC   C4B68758  39.870   5.667   7.350
 8723POPC   NC368759  31.432  39.257   5.550
 8723POPC   PO468760  31.480  39.212   5.850
 8723POPC   GL168761  31.463  39.237   6.150
 8723POPC   GL268762  31.397  39.100   6.150
 8723POPC   C1A68763  31.490  39.244   6.450
 8723POPC   D2A68764  31.440  39.281   6.750
 8723POPC   C3A68765  31.437  39.256   7.050
 8723POPC   C4A68766  31.471  39.197   7.350
 8723POPC   C1B68767  31.382  39.038   6.450
 8723POPC   C2B68768  31.412  39.030   6.750
 8723POPC   C3B68769  31.367  39.017   7.050
 8723POPC   C4B68770  31.435  39.038   7.350
 8724POPC   NC368771  22.927   5.068   5.550
 8724POPC   PO468772  22.951   5.050   5.850
 8724POPC   GL168773  22.923   5.049   6.150
 8724POPC   GL268774  22.941   5.241   6.150
 8724POPC   C1A68775  22.976   5.074   6.450
 8724POPC   D2A68776  22.950   5.122   6.750
 8724POPC   C3A68777  22.932   5.101   7.050
 8724POPC   C4A68778  22.895   5.049   7.350
 8724POPC   C1B68779  22.939   5.371   6.450
 8724POPC   C2B68780  22.947   5.295   6.750
 8724POPC   C3B68781  22.899   5.299   7.050
 8724POPC   C4B68782  22.971   5.350   7.350
 8725POPC   NC368783  40.752   9.726   5.550
 8725POPC   PO468784  40.759   9.721   5.850
 8725POPC   GL168785  40.757   9.784   6.150
 8725POPC   GL268786  40.898   9.750   6.150
 8725POPC   C1A68787  40.750   9.797   6.450
 8725POPC   D2A68788  40.787   9.756   6.750
 8725POPC   C3A68789  40.814   9.714   7.050
 8725POPC   C4A68790  40.816   9.719   7.350
 8725POPC   C1B68791  41.003   9.713   6.450
 8725POPC   C2B68792  40.983   9.731   6.750
 8725POPC   C3B68793  40.996   9.766   7.050
 8725POPC   C4B68794  41.033   9.727   7.350
 8726POPC   NC368795  26.056  42.354   5.550
 8726POPC   PO468796  26.063  42.294   5.850
 8726POPC   GL168797  26.072  42.328   6.150
 8726POPC   GL268798  26.156  42.209   6.150
 8726POPC   C1A68799  26.028  42.360   6.450
 8726POPC   D2A68800  25.994  42.344   6.750
 8726POPC   C3A68801  25.995  42.319   7.050
 8726POPC   C4A68802  26.050  42.306   7.350
 8726POPC   C1B68803  26.249  42.175   6.450
 8726POPC   C2B68804  26.220  42.123   6.750
 8726POPC   C3B68805  26.258  42.131   7.050
 8726POPC   C4B68806  26.206  42.203   7.350
 8727POPC   NC368807   1.963  15.970   5.550
 8727POPC   PO468808   2.039  15.976   5.850
 8727POPC   GL168809   1.996  15.918   6.150
 8727POPC   GL268810   2.162  15.942   6.150
 8727POPC   C1A68811   2.027  15.928   6.450
 8727POPC   D2A68812   1.982  15.999   6.750
 8727POPC   C3A68813   1.971  15.941   7.050
 8727POPC   C4A68814   2.036  15.966   7.350
 8727POPC   C1B68815   2.198  15.967   6.450
 8727POPC   C2B68816   2.275  15.958   6.750
 8727POPC   C3B68817   2.282  15.949   7.050
 8727POPC   C4B68818   2.274  15.991   7.350
 8728POPC   NC368819  31.454  38.424   5.550
 8728POPC   PO468820  31.448  38.469   5.850
 8728POPC   GL168821  31.470  38.466   6.150
 8728POPC   GL268822  31.502  38.310   6.150
 8728POPC   C1A68823  31.470  38.430   6.450
 8728POPC   D2A68824  31.482  38.461   6.750
 8728POPC   C3A68825  31.467  38.458   7.050
 8728POPC   C4A68826  31.473  38.484   7.350
 8728POPC   C1B68827  31.472  38.183   6.450
 8728POPC   C2B68828  31.463  38.192   6.750
 8728POPC   C3B68829  31.445  38.243   7.050
 8728POPC   C4B68830  31.486  38.196   7.350
 8729POPC   NC368831  15.153  32.975   5.550
 8729POPC   PO468832  15.159  33.038   5.850
 8729POPC   GL168833  15.168  33.003   6.150
 8729POPC   GL268834  15.300  33.088   6.150
 8729POPC   C1A68835  15.228  32.975   6.450
 8729POPC   D2A68836  15.159  33.066   6.750
 8729POPC   C3A68837  15.142  32.981   7.050
 8729POPC   C4A68838  15.158  33.048   7.350
 8729POPC   C1B68839  15.356  33.125   6.450
 8729POPC   C2B68840  15.376  33.109   6.750
 8729POPC   C3B68841  15.427  33.138   7.050
 8729POPC   C4B68842  15.350  33.191   7.350
 8730POPC   NC368843  29.902  15.977   5.550
 8730POPC   PO468844  29.919  16.005   5.850
 8730POPC   GL168845  29.879  15.936   6.150
 8730POPC   GL268846  30.024  16.007   6.150
 8730POPC   C1A68847  29.916  15.961   6.450
 8730POPC   D2A68848  29.924  15.916   6.750
 8730POPC   C3A68849  29.898  15.928   7.050
 8730POPC   C4A68850  29.899  15.954   7.350
 8730POPC   C1B68851  30.129  15.986   6.450
 8730POPC   C2B68852  30.127  16.020   6.750
 8730POPC   C3B68853  30.206  16.000   7.050
 8730POPC   C4B68854  30.113  16.057   7.350
 8731POPC   NC368855  39.261   5.110   5.550
 8731POPC   PO468856  39.228   5.116   5.850
 8731POPC   GL168857  39.252   5.071   6.150
 8731POPC   GL268858  39.375   5.120   6.150
 8731POPC   C1A68859  39.257   5.077   6.450
 8731POPC   D2A68860  39.208   5.057   6.750
 8731POPC   C3A68861  39.215   5.113   7.050
 8731POPC   C4A68862  39.222   5.067   7.350
 8731POPC   C1B68863  39.486   5.143   6.450
 8731POPC   C2B68864  39.460   5.094   6.750
 8731POPC   C3B68865  39.458   5.156   7.050
 8731POPC   C4B68866  39.464   5.128   7.350
 8732POPC   NC368867  43.081   3.524   5.550
 8732POPC   PO468868  43.092   3.578   5.850
 8732POPC   GL168869  43.105   3.521   6.150
 8732POPC   GL268870  43.008   3.441   6.150
 8732POPC   C1A68871  43.078   3.579   6.450
 8732POPC   D2A68872  43.089   3.549   6.750
 8732POPC   C3A68873  43.141   3.582   7.050
 8732POPC   C4A68874  43.124   3.569   7.350
 8732POPC   C1B68875  42.869   3.371   6.450
 8732POPC   C2B68876  42.881   3.392   6.750
 8732POPC   C3B68877  42.878   3.369   7.050
 8732POPC   C4B68878  42.865   3.392   7.350
 8733POPC   NC368879   2.755  41.510   5.550
 8733POPC   PO468880   2.747  41.555   5.850
 8733POPC   GL168881   2.809  41.599   6.150
 8733POPC   GL268882   2.854  41.630   6.150
 8733POPC   C1A68883   2.759  41.552   6.450
 8733POPC   D2A68884   2.793  41.545   6.750
 8733POPC   C3A68885   2.808  41.528   7.050
 8733POPC   C4A68886   2.784  41.542   7.350
 8733POPC   C1B68887   2.896  41.708   6.450
 8733POPC   C2B68888   2.914  41.751   6.750
 8733POPC   C3B68889   2.935  41.723   7.050
 8733POPC   C4B68890   2.942  41.700   7.350
 8734POPC   NC368891   5.878  15.143   5.550
 8734POPC   PO468892   5.898  15.173   5.850
 8734POPC   GL168893   5.889  15.199   6.150
 8734POPC   GL268894   5.926  15.085   6.150
 8734POPC   C1A68895   5.898  15.135   6.450
 8734POPC   D2A68896   5.898  15.199   6.750
 8734POPC   C3A68897   5.835  15.132   7.050
 8734POPC   C4A68898   5.902  15.179   7.350
 8734POPC   C1B68899   6.045  15.045   6.450
 8734POPC   C2B68900   6.054  15.034   6.750
 8734POPC   C3B68901   6.096  15.069   7.050
 8734POPC   C4B68902   6.055  15.055   7.350
 8735POPC   NC368903  24.470   0.410   5.550
 8735POPC   PO468904  24.506   0.484   5.850
 8735POPC   GL168905  24.481   0.413   6.150
 8735POPC   GL268906  24.402   0.489   6.150
 8735POPC   C1A68907  24.502   0.401   6.450
 8735POPC   D2A68908  24.504   0.423   6.750
 8735POPC   C3A68909  24.537   0.396   7.050
 8735POPC   C4A68910  24.469   0.483   7.350
 8735POPC   C1B68911  24.330   0.596   6.450
 8735POPC   C2B68912  24.366   0.592   6.750
 8735POPC   C3B68913  24.284   0.643   7.050
 8735POPC   C4B68914  24.304   0.674   7.350
 8736POPC   NC368915  33.768  29.115   5.550
 8736POPC   PO468916  33.755  29.158   5.850
 8736POPC   GL168917  33.809  29.187   6.150
 8736POPC   GL268918  33.695  29.053   6.150
 8736POPC   C1A68919  33.810  29.136   6.450
 8736POPC   D2A68920  33.786  29.105   6.750
 8736POPC   C3A68921  33.769  29.137   7.050
 8736POPC   C4A68922  33.767  29.142   7.350
 8736POPC   C1B68923  33.604  28.917   6.450
 8736POPC   C2B68924  33.593  28.930   6.750
 8736POPC   C3B68925  33.607  28.923   7.050
 8736POPC   C4B68926  33.640  28.936   7.350
 8737POPC   NC368927   7.454   7.443   5.550
 8737POPC   PO468928   7.429   7.392   5.850
 8737POPC   GL168929   7.398   7.429   6.150
 8737POPC   GL268930   7.533   7.399   6.150
 8737POPC   C1A68931   7.386   7.412   6.450
 8737POPC   D2A68932   7.438   7.459   6.750
 8737POPC   C3A68933   7.392   7.372   7.050
 8737POPC   C4A68934   7.417   7.404   7.350
 8737POPC   C1B68935   7.712   7.489   6.450
 8737POPC   C2B68936   7.711   7.422   6.750
 8737POPC   C3B68937   7.625   7.449   7.050
 8737POPC   C4B68938   7.632   7.404   7.350
 8738POPC   NC368939  14.411   5.065   5.550
 8738POPC   PO468940  14.413   5.135   5.850
 8738POPC   GL168941  14.378   5.113   6.150
 8738POPC   GL268942  14.325   5.070   6.150
 8738POPC   C1A68943  14.421   5.094   6.450
 8738POPC   D2A68944  14.431   5.095   6.750
 8738POPC   C3A68945  14.443   5.080   7.050
 8738POPC   C4A68946  14.375   5.049   7.350
 8738POPC   C1B68947  14.126   5.149   6.450
 8738POPC   C2B68948  14.129   5.154   6.750
 8738POPC   C3B68949  14.124   5.113   7.050
 8738POPC   C4B68950  14.116   5.131   7.350
 8739POPC   NC368951   4.286   9.745   5.550
 8739POPC   PO468952   4.340   9.731   5.850
 8739POPC   GL168953   4.307   9.738   6.150
 8739POPC   GL268954   4.413   9.893   6.150
 8739POPC   C1A68955   4.342   9.730   6.450
 8739POPC   D2A68956   4.338   9.750   6.750
 8739POPC   C3A68957   4.343   9.758   7.050
 8739POPC   C4A68958   4.312   9.709   7.350
 8739POPC   C1B68959   4.441   9.945   6.450
 8739POPC   C2B68960   4.375   9.965   6.750
 8739POPC   C3B68961   4.405   9.945   7.050
 8739POPC   C4B68962   4.371  10.017   7.350
 8740POPC   NC368963   5.130   8.160   5.550
 8740POPC   PO468964   5.132   8.228   5.850
 8740POPC   GL168965   5.044   8.148   6.150
 8740POPC   GL268966   5.200   8.232   6.150
 8740POPC   C1A68967   5.076   8.243   6.450
 8740POPC   D2A68968   5.136   8.211   6.750
 8740POPC   C3A68969   5.127   8.167   7.050
 8740POPC   C4A68970   5.116   8.206   7.350
 8740POPC   C1B68971   5.308   8.203   6.450
 8740POPC   C2B68972   5.340   8.176   6.750
 8740POPC   C3B68973   5.306   8.167   7.050
 8740POPC   C4B68974   5.317   8.218   7.350
 8741POPC   NC368975  37.714  18.308   5.550
 8741POPC   PO468976  37.723  18.262   5.850
 8741POPC   GL168977  37.686  18.267   6.150
 8741POPC   GL268978  37.517  18.209   6.150
 8741POPC   C1A68979  37.673  18.238   6.450
 8741POPC   D2A68980  37.633  18.257   6.750
 8741POPC   C3A68981  37.693  18.261   7.050
 8741POPC   C4A68982  37.696  18.318   7.350
 8741POPC   C1B68983  37.486  18.194   6.450
 8741POPC   C2B68984  37.414  18.177   6.750
 8741POPC   C3B68985  37.450  18.219   7.050
 8741POPC   C4B68986  37.466  18.235   7.350
 8742POPC   NC368987  36.108   6.612   5.550
 8742POPC   PO468988  36.139   6.670   5.850
 8742POPC   GL168989  36.107   6.605   6.150
 8742POPC   GL268990  36.082   6.786   6.150
 8742POPC   C1A68991  36.099   6.657   6.450
 8742POPC   D2A68992  36.085   6.650   6.750
 8742POPC   C3A68993  36.174   6.597   7.050
 8742POPC   C4A68994  36.083   6.600   7.350
 8742POPC   C1B68995  36.121   6.939   6.450
 8742POPC   C2B68996  36.153   6.910   6.750
 8742POPC   C3B68997  36.138   6.873   7.050
 8742POPC   C4B68998  36.078   6.924   7.350
 8743POPC   NC368999  43.066  36.138   5.550
 8743POPC   PO469000  43.111  36.173   5.850
 8743POPC   GL169001  43.079  36.168   6.150
 8743POPC   GL269002  43.152  35.976   6.150
 8743POPC   C1A69003  43.151  36.097   6.450
 8743POPC   D2A69004  43.109  36.149   6.750
 8743POPC   C3A69005  43.115  36.169   7.050
 8743POPC   C4A69006  43.139  36.170   7.350
 8743POPC   C1B69007  43.144  35.861   6.450
 8743POPC   C2B69008  43.142  35.863   6.750
 8743POPC   C3B69009  43.182  35.876   7.050
 8743POPC   C4B69010  43.163  35.913   7.350
 8744POPC   NC369011   3.558  11.294   5.550
 8744POPC   PO469012   3.526  11.286   5.850
 8744POPC   GL169013   3.577  11.279   6.150
 8744POPC   GL269014   3.597  11.410   6.150
 8744POPC   C1A69015   3.514  11.316   6.450
 8744POPC   D2A69016   3.587  11.319   6.750
 8744POPC   C3A69017   3.582  11.259   7.050
 8744POPC   C4A69018   3.542  11.331   7.350
 8744POPC   C1B69019   3.742  11.490   6.450
 8744POPC   C2B69020   3.725  11.470   6.750
 8744POPC   C3B69021   3.750  11.525   7.050
 8744POPC   C4B69022   3.683  11.504   7.350
 8745POPC   NC369023  19.851   2.757   5.550
 8745POPC   PO469024  19.812   2.750   5.850
 8745POPC   GL169025  19.847   2.795   6.150
 8745POPC   GL269026  19.880   2.623   6.150
 8745POPC   C1A69027  19.843   2.759   6.450
 8745POPC   D2A69028  19.804   2.760   6.750
 8745POPC   C3A69029  19.826   2.723   7.050
 8745POPC   C4A69030  19.844   2.717   7.350
 8745POPC   C1B69031  19.859   2.534   6.450
 8745POPC   C2B69032  19.784   2.561   6.750
 8745POPC   C3B69033  19.867   2.495   7.050
 8745POPC   C4B69034  19.820   2.510   7.350
 8746POPC   NC369035  40.735  44.704   5.550
 8746POPC   PO469036  40.779  44.655   5.850
 8746POPC   GL169037  40.806  44.701   6.150
 8746POPC   GL269038  40.659  44.670   6.150
 8746POPC   C1A69039  40.755  44.655   6.450
 8746POPC   D2A69040  40.748  44.648   6.750
 8746POPC   C3A69041  40.790  44.666   7.050
 8746POPC   C4A69042  40.803  44.668   7.350
 8746POPC   C1B69043  40.520  44.629   6.450
 8746POPC   C2B69044  40.574  44.623   6.750
 8746POPC   C3B69045  40.516  44.670   7.050
 8746POPC   C4B69046  40.546  44.651   7.350
 8747POPC   NC369047  37.642  39.992   5.550
 8747POPC   PO469048  37.644  39.963   5.850
 8747POPC   GL169049  37.725  39.993   6.150
 8747POPC   GL269050  37.721  40.111   6.150
 8747POPC   C1A69051  37.665  40.056   6.450
 8747POPC   D2A69052  37.642  40.052   6.750
 8747POPC   C3A69053  37.717  40.034   7.050
 8747POPC   C4A69054  37.698  39.987   7.350
 8747POPC   C1B69055  37.790  40.221   6.450
 8747POPC   C2B69056  37.857  40.179   6.750
 8747POPC   C3B69057  37.782  40.182   7.050
 8747POPC   C4B69058  37.783  40.254   7.350
 8748POPC   NC369059  17.550   6.686   5.550
 8748POPC   PO469060  17.526   6.665   5.850
 8748POPC   GL169061  17.503   6.676   6.150
 8748POPC   GL269062  17.509   6.558   6.150
 8748POPC   C1A69063  17.539   6.653   6.450
 8748POPC   D2A69064  17.465   6.690   6.750
 8748POPC   C3A69065  17.540   6.675   7.050
 8748POPC   C4A69066  17.498   6.605   7.350
 8748POPC   C1B69067  17.608   6.451   6.450
 8748POPC   C2B69068  17.590   6.457   6.750
 8748POPC   C3B69069  17.561   6.368   7.050
 8748POPC   C4B69070  17.619   6.456   7.350
 8749POPC   NC369071   8.976  35.323   5.550
 8749POPC   PO469072   8.955  35.401   5.850
 8749POPC   GL169073   8.992  35.393   6.150
 8749POPC   GL269074   9.091  35.342   6.150
 8749POPC   C1A69075   8.971  35.334   6.450
 8749POPC   D2A69076   8.944  35.346   6.750
 8749POPC   C3A69077   9.009  35.373   7.050
 8749POPC   C4A69078   8.976  35.357   7.350
 8749POPC   C1B69079   9.169  35.219   6.450
 8749POPC   C2B69080   9.213  35.233   6.750
 8749POPC   C3B69081   9.184  35.264   7.050
 8749POPC   C4B69082   9.187  35.269   7.350
 8750POPC   NC369083  22.914  12.027   5.550
 8750POPC   PO469084  22.965  12.093   5.850
 8750POPC   GL169085  22.914  12.075   6.150
 8750POPC   GL269086  22.952  11.936   6.150
 8750POPC   C1A69087  22.915  12.090   6.450
 8750POPC   D2A69088  22.914  12.058   6.750
 8750POPC   C3A69089  22.929  12.106   7.050
 8750POPC   C4A69090  22.933  12.051   7.350
 8750POPC   C1B69091  22.952  11.834   6.450
 8750POPC   C2B69092  22.990  11.820   6.750
 8750POPC   C3B69093  22.922  11.876   7.050
 8750POPC   C4B69094  22.999  11.803   7.350
 8751POPC   NC369095  18.308  13.589   5.550
 8751POPC   PO469096  18.289  13.582   5.850
 8751POPC   GL169097  18.303  13.596   6.150
 8751POPC   GL269098  18.414  13.643   6.150
 8751POPC   C1A69099  18.310  13.659   6.450
 8751POPC   D2A69100  18.293  13.652   6.750
 8751POPC   C3A69101  18.280  13.646   7.050
 8751POPC   C4A69102  18.319  13.675   7.350
 8751POPC   C1B69103  18.521  13.729   6.450
 8751POPC   C2B69104  18.499  13.712   6.750
 8751POPC   C3B69105  18.517  13.738   7.050
 8751POPC   C4B69106  18.518  13.705   7.350
 8752POPC   NC369107   8.168  26.839   5.550
 8752POPC   PO469108   8.234  26.851   5.850
 8752POPC   GL169109   8.215  26.825   6.150
 8752POPC   GL269110   8.164  26.957   6.150
 8752POPC   C1A69111   8.147  26.786   6.450
 8752POPC   D2A69112   8.162  26.848   6.750
 8752POPC   C3A69113   8.207  26.795   7.050
 8752POPC   C4A69114   8.230  26.863   7.350
 8752POPC   C1B69115   8.147  27.017   6.450
 8752POPC   C2B69116   8.094  27.026   6.750
 8752POPC   C3B69117   8.147  27.034   7.050
 8752POPC   C4B69118   8.099  27.078   7.350
 8753POPC   NC369119  18.234  25.999   5.550
 8753POPC   PO469120  18.302  26.044   5.850
 8753POPC   GL169121  18.327  26.053   6.150
 8753POPC   GL269122  18.453  25.985   6.150
 8753POPC   C1A69123  18.279  26.036   6.450
 8753POPC   D2A69124  18.243  26.049   6.750
 8753POPC   C3A69125  18.311  26.037   7.050
 8753POPC   C4A69126  18.308  26.024   7.350
 8753POPC   C1B69127  18.535  26.039   6.450
 8753POPC   C2B69128  18.491  26.023   6.750
 8753POPC   C3B69129  18.496  26.046   7.050
 8753POPC   C4B69130  18.575  25.983   7.350
 8754POPC   NC369131   2.763   2.728   5.550
 8754POPC   PO469132   2.810   2.752   5.850
 8754POPC   GL169133   2.728   2.800   6.150
 8754POPC   GL269134   2.775   2.653   6.150
 8754POPC   C1A69135   2.795   2.781   6.450
 8754POPC   D2A69136   2.792   2.794   6.750
 8754POPC   C3A69137   2.726   2.808   7.050
 8754POPC   C4A69138   2.778   2.748   7.350
 8754POPC   C1B69139   2.809   2.472   6.450
 8754POPC   C2B69140   2.829   2.504   6.750
 8754POPC   C3B69141   2.807   2.545   7.050
 8754POPC   C4B69142   2.821   2.471   7.350
 8755POPC   NC369143  41.556   7.395   5.550
 8755POPC   PO469144  41.558   7.423   5.850
 8755POPC   GL169145  41.551   7.409   6.150
 8755POPC   GL269146  41.560   7.511   6.150
 8755POPC   C1A69147  41.521   7.459   6.450
 8755POPC   D2A69148  41.555   7.466   6.750
 8755POPC   C3A69149  41.606   7.407   7.050
 8755POPC   C4A69150  41.530   7.383   7.350
 8755POPC   C1B69151  41.484   7.673   6.450
 8755POPC   C2B69152  41.521   7.683   6.750
 8755POPC   C3B69153  41.443   7.652   7.050
 8755POPC   C4B69154  41.526   7.680   7.350
 8756POPC   NC369155   3.558  41.597   5.550
 8756POPC   PO469156   3.539  41.521   5.850
 8756POPC   GL169157   3.559  41.529   6.150
 8756POPC   GL269158   3.506  41.473   6.150
 8756POPC   C1A69159   3.554  41.578   6.450
 8756POPC   D2A69160   3.498  41.526   6.750
 8756POPC   C3A69161   3.590  41.569   7.050
 8756POPC   C4A69162   3.500  41.549   7.350
 8756POPC   C1B69163   3.480  41.329   6.450
 8756POPC   C2B69164   3.469  41.313   6.750
 8756POPC   C3B69165   3.470  41.309   7.050
 8756POPC   C4B69166   3.489  41.338   7.350
 8757POPC   NC369167  40.766   5.102   5.550
 8757POPC   PO469168  40.826   5.065   5.850
 8757POPC   GL169169  40.826   5.081   6.150
 8757POPC   GL269170  40.869   4.961   6.150
 8757POPC   C1A69171  40.752   5.097   6.450
 8757POPC   D2A69172  40.770   5.128   6.750
 8757POPC   C3A69173  40.739   5.076   7.050
 8757POPC   C4A69174  40.830   5.125   7.350
 8757POPC   C1B69175  40.943   4.871   6.450
 8757POPC   C2B69176  40.926   4.851   6.750
 8757POPC   C3B69177  40.878   4.916   7.050
 8757POPC   C4B69178  40.961   4.924   7.350
 8758POPC   NC369179  32.975  11.313   5.550
 8758POPC   PO469180  33.042  11.299   5.850
 8758POPC   GL169181  32.991  11.344   6.150
 8758POPC   GL269182  32.929  11.417   6.150
 8758POPC   C1A69183  33.059  11.262   6.450
 8758POPC   D2A69184  32.975  11.316   6.750
 8758POPC   C3A69185  33.026  11.292   7.050
 8758POPC   C4A69186  33.025  11.257   7.350
 8758POPC   C1B69187  32.889  11.507   6.450
 8758POPC   C2B69188  32.965  11.509   6.750
 8758POPC   C3B69189  32.940  11.531   7.050
 8758POPC   C4B69190  32.941  11.523   7.350
 8759POPC   NC369191  11.259  36.102   5.550
 8759POPC   PO469192  11.344  36.160   5.850
 8759POPC   GL169193  11.345  36.127   6.150
 8759POPC   GL269194  11.335  35.999   6.150
 8759POPC   C1A69195  11.291  36.146   6.450
 8759POPC   D2A69196  11.323  36.133   6.750
 8759POPC   C3A69197  11.267  36.113   7.050
 8759POPC   C4A69198  11.255  36.174   7.350
 8759POPC   C1B69199  11.460  35.883   6.450
 8759POPC   C2B69200  11.395  35.892   6.750
 8759POPC   C3B69201  11.408  35.870   7.050
 8759POPC   C4B69202  11.462  35.954   7.350
 8760POPC   NC369203  28.355   1.961   5.550
 8760POPC   PO469204  28.357   2.004   5.850
 8760POPC   GL169205  28.326   2.034   6.150
 8760POPC   GL269206  28.276   2.131   6.150
 8760POPC   C1A69207  28.388   2.010   6.450
 8760POPC   D2A69208  28.332   2.029   6.750
 8760POPC   C3A69209  28.367   2.000   7.050
 8760POPC   C4A69210  28.396   2.037   7.350
 8760POPC   C1B69211  28.331   2.189   6.450
 8760POPC   C2B69212  28.290   2.259   6.750
 8760POPC   C3B69213  28.297   2.212   7.050
 8760POPC   C4B69214  28.270   2.185   7.350
 8761POPC   NC369215  33.814  25.283   5.550
 8761POPC   PO469216  33.849  25.248   5.850
 8761POPC   GL169217  33.828  25.307   6.150
 8761POPC   GL269218  33.736  25.293   6.150
 8761POPC   C1A69219  33.836  25.234   6.450
 8761POPC   D2A69220  33.778  25.270   6.750
 8761POPC   C3A69221  33.799  25.247   7.050
 8761POPC   C4A69222  33.818  25.248   7.350
 8761POPC   C1B69223  33.572  25.389   6.450
 8761POPC   C2B69224  33.556  25.360   6.750
 8761POPC   C3B69225  33.597  25.394   7.050
 8761POPC   C4B69226  33.590  25.428   7.350
 8762POPC   NC369227  31.438   8.203   5.550
 8762POPC   PO469228  31.425   8.212   5.850
 8762POPC   GL169229  31.430   8.182   6.150
 8762POPC   GL269230  31.608   8.175   6.150
 8762POPC   C1A69231  31.438   8.237   6.450
 8762POPC   D2A69232  31.468   8.238   6.750
 8762POPC   C3A69233  31.494   8.148   7.050
 8762POPC   C4A69234  31.517   8.231   7.350
 8762POPC   C1B69235  31.673   8.092   6.450
 8762POPC   C2B69236  31.684   8.098   6.750
 8762POPC   C3B69237  31.749   8.089   7.050
 8762POPC   C4B69238  31.744   8.065   7.350
 8763POPC   NC369239  38.495  37.659   5.550
 8763POPC   PO469240  38.490  37.632   5.850
 8763POPC   GL169241  38.485  37.727   6.150
 8763POPC   GL269242  38.401  37.522   6.150
 8763POPC   C1A69243  38.496  37.711   6.450
 8763POPC   D2A69244  38.425  37.636   6.750
 8763POPC   C3A69245  38.486  37.709   7.050
 8763POPC   C4A69246  38.488  37.678   7.350
 8763POPC   C1B69247  38.371  37.482   6.450
 8763POPC   C2B69248  38.343  37.429   6.750
 8763POPC   C3B69249  38.404  37.443   7.050
 8763POPC   C4B69250  38.329  37.446   7.350
 8764POPC   NC369251  34.549   1.226   5.550
 8764POPC   PO469252  34.535   1.237   5.850
 8764POPC   GL169253  34.579   1.187   6.150
 8764POPC   GL269254  34.693   1.137   6.150
 8764POPC   C1A69255  34.546   1.200   6.450
 8764POPC   D2A69256  34.574   1.191   6.750
 8764POPC   C3A69257  34.574   1.193   7.050
 8764POPC   C4A69258  34.589   1.199   7.350
 8764POPC   C1B69259  34.807   1.087   6.450
 8764POPC   C2B69260  34.810   1.053   6.750
 8764POPC   C3B69261  34.797   1.042   7.050
 8764POPC   C4B69262  34.743   1.055   7.350
 8765POPC   NC369263   9.001  43.844   5.550
 8765POPC   PO469264   9.016  43.871   5.850
 8765POPC   GL169265   8.959  43.863   6.150
 8765POPC   GL269266   8.873  43.846   6.150
 8765POPC   C1A69267   9.014  43.894   6.450
 8765POPC   D2A69268   8.976  43.855   6.750
 8765POPC   C3A69269   8.924  43.841   7.050
 8765POPC   C4A69270   8.945  43.880   7.350
 8765POPC   C1B69271   8.718  43.779   6.450
 8765POPC   C2B69272   8.722  43.788   6.750
 8765POPC   C3B69273   8.744  43.768   7.050
 8765POPC   C4B69274   8.795  43.729   7.350
 8766POPC   NC369275  26.810  27.558   5.550
 8766POPC   PO469276  26.795  27.625   5.850
 8766POPC   GL169277  26.792  27.609   6.150
 8766POPC   GL269278  26.715  27.633   6.150
 8766POPC   C1A69279  26.860  27.635   6.450
 8766POPC   D2A69280  26.825  27.642   6.750
 8766POPC   C3A69281  26.815  27.586   7.050
 8766POPC   C4A69282  26.852  27.630   7.350
 8766POPC   C1B69283  26.608  27.727   6.450
 8766POPC   C2B69284  26.657  27.721   6.750
 8766POPC   C3B69285  26.638  27.739   7.050
 8766POPC   C4B69286  26.677  27.761   7.350
 8767POPC   NC369287   5.048   5.115   5.550
 8767POPC   PO469288   5.097   5.051   5.850
 8767POPC   GL169289   5.114   5.120   6.150
 8767POPC   GL269290   5.043   4.971   6.150
 8767POPC   C1A69291   5.121   5.073   6.450
 8767POPC   D2A69292   5.082   5.061   6.750
 8767POPC   C3A69293   5.108   5.135   7.050
 8767POPC   C4A69294   5.064   5.097   7.350
 8767POPC   C1B69295   4.928   4.929   6.450
 8767POPC   C2B69296   4.970   4.927   6.750
 8767POPC   C3B69297   4.899   4.906   7.050
 8767POPC   C4B69298   4.985   4.902   7.350
 8768POPC   NC369299  43.864  17.485   5.550
 8768POPC   PO469300  43.894  17.541   5.850
 8768POPC   GL169301  43.875  17.482   6.150
 8768POPC   GL269302  43.990  17.497   6.150
 8768POPC   C1A69303  43.884  17.505   6.450
 8768POPC   D2A69304  43.887  17.505   6.750
 8768POPC   C3A69305  43.886  17.465   7.050
 8768POPC   C4A69306  43.870  17.541   7.350
 8768POPC   C1B69307  44.113  17.503   6.450
 8768POPC   C2B69308  44.148  17.521   6.750
 8768POPC   C3B69309  44.122  17.486   7.050
 8768POPC   C4B69310  44.155  17.470   7.350
 8769POPC   NC369311  12.074  12.872   5.550
 8769POPC   PO469312  12.125  12.870   5.850
 8769POPC   GL169313  12.069  12.822   6.150
 8769POPC   GL269314  12.171  12.896   6.150
 8769POPC   C1A69315  12.083  12.856   6.450
 8769POPC   D2A69316  12.043  12.892   6.750
 8769POPC   C3A69317  12.045  12.875   7.050
 8769POPC   C4A69318  12.115  12.868   7.350
 8769POPC   C1B69319  12.227  13.070   6.450
 8769POPC   C2B69320  12.260  13.042   6.750
 8769POPC   C3B69321  12.297  13.054   7.050
 8769POPC   C4B69322  12.265  13.016   7.350
 8770POPC   NC369323  12.107  36.906   5.550
 8770POPC   PO469324  12.121  36.915   5.850
 8770POPC   GL169325  12.067  36.877   6.150
 8770POPC   GL269326  11.910  36.848   6.150
 8770POPC   C1A69327  12.032  36.932   6.450
 8770POPC   D2A69328  12.045  36.953   6.750
 8770POPC   C3A69329  12.042  36.854   7.050
 8770POPC   C4A69330  12.029  36.899   7.350
 8770POPC   C1B69331  11.799  36.859   6.450
 8770POPC   C2B69332  11.809  36.850   6.750
 8770POPC   C3B69333  11.833  36.777   7.050
 8770POPC   C4B69334  11.849  36.812   7.350
 8771POPC   NC369335  30.649  19.830   5.550
 8771POPC   PO469336  30.692  19.852   5.850
 8771POPC   GL169337  30.667  19.796   6.150
 8771POPC   GL269338  30.773  19.738   6.150
 8771POPC   C1A69339  30.665  19.808   6.450
 8771POPC   D2A69340  30.674  19.836   6.750
 8771POPC   C3A69341  30.692  19.868   7.050
 8771POPC   C4A69342  30.657  19.879   7.350
 8771POPC   C1B69343  30.812  19.606   6.450
 8771POPC   C2B69344  30.735  19.581   6.750
 8771POPC   C3B69345  30.818  19.549   7.050
 8771POPC   C4B69346  30.757  19.556   7.350
 8772POPC   NC369347  15.922  29.163   5.550
 8772POPC   PO469348  15.906  29.163   5.850
 8772POPC   GL169349  15.953  29.180   6.150
 8772POPC   GL269350  15.882  29.140   6.150
 8772POPC   C1A69351  15.999  29.107   6.450
 8772POPC   D2A69352  15.955  29.113   6.750
 8772POPC   C3A69353  15.989  29.165   7.050
 8772POPC   C4A69354  15.978  29.123   7.350
 8772POPC   C1B69355  15.686  29.055   6.450
 8772POPC   C2B69356  15.738  29.047   6.750
 8772POPC   C3B69357  15.668  29.034   7.050
 8772POPC   C4B69358  15.751  29.076   7.350
 8773POPC   NC369359  21.419  41.511   5.550
 8773POPC   PO469360  21.435  41.603   5.850
 8773POPC   GL169361  21.429  41.517   6.150
 8773POPC   GL269362  21.409  41.702   6.150
 8773POPC   C1A69363  21.387  41.538   6.450
 8773POPC   D2A69364  21.352  41.570   6.750
 8773POPC   C3A69365  21.339  41.510   7.050
 8773POPC   C4A69366  21.383  41.546   7.350
 8773POPC   C1B69367  21.367  41.817   6.450
 8773POPC   C2B69368  21.401  41.816   6.750
 8773POPC   C3B69369  21.358  41.850   7.050
 8773POPC   C4B69370  21.411  41.762   7.350
 8774POPC   NC369371  25.251  43.129   5.550
 8774POPC   PO469372  25.266  43.108   5.850
 8774POPC   GL169373  25.310  43.143   6.150
 8774POPC   GL269374  25.240  42.988   6.150
 8774POPC   C1A69375  25.306  43.152   6.450
 8774POPC   D2A69376  25.298  43.154   6.750
 8774POPC   C3A69377  25.248  43.074   7.050
 8774POPC   C4A69378  25.224  43.145   7.350
 8774POPC   C1B69379  25.242  42.853   6.450
 8774POPC   C2B69380  25.301  42.906   6.750
 8774POPC   C3B69381  25.308  42.839   7.050
 8774POPC   C4B69382  25.241  42.898   7.350
 8775POPC   NC369383  39.266  42.299   5.550
 8775POPC   PO469384  39.202  42.326   5.850
 8775POPC   GL169385  39.204  42.329   6.150
 8775POPC   GL269386  39.365  42.341   6.150
 8775POPC   C1A69387  39.225  42.302   6.450
 8775POPC   D2A69388  39.242  42.320   6.750
 8775POPC   C3A69389  39.234  42.377   7.050
 8775POPC   C4A69390  39.188  42.319   7.350
 8775POPC   C1B69391  39.498  42.275   6.450
 8775POPC   C2B69392  39.486  42.303   6.750
 8775POPC   C3B69393  39.515  42.365   7.050
 8775POPC   C4B69394  39.448  42.311   7.350
 8776POPC   NC369395   3.529  27.568   5.550
 8776POPC   PO469396   3.493  27.614   5.850
 8776POPC   GL169397   3.562  27.623   6.150
 8776POPC   GL269398   3.552  27.487   6.150
 8776POPC   C1A69399   3.588  27.608   6.450
 8776POPC   D2A69400   3.547  27.638   6.750
 8776POPC   C3A69401   3.529  27.593   7.050
 8776POPC   C4A69402   3.511  27.620   7.350
 8776POPC   C1B69403   3.541  27.362   6.450
 8776POPC   C2B69404   3.581  27.313   6.750
 8776POPC   C3B69405   3.557  27.371   7.050
 8776POPC   C4B69406   3.561  27.335   7.350
 8777POPC   NC369407   2.779  39.981   5.550
 8777POPC   PO469408   2.746  40.012   5.850
 8777POPC   GL169409   2.785  40.010   6.150
 8777POPC   GL269410   2.871  39.960   6.150
 8777POPC   C1A69411   2.781  40.029   6.450
 8777POPC   D2A69412   2.757  40.048   6.750
 8777POPC   C3A69413   2.793  40.034   7.050
 8777POPC   C4A69414   2.767  40.007   7.350
 8777POPC   C1B69415   2.973  40.000   6.450
 8777POPC   C2B69416   3.039  39.947   6.750
 8777POPC   C3B69417   3.050  39.971   7.050
 8777POPC   C4B69418   2.997  39.965   7.350
 8778POPC   NC369419  26.815   4.317   5.550
 8778POPC   PO469420  26.855   4.328   5.850
 8778POPC   GL169421  26.768   4.304   6.150
 8778POPC   GL269422  26.835   4.208   6.150
 8778POPC   C1A69423  26.804   4.273   6.450
 8778POPC   D2A69424  26.790   4.331   6.750
 8778POPC   C3A69425  26.775   4.351   7.050
 8778POPC   C4A69426  26.833   4.332   7.350
 8778POPC   C1B69427  26.869   4.067   6.450
 8778POPC   C2B69428  26.893   4.120   6.750
 8778POPC   C3B69429  26.869   4.071   7.050
 8778POPC   C4B69430  26.857   4.049   7.350
 8779POPC   NC369431   5.083  38.478   5.550
 8779POPC   PO469432   5.049  38.454   5.850
 8779POPC   GL169433   5.091  38.456   6.150
 8779POPC   GL269434   4.965  38.505   6.150
 8779POPC   C1A69435   5.107  38.441   6.450
 8779POPC   D2A69436   5.116  38.440   6.750
 8779POPC   C3A69437   5.092  38.498   7.050
 8779POPC   C4A69438   5.118  38.447   7.350
 8779POPC   C1B69439   4.932  38.613   6.450
 8779POPC   C2B69440   4.968  38.599   6.750
 8779POPC   C3B69441   4.891  38.617   7.050
 8779POPC   C4B69442   4.910  38.665   7.350
 8780POPC   NC369443   3.508   8.997   5.550
 8780POPC   PO469444   3.574   8.945   5.850
 8780POPC   GL169445   3.500   8.965   6.150
 8780POPC   GL269446   3.477   8.998   6.150
 8780POPC   C1A69447   3.528   8.956   6.450
 8780POPC   D2A69448   3.524   8.994   6.750
 8780POPC   C3A69449   3.535   8.928   7.050
 8780POPC   C4A69450   3.521   8.985   7.350
 8780POPC   C1B69451   3.364   9.081   6.450
 8780POPC   C2B69452   3.314   9.126   6.750
 8780POPC   C3B69453   3.353   9.110   7.050
 8780POPC   C4B69454   3.314   9.145   7.350
 8781POPC   NC369455  29.182  24.482   5.550
 8781POPC   PO469456  29.184  24.441   5.850
 8781POPC   GL169457  29.162  24.535   6.150
 8781POPC   GL269458  29.167  24.646   6.150
 8781POPC   C1A69459  29.154  24.465   6.450
 8781POPC   D2A69460  29.150  24.519   6.750
 8781POPC   C3A69461  29.121  24.480   7.050
 8781POPC   C4A69462  29.183  24.453   7.350
 8781POPC   C1B69463  29.215  24.708   6.450
 8781POPC   C2B69464  29.280  24.710   6.750
 8781POPC   C3B69465  29.240  24.734   7.050
 8781POPC   C4B69466  29.213  24.765   7.350
 8782POPC   NC369467  32.209  33.753   5.550
 8782POPC   PO469468  32.284  33.763   5.850
 8782POPC   GL169469  32.278  33.843   6.150
 8782POPC   GL269470  32.186  33.742   6.150
 8782POPC   C1A69471  32.216  33.810   6.450
 8782POPC   D2A69472  32.273  33.763   6.750
 8782POPC   C3A69473  32.295  33.763   7.050
 8782POPC   C4A69474  32.280  33.772   7.350
 8782POPC   C1B69475  32.055  33.663   6.450
 8782POPC   C2B69476  32.031  33.616   6.750
 8782POPC   C3B69477  32.076  33.674   7.050
 8782POPC   C4B69478  32.032  33.673   7.350
 8783POPC   NC369479  44.615  30.691   5.550
 8783POPC   PO469480  44.642  30.746   5.850
 8783POPC   GL169481  44.639  30.709   6.150
 8783POPC   GL269482  44.692  30.587   6.150
 8783POPC   C1A69483  44.647  30.650   6.450
 8783POPC   D2A69484  44.704  30.670   6.750
 8783POPC   C3A69485  44.656  30.677   7.050
 8783POPC   C4A69486  44.682  30.656   7.350
 8783POPC   C1B69487  44.641  30.398   6.450
 8783POPC   C2B69488  44.660  30.402   6.750
 8783POPC   C3B69489  44.705  30.422   7.050
 8783POPC   C4B69490  44.665  30.444   7.350
 8784POPC   NC369491  19.862  16.754   5.550
 8784POPC   PO469492  19.842  16.729   5.850
 8784POPC   GL169493  19.813  16.726   6.150
 8784POPC   GL269494  19.735  16.699   6.150
 8784POPC   C1A69495  19.805  16.737   6.450
 8784POPC   D2A69496  19.875  16.692   6.750
 8784POPC   C3A69497  19.840  16.721   7.050
 8784POPC   C4A69498  19.835  16.693   7.350
 8784POPC   C1B69499  19.665  16.558   6.450
 8784POPC   C2B69500  19.597  16.607   6.750
 8784POPC   C3B69501  19.578  16.636   7.050
 8784POPC   C4B69502  19.579  16.560   7.350
 8785POPC   NC369503  22.954  26.033   5.550
 8785POPC   PO469504  22.958  26.029   5.850
 8785POPC   GL169505  22.941  26.082   6.150
 8785POPC   GL269506  23.044  26.159   6.150
 8785POPC   C1A69507  22.985  26.026   6.450
 8785POPC   D2A69508  22.929  26.000   6.750
 8785POPC   C3A69509  22.955  26.001   7.050
 8785POPC   C4A69510  22.937  26.047   7.350
 8785POPC   C1B69511  23.187  26.198   6.450
 8785POPC   C2B69512  23.183  26.215   6.750
 8785POPC   C3B69513  23.144  26.182   7.050
 8785POPC   C4B69514  23.096  26.159   7.350
 8786POPC   NC369515  29.122  17.466   5.550
 8786POPC   PO469516  29.097  17.507   5.850
 8786POPC   GL169517  29.098  17.467   6.150
 8786POPC   GL269518  29.291  17.493   6.150
 8786POPC   C1A69519  29.155  17.509   6.450
 8786POPC   D2A69520  29.157  17.528   6.750
 8786POPC   C3A69521  29.175  17.463   7.050
 8786POPC   C4A69522  29.097  17.489   7.350
 8786POPC   C1B69523  29.417  17.386   6.450
 8786POPC   C2B69524  29.419  17.433   6.750
 8786POPC   C3B69525  29.328  17.423   7.050
 8786POPC   C4B69526  29.339  17.453   7.350
 8787POPC   NC369527   9.787  13.628   5.550
 8787POPC   PO469528   9.750  13.589   5.850
 8787POPC   GL169529   9.791  13.676   6.150
 8787POPC   GL269530   9.881  13.734   6.150
 8787POPC   C1A69531   9.702  13.602   6.450
 8787POPC   D2A69532   9.744  13.659   6.750
 8787POPC   C3A69533   9.763  13.637   7.050
 8787POPC   C4A69534   9.746  13.593   7.350
 8787POPC   C1B69535   9.953  13.782   6.450
 8787POPC   C2B69536   9.932  13.748   6.750
 8787POPC   C3B69537   9.958  13.707   7.050
 8787POPC   C4B69538  10.007  13.704   7.350
 8788POPC   NC369539   8.151  44.622   5.550
 8788POPC   PO469540   8.183  44.674   5.850
 8788POPC   GL169541   8.209  44.702   6.150
 8788POPC   GL269542   8.098  44.606   6.150
 8788POPC   C1A69543   8.197  44.623   6.450
 8788POPC   D2A69544   8.213  44.707   6.750
 8788POPC   C3A69545   8.167  44.653   7.050
 8788POPC   C4A69546   8.171  44.626   7.350
 8788POPC   C1B69547   8.000  44.511   6.450
 8788POPC   C2B69548   7.947  44.512   6.750
 8788POPC   C3B69549   7.982  44.487   7.050
 8788POPC   C4B69550   8.007  44.528   7.350
 8789POPC   NC369551  31.496   1.959   5.550
 8789POPC   PO469552  31.430   1.950   5.850
 8789POPC   GL169553  31.498   2.017   6.150
 8789POPC   GL269554  31.590   2.014   6.150
 8789POPC   C1A69555  31.436   1.962   6.450
 8789POPC   D2A69556  31.479   1.973   6.750
 8789POPC   C3A69557  31.454   2.032   7.050
 8789POPC   C4A69558  31.435   2.011   7.350
 8789POPC   C1B69559  31.676   1.985   6.450
 8789POPC   C2B69560  31.740   1.963   6.750
 8789POPC   C3B69561  31.720   1.973   7.050
 8789POPC   C4B69562  31.714   1.961   7.350
 8790POPC   NC369563  42.364  29.101   5.550
 8790POPC   PO469564  42.295  29.114   5.850
 8790POPC   GL169565  42.381  29.134   6.150
 8790POPC   GL269566  42.274  29.046   6.150
 8790POPC   C1A69567  42.320  29.102   6.450
 8790POPC   D2A69568  42.350  29.163   6.750
 8790POPC   C3A69569  42.363  29.112   7.050
 8790POPC   C4A69570  42.292  29.122   7.350
 8790POPC   C1B69571  42.179  28.909   6.450
 8790POPC   C2B69572  42.186  28.933   6.750
 8790POPC   C3B69573  42.152  28.886   7.050
 8790POPC   C4B69574  42.180  28.950   7.350
 8791POPC   NC369575   2.030   5.888   5.550
 8791POPC   PO469576   1.966   5.869   5.850
 8791POPC   GL169577   2.016   5.840   6.150
 8791POPC   GL269578   2.006   5.971   6.150
 8791POPC   C1A69579   1.970   5.892   6.450
 8791POPC   D2A69580   2.029   5.862   6.750
 8791POPC   C3A69581   2.027   5.905   7.050
 8791POPC   C4A69582   1.994   5.875   7.350
 8791POPC   C1B69583   1.972   6.108   6.450
 8791POPC   C2B69584   2.014   6.106   6.750
 8791POPC   C3B69585   1.943   6.113   7.050
 8791POPC   C4B69586   1.924   6.082   7.350
 8792POPC   NC369587  18.233  12.860   5.550
 8792POPC   PO469588  18.316  12.859   5.850
 8792POPC   GL169589  18.307  12.819   6.150
 8792POPC   GL269590  18.170  12.955   6.150
 8792POPC   C1A69591  18.290  12.854   6.450
 8792POPC   D2A69592  18.331  12.808   6.750
 8792POPC   C3A69593  18.308  12.874   7.050
 8792POPC   C4A69594  18.262  12.823   7.350
 8792POPC   C1B69595  18.125  13.015   6.450
 8792POPC   C2B69596  18.047  13.012   6.750
 8792POPC   C3B69597  18.044  13.033   7.050
 8792POPC   C4B69598  18.090  12.972   7.350
 8793POPC   NC369599   8.232  40.004   5.550
 8793POPC   PO469600   8.193  40.054   5.850
 8793POPC   GL169601   8.208  40.022   6.150
 8793POPC   GL269602   8.209  40.109   6.150
 8793POPC   C1A69603   8.183  40.010   6.450
 8793POPC   D2A69604   8.182  40.000   6.750
 8793POPC   C3A69605   8.219  39.996   7.050
 8793POPC   C4A69606   8.187  40.049   7.350
 8793POPC   C1B69607   8.276  40.277   6.450
 8793POPC   C2B69608   8.332  40.189   6.750
 8793POPC   C3B69609   8.296  40.258   7.050
 8793POPC   C4B69610   8.306  40.193   7.350
 8794POPC   NC369611   3.555  39.198   5.550
 8794POPC   PO469612   3.535  39.231   5.850
 8794POPC   GL169613   3.500  39.187   6.150
 8794POPC   GL269614   3.377  39.221   6.150
 8794POPC   C1A69615   3.535  39.198   6.450
 8794POPC   D2A69616   3.544  39.211   6.750
 8794POPC   C3A69617   3.549  39.222   7.050
 8794POPC   C4A69618   3.532  39.262   7.350
 8794POPC   C1B69619   3.302  39.154   6.450
 8794POPC   C2B69620   3.295  39.156   6.750
 8794POPC   C3B69621   3.352  39.129   7.050
 8794POPC   C4B69622   3.312  39.195   7.350
 8795POPC   NC369623  12.076   9.699   5.550
 8795POPC   PO469624  12.069   9.797   5.850
 8795POPC   GL169625  12.050   9.781   6.150
 8795POPC   GL269626  12.000   9.793   6.150
 8795POPC   C1A69627  12.042   9.767   6.450
 8795POPC   D2A69628  12.123   9.767   6.750
 8795POPC   C3A69629  12.058   9.768   7.050
 8795POPC   C4A69630  12.101   9.771   7.350
 8795POPC   C1B69631  11.852   9.859   6.450
 8795POPC   C2B69632  11.897   9.892   6.750
 8795POPC   C3B69633  11.896   9.905   7.050
 8795POPC   C4B69634  11.821   9.863   7.350
 8796POPC   NC369635  18.241   1.970   5.550
 8796POPC   PO469636  18.332   1.952   5.850
 8796POPC   GL169637  18.325   1.984   6.150
 8796POPC   GL269638  18.164   2.083   6.150
 8796POPC   C1A69639  18.307   2.019   6.450
 8796POPC   D2A69640  18.290   1.964   6.750
 8796POPC   C3A69641  18.238   1.960   7.050
 8796POPC   C4A69642  18.304   1.968   7.350
 8796POPC   C1B69643  18.177   2.210   6.450
 8796POPC   C2B69644  18.138   2.229   6.750
 8796POPC   C3B69645  18.165   2.220   7.050
 8796POPC   C4B69646  18.178   2.199   7.350
 8797POPC   NC369647  16.697   2.022   5.550
 8797POPC   PO469648  16.719   1.956   5.850
 8797POPC   GL169649  16.745   1.981   6.150
 8797POPC   GL269650  16.634   1.930   6.150
 8797POPC   C1A69651  16.712   2.007   6.450
 8797POPC   D2A69652  16.710   1.950   6.750
 8797POPC   C3A69653  16.687   1.985   7.050
 8797POPC   C4A69654  16.734   1.981   7.350
 8797POPC   C1B69655  16.530   1.820   6.450
 8797POPC   C2B69656  16.489   1.831   6.750
 8797POPC   C3B69657  16.470   1.848   7.050
 8797POPC   C4B69658  16.465   1.832   7.350
 8798POPC   NC369659  44.619   5.849   5.550
 8798POPC   PO469660  44.667   5.837   5.850
 8798POPC   GL169661  44.676   5.899   6.150
 8798POPC   GL269662  44.813   5.959   6.150
 8798POPC   C1A69663  44.612   5.826   6.450
 8798POPC   D2A69664  44.691   5.916   6.750
 8798POPC   C3A69665  44.683   5.826   7.050
 8798POPC   C4A69666  44.622   5.848   7.350
 8798POPC   C1B69667  44.910   6.023   6.450
 8798POPC   C2B69668  44.886   5.987   6.750
 8798POPC   C3B69669  44.905   5.997   7.050
 8798POPC   C4B69670  44.866   5.993   7.350
 8799POPC   NC369671  29.171   1.224   5.550
 8799POPC   PO469672  29.117   1.185   5.850
 8799POPC   GL169673  29.099   1.228   6.150
 8799POPC   GL269674  29.234   1.217   6.150
 8799POPC   C1A69675  29.171   1.225   6.450
 8799POPC   D2A69676  29.177   1.246   6.750
 8799POPC   C3A69677  29.105   1.254   7.050
 8799POPC   C4A69678  29.166   1.255   7.350
 8799POPC   C1B69679  29.418   1.176   6.450
 8799POPC   C2B69680  29.388   1.210   6.750
 8799POPC   C3B69681  29.386   1.248   7.050
 8799POPC   C4B69682  29.368   1.234   7.350
 8800POPC   NC369683  13.595  39.211   5.550
 8800POPC   PO469684  13.596  39.222   5.850
 8800POPC   GL169685  13.601  39.269   6.150
 8800POPC   GL269686  13.496  39.371   6.150
 8800POPC   C1A69687  13.652  39.221   6.450
 8800POPC   D2A69688  13.588  39.183   6.750
 8800POPC   C3A69689  13.579  39.280   7.050
 8800POPC   C4A69690  13.593  39.189   7.350
 8800POPC   C1B69691  13.483  39.422   6.450
 8800POPC   C2B69692  13.504  39.441   6.750
 8800POPC   C3B69693  13.489  39.388   7.050
 8800POPC   C4B69694  13.418  39.384   7.350
 8801POPC   NC369695  16.688  27.595   5.550
 8801POPC   PO469696  16.720  27.562   5.850
 8801POPC   GL169697  16.712  27.616   6.150
 8801POPC   GL269698  16.849  27.589   6.150
 8801POPC   C1A69699  16.731  27.592   6.450
 8801POPC   D2A69700  16.697  27.594   6.750
 8801POPC   C3A69701  16.723  27.638   7.050
 8801POPC   C4A69702  16.689  27.603   7.350
 8801POPC   C1B69703  16.936  27.584   6.450
 8801POPC   C2B69704  16.995  27.666   6.750
 8801POPC   C3B69705  17.002  27.643   7.050
 8801POPC   C4B69706  17.017  27.657   7.350
 8802POPC   NC369707   0.398  29.875   5.550
 8802POPC   PO469708   0.395  29.958   5.850
 8802POPC   GL169709   0.449  29.914   6.150
 8802POPC   GL269710   0.269  29.916   6.150
 8802POPC   C1A69711   0.400  29.891   6.450
 8802POPC   D2A69712   0.466  29.910   6.750
 8802POPC   C3A69713   0.420  29.888   7.050
 8802POPC   C4A69714   0.483  29.917   7.350
 8802POPC   C1B69715   0.158  29.905   6.450
 8802POPC   C2B69716   0.150  29.962   6.750
 8802POPC   C3B69717   0.206  29.928   7.050
 8802POPC   C4B69718   0.185  29.925   7.350
 8803POPC   NC369719  27.543  10.508   5.550
 8803POPC   PO469720  27.558  10.540   5.850
 8803POPC   GL169721  27.550  10.569   6.150
 8803POPC   GL269722  27.534  10.635   6.150
 8803POPC   C1A69723  27.574  10.477   6.450
 8803POPC   D2A69724  27.551  10.517   6.750
 8803POPC   C3A69725  27.626  10.505   7.050
 8803POPC   C4A69726  27.581  10.502   7.350
 8803POPC   C1B69727  27.374  10.704   6.450
 8803POPC   C2B69728  27.366  10.720   6.750
 8803POPC   C3B69729  27.368  10.650   7.050
 8803POPC   C4B69730  27.429  10.719   7.350
 8804POPC   NC369731  20.585  21.422   5.550
 8804POPC   PO469732  20.609  21.346   5.850
 8804POPC   GL169733  20.623  21.380   6.150
 8804POPC   GL269734  20.683  21.462   6.150
 8804POPC   C1A69735  20.652  21.398   6.450
 8804POPC   D2A69736  20.604  21.420   6.750
 8804POPC   C3A69737  20.632  21.373   7.050
 8804POPC   C4A69738  20.615  21.429   7.350
 8804POPC   C1B69739  20.719  21.638   6.450
 8804POPC   C2B69740  20.716  21.575   6.750
 8804POPC   C3B69741  20.716  21.600   7.050
 8804POPC   C4B69742  20.778  21.580   7.350
 8805POPC   NC369743  26.842  20.605   5.550
 8805POPC   PO469744  26.832  20.615   5.850
 8805POPC   GL169745  26.786  20.630   6.150
 8805POPC   GL269746  26.932  20.542   6.150
 8805POPC   C1A69747  26.784  20.655   6.450
 8805POPC   D2A69748  26.844  20.595   6.750
 8805POPC   C3A69749  26.800  20.614   7.050
 8805POPC   C4A69750  26.857  20.631   7.350
 8805POPC   C1B69751  27.047  20.520   6.450
 8805POPC   C2B69752  27.067  20.522   6.750
 8805POPC   C3B69753  27.077  20.531   7.050
 8805POPC   C4B69754  27.043  20.589   7.350
 8806POPC   NC369755  42.291  43.841   5.550
 8806POPC   PO469756  42.337  43.906   5.850
 8806POPC   GL169757  42.345  43.852   6.150
 8806POPC   GL269758  42.316  43.958   6.150
 8806POPC   C1A69759  42.304  43.860   6.450
 8806POPC   D2A69760  42.379  43.924   6.750
 8806POPC   C3A69761  42.345  43.905   7.050
 8806POPC   C4A69762  42.332  43.863   7.350
 8806POPC   C1B69763  42.225  44.073   6.450
 8806POPC   C2B69764  42.233  44.077   6.750
 8806POPC   C3B69765  42.273  44.098   7.050
 8806POPC   C4B69766  42.198  44.068   7.350
 8807POPC   NC369767   5.890  22.144   5.550
 8807POPC   PO469768   5.905  22.171   5.850
 8807POPC   GL169769   5.838  22.127   6.150
 8807POPC   GL269770   5.932  22.064   6.150
 8807POPC   C1A69771   5.868  22.208   6.450
 8807POPC   D2A69772   5.831  22.207   6.750
 8807POPC   C3A69773   5.839  22.159   7.050
 8807POPC   C4A69774   5.901  22.130   7.350
 8807POPC   C1B69775   5.975  22.000   6.450
 8807POPC   C2B69776   5.992  21.965   6.750
 8807POPC   C3B69777   6.034  21.942   7.050
 8807POPC   C4B69778   6.031  21.960   7.350
 8808POPC   NC369779  11.334  19.102   5.550
 8808POPC   PO469780  11.259  19.080   5.850
 8808POPC   GL169781  11.285  19.062   6.150
 8808POPC   GL269782  11.426  19.083   6.150
 8808POPC   C1A69783  11.267  19.056   6.450
 8808POPC   D2A69784  11.292  19.071   6.750
 8808POPC   C3A69785  11.333  19.098   7.050
 8808POPC   C4A69786  11.295  19.102   7.350
 8808POPC   C1B69787  11.545  19.187   6.450
 8808POPC   C2B69788  11.567  19.131   6.750
 8808POPC   C3B69789  11.491  19.112   7.050
 8808POPC   C4B69790  11.489  19.159   7.350
 8809POPC   NC369791  39.280   3.500   5.550
 8809POPC   PO469792  39.237   3.497   5.850
 8809POPC   GL169793  39.267   3.540   6.150
 8809POPC   GL269794  39.277   3.659   6.150
 8809POPC   C1A69795  39.189   3.551   6.450
 8809POPC   D2A69796  39.265   3.529   6.750
 8809POPC   C3A69797  39.184   3.546   7.050
 8809POPC   C4A69798  39.212   3.497   7.350
 8809POPC   C1B69799  39.258   3.759   6.450
 8809POPC   C2B69800  39.287   3.765   6.750
 8809POPC   C3B69801  39.328   3.820   7.050
 8809POPC   C4B69802  39.342   3.809   7.350
 8810POPC   NC369803  22.197  17.506   5.550
 8810POPC   PO469804  22.172  17.472   5.850
 8810POPC   GL169805  22.149  17.538   6.150
 8810POPC   GL269806  22.023  17.446   6.150
 8810POPC   C1A69807  22.137  17.550   6.450
 8810POPC   D2A69808  22.152  17.484   6.750
 8810POPC   C3A69809  22.179  17.506   7.050
 8810POPC   C4A69810  22.119  17.555   7.350
 8810POPC   C1B69811  21.889  17.475   6.450
 8810POPC   C2B69812  21.880  17.464   6.750
 8810POPC   C3B69813  21.929  17.488   7.050
 8810POPC   C4B69814  21.872  17.473   7.350
 8811POPC   NC369815  11.292  16.736   5.550
 8811POPC   PO469816  11.286  16.730   5.850
 8811POPC   GL169817  11.340  16.694   6.150
 8811POPC   GL269818  11.175  16.631   6.150
 8811POPC   C1A69819  11.268  16.698   6.450
 8811POPC   D2A69820  11.290  16.746   6.750
 8811POPC   C3A69821  11.273  16.691   7.050
 8811POPC   C4A69822  11.320  16.690   7.350
 8811POPC   C1B69823  11.098  16.652   6.450
 8811POPC   C2B69824  11.045  16.659   6.750
 8811POPC   C3B69825  11.107  16.658   7.050
 8811POPC   C4B69826  11.119  16.660   7.350
 8812POPC   NC369827  26.029  13.600   5.550
 8812POPC   PO469828  26.005  13.626   5.850
 8812POPC   GL169829  26.038  13.615   6.150
 8812POPC   GL269830  26.063  13.782   6.150
 8812POPC   C1A69831  26.037  13.638   6.450
 8812POPC   D2A69832  25.994  13.674   6.750
 8812POPC   C3A69833  25.998  13.628   7.050
 8812POPC   C4A69834  26.018  13.654   7.350
 8812POPC   C1B69835  26.066  13.843   6.450
 8812POPC   C2B69836  26.112  13.857   6.750
 8812POPC   C3B69837  26.074  13.836   7.050
 8812POPC   C4B69838  26.099  13.864   7.350
 8813POPC   NC369839  41.570  32.209   5.550
 8813POPC   PO469840  41.578  32.222   5.850
 8813POPC   GL169841  41.603  32.255   6.150
 8813POPC   GL269842  41.642  32.108   6.150
 8813POPC   C1A69843  41.526  32.289   6.450
 8813POPC   D2A69844  41.602  32.215   6.750
 8813POPC   C3A69845  41.571  32.254   7.050
 8813POPC   C4A69846  41.588  32.245   7.350
 8813POPC   C1B69847  41.641  32.043   6.450
 8813POPC   C2B69848  41.603  32.040   6.750
 8813POPC   C3B69849  41.618  32.011   7.050
 8813POPC   C4B69850  41.660  32.044   7.350
 8814POPC   NC369851  43.842  14.451   5.550
 8814POPC   PO469852  43.857  14.403   5.850
 8814POPC   GL169853  43.930  14.450   6.150
 8814POPC   GL269854  44.052  14.389   6.150
 8814POPC   C1A69855  43.880  14.379   6.450
 8814POPC   D2A69856  43.851  14.423   6.750
 8814POPC   C3A69857  43.887  14.437   7.050
 8814POPC   C4A69858  43.932  14.399   7.350
 8814POPC   C1B69859  44.147  14.458   6.450
 8814POPC   C2B69860  44.104  14.465   6.750
 8814POPC   C3B69861  44.098  14.404   7.050
 8814POPC   C4B69862  44.144  14.449   7.350
 8815POPC   NC369863   6.617  11.263   5.550
 8815POPC   PO469864   6.617  11.349   5.850
 8815POPC   GL169865   6.625  11.345   6.150
 8815POPC   GL269866   6.598  11.236   6.150
 8815POPC   C1A69867   6.653  11.328   6.450
 8815POPC   D2A69868   6.681  11.320   6.750
 8815POPC   C3A69869   6.597  11.348   7.050
 8815POPC   C4A69870   6.681  11.328   7.350
 8815POPC   C1B69871   6.421  11.093   6.450
 8815POPC   C2B69872   6.448  11.138   6.750
 8815POPC   C3B69873   6.465  11.091   7.050
 8815POPC   C4B69874   6.444  11.166   7.350
 8816POPC   NC369875  15.225  35.398   5.550
 8816POPC   PO469876  15.160  35.329   5.850
 8816POPC   GL169877  15.162  35.308   6.150
 8816POPC   GL269878  15.245  35.458   6.150
 8816POPC   C1A69879  15.143  35.322   6.450
 8816POPC   D2A69880  15.204  35.316   6.750
 8816POPC   C3A69881  15.151  35.402   7.050
 8816POPC   C4A69882  15.211  35.380   7.350
 8816POPC   C1B69883  15.415  35.515   6.450
 8816POPC   C2B69884  15.398  35.426   6.750
 8816POPC   C3B69885  15.433  35.515   7.050
 8816POPC   C4B69886  15.423  35.491   7.350
 8817POPC   NC369887  25.291   4.269   5.550
 8817POPC   PO469888  25.247   4.321   5.850
 8817POPC   GL169889  25.234   4.338   6.150
 8817POPC   GL269890  25.371   4.428   6.150
 8817POPC   C1A69891  25.260   4.359   6.450
 8817POPC   D2A69892  25.293   4.322   6.750
 8817POPC   C3A69893  25.238   4.281   7.050
 8817POPC   C4A69894  25.239   4.285   7.350
 8817POPC   C1B69895  25.385   4.503   6.450
 8817POPC   C2B69896  25.390   4.557   6.750
 8817POPC   C3B69897  25.394   4.492   7.050
 8817POPC   C4B69898  25.370   4.536   7.350
 8818POPC   NC369899  31.459  23.744   5.550
 8818POPC   PO469900  31.471  23.754   5.850
 8818POPC   GL169901  31.496  23.692   6.150
 8818POPC   GL269902  31.364  23.699   6.150
 8818POPC   C1A69903  31.461  23.677   6.450
 8818POPC   D2A69904  31.432  23.720   6.750
 8818POPC   C3A69905  31.426  23.704   7.050
 8818POPC   C4A69906  31.514  23.746   7.350
 8818POPC   C1B69907  31.188  23.752   6.450
 8818POPC   C2B69908  31.216  23.728   6.750
 8818POPC   C3B69909  31.239  23.706   7.050
 8818POPC   C4B69910  31.189  23.769   7.350
 8819POPC   NC369911   2.787  22.122   5.550
 8819POPC   PO469912   2.780  22.156   5.850
 8819POPC   GL169913   2.788  22.183   6.150
 8819POPC   GL269914   2.886  22.218   6.150
 8819POPC   C1A69915   2.765  22.208   6.450
 8819POPC   D2A69916   2.722  22.119   6.750
 8819POPC   C3A69917   2.726  22.148   7.050
 8819POPC   C4A69918   2.767  22.167   7.350
 8819POPC   C1B69919   2.940  22.370   6.450
 8819POPC   C2B69920   2.945  22.334   6.750
 8819POPC   C3B69921   2.915  22.369   7.050
 8819POPC   C4B69922   2.921  22.333   7.350
 8820POPC   NC369923  14.385  15.983   5.550
 8820POPC   PO469924  14.360  15.944   5.850
 8820POPC   GL169925  14.437  15.979   6.150
 8820POPC   GL269926  14.444  16.113   6.150
 8820POPC   C1A69927  14.378  15.936   6.450
 8820POPC   D2A69928  14.395  15.945   6.750
 8820POPC   C3A69929  14.430  15.989   7.050
 8820POPC   C4A69930  14.447  15.942   7.350
 8820POPC   C1B69931  14.395  16.191   6.450
 8820POPC   C2B69932  14.432  16.157   6.750
 8820POPC   C3B69933  14.422  16.200   7.050
 8820POPC   C4B69934  14.360  16.159   7.350
 8821POPC   NC369935  42.298  31.423   5.550
 8821POPC   PO469936  42.287  31.424   5.850
 8821POPC   GL169937  42.326  31.521   6.150
 8821POPC   GL269938  42.265  31.412   6.150
 8821POPC   C1A69939  42.306  31.446   6.450
 8821POPC   D2A69940  42.333  31.500   6.750
 8821POPC   C3A69941  42.376  31.457   7.050
 8821POPC   C4A69942  42.322  31.513   7.350
 8821POPC   C1B69943  42.192  31.326   6.450
 8821POPC   C2B69944  42.181  31.284   6.750
 8821POPC   C3B69945  42.150  31.250   7.050
 8821POPC   C4B69946  42.163  31.271   7.350
 8822POPC   NC369947   5.142  22.171   5.550
 8822POPC   PO469948   5.078  22.207   5.850
 8822POPC   GL169949   5.067  22.138   6.150
 8822POPC   GL269950   5.159  22.115   6.150
 8822POPC   C1A69951   5.104  22.167   6.450
 8822POPC   D2A69952   5.090  22.118   6.750
 8822POPC   C3A69953   5.063  22.161   7.050
 8822POPC   C4A69954   5.069  22.194   7.350
 8822POPC   C1B69955   5.279  21.996   6.450
 8822POPC   C2B69956   5.247  21.968   6.750
 8822POPC   C3B69957   5.262  22.017   7.050
 8822POPC   C4B69958   5.313  21.956   7.350
 8823POPC   NC369959  25.244  14.354   5.550
 8823POPC   PO469960  25.262  14.417   5.850
 8823POPC   GL169961  25.243  14.355   6.150
 8823POPC   GL269962  25.181  14.483   6.150
 8823POPC   C1A69963  25.288  14.382   6.450
 8823POPC   D2A69964  25.260  14.389   6.750
 8823POPC   C3A69965  25.238  14.428   7.050
 8823POPC   C4A69966  25.276  14.391   7.350
 8823POPC   C1B69967  25.124  14.673   6.450
 8823POPC   C2B69968  25.133  14.668   6.750
 8823POPC   C3B69969  25.122  14.605   7.050
 8823POPC   C4B69970  25.148  14.618   7.350
 8824POPC   NC369971  31.522  36.881   5.550
 8824POPC   PO469972  31.432  36.945   5.850
 8824POPC   GL169973  31.485  36.912   6.150
 8824POPC   GL269974  31.480  36.991   6.150
 8824POPC   C1A69975  31.486  36.861   6.450
 8824POPC   D2A69976  31.424  36.895   6.750
 8824POPC   C3A69977  31.461  36.940   7.050
 8824POPC   C4A69978  31.482  36.869   7.350
 8824POPC   C1B69979  31.556  37.184   6.450
 8824POPC   C2B69980  31.563  37.118   6.750
 8824POPC   C3B69981  31.485  37.102   7.050
 8824POPC   C4B69982  31.496  37.163   7.350
 8825POPC   NC369983  43.912  29.896   5.550
 8825POPC   PO469984  43.901  29.957   5.850
 8825POPC   GL169985  43.919  29.970   6.150
 8825POPC   GL269986  44.043  30.012   6.150
 8825POPC   C1A69987  43.886  29.922   6.450
 8825POPC   D2A69988  43.914  29.927   6.750
 8825POPC   C3A69989  43.873  29.888   7.050
 8825POPC   C4A69990  43.866  29.909   7.350
 8825POPC   C1B69991  44.119  30.023   6.450
 8825POPC   C2B69992  44.087  29.997   6.750
 8825POPC   C3B69993  44.117  30.058   7.050
 8825POPC   C4B69994  44.130  29.975   7.350
 8826POPC   NC369995  14.421  36.154   5.550
 8826POPC   PO469996  14.424  36.152   5.850
 8826POPC   GL169997  14.357  36.115   6.150
 8826POPC   GL269998  14.362  36.221   6.150
 8826POPC   C1A69999  14.420  36.090   6.450
 8826POPC   D2A70000  14.430  36.101   6.750
 8826POPC   C3A70001  14.411  36.132   7.050
 8826POPC   C4A70002  14.407  36.117   7.350
 8826POPC   C1B70003  14.362  36.420   6.450
 8826POPC   C2B70004  14.408  36.347   6.750
 8826POPC   C3B70005  14.399  36.359   7.050
 8826POPC   C4B70006  14.350  36.422   7.350
 8827POPC   NC370007  40.003  33.805   5.550
 8827POPC   PO470008  40.049  33.767   5.850
 8827POPC   GL170009  40.033  33.778   6.150
 8827POPC   GL270010  40.028  33.943   6.150
 8827POPC   C1A70011  39.979  33.781   6.450
 8827POPC   D2A70012  39.998  33.813   6.750
 8827POPC   C3A70013  40.035  33.760   7.050
 8827POPC   C4A70014  40.035  33.768   7.350
 8827POPC   C1B70015  39.998  34.068   6.450
 8827POPC   C2B70016  39.983  34.098   6.750
 8827POPC   C3B70017  39.977  34.004   7.050
 8827POPC   C4B70018  39.999  34.012   7.350
 8828POPC   NC370019  16.003  38.429   5.550
 8828POPC   PO470020  15.973  38.447   5.850
 8828POPC   GL170021  15.932  38.452   6.150
 8828POPC   GL270022  15.857  38.487   6.150
 8828POPC   C1A70023  15.989  38.420   6.450
 8828POPC   D2A70024  15.964  38.413   6.750
 8828POPC   C3A70025  15.911  38.474   7.050
 8828POPC   C4A70026  15.922  38.500   7.350
 8828POPC   C1B70027  15.719  38.423   6.450
 8828POPC   C2B70028  15.687  38.430   6.750
 8828POPC   C3B70029  15.697  38.422   7.050
 8828POPC   C4B70030  15.707  38.416   7.350
 8829POPC   NC370031   6.653  39.976   5.550
 8829POPC   PO470032   6.657  40.043   5.850
 8829POPC   GL170033   6.623  39.965   6.150
 8829POPC   GL270034   6.657  39.893   6.150
 8829POPC   C1A70035   6.602  39.959   6.450
 8829POPC   D2A70036   6.619  39.994   6.750
 8829POPC   C3A70037   6.601  40.010   7.050
 8829POPC   C4A70038   6.599  40.014   7.350
 8829POPC   C1B70039   6.589  39.791   6.450
 8829POPC   C2B70040   6.623  39.715   6.750
 8829POPC   C3B70041   6.626  39.715   7.050
 8829POPC   C4B70042   6.579  39.719   7.350
 8830POPC   NC370043  22.122   8.234   5.550
 8830POPC   PO470044  22.193   8.163   5.850
 8830POPC   GL170045  22.134   8.240   6.150
 8830POPC   GL270046  22.040   8.251   6.150
 8830POPC   C1A70047  22.147   8.190   6.450
 8830POPC   D2A70048  22.210   8.178   6.750
 8830POPC   C3A70049  22.135   8.219   7.050
 8830POPC   C4A70050  22.156   8.166   7.350
 8830POPC   C1B70051  21.869   8.204   6.450
 8830POPC   C2B70052  21.875   8.213   6.750
 8830POPC   C3B70053  21.925   8.264   7.050
 8830POPC   C4B70054  21.873   8.280   7.350
 8831POPC   NC370055  29.884   4.291   5.550
 8831POPC   PO470056  29.884   4.329   5.850
 8831POPC   GL170057  29.941   4.340   6.150
 8831POPC   GL270058  29.928   4.193   6.150
 8831POPC   C1A70059  29.879   4.307   6.450
 8831POPC   D2A70060  29.875   4.324   6.750
 8831POPC   C3A70061  29.904   4.268   7.050
 8831POPC   C4A70062  29.885   4.301   7.350
 8831POPC   C1B70063  29.909   4.104   6.450
 8831POPC   C2B70064  29.919   4.027   6.750
 8831POPC   C3B70065  29.872   4.037   7.050
 8831POPC   C4B70066  29.901   4.024   7.350
 8832POPC   NC370067  43.078  26.057   5.550
 8832POPC   PO470068  43.063  26.074   5.850
 8832POPC   GL170069  43.085  26.082   6.150
 8832POPC   GL270070  43.200  26.179   6.150
 8832POPC   C1A70071  43.160  25.992   6.450
 8832POPC   D2A70072  43.111  26.010   6.750
 8832POPC   C3A70073  43.131  26.031   7.050
 8832POPC   C4A70074  43.077  25.995   7.350
 8832POPC   C1B70075  43.251  26.260   6.450
 8832POPC   C2B70076  43.289  26.208   6.750
 8832POPC   C3B70077  43.241  26.218   7.050
 8832POPC   C4B70078  43.250  26.248   7.350
 8833POPC   NC370079  18.247  30.662   5.550
 8833POPC   PO470080  18.295  30.727   5.850
 8833POPC   GL170081  18.254  30.664   6.150
 8833POPC   GL270082  18.445  30.682   6.150
 8833POPC   C1A70083  18.256  30.654   6.450
 8833POPC   D2A70084  18.281  30.707   6.750
 8833POPC   C3A70085  18.311  30.736   7.050
 8833POPC   C4A70086  18.299  30.724   7.350
 8833POPC   C1B70087  18.533  30.674   6.450
 8833POPC   C2B70088  18.542  30.721   6.750
 8833POPC   C3B70089  18.543  30.705   7.050
 8833POPC   C4B70090  18.512  30.694   7.350
 8834POPC   NC370091  15.228   2.765   5.550
 8834POPC   PO470092  15.199   2.795   5.850
 8834POPC   GL170093  15.135   2.806   6.150
 8834POPC   GL270094  15.089   2.812   6.150
 8834POPC   C1A70095  15.134   2.812   6.450
 8834POPC   D2A70096  15.219   2.790   6.750
 8834POPC   C3A70097  15.167   2.762   7.050
 8834POPC   C4A70098  15.226   2.724   7.350
 8834POPC   C1B70099  14.947   2.813   6.450
 8834POPC   C2B70100  14.939   2.768   6.750
 8834POPC   C3B70101  14.899   2.816   7.050
 8834POPC   C4B70102  14.881   2.830   7.350
 8835POPC   NC370103   9.763   8.221   5.550
 8835POPC   PO470104   9.760   8.237   5.850
 8835POPC   GL170105   9.791   8.184   6.150
 8835POPC   GL270106   9.779   8.358   6.150
 8835POPC   C1A70107   9.762   8.202   6.450
 8835POPC   D2A70108   9.762   8.154   6.750
 8835POPC   C3A70109   9.709   8.214   7.050
 8835POPC   C4A70110   9.721   8.197   7.350
 8835POPC   C1B70111   9.780   8.426   6.450
 8835POPC   C2B70112   9.745   8.399   6.750
 8835POPC   C3B70113   9.724   8.405   7.050
 8835POPC   C4B70114   9.741   8.446   7.350
 8836POPC   NC370115  20.655  15.193   5.550
 8836POPC   PO470116  20.638  15.201   5.850
 8836POPC   GL170117  20.657  15.189   6.150
 8836POPC   GL270118  20.709  15.181   6.150
 8836POPC   C1A70119  20.561  15.150   6.450
 8836POPC   D2A70120  20.585  15.200   6.750
 8836POPC   C3A70121  20.640  15.144   7.050
 8836POPC   C4A70122  20.596  15.158   7.350
 8836POPC   C1B70123  20.826  15.201   6.450
 8836POPC   C2B70124  20.810  15.192   6.750
 8836POPC   C3B70125  20.903  15.239   7.050
 8836POPC   C4B70126  20.902  15.233   7.350
 8837POPC   NC370127   9.766  39.988   5.550
 8837POPC   PO470128   9.728  40.000   5.850
 8837POPC   GL170129   9.775  39.975   6.150
 8837POPC   GL270130   9.754  40.141   6.150
 8837POPC   C1A70131   9.706  39.971   6.450
 8837POPC   D2A70132   9.763  40.022   6.750
 8837POPC   C3A70133   9.767  39.992   7.050
 8837POPC   C4A70134   9.767  39.976   7.350
 8837POPC   C1B70135   9.839  40.214   6.450
 8837POPC   C2B70136   9.824  40.213   6.750
 8837POPC   C3B70137   9.850  40.189   7.050
 8837POPC   C4B70138   9.870  40.188   7.350
 8838POPC   NC370139  34.564   4.309   5.550
 8838POPC   PO470140  34.541   4.316   5.850
 8838POPC   GL170141  34.582   4.363   6.150
 8838POPC   GL270142  34.442   4.296   6.150
 8838POPC   C1A70143  34.594   4.361   6.450
 8838POPC   D2A70144  34.554   4.328   6.750
 8838POPC   C3A70145  34.606   4.367   7.050
 8838POPC   C4A70146  34.609   4.268   7.350
 8838POPC   C1B70147  34.348   4.346   6.450
 8838POPC   C2B70148  34.338   4.328   6.750
 8838POPC   C3B70149  34.349   4.329   7.050
 8838POPC   C4B70150  34.369   4.351   7.350
 8839POPC   NC370151  20.593  26.830   5.550
 8839POPC   PO470152  20.607  26.837   5.850
 8839POPC   GL170153  20.626  26.847   6.150
 8839POPC   GL270154  20.492  26.895   6.150
 8839POPC   C1A70155  20.660  26.788   6.450
 8839POPC   D2A70156  20.611  26.840   6.750
 8839POPC   C3A70157  20.619  26.865   7.050
 8839POPC   C4A70158  20.602  26.833   7.350
 8839POPC   C1B70159  20.396  26.890   6.450
 8839POPC   C2B70160  20.361  26.874   6.750
 8839POPC   C3B70161  20.369  26.842   7.050
 8839POPC   C4B70162  20.346  26.921   7.350
 8840POPC   NC370163   3.550   3.501   5.550
 8840POPC   PO470164   3.581   3.534   5.850
 8840POPC   GL170165   3.494   3.579   6.150
 8840POPC   GL270166   3.500   3.451   6.150
 8840POPC   C1A70167   3.541   3.558   6.450
 8840POPC   D2A70168   3.548   3.510   6.750
 8840POPC   C3A70169   3.534   3.541   7.050
 8840POPC   C4A70170   3.506   3.556   7.350
 8840POPC   C1B70171   3.516   3.265   6.450
 8840POPC   C2B70172   3.495   3.347   6.750
 8840POPC   C3B70173   3.510   3.262   7.050
 8840POPC   C4B70174   3.485   3.328   7.350
 8841POPC   NC370175  15.915  35.401   5.550
 8841POPC   PO470176  15.977  35.323   5.850
 8841POPC   GL170177  15.934  35.390   6.150
 8841POPC   GL270178  16.087  35.263   6.150
 8841POPC   C1A70179  15.911  35.344   6.450
 8841POPC   D2A70180  15.962  35.341   6.750
 8841POPC   C3A70181  15.998  35.335   7.050
 8841POPC   C4A70182  15.932  35.320   7.350
 8841POPC   C1B70183  16.164  35.209   6.450
 8841POPC   C2B70184  16.152  35.149   6.750
 8841POPC   C3B70185  16.129  35.179   7.050
 8841POPC   C4B70186  16.111  35.134   7.350
 8842POPC   NC370187  26.841  22.936   5.550
 8842POPC   PO470188  26.787  22.928   5.850
 8842POPC   GL170189  26.843  22.927   6.150
 8842POPC   GL270190  26.828  23.042   6.150
 8842POPC   C1A70191  26.768  22.946   6.450
 8842POPC   D2A70192  26.830  22.937   6.750
 8842POPC   C3A70193  26.790  22.959   7.050
 8842POPC   C4A70194  26.867  22.922   7.350
 8842POPC   C1B70195  26.866  23.159   6.450
 8842POPC   C2B70196  26.856  23.232   6.750
 8842POPC   C3B70197  26.864  23.142   7.050
 8842POPC   C4B70198  26.896  23.189   7.350
 8843POPC   NC370199  25.994  24.451   5.550
 8843POPC   PO470200  26.029  24.482   5.850
 8843POPC   GL170201  26.031  24.470   6.150
 8843POPC   GL270202  26.178  24.543   6.150
 8843POPC   C1A70203  26.011  24.476   6.450
 8843POPC   D2A70204  26.045  24.519   6.750
 8843POPC   C3A70205  26.089  24.533   7.050
 8843POPC   C4A70206  26.010  24.509   7.350
 8843POPC   C1B70207  26.312  24.570   6.450
 8843POPC   C2B70208  26.315  24.557   6.750
 8843POPC   C3B70209  26.224  24.585   7.050
 8843POPC   C4B70210  26.308  24.562   7.350
 8844POPC   NC370211  32.208  29.884   5.550
 8844POPC   PO470212  32.222  29.939   5.850
 8844POPC   GL170213  32.215  29.879   6.150
 8844POPC   GL270214  32.161  29.870   6.150
 8844POPC   C1A70215  32.220  29.940   6.450
 8844POPC   D2A70216  32.221  29.943   6.750
 8844POPC   C3A70217  32.285  29.879   7.050
 8844POPC   C4A70218  32.215  29.871   7.350
 8844POPC   C1B70219  31.995  29.788   6.450
 8844POPC   C2B70220  32.074  29.797   6.750
 8844POPC   C3B70221  32.028  29.810   7.050
 8844POPC   C4B70222  32.002  29.791   7.350
 8845POPC   NC370223  14.354  12.893   5.550
 8845POPC   PO470224  14.443  12.893   5.850
 8845POPC   GL170225  14.405  12.817   6.150
 8845POPC   GL270226  14.543  12.844   6.150
 8845POPC   C1A70227  14.418  12.874   6.450
 8845POPC   D2A70228  14.371  12.808   6.750
 8845POPC   C3A70229  14.396  12.847   7.050
 8845POPC   C4A70230  14.413  12.883   7.350
 8845POPC   C1B70231  14.617  12.765   6.450
 8845POPC   C2B70232  14.636  12.758   6.750
 8845POPC   C3B70233  14.659  12.713   7.050
 8845POPC   C4B70234  14.656  12.763   7.350
 8846POPC   NC370235   2.010  33.030   5.550
 8846POPC   PO470236   1.996  33.060   5.850
 8846POPC   GL170237   1.998  33.042   6.150
 8846POPC   GL270238   2.064  33.162   6.150
 8846POPC   C1A70239   2.039  33.042   6.450
 8846POPC   D2A70240   2.026  33.046   6.750
 8846POPC   C3A70241   2.038  32.994   7.050
 8846POPC   C4A70242   1.980  33.055   7.350
 8846POPC   C1B70243   2.095  33.294   6.450
 8846POPC   C2B70244   2.017  33.252   6.750
 8846POPC   C3B70245   2.015  33.289   7.050
 8846POPC   C4B70246   2.026  33.227   7.350
 8847POPC   NC370247  43.852  32.205   5.550
 8847POPC   PO470248  43.886  32.214   5.850
 8847POPC   GL170249  43.896  32.212   6.150
 8847POPC   GL270250  44.037  32.166   6.150
 8847POPC   C1A70251  43.924  32.242   6.450
 8847POPC   D2A70252  43.865  32.246   6.750
 8847POPC   C3A70253  43.881  32.216   7.050
 8847POPC   C4A70254  43.909  32.286   7.350
 8847POPC   C1B70255  44.098  32.121   6.450
 8847POPC   C2B70256  44.153  32.138   6.750
 8847POPC   C3B70257  44.090  32.182   7.050
 8847POPC   C4B70258  44.110  32.128   7.350
 8848POPC   NC370259  41.591   8.177   5.550
 8848POPC   PO470260  41.607   8.190   5.850
 8848POPC   GL170261  41.526   8.234   6.150
 8848POPC   GL270262  41.495   8.055   6.150
 8848POPC   C1A70263  41.539   8.155   6.450
 8848POPC   D2A70264  41.572   8.160   6.750
 8848POPC   C3A70265  41.511   8.211   7.050
 8848POPC   C4A70266  41.556   8.176   7.350
 8848POPC   C1B70267  41.446   7.949   6.450
 8848POPC   C2B70268  41.503   7.957   6.750
 8848POPC   C3B70269  41.521   7.949   7.050
 8848POPC   C4B70270  41.480   7.970   7.350
 8849POPC   NC370271  12.828  16.697   5.550
 8849POPC   PO470272  12.827  16.733   5.850
 8849POPC   GL170273  12.863  16.772   6.150
 8849POPC   GL270274  12.758  16.795   6.150
 8849POPC   C1A70275  12.894  16.762   6.450
 8849POPC   D2A70276  12.869  16.712   6.750
 8849POPC   C3A70277  12.822  16.764   7.050
 8849POPC   C4A70278  12.897  16.762   7.350
 8849POPC   C1B70279  12.723  16.908   6.450
 8849POPC   C2B70280  12.637  16.948   6.750
 8849POPC   C3B70281  12.712  16.943   7.050
 8849POPC   C4B70282  12.642  16.919   7.350
 8850POPC   NC370283  16.700  14.435   5.550
 8850POPC   PO470284  16.722  14.421   5.850
 8850POPC   GL170285  16.692  14.452   6.150
 8850POPC   GL270286  16.685  14.317   6.150
 8850POPC   C1A70287  16.702  14.390   6.450
 8850POPC   D2A70288  16.702  14.448   6.750
 8850POPC   C3A70289  16.737  14.389   7.050
 8850POPC   C4A70290  16.703  14.415   7.350
 8850POPC   C1B70291  16.599  14.169   6.450
 8850POPC   C2B70292  16.574  14.264   6.750
 8850POPC   C3B70293  16.607  14.196   7.050
 8850POPC   C4B70294  16.549  14.200   7.350
 8851POPC   NC370295  11.261  24.508   5.550
 8851POPC   PO470296  11.348  24.484   5.850
 8851POPC   GL170297  11.307  24.521   6.150
 8851POPC   GL270298  11.455  24.535   6.150
 8851POPC   C1A70299  11.296  24.516   6.450
 8851POPC   D2A70300  11.313  24.520   6.750
 8851POPC   C3A70301  11.286  24.457   7.050
 8851POPC   C4A70302  11.292  24.532   7.350
 8851POPC   C1B70303  11.585  24.567   6.450
 8851POPC   C2B70304  11.563  24.566   6.750
 8851POPC   C3B70305  11.587  24.555   7.050
 8851POPC   C4B70306  11.586  24.569   7.350
 8852POPC   NC370307  11.331  23.735   5.550
 8852POPC   PO470308  11.265  23.680   5.850
 8852POPC   GL170309  11.317  23.700   6.150
 8852POPC   GL270310  11.156  23.778   6.150
 8852POPC   C1A70311  11.281  23.732   6.450
 8852POPC   D2A70312  11.280  23.696   6.750
 8852POPC   C3A70313  11.287  23.762   7.050
 8852POPC   C4A70314  11.288  23.725   7.350
 8852POPC   C1B70315  11.109  23.761   6.450
 8852POPC   C2B70316  11.072  23.814   6.750
 8852POPC   C3B70317  11.097  23.751   7.050
 8852POPC   C4B70318  11.023  23.830   7.350
 8853POPC   NC370319  14.451   5.890   5.550
 8853POPC   PO470320  14.374   5.870   5.850
 8853POPC   GL170321  14.453   5.896   6.150
 8853POPC   GL270322  14.508   5.848   6.150
 8853POPC   C1A70323  14.379   5.824   6.450
 8853POPC   D2A70324  14.375   5.839   6.750
 8853POPC   C3A70325  14.430   5.902   7.050
 8853POPC   C4A70326  14.438   5.841   7.350
 8853POPC   C1B70327  14.672   5.866   6.450
 8853POPC   C2B70328  14.662   5.851   6.750
 8853POPC   C3B70329  14.652   5.862   7.050
 8853POPC   C4B70330  14.670   5.818   7.350
 8854POPC   NC370331  28.361  17.549   5.550
 8854POPC   PO470332  28.406  17.468   5.850
 8854POPC   GL170333  28.368  17.549   6.150
 8854POPC   GL270334  28.507  17.504   6.150
 8854POPC   C1A70335  28.379  17.526   6.450
 8854POPC   D2A70336  28.342  17.530   6.750
 8854POPC   C3A70337  28.379  17.527   7.050
 8854POPC   C4A70338  28.387  17.538   7.350
 8854POPC   C1B70339  28.637  17.425   6.450
 8854POPC   C2B70340  28.640  17.505   6.750
 8854POPC   C3B70341  28.609  17.496   7.050
 8854POPC   C4B70342  28.621  17.479   7.350
 8855POPC   NC370343  38.489  34.605   5.550
 8855POPC   PO470344  38.465  34.591   5.850
 8855POPC   GL170345  38.488  34.544   6.150
 8855POPC   GL270346  38.336  34.709   6.150
 8855POPC   C1A70347  38.504  34.535   6.450
 8855POPC   D2A70348  38.492  34.526   6.750
 8855POPC   C3A70349  38.438  34.547   7.050
 8855POPC   C4A70350  38.492  34.598   7.350
 8855POPC   C1B70351  38.305  34.713   6.450
 8855POPC   C2B70352  38.236  34.765   6.750
 8855POPC   C3B70353  38.232  34.779   7.050
 8855POPC   C4B70354  38.293  34.765   7.350
 8856POPC   NC370355  20.575  29.903   5.550
 8856POPC   PO470356  20.627  29.878   5.850
 8856POPC   GL170357  20.570  29.968   6.150
 8856POPC   GL270358  20.695  29.970   6.150
 8856POPC   C1A70359  20.571  29.969   6.450
 8856POPC   D2A70360  20.640  29.893   6.750
 8856POPC   C3A70361  20.654  29.876   7.050
 8856POPC   C4A70362  20.653  29.896   7.350
 8856POPC   C1B70363  20.888  30.017   6.450
 8856POPC   C2B70364  20.854  30.012   6.750
 8856POPC   C3B70365  20.875  30.011   7.050
 8856POPC   C4B70366  20.844  29.988   7.350
 8857POPC   NC370367  29.145  28.361   5.550
 8857POPC   PO470368  29.174  28.329   5.850
 8857POPC   GL170369  29.113  28.408   6.150
 8857POPC   GL270370  29.053  28.386   6.150
 8857POPC   C1A70371  29.180  28.385   6.450
 8857POPC   D2A70372  29.180  28.365   6.750
 8857POPC   C3A70373  29.123  28.403   7.050
 8857POPC   C4A70374  29.132  28.371   7.350
 8857POPC   C1B70375  28.902  28.474   6.450
 8857POPC   C2B70376  28.898  28.454   6.750
 8857POPC   C3B70377  28.862  28.409   7.050
 8857POPC   C4B70378  28.932  28.480   7.350
 8858POPC   NC370379  20.628   1.237   5.550
 8858POPC   PO470380  20.632   1.227   5.850
 8858POPC   GL170381  20.579   1.174   6.150
 8858POPC   GL270382  20.525   1.228   6.150
 8858POPC   C1A70383  20.596   1.182   6.450
 8858POPC   D2A70384  20.592   1.180   6.750
 8858POPC   C3A70385  20.651   1.216   7.050
 8858POPC   C4A70386  20.624   1.199   7.350
 8858POPC   C1B70387  20.383   1.192   6.450
 8858POPC   C2B70388  20.363   1.163   6.750
 8858POPC   C3B70389  20.358   1.131   7.050
 8858POPC   C4B70390  20.382   1.210   7.350
 8859POPC   NC370391  32.262  14.430   5.550
 8859POPC   PO470392  32.282  14.405   5.850
 8859POPC   GL170393  32.226  14.447   6.150
 8859POPC   GL270394  32.182  14.281   6.150
 8859POPC   C1A70395  32.237  14.414   6.450
 8859POPC   D2A70396  32.225  14.358   6.750
 8859POPC   C3A70397  32.244  14.396   7.050
 8859POPC   C4A70398  32.214  14.404   7.350
 8859POPC   C1B70399  32.194  14.160   6.450
 8859POPC   C2B70400  32.232  14.174   6.750
 8859POPC   C3B70401  32.214  14.164   7.050
 8859POPC   C4B70402  32.163  14.179   7.350
 8860POPC   NC370403  19.788   9.009   5.550
 8860POPC   PO470404  19.861   8.956   5.850
 8860POPC   GL170405  19.870   9.014   6.150
 8860POPC   GL270406  19.983   8.942   6.150
 8860POPC   C1A70407  19.809   9.018   6.450
 8860POPC   D2A70408  19.805   8.971   6.750
 8860POPC   C3A70409  19.838   8.946   7.050
 8860POPC   C4A70410  19.866   8.949   7.350
 8860POPC   C1B70411  20.098   8.900   6.450
 8860POPC   C2B70412  20.065   8.915   6.750
 8860POPC   C3B70413  20.069   8.928   7.050
 8860POPC   C4B70414  20.105   8.996   7.350
 8861POPC   NC370415  41.582  12.095   5.550
 8861POPC   PO470416  41.532  12.027   5.850
 8861POPC   GL170417  41.559  12.110   6.150
 8861POPC   GL270418  41.568  11.997   6.150
 8861POPC   C1A70419  41.584  12.038   6.450
 8861POPC   D2A70420  41.536  12.051   6.750
 8861POPC   C3A70421  41.576  12.032   7.050
 8861POPC   C4A70422  41.586  12.119   7.350
 8861POPC   C1B70423  41.613  11.825   6.450
 8861POPC   C2B70424  41.600  11.882   6.750
 8861POPC   C3B70425  41.632  11.787   7.050
 8861POPC   C4B70426  41.617  11.828   7.350
 8862POPC   NC370427   4.306   7.448   5.550
 8862POPC   PO470428   4.299   7.374   5.850
 8862POPC   GL170429   4.364   7.398   6.150
 8862POPC   GL270430   4.208   7.502   6.150
 8862POPC   C1A70431   4.294   7.447   6.450
 8862POPC   D2A70432   4.364   7.389   6.750
 8862POPC   C3A70433   4.351   7.436   7.050
 8862POPC   C4A70434   4.309   7.450   7.350
 8862POPC   C1B70435   4.049   7.532   6.450
 8862POPC   C2B70436   4.133   7.543   6.750
 8862POPC   C3B70437   4.118   7.492   7.050
 8862POPC   C4B70438   4.111   7.481   7.350
 8863POPC   NC370439  36.133  29.102   5.550
 8863POPC   PO470440  36.102  29.139   5.850
 8863POPC   GL170441  36.097  29.127   6.150
 8863POPC   GL270442  36.238  29.170   6.150
 8863POPC   C1A70443  36.166  29.137   6.450
 8863POPC   D2A70444  36.150  29.153   6.750
 8863POPC   C3A70445  36.121  29.139   7.050
 8863POPC   C4A70446  36.177  29.135   7.350
 8863POPC   C1B70447  36.352  29.259   6.450
 8863POPC   C2B70448  36.379  29.251   6.750
 8863POPC   C3B70449  36.331  29.180   7.050
 8863POPC   C4B70450  36.323  29.168   7.350
 8864POPC   NC370451  25.269  41.553   5.550
 8864POPC   PO470452  25.252  41.605   5.850
 8864POPC   GL170453  25.240  41.538   6.150
 8864POPC   GL270454  25.357  41.455   6.150
 8864POPC   C1A70455  25.277  41.581   6.450
 8864POPC   D2A70456  25.277  41.517   6.750
 8864POPC   C3A70457  25.303  41.523   7.050
 8864POPC   C4A70458  25.250  41.513   7.350
 8864POPC   C1B70459  25.434  41.374   6.450
 8864POPC   C2B70460  25.461  41.449   6.750
 8864POPC   C3B70461  25.458  41.379   7.050
 8864POPC   C4B70462  25.486  41.456   7.350
 8865POPC   NC370463  38.442  13.597   5.550
 8865POPC   PO470464  38.493  13.640   5.850
 8865POPC   GL170465  38.459  13.634   6.150
 8865POPC   GL270466  38.353  13.560   6.150
 8865POPC   C1A70467  38.495  13.629   6.450
 8865POPC   D2A70468  38.488  13.667   6.750
 8865POPC   C3A70469  38.464  13.598   7.050
 8865POPC   C4A70470  38.413  13.624   7.350
 8865POPC   C1B70471  38.254  13.418   6.450
 8865POPC   C2B70472  38.265  13.490   6.750
 8865POPC   C3B70473  38.248  13.487   7.050
 8865POPC   C4B70474  38.238  13.479   7.350
 8866POPC   NC370475  11.261  28.327   5.550
 8866POPC   PO470476  11.282  28.342   5.850
 8866POPC   GL170477  11.267  28.351   6.150
 8866POPC   GL270478  11.201  28.346   6.150
 8866POPC   C1A70479  11.337  28.333   6.450
 8866POPC   D2A70480  11.342  28.413   6.750
 8866POPC   C3A70481  11.311  28.387   7.050
 8866POPC   C4A70482  11.288  28.375   7.350
 8866POPC   C1B70483  11.006  28.396   6.450
 8866POPC   C2B70484  11.035  28.354   6.750
 8866POPC   C3B70485  11.013  28.318   7.050
 8866POPC   C4B70486  11.083  28.382   7.350
 8867POPC   NC370487   9.768  43.094   5.550
 8867POPC   PO470488   9.701  43.145   5.850
 8867POPC   GL170489   9.767  43.072   6.150
 8867POPC   GL270490   9.750  42.980   6.150
 8867POPC   C1A70491   9.746  43.088   6.450
 8867POPC   D2A70492   9.765  43.073   6.750
 8867POPC   C3A70493   9.769  43.068   7.050
 8867POPC   C4A70494   9.797  43.077   7.350
 8867POPC   C1B70495   9.724  42.821   6.450
 8867POPC   C2B70496   9.701  42.814   6.750
 8867POPC   C3B70497   9.699  42.882   7.050
 8867POPC   C4B70498   9.781  42.874   7.350
 8868POPC   NC370499  41.601  31.495   5.550
 8868POPC   PO470500  41.549  31.494   5.850
 8868POPC   GL170501  41.539  31.489   6.150
 8868POPC   GL270502  41.570  31.323   6.150
 8868POPC   C1A70503  41.539  31.462   6.450
 8868POPC   D2A70504  41.564  31.455   6.750
 8868POPC   C3A70505  41.520  31.497   7.050
 8868POPC   C4A70506  41.601  31.480   7.350
 8868POPC   C1B70507  41.507  31.256   6.450
 8868POPC   C2B70508  41.476  31.257   6.750
 8868POPC   C3B70509  41.538  31.263   7.050
 8868POPC   C4B70510  41.445  31.199   7.350
 8869POPC   NC370511  38.474  38.439   5.550
 8869POPC   PO470512  38.420  38.433   5.850
 8869POPC   GL170513  38.469  38.473   6.150
 8869POPC   GL270514  38.492  38.574   6.150
 8869POPC   C1A70515  38.476  38.438   6.450
 8869POPC   D2A70516  38.467  38.505   6.750
 8869POPC   C3A70517  38.464  38.434   7.050
 8869POPC   C4A70518  38.426  38.441   7.350
 8869POPC   C1B70519  38.506  38.674   6.450
 8869POPC   C2B70520  38.558  38.652   6.750
 8869POPC   C3B70521  38.592  38.715   7.050
 8869POPC   C4B70522  38.577  38.725   7.350
 8870POPC   NC370523  20.658  22.123   5.550
 8870POPC   PO470524  20.577  22.187   5.850
 8870POPC   GL170525  20.591  22.171   6.150
 8870POPC   GL270526  20.465  22.158   6.150
 8870POPC   C1A70527  20.607  22.184   6.450
 8870POPC   D2A70528  20.634  22.148   6.750
 8870POPC   C3A70529  20.603  22.169   7.050
 8870POPC   C4A70530  20.636  22.206   7.350
 8870POPC   C1B70531  20.407  22.164   6.450
 8870POPC   C2B70532  20.376  22.164   6.750
 8870POPC   C3B70533  20.370  22.131   7.050
 8870POPC   C4B70534  20.350  22.216   7.350
 8871POPC   NC370535  15.996  12.833   5.550
 8871POPC   PO470536  15.918  12.878   5.850
 8871POPC   GL170537  15.993  12.870   6.150
 8871POPC   GL270538  16.125  12.890   6.150
 8871POPC   C1A70539  16.002  12.877   6.450
 8871POPC   D2A70540  15.923  12.877   6.750
 8871POPC   C3A70541  15.984  12.860   7.050
 8871POPC   C4A70542  15.976  12.893   7.350
 8871POPC   C1B70543  16.207  12.874   6.450
 8871POPC   C2B70544  16.209  12.873   6.750
 8871POPC   C3B70545  16.219  12.883   7.050
 8871POPC   C4B70546  16.170  12.876   7.350
 8872POPC   NC370547  15.943  44.692   5.550
 8872POPC   PO470548  15.949  44.674   5.850
 8872POPC   GL170549  15.991  44.690   6.150
 8872POPC   GL270550  15.942  44.522   6.150
 8872POPC   C1A70551  15.984  44.617   6.450
 8872POPC   D2A70552  15.928  44.634   6.750
 8872POPC   C3A70553  16.003  44.672   7.050
 8872POPC   C4A70554  15.995  44.612   7.350
 8872POPC   C1B70555  16.012  44.421   6.450
 8872POPC   C2B70556  15.983  44.394   6.750
 8872POPC   C3B70557  15.958  44.396   7.050
 8872POPC   C4B70558  15.984  44.373   7.350
 8873POPC   NC370559  33.019  34.549   5.550
 8873POPC   PO470560  33.015  34.621   5.850
 8873POPC   GL170561  32.975  34.624   6.150
 8873POPC   GL270562  33.161  34.604   6.150
 8873POPC   C1A70563  33.065  34.533   6.450
 8873POPC   D2A70564  33.036  34.556   6.750
 8873POPC   C3A70565  33.007  34.555   7.050
 8873POPC   C4A70566  32.982  34.584   7.350
 8873POPC   C1B70567  33.228  34.677   6.450
 8873POPC   C2B70568  33.309  34.641   6.750
 8873POPC   C3B70569  33.247  34.658   7.050
 8873POPC   C4B70570  33.257  34.628   7.350
 8874POPC   NC370571  12.083   3.527   5.550
 8874POPC   PO470572  12.051   3.499   5.850
 8874POPC   GL170573  12.083   3.531   6.150
 8874POPC   GL270574  12.026   3.661   6.150
 8874POPC   C1A70575  12.097   3.573   6.450
 8874POPC   D2A70576  12.116   3.504   6.750
 8874POPC   C3A70577  12.041   3.502   7.050
 8874POPC   C4A70578  12.091   3.526   7.350
 8874POPC   C1B70579  11.907   3.718   6.450
 8874POPC   C2B70580  11.956   3.718   6.750
 8874POPC   C3B70581  11.948   3.694   7.050
 8874POPC   C4B70582  11.947   3.725   7.350
 8875POPC   NC370583   4.271  27.604   5.550
 8875POPC   PO470584   4.300  27.641   5.850
 8875POPC   GL170585   4.330  27.633   6.150
 8875POPC   GL270586   4.306  27.721   6.150
 8875POPC   C1A70587   4.350  27.636   6.450
 8875POPC   D2A70588   4.322  27.642   6.750
 8875POPC   C3A70589   4.335  27.634   7.050
 8875POPC   C4A70590   4.346  27.603   7.350
 8875POPC   C1B70591   4.409  27.824   6.450
 8875POPC   C2B70592   4.412  27.816   6.750
 8875POPC   C3B70593   4.376  27.843   7.050
 8875POPC   C4B70594   4.366  27.796   7.350
 8876POPC   NC370595   4.278  38.420   5.550
 8876POPC   PO470596   4.284  38.415   5.850
 8876POPC   GL170597   4.336  38.503   6.150
 8876POPC   GL270598   4.272  38.402   6.150
 8876POPC   C1A70599   4.366  38.425   6.450
 8876POPC   D2A70600   4.352  38.502   6.750
 8876POPC   C3A70601   4.364  38.446   7.050
 8876POPC   C4A70602   4.361  38.454   7.350
 8876POPC   C1B70603   4.148  38.272   6.450
 8876POPC   C2B70604   4.146  38.262   6.750
 8876POPC   C3B70605   4.220  38.287   7.050
 8876POPC   C4B70606   4.198  38.252   7.350
 8877POPC   NC370607   1.251   5.133   5.550
 8877POPC   PO470608   1.196   5.080   5.850
 8877POPC   GL170609   1.253   5.059   6.150
 8877POPC   GL270610   1.316   5.220   6.150
 8877POPC   C1A70611   1.220   5.054   6.450
 8877POPC   D2A70612   1.209   5.072   6.750
 8877POPC   C3A70613   1.254   5.139   7.050
 8877POPC   C4A70614   1.258   5.044   7.350
 8877POPC   C1B70615   1.403   5.246   6.450
 8877POPC   C2B70616   1.366   5.335   6.750
 8877POPC   C3B70617   1.338   5.249   7.050
 8877POPC   C4B70618   1.348   5.256   7.350
 8878POPC   NC370619   2.763  17.472   5.550
 8878POPC   PO470620   2.722  17.459   5.850
 8878POPC   GL170621   2.717  17.529   6.150
 8878POPC   GL270622   2.785  17.393   6.150
 8878POPC   C1A70623   2.768  17.492   6.450
 8878POPC   D2A70624   2.758  17.538   6.750
 8878POPC   C3A70625   2.787  17.540   7.050
 8878POPC   C4A70626   2.719  17.548   7.350
 8878POPC   C1B70627   2.748  17.283   6.450
 8878POPC   C2B70628   2.760  17.288   6.750
 8878POPC   C3B70629   2.736  17.254   7.050
 8878POPC   C4B70630   2.727  17.244   7.350
 8879POPC   NC370631  19.808  27.591   5.550
 8879POPC   PO470632  19.850  27.563   5.850
 8879POPC   GL170633  19.817  27.598   6.150
 8879POPC   GL270634  19.943  27.730   6.150
 8879POPC   C1A70635  19.813  27.581   6.450
 8879POPC   D2A70636  19.845  27.576   6.750
 8879POPC   C3A70637  19.852  27.550   7.050
 8879POPC   C4A70638  19.863  27.642   7.350
 8879POPC   C1B70639  20.001  27.792   6.450
 8879POPC   C2B70640  19.970  27.774   6.750
 8879POPC   C3B70641  19.988  27.777   7.050
 8879POPC   C4B70642  20.008  27.813   7.350
 8880POPC   NC370643  23.666  43.107   5.550
 8880POPC   PO470644  23.710  43.130   5.850
 8880POPC   GL170645  23.744  43.137   6.150
 8880POPC   GL270646  23.625  43.059   6.150
 8880POPC   C1A70647  23.747  43.142   6.450
 8880POPC   D2A70648  23.705  43.091   6.750
 8880POPC   C3A70649  23.673  43.154   7.050
 8880POPC   C4A70650  23.723  43.112   7.350
 8880POPC   C1B70651  23.449  43.085   6.450
 8880POPC   C2B70652  23.474  43.020   6.750
 8880POPC   C3B70653  23.442  42.995   7.050
 8880POPC   C4B70654  23.469  43.027   7.350
 8881POPC   NC370655   8.938  33.814   5.550
 8881POPC   PO470656   8.927  33.820   5.850
 8881POPC   GL170657   8.980  33.778   6.150
 8881POPC   GL270658   9.133  33.832   6.150
 8881POPC   C1A70659   8.943  33.818   6.450
 8881POPC   D2A70660   8.929  33.830   6.750
 8881POPC   C3A70661   8.982  33.783   7.050
 8881POPC   C4A70662   8.965  33.798   7.350
 8881POPC   C1B70663   9.225  33.724   6.450
 8881POPC   C2B70664   9.255  33.733   6.750
 8881POPC   C3B70665   9.184  33.724   7.050
 8881POPC   C4B70666   9.254  33.726   7.350
 8882POPC   NC370667  43.863  15.939   5.550
 8882POPC   PO470668  43.841  15.995   5.850
 8882POPC   GL170669  43.889  15.967   6.150
 8882POPC   GL270670  43.846  16.040   6.150
 8882POPC   C1A70671  43.870  15.967   6.450
 8882POPC   D2A70672  43.876  15.931   6.750
 8882POPC   C3A70673  43.876  15.978   7.050
 8882POPC   C4A70674  43.897  15.935   7.350
 8882POPC   C1B70675  43.710  16.126   6.450
 8882POPC   C2B70676  43.762  16.158   6.750
 8882POPC   C3B70677  43.773  16.155   7.050
 8882POPC   C4B70678  43.746  16.132   7.350
 8883POPC   NC370679   1.179  38.487   5.550
 8883POPC   PO470680   1.186  38.413   5.850
 8883POPC   GL170681   1.171  38.428   6.150
 8883POPC   GL270682   1.266  38.324   6.150
 8883POPC   C1A70683   1.203  38.484   6.450
 8883POPC   D2A70684   1.212  38.491   6.750
 8883POPC   C3A70685   1.186  38.483   7.050
 8883POPC   C4A70686   1.176  38.497   7.350
 8883POPC   C1B70687   1.240  38.254   6.450
 8883POPC   C2B70688   1.206  38.239   6.750
 8883POPC   C3B70689   1.261  38.176   7.050
 8883POPC   C4B70690   1.233  38.254   7.350
 8884POPC   NC370691  39.213  44.625   5.550
 8884POPC   PO470692  39.267  44.644   5.850
 8884POPC   GL170693  39.212  44.707   6.150
 8884POPC   GL270694  39.323  44.675   6.150
 8884POPC   C1A70695  39.277  44.654   6.450
 8884POPC   D2A70696  39.268  44.690   6.750
 8884POPC   C3A70697  39.245  44.690   7.050
 8884POPC   C4A70698  39.260  44.654   7.350
 8884POPC   C1B70699  39.434  44.729   6.450
 8884POPC   C2B70700  39.468  44.670   6.750
 8884POPC   C3B70701  39.516  44.679   7.050
 8884POPC   C4B70702  39.509  44.646   7.350
 8885POPC   NC370703  43.127  32.255   5.550
 8885POPC   PO470704  43.091  32.220   5.850
 8885POPC   GL170705  43.118  32.281   6.150
 8885POPC   GL270706  43.157  32.115   6.150
 8885POPC   C1A70707  43.108  32.247   6.450
 8885POPC   D2A70708  43.116  32.286   6.750
 8885POPC   C3A70709  43.061  32.271   7.050
 8885POPC   C4A70710  43.135  32.206   7.350
 8885POPC   C1B70711  43.252  32.085   6.450
 8885POPC   C2B70712  43.301  32.086   6.750
 8885POPC   C3B70713  43.302  32.022   7.050
 8885POPC   C4B70714  43.220  32.031   7.350
 8886POPC   NC370715  29.180  16.005   5.550
 8886POPC   PO470716  29.176  15.958   5.850
 8886POPC   GL170717  29.107  15.925   6.150
 8886POPC   GL270718  29.080  16.003   6.150
 8886POPC   C1A70719  29.138  15.978   6.450
 8886POPC   D2A70720  29.141  15.929   6.750
 8886POPC   C3A70721  29.102  15.958   7.050
 8886POPC   C4A70722  29.151  15.951   7.350
 8886POPC   C1B70723  28.915  16.049   6.450
 8886POPC   C2B70724  28.914  16.064   6.750
 8886POPC   C3B70725  28.951  16.013   7.050
 8886POPC   C4B70726  28.892  16.028   7.350
 8887POPC   NC370727  43.868  21.384   5.550
 8887POPC   PO470728  43.910  21.390   5.850
 8887POPC   GL170729  43.891  21.354   6.150
 8887POPC   GL270730  43.754  21.379   6.150
 8887POPC   C1A70731  43.876  21.399   6.450
 8887POPC   D2A70732  43.883  21.375   6.750
 8887POPC   C3A70733  43.893  21.386   7.050
 8887POPC   C4A70734  43.886  21.434   7.350
 8887POPC   C1B70735  43.654  21.373   6.450
 8887POPC   C2B70736  43.654  21.373   6.750
 8887POPC   C3B70737  43.633  21.454   7.050
 8887POPC   C4B70738  43.617  21.438   7.350
 8888POPC   NC370739  34.552  39.218   5.550
 8888POPC   PO470740  34.573  39.261   5.850
 8888POPC   GL170741  34.618  39.265   6.150
 8888POPC   GL270742  34.592  39.314   6.150
 8888POPC   C1A70743  34.545  39.238   6.450
 8888POPC   D2A70744  34.576  39.262   6.750
 8888POPC   C3A70745  34.580  39.183   7.050
 8888POPC   C4A70746  34.582  39.181   7.350
 8888POPC   C1B70747  34.633  39.432   6.450
 8888POPC   C2B70748  34.682  39.487   6.750
 8888POPC   C3B70749  34.618  39.502   7.050
 8888POPC   C4B70750  34.695  39.458   7.350
 8889POPC   NC370751   0.402  12.808   5.550
 8889POPC   PO470752   0.481  12.876   5.850
 8889POPC   GL170753   0.422  12.898   6.150
 8889POPC   GL270754   0.370  12.715   6.150
 8889POPC   C1A70755   0.452  12.805   6.450
 8889POPC   D2A70756   0.438  12.872   6.750
 8889POPC   C3A70757   0.424  12.877   7.050
 8889POPC   C4A70758   0.476  12.899   7.350
 8889POPC   C1B70759   0.440  12.622   6.450
 8889POPC   C2B70760   0.400  12.609   6.750
 8889POPC   C3B70761   0.437  12.588   7.050
 8889POPC   C4B70762   0.406  12.638   7.350
 8890POPC   NC370763  15.160  19.812   5.550
 8890POPC   PO470764  15.195  19.814   5.850
 8890POPC   GL170765  15.198  19.873   6.150
 8890POPC   GL270766  15.089  19.948   6.150
 8890POPC   C1A70767  15.209  19.831   6.450
 8890POPC   D2A70768  15.155  19.859   6.750
 8890POPC   C3A70769  15.212  19.826   7.050
 8890POPC   C4A70770  15.194  19.866   7.350
 8890POPC   C1B70771  15.032  20.016   6.450
 8890POPC   C2B70772  15.041  20.045   6.750
 8890POPC   C3B70773  15.025  20.081   7.050
 8890POPC   C4B70774  15.078  19.993   7.350
 8891POPC   NC370775  41.600  17.466   5.550
 8891POPC   PO470776  41.517  17.505   5.850
 8891POPC   GL170777  41.571  17.536   6.150
 8891POPC   GL270778  41.472  17.353   6.150
 8891POPC   C1A70779  41.586  17.505   6.450
 8891POPC   D2A70780  41.608  17.542   6.750
 8891POPC   C3A70781  41.582  17.503   7.050
 8891POPC   C4A70782  41.537  17.505   7.350
 8891POPC   C1B70783  41.520  17.242   6.450
 8891POPC   C2B70784  41.516  17.293   6.750
 8891POPC   C3B70785  41.446  17.233   7.050
 8891POPC   C4B70786  41.443  17.298   7.350
 8892POPC   NC370787  19.806   0.412   5.550
 8892POPC   PO470788  19.847   0.391   5.850
 8892POPC   GL170789  19.838   0.460   6.150
 8892POPC   GL270790  19.940   0.327   6.150
 8892POPC   C1A70791  19.796   0.481   6.450
 8892POPC   D2A70792  19.803   0.413   6.750
 8892POPC   C3A70793  19.791   0.446   7.050
 8892POPC   C4A70794  19.880   0.417   7.350
 8892POPC   C1B70795  19.975   0.232   6.450
 8892POPC   C2B70796  19.971   0.234   6.750
 8892POPC   C3B70797  19.995   0.282   7.050
 8892POPC   C4B70798  20.028   0.239   7.350
 8893POPC   NC370799  12.875  27.580   5.550
 8893POPC   PO470800  12.807  27.591   5.850
 8893POPC   GL170801  12.829  27.560   6.150
 8893POPC   GL270802  12.717  27.556   6.150
 8893POPC   C1A70803  12.838  27.641   6.450
 8893POPC   D2A70804  12.839  27.566   6.750
 8893POPC   C3A70805  12.843  27.561   7.050
 8893POPC   C4A70806  12.815  27.577   7.350
 8893POPC   C1B70807  12.589  27.560   6.450
 8893POPC   C2B70808  12.630  27.588   6.750
 8893POPC   C3B70809  12.559  27.625   7.050
 8893POPC   C4B70810  12.645  27.580   7.350
 8894POPC   NC370811  34.570  12.093   5.550
 8894POPC   PO470812  34.539  12.051   5.850
 8894POPC   GL170813  34.568  12.083   6.150
 8894POPC   GL270814  34.707  12.111   6.150
 8894POPC   C1A70815  34.600  12.052   6.450
 8894POPC   D2A70816  34.531  12.112   6.750
 8894POPC   C3A70817  34.526  12.030   7.050
 8894POPC   C4A70818  34.552  12.058   7.350
 8894POPC   C1B70819  34.813  12.045   6.450
 8894POPC   C2B70820  34.842  12.044   6.750
 8894POPC   C3B70821  34.823  12.048   7.050
 8894POPC   C4B70822  34.853  12.042   7.350
 8895POPC   NC370823   2.729  35.343   5.550
 8895POPC   PO470824   2.800  35.306   5.850
 8895POPC   GL170825   2.761  35.374   6.150
 8895POPC   GL270826   2.921  35.364   6.150
 8895POPC   C1A70827   2.804  35.324   6.450
 8895POPC   D2A70828   2.797  35.364   6.750
 8895POPC   C3A70829   2.759  35.370   7.050
 8895POPC   C4A70830   2.773  35.357   7.350
 8895POPC   C1B70831   2.959  35.331   6.450
 8895POPC   C2B70832   3.028  35.278   6.750
 8895POPC   C3B70833   3.008  35.312   7.050
 8895POPC   C4B70834   3.019  35.249   7.350
 8896POPC   NC370835  43.103  27.590   5.550
 8896POPC   PO470836  43.135  27.568   5.850
 8896POPC   GL170837  43.064  27.546   6.150
 8896POPC   GL270838  43.134  27.455   6.150
 8896POPC   C1A70839  43.109  27.572   6.450
 8896POPC   D2A70840  43.083  27.640   6.750
 8896POPC   C3A70841  43.144  27.557   7.050
 8896POPC   C4A70842  43.094  27.589   7.350
 8896POPC   C1B70843  43.243  27.355   6.450
 8896POPC   C2B70844  43.237  27.358   6.750
 8896POPC   C3B70845  43.187  27.373   7.050
 8896POPC   C4B70846  43.213  27.408   7.350
 8897POPC   NC370847  41.519  26.090   5.550
 8897POPC   PO470848  41.512  26.028   5.850
 8897POPC   GL170849  41.603  26.052   6.150
 8897POPC   GL270850  41.640  26.082   6.150
 8897POPC   C1A70851  41.510  26.024   6.450
 8897POPC   D2A70852  41.544  26.051   6.750
 8897POPC   C3A70853  41.518  26.045   7.050
 8897POPC   C4A70854  41.578  26.081   7.350
 8897POPC   C1B70855  41.715  26.182   6.450
 8897POPC   C2B70856  41.759  26.188   6.750
 8897POPC   C3B70857  41.751  26.232   7.050
 8897POPC   C4B70858  41.778  26.230   7.350
 8898POPC   NC370859  27.573   5.131   5.550
 8898POPC   PO470860  27.601   5.098   5.850
 8898POPC   GL170861  27.561   5.113   6.150
 8898POPC   GL270862  27.678   5.223   6.150
 8898POPC   C1A70863  27.567   5.115   6.450
 8898POPC   D2A70864  27.558   5.106   6.750
 8898POPC   C3A70865  27.578   5.076   7.050
 8898POPC   C4A70866  27.574   5.138   7.350
 8898POPC   C1B70867  27.720   5.312   6.450
 8898POPC   C2B70868  27.769   5.275   6.750
 8898POPC   C3B70869  27.746   5.226   7.050
 8898POPC   C4B70870  27.734   5.286   7.350
 8899POPC   NC370871  28.324   3.574   5.550
 8899POPC   PO470872  28.362   3.589   5.850
 8899POPC   GL170873  28.403   3.517   6.150
 8899POPC   GL270874  28.330   3.445   6.150
 8899POPC   C1A70875  28.366   3.587   6.450
 8899POPC   D2A70876  28.385   3.504   6.750
 8899POPC   C3A70877  28.344   3.587   7.050
 8899POPC   C4A70878  28.376   3.494   7.350
 8899POPC   C1B70879  28.371   3.269   6.450
 8899POPC   C2B70880  28.334   3.277   6.750
 8899POPC   C3B70881  28.311   3.266   7.050
 8899POPC   C4B70882  28.318   3.315   7.350
 8900POPC   NC370883  10.551  13.676   5.550
 8900POPC   PO470884  10.530  13.660   5.850
 8900POPC   GL170885  10.500  13.621   6.150
 8900POPC   GL270886  10.379  13.725   6.150
 8900POPC   C1A70887  10.498  13.580   6.450
 8900POPC   D2A70888  10.490  13.657   6.750
 8900POPC   C3A70889  10.563  13.640   7.050
 8900POPC   C4A70890  10.479  13.645   7.350
 8900POPC   C1B70891  10.342  13.787   6.450
 8900POPC   C2B70892  10.300  13.775   6.750
 8900POPC   C3B70893  10.309  13.837   7.050
 8900POPC   C4B70894  10.353  13.801   7.350
 8901POPC   NC370895  10.548  11.339   5.550
 8901POPC   PO470896  10.518  11.277   5.850
 8901POPC   GL170897  10.488  11.320   6.150
 8901POPC   GL270898  10.435  11.232   6.150
 8901POPC   C1A70899  10.562  11.271   6.450
 8901POPC   D2A70900  10.538  11.333   6.750
 8901POPC   C3A70901  10.530  11.257   7.050
 8901POPC   C4A70902  10.510  11.323   7.350
 8901POPC   C1B70903  10.440  11.037   6.450
 8901POPC   C2B70904  10.414  11.092   6.750
 8901POPC   C3B70905  10.430  11.088   7.050
 8901POPC   C4B70906  10.423  11.088   7.350
 8902POPC   NC370907  37.646  37.633   5.550
 8902POPC   PO470908  37.651  37.727   5.850
 8902POPC   GL170909  37.659  37.679   6.150
 8902POPC   GL270910  37.525  37.727   6.150
 8902POPC   C1A70911  37.698  37.691   6.450
 8902POPC   D2A70912  37.638  37.712   6.750
 8902POPC   C3A70913  37.684  37.711   7.050
 8902POPC   C4A70914  37.686  37.631   7.350
 8902POPC   C1B70915  37.435  37.843   6.450
 8902POPC   C2B70916  37.426  37.832   6.750
 8902POPC   C3B70917  37.417  37.745   7.050
 8902POPC   C4B70918  37.479  37.828   7.350
 8903POPC   NC370919  33.815  36.883   5.550
 8903POPC   PO470920  33.806  36.869   5.850
 8903POPC   GL170921  33.771  36.916   6.150
 8903POPC   GL270922  33.926  36.864   6.150
 8903POPC   C1A70923  33.812  36.917   6.450
 8903POPC   D2A70924  33.783  36.938   6.750
 8903POPC   C3A70925  33.844  36.912   7.050
 8903POPC   C4A70926  33.846  36.922   7.350
 8903POPC   C1B70927  33.996  36.801   6.450
 8903POPC   C2B70928  34.034  36.881   6.750
 8903POPC   C3B70929  34.008  36.856   7.050
 8903POPC   C4B70930  34.023  36.867   7.350
 8904POPC   NC370931  26.072  26.080   5.550
 8904POPC   PO470932  26.069  26.009   5.850
 8904POPC   GL170933  26.054  26.040   6.150
 8904POPC   GL270934  26.165  26.047   6.150
 8904POPC   C1A70935  26.021  26.020   6.450
 8904POPC   D2A70936  26.000  26.064   6.750
 8904POPC   C3A70937  26.051  26.023   7.050
 8904POPC   C4A70938  25.994  26.086   7.350
 8904POPC   C1B70939  26.259  25.972   6.450
 8904POPC   C2B70940  26.278  25.950   6.750
 8904POPC   C3B70941  26.290  25.973   7.050
 8904POPC   C4B70942  26.301  26.001   7.350
 8905POPC   NC370943  35.319   5.862   5.550
 8905POPC   PO470944  35.368   5.904   5.850
 8905POPC   GL170945  35.323   5.907   6.150
 8905POPC   GL270946  35.258   5.988   6.150
 8905POPC   C1A70947  35.322   5.830   6.450
 8905POPC   D2A70948  35.367   5.826   6.750
 8905POPC   C3A70949  35.382   5.917   7.050
 8905POPC   C4A70950  35.324   5.866   7.350
 8905POPC   C1B70951  35.125   6.007   6.450
 8905POPC   C2B70952  35.120   6.002   6.750
 8905POPC   C3B70953  35.216   6.037   7.050
 8905POPC   C4B70954  35.198   6.017   7.350
 8906POPC   NC370955  39.259  29.924   5.550
 8906POPC   PO470956  39.270  29.942   5.850
 8906POPC   GL170957  39.271  29.943   6.150
 8906POPC   GL270958  39.206  30.047   6.150
 8906POPC   C1A70959  39.279  29.905   6.450
 8906POPC   D2A70960  39.274  29.909   6.750
 8906POPC   C3A70961  39.248  29.961   7.050
 8906POPC   C4A70962  39.276  29.904   7.350
 8906POPC   C1B70963  39.216  30.149   6.450
 8906POPC   C2B70964  39.251  30.191   6.750
 8906POPC   C3B70965  39.235  30.199   7.050
 8906POPC   C4B70966  39.234  30.174   7.350
 8907POPC   NC370967  39.261  30.741   5.550
 8907POPC   PO470968  39.242  30.712   5.850
 8907POPC   GL170969  39.225  30.667   6.150
 8907POPC   GL270970  39.153  30.811   6.150
 8907POPC   C1A70971  39.280  30.679   6.450
 8907POPC   D2A70972  39.279  30.676   6.750
 8907POPC   C3A70973  39.220  30.714   7.050
 8907POPC   C4A70974  39.229  30.738   7.350
 8907POPC   C1B70975  39.107  30.964   6.450
 8907POPC   C2B70976  39.120  30.874   6.750
 8907POPC   C3B70977  39.067  30.940   7.050
 8907POPC   C4B70978  39.105  30.943   7.350
 8908POPC   NC370979   6.660  34.586   5.550
 8908POPC   PO470980   6.677  34.624   5.850
 8908POPC   GL170981   6.600  34.622   6.150
 8908POPC   GL270982   6.646  34.428   6.150
 8908POPC   C1A70983   6.619  34.551   6.450
 8908POPC   D2A70984   6.676  34.551   6.750
 8908POPC   C3A70985   6.662  34.553   7.050
 8908POPC   C4A70986   6.667  34.589   7.350
 8908POPC   C1B70987   6.646  34.337   6.450
 8908POPC   C2B70988   6.586  34.347   6.750
 8908POPC   C3B70989   6.639  34.376   7.050
 8908POPC   C4B70990   6.617  34.341   7.350
 8909POPC   NC370991  38.446  44.657   5.550
 8909POPC   PO470992  38.416  44.665   5.850
 8909POPC   GL170993  38.406  44.616   6.150
 8909POPC   GL270994  38.481  44.828   6.150
 8909POPC   C1A70995  38.427  44.670   6.450
 8909POPC   D2A70996  38.443  44.618   6.750
 8909POPC   C3A70997  38.487  44.615   7.050
 8909POPC   C4A70998  38.464  44.648   7.350
 8909POPC   C1B70999  38.514  44.952   6.450
 8909POPC   C2B71000  38.537  44.924   6.750
 8909POPC   C3B71001  38.518  44.913   7.050
 8909POPC   C4B71002  38.540  44.876   7.350
 8910POPC   NC371003  30.652   3.533   5.550
 8910POPC   PO471004  30.734   3.496   5.850
 8910POPC   GL171005  30.712   3.518   6.150
 8910POPC   GL271006  30.696   3.406   6.150
 8910POPC   C1A71007  30.687   3.543   6.450
 8910POPC   D2A71008  30.648   3.572   6.750
 8910POPC   C3A71009  30.712   3.562   7.050
 8910POPC   C4A71010  30.720   3.588   7.350
 8910POPC   C1B71011  30.742   3.271   6.450
 8910POPC   C2B71012  30.697   3.255   6.750
 8910POPC   C3B71013  30.693   3.334   7.050
 8910POPC   C4B71014  30.655   3.309   7.350
 8911POPC   NC371015  29.958  34.528   5.550
 8911POPC   PO471016  29.941  34.602   5.850
 8911POPC   GL171017  29.892  34.619   6.150
 8911POPC   GL271018  29.943  34.653   6.150
 8911POPC   C1A71019  29.951  34.552   6.450
 8911POPC   D2A71020  29.932  34.553   6.750
 8911POPC   C3A71021  29.938  34.535   7.050
 8911POPC   C4A71022  29.953  34.594   7.350
 8911POPC   C1B71023  29.958  34.785   6.450
 8911POPC   C2B71024  30.011  34.792   6.750
 8911POPC   C3B71025  29.950  34.797   7.050
 8911POPC   C4B71026  29.931  34.826   7.350
 8912POPC   NC371027  27.557  37.685   5.550
 8912POPC   PO471028  27.618  37.670   5.850
 8912POPC   GL171029  27.588  37.729   6.150
 8912POPC   GL271030  27.564  37.771   6.150
 8912POPC   C1A71031  27.585  37.710   6.450
 8912POPC   D2A71032  27.545  37.632   6.750
 8912POPC   C3A71033  27.592  37.727   7.050
 8912POPC   C4A71034  27.559  37.709   7.350
 8912POPC   C1B71035  27.439  37.879   6.450
 8912POPC   C2B71036  27.474  37.926   6.750
 8912POPC   C3B71037  27.497  37.917   7.050
 8912POPC   C4B71038  27.478  37.936   7.350
 8913POPC   NC371039  29.137  33.827   5.550
 8913POPC   PO471040  29.118  33.813   5.850
 8913POPC   GL171041  29.114  33.849   6.150
 8913POPC   GL271042  29.153  33.909   6.150
 8913POPC   C1A71043  29.178  33.761   6.450
 8913POPC   D2A71044  29.179  33.784   6.750
 8913POPC   C3A71045  29.112  33.832   7.050
 8913POPC   C4A71046  29.122  33.816   7.350
 8913POPC   C1B71047  29.158  34.061   6.450
 8913POPC   C2B71048  29.163  34.060   6.750
 8913POPC   C3B71049  29.209  34.077   7.050
 8913POPC   C4B71050  29.244  34.001   7.350
 8914POPC   NC371051  36.888  13.590   5.550
 8914POPC   PO471052  36.888  13.609   5.850
 8914POPC   GL171053  36.941  13.651   6.150
 8914POPC   GL271054  36.791  13.689   6.150
 8914POPC   C1A71055  36.900  13.626   6.450
 8914POPC   D2A71056  36.931  13.596   6.750
 8914POPC   C3A71057  36.860  13.600   7.050
 8914POPC   C4A71058  36.888  13.655   7.350
 8914POPC   C1B71059  36.731  13.788   6.450
 8914POPC   C2B71060  36.684  13.703   6.750
 8914POPC   C3B71061  36.692  13.738   7.050
 8914POPC   C4B71062  36.711  13.734   7.350
 8915POPC   NC371063  14.422   1.210   5.550
 8915POPC   PO471064  14.407   1.205   5.850
 8915POPC   GL171065  14.401   1.164   6.150
 8915POPC   GL271066  14.325   1.257   6.150
 8915POPC   C1A71067  14.385   1.198   6.450
 8915POPC   D2A71068  14.354   1.201   6.750
 8915POPC   C3A71069  14.433   1.201   7.050
 8915POPC   C4A71070  14.379   1.175   7.350
 8915POPC   C1B71071  14.165   1.331   6.450
 8915POPC   C2B71072  14.184   1.345   6.750
 8915POPC   C3B71073  14.187   1.348   7.050
 8915POPC   C4B71074  14.239   1.400   7.350
 8916POPC   NC371075  42.322  29.912   5.550
 8916POPC   PO471076  42.339  29.893   5.850
 8916POPC   GL171077  42.332  29.899   6.150
 8916POPC   GL271078  42.228  29.840   6.150
 8916POPC   C1A71079  42.300  29.971   6.450
 8916POPC   D2A71080  42.359  29.940   6.750
 8916POPC   C3A71081  42.372  29.890   7.050
 8916POPC   C4A71082  42.324  29.967   7.350
 8916POPC   C1B71083  42.178  29.776   6.450
 8916POPC   C2B71084  42.152  29.770   6.750
 8916POPC   C3B71085  42.129  29.734   7.050
 8916POPC   C4B71086  42.129  29.774   7.350
 8917POPC   NC371087  20.658  20.601   5.550
 8917POPC   PO471088  20.594  20.591   5.850
 8917POPC   GL171089  20.652  20.641   6.150
 8917POPC   GL271090  20.652  20.723   6.150
 8917POPC   C1A71091  20.610  20.566   6.450
 8917POPC   D2A71092  20.645  20.645   6.750
 8917POPC   C3A71093  20.569  20.652   7.050
 8917POPC   C4A71094  20.609  20.624   7.350
 8917POPC   C1B71095  20.741  20.814   6.450
 8917POPC   C2B71096  20.738  20.862   6.750
 8917POPC   C3B71097  20.719  20.872   7.050
 8917POPC   C4B71098  20.758  20.787   7.350
 8918POPC   NC371099  23.712  22.148   5.550
 8918POPC   PO471100  23.664  22.138   5.850
 8918POPC   GL171101  23.700  22.183   6.150
 8918POPC   GL271102  23.787  22.019   6.150
 8918POPC   C1A71103  23.672  22.144   6.450
 8918POPC   D2A71104  23.693  22.128   6.750
 8918POPC   C3A71105  23.730  22.114   7.050
 8918POPC   C4A71106  23.675  22.159   7.350
 8918POPC   C1B71107  23.815  21.898   6.450
 8918POPC   C2B71108  23.837  21.882   6.750
 8918POPC   C3B71109  23.793  21.904   7.050
 8918POPC   C4B71110  23.767  21.944   7.350
 8919POPC   NC371111  30.694   1.955   5.550
 8919POPC   PO471112  30.667   2.003   5.850
 8919POPC   GL171113  30.678   1.949   6.150
 8919POPC   GL271114  30.784   1.954   6.150
 8919POPC   C1A71115  30.730   1.996   6.450
 8919POPC   D2A71116  30.746   1.956   6.750
 8919POPC   C3A71117  30.696   1.976   7.050
 8919POPC   C4A71118  30.694   2.004   7.350
 8919POPC   C1B71119  30.928   1.943   6.450
 8919POPC   C2B71120  30.911   1.954   6.750
 8919POPC   C3B71121  30.972   2.031   7.050
 8919POPC   C4B71122  30.941   1.952   7.350
 8920POPC   NC371123  12.843   1.195   5.550
 8920POPC   PO471124  12.815   1.245   5.850
 8920POPC   GL171125  12.887   1.175   6.150
 8920POPC   GL271126  12.765   1.265   6.150
 8920POPC   C1A71127  12.864   1.242   6.450
 8920POPC   D2A71128  12.882   1.244   6.750
 8920POPC   C3A71129  12.855   1.206   7.050
 8920POPC   C4A71130  12.881   1.261   7.350
 8920POPC   C1B71131  12.570   1.262   6.450
 8920POPC   C2B71132  12.599   1.309   6.750
 8920POPC   C3B71133  12.623   1.293   7.050
 8920POPC   C4B71134  12.626   1.244   7.350
 8921POPC   NC371135  40.740  25.225   5.550
 8921POPC   PO471136  40.812  25.267   5.850
 8921POPC   GL171137  40.817  25.239   6.150
 8921POPC   GL271138  40.889  25.188   6.150
 8921POPC   C1A71139  40.794  25.247   6.450
 8921POPC   D2A71140  40.776  25.257   6.750
 8921POPC   C3A71141  40.746  25.267   7.050
 8921POPC   C4A71142  40.771  25.232   7.350
 8921POPC   C1B71143  41.009  25.179   6.450
 8921POPC   C2B71144  41.013  25.240   6.750
 8921POPC   C3B71145  41.059  25.190   7.050
 8921POPC   C4B71146  41.049  25.199   7.350
 8922POPC   NC371147  44.680  14.405   5.550
 8922POPC   PO471148  44.694  14.418   5.850
 8922POPC   GL171149  44.684  14.452   6.150
 8922POPC   GL271150  44.776  14.400   6.150
 8922POPC   C1A71151  44.629  14.397   6.450
 8922POPC   D2A71152  44.672  14.392   6.750
 8922POPC   C3A71153  44.631  14.400   7.050
 8922POPC   C4A71154  44.657  14.354   7.350
 8922POPC   C1B71155  44.894  14.289   6.450
 8922POPC   C2B71156  44.936  14.259   6.750
 8922POPC   C3B71157  44.930  14.325   7.050
 8922POPC   C4B71158  44.844  14.348   7.350
 8923POPC   NC371159   9.772  15.191   5.550
 8923POPC   PO471160   9.736  15.143   5.850
 8923POPC   GL171161   9.791  15.157   6.150
 8923POPC   GL271162   9.749  15.344   6.150
 8923POPC   C1A71163   9.730  15.147   6.450
 8923POPC   D2A71164   9.739  15.192   6.750
 8923POPC   C3A71165   9.735  15.198   7.050
 8923POPC   C4A71166   9.762  15.213   7.350
 8923POPC   C1B71167   9.719  15.436   6.450
 8923POPC   C2B71168   9.692  15.443   6.750
 8923POPC   C3B71169   9.767  15.458   7.050
 8923POPC   C4B71170   9.712  15.451   7.350
 8924POPC   NC371171  33.017  10.544   5.550
 8924POPC   PO471172  32.981  10.507   5.850
 8924POPC   GL171173  33.068  10.512   6.150
 8924POPC   GL271174  33.127  10.392   6.150
 8924POPC   C1A71175  33.002  10.519   6.450
 8924POPC   D2A71176  33.049  10.487   6.750
 8924POPC   C3A71177  33.046  10.531   7.050
 8924POPC   C4A71178  32.993  10.516   7.350
 8924POPC   C1B71179  33.173  10.332   6.450
 8924POPC   C2B71180  33.189  10.348   6.750
 8924POPC   C3B71181  33.199  10.300   7.050
 8924POPC   C4B71182  33.134  10.267   7.350
 8925POPC   NC371183  22.131  27.571   5.550
 8925POPC   PO471184  22.168  27.578   5.850
 8925POPC   GL171185  22.167  27.625   6.150
 8925POPC   GL271186  22.191  27.475   6.150
 8925POPC   C1A71187  22.148  27.559   6.450
 8925POPC   D2A71188  22.141  27.603   6.750
 8925POPC   C3A71189  22.186  27.637   7.050
 8925POPC   C4A71190  22.182  27.569   7.350
 8925POPC   C1B71191  22.193  27.357   6.450
 8925POPC   C2B71192  22.249  27.329   6.750
 8925POPC   C3B71193  22.211  27.378   7.050
 8925POPC   C4B71194  22.184  27.305   7.350
 8926POPC   NC371195  11.321   2.731   5.550
 8926POPC   PO471196  11.257   2.813   5.850
 8926POPC   GL171197  11.327   2.732   6.150
 8926POPC   GL271198  11.160   2.826   6.150
 8926POPC   C1A71199  11.320   2.753   6.450
 8926POPC   D2A71200  11.281   2.740   6.750
 8926POPC   C3A71201  11.339   2.812   7.050
 8926POPC   C4A71202  11.253   2.778   7.350
 8926POPC   C1B71203  11.071   2.881   6.450
 8926POPC   C2B71204  11.085   2.886   6.750
 8926POPC   C3B71205  11.092   2.911   7.050
 8926POPC   C4B71206  11.106   2.870   7.350
 8927POPC   NC371207  38.425  41.582   5.550
 8927POPC   PO471208  38.409  41.514   5.850
 8927POPC   GL171209  38.425  41.599   6.150
 8927POPC   GL271210  38.563  41.470   6.150
 8927POPC   C1A71211  38.434  41.605   6.450
 8927POPC   D2A71212  38.494  41.540   6.750
 8927POPC   C3A71213  38.447  41.511   7.050
 8927POPC   C4A71214  38.406  41.510   7.350
 8927POPC   C1B71215  38.669  41.480   6.450
 8927POPC   C2B71216  38.698  41.462   6.750
 8927POPC   C3B71217  38.657  41.499   7.050
 8927POPC   C4B71218  38.731  41.417   7.350
 8928POPC   NC371219   3.582  32.987   5.550
 8928POPC   PO471220   3.552  33.055   5.850
 8928POPC   GL171221   3.499  32.996   6.150
 8928POPC   GL271222   3.438  32.870   6.150
 8928POPC   C1A71223   3.518  32.999   6.450
 8928POPC   D2A71224   3.543  33.040   6.750
 8928POPC   C3A71225   3.512  33.044   7.050
 8928POPC   C4A71226   3.497  33.001   7.350
 8928POPC   C1B71227   3.461  32.764   6.450
 8928POPC   C2B71228   3.451  32.857   6.750
 8928POPC   C3B71229   3.451  32.828   7.050
 8928POPC   C4B71230   3.415  32.788   7.350
 8929POPC   NC371231  18.309  22.982   5.550
 8929POPC   PO471232  18.289  22.914   5.850
 8929POPC   GL171233  18.316  22.956   6.150
 8929POPC   GL271234  18.370  22.971   6.150
 8929POPC   C1A71235  18.283  22.898   6.450
 8929POPC   D2A71236  18.320  22.892   6.750
 8929POPC   C3A71237  18.257  22.965   7.050
 8929POPC   C4A71238  18.291  22.893   7.350
 8929POPC   C1B71239  18.496  23.056   6.450
 8929POPC   C2B71240  18.552  23.024   6.750
 8929POPC   C3B71241  18.553  23.036   7.050
 8929POPC   C4B71242  18.491  23.076   7.350
 8930POPC   NC371243  18.261  17.556   5.550
 8930POPC   PO471244  18.236  17.461   5.850
 8930POPC   GL171245  18.269  17.523   6.150
 8930POPC   GL271246  18.176  17.449   6.150
 8930POPC   C1A71247  18.327  17.525   6.450
 8930POPC   D2A71248  18.247  17.459   6.750
 8930POPC   C3A71249  18.294  17.509   7.050
 8930POPC   C4A71250  18.316  17.547   7.350
 8930POPC   C1B71251  18.031  17.352   6.450
 8930POPC   C2B71252  18.065  17.330   6.750
 8930POPC   C3B71253  18.076  17.381   7.050
 8930POPC   C4B71254  18.092  17.409   7.350
 8931POPC   NC371255  25.296  39.188   5.550
 8931POPC   PO471256  25.258  39.194   5.850
 8931POPC   GL171257  25.273  39.245   6.150
 8931POPC   GL271258  25.102  39.201   6.150
 8931POPC   C1A71259  25.241  39.193   6.450
 8931POPC   D2A71260  25.243  39.225   6.750
 8931POPC   C3A71261  25.245  39.187   7.050
 8931POPC   C4A71262  25.235  39.218   7.350
 8931POPC   C1B71263  25.036  39.203   6.450
 8931POPC   C2B71264  25.025  39.202   6.750
 8931POPC   C3B71265  25.021  39.200   7.050
 8931POPC   C4B71266  25.032  39.227   7.350
 8932POPC   NC371267  31.497  15.973   5.550
 8932POPC   PO471268  31.520  15.976   5.850
 8932POPC   GL171269  31.434  15.945   6.150
 8932POPC   GL271270  31.413  15.869   6.150
 8932POPC   C1A71271  31.450  15.977   6.450
 8932POPC   D2A71272  31.460  15.949   6.750
 8932POPC   C3A71273  31.431  16.001   7.050
 8932POPC   C4A71274  31.519  15.992   7.350
 8932POPC   C1B71275  31.251  15.799   6.450
 8932POPC   C2B71276  31.269  15.859   6.750
 8932POPC   C3B71277  31.272  15.865   7.050
 8932POPC   C4B71278  31.298  15.822   7.350
 8933POPC   NC371279  12.088  14.400   5.550
 8933POPC   PO471280  12.108  14.401   5.850
 8933POPC   GL171281  12.106  14.397   6.150
 8933POPC   GL271282  11.902  14.354   6.150
 8933POPC   C1A71283  12.047  14.448   6.450
 8933POPC   D2A71284  12.030  14.377   6.750
 8933POPC   C3A71285  12.074  14.357   7.050
 8933POPC   C4A71286  12.032  14.392   7.350
 8933POPC   C1B71287  11.822  14.370   6.450
 8933POPC   C2B71288  11.826  14.420   6.750
 8933POPC   C3B71289  11.858  14.428   7.050
 8933POPC   C4B71290  11.787  14.452   7.350
 8934POPC   NC371291  19.064  16.741   5.550
 8934POPC   PO471292  19.045  16.759   5.850
 8934POPC   GL171293  19.024  16.684   6.150
 8934POPC   GL271294  19.119  16.579   6.150
 8934POPC   C1A71295  19.061  16.709   6.450
 8934POPC   D2A71296  19.081  16.751   6.750
 8934POPC   C3A71297  19.089  16.780   7.050
 8934POPC   C4A71298  19.086  16.694   7.350
 8934POPC   C1B71299  19.158  16.513   6.450
 8934POPC   C2B71300  19.113  16.444   6.750
 8934POPC   C3B71301  19.116  16.517   7.050
 8934POPC   C4B71302  19.086  16.523   7.350
 8935POPC   NC371303   8.160  38.495   5.550
 8935POPC   PO471304   8.179  38.499   5.850
 8935POPC   GL171305   8.209  38.413   6.150
 8935POPC   GL271306   8.093  38.552   6.150
 8935POPC   C1A71307   8.162  38.425   6.450
 8935POPC   D2A71308   8.185  38.455   6.750
 8935POPC   C3A71309   8.180  38.429   7.050
 8935POPC   C4A71310   8.199  38.441   7.350
 8935POPC   C1B71311   8.045  38.603   6.450
 8935POPC   C2B71312   8.071  38.683   6.750
 8935POPC   C3B71313   8.017  38.675   7.050
 8935POPC   C4B71314   8.014  38.672   7.350
 8936POPC   NC371315  14.443  43.125   5.550
 8936POPC   PO471316  14.453  43.097   5.850
 8936POPC   GL171317  14.357  43.114   6.150
 8936POPC   GL271318  14.404  43.245   6.150
 8936POPC   C1A71319  14.408  43.152   6.450
 8936POPC   D2A71320  14.409  43.088   6.750
 8936POPC   C3A71321  14.398  43.129   7.050
 8936POPC   C4A71322  14.451  43.114   7.350
 8936POPC   C1B71323  14.514  43.360   6.450
 8936POPC   C2B71324  14.489  43.392   6.750
 8936POPC   C3B71325  14.440  43.351   7.050
 8936POPC   C4B71326  14.518  43.313   7.350
 8937POPC   NC371327  13.589  43.126   5.550
 8937POPC   PO471328  13.658  43.149   5.850
 8937POPC   GL171329  13.585  43.151   6.150
 8937POPC   GL271330  13.744  43.059   6.150
 8937POPC   C1A71331  13.677  43.135   6.450
 8937POPC   D2A71332  13.631  43.076   6.750
 8937POPC   C3A71333  13.600  43.093   7.050
 8937POPC   C4A71334  13.653  43.142   7.350
 8937POPC   C1B71335  13.898  43.051   6.450
 8937POPC   C2B71336  13.841  43.032   6.750
 8937POPC   C3B71337  13.889  43.072   7.050
 8937POPC   C4B71338  13.867  43.058   7.350
 8938POPC   NC371339  43.084  11.314   5.550
 8938POPC   PO471340  43.099  11.267   5.850
 8938POPC   GL171341  43.114  11.272   6.150
 8938POPC   GL271342  43.260  11.252   6.150
 8938POPC   C1A71343  43.142  11.301   6.450
 8938POPC   D2A71344  43.082  11.283   6.750
 8938POPC   C3A71345  43.133  11.324   7.050
 8938POPC   C4A71346  43.086  11.259   7.350
 8938POPC   C1B71347  43.381  11.287   6.450
 8938POPC   C2B71348  43.334  11.250   6.750
 8938POPC   C3B71349  43.367  11.228   7.050
 8938POPC   C4B71350  43.356  11.274   7.350
 8939POPC   NC371351  36.941  33.027   5.550
 8939POPC   PO471352  36.899  32.996   5.850
 8939POPC   GL171353  36.905  33.035   6.150
 8939POPC   GL271354  37.052  33.027   6.150
 8939POPC   C1A71355  36.932  33.009   6.450
 8939POPC   D2A71356  36.944  33.031   6.750
 8939POPC   C3A71357  36.865  32.996   7.050
 8939POPC   C4A71358  36.858  33.072   7.350
 8939POPC   C1B71359  37.122  32.945   6.450
 8939POPC   C2B71360  37.143  32.956   6.750
 8939POPC   C3B71361  37.187  32.990   7.050
 8939POPC   C4B71362  37.113  32.982   7.350
 8940POPC   NC371363  12.825   7.422   5.550
 8940POPC   PO471364  12.878   7.410   5.850
 8940POPC   GL171365  12.853   7.431   6.150
 8940POPC   GL271366  12.744   7.420   6.150
 8940POPC   C1A71367  12.891   7.438   6.450
 8940POPC   D2A71368  12.832   7.449   6.750
 8940POPC   C3A71369  12.806   7.433   7.050
 8940POPC   C4A71370  12.833   7.406   7.350
 8940POPC   C1B71371  12.615   7.481   6.450
 8940POPC   C2B71372  12.588   7.457   6.750
 8940POPC   C3B71373  12.626   7.500   7.050
 8940POPC   C4B71374  12.588   7.529   7.350
 8941POPC   NC371375  32.216  25.219   5.550
 8941POPC   PO471376  32.208  25.286   5.850
 8941POPC   GL171377  32.249  25.256   6.150
 8941POPC   GL271378  32.312  25.214   6.150
 8941POPC   C1A71379  32.281  25.315   6.450
 8941POPC   D2A71380  32.250  25.289   6.750
 8941POPC   C3A71381  32.248  25.248   7.050
 8941POPC   C4A71382  32.295  25.313   7.350
 8941POPC   C1B71383  32.436  25.109   6.450
 8941POPC   C2B71384  32.418  25.067   6.750
 8941POPC   C3B71385  32.367  25.103   7.050
 8941POPC   C4B71386  32.361  25.057   7.350
 8942POPC   NC371387   5.911  43.098   5.550
 8942POPC   PO471388   5.820  43.117   5.850
 8942POPC   GL171389   5.915  43.116   6.150
 8942POPC   GL271390   5.822  42.961   6.150
 8942POPC   C1A71391   5.827  43.143   6.450
 8942POPC   D2A71392   5.856  43.144   6.750
 8942POPC   C3A71393   5.835  43.111   7.050
 8942POPC   C4A71394   5.863  43.111   7.350
 8942POPC   C1B71395   5.857  42.874   6.450
 8942POPC   C2B71396   5.815  42.911   6.750
 8942POPC   C3B71397   5.845  42.821   7.050
 8942POPC   C4B71398   5.875  42.878   7.350
 8943POPC   NC371399   0.472  28.410   5.550
 8943POPC   PO471400   0.468  28.376   5.850
 8943POPC   GL171401   0.430  28.322   6.150
 8943POPC   GL271402   0.433  28.236   6.150
 8943POPC   C1A71403   0.431  28.352   6.450
 8943POPC   D2A71404   0.431  28.402   6.750
 8943POPC   C3A71405   0.459  28.373   7.050
 8943POPC   C4A71406   0.472  28.324   7.350
 8943POPC   C1B71407   0.342  28.141   6.450
 8943POPC   C2B71408   0.326  28.104   6.750
 8943POPC   C3B71409   0.393  28.174   7.050
 8943POPC   C4B71410   0.401  28.107   7.350
 8944POPC   NC371411  37.716  26.815   5.550
 8944POPC   PO471412  37.653  26.838   5.850
 8944POPC   GL171413  37.722  26.857   6.150
 8944POPC   GL271414  37.808  26.777   6.150
 8944POPC   C1A71415  37.696  26.768   6.450
 8944POPC   D2A71416  37.656  26.770   6.750
 8944POPC   C3A71417  37.722  26.773   7.050
 8944POPC   C4A71418  37.633  26.847   7.350
 8944POPC   C1B71419  37.934  26.706   6.450
 8944POPC   C2B71420  37.878  26.638   6.750
 8944POPC   C3B71421  37.911  26.688   7.050
 8944POPC   C4B71422  37.904  26.674   7.350
 8945POPC   NC371423   8.941  42.310   5.550
 8945POPC   PO471424   8.930  42.344   5.850
 8945POPC   GL171425   9.015  42.337   6.150
 8945POPC   GL271426   8.878  42.396   6.150
 8945POPC   C1A71427   8.976  42.366   6.450
 8945POPC   D2A71428   8.977  42.375   6.750
 8945POPC   C3A71429   9.003  42.355   7.050
 8945POPC   C4A71430   8.976  42.329   7.350
 8945POPC   C1B71431   8.693  42.398   6.450
 8945POPC   C2B71432   8.783  42.393   6.750
 8945POPC   C3B71433   8.776  42.448   7.050
 8945POPC   C4B71434   8.749  42.456   7.350
 8946POPC   NC371435  23.724  27.630   5.550
 8946POPC   PO471436  23.754  27.602   5.850
 8946POPC   GL171437  23.719  27.577   6.150
 8946POPC   GL271438  23.808  27.589   6.150
 8946POPC   C1A71439  23.729  27.636   6.450
 8946POPC   D2A71440  23.691  27.614   6.750
 8946POPC   C3A71441  23.726  27.574   7.050
 8946POPC   C4A71442  23.702  27.564   7.350
 8946POPC   C1B71443  23.932  27.617   6.450
 8946POPC   C2B71444  23.945  27.632   6.750
 8946POPC   C3B71445  23.978  27.633   7.050
 8946POPC   C4B71446  23.980  27.683   7.350
 8947POPC   NC371447  13.617  12.828   5.550
 8947POPC   PO471448  13.663  12.855   5.850
 8947POPC   GL171449  13.646  12.864   6.150
 8947POPC   GL271450  13.569  12.943   6.150
 8947POPC   C1A71451  13.677  12.828   6.450
 8947POPC   D2A71452  13.580  12.845   6.750
 8947POPC   C3A71453  13.633  12.823   7.050
 8947POPC   C4A71454  13.606  12.846   7.350
 8947POPC   C1B71455  13.572  13.054   6.450
 8947POPC   C2B71456  13.512  13.125   6.750
 8947POPC   C3B71457  13.527  13.125   7.050
 8947POPC   C4B71458  13.592  13.092   7.350
 8948POPC   NC371459  17.522   4.295   5.550
 8948POPC   PO471460  17.503   4.325   5.850
 8948POPC   GL171461  17.490   4.334   6.150
 8948POPC   GL271462  17.417   4.463   6.150
 8948POPC   C1A71463  17.536   4.286   6.450
 8948POPC   D2A71464  17.515   4.346   6.750
 8948POPC   C3A71465  17.528   4.310   7.050
 8948POPC   C4A71466  17.466   4.342   7.350
 8948POPC   C1B71467  17.355   4.534   6.450
 8948POPC   C2B71468  17.364   4.506   6.750
 8948POPC   C3B71469  17.342   4.491   7.050
 8948POPC   C4B71470  17.312   4.471   7.350
 8949POPC   NC371471  37.670   0.424   5.550
 8949POPC   PO471472  37.713   0.453   5.850
 8949POPC   GL171473  37.645   0.421   6.150
 8949POPC   GL271474  37.764   0.330   6.150
 8949POPC   C1A71475  37.650   0.414   6.450
 8949POPC   D2A71476  37.726   0.448   6.750
 8949POPC   C3A71477  37.661   0.423   7.050
 8949POPC   C4A71478  37.677   0.478   7.350
 8949POPC   C1B71479  37.895   0.269   6.450
 8949POPC   C2B71480  37.880   0.305   6.750
 8949POPC   C3B71481  37.930   0.301   7.050
 8949POPC   C4B71482  37.867   0.333   7.350
 8950POPC   NC371483  11.280  20.595   5.550
 8950POPC   PO471484  11.271  20.582   5.850
 8950POPC   GL171485  11.330  20.648   6.150
 8950POPC   GL271486  11.191  20.521   6.150
 8950POPC   C1A71487  11.284  20.600   6.450
 8950POPC   D2A71488  11.312  20.584   6.750
 8950POPC   C3A71489  11.307  20.613   7.050
 8950POPC   C4A71490  11.271  20.570   7.350
 8950POPC   C1B71491  11.197  20.435   6.450
 8950POPC   C2B71492  11.199  20.343   6.750
 8950POPC   C3B71493  11.222  20.387   7.050
 8950POPC   C4B71494  11.138  20.440   7.350
 8951POPC   NC371495  28.415  36.136   5.550
 8951POPC   PO471496  28.357  36.148   5.850
 8951POPC   GL171497  28.418  36.158   6.150
 8951POPC   GL271498  28.426  36.000   6.150
 8951POPC   C1A71499  28.380  36.177   6.450
 8951POPC   D2A71500  28.389  36.150   6.750
 8951POPC   C3A71501  28.356  36.082   7.050
 8951POPC   C4A71502  28.322  36.108   7.350
 8951POPC   C1B71503  28.584  35.952   6.450
 8951POPC   C2B71504  28.599  35.923   6.750
 8951POPC   C3B71505  28.549  35.994   7.050
 8951POPC   C4B71506  28.597  35.967   7.350
 8952POPC   NC371507  43.109  18.242   5.550
 8952POPC   PO471508  43.076  18.241   5.850
 8952POPC   GL171509  43.086  18.328   6.150
 8952POPC   GL271510  43.235  18.226   6.150
 8952POPC   C1A71511  43.064  18.242   6.450
 8952POPC   D2A71512  43.062  18.330   6.750
 8952POPC   C3A71513  43.152  18.278   7.050
 8952POPC   C4A71514  43.101  18.303   7.350
 8952POPC   C1B71515  43.270  18.100   6.450
 8952POPC   C2B71516  43.276  18.103   6.750
 8952POPC   C3B71517  43.256  18.148   7.050
 8952POPC   C4B71518  43.266  18.145   7.350
 8953POPC   NC371519  32.980   2.030   5.550
 8953POPC   PO471520  33.039   2.025   5.850
 8953POPC   GL171521  32.980   2.016   6.150
 8953POPC   GL271522  33.136   1.977   6.150
 8953POPC   C1A71523  32.976   1.965   6.450
 8953POPC   D2A71524  33.013   1.961   6.750
 8953POPC   C3A71525  32.981   1.942   7.050
 8953POPC   C4A71526  32.988   2.015   7.350
 8953POPC   C1B71527  33.316   1.917   6.450
 8953POPC   C2B71528  33.272   1.912   6.750
 8953POPC   C3B71529  33.276   1.975   7.050
 8953POPC   C4B71530  33.247   1.913   7.350
 8954POPC   NC371531  26.787  41.593   5.550
 8954POPC   PO471532  26.815  41.535   5.850
 8954POPC   GL171533  26.855  41.570   6.150
 8954POPC   GL271534  26.700  41.632   6.150
 8954POPC   C1A71535  26.780  41.606   6.450
 8954POPC   D2A71536  26.773  41.550   6.750
 8954POPC   C3A71537  26.847  41.514   7.050
 8954POPC   C4A71538  26.842  41.533   7.350
 8954POPC   C1B71539  26.581  41.566   6.450
 8954POPC   C2B71540  26.611  41.620   6.750
 8954POPC   C3B71541  26.575  41.567   7.050
 8954POPC   C4B71542  26.553  41.648   7.350
 8955POPC   NC371543  26.090   6.648   5.550
 8955POPC   PO471544  26.040   6.649   5.850
 8955POPC   GL171545  25.993   6.619   6.150
 8955POPC   GL271546  26.139   6.626   6.150
 8955POPC   C1A71547  26.028   6.623   6.450
 8955POPC   D2A71548  26.003   6.601   6.750
 8955POPC   C3A71549  26.011   6.633   7.050
 8955POPC   C4A71550  25.993   6.683   7.350
 8955POPC   C1B71551  26.298   6.664   6.450
 8955POPC   C2B71552  26.307   6.620   6.750
 8955POPC   C3B71553  26.339   6.662   7.050
 8955POPC   C4B71554  26.283   6.603   7.350
 8956POPC   NC371555  20.608  35.383   5.550
 8956POPC   PO471556  20.601  35.318   5.850
 8956POPC   GL171557  20.590  35.356   6.150
 8956POPC   GL271558  20.584  35.454   6.150
 8956POPC   C1A71559  20.635  35.330   6.450
 8956POPC   D2A71560  20.627  35.305   6.750
 8956POPC   C3A71561  20.598  35.379   7.050
 8956POPC   C4A71562  20.579  35.349   7.350
 8956POPC   C1B71563  20.532  35.547   6.450
 8956POPC   C2B71564  20.531  35.589   6.750
 8956POPC   C3B71565  20.552  35.539   7.050
 8956POPC   C4B71566  20.501  35.580   7.350
 8957POPC   NC371567  32.981  36.160   5.550
 8957POPC   PO471568  32.975  36.091   5.850
 8957POPC   GL171569  33.030  36.095   6.150
 8957POPC   GL271570  32.851  36.115   6.150
 8957POPC   C1A71571  33.046  36.147   6.450
 8957POPC   D2A71572  32.985  36.166   6.750
 8957POPC   C3A71573  32.983  36.094   7.050
 8957POPC   C4A71574  32.995  36.174   7.350
 8957POPC   C1B71575  32.768  36.149   6.450
 8957POPC   C2B71576  32.774  36.195   6.750
 8957POPC   C3B71577  32.826  36.160   7.050
 8957POPC   C4B71578  32.759  36.207   7.350
 8958POPC   NC371579   1.966   3.512   5.550
 8958POPC   PO471580   2.008   3.562   5.850
 8958POPC   GL171581   1.954   3.503   6.150
 8958POPC   GL271582   2.065   3.647   6.150
 8958POPC   C1A71583   1.952   3.508   6.450
 8958POPC   D2A71584   1.989   3.566   6.750
 8958POPC   C3A71585   1.989   3.512   7.050
 8958POPC   C4A71586   1.988   3.507   7.350
 8958POPC   C1B71587   2.118   3.763   6.450
 8958POPC   C2B71588   2.108   3.722   6.750
 8958POPC   C3B71589   2.095   3.784   7.050
 8958POPC   C4B71590   2.169   3.691   7.350
 8959POPC   NC371591   9.738  24.535   5.550
 8959POPC   PO471592   9.725  24.496   5.850
 8959POPC   GL171593   9.722  24.467   6.150
 8959POPC   GL271594   9.729  24.600   6.150
 8959POPC   C1A71595   9.730  24.526   6.450
 8959POPC   D2A71596   9.734  24.499   6.750
 8959POPC   C3A71597   9.767  24.445   7.050
 8959POPC   C4A71598   9.718  24.518   7.350
 8959POPC   C1B71599   9.617  24.682   6.450
 8959POPC   C2B71600   9.582  24.724   6.750
 8959POPC   C3B71601   9.639  24.746   7.050
 8959POPC   C4B71602   9.656  24.689   7.350
 8960POPC   NC371603   3.565   8.237   5.550
 8960POPC   PO471604   3.496   8.148   5.850
 8960POPC   GL171605   3.551   8.221   6.150
 8960POPC   GL271606   3.600   8.263   6.150
 8960POPC   C1A71607   3.530   8.213   6.450
 8960POPC   D2A71608   3.575   8.179   6.750
 8960POPC   C3A71609   3.585   8.208   7.050
 8960POPC   C4A71610   3.538   8.228   7.350
 8960POPC   C1B71611   3.730   8.352   6.450
 8960POPC   C2B71612   3.717   8.349   6.750
 8960POPC   C3B71613   3.733   8.342   7.050
 8960POPC   C4B71614   3.737   8.391   7.350
 8961POPC   NC371615   1.985  38.456   5.550
 8961POPC   PO471616   1.982  38.443   5.850
 8961POPC   GL171617   1.983  38.501   6.150
 8961POPC   GL271618   2.125  38.331   6.150
 8961POPC   C1A71619   2.007  38.490   6.450
 8961POPC   D2A71620   1.996  38.444   6.750
 8961POPC   C3A71621   2.013  38.473   7.050
 8961POPC   C4A71622   1.969  38.425   7.350
 8961POPC   C1B71623   2.140  38.281   6.450
 8961POPC   C2B71624   2.143  38.322   6.750
 8961POPC   C3B71625   2.203  38.340   7.050
 8961POPC   C4B71626   2.178  38.343   7.350
 8962POPC   NC371627  10.478  30.715   5.550
 8962POPC   PO471628  10.509  30.732   5.850
 8962POPC   GL171629  10.488  30.738   6.150
 8962POPC   GL271630  10.414  30.754   6.150
 8962POPC   C1A71631  10.488  30.682   6.450
 8962POPC   D2A71632  10.499  30.654   6.750
 8962POPC   C3A71633  10.539  30.745   7.050
 8962POPC   C4A71634  10.509  30.654   7.350
 8962POPC   C1B71635  10.292  30.832   6.450
 8962POPC   C2B71636  10.325  30.868   6.750
 8962POPC   C3B71637  10.279  30.837   7.050
 8962POPC   C4B71638  10.355  30.847   7.350
 8963POPC   NC371639  30.677  22.170   5.550
 8963POPC   PO471640  30.675  22.152   5.850
 8963POPC   GL171641  30.685  22.148   6.150
 8963POPC   GL271642  30.799  22.033   6.150
 8963POPC   C1A71643  30.715  22.203   6.450
 8963POPC   D2A71644  30.652  22.208   6.750
 8963POPC   C3A71645  30.674  22.166   7.050
 8963POPC   C4A71646  30.732  22.122   7.350
 8963POPC   C1B71647  30.778  21.973   6.450
 8963POPC   C2B71648  30.853  21.944   6.750
 8963POPC   C3B71649  30.802  21.948   7.050
 8963POPC   C4B71650  30.833  21.905   7.350
 8964POPC   NC371651   7.415  36.874   5.550
 8964POPC   PO471652   7.449  36.951   5.850
 8964POPC   GL171653   7.416  36.893   6.150
 8964POPC   GL271654   7.381  36.800   6.150
 8964POPC   C1A71655   7.372  36.915   6.450
 8964POPC   D2A71656   7.411  36.911   6.750
 8964POPC   C3A71657   7.463  36.872   7.050
 8964POPC   C4A71658   7.400  36.936   7.350
 8964POPC   C1B71659   7.233  36.691   6.450
 8964POPC   C2B71660   7.229  36.675   6.750
 8964POPC   C3B71661   7.286  36.680   7.050
 8964POPC   C4B71662   7.241  36.709   7.350
 8965POPC   NC371663   1.202  26.787   5.550
 8965POPC   PO471664   1.178  26.824   5.850
 8965POPC   GL171665   1.212  26.852   6.150
 8965POPC   GL271666   1.126  26.821   6.150
 8965POPC   C1A71667   1.198  26.771   6.450
 8965POPC   D2A71668   1.206  26.801   6.750
 8965POPC   C3A71669   1.228  26.817   7.050
 8965POPC   C4A71670   1.237  26.777   7.350
 8965POPC   C1B71671   0.973  26.916   6.450
 8965POPC   C2B71672   0.994  26.883   6.750
 8965POPC   C3B71673   0.947  26.866   7.050
 8965POPC   C4B71674   1.033  26.961   7.350
 8966POPC   NC371675   0.390  18.291   5.550
 8966POPC   PO471676   0.459  18.298   5.850
 8966POPC   GL171677   0.433  18.256   6.150
 8966POPC   GL271678   0.299  18.173   6.150
 8966POPC   C1A71679   0.423  18.304   6.450
 8966POPC   D2A71680   0.456  18.326   6.750
 8966POPC   C3A71681   0.407  18.287   7.050
 8966POPC   C4A71682   0.411  18.281   7.350
 8966POPC   C1B71683   0.299  18.069   6.450
 8966POPC   C2B71684   0.211  18.162   6.750
 8966POPC   C3B71685   0.279  18.125   7.050
 8966POPC   C4B71686   0.216  18.106   7.350
 8967POPC   NC371687  28.361   7.443   5.550
 8967POPC   PO471688  28.405   7.419   5.850
 8967POPC   GL171689  28.362   7.434   6.150
 8967POPC   GL271690  28.348   7.305   6.150
 8967POPC   C1A71691  28.349   7.405   6.450
 8967POPC   D2A71692  28.339   7.454   6.750
 8967POPC   C3A71693  28.381   7.439   7.050
 8967POPC   C4A71694  28.372   7.428   7.350
 8967POPC   C1B71695  28.245   7.208   6.450
 8967POPC   C2B71696  28.229   7.154   6.750
 8967POPC   C3B71697  28.304   7.240   7.050
 8967POPC   C4B71698  28.297   7.222   7.350
 8968POPC   NC371699  38.408  25.288   5.550
 8968POPC   PO471700  38.474  25.224   5.850
 8968POPC   GL171701  38.459  25.239   6.150
 8968POPC   GL271702  38.604  25.338   6.150
 8968POPC   C1A71703  38.460  25.220   6.450
 8968POPC   D2A71704  38.426  25.304   6.750
 8968POPC   C3A71705  38.435  25.225   7.050
 8968POPC   C4A71706  38.484  25.231   7.350
 8968POPC   C1B71707  38.628  25.352   6.450
 8968POPC   C2B71708  38.705  25.356   6.750
 8968POPC   C3B71709  38.718  25.419   7.050
 8968POPC   C4B71710  38.635  25.392   7.350
 8969POPC   NC371711  12.119  44.647   5.550
 8969POPC   PO471712  12.048  44.642   5.850
 8969POPC   GL171713  12.029  44.685   6.150
 8969POPC   GL271714  11.983  44.677   6.150
 8969POPC   C1A71715  12.047  44.617   6.450
 8969POPC   D2A71716  12.072  44.646   6.750
 8969POPC   C3A71717  12.054  44.654   7.050
 8969POPC   C4A71718  12.038  44.687   7.350
 8969POPC   C1B71719  11.868  44.586   6.450
 8969POPC   C2B71720  11.807  44.544   6.750
 8969POPC   C3B71721  11.808  44.580   7.050
 8969POPC   C4B71722  11.813  44.600   7.350
 8970POPC   NC371723  36.943  41.545   5.550
 8970POPC   PO471724  36.880  41.605   5.850
 8970POPC   GL171725  36.911  41.576   6.150
 8970POPC   GL271726  36.801  41.592   6.150
 8970POPC   C1A71727  36.872  41.526   6.450
 8970POPC   D2A71728  36.875  41.549   6.750
 8970POPC   C3A71729  36.872  41.512   7.050
 8970POPC   C4A71730  36.943  41.528   7.350
 8970POPC   C1B71731  36.635  41.562   6.450
 8970POPC   C2B71732  36.699  41.510   6.750
 8970POPC   C3B71733  36.638  41.570   7.050
 8970POPC   C4B71734  36.611  41.591   7.350
 8971POPC   NC371735  15.968  24.517   5.550
 8971POPC   PO471736  15.964  24.484   5.850
 8971POPC   GL171737  15.985  24.452   6.150
 8971POPC   GL271738  16.080  24.449   6.150
 8971POPC   C1A71739  15.969  24.518   6.450
 8971POPC   D2A71740  15.923  24.530   6.750
 8971POPC   C3A71741  16.002  24.459   7.050
 8971POPC   C4A71742  15.909  24.516   7.350
 8971POPC   C1B71743  16.210  24.373   6.450
 8971POPC   C2B71744  16.211  24.367   6.750
 8971POPC   C3B71745  16.150  24.329   7.050
 8971POPC   C4B71746  16.204  24.386   7.350
 8972POPC   NC371747   4.322  22.931   5.550
 8972POPC   PO471748   4.308  22.974   5.850
 8972POPC   GL171749   4.325  22.899   6.150
 8972POPC   GL271750   4.261  23.070   6.150
 8972POPC   C1A71751   4.298  22.894   6.450
 8972POPC   D2A71752   4.360  22.955   6.750
 8972POPC   C3A71753   4.303  22.981   7.050
 8972POPC   C4A71754   4.338  22.924   7.350
 8972POPC   C1B71755   4.158  23.172   6.450
 8972POPC   C2B71756   4.174  23.137   6.750
 8972POPC   C3B71757   4.138  23.097   7.050
 8972POPC   C4B71758   4.163  23.188   7.350
 8973POPC   NC371759  29.889  19.790   5.550
 8973POPC   PO471760  29.885  19.879   5.850
 8973POPC   GL171761  29.954  19.843   6.150
 8973POPC   GL271762  30.010  19.803   6.150
 8973POPC   C1A71763  29.882  19.878   6.450
 8973POPC   D2A71764  29.912  19.821   6.750
 8973POPC   C3A71765  29.890  19.801   7.050
 8973POPC   C4A71766  29.872  19.853   7.350
 8973POPC   C1B71767  30.137  19.820   6.450
 8973POPC   C2B71768  30.186  19.791   6.750
 8973POPC   C3B71769  30.153  19.823   7.050
 8973POPC   C4B71770  30.175  19.851   7.350
 8974POPC   NC371771  42.322  43.150   5.550
 8974POPC   PO471772  42.313  43.079   5.850
 8974POPC   GL171773  42.321  43.070   6.150
 8974POPC   GL271774  42.437  43.041   6.150
 8974POPC   C1A71775  42.358  43.094   6.450
 8974POPC   D2A71776  42.301  43.090   6.750
 8974POPC   C3A71777  42.315  43.138   7.050
 8974POPC   C4A71778  42.302  43.142   7.350
 8974POPC   C1B71779  42.576  42.963   6.450
 8974POPC   C2B71780  42.509  42.972   6.750
 8974POPC   C3B71781  42.565  43.009   7.050
 8974POPC   C4B71782  42.505  42.929   7.350
 8975POPC   NC371783   8.235  34.571   5.550
 8975POPC   PO471784   8.203  34.575   5.850
 8975POPC   GL171785   8.209  34.570   6.150
 8975POPC   GL271786   8.345  34.491   6.150
 8975POPC   C1A71787   8.217  34.617   6.450
 8975POPC   D2A71788   8.199  34.560   6.750
 8975POPC   C3A71789   8.232  34.546   7.050
 8975POPC   C4A71790   8.159  34.623   7.350
 8975POPC   C1B71791   8.439  34.479   6.450
 8975POPC   C2B71792   8.455  34.446   6.750
 8975POPC   C3B71793   8.390  34.475   7.050
 8975POPC   C4B71794   8.453  34.404   7.350
 8976POPC   NC371795  24.495   1.950   5.550
 8976POPC   PO471796  24.507   1.976   5.850
 8976POPC   GL171797  24.472   1.958   6.150
 8976POPC   GL271798  24.368   1.908   6.150
 8976POPC   C1A71799  24.471   1.966   6.450
 8976POPC   D2A71800  24.472   1.960   6.750
 8976POPC   C3A71801  24.513   1.967   7.050
 8976POPC   C4A71802  24.539   1.957   7.350
 8976POPC   C1B71803  24.322   1.790   6.450
 8976POPC   C2B71804  24.315   1.789   6.750
 8976POPC   C3B71805  24.314   1.841   7.050
 8976POPC   C4B71806  24.342   1.796   7.350
 8977POPC   NC371807  41.578   9.725   5.550
 8977POPC   PO471808  41.560   9.774   5.850
 8977POPC   GL171809  41.525   9.771   6.150
 8977POPC   GL271810  41.649   9.777   6.150
 8977POPC   C1A71811  41.527   9.709   6.450
 8977POPC   D2A71812  41.567   9.765   6.750
 8977POPC   C3A71813  41.548   9.729   7.050
 8977POPC   C4A71814  41.560   9.717   7.350
 8977POPC   C1B71815  41.840   9.734   6.450
 8977POPC   C2B71816  41.791   9.697   6.750
 8977POPC   C3B71817  41.836   9.745   7.050
 8977POPC   C4B71818  41.845   9.672   7.350
 8978POPC   NC371819  28.393  32.226   5.550
 8978POPC   PO471820  28.399  32.258   5.850
 8978POPC   GL171821  28.365  32.223   6.150
 8978POPC   GL271822  28.258  32.260   6.150
 8978POPC   C1A71823  28.410  32.265   6.450
 8978POPC   D2A71824  28.417  32.271   6.750
 8978POPC   C3A71825  28.383  32.279   7.050
 8978POPC   C4A71826  28.352  32.269   7.350
 8978POPC   C1B71827  28.162  32.213   6.450
 8978POPC   C2B71828  28.177  32.154   6.750
 8978POPC   C3B71829  28.096  32.216   7.050
 8978POPC   C4B71830  28.144  32.176   7.350
 8979POPC   NC371831   8.971  38.422   5.550
 8979POPC   PO471832   8.970  38.424   5.850
 8979POPC   GL171833   8.972  38.437   6.150
 8979POPC   GL271834   8.986  38.357   6.150
 8979POPC   C1A71835   8.978  38.457   6.450
 8979POPC   D2A71836   8.965  38.498   6.750
 8979POPC   C3A71837   8.935  38.436   7.050
 8979POPC   C4A71838   9.009  38.406   7.350
 8979POPC   C1B71839   8.931  38.184   6.450
 8979POPC   C2B71840   8.996  38.228   6.750
 8979POPC   C3B71841   9.004  38.224   7.050
 8979POPC   C4B71842   9.004  38.214   7.350
 8980POPC   NC371843  30.711  26.850   5.550
 8980POPC   PO471844  30.701  26.825   5.850
 8980POPC   GL171845  30.738  26.827   6.150
 8980POPC   GL271846  30.684  26.738   6.150
 8980POPC   C1A71847  30.728  26.833   6.450
 8980POPC   D2A71848  30.670  26.769   6.750
 8980POPC   C3A71849  30.700  26.787   7.050
 8980POPC   C4A71850  30.653  26.791   7.350
 8980POPC   C1B71851  30.543  26.625   6.450
 8980POPC   C2B71852  30.589  26.561   6.750
 8980POPC   C3B71853  30.622  26.547   7.050
 8980POPC   C4B71854  30.563  26.551   7.350
 8981POPC   NC371855  36.099  41.558   5.550
 8981POPC   PO471856  36.171  41.591   5.850
 8981POPC   GL171857  36.148  41.558   6.150
 8981POPC   GL271858  36.069  41.431   6.150
 8981POPC   C1A71859  36.078  41.544   6.450
 8981POPC   D2A71860  36.120  41.546   6.750
 8981POPC   C3A71861  36.167  41.527   7.050
 8981POPC   C4A71862  36.082  41.516   7.350
 8981POPC   C1B71863  35.935  41.378   6.450
 8981POPC   C2B71864  35.949  41.417   6.750
 8981POPC   C3B71865  36.006  41.360   7.050
 8981POPC   C4B71866  36.010  41.339   7.350
 8982POPC   NC371867  22.936   2.768   5.550
 8982POPC   PO471868  22.942   2.771   5.850
 8982POPC   GL171869  22.917   2.722   6.150
 8982POPC   GL271870  22.779   2.700   6.150
 8982POPC   C1A71871  22.928   2.760   6.450
 8982POPC   D2A71872  22.973   2.736   6.750
 8982POPC   C3A71873  22.964   2.752   7.050
 8982POPC   C4A71874  22.931   2.752   7.350
 8982POPC   C1B71875  22.749   2.627   6.450
 8982POPC   C2B71876  22.736   2.642   6.750
 8982POPC   C3B71877  22.753   2.624   7.050
 8982POPC   C4B71878  22.752   2.684   7.350
 8983POPC   NC371879  38.482  36.114   5.550
 8983POPC   PO471880  38.456  36.113   5.850
 8983POPC   GL171881  38.498  36.122   6.150
 8983POPC   GL271882  38.321  36.142   6.150
 8983POPC   C1A71883  38.467  36.081   6.450
 8983POPC   D2A71884  38.414  36.126   6.750
 8983POPC   C3A71885  38.466  36.132   7.050
 8983POPC   C4A71886  38.505  36.097   7.350
 8983POPC   C1B71887  38.235  36.086   6.450
 8983POPC   C2B71888  38.212  36.081   6.750
 8983POPC   C3B71889  38.192  36.081   7.050
 8983POPC   C4B71890  38.172  36.086   7.350
 8984POPC   NC371891  29.096  29.131   5.550
 8984POPC   PO471892  29.166  29.154   5.850
 8984POPC   GL171893  29.156  29.170   6.150
 8984POPC   GL271894  29.085  29.109   6.150
 8984POPC   C1A71895  29.184  29.182   6.450
 8984POPC   D2A71896  29.106  29.163   6.750
 8984POPC   C3A71897  29.186  29.112   7.050
 8984POPC   C4A71898  29.113  29.143   7.350
 8984POPC   C1B71899  29.007  28.927   6.450
 8984POPC   C2B71900  28.928  28.969   6.750
 8984POPC   C3B71901  28.999  28.984   7.050
 8984POPC   C4B71902  29.003  29.024   7.350
 8985POPC   NC371903  28.343  19.066   5.550
 8985POPC   PO471904  28.386  19.060   5.850
 8985POPC   GL171905  28.325  19.088   6.150
 8985POPC   GL271906  28.448  19.141   6.150
 8985POPC   C1A71907  28.397  19.083   6.450
 8985POPC   D2A71908  28.360  19.093   6.750
 8985POPC   C3A71909  28.385  19.017   7.050
 8985POPC   C4A71910  28.400  19.017   7.350
 8985POPC   C1B71911  28.584  19.104   6.450
 8985POPC   C2B71912  28.647  19.171   6.750
 8985POPC   C3B71913  28.641  19.143   7.050
 8985POPC   C4B71914  28.644  19.122   7.350
 8986POPC   NC371915  37.692   5.057   5.550
 8986POPC   PO471916  37.645   5.061   5.850
 8986POPC   GL171917  37.683   5.051   6.150
 8986POPC   GL271918  37.585   5.057   6.150
 8986POPC   C1A71919  37.713   5.127   6.450
 8986POPC   D2A71920  37.688   5.140   6.750
 8986POPC   C3A71921  37.662   5.047   7.050
 8986POPC   C4A71922  37.669   5.141   7.350
 8986POPC   C1B71923  37.454   5.034   6.450
 8986POPC   C2B71924  37.479   5.079   6.750
 8986POPC   C3B71925  37.483   5.064   7.050
 8986POPC   C4B71926  37.433   5.030   7.350
 8987POPC   NC371927  26.846   5.051   5.550
 8987POPC   PO471928  26.781   5.063   5.850
 8987POPC   GL171929  26.802   5.142   6.150
 8987POPC   GL271930  26.681   5.042   6.150
 8987POPC   C1A71931  26.852   5.075   6.450
 8987POPC   D2A71932  26.845   5.131   6.750
 8987POPC   C3A71933  26.856   5.086   7.050
 8987POPC   C4A71934  26.790   5.119   7.350
 8987POPC   C1B71935  26.623   4.963   6.450
 8987POPC   C2B71936  26.634   4.927   6.750
 8987POPC   C3B71937  26.581   4.898   7.050
 8987POPC   C4B71938  26.597   4.898   7.350
 8988POPC   NC371939  14.387  33.064   5.550
 8988POPC   PO471940  14.395  33.025   5.850
 8988POPC   GL171941  14.370  33.035   6.150
 8988POPC   GL271942  14.447  33.195   6.150
 8988POPC   C1A71943  14.421  33.026   6.450
 8988POPC   D2A71944  14.441  33.013   6.750
 8988POPC   C3A71945  14.364  33.002   7.050
 8988POPC   C4A71946  14.436  33.021   7.350
 8988POPC   C1B71947  14.412  33.296   6.450
 8988POPC   C2B71948  14.394  33.304   6.750
 8988POPC   C3B71949  14.470  33.275   7.050
 8988POPC   C4B71950  14.403  33.313   7.350
 8989POPC   NC371951   2.797   6.597   5.550
 8989POPC   PO471952   2.769   6.597   5.850
 8989POPC   GL171953   2.787   6.641   6.150
 8989POPC   GL271954   2.700   6.747   6.150
 8989POPC   C1A71955   2.778   6.666   6.450
 8989POPC   D2A71956   2.796   6.691   6.750
 8989POPC   C3A71957   2.815   6.688   7.050
 8989POPC   C4A71958   2.799   6.662   7.350
 8989POPC   C1B71959   2.622   6.764   6.450
 8989POPC   C2B71960   2.569   6.805   6.750
 8989POPC   C3B71961   2.570   6.799   7.050
 8989POPC   C4B71962   2.615   6.792   7.350
 8990POPC   NC371963  44.630   0.464   5.550
 8990POPC   PO471964  44.627   0.413   5.850
 8990POPC   GL171965  44.664   0.432   6.150
 8990POPC   GL271966  44.803   0.426   6.150
 8990POPC   C1A71967  44.622   0.403   6.450
 8990POPC   D2A71968  44.694   0.467   6.750
 8990POPC   C3A71969  44.700   0.463   7.050
 8990POPC   C4A71970  44.627   0.466   7.350
 8990POPC   C1B71971  44.871   0.405   6.450
 8990POPC   C2B71972  44.906   0.377   6.750
 8990POPC   C3B71973  44.877   0.380   7.050
 8990POPC   C4B71974  44.859   0.386   7.350
 8991POPC   NC371975  20.650  25.313   5.550
 8991POPC   PO471976  20.573  25.216   5.850
 8991POPC   GL171977  20.588  25.298   6.150
 8991POPC   GL271978  20.528  25.345   6.150
 8991POPC   C1A71979  20.583  25.217   6.450
 8991POPC   D2A71980  20.608  25.312   6.750
 8991POPC   C3A71981  20.654  25.251   7.050
 8991POPC   C4A71982  20.639  25.218   7.350
 8991POPC   C1B71983  20.371  25.292   6.450
 8991POPC   C2B71984  20.356  25.303   6.750
 8991POPC   C3B71985  20.356  25.378   7.050
 8991POPC   C4B71986  20.326  25.354   7.350
 8992POPC   NC371987  13.654  13.639   5.550
 8992POPC   PO471988  13.647  13.598   5.850
 8992POPC   GL171989  13.591  13.649   6.150
 8992POPC   GL271990  13.756  13.649   6.150
 8992POPC   C1A71991  13.674  13.652   6.450
 8992POPC   D2A71992  13.596  13.610   6.750
 8992POPC   C3A71993  13.608  13.636   7.050
 8992POPC   C4A71994  13.632  13.597   7.350
 8992POPC   C1B71995  13.875  13.758   6.450
 8992POPC   C2B71996  13.825  13.738   6.750
 8992POPC   C3B71997  13.890  13.721   7.050
 8992POPC   C4B71998  13.860  13.747   7.350
 8993POPC   NC371999   4.319   5.821   5.550
 8993POPC   PO472000   4.288   5.898   5.850
 8993POPC   GL172001   4.299   5.823   6.150
 8993POPC   GL272002   4.375   6.035   6.150
 8993POPC   C1A72003   4.307   5.874   6.450
 8993POPC   D2A72004   4.339   5.846   6.750
 8993POPC   C3A72005   4.330   5.881   7.050
 8993POPC   C4A72006   4.297   5.916   7.350
 8993POPC   C1B72007   4.399   6.112   6.450
 8993POPC   C2B72008   4.440   6.061   6.750
 8993POPC   C3B72009   4.428   6.105   7.050
 8993POPC   C4B72010   4.347   6.133   7.350
 8994POPC   NC372011  36.949  17.465   5.550
 8994POPC   PO472012  36.902  17.506   5.850
 8994POPC   GL172013  36.855  17.517   6.150
 8994POPC   GL272014  36.779  17.575   6.150
 8994POPC   C1A72015  36.903  17.473   6.450
 8994POPC   D2A72016  36.895  17.461   6.750
 8994POPC   C3A72017  36.917  17.516   7.050
 8994POPC   C4A72018  36.900  17.479   7.350
 8994POPC   C1B72019  36.746  17.664   6.450
 8994POPC   C2B72020  36.702  17.699   6.750
 8994POPC   C3B72021  36.733  17.719   7.050
 8994POPC   C4B72022  36.713  17.712   7.350
 8995POPC   NC372023   1.965   9.729   5.550
 8995POPC   PO472024   1.948   9.729   5.850
 8995POPC   GL172025   1.980   9.759   6.150
 8995POPC   GL272026   1.853   9.750   6.150
 8995POPC   C1A72027   1.957   9.713   6.450
 8995POPC   D2A72028   2.018   9.729   6.750
 8995POPC   C3A72029   1.995   9.769   7.050
 8995POPC   C4A72030   1.960   9.729   7.350
 8995POPC   C1B72031   1.730   9.887   6.450
 8995POPC   C2B72032   1.801   9.834   6.750
 8995POPC   C3B72033   1.806   9.836   7.050
 8995POPC   C4B72034   1.723   9.878   7.350
 8996POPC   NC372035   9.750  32.210   5.550
 8996POPC   PO472036   9.707  32.270   5.850
 8996POPC   GL172037   9.732  32.202   6.150
 8996POPC   GL272038   9.835  32.215   6.150
 8996POPC   C1A72039   9.776  32.247   6.450
 8996POPC   D2A72040   9.719  32.265   6.750
 8996POPC   C3A72041   9.702  32.263   7.050
 8996POPC   C4A72042   9.746  32.263   7.350
 8996POPC   C1B72043   9.984  32.164   6.450
 8996POPC   C2B72044   9.963  32.199   6.750
 8996POPC   C3B72045   9.995  32.159   7.050
 8996POPC   C4B72046   9.963  32.165   7.350
 8997POPC   NC372047  12.866  25.996   5.550
 8997POPC   PO472048  12.821  26.089   5.850
 8997POPC   GL172049  12.804  26.058   6.150
 8997POPC   GL272050  12.906  25.946   6.150
 8997POPC   C1A72051  12.888  26.021   6.450
 8997POPC   D2A72052  12.890  26.058   6.750
 8997POPC   C3A72053  12.822  26.078   7.050
 8997POPC   C4A72054  12.862  26.030   7.350
 8997POPC   C1B72055  12.946  25.765   6.450
 8997POPC   C2B72056  12.899  25.840   6.750
 8997POPC   C3B72057  12.934  25.793   7.050
 8997POPC   C4B72058  12.898  25.753   7.350
 8998POPC   NC372059  18.317  27.616   5.550
 8998POPC   PO472060  18.263  27.641   5.850
 8998POPC   GL172061  18.285  27.565   6.150
 8998POPC   GL272062  18.417  27.637   6.150
 8998POPC   C1A72063  18.274  27.555   6.450
 8998POPC   D2A72064  18.317  27.565   6.750
 8998POPC   C3A72065  18.300  27.606   7.050
 8998POPC   C4A72066  18.310  27.558   7.350
 8998POPC   C1B72067  18.563  27.606   6.450
 8998POPC   C2B72068  18.532  27.603   6.750
 8998POPC   C3B72069  18.542  27.653   7.050
 8998POPC   C4B72070  18.537  27.601   7.350
 8999POPC   NC372071   9.742   7.415   5.550
 8999POPC   PO472072   9.761   7.442   5.850
 8999POPC   GL172073   9.700   7.427   6.150
 8999POPC   GL272074   9.756   7.502   6.150
 8999POPC   C1A72075   9.718   7.431   6.450
 8999POPC   D2A72076   9.757   7.450   6.750
 8999POPC   C3A72077   9.785   7.372   7.050
 8999POPC   C4A72078   9.748   7.464   7.350
 8999POPC   C1B72079   9.800   7.639   6.450
 8999POPC   C2B72080   9.849   7.679   6.750
 8999POPC   C3B72081   9.793   7.704   7.050
 8999POPC   C4B72082   9.796   7.605   7.350
 9000POPC   NC372083  33.798  16.690   5.550
 9000POPC   PO472084  33.813  16.749   5.850
 9000POPC   GL172085  33.818  16.733   6.150
 9000POPC   GL272086  33.819  16.589   6.150
 9000POPC   C1A72087  33.800  16.687   6.450
 9000POPC   D2A72088  33.821  16.730   6.750
 9000POPC   C3A72089  33.847  16.748   7.050
 9000POPC   C4A72090  33.820  16.716   7.350
 9000POPC   C1B72091  33.736  16.502   6.450
 9000POPC   C2B72092  33.755  16.506   6.750
 9000POPC   C3B72093  33.721  16.469   7.050
 9000POPC   C4B72094  33.735  16.462   7.350
 9001POPC   NC372095  32.282  34.562   5.550
 9001POPC   PO472096  32.254  34.599   5.850
 9001POPC   GL172097  32.250  34.560   6.150
 9001POPC   GL272098  32.137  34.639   6.150
 9001POPC   C1A72099  32.217  34.616   6.450
 9001POPC   D2A72100  32.278  34.549   6.750
 9001POPC   C3A72101  32.202  34.570   7.050
 9001POPC   C4A72102  32.225  34.531   7.350
 9001POPC   C1B72103  32.043  34.613   6.450
 9001POPC   C2B72104  31.963  34.673   6.750
 9001POPC   C3B72105  31.979  34.612   7.050
 9001POPC   C4B72106  32.025  34.683   7.350
 9002POPC   NC372107  27.581  33.793   5.550
 9002POPC   PO472108  27.560  33.756   5.850
 9002POPC   GL172109  27.574  33.845   6.150
 9002POPC   GL272110  27.513  33.956   6.150
 9002POPC   C1A72111  27.640  33.798   6.450
 9002POPC   D2A72112  27.603  33.759   6.750
 9002POPC   C3A72113  27.582  33.760   7.050
 9002POPC   C4A72114  27.571  33.804   7.350
 9002POPC   C1B72115  27.504  33.982   6.450
 9002POPC   C2B72116  27.447  34.037   6.750
 9002POPC   C3B72117  27.530  34.043   7.050
 9002POPC   C4B72118  27.435  34.036   7.350
 9003POPC   NC372119  25.302  35.341   5.550
 9003POPC   PO472120  25.251  35.394   5.850
 9003POPC   GL172121  25.306  35.376   6.150
 9003POPC   GL272122  25.304  35.264   6.150
 9003POPC   C1A72123  25.247  35.366   6.450
 9003POPC   D2A72124  25.242  35.389   6.750
 9003POPC   C3A72125  25.264  35.373   7.050
 9003POPC   C4A72126  25.314  35.367   7.350
 9003POPC   C1B72127  25.311  35.147   6.450
 9003POPC   C2B72128  25.258  35.140   6.750
 9003POPC   C3B72129  25.299  35.056   7.050
 9003POPC   C4B72130  25.274  35.073   7.350
 9004POPC   NC372131  30.683   5.905   5.550
 9004POPC   PO472132  30.662   5.883   5.850
 9004POPC   GL172133  30.654   5.829   6.150
 9004POPC   GL272134  30.526   5.894   6.150
 9004POPC   C1A72135  30.731   5.870   6.450
 9004POPC   D2A72136  30.704   5.831   6.750
 9004POPC   C3A72137  30.691   5.853   7.050
 9004POPC   C4A72138  30.715   5.902   7.350
 9004POPC   C1B72139  30.424   5.892   6.450
 9004POPC   C2B72140  30.471   5.926   6.750
 9004POPC   C3B72141  30.411   5.902   7.050
 9004POPC   C4B72142  30.431   5.857   7.350
 9005POPC   NC372143  26.835  36.874   5.550
 9005POPC   PO472144  26.863  36.882   5.850
 9005POPC   GL172145  26.785  36.914   6.150
 9005POPC   GL272146  26.929  36.850   6.150
 9005POPC   C1A72147  26.866  36.941   6.450
 9005POPC   D2A72148  26.816  36.872   6.750
 9005POPC   C3A72149  26.849  36.917   7.050
 9005POPC   C4A72150  26.779  36.911   7.350
 9005POPC   C1B72151  26.951  36.765   6.450
 9005POPC   C2B72152  27.035  36.681   6.750
 9005POPC   C3B72153  27.031  36.715   7.050
 9005POPC   C4B72154  26.968  36.763   7.350
 9006POPC   NC372155  35.311   1.954   5.550
 9006POPC   PO472156  35.327   1.950   5.850
 9006POPC   GL172157  35.330   2.030   6.150
 9006POPC   GL272158  35.187   2.032   6.150
 9006POPC   C1A72159  35.318   2.003   6.450
 9006POPC   D2A72160  35.383   1.996   6.750
 9006POPC   C3A72161  35.308   2.009   7.050
 9006POPC   C4A72162  35.309   1.978   7.350
 9006POPC   C1B72163  35.133   2.031   6.450
 9006POPC   C2B72164  35.151   2.026   6.750
 9006POPC   C3B72165  35.152   2.036   7.050
 9006POPC   C4B72166  35.162   2.107   7.350
 9007POPC   NC372167  21.424  42.373   5.550
 9007POPC   PO472168  21.406  42.364   5.850
 9007POPC   GL172169  21.374  42.298   6.150
 9007POPC   GL272170  21.280  42.273   6.150
 9007POPC   C1A72171  21.376  42.296   6.450
 9007POPC   D2A72172  21.356  42.329   6.750
 9007POPC   C3A72173  21.354  42.356   7.050
 9007POPC   C4A72174  21.361  42.302   7.350
 9007POPC   C1B72175  21.183  42.292   6.450
 9007POPC   C2B72176  21.174  42.355   6.750
 9007POPC   C3B72177  21.090  42.328   7.050
 9007POPC   C4B72178  21.169  42.350   7.350
 9008POPC   NC372179  39.994  13.646   5.550
 9008POPC   PO472180  40.014  13.652   5.850
 9008POPC   GL172181  39.993  13.619   6.150
 9008POPC   GL272182  39.955  13.719   6.150
 9008POPC   C1A72183  40.010  13.659   6.450
 9008POPC   D2A72184  40.038  13.673   6.750
 9008POPC   C3A72185  39.966  13.582   7.050
 9008POPC   C4A72186  39.995  13.637   7.350
 9008POPC   C1B72187  39.945  13.829   6.450
 9008POPC   C2B72188  40.020  13.869   6.750
 9008POPC   C3B72189  39.989  13.857   7.050
 9008POPC   C4B72190  39.979  13.881   7.350
 9009POPC   NC372191   4.300  10.496   5.550
 9009POPC   PO472192   4.321  10.574   5.850
 9009POPC   GL172193   4.303  10.513   6.150
 9009POPC   GL272194   4.340  10.412   6.150
 9009POPC   C1A72195   4.335  10.550   6.450
 9009POPC   D2A72196   4.299  10.521   6.750
 9009POPC   C3A72197   4.269  10.571   7.050
 9009POPC   C4A72198   4.334  10.556   7.350
 9009POPC   C1B72199   4.411  10.252   6.450
 9009POPC   C2B72200   4.359  10.300   6.750
 9009POPC   C3B72201   4.393  10.277   7.050
 9009POPC   C4B72202   4.356  10.288   7.350
 9010POPC   NC372203  30.740  19.046   5.550
 9010POPC   PO472204  30.711  19.060   5.850
 9010POPC   GL172205  30.709  19.108   6.150
 9010POPC   GL272206  30.720  19.179   6.150
 9010POPC   C1A72207  30.716  19.107   6.450
 9010POPC   D2A72208  30.694  19.045   6.750
 9010POPC   C3A72209  30.690  19.027   7.050
 9010POPC   C4A72210  30.727  19.057   7.350
 9010POPC   C1B72211  30.767  19.255   6.450
 9010POPC   C2B72212  30.760  19.310   6.750
 9010POPC   C3B72213  30.721  19.286   7.050
 9010POPC   C4B72214  30.743  19.256   7.350
 9011POPC   NC372215  22.903   9.712   5.550
 9011POPC   PO472216  22.959   9.712   5.850
 9011POPC   GL172217  22.946   9.726   6.150
 9011POPC   GL272218  22.801   9.797   6.150
 9011POPC   C1A72219  22.970   9.749   6.450
 9011POPC   D2A72220  22.917   9.798   6.750
 9011POPC   C3A72221  22.949   9.704   7.050
 9011POPC   C4A72222  22.925   9.761   7.350
 9011POPC   C1B72223  22.690   9.841   6.450
 9011POPC   C2B72224  22.662   9.849   6.750
 9011POPC   C3B72225  22.669   9.871   7.050
 9011POPC   C4B72226  22.682   9.889   7.350
 9012POPC   NC372227  19.052  11.285   5.550
 9012POPC   PO472228  19.094  11.252   5.850
 9012POPC   GL172229  19.040  11.292   6.150
 9012POPC   GL272230  18.998  11.412   6.150
 9012POPC   C1A72231  19.032  11.292   6.450
 9012POPC   D2A72232  19.083  11.283   6.750
 9012POPC   C3A72233  19.065  11.338   7.050
 9012POPC   C4A72234  19.071  11.324   7.350
 9012POPC   C1B72235  19.081  11.573   6.450
 9012POPC   C2B72236  19.067  11.556   6.750
 9012POPC   C3B72237  19.080  11.539   7.050
 9012POPC   C4B72238  18.984  11.547   7.350
 9013POPC   NC372239  26.076  39.250   5.550
 9013POPC   PO472240  26.030  39.267   5.850
 9013POPC   GL172241  26.082  39.260   6.150
 9013POPC   GL272242  26.124  39.113   6.150
 9013POPC   C1A72243  26.021  39.229   6.450
 9013POPC   D2A72244  26.036  39.187   6.750
 9013POPC   C3A72245  26.071  39.255   7.050
 9013POPC   C4A72246  26.042  39.252   7.350
 9013POPC   C1B72247  26.199  39.002   6.450
 9013POPC   C2B72248  26.120  39.050   6.750
 9013POPC   C3B72249  26.165  38.980   7.050
 9013POPC   C4B72250  26.143  39.023   7.350
 9014POPC   NC372251  30.743  20.617   5.550
 9014POPC   PO472252  30.683  20.650   5.850
 9014POPC   GL172253  30.706  20.585   6.150
 9014POPC   GL272254  30.606  20.693   6.150
 9014POPC   C1A72255  30.696  20.651   6.450
 9014POPC   D2A72256  30.693  20.643   6.750
 9014POPC   C3A72257  30.681  20.565   7.050
 9014POPC   C4A72258  30.736  20.568   7.350
 9014POPC   C1B72259  30.518  20.759   6.450
 9014POPC   C2B72260  30.569  20.747   6.750
 9014POPC   C3B72261  30.534  20.784   7.050
 9014POPC   C4B72262  30.507  20.803   7.350
 9015POPC   NC372263  36.859  22.965   5.550
 9015POPC   PO472264  36.874  22.906   5.850
 9015POPC   GL172265  36.878  22.958   6.150
 9015POPC   GL272266  36.952  22.984   6.150
 9015POPC   C1A72267  36.918  22.921   6.450
 9015POPC   D2A72268  36.947  22.985   6.750
 9015POPC   C3A72269  36.948  22.904   7.050
 9015POPC   C4A72270  36.897  22.911   7.350
 9015POPC   C1B72271  37.117  23.130   6.450
 9015POPC   C2B72272  37.123  23.132   6.750
 9015POPC   C3B72273  37.101  23.150   7.050
 9015POPC   C4B72274  37.126  23.074   7.350
 9016POPC   NC372275  15.975  19.821   5.550
 9016POPC   PO472276  15.918  19.793   5.850
 9016POPC   GL172277  15.943  19.880   6.150
 9016POPC   GL272278  15.822  19.874   6.150
 9016POPC   C1A72279  15.992  19.863   6.450
 9016POPC   D2A72280  15.923  19.869   6.750
 9016POPC   C3A72281  15.940  19.793   7.050
 9016POPC   C4A72282  15.993  19.864   7.350
 9016POPC   C1B72283  15.744  19.832   6.450
 9016POPC   C2B72284  15.753  19.821   6.750
 9016POPC   C3B72285  15.672  19.783   7.050
 9016POPC   C4B72286  15.685  19.798   7.350
 9017POPC   NC372287   9.785  39.219   5.550
 9017POPC   PO472288   9.721  39.255   5.850
 9017POPC   GL172289   9.757  39.239   6.150
 9017POPC   GL272290   9.634  39.240   6.150
 9017POPC   C1A72291   9.713  39.213   6.450
 9017POPC   D2A72292   9.784  39.255   6.750
 9017POPC   C3A72293   9.754  39.242   7.050
 9017POPC   C4A72294   9.796  39.266   7.350
 9017POPC   C1B72295   9.548  39.297   6.450
 9017POPC   C2B72296   9.564  39.315   6.750
 9017POPC   C3B72297   9.509  39.297   7.050
 9017POPC   C4B72298   9.509  39.340   7.350
 9018POPC   NC372299  24.522  38.447   5.550
 9018POPC   PO472300  24.482  38.420   5.850
 9018POPC   GL172301  24.478  38.505   6.150
 9018POPC   GL272302  24.390  38.543   6.150
 9018POPC   C1A72303  24.444  38.412   6.450
 9018POPC   D2A72304  24.448  38.442   6.750
 9018POPC   C3A72305  24.496  38.456   7.050
 9018POPC   C4A72306  24.443  38.451   7.350
 9018POPC   C1B72307  24.330  38.715   6.450
 9018POPC   C2B72308  24.377  38.681   6.750
 9018POPC   C3B72309  24.364  38.712   7.050
 9018POPC   C4B72310  24.379  38.672   7.350
 9019POPC   NC372311   1.247  23.761   5.550
 9019POPC   PO472312   1.233  23.669   5.850
 9019POPC   GL172313   1.228  23.728   6.150
 9019POPC   GL272314   1.303  23.639   6.150
 9019POPC   C1A72315   1.170  23.689   6.450
 9019POPC   D2A72316   1.231  23.685   6.750
 9019POPC   C3A72317   1.225  23.692   7.050
 9019POPC   C4A72318   1.203  23.736   7.350
 9019POPC   C1B72319   1.399  23.535   6.450
 9019POPC   C2B72320   1.366  23.494   6.750
 9019POPC   C3B72321   1.387  23.542   7.050
 9019POPC   C4B72322   1.421  23.571   7.350
 9020POPC   NC372323  29.912  18.307   5.550
 9020POPC   PO472324  29.902  18.317   5.850
 9020POPC   GL172325  29.970  18.262   6.150
 9020POPC   GL272326  29.990  18.219   6.150
 9020POPC   C1A72327  29.958  18.253   6.450
 9020POPC   D2A72328  29.964  18.324   6.750
 9020POPC   C3A72329  29.872  18.244   7.050
 9020POPC   C4A72330  29.964  18.316   7.350
 9020POPC   C1B72331  30.154  18.153   6.450
 9020POPC   C2B72332  30.150  18.205   6.750
 9020POPC   C3B72333  30.100  18.193   7.050
 9020POPC   C4B72334  30.114  18.147   7.350
 9021POPC   NC372335   5.868  39.280   5.550
 9021POPC   PO472336   5.877  39.230   5.850
 9021POPC   GL172337   5.865  39.254   6.150
 9021POPC   GL272338   5.742  39.224   6.150
 9021POPC   C1A72339   5.909  39.256   6.450
 9021POPC   D2A72340   5.830  39.219   6.750
 9021POPC   C3A72341   5.856  39.231   7.050
 9021POPC   C4A72342   5.845  39.192   7.350
 9021POPC   C1B72343   5.607  39.209   6.450
 9021POPC   C2B72344   5.600  39.285   6.750
 9021POPC   C3B72345   5.605  39.233   7.050
 9021POPC   C4B72346   5.578  39.275   7.350
 9022POPC   NC372347   0.405  43.857   5.550
 9022POPC   PO472348   0.444  43.892   5.850
 9022POPC   GL172349   0.410  43.862   6.150
 9022POPC   GL272350   0.490  43.769   6.150
 9022POPC   C1A72351   0.439  43.846   6.450
 9022POPC   D2A72352   0.437  43.890   6.750
 9022POPC   C3A72353   0.465  43.866   7.050
 9022POPC   C4A72354   0.447  43.899   7.350
 9022POPC   C1B72355   0.651  43.704   6.450
 9022POPC   C2B72356   0.644  43.688   6.750
 9022POPC   C3B72357   0.627  43.755   7.050
 9022POPC   C4B72358   0.599  43.733   7.350
 9023POPC   NC372359  25.283   9.771   5.550
 9023POPC   PO472360  25.285   9.709   5.850
 9023POPC   GL172361  25.294   9.715   6.150
 9023POPC   GL272362  25.139   9.864   6.150
 9023POPC   C1A72363  25.281   9.707   6.450
 9023POPC   D2A72364  25.305   9.723   6.750
 9023POPC   C3A72365  25.298   9.709   7.050
 9023POPC   C4A72366  25.259   9.795   7.350
 9023POPC   C1B72367  25.066   9.962   6.450
 9023POPC   C2B72368  25.116   9.931   6.750
 9023POPC   C3B72369  25.083   9.937   7.050
 9023POPC   C4B72370  25.039   9.955   7.350
 9024POPC   NC372371  17.545  12.901   5.550
 9024POPC   PO472372  17.507  12.837   5.850
 9024POPC   GL172373  17.467  12.855   6.150
 9024POPC   GL272374  17.566  12.726   6.150
 9024POPC   C1A72375  17.467  12.867   6.450
 9024POPC   D2A72376  17.539  12.895   6.750
 9024POPC   C3A72377  17.505  12.893   7.050
 9024POPC   C4A72378  17.486  12.817   7.350
 9024POPC   C1B72379  17.680  12.679   6.450
 9024POPC   C2B72380  17.643  12.686   6.750
 9024POPC   C3B72381  17.611  12.687   7.050
 9024POPC   C4B72382  17.669  12.693   7.350
 9025POPC   NC372383   5.909  10.531   5.550
 9025POPC   PO472384   5.834  10.497   5.850
 9025POPC   GL172385   5.896  10.523   6.150
 9025POPC   GL272386   5.785  10.433   6.150
 9025POPC   C1A72387   5.826  10.537   6.450
 9025POPC   D2A72388   5.853  10.572   6.750
 9025POPC   C3A72389   5.857  10.484   7.050
 9025POPC   C4A72390   5.838  10.508   7.350
 9025POPC   C1B72391   5.622  10.357   6.450
 9025POPC   C2B72392   5.654  10.356   6.750
 9025POPC   C3B72393   5.713  10.424   7.050
 9025POPC   C4B72394   5.665  10.354   7.350
 9026POPC   NC372395   5.841  16.716   5.550
 9026POPC   PO472396   5.856  16.744   5.850
 9026POPC   GL172397   5.822  16.699   6.150
 9026POPC   GL272398   5.836  16.646   6.150
 9026POPC   C1A72399   5.891  16.720   6.450
 9026POPC   D2A72400   5.882  16.729   6.750
 9026POPC   C3A72401   5.840  16.734   7.050
 9026POPC   C4A72402   5.916  16.704   7.350
 9026POPC   C1B72403   5.790  16.473   6.450
 9026POPC   C2B72404   5.795  16.533   6.750
 9026POPC   C3B72405   5.780  16.526   7.050
 9026POPC   C4B72406   5.812  16.440   7.350
 9027POPC   NC372407   9.749   3.529   5.550
 9027POPC   PO472408   9.753   3.538   5.850
 9027POPC   GL172409   9.736   3.590   6.150
 9027POPC   GL272410   9.878   3.468   6.150
 9027POPC   C1A72411   9.777   3.589   6.450
 9027POPC   D2A72412   9.740   3.520   6.750
 9027POPC   C3A72413   9.762   3.571   7.050
 9027POPC   C4A72414   9.714   3.587   7.350
 9027POPC   C1B72415   9.986   3.410   6.450
 9027POPC   C2B72416   9.973   3.392   6.750
 9027POPC   C3B72417   9.907   3.400   7.050
 9027POPC   C4B72418   9.917   3.392   7.350
 9028POPC   NC372419  37.669  41.571   5.550
 9028POPC   PO472420  37.657  41.512   5.850
 9028POPC   GL172421  37.720  41.532   6.150
 9028POPC   GL272422  37.617  41.405   6.150
 9028POPC   C1A72423  37.694  41.561   6.450
 9028POPC   D2A72424  37.637  41.576   6.750
 9028POPC   C3A72425  37.671  41.537   7.050
 9028POPC   C4A72426  37.701  41.531   7.350
 9028POPC   C1B72427  37.610  41.350   6.450
 9028POPC   C2B72428  37.633  41.344   6.750
 9028POPC   C3B72429  37.675  41.310   7.050
 9028POPC   C4B72430  37.642  41.314   7.350
 9029POPC   NC372431  36.176  36.118   5.550
 9029POPC   PO472432  36.095  36.116   5.850
 9029POPC   GL172433  36.111  36.087   6.150
 9029POPC   GL272434  36.021  36.040   6.150
 9029POPC   C1A72435  36.134  36.130   6.450
 9029POPC   D2A72436  36.152  36.167   6.750
 9029POPC   C3A72437  36.081  36.079   7.050
 9029POPC   C4A72438  36.081  36.129   7.350
 9029POPC   C1B72439  36.029  35.921   6.450
 9029POPC   C2B72440  35.962  35.943   6.750
 9029POPC   C3B72441  36.006  35.871   7.050
 9029POPC   C4B72442  36.014  35.884   7.350
 9030POPC   NC372443  30.685   4.274   5.550
 9030POPC   PO472444  30.663   4.297   5.850
 9030POPC   GL172445  30.648   4.311   6.150
 9030POPC   GL272446  30.665   4.235   6.150
 9030POPC   C1A72447  30.731   4.365   6.450
 9030POPC   D2A72448  30.647   4.314   6.750
 9030POPC   C3A72449  30.709   4.294   7.050
 9030POPC   C4A72450  30.669   4.279   7.350
 9030POPC   C1B72451  30.654   4.032   6.450
 9030POPC   C2B72452  30.654   4.055   6.750
 9030POPC   C3B72453  30.633   4.059   7.050
 9030POPC   C4B72454  30.643   4.091   7.350
 9031POPC   NC372455  35.319  21.411   5.550
 9031POPC   PO472456  35.333  21.358   5.850
 9031POPC   GL172457  35.309  21.360   6.150
 9031POPC   GL272458  35.280  21.316   6.150
 9031POPC   C1A72459  35.321  21.353   6.450
 9031POPC   D2A72460  35.392  21.343   6.750
 9031POPC   C3A72461  35.302  21.391   7.050
 9031POPC   C4A72462  35.361  21.434   7.350
 9031POPC   C1B72463  35.209  21.141   6.450
 9031POPC   C2B72464  35.184  21.221   6.750
 9031POPC   C3B72465  35.160  21.161   7.050
 9031POPC   C4B72466  35.158  21.165   7.350
 9032POPC   NC372467  10.514  28.358   5.550
 9032POPC   PO472468  10.483  28.392   5.850
 9032POPC   GL172469  10.480  28.393   6.150
 9032POPC   GL272470  10.379  28.385   6.150
 9032POPC   C1A72471  10.537  28.390   6.450
 9032POPC   D2A72472  10.541  28.414   6.750
 9032POPC   C3A72473  10.479  28.383   7.050
 9032POPC   C4A72474  10.499  28.413   7.350
 9032POPC   C1B72475  10.269  28.329   6.450
 9032POPC   C2B72476  10.308  28.305   6.750
 9032POPC   C3B72477  10.229  28.342   7.050
 9032POPC   C4B72478  10.301  28.294   7.350
 9033POPC   NC372479   9.774   6.624   5.550
 9033POPC   PO472480   9.753   6.653   5.850
 9033POPC   GL172481   9.749   6.634   6.150
 9033POPC   GL272482   9.821   6.720   6.150
 9033POPC   C1A72483   9.788   6.686   6.450
 9033POPC   D2A72484   9.711   6.673   6.750
 9033POPC   C3A72485   9.781   6.654   7.050
 9033POPC   C4A72486   9.752   6.611   7.350
 9033POPC   C1B72487   9.870   6.824   6.450
 9033POPC   C2B72488   9.832   6.911   6.750
 9033POPC   C3B72489   9.863   6.849   7.050
 9033POPC   C4B72490   9.905   6.876   7.350
 9034POPC   NC372491  28.393   6.690   5.550
 9034POPC   PO472492  28.362   6.650   5.850
 9034POPC   GL172493  28.380   6.607   6.150
 9034POPC   GL272494  28.303   6.517   6.150
 9034POPC   C1A72495  28.333   6.676   6.450
 9034POPC   D2A72496  28.331   6.637   6.750
 9034POPC   C3A72497  28.393   6.665   7.050
 9034POPC   C4A72498  28.340   6.668   7.350
 9034POPC   C1B72499  28.164   6.470   6.450
 9034POPC   C2B72500  28.223   6.495   6.750
 9034POPC   C3B72501  28.214   6.433   7.050
 9034POPC   C4B72502  28.170   6.440   7.350
 9035POPC   NC372503  30.735  29.940   5.550
 9035POPC   PO472504  30.724  29.883   5.850
 9035POPC   GL172505  30.659  29.882   6.150
 9035POPC   GL272506  30.768  29.841   6.150
 9035POPC   C1A72507  30.718  29.955   6.450
 9035POPC   D2A72508  30.699  29.919   6.750
 9035POPC   C3A72509  30.660  29.907   7.050
 9035POPC   C4A72510  30.647  29.948   7.350
 9035POPC   C1B72511  30.793  29.727   6.450
 9035POPC   C2B72512  30.819  29.660   6.750
 9035POPC   C3B72513  30.814  29.705   7.050
 9035POPC   C4B72514  30.828  29.734   7.350
 9036POPC   NC372515   6.691  21.424   5.550
 9036POPC   PO472516   6.614  21.434   5.850
 9036POPC   GL172517   6.663  21.418   6.150
 9036POPC   GL272518   6.742  21.477   6.150
 9036POPC   C1A72519   6.668  21.418   6.450
 9036POPC   D2A72520   6.633  21.406   6.750
 9036POPC   C3A72521   6.650  21.428   7.050
 9036POPC   C4A72522   6.595  21.392   7.350
 9036POPC   C1B72523   6.854  21.508   6.450
 9036POPC   C2B72524   6.798  21.534   6.750
 9036POPC   C3B72525   6.853  21.517   7.050
 9036POPC   C4B72526   6.831  21.524   7.350
 9037POPC   NC372527   4.309  16.704   5.550
 9037POPC   PO472528   4.305  16.688   5.850
 9037POPC   GL172529   4.348  16.704   6.150
 9037POPC   GL272530   4.327  16.602   6.150
 9037POPC   C1A72531   4.272  16.718   6.450
 9037POPC   D2A72532   4.292  16.740   6.750
 9037POPC   C3A72533   4.359  16.755   7.050
 9037POPC   C4A72534   4.318  16.722   7.350
 9037POPC   C1B72535   4.320  16.479   6.450
 9037POPC   C2B72536   4.361  16.520   6.750
 9037POPC   C3B72537   4.402  16.519   7.050
 9037POPC   C4B72538   4.350  16.484   7.350
 9038POPC   NC372539  22.113   5.069   5.550
 9038POPC   PO472540  22.140   5.094   5.850
 9038POPC   GL172541  22.200   5.054   6.150
 9038POPC   GL272542  22.299   5.178   6.150
 9038POPC   C1A72543  22.166   5.071   6.450
 9038POPC   D2A72544  22.121   5.140   6.750
 9038POPC   C3A72545  22.133   5.048   7.050
 9038POPC   C4A72546  22.207   5.143   7.350
 9038POPC   C1B72547  22.428   5.174   6.450
 9038POPC   C2B72548  22.351   5.195   6.750
 9038POPC   C3B72549  22.351   5.164   7.050
 9038POPC   C4B72550  22.386   5.242   7.350
 9039POPC   NC372551  20.647   8.197   5.550
 9039POPC   PO472552  20.610   8.231   5.850
 9039POPC   GL172553  20.610   8.211   6.150
 9039POPC   GL272554  20.749   8.151   6.150
 9039POPC   C1A72555  20.620   8.178   6.450
 9039POPC   D2A72556  20.630   8.179   6.750
 9039POPC   C3A72557  20.567   8.186   7.050
 9039POPC   C4A72558  20.610   8.180   7.350
 9039POPC   C1B72559  20.793   8.073   6.450
 9039POPC   C2B72560  20.804   8.050   6.750
 9039POPC   C3B72561  20.821   8.000   7.050
 9039POPC   C4B72562  20.836   7.979   7.350
 9040POPC   NC372563   2.755  20.616   5.550
 9040POPC   PO472564   2.776  20.570   5.850
 9040POPC   GL172565   2.747  20.583   6.150
 9040POPC   GL272566   2.685  20.625   6.150
 9040POPC   C1A72567   2.732  20.628   6.450
 9040POPC   D2A72568   2.724  20.604   6.750
 9040POPC   C3A72569   2.783  20.600   7.050
 9040POPC   C4A72570   2.793  20.593   7.350
 9040POPC   C1B72571   2.478  20.561   6.450
 9040POPC   C2B72572   2.557  20.566   6.750
 9040POPC   C3B72573   2.569  20.588   7.050
 9040POPC   C4B72574   2.569  20.520   7.350
 9041POPC   NC372575  20.604  34.576   5.550
 9041POPC   PO472576  20.565  34.540   5.850
 9041POPC   GL172577  20.602  34.606   6.150
 9041POPC   GL272578  20.476  34.550   6.150
 9041POPC   C1A72579  20.646  34.526   6.450
 9041POPC   D2A72580  20.588  34.543   6.750
 9041POPC   C3A72581  20.645  34.573   7.050
 9041POPC   C4A72582  20.641  34.581   7.350
 9041POPC   C1B72583  20.395  34.525   6.450
 9041POPC   C2B72584  20.333  34.512   6.750
 9041POPC   C3B72585  20.409  34.458   7.050
 9041POPC   C4B72586  20.401  34.472   7.350
 9042POPC   NC372587  38.432  25.995   5.550
 9042POPC   PO472588  38.469  25.993   5.850
 9042POPC   GL172589  38.483  26.029   6.150
 9042POPC   GL272590  38.374  25.949   6.150
 9042POPC   C1A72591  38.491  26.010   6.450
 9042POPC   D2A72592  38.446  26.033   6.750
 9042POPC   C3A72593  38.505  26.055   7.050
 9042POPC   C4A72594  38.445  26.069   7.350
 9042POPC   C1B72595  38.264  25.962   6.450
 9042POPC   C2B72596  38.274  25.892   6.750
 9042POPC   C3B72597  38.234  25.908   7.050
 9042POPC   C4B72598  38.206  25.960   7.350
 9043POPC   NC372599  43.902  29.102   5.550
 9043POPC   PO472600  43.870  29.096   5.850
 9043POPC   GL172601  43.912  29.185   6.150
 9043POPC   GL272602  43.899  29.261   6.150
 9043POPC   C1A72603  43.847  29.116   6.450
 9043POPC   D2A72604  43.930  29.106   6.750
 9043POPC   C3A72605  43.865  29.193   7.050
 9043POPC   C4A72606  43.912  29.165   7.350
 9043POPC   C1B72607  43.859  29.435   6.450
 9043POPC   C2B72608  43.891  29.346   6.750
 9043POPC   C3B72609  43.874  29.376   7.050
 9043POPC   C4B72610  43.916  29.434   7.350
 9044POPC   NC372611  38.497  22.135   5.550
 9044POPC   PO472612  38.432  22.120   5.850
 9044POPC   GL172613  38.422  22.209   6.150
 9044POPC   GL272614  38.498  22.312   6.150
 9044POPC   C1A72615  38.480  22.126   6.450
 9044POPC   D2A72616  38.499  22.167   6.750
 9044POPC   C3A72617  38.478  22.135   7.050
 9044POPC   C4A72618  38.472  22.211   7.350
 9044POPC   C1B72619  38.637  22.355   6.450
 9044POPC   C2B72620  38.573  22.341   6.750
 9044POPC   C3B72621  38.556  22.385   7.050
 9044POPC   C4B72622  38.590  22.366   7.350
 9045POPC   NC372623  33.003  42.327   5.550
 9045POPC   PO472624  32.999  42.345   5.850
 9045POPC   GL172625  32.980  42.338   6.150
 9045POPC   GL272626  32.975  42.452   6.150
 9045POPC   C1A72627  32.994  42.382   6.450
 9045POPC   D2A72628  32.983  42.369   6.750
 9045POPC   C3A72629  33.032  42.343   7.050
 9045POPC   C4A72630  33.002  42.285   7.350
 9045POPC   C1B72631  32.953  42.562   6.450
 9045POPC   C2B72632  32.973  42.556   6.750
 9045POPC   C3B72633  32.907  42.610   7.050
 9045POPC   C4B72634  32.910  42.541   7.350
 9046POPC   NC372635  34.563  38.411   5.550
 9046POPC   PO472636  34.537  38.407   5.850
 9046POPC   GL172637  34.562  38.504   6.150
 9046POPC   GL272638  34.595  38.577   6.150
 9046POPC   C1A72639  34.527  38.440   6.450
 9046POPC   D2A72640  34.566  38.435   6.750
 9046POPC   C3A72641  34.618  38.479   7.050
 9046POPC   C4A72642  34.594  38.503   7.350
 9046POPC   C1B72643  34.614  38.735   6.450
 9046POPC   C2B72644  34.578  38.662   6.750
 9046POPC   C3B72645  34.626  38.741   7.050
 9046POPC   C4B72646  34.627  38.710   7.350
 9047POPC   NC372647  30.654  44.695   5.550
 9047POPC   PO472648  30.739  44.687   5.850
 9047POPC   GL172649  30.716  44.674   6.150
 9047POPC   GL272650  30.749  44.787   6.150
 9047POPC   C1A72651  30.730  44.681   6.450
 9047POPC   D2A72652  30.742  44.670   6.750
 9047POPC   C3A72653  30.738  44.654   7.050
 9047POPC   C4A72654  30.671  44.649   7.350
 9047POPC   C1B72655  30.720  44.918   6.450
 9047POPC   C2B72656  30.679  44.871   6.750
 9047POPC   C3B72657  30.764  44.862   7.050
 9047POPC   C4B72658  30.749  44.908   7.350
 9048POPC   NC372659  33.024  25.266   5.550
 9048POPC   PO472660  33.011  25.269   5.850
 9048POPC   GL172661  33.044  25.254   6.150
 9048POPC   GL272662  33.143  25.272   6.150
 9048POPC   C1A72663  33.045  25.287   6.450
 9048POPC   D2A72664  33.056  25.250   6.750
 9048POPC   C3A72665  33.016  25.231   7.050
 9048POPC   C4A72666  33.038  25.273   7.350
 9048POPC   C1B72667  33.223  25.217   6.450
 9048POPC   C2B72668  33.301  25.246   6.750
 9048POPC   C3B72669  33.255  25.148   7.050
 9048POPC   C4B72670  33.233  25.224   7.350
 9049POPC   NC372671  43.107   8.152   5.550
 9049POPC   PO472672  43.154   8.160   5.850
 9049POPC   GL172673  43.115   8.211   6.150
 9049POPC   GL272674  42.940   8.216   6.150
 9049POPC   C1A72675  43.105   8.226   6.450
 9049POPC   D2A72676  43.095   8.222   6.750
 9049POPC   C3A72677  43.083   8.158   7.050
 9049POPC   C4A72678  43.151   8.202   7.350
 9049POPC   C1B72679  42.884   8.179   6.450
 9049POPC   C2B72680  42.886   8.196   6.750
 9049POPC   C3B72681  42.815   8.221   7.050
 9049POPC   C4B72682  42.892   8.204   7.350
 9050POPC   NC372683  26.003  12.843   5.550
 9050POPC   PO472684  26.070  12.878   5.850
 9050POPC   GL172685  26.002  12.875   6.150
 9050POPC   GL272686  25.891  12.930   6.150
 9050POPC   C1A72687  26.087  12.834   6.450
 9050POPC   D2A72688  26.043  12.868   6.750
 9050POPC   C3A72689  26.012  12.850   7.050
 9050POPC   C4A72690  26.064  12.818   7.350
 9050POPC   C1B72691  25.819  13.007   6.450
 9050POPC   C2B72692  25.805  12.925   6.750
 9050POPC   C3B72693  25.859  13.008   7.050
 9050POPC   C4B72694  25.829  12.952   7.350
 9051POPC   NC372695  21.349   8.984   5.550
 9051POPC   PO472696  21.385   8.971   5.850
 9051POPC   GL172697  21.337   8.992   6.150
 9051POPC   GL272698  21.464   9.000   6.150
 9051POPC   C1A72699  21.368   8.962   6.450
 9051POPC   D2A72700  21.360   8.950   6.750
 9051POPC   C3A72701  21.384   8.956   7.050
 9051POPC   C4A72702  21.350   9.018   7.350
 9051POPC   C1B72703  21.627   9.061   6.450
 9051POPC   C2B72704  21.624   9.090   6.750
 9051POPC   C3B72705  21.668   9.072   7.050
 9051POPC   C4B72706  21.574   9.064   7.350
 9052POPC   NC372707  26.838   2.801   5.550
 9052POPC   PO472708  26.847   2.813   5.850
 9052POPC   GL172709  26.797   2.744   6.150
 9052POPC   GL272710  26.763   2.891   6.150
 9052POPC   C1A72711  26.819   2.794   6.450
 9052POPC   D2A72712  26.867   2.795   6.750
 9052POPC   C3A72713  26.771   2.742   7.050
 9052POPC   C4A72714  26.862   2.805   7.350
 9052POPC   C1B72715  26.752   3.019   6.450
 9052POPC   C2B72716  26.815   3.061   6.750
 9052POPC   C3B72717  26.817   3.002   7.050
 9052POPC   C4B72718  26.827   3.057   7.350
 9053POPC   NC372719  25.286  19.046   5.550
 9053POPC   PO472720  25.277  19.106   5.850
 9053POPC   GL172721  25.228  19.098   6.150
 9053POPC   GL272722  25.201  19.014   6.150
 9053POPC   C1A72723  25.226  19.045   6.450
 9053POPC   D2A72724  25.265  19.073   6.750
 9053POPC   C3A72725  25.221  19.079   7.050
 9053POPC   C4A72726  25.275  19.022   7.350
 9053POPC   C1B72727  25.051  18.915   6.450
 9053POPC   C2B72728  25.072  18.950   6.750
 9053POPC   C3B72729  25.031  18.933   7.050
 9053POPC   C4B72730  25.040  18.905   7.350
 9054POPC   NC372731  30.734  14.356   5.550
 9054POPC   PO472732  30.701  14.398   5.850
 9054POPC   GL172733  30.703  14.428   6.150
 9054POPC   GL272734  30.658  14.461   6.150
 9054POPC   C1A72735  30.738  14.437   6.450
 9054POPC   D2A72736  30.673  14.386   6.750
 9054POPC   C3A72737  30.690  14.439   7.050
 9054POPC   C4A72738  30.722  14.366   7.350
 9054POPC   C1B72739  30.574  14.548   6.450
 9054POPC   C2B72740  30.488  14.618   6.750
 9054POPC   C3B72741  30.551  14.572   7.050
 9054POPC   C4B72742  30.587  14.599   7.350
 9055POPC   NC372743   2.797  26.045   5.550
 9055POPC   PO472744   2.741  26.012   5.850
 9055POPC   GL172745   2.727  26.020   6.150
 9055POPC   GL272746   2.881  25.976   6.150
 9055POPC   C1A72747   2.814  26.037   6.450
 9055POPC   D2A72748   2.718  26.002   6.750
 9055POPC   C3A72749   2.786  26.005   7.050
 9055POPC   C4A72750   2.762  26.053   7.350
 9055POPC   C1B72751   2.893  25.902   6.450
 9055POPC   C2B72752   2.979  25.879   6.750
 9055POPC   C3B72753   2.983  25.907   7.050
 9055POPC   C4B72754   2.891  25.862   7.350
 9056POPC   NC372755  33.765  11.284   5.550
 9056POPC   PO472756  33.837  11.336   5.850
 9056POPC   GL172757  33.836  11.310   6.150
 9056POPC   GL272758  33.940  11.379   6.150
 9056POPC   C1A72759  33.821  11.286   6.450
 9056POPC   D2A72760  33.790  11.347   6.750
 9056POPC   C3A72761  33.832  11.334   7.050
 9056POPC   C4A72762  33.837  11.295   7.350
 9056POPC   C1B72763  33.986  11.419   6.450
 9056POPC   C2B72764  34.026  11.428   6.750
 9056POPC   C3B72765  34.003  11.407   7.050
 9056POPC   C4B72766  34.041  11.428   7.350
 9057POPC   NC372767  19.874  22.905   5.550
 9057POPC   PO472768  19.827  22.920   5.850
 9057POPC   GL172769  19.819  22.907   6.150
 9057POPC   GL272770  19.913  22.869   6.150
 9057POPC   C1A72771  19.873  22.900   6.450
 9057POPC   D2A72772  19.880  22.916   6.750
 9057POPC   C3A72773  19.801  22.939   7.050
 9057POPC   C4A72774  19.808  22.924   7.350
 9057POPC   C1B72775  19.887  22.699   6.450
 9057POPC   C2B72776  19.942  22.670   6.750
 9057POPC   C3B72777  19.954  22.713   7.050
 9057POPC   C4B72778  19.919  22.738   7.350
 9058POPC   NC372779  42.288  13.651   5.550
 9058POPC   PO472780  42.367  13.672   5.850
 9058POPC   GL172781  42.321  13.633   6.150
 9058POPC   GL272782  42.469  13.558   6.150
 9058POPC   C1A72783  42.367  13.585   6.450
 9058POPC   D2A72784  42.366  13.650   6.750
 9058POPC   C3A72785  42.337  13.674   7.050
 9058POPC   C4A72786  42.287  13.636   7.350
 9058POPC   C1B72787  42.495  13.426   6.450
 9058POPC   C2B72788  42.522  13.403   6.750
 9058POPC   C3B72789  42.474  13.424   7.050
 9058POPC   C4B72790  42.547  13.492   7.350
 9059POPC   NC372791  15.153  28.403   5.550
 9059POPC   PO472792  15.173  28.378   5.850
 9059POPC   GL172793  15.167  28.384   6.150
 9059POPC   GL272794  15.174  28.223   6.150
 9059POPC   C1A72795  15.211  28.406   6.450
 9059POPC   D2A72796  15.131  28.415   6.750
 9059POPC   C3A72797  15.205  28.366   7.050
 9059POPC   C4A72798  15.205  28.397   7.350
 9059POPC   C1B72799  15.178  28.129   6.450
 9059POPC   C2B72800  15.151  28.080   6.750
 9059POPC   C3B72801  15.139  28.153   7.050
 9059POPC   C4B72802  15.146  28.084   7.350
 9060POPC   NC372803  10.508  34.594   5.550
 9060POPC   PO472804  10.506  34.545   5.850
 9060POPC   GL172805  10.569  34.554   6.150
 9060POPC   GL272806  10.490  34.438   6.150
 9060POPC   C1A72807  10.519  34.600   6.450
 9060POPC   D2A72808  10.527  34.618   6.750
 9060POPC   C3A72809  10.569  34.539   7.050
 9060POPC   C4A72810  10.566  34.614   7.350
 9060POPC   C1B72811  10.419  34.400   6.450
 9060POPC   C2B72812  10.363  34.340   6.750
 9060POPC   C3B72813  10.415  34.357   7.050
 9060POPC   C4B72814  10.417  34.409   7.350
 9061POPC   NC372815  18.282  16.738   5.550
 9061POPC   PO472816  18.321  16.724   5.850
 9061POPC   GL172817  18.288  16.715   6.150
 9061POPC   GL272818  18.392  16.805   6.150
 9061POPC   C1A72819  18.259  16.701   6.450
 9061POPC   D2A72820  18.297  16.767   6.750
 9061POPC   C3A72821  18.271  16.697   7.050
 9061POPC   C4A72822  18.236  16.696   7.350
 9061POPC   C1B72823  18.530  16.818   6.450
 9061POPC   C2B72824  18.451  16.883   6.750
 9061POPC   C3B72825  18.475  16.864   7.050
 9061POPC   C4B72826  18.485  16.901   7.350
 9062POPC   NC372827   7.466  38.444   5.550
 9062POPC   PO472828   7.384  38.474   5.850
 9062POPC   GL172829   7.448  38.426   6.150
 9062POPC   GL272830   7.433  38.296   6.150
 9062POPC   C1A72831   7.442  38.427   6.450
 9062POPC   D2A72832   7.425  38.445   6.750
 9062POPC   C3A72833   7.456  38.415   7.050
 9062POPC   C4A72834   7.462  38.416   7.350
 9062POPC   C1B72835   7.512  38.256   6.450
 9062POPC   C2B72836   7.487  38.259   6.750
 9062POPC   C3B72837   7.550  38.199   7.050
 9062POPC   C4B72838   7.508  38.217   7.350
 9063POPC   NC372839  23.717  28.336   5.550
 9063POPC   PO472840  23.738  28.394   5.850
 9063POPC   GL172841  23.760  28.330   6.150
 9063POPC   GL272842  23.677  28.450   6.150
 9063POPC   C1A72843  23.675  28.361   6.450
 9063POPC   D2A72844  23.681  28.408   6.750
 9063POPC   C3A72845  23.686  28.343   7.050
 9063POPC   C4A72846  23.713  28.352   7.350
 9063POPC   C1B72847  23.597  28.557   6.450
 9063POPC   C2B72848  23.532  28.555   6.750
 9063POPC   C3B72849  23.596  28.591   7.050
 9063POPC   C4B72850  23.537  28.552   7.350
 9064POPC   NC372851   3.543   0.429   5.550
 9064POPC   PO472852   3.497   0.408   5.850
 9064POPC   GL172853   3.535   0.460   6.150
 9064POPC   GL272854   3.621   0.442   6.150
 9064POPC   C1A72855   3.518   0.389   6.450
 9064POPC   D2A72856   3.522   0.400   6.750
 9064POPC   C3A72857   3.548   0.475   7.050
 9064POPC   C4A72858   3.569   0.440   7.350
 9064POPC   C1B72859   3.775   0.491   6.450
 9064POPC   C2B72860   3.742   0.487   6.750
 9064POPC   C3B72861   3.782   0.455   7.050
 9064POPC   C4B72862   3.756   0.441   7.350
 9065POPC   NC372863  41.589  44.625   5.550
 9065POPC   PO472864  41.531  44.660   5.850
 9065POPC   GL172865  41.599  44.673   6.150
 9065POPC   GL272866  41.644  44.737   6.150
 9065POPC   C1A72867  41.540  44.671   6.450
 9065POPC   D2A72868  41.524  44.679   6.750
 9065POPC   C3A72869  41.579  44.705   7.050
 9065POPC   C4A72870  41.535  44.642   7.350
 9065POPC   C1B72871  41.817  44.788   6.450
 9065POPC   C2B72872  41.823  44.725   6.750
 9065POPC   C3B72873  41.758  44.784   7.050
 9065POPC   C4B72874  41.746  44.759   7.350
 9066POPC   NC372875  24.458  27.627   5.550
 9066POPC   PO472876  24.514  27.633   5.850
 9066POPC   GL172877  24.524  27.584   6.150
 9066POPC   GL272878  24.477  27.724   6.150
 9066POPC   C1A72879  24.492  27.627   6.450
 9066POPC   D2A72880  24.492  27.633   6.750
 9066POPC   C3A72881  24.476  27.543   7.050
 9066POPC   C4A72882  24.501  27.554   7.350
 9066POPC   C1B72883  24.535  27.822   6.450
 9066POPC   C2B72884  24.553  27.841   6.750
 9066POPC   C3B72885  24.516  27.845   7.050
 9066POPC   C4B72886  24.494  27.884   7.350
 9067POPC   NC372887  40.750   8.241   5.550
 9067POPC   PO472888  40.832   8.207   5.850
 9067POPC   GL172889  40.782   8.230   6.150
 9067POPC   GL272890  40.861   8.278   6.150
 9067POPC   C1A72891  40.820   8.175   6.450
 9067POPC   D2A72892  40.775   8.208   6.750
 9067POPC   C3A72893  40.757   8.217   7.050
 9067POPC   C4A72894  40.797   8.195   7.350
 9067POPC   C1B72895  40.898   8.370   6.450
 9067POPC   C2B72896  40.886   8.371   6.750
 9067POPC   C3B72897  40.886   8.422   7.050
 9067POPC   C4B72898  40.960   8.380   7.350
 9068POPC   NC372899  15.165  18.281   5.550
 9068POPC   PO472900  15.181  18.318   5.850
 9068POPC   GL172901  15.195  18.280   6.150
 9068POPC   GL272902  15.217  18.415   6.150
 9068POPC   C1A72903  15.215  18.308   6.450
 9068POPC   D2A72904  15.204  18.295   6.750
 9068POPC   C3A72905  15.187  18.279   7.050
 9068POPC   C4A72906  15.138  18.289   7.350
 9068POPC   C1B72907  15.232  18.489   6.450
 9068POPC   C2B72908  15.222  18.529   6.750
 9068POPC   C3B72909  15.266  18.545   7.050
 9068POPC   C4B72910  15.252  18.474   7.350
 9069POPC   NC372911  26.041  21.414   5.550
 9069POPC   PO472912  26.054  21.409   5.850
 9069POPC   GL172913  26.088  21.385   6.150
 9069POPC   GL272914  26.026  21.516   6.150
 9069POPC   C1A72915  26.002  21.417   6.450
 9069POPC   D2A72916  25.996  21.359   6.750
 9069POPC   C3A72917  26.035  21.399   7.050
 9069POPC   C4A72918  26.016  21.429   7.350
 9069POPC   C1B72919  26.039  21.657   6.450
 9069POPC   C2B72920  26.111  21.586   6.750
 9069POPC   C3B72921  26.084  21.616   7.050
 9069POPC   C4B72922  26.066  21.624   7.350
 9070POPC   NC372923  10.564  36.109   5.550
 9070POPC   PO472924  10.527  36.156   5.850
 9070POPC   GL172925  10.561  36.145   6.150
 9070POPC   GL272926  10.626  35.971   6.150
 9070POPC   C1A72927  10.551  36.165   6.450
 9070POPC   D2A72928  10.529  36.093   6.750
 9070POPC   C3A72929  10.560  36.119   7.050
 9070POPC   C4A72930  10.483  36.137   7.350
 9070POPC   C1B72931  10.594  35.863   6.450
 9070POPC   C2B72932  10.626  35.905   6.750
 9070POPC   C3B72933  10.627  35.895   7.050
 9070POPC   C4B72934  10.595  35.905   7.350
 9071POPC   NC372935   8.944  32.986   5.550
 9071POPC   PO472936   8.985  33.019   5.850
 9071POPC   GL172937   8.952  33.070   6.150
 9071POPC   GL272938   8.921  32.936   6.150
 9071POPC   C1A72939   8.977  33.064   6.450
 9071POPC   D2A72940   8.952  33.012   6.750
 9071POPC   C3A72941   8.982  33.034   7.050
 9071POPC   C4A72942   8.924  33.014   7.350
 9071POPC   C1B72943   8.781  32.796   6.450
 9071POPC   C2B72944   8.830  32.846   6.750
 9071POPC   C3B72945   8.790  32.781   7.050
 9071POPC   C4B72946   8.857  32.783   7.350
 9072POPC   NC372947  14.393  29.153   5.550
 9072POPC   PO472948  14.404  29.170   5.850
 9072POPC   GL172949  14.414  29.129   6.150
 9072POPC   GL272950  14.410  29.061   6.150
 9072POPC   C1A72951  14.368  29.152   6.450
 9072POPC   D2A72952  14.378  29.164   6.750
 9072POPC   C3A72953  14.400  29.145   7.050
 9072POPC   C4A72954  14.385  29.103   7.350
 9072POPC   C1B72955  14.334  28.895   6.450
 9072POPC   C2B72956  14.387  28.855   6.750
 9072POPC   C3B72957  14.375  28.939   7.050
 9072POPC   C4B72958  14.373  28.876   7.350
 9073POPC   NC372959  32.292   5.894   5.550
 9073POPC   PO472960  32.287   5.846   5.850
 9073POPC   GL172961  32.208   5.871   6.150
 9073POPC   GL272962  32.340   5.825   6.150
 9073POPC   C1A72963  32.235   5.914   6.450
 9073POPC   D2A72964  32.229   5.874   6.750
 9073POPC   C3A72965  32.271   5.856   7.050
 9073POPC   C4A72966  32.266   5.832   7.350
 9073POPC   C1B72967  32.530   5.869   6.450
 9073POPC   C2B72968  32.452   5.797   6.750
 9073POPC   C3B72969  32.471   5.814   7.050
 9073POPC   C4B72970  32.539   5.800   7.350
 9074POPC   NC372971  11.260  22.197   5.550
 9074POPC   PO472972  11.254  22.124   5.850
 9074POPC   GL172973  11.263  22.116   6.150
 9074POPC   GL272974  11.420  22.286   6.150
 9074POPC   C1A72975  11.349  22.154   6.450
 9074POPC   D2A72976  11.327  22.207   6.750
 9074POPC   C3A72977  11.348  22.146   7.050
 9074POPC   C4A72978  11.318  22.193   7.350
 9074POPC   C1B72979  11.409  22.313   6.450
 9074POPC   C2B72980  11.436  22.376   6.750
 9074POPC   C3B72981  11.503  22.383   7.050
 9074POPC   C4B72982  11.497  22.380   7.350
 9075POPC   NC372983  29.183  25.266   5.550
 9075POPC   PO472984  29.122  25.243   5.850
 9075POPC   GL172985  29.103  25.302   6.150
 9075POPC   GL272986  29.278  25.190   6.150
 9075POPC   C1A72987  29.184  25.292   6.450
 9075POPC   D2A72988  29.151  25.239   6.750
 9075POPC   C3A72989  29.187  25.299   7.050
 9075POPC   C4A72990  29.192  25.261   7.350
 9075POPC   C1B72991  29.335  25.150   6.450
 9075POPC   C2B72992  29.365  25.146   6.750
 9075POPC   C3B72993  29.335  25.156   7.050
 9075POPC   C4B72994  29.324  25.152   7.350
 9076POPC   NC372995  16.759   2.780   5.550
 9076POPC   PO472996  16.735   2.761   5.850
 9076POPC   GL172997  16.682   2.762   6.150
 9076POPC   GL272998  16.648   2.889   6.150
 9076POPC   C1A72999  16.778   2.730   6.450
 9076POPC   D2A73000  16.712   2.784   6.750
 9076POPC   C3A73001  16.683   2.802   7.050
 9076POPC   C4A73002  16.730   2.741   7.350
 9076POPC   C1B73003  16.581   2.880   6.450
 9076POPC   C2B73004  16.566   2.901   6.750
 9076POPC   C3B73005  16.511   2.928   7.050
 9076POPC   C4B73006  16.538   2.943   7.350
 9077POPC   NC373007   4.334  42.347   5.550
 9077POPC   PO473008   4.341  42.355   5.850
 9077POPC   GL173009   4.357  42.295   6.150
 9077POPC   GL273010   4.422  42.268   6.150
 9077POPC   C1A73011   4.319  42.365   6.450
 9077POPC   D2A73012   4.314  42.362   6.750
 9077POPC   C3A73013   4.336  42.383   7.050
 9077POPC   C4A73014   4.345  42.368   7.350
 9077POPC   C1B73015   4.549  42.195   6.450
 9077POPC   C2B73016   4.589  42.219   6.750
 9077POPC   C3B73017   4.536  42.183   7.050
 9077POPC   C4B73018   4.504  42.184   7.350
 9078POPC   NC373019   1.953  21.357   5.550
 9078POPC   PO473020   2.000  21.425   5.850
 9078POPC   GL173021   1.987  21.401   6.150
 9078POPC   GL273022   2.021  21.531   6.150
 9078POPC   C1A73023   2.019  21.344   6.450
 9078POPC   D2A73024   1.990  21.361   6.750
 9078POPC   C3A73025   1.950  21.399   7.050
 9078POPC   C4A73026   1.992  21.350   7.350
 9078POPC   C1B73027   2.050  21.570   6.450
 9078POPC   C2B73028   2.118  21.566   6.750
 9078POPC   C3B73029   2.139  21.576   7.050
 9078POPC   C4B73030   2.131  21.612   7.350
 9079POPC   NC373031  26.085  33.823   5.550
 9079POPC   PO473032  26.007  33.791   5.850
 9079POPC   GL173033  26.091  33.787   6.150
 9079POPC   GL273034  26.013  33.727   6.150
 9079POPC   C1A73035  26.069  33.795   6.450
 9079POPC   D2A73036  26.091  33.822   6.750
 9079POPC   C3A73037  26.068  33.841   7.050
 9079POPC   C4A73038  26.010  33.774   7.350
 9079POPC   C1B73039  26.028  33.541   6.450
 9079POPC   C2B73040  26.008  33.569   6.750
 9079POPC   C3B73041  26.008  33.533   7.050
 9079POPC   C4B73042  25.967  33.588   7.350
 9080POPC   NC373043  41.539  27.551   5.550
 9080POPC   PO473044  41.525  27.582   5.850
 9080POPC   GL173045  41.595  27.641   6.150
 9080POPC   GL273046  41.453  27.730   6.150
 9080POPC   C1A73047  41.580  27.548   6.450
 9080POPC   D2A73048  41.584  27.633   6.750
 9080POPC   C3A73049  41.548  27.603   7.050
 9080POPC   C4A73050  41.542  27.551   7.350
 9080POPC   C1B73051  41.472  27.854   6.450
 9080POPC   C2B73052  41.409  27.775   6.750
 9080POPC   C3B73053  41.481  27.849   7.050
 9080POPC   C4B73054  41.449  27.764   7.350
 9081POPC   NC373055  15.982  20.647   5.550
 9081POPC   PO473056  15.937  20.597   5.850
 9081POPC   GL173057  15.931  20.659   6.150
 9081POPC   GL273058  15.822  20.696   6.150
 9081POPC   C1A73059  15.926  20.567   6.450
 9081POPC   D2A73060  15.924  20.576   6.750
 9081POPC   C3A73061  15.915  20.612   7.050
 9081POPC   C4A73062  15.997  20.642   7.350
 9081POPC   C1B73063  15.774  20.722   6.450
 9081POPC   C2B73064  15.738  20.704   6.750
 9081POPC   C3B73065  15.763  20.765   7.050
 9081POPC   C4B73066  15.723  20.752   7.350
 9082POPC   NC373067  18.255  34.608   5.550
 9082POPC   PO473068  18.250  34.544   5.850
 9082POPC   GL173069  18.316  34.564   6.150
 9082POPC   GL273070  18.370  34.676   6.150
 9082POPC   C1A73071  18.258  34.594   6.450
 9082POPC   D2A73072  18.286  34.557   6.750
 9082POPC   C3A73073  18.305  34.563   7.050
 9082POPC   C4A73074  18.285  34.614   7.350
 9082POPC   C1B73075  18.401  34.716   6.450
 9082POPC   C2B73076  18.419  34.747   6.750
 9082POPC   C3B73077  18.411  34.789   7.050
 9082POPC   C4B73078  18.422  34.751   7.350
 9083POPC   NC373079  33.006  28.385   5.550
 9083POPC   PO473080  33.066  28.396   5.850
 9083POPC   GL173081  33.029  28.376   6.150
 9083POPC   GL273082  32.978  28.292   6.150
 9083POPC   C1A73083  33.023  28.369   6.450
 9083POPC   D2A73084  33.036  28.384   6.750
 9083POPC   C3A73085  33.068  28.351   7.050
 9083POPC   C4A73086  32.990  28.396   7.350
 9083POPC   C1B73087  32.833  28.129   6.450
 9083POPC   C2B73088  32.898  28.204   6.750
 9083POPC   C3B73089  32.867  28.132   7.050
 9083POPC   C4B73090  32.894  28.135   7.350
 9084POPC   NC373091  13.616   6.684   5.550
 9084POPC   PO473092  13.665   6.608   5.850
 9084POPC   GL173093  13.630   6.644   6.150
 9084POPC   GL273094  13.529   6.719   6.150
 9084POPC   C1A73095  13.632   6.648   6.450
 9084POPC   D2A73096  13.589   6.692   6.750
 9084POPC   C3A73097  13.618   6.595   7.050
 9084POPC   C4A73098  13.614   6.601   7.350
 9084POPC   C1B73099  13.449   6.780   6.450
 9084POPC   C2B73100  13.470   6.794   6.750
 9084POPC   C3B73101  13.476   6.844   7.050
 9084POPC   C4B73102  13.409   6.814   7.350
 9085POPC   NC373103  16.766  15.169   5.550
 9085POPC   PO473104  16.738  15.225   5.850
 9085POPC   GL173105  16.697  15.229   6.150
 9085POPC   GL273106  16.653  15.311   6.150
 9085POPC   C1A73107  16.725  15.174   6.450
 9085POPC   D2A73108  16.737  15.132   6.750
 9085POPC   C3A73109  16.709  15.133   7.050
 9085POPC   C4A73110  16.705  15.140   7.350
 9085POPC   C1B73111  16.611  15.406   6.450
 9085POPC   C2B73112  16.554  15.434   6.750
 9085POPC   C3B73113  16.627  15.412   7.050
 9085POPC   C4B73114  16.598  15.413   7.350
 9086POPC   NC373115  28.364  30.702   5.550
 9086POPC   PO473116  28.342  30.714   5.850
 9086POPC   GL173117  28.403  30.718   6.150
 9086POPC   GL273118  28.436  30.847   6.150
 9086POPC   C1A73119  28.336  30.720   6.450
 9086POPC   D2A73120  28.332  30.702   6.750
 9086POPC   C3A73121  28.322  30.677   7.050
 9086POPC   C4A73122  28.383  30.726   7.350
 9086POPC   C1B73123  28.426  30.981   6.450
 9086POPC   C2B73124  28.399  30.948   6.750
 9086POPC   C3B73125  28.457  30.926   7.050
 9086POPC   C4B73126  28.429  30.905   7.350
 9087POPC   NC373127  29.110  16.735   5.550
 9087POPC   PO473128  29.169  16.758   5.850
 9087POPC   GL173129  29.115  16.732   6.150
 9087POPC   GL273130  29.184  16.838   6.150
 9087POPC   C1A73131  29.192  16.778   6.450
 9087POPC   D2A73132  29.181  16.775   6.750
 9087POPC   C3A73133  29.179  16.731   7.050
 9087POPC   C4A73134  29.131  16.687   7.350
 9087POPC   C1B73135  29.143  16.952   6.450
 9087POPC   C2B73136  29.126  16.932   6.750
 9087POPC   C3B73137  29.198  17.008   7.050
 9087POPC   C4B73138  29.120  17.027   7.350
 9088POPC   NC373139  37.649  15.919   5.550
 9088POPC   PO473140  37.653  15.930   5.850
 9088POPC   GL173141  37.658  15.999   6.150
 9088POPC   GL273142  37.729  15.864   6.150
 9088POPC   C1A73143  37.631  15.922   6.450
 9088POPC   D2A73144  37.720  15.976   6.750
 9088POPC   C3A73145  37.676  15.931   7.050
 9088POPC   C4A73146  37.717  15.941   7.350
 9088POPC   C1B73147  37.796  15.749   6.450
 9088POPC   C2B73148  37.748  15.706   6.750
 9088POPC   C3B73149  37.786  15.710   7.050
 9088POPC   C4B73150  37.809  15.714   7.350
 9089POPC   NC373151  12.898  25.306   5.550
 9089POPC   PO473152  12.818  25.274   5.850
 9089POPC   GL173153  12.848  25.269   6.150
 9089POPC   GL273154  12.714  25.221   6.150
 9089POPC   C1A73155  12.842  25.246   6.450
 9089POPC   D2A73156  12.876  25.313   6.750
 9089POPC   C3A73157  12.844  25.225   7.050
 9089POPC   C4A73158  12.873  25.289   7.350
 9089POPC   C1B73159  12.617  25.232   6.450
 9089POPC   C2B73160  12.633  25.276   6.750
 9089POPC   C3B73161  12.598  25.287   7.050
 9089POPC   C4B73162  12.588  25.220   7.350
 9090POPC   NC373163  18.258   0.450   5.550
 9090POPC   PO473164  18.286   0.425   5.850
 9090POPC   GL173165  18.309   0.487   6.150
 9090POPC   GL273166  18.431   0.428   6.150
 9090POPC   C1A73167  18.255   0.481   6.450
 9090POPC   D2A73168  18.313   0.421   6.750
 9090POPC   C3A73169  18.248   0.452   7.050
 9090POPC   C4A73170  18.331   0.396   7.350
 9090POPC   C1B73171  18.533   0.461   6.450
 9090POPC   C2B73172  18.518   0.459   6.750
 9090POPC   C3B73173  18.529   0.432   7.050
 9090POPC   C4B73174  18.566   0.513   7.350
 9091POPC   NC373175  11.263  21.340   5.550
 9091POPC   PO473176  11.262  21.370   5.850
 9091POPC   GL173177  11.328  21.397   6.150
 9091POPC   GL273178  11.365  21.288   6.150
 9091POPC   C1A73179  11.284  21.358   6.450
 9091POPC   D2A73180  11.261  21.353   6.750
 9091POPC   C3A73181  11.265  21.351   7.050
 9091POPC   C4A73182  11.256  21.384   7.350
 9091POPC   C1B73183  11.418  21.112   6.450
 9091POPC   C2B73184  11.368  21.148   6.750
 9091POPC   C3B73185  11.366  21.137   7.050
 9091POPC   C4B73186  11.431  21.112   7.350
 9092POPC   NC373187   4.348  39.220   5.550
 9092POPC   PO473188   4.346  39.211   5.850
 9092POPC   GL173189   4.310  39.219   6.150
 9092POPC   GL273190   4.184  39.224   6.150
 9092POPC   C1A73191   4.344  39.277   6.450
 9092POPC   D2A73192   4.361  39.203   6.750
 9092POPC   C3A73193   4.285  39.267   7.050
 9092POPC   C4A73194   4.342  39.244   7.350
 9092POPC   C1B73195   4.084  39.222   6.450
 9092POPC   C2B73196   4.066  39.254   6.750
 9092POPC   C3B73197   4.076  39.223   7.050
 9092POPC   C4B73198   4.057  39.196   7.350
 9093POPC   NC373199  39.975  12.812   5.550
 9093POPC   PO473200  40.007  12.896   5.850
 9093POPC   GL173201  39.989  12.868   6.150
 9093POPC   GL273202  39.956  12.965   6.150
 9093POPC   C1A73203  40.033  12.879   6.450
 9093POPC   D2A73204  39.987  12.817   6.750
 9093POPC   C3A73205  40.053  12.819   7.050
 9093POPC   C4A73206  39.989  12.826   7.350
 9093POPC   C1B73207  39.831  13.061   6.450
 9093POPC   C2B73208  39.768  13.024   6.750
 9093POPC   C3B73209  39.815  13.048   7.050
 9093POPC   C4B73210  39.797  13.039   7.350
 9094POPC   NC373211  42.330  21.340   5.550
 9094POPC   PO473212  42.314  21.343   5.850
 9094POPC   GL173213  42.331  21.338   6.150
 9094POPC   GL273214  42.224  21.350   6.150
 9094POPC   C1A73215  42.384  21.354   6.450
 9094POPC   D2A73216  42.320  21.388   6.750
 9094POPC   C3A73217  42.326  21.419   7.050
 9094POPC   C4A73218  42.382  21.385   7.350
 9094POPC   C1B73219  42.065  21.266   6.450
 9094POPC   C2B73220  42.076  21.227   6.750
 9094POPC   C3B73221  42.148  21.227   7.050
 9094POPC   C4B73222  42.066  21.267   7.350
 9095POPC   NC373223   8.950   0.415   5.550
 9095POPC   PO473224   8.943   0.464   5.850
 9095POPC   GL173225   8.930   0.479   6.150
 9095POPC   GL273226   9.059   0.403   6.150
 9095POPC   C1A73227   8.965   0.444   6.450
 9095POPC   D2A73228   8.935   0.468   6.750
 9095POPC   C3A73229   8.986   0.476   7.050
 9095POPC   C4A73230   9.007   0.413   7.350
 9095POPC   C1B73231   9.265   0.362   6.450
 9095POPC   C2B73232   9.168   0.345   6.750
 9095POPC   C3B73233   9.174   0.385   7.050
 9095POPC   C4B73234   9.255   0.388   7.350
 9096POPC   NC373235  15.927  36.915   5.550
 9096POPC   PO473236  15.973  36.873   5.850
 9096POPC   GL173237  15.939  36.898   6.150
 9096POPC   GL273238  16.052  36.793   6.150
 9096POPC   C1A73239  15.994  36.891   6.450
 9096POPC   D2A73240  15.908  36.866   6.750
 9096POPC   C3A73241  15.984  36.857   7.050
 9096POPC   C4A73242  15.965  36.883   7.350
 9096POPC   C1B73243  16.177  36.728   6.450
 9096POPC   C2B73244  16.120  36.705   6.750
 9096POPC   C3B73245  16.117  36.756   7.050
 9096POPC   C4B73246  16.138  36.705   7.350
 9097POPC   NC373247  27.626  12.063   5.550
 9097POPC   PO473248  27.603  12.060   5.850
 9097POPC   GL173249  27.641  12.031   6.150
 9097POPC   GL273250  27.514  11.955   6.150
 9097POPC   C1A73251  27.544  12.034   6.450
 9097POPC   D2A73252  27.613  12.042   6.750
 9097POPC   C3A73253  27.640  12.061   7.050
 9097POPC   C4A73254  27.557  12.077   7.350
 9097POPC   C1B73255  27.422  11.877   6.450
 9097POPC   C2B73256  27.502  11.815   6.750
 9097POPC   C3B73257  27.498  11.840   7.050
 9097POPC   C4B73258  27.415  11.841   7.350
 9098POPC   NC373259  15.912   3.510   5.550
 9098POPC   PO473260  15.907   3.583   5.850
 9098POPC   GL173261  15.977   3.500   6.150
 9098POPC   GL273262  15.829   3.642   6.150
 9098POPC   C1A73263  15.984   3.572   6.450
 9098POPC   D2A73264  15.956   3.521   6.750
 9098POPC   C3A73265  15.965   3.514   7.050
 9098POPC   C4A73266  15.930   3.524   7.350
 9098POPC   C1B73267  15.801   3.747   6.450
 9098POPC   C2B73268  15.809   3.704   6.750
 9098POPC   C3B73269  15.816   3.701   7.050
 9098POPC   C4B73270  15.719   3.753   7.350
 9099POPC   NC373271  13.593   5.066   5.550
 9099POPC   PO473272  13.677   5.132   5.850
 9099POPC   GL173273  13.594   5.138   6.150
 9099POPC   GL273274  13.485   5.154   6.150
 9099POPC   C1A73275  13.619   5.065   6.450
 9099POPC   D2A73276  13.583   5.079   6.750
 9099POPC   C3A73277  13.603   5.065   7.050
 9099POPC   C4A73278  13.645   5.083   7.350
 9099POPC   C1B73279  13.385   5.155   6.450
 9099POPC   C2B73280  13.355   5.115   6.750
 9099POPC   C3B73281  13.419   5.132   7.050
 9099POPC   C4B73282  13.377   5.140   7.350
 9100POPC   NC373283  22.955  40.758   5.550
 9100POPC   PO473284  22.983  40.767   5.850
 9100POPC   GL173285  22.911  40.825   6.150
 9100POPC   GL273286  22.863  40.854   6.150
 9100POPC   C1A73287  22.889  40.807   6.450
 9100POPC   D2A73288  22.943  40.781   6.750
 9100POPC   C3A73289  22.930  40.812   7.050
 9100POPC   C4A73290  22.929  40.784   7.350
 9100POPC   C1B73291  22.703  40.826   6.450
 9100POPC   C2B73292  22.709  40.890   6.750
 9100POPC   C3B73293  22.713  40.857   7.050
 9100POPC   C4B73294  22.734  40.858   7.350
 9101POPC   NC373295   3.545  42.355   5.550
 9101POPC   PO473296   3.520  42.369   5.850
 9101POPC   GL173297   3.528  42.335   6.150
 9101POPC   GL273298   3.604  42.385   6.150
 9101POPC   C1A73299   3.521  42.374   6.450
 9101POPC   D2A73300   3.583  42.356   6.750
 9101POPC   C3A73301   3.542  42.381   7.050
 9101POPC   C4A73302   3.508  42.316   7.350
 9101POPC   C1B73303   3.700  42.487   6.450
 9101POPC   C2B73304   3.649  42.488   6.750
 9101POPC   C3B73305   3.657  42.523   7.050
 9101POPC   C4B73306   3.687  42.559   7.350
 9102POPC   NC373307  37.701  26.091   5.550
 9102POPC   PO473308  37.726  26.066   5.850
 9102POPC   GL173309  37.634  26.008   6.150
 9102POPC   GL273310  37.520  26.066   6.150
 9102POPC   C1A73311  37.677  26.087   6.450
 9102POPC   D2A73312  37.699  26.085   6.750
 9102POPC   C3A73313  37.663  26.024   7.050
 9102POPC   C4A73314  37.664  26.012   7.350
 9102POPC   C1B73315  37.450  26.077   6.450
 9102POPC   C2B73316  37.398  26.081   6.750
 9102POPC   C3B73317  37.396  26.041   7.050
 9102POPC   C4B73318  37.437  26.030   7.350
 9103POPC   NC373319  19.078   9.712   5.550
 9103POPC   PO473320  19.031   9.768   5.850
 9103POPC   GL173321  19.088   9.794   6.150
 9103POPC   GL273322  18.952   9.776   6.150
 9103POPC   C1A73323  19.104   9.773   6.450
 9103POPC   D2A73324  19.020   9.760   6.750
 9103POPC   C3A73325  19.056   9.733   7.050
 9103POPC   C4A73326  19.027   9.707   7.350
 9103POPC   C1B73327  18.836   9.867   6.450
 9103POPC   C2B73328  18.830   9.775   6.750
 9103POPC   C3B73329  18.800   9.811   7.050
 9103POPC   C4B73330  18.806   9.855   7.350
 9104POPC   NC373331  19.869   1.998   5.550
 9104POPC   PO473332  19.786   2.004   5.850
 9104POPC   GL173333  19.869   2.015   6.150
 9104POPC   GL273334  19.864   2.117   6.150
 9104POPC   C1A73335  19.841   1.973   6.450
 9104POPC   D2A73336  19.787   2.016   6.750
 9104POPC   C3A73337  19.873   1.979   7.050
 9104POPC   C4A73338  19.835   2.032   7.350
 9104POPC   C1B73339  19.973   2.251   6.450
 9104POPC   C2B73340  19.945   2.229   6.750
 9104POPC   C3B73341  19.919   2.183   7.050
 9104POPC   C4B73342  19.946   2.200   7.350
 9105POPC   NC373343   1.179  19.861   5.550
 9105POPC   PO473344   1.234  19.829   5.850
 9105POPC   GL173345   1.207  19.881   6.150
 9105POPC   GL273346   1.106  19.692   6.150
 9105POPC   C1A73347   1.243  19.843   6.450
 9105POPC   D2A73348   1.177  19.823   6.750
 9105POPC   C3A73349   1.203  19.832   7.050
 9105POPC   C4A73350   1.234  19.798   7.350
 9105POPC   C1B73351   1.074  19.655   6.450
 9105POPC   C2B73352   1.048  19.646   6.750
 9105POPC   C3B73353   1.035  19.602   7.050
 9105POPC   C4B73354   1.036  19.624   7.350
 9106POPC   NC373355  19.064   1.176   5.550
 9106POPC   PO473356  19.068   1.241   5.850
 9106POPC   GL173357  19.061   1.167   6.150
 9106POPC   GL273358  19.094   1.289   6.150
 9106POPC   C1A73359  19.105   1.225   6.450
 9106POPC   D2A73360  19.069   1.173   6.750
 9106POPC   C3A73361  19.095   1.166   7.050
 9106POPC   C4A73362  19.091   1.209   7.350
 9106POPC   C1B73363  19.091   1.495   6.450
 9106POPC   C2B73364  19.071   1.461   6.750
 9106POPC   C3B73365  19.141   1.504   7.050
 9106POPC   C4B73366  19.075   1.468   7.350
 9107POPC   NC373367  39.268  31.486   5.550
 9107POPC   PO473368  39.190  31.510   5.850
 9107POPC   GL173369  39.187  31.450   6.150
 9107POPC   GL273370  39.134  31.580   6.150
 9107POPC   C1A73371  39.235  31.427   6.450
 9107POPC   D2A73372  39.252  31.462   6.750
 9107POPC   C3A73373  39.193  31.440   7.050
 9107POPC   C4A73374  39.232  31.444   7.350
 9107POPC   C1B73375  39.140  31.743   6.450
 9107POPC   C2B73376  39.090  31.712   6.750
 9107POPC   C3B73377  39.081  31.662   7.050
 9107POPC   C4B73378  39.087  31.647   7.350
 9108POPC   NC373379  39.210  41.530   5.550
 9108POPC   PO473380  39.241  41.601   5.850
 9108POPC   GL173381  39.259  41.526   6.150
 9108POPC   GL273382  39.329  41.587   6.150
 9108POPC   C1A73383  39.259  41.513   6.450
 9108POPC   D2A73384  39.235  41.519   6.750
 9108POPC   C3A73385  39.239  41.553   7.050
 9108POPC   C4A73386  39.198  41.547   7.350
 9108POPC   C1B73387  39.493  41.575   6.450
 9108POPC   C2B73388  39.477  41.584   6.750
 9108POPC   C3B73389  39.481  41.588   7.050
 9108POPC   C4B73390  39.435  41.583   7.350
 9109POPC   NC373391  34.578  15.168   5.550
 9109POPC   PO473392  34.613  15.179   5.850
 9109POPC   GL173393  34.625  15.190   6.150
 9109POPC   GL273394  34.692  15.287   6.150
 9109POPC   C1A73395  34.613  15.214   6.450
 9109POPC   D2A73396  34.569  15.185   6.750
 9109POPC   C3A73397  34.565  15.152   7.050
 9109POPC   C4A73398  34.584  15.136   7.350
 9109POPC   C1B73399  34.787  15.268   6.450
 9109POPC   C2B73400  34.812  15.296   6.750
 9109POPC   C3B73401  34.826  15.323   7.050
 9109POPC   C4B73402  34.804  15.342   7.350
 9110POPC   NC373403   5.883   5.879   5.550
 9110POPC   PO473404   5.826   5.857   5.850
 9110POPC   GL173405   5.820   5.882   6.150
 9110POPC   GL273406   5.887   5.957   6.150
 9110POPC   C1A73407   5.890   5.904   6.450
 9110POPC   D2A73408   5.847   5.896   6.750
 9110POPC   C3A73409   5.840   5.839   7.050
 9110POPC   C4A73410   5.914   5.884   7.350
 9110POPC   C1B73411   5.999   6.056   6.450
 9110POPC   C2B73412   5.916   6.132   6.750
 9110POPC   C3B73413   6.007   6.147   7.050
 9110POPC   C4B73414   5.962   6.143   7.350
 9111POPC   NC373415  36.889  20.561   5.550
 9111POPC   PO473416  36.950  20.590   5.850
 9111POPC   GL173417  36.866  20.591   6.150
 9111POPC   GL273418  36.931  20.702   6.150
 9111POPC   C1A73419  36.927  20.639   6.450
 9111POPC   D2A73420  36.878  20.590   6.750
 9111POPC   C3A73421  36.951  20.620   7.050
 9111POPC   C4A73422  36.884  20.605   7.350
 9111POPC   C1B73423  37.016  20.894   6.450
 9111POPC   C2B73424  36.951  20.822   6.750
 9111POPC   C3B73425  36.953  20.870   7.050
 9111POPC   C4B73426  36.973  20.817   7.350
 9112POPC   NC373427  10.500  37.677   5.550
 9112POPC   PO473428  10.519  37.705   5.850
 9112POPC   GL173429  10.483  37.694   6.150
 9112POPC   GL273430  10.448  37.640   6.150
 9112POPC   C1A73431  10.494  37.638   6.450
 9112POPC   D2A73432  10.528  37.709   6.750
 9112POPC   C3A73433  10.483  37.701   7.050
 9112POPC   C4A73434  10.496  37.705   7.350
 9112POPC   C1B73435  10.295  37.569   6.450
 9112POPC   C2B73436  10.279  37.542   6.750
 9112POPC   C3B73437  10.284  37.636   7.050
 9112POPC   C4B73438  10.265  37.548   7.350
 9113POPC   NC373439  39.183  26.843   5.550
 9113POPC   PO473440  39.228  26.822   5.850
 9113POPC   GL173441  39.247  26.781   6.150
 9113POPC   GL273442  39.341  26.879   6.150
 9113POPC   C1A73443  39.270  26.812   6.450
 9113POPC   D2A73444  39.206  26.795   6.750
 9113POPC   C3A73445  39.261  26.771   7.050
 9113POPC   C4A73446  39.208  26.830   7.350
 9113POPC   C1B73447  39.460  26.855   6.450
 9113POPC   C2B73448  39.516  26.887   6.750
 9113POPC   C3B73449  39.439  26.890   7.050
 9113POPC   C4B73450  39.474  26.842   7.350
 9114POPC   NC373451  33.812   4.304   5.550
 9114POPC   PO473452  33.838   4.342   5.850
 9114POPC   GL173453  33.850   4.311   6.150
 9114POPC   GL273454  33.966   4.239   6.150
 9114POPC   C1A73455  33.839   4.337   6.450
 9114POPC   D2A73456  33.754   4.360   6.750
 9114POPC   C3A73457  33.796   4.345   7.050
 9114POPC   C4A73458  33.840   4.353   7.350
 9114POPC   C1B73459  34.055   4.199   6.450
 9114POPC   C2B73460  33.997   4.276   6.750
 9114POPC   C3B73461  34.063   4.190   7.050
 9114POPC   C4B73462  34.073   4.234   7.350
 9115POPC   NC373463  34.573  24.452   5.550
 9115POPC   PO473464  34.564  24.449   5.850
 9115POPC   GL173465  34.542  24.498   6.150
 9115POPC   GL273466  34.694  24.541   6.150
 9115POPC   C1A73467  34.615  24.517   6.450
 9115POPC   D2A73468  34.566  24.485   6.750
 9115POPC   C3A73469  34.540  24.455   7.050
 9115POPC   C4A73470  34.548  24.465   7.350
 9115POPC   C1B73471  34.687  24.674   6.450
 9115POPC   C2B73472  34.734  24.705   6.750
 9115POPC   C3B73473  34.696  24.730   7.050
 9115POPC   C4B73474  34.696  24.726   7.350
 9116POPC   NC373475  28.335  15.925   5.550
 9116POPC   PO473476  28.346  15.916   5.850
 9116POPC   GL173477  28.402  15.967   6.150
 9116POPC   GL273478  28.232  15.979   6.150
 9116POPC   C1A73479  28.323  15.927   6.450
 9116POPC   D2A73480  28.327  15.964   6.750
 9116POPC   C3A73481  28.329  15.968   7.050
 9116POPC   C4A73482  28.338  15.981   7.350
 9116POPC   C1B73483  28.111  15.970   6.450
 9116POPC   C2B73484  28.108  15.981   6.750
 9116POPC   C3B73485  28.161  15.931   7.050
 9116POPC   C4B73486  28.164  16.019   7.350
 9117POPC   NC373487  13.589  32.278   5.550
 9117POPC   PO473488  13.614  32.267   5.850
 9117POPC   GL173489  13.603  32.247   6.150
 9117POPC   GL273490  13.482  32.335   6.150
 9117POPC   C1A73491  13.585  32.265   6.450
 9117POPC   D2A73492  13.653  32.269   6.750
 9117POPC   C3A73493  13.636  32.283   7.050
 9117POPC   C4A73494  13.595  32.265   7.350
 9117POPC   C1B73495  13.378  32.371   6.450
 9117POPC   C2B73496  13.435  32.389   6.750
 9117POPC   C3B73497  13.406  32.433   7.050
 9117POPC   C4B73498  13.467  32.405   7.350
 9118POPC   NC373499  19.877   8.240   5.550
 9118POPC   PO473500  19.817   8.214   5.850
 9118POPC   GL173501  19.858   8.217   6.150
 9118POPC   GL273502  19.991   8.102   6.150
 9118POPC   C1A73503  19.861   8.244   6.450
 9118POPC   D2A73504  19.870   8.243   6.750
 9118POPC   C3A73505  19.867   8.181   7.050
 9118POPC   C4A73506  19.794   8.207   7.350
 9118POPC   C1B73507  20.042   8.083   6.450
 9118POPC   C2B73508  20.089   8.068   6.750
 9118POPC   C3B73509  20.026   8.127   7.050
 9118POPC   C4B73510  20.065   8.141   7.350
 9119POPC   NC373511  12.852  22.195   5.550
 9119POPC   PO473512  12.806  22.155   5.850
 9119POPC   GL173513  12.859  22.201   6.150
 9119POPC   GL273514  12.936  22.202   6.150
 9119POPC   C1A73515  12.852  22.123   6.450
 9119POPC   D2A73516  12.809  22.167   6.750
 9119POPC   C3A73517  12.839  22.143   7.050
 9119POPC   C4A73518  12.874  22.199   7.350
 9119POPC   C1B73519  13.120  22.146   6.450
 9119POPC   C2B73520  13.066  22.231   6.750
 9119POPC   C3B73521  13.112  22.188   7.050
 9119POPC   C4B73522  13.077  22.192   7.350
 9120POPC   NC373523  10.558  20.607   5.550
 9120POPC   PO473524  10.484  20.636   5.850
 9120POPC   GL173525  10.483  20.645   6.150
 9120POPC   GL273526  10.620  20.523   6.150
 9120POPC   C1A73527  10.489  20.580   6.450
 9120POPC   D2A73528  10.536  20.656   6.750
 9120POPC   C3A73529  10.476  20.566   7.050
 9120POPC   C4A73530  10.539  20.570   7.350
 9120POPC   C1B73531  10.676  20.504   6.450
 9120POPC   C2B73532  10.712  20.430   6.750
 9120POPC   C3B73533  10.737  20.505   7.050
 9120POPC   C4B73534  10.739  20.425   7.350
 9121POPC   NC373535   0.448   6.615   5.550
 9121POPC   PO473536   0.478   6.644   5.850
 9121POPC   GL173537   0.414   6.607   6.150
 9121POPC   GL273538   0.512   6.556   6.150
 9121POPC   C1A73539   0.487   6.690   6.450
 9121POPC   D2A73540   0.397   6.650   6.750
 9121POPC   C3A73541   0.403   6.679   7.050
 9121POPC   C4A73542   0.442   6.623   7.350
 9121POPC   C1B73543   0.611   6.492   6.450
 9121POPC   C2B73544   0.645   6.452   6.750
 9121POPC   C3B73545   0.591   6.482   7.050
 9121POPC   C4B73546   0.564   6.440   7.350
 9122POPC   NC373547   2.798   8.199   5.550
 9122POPC   PO473548   2.780   8.181   5.850
 9122POPC   GL173549   2.724   8.244   6.150
 9122POPC   GL273550   2.773   8.287   6.150
 9122POPC   C1A73551   2.718   8.177   6.450
 9122POPC   D2A73552   2.719   8.176   6.750
 9122POPC   C3A73553   2.801   8.147   7.050
 9122POPC   C4A73554   2.809   8.178   7.350
 9122POPC   C1B73555   2.723   8.453   6.450
 9122POPC   C2B73556   2.706   8.460   6.750
 9122POPC   C3B73557   2.706   8.402   7.050
 9122POPC   C4B73558   2.681   8.471   7.350
 9123POPC   NC373559  11.330   0.409   5.550
 9123POPC   PO473560  11.305   0.391   5.850
 9123POPC   GL173561  11.344   0.402   6.150
 9123POPC   GL273562  11.397   0.407   6.150
 9123POPC   C1A73563  11.252   0.405   6.450
 9123POPC   D2A73564  11.338   0.399   6.750
 9123POPC   C3A73565  11.276   0.443   7.050
 9123POPC   C4A73566  11.290   0.452   7.350
 9123POPC   C1B73567  11.489   0.309   6.450
 9123POPC   C2B73568  11.552   0.363   6.750
 9123POPC   C3B73569  11.482   0.345   7.050
 9123POPC   C4B73570  11.550   0.306   7.350
 9124POPC   NC373571  36.925  10.526   5.550
 9124POPC   PO473572  36.928  10.498   5.850
 9124POPC   GL173573  36.868  10.521   6.150
 9124POPC   GL273574  36.783  10.415   6.150
 9124POPC   C1A73575  36.861  10.542   6.450
 9124POPC   D2A73576  36.907  10.510   6.750
 9124POPC   C3A73577  36.888  10.504   7.050
 9124POPC   C4A73578  36.899  10.557   7.350
 9124POPC   C1B73579  36.757  10.344   6.450
 9124POPC   C2B73580  36.748  10.379   6.750
 9124POPC   C3B73581  36.755  10.333   7.050
 9124POPC   C4B73582  36.707  10.390   7.350
 9125POPC   NC373583  22.917  23.730   5.550
 9125POPC   PO473584  22.908  23.735   5.850
 9125POPC   GL173585  22.973  23.724   6.150
 9125POPC   GL273586  22.928  23.602   6.150
 9125POPC   C1A73587  22.926  23.675   6.450
 9125POPC   D2A73588  22.931  23.756   6.750
 9125POPC   C3A73589  22.916  23.722   7.050
 9125POPC   C4A73590  22.889  23.708   7.350
 9125POPC   C1B73591  22.988  23.441   6.450
 9125POPC   C2B73592  22.979  23.436   6.750
 9125POPC   C3B73593  23.009  23.475   7.050
 9125POPC   C4B73594  23.035  23.469   7.350
 9126POPC   NC373595  23.749  26.061   5.550
 9126POPC   PO473596  23.701  26.013   5.850
 9126POPC   GL173597  23.738  26.025   6.150
 9126POPC   GL273598  23.646  25.995   6.150
 9126POPC   C1A73599  23.709  26.051   6.450
 9126POPC   D2A73600  23.723  26.062   6.750
 9126POPC   C3A73601  23.720  26.036   7.050
 9126POPC   C4A73602  23.691  25.996   7.350
 9126POPC   C1B73603  23.460  25.957   6.450
 9126POPC   C2B73604  23.522  25.883   6.750
 9126POPC   C3B73605  23.541  25.884   7.050
 9126POPC   C4B73606  23.521  25.960   7.350
 9127POPC   NC373607  29.902  36.110   5.550
 9127POPC   PO473608  29.872  36.112   5.850
 9127POPC   GL173609  29.941  36.175   6.150
 9127POPC   GL273610  30.087  36.135   6.150
 9127POPC   C1A73611  29.922  36.145   6.450
 9127POPC   D2A73612  29.937  36.174   6.750
 9127POPC   C3A73613  29.880  36.118   7.050
 9127POPC   C4A73614  29.883  36.160   7.350
 9127POPC   C1B73615  30.107  36.029   6.450
 9127POPC   C2B73616  30.112  36.084   6.750
 9127POPC   C3B73617  30.144  36.091   7.050
 9127POPC   C4B73618  30.173  36.014   7.350
 9128POPC   NC373619   1.220  40.049   5.550
 9128POPC   PO473620   1.200  40.027   5.850
 9128POPC   GL173621   1.205  39.971   6.150
 9128POPC   GL273622   1.135  39.965   6.150
 9128POPC   C1A73623   1.188  40.007   6.450
 9128POPC   D2A73624   1.261  39.984   6.750
 9128POPC   C3A73625   1.224  39.960   7.050
 9128POPC   C4A73626   1.225  40.032   7.350
 9128POPC   C1B73627   1.006  39.941   6.450
 9128POPC   C2B73628   0.969  39.988   6.750
 9128POPC   C3B73629   0.949  39.919   7.050
 9128POPC   C4B73630   0.989  39.953   7.350
 9129POPC   NC373631  39.979  27.582   5.550
 9129POPC   PO473632  40.034  27.585   5.850
 9129POPC   GL173633  39.995  27.571   6.150
 9129POPC   GL273634  40.097  27.566   6.150
 9129POPC   C1A73635  39.979  27.598   6.450
 9129POPC   D2A73636  40.053  27.575   6.750
 9129POPC   C3A73637  40.023  27.547   7.050
 9129POPC   C4A73638  40.051  27.636   7.350
 9129POPC   C1B73639  40.231  27.650   6.450
 9129POPC   C2B73640  40.269  27.583   6.750
 9129POPC   C3B73641  40.223  27.638   7.050
 9129POPC   C4B73642  40.226  27.587   7.350
 9130POPC   NC373643   5.861  34.576   5.550
 9130POPC   PO473644   5.832  34.575   5.850
 9130POPC   GL173645   5.890  34.548   6.150
 9130POPC   GL273646   5.797  34.501   6.150
 9130POPC   C1A73647   5.835  34.590   6.450
 9130POPC   D2A73648   5.864  34.563   6.750
 9130POPC   C3A73649   5.892  34.579   7.050
 9130POPC   C4A73650   5.832  34.566   7.350
 9130POPC   C1B73651   5.612  34.503   6.450
 9130POPC   C2B73652   5.639  34.441   6.750
 9130POPC   C3B73653   5.653  34.504   7.050
 9130POPC   C4B73654   5.611  34.461   7.350
 9131POPC   NC373655   5.871  38.421   5.550
 9131POPC   PO473656   5.871  38.434   5.850
 9131POPC   GL173657   5.855  38.490   6.150
 9131POPC   GL273658   5.907  38.373   6.150
 9131POPC   C1A73659   5.914  38.485   6.450
 9131POPC   D2A73660   5.845  38.423   6.750
 9131POPC   C3A73661   5.820  38.487   7.050
 9131POPC   C4A73662   5.846  38.491   7.350
 9131POPC   C1B73663   5.898  38.197   6.450
 9131POPC   C2B73664   5.846  38.214   6.750
 9131POPC   C3B73665   5.880  38.232   7.050
 9131POPC   C4B73666   5.902  38.205   7.350
 9132POPC   NC373667  28.417  28.357   5.550
 9132POPC   PO473668  28.412  28.358   5.850
 9132POPC   GL173669  28.368  28.364   6.150
 9132POPC   GL273670  28.275  28.533   6.150
 9132POPC   C1A73671  28.350  28.407   6.450
 9132POPC   D2A73672  28.329  28.374   6.750
 9132POPC   C3A73673  28.399  28.378   7.050
 9132POPC   C4A73674  28.384  28.330   7.350
 9132POPC   C1B73675  28.283  28.605   6.450
 9132POPC   C2B73676  28.248  28.597   6.750
 9132POPC   C3B73677  28.258  28.623   7.050
 9132POPC   C4B73678  28.297  28.643   7.350
 9133POPC   NC373679  23.699  24.524   5.550
 9133POPC   PO473680  23.665  24.483   5.850
 9133POPC   GL173681  23.726  24.503   6.150
 9133POPC   GL273682  23.749  24.581   6.150
 9133POPC   C1A73683  23.738  24.520   6.450
 9133POPC   D2A73684  23.709  24.448   6.750
 9133POPC   C3A73685  23.709  24.524   7.050
 9133POPC   C4A73686  23.689  24.518   7.350
 9133POPC   C1B73687  23.791  24.724   6.450
 9133POPC   C2B73688  23.877  24.664   6.750
 9133POPC   C3B73689  23.815  24.717   7.050
 9133POPC   C4B73690  23.793  24.746   7.350
 9134POPC   NC373691  38.503  12.839   5.550
 9134POPC   PO473692  38.488  12.854   5.850
 9134POPC   GL173693  38.411  12.865   6.150
 9134POPC   GL273694  38.581  12.720   6.150
 9134POPC   C1A73695  38.438  12.826   6.450
 9134POPC   D2A73696  38.449  12.848   6.750
 9134POPC   C3A73697  38.452  12.837   7.050
 9134POPC   C4A73698  38.485  12.845   7.350
 9134POPC   C1B73699  38.595  12.653   6.450
 9134POPC   C2B73700  38.617  12.725   6.750
 9134POPC   C3B73701  38.637  12.668   7.050
 9134POPC   C4B73702  38.654  12.697   7.350
 9135POPC   NC373703  17.517  22.183   5.550
 9135POPC   PO473704  17.527  22.211   5.850
 9135POPC   GL173705  17.550  22.136   6.150
 9135POPC   GL273706  17.461  22.090   6.150
 9135POPC   C1A73707  17.502  22.181   6.450
 9135POPC   D2A73708  17.480  22.126   6.750
 9135POPC   C3A73709  17.487  22.174   7.050
 9135POPC   C4A73710  17.476  22.158   7.350
 9135POPC   C1B73711  17.487  21.897   6.450
 9135POPC   C2B73712  17.422  21.926   6.750
 9135POPC   C3B73713  17.416  21.926   7.050
 9135POPC   C4B73714  17.435  21.923   7.350
 9136POPC   NC373715  33.833  19.085   5.550
 9136POPC   PO473716  33.795  19.011   5.850
 9136POPC   GL173717  33.796  19.048   6.150
 9136POPC   GL273718  33.868  19.165   6.150
 9136POPC   C1A73719  33.774  19.020   6.450
 9136POPC   D2A73720  33.837  19.102   6.750
 9136POPC   C3A73721  33.835  19.107   7.050
 9136POPC   C4A73722  33.795  19.015   7.350
 9136POPC   C1B73723  33.896  19.301   6.450
 9136POPC   C2B73724  33.937  19.329   6.750
 9136POPC   C3B73725  33.849  19.322   7.050
 9136POPC   C4B73726  33.920  19.326   7.350
 9137POPC   NC373727  34.618  35.380   5.550
 9137POPC   PO473728  34.604  35.385   5.850
 9137POPC   GL173729  34.564  35.377   6.150
 9137POPC   GL273730  34.417  35.414   6.150
 9137POPC   C1A73731  34.614  35.388   6.450
 9137POPC   D2A73732  34.618  35.387   6.750
 9137POPC   C3A73733  34.546  35.327   7.050
 9137POPC   C4A73734  34.591  35.318   7.350
 9137POPC   C1B73735  34.346  35.359   6.450
 9137POPC   C2B73736  34.298  35.420   6.750
 9137POPC   C3B73737  34.324  35.386   7.050
 9137POPC   C4B73738  34.324  35.342   7.350
 9138POPC   NC373739  25.283  28.411   5.550
 9138POPC   PO473740  25.224  28.408   5.850
 9138POPC   GL173741  25.304  28.343   6.150
 9138POPC   GL273742  25.392  28.423   6.150
 9138POPC   C1A73743  25.257  28.384   6.450
 9138POPC   D2A73744  25.263  28.406   6.750
 9138POPC   C3A73745  25.260  28.419   7.050
 9138POPC   C4A73746  25.253  28.413   7.350
 9138POPC   C1B73747  25.493  28.546   6.450
 9138POPC   C2B73748  25.444  28.506   6.750
 9138POPC   C3B73749  25.415  28.527   7.050
 9138POPC   C4B73750  25.467  28.523   7.350
 9139POPC   NC373751  10.548   7.404   5.550
 9139POPC   PO473752  10.543   7.436   5.850
 9139POPC   GL173753  10.516   7.384   6.150
 9139POPC   GL273754  10.448   7.325   6.150
 9139POPC   C1A73755  10.503   7.452   6.450
 9139POPC   D2A73756  10.533   7.371   6.750
 9139POPC   C3A73757  10.525   7.421   7.050
 9139POPC   C4A73758  10.502   7.423   7.350
 9139POPC   C1B73759  10.481   7.156   6.450
 9139POPC   C2B73760  10.462   7.208   6.750
 9139POPC   C3B73761  10.475   7.235   7.050
 9139POPC   C4B73762  10.400   7.146   7.350
 9140POPC   NC373763  27.612  17.542   5.550
 9140POPC   PO473764  27.618  17.543   5.850
 9140POPC   GL173765  27.633  17.511   6.150
 9140POPC   GL273766  27.671  17.618   6.150
 9140POPC   C1A73767  27.557  17.536   6.450
 9140POPC   D2A73768  27.625  17.543   6.750
 9140POPC   C3A73769  27.622  17.462   7.050
 9140POPC   C4A73770  27.641  17.477   7.350
 9140POPC   C1B73771  27.730  17.732   6.450
 9140POPC   C2B73772  27.707  17.772   6.750
 9140POPC   C3B73773  27.662  17.686   7.050
 9140POPC   C4B73774  27.647  17.736   7.350
 9141POPC   NC373775   7.398  13.611   5.550
 9141POPC   PO473776   7.452  13.614   5.850
 9141POPC   GL173777   7.436  13.604   6.150
 9141POPC   GL273778   7.252  13.626   6.150
 9141POPC   C1A73779   7.407  13.658   6.450
 9141POPC   D2A73780   7.403  13.618   6.750
 9141POPC   C3A73781   7.437  13.635   7.050
 9141POPC   C4A73782   7.379  13.647   7.350
 9141POPC   C1B73783   7.179  13.671   6.450
 9141POPC   C2B73784   7.131  13.672   6.750
 9141POPC   C3B73785   7.135  13.584   7.050
 9141POPC   C4B73786   7.144  13.656   7.350
 9142POPC   NC373787  36.942  36.874   5.550
 9142POPC   PO473788  36.887  36.864   5.850
 9142POPC   GL173789  36.858  36.918   6.150
 9142POPC   GL273790  36.775  36.864   6.150
 9142POPC   C1A73791  36.938  36.880   6.450
 9142POPC   D2A73792  36.880  36.858   6.750
 9142POPC   C3A73793  36.886  36.920   7.050
 9142POPC   C4A73794  36.928  36.928   7.350
 9142POPC   C1B73795  36.653  36.847   6.450
 9142POPC   C2B73796  36.629  36.784   6.750
 9142POPC   C3B73797  36.617  36.861   7.050
 9142POPC   C4B73798  36.706  36.837   7.350
 9143POPC   NC373799   5.069  14.391   5.550
 9143POPC   PO473800   5.091  14.444   5.850
 9143POPC   GL173801   5.110  14.439   6.150
 9143POPC   GL273802   5.162  14.286   6.150
 9143POPC   C1A73803   5.129  14.416   6.450
 9143POPC   D2A73804   5.120  14.387   6.750
 9143POPC   C3A73805   5.091  14.390   7.050
 9143POPC   C4A73806   5.131  14.354   7.350
 9143POPC   C1B73807   5.164  14.127   6.450
 9143POPC   C2B73808   5.172  14.159   6.750
 9143POPC   C3B73809   5.152  14.180   7.050
 9143POPC   C4B73810   5.170  14.204   7.350
 9144POPC   NC373811  40.804  37.691   5.550
 9144POPC   PO473812  40.759  37.640   5.850
 9144POPC   GL173813  40.782  37.723   6.150
 9144POPC   GL273814  40.764  37.537   6.150
 9144POPC   C1A73815  40.778  37.705   6.450
 9144POPC   D2A73816  40.752  37.659   6.750
 9144POPC   C3A73817  40.791  37.638   7.050
 9144POPC   C4A73818  40.786  37.715   7.350
 9144POPC   C1B73819  40.831  37.443   6.450
 9144POPC   C2B73820  40.759  37.476   6.750
 9144POPC   C3B73821  40.765  37.428   7.050
 9144POPC   C4B73822  40.802  37.435   7.350
 9145POPC   NC373823  23.705  10.573   5.550
 9145POPC   PO473824  23.740  10.507   5.850
 9145POPC   GL173825  23.688  10.542   6.150
 9145POPC   GL273826  23.768  10.633   6.150
 9145POPC   C1A73827  23.757  10.516   6.450
 9145POPC   D2A73828  23.741  10.491   6.750
 9145POPC   C3A73829  23.746  10.563   7.050
 9145POPC   C4A73830  23.714  10.513   7.350
 9145POPC   C1B73831  23.808  10.729   6.450
 9145POPC   C2B73832  23.739  10.808   6.750
 9145POPC   C3B73833  23.720  10.780   7.050
 9145POPC   C4B73834  23.724  10.727   7.350
 9146POPC   NC373835   6.654  13.666   5.550
 9146POPC   PO473836   6.602  13.648   5.850
 9146POPC   GL173837   6.627  13.593   6.150
 9146POPC   GL273838   6.546  13.709   6.150
 9146POPC   C1A73839   6.657  13.585   6.450
 9146POPC   D2A73840   6.662  13.630   6.750
 9146POPC   C3A73841   6.604  13.649   7.050
 9146POPC   C4A73842   6.604  13.614   7.350
 9146POPC   C1B73843   6.470  13.713   6.450
 9146POPC   C2B73844   6.462  13.708   6.750
 9146POPC   C3B73845   6.405  13.790   7.050
 9146POPC   C4B73846   6.378  13.781   7.350
 9147POPC   NC373847  43.154  15.198   5.550
 9147POPC   PO473848  43.116  15.188   5.850
 9147POPC   GL173849  43.072  15.168   6.150
 9147POPC   GL273850  43.180  15.168   6.150
 9147POPC   C1A73851  43.110  15.132   6.450
 9147POPC   D2A73852  43.062  15.173   6.750
 9147POPC   C3A73853  43.153  15.153   7.050
 9147POPC   C4A73854  43.083  15.188   7.350
 9147POPC   C1B73855  43.307  15.054   6.450
 9147POPC   C2B73856  43.341  15.061   6.750
 9147POPC   C3B73857  43.361  15.033   7.050
 9147POPC   C4B73858  43.318  15.070   7.350
 9148POPC   NC373859  37.651  29.122   5.550
 9148POPC   PO473860  37.713  29.098   5.850
 9148POPC   GL173861  37.692  29.152   6.150
 9148POPC   GL273862  37.816  29.250   6.150
 9148POPC   C1A73863  37.682  29.181   6.450
 9148POPC   D2A73864  37.677  29.128   6.750
 9148POPC   C3A73865  37.665  29.172   7.050
 9148POPC   C4A73866  37.709  29.118   7.350
 9148POPC   C1B73867  37.913  29.290   6.450
 9148POPC   C2B73868  37.933  29.302   6.750
 9148POPC   C3B73869  37.864  29.281   7.050
 9148POPC   C4B73870  37.935  29.243   7.350
 9149POPC   NC373871   9.779   9.791   5.550
 9149POPC   PO473872   9.781   9.720   5.850
 9149POPC   GL173873   9.743   9.721   6.150
 9149POPC   GL273874   9.906   9.759   6.150
 9149POPC   C1A73875   9.716   9.754   6.450
 9149POPC   D2A73876   9.748   9.722   6.750
 9149POPC   C3A73877   9.741   9.781   7.050
 9149POPC   C4A73878   9.772   9.775   7.350
 9149POPC   C1B73879  10.013   9.789   6.450
 9149POPC   C2B73880   9.957   9.845   6.750
 9149POPC   C3B73881   9.972   9.829   7.050
 9149POPC   C4B73882   9.982   9.820   7.350
 9150POPC   NC373883   0.451   3.510   5.550
 9150POPC   PO473884   0.394   3.528   5.850
 9150POPC   GL173885   0.461   3.575   6.150
 9150POPC   GL273886   0.521   3.650   6.150
 9150POPC   C1A73887   0.437   3.492   6.450
 9150POPC   D2A73888   0.460   3.580   6.750
 9150POPC   C3A73889   0.392   3.533   7.050
 9150POPC   C4A73890   0.404   3.541   7.350
 9150POPC   C1B73891   0.565   3.695   6.450
 9150POPC   C2B73892   0.640   3.727   6.750
 9150POPC   C3B73893   0.554   3.740   7.050
 9150POPC   C4B73894   0.613   3.733   7.350
 9151POPC   NC373895  29.892   2.738   5.550
 9151POPC   PO473896  29.877   2.768   5.850
 9151POPC   GL173897  29.947   2.809   6.150
 9151POPC   GL273898  29.800   2.839   6.150
 9151POPC   C1A73899  29.970   2.792   6.450
 9151POPC   D2A73900  29.950   2.792   6.750
 9151POPC   C3A73901  29.881   2.732   7.050
 9151POPC   C4A73902  29.939   2.740   7.350
 9151POPC   C1B73903  29.688   2.872   6.450
 9151POPC   C2B73904  29.723   2.901   6.750
 9151POPC   C3B73905  29.647   2.816   7.050
 9151POPC   C4B73906  29.692   2.869   7.350
 9152POPC   NC373907  10.529  23.674   5.550
 9152POPC   PO473908  10.534  23.688   5.850
 9152POPC   GL173909  10.571  23.711   6.150
 9152POPC   GL273910  10.485  23.843   6.150
 9152POPC   C1A73911  10.498  23.687   6.450
 9152POPC   D2A73912  10.522  23.751   6.750
 9152POPC   C3A73913  10.561  23.712   7.050
 9152POPC   C4A73914  10.530  23.700   7.350
 9152POPC   C1B73915  10.543  24.004   6.450
 9152POPC   C2B73916  10.567  23.998   6.750
 9152POPC   C3B73917  10.576  23.955   7.050
 9152POPC   C4B73918  10.499  23.935   7.350
 9153POPC   NC373919  29.170   5.840   5.550
 9153POPC   PO473920  29.188   5.906   5.850
 9153POPC   GL173921  29.105   5.847   6.150
 9153POPC   GL273922  29.231   5.790   6.150
 9153POPC   C1A73923  29.189   5.884   6.450
 9153POPC   D2A73924  29.133   5.853   6.750
 9153POPC   C3A73925  29.173   5.839   7.050
 9153POPC   C4A73926  29.098   5.907   7.350
 9153POPC   C1B73927  29.291   5.718   6.450
 9153POPC   C2B73928  29.332   5.644   6.750
 9153POPC   C3B73929  29.329   5.669   7.050
 9153POPC   C4B73930  29.298   5.639   7.350
 9154POPC   NC373931  11.294  17.510   5.550
 9154POPC   PO473932  11.322  17.536   5.850
 9154POPC   GL173933  11.317  17.509   6.150
 9154POPC   GL273934  11.372  17.553   6.150
 9154POPC   C1A73935  11.282  17.511   6.450
 9154POPC   D2A73936  11.290  17.483   6.750
 9154POPC   C3A73937  11.348  17.544   7.050
 9154POPC   C4A73938  11.338  17.502   7.350
 9154POPC   C1B73939  11.553  17.605   6.450
 9154POPC   C2B73940  11.572  17.633   6.750
 9154POPC   C3B73941  11.556  17.595   7.050
 9154POPC   C4B73942  11.484  17.630   7.350
 9155POPC   NC373943  24.511  12.821   5.550
 9155POPC   PO473944  24.487  12.854   5.850
 9155POPC   GL173945  24.468  12.888   6.150
 9155POPC   GL273946  24.585  12.805   6.150
 9155POPC   C1A73947  24.469  12.808   6.450
 9155POPC   D2A73948  24.450  12.900   6.750
 9155POPC   C3A73949  24.452  12.882   7.050
 9155POPC   C4A73950  24.447  12.825   7.350
 9155POPC   C1B73951  24.722  12.760   6.450
 9155POPC   C2B73952  24.699  12.721   6.750
 9155POPC   C3B73953  24.743  12.711   7.050
 9155POPC   C4B73954  24.748  12.737   7.350
 9156POPC   NC373955  29.930  43.078   5.550
 9156POPC   PO473956  29.877  43.099   5.850
 9156POPC   GL173957  29.947  43.066   6.150
 9156POPC   GL273958  29.860  42.969   6.150
 9156POPC   C1A73959  29.970  43.063   6.450
 9156POPC   D2A73960  29.909  43.129   6.750
 9156POPC   C3A73961  29.875  43.158   7.050
 9156POPC   C4A73962  29.897  43.088   7.350
 9156POPC   C1B73963  29.805  42.949   6.450
 9156POPC   C2B73964  29.769  42.955   6.750
 9156POPC   C3B73965  29.766  42.935   7.050
 9156POPC   C4B73966  29.730  42.929   7.350
 9157POPC   NC373967  34.619  11.345   5.550
 9157POPC   PO473968  34.542  11.316   5.850
 9157POPC   GL173969  34.561  11.336   6.150
 9157POPC   GL273970  34.553  11.215   6.150
 9157POPC   C1A73971  34.565  11.288   6.450
 9157POPC   D2A73972  34.529  11.279   6.750
 9157POPC   C3A73973  34.577  11.285   7.050
 9157POPC   C4A73974  34.593  11.329   7.350
 9157POPC   C1B73975  34.577  11.094   6.450
 9157POPC   C2B73976  34.534  11.051   6.750
 9157POPC   C3B73977  34.566  11.071   7.050
 9157POPC   C4B73978  34.507  11.087   7.350
 9158POPC   NC373979  43.148  33.767   5.550
 9158POPC   PO473980  43.149  33.831   5.850
 9158POPC   GL173981  43.075  33.814   6.150
 9158POPC   GL273982  43.195  33.886   6.150
 9158POPC   C1A73983  43.112  33.757   6.450
 9158POPC   D2A73984  43.160  33.759   6.750
 9158POPC   C3A73985  43.160  33.847   7.050
 9158POPC   C4A73986  43.081  33.823   7.350
 9158POPC   C1B73987  43.311  33.996   6.450
 9158POPC   C2B73988  43.327  33.945   6.750
 9158POPC   C3B73989  43.295  33.980   7.050
 9158POPC   C4B73990  43.308  34.011   7.350
 9159POPC   NC373991  43.921  33.066   5.550
 9159POPC   PO473992  43.907  33.047   5.850
 9159POPC   GL173993  43.910  33.072   6.150
 9159POPC   GL273994  43.926  33.113   6.150
 9159POPC   C1A73995  43.853  33.031   6.450
 9159POPC   D2A73996  43.891  33.028   6.750
 9159POPC   C3A73997  43.923  33.061   7.050
 9159POPC   C4A73998  43.875  33.037   7.350
 9159POPC   C1B73999  43.955  33.238   6.450
 9159POPC   C2B74000  43.967  33.233   6.750
 9159POPC   C3B74001  44.024  33.230   7.050
 9159POPC   C4B74002  44.023  33.265   7.350
 9160POPC   NC374003  20.578  19.075   5.550
 9160POPC   PO474004  20.612  19.016   5.850
 9160POPC   GL174005  20.576  19.107   6.150
 9160POPC   GL274006  20.517  19.133   6.150
 9160POPC   C1A74007  20.623  19.079   6.450
 9160POPC   D2A74008  20.583  19.059   6.750
 9160POPC   C3A74009  20.633  19.050   7.050
 9160POPC   C4A74010  20.656  19.030   7.350
 9160POPC   C1B74011  20.389  19.126   6.450
 9160POPC   C2B74012  20.400  19.132   6.750
 9160POPC   C3B74013  20.372  19.117   7.050
 9160POPC   C4B74014  20.413  19.142   7.350
 9161POPC   NC374015  25.252  43.867   5.550
 9161POPC   PO474016  25.248  43.842   5.850
 9161POPC   GL174017  25.303  43.868   6.150
 9161POPC   GL274018  25.275  43.767   6.150
 9161POPC   C1A74019  25.223  43.876   6.450
 9161POPC   D2A74020  25.306  43.850   6.750
 9161POPC   C3A74021  25.220  43.837   7.050
 9161POPC   C4A74022  25.245  43.869   7.350
 9161POPC   C1B74023  25.261  43.589   6.450
 9161POPC   C2B74024  25.282  43.641   6.750
 9161POPC   C3B74025  25.206  43.621   7.050
 9161POPC   C4B74026  25.209  43.667   7.350
 9162POPC   NC374027  40.797   0.427   5.550
 9162POPC   PO474028  40.822   0.444   5.850
 9162POPC   GL174029  40.750   0.404   6.150
 9162POPC   GL274030  40.749   0.283   6.150
 9162POPC   C1A74031  40.823   0.451   6.450
 9162POPC   D2A74032  40.822   0.415   6.750
 9162POPC   C3A74033  40.807   0.402   7.050
 9162POPC   C4A74034  40.827   0.460   7.350
 9162POPC   C1B74035  40.774   0.185   6.450
 9162POPC   C2B74036  40.789   0.238   6.750
 9162POPC   C3B74037  40.820   0.167   7.050
 9162POPC   C4B74038  40.797   0.174   7.350
 9163POPC   NC374039  19.817   9.707   5.550
 9163POPC   PO474040  19.857   9.757   5.850
 9163POPC   GL174041  19.802   9.747   6.150
 9163POPC   GL274042  19.714   9.661   6.150
 9163POPC   C1A74043  19.825   9.711   6.450
 9163POPC   D2A74044  19.789   9.735   6.750
 9163POPC   C3A74045  19.877   9.773   7.050
 9163POPC   C4A74046  19.794   9.754   7.350
 9163POPC   C1B74047  19.632   9.643   6.450
 9163POPC   C2B74048  19.575   9.624   6.750
 9163POPC   C3B74049  19.557   9.651   7.050
 9163POPC   C4B74050  19.628   9.624   7.350
 9164POPC   NC374051  22.943  12.900   5.550
 9164POPC   PO474052  22.946  12.881   5.850
 9164POPC   GL174053  22.987  12.871   6.150
 9164POPC   GL274054  22.855  13.012   6.150
 9164POPC   C1A74055  22.973  12.849   6.450
 9164POPC   D2A74056  22.945  12.893   6.750
 9164POPC   C3A74057  22.985  12.894   7.050
 9164POPC   C4A74058  22.958  12.893   7.350
 9164POPC   C1B74059  22.890  13.082   6.450
 9164POPC   C2B74060  22.814  13.115   6.750
 9164POPC   C3B74061  22.897  13.130   7.050
 9164POPC   C4B74062  22.842  13.126   7.350
 9165POPC   NC374063  28.346  36.892   5.550
 9165POPC   PO474064  28.380  36.899   5.850
 9165POPC   GL174065  28.405  36.858   6.150
 9165POPC   GL274066  28.252  36.822   6.150
 9165POPC   C1A74067  28.385  36.893   6.450
 9165POPC   D2A74068  28.374  36.872   6.750
 9165POPC   C3A74069  28.339  36.864   7.050
 9165POPC   C4A74070  28.382  36.854   7.350
 9165POPC   C1B74071  28.146  36.776   6.450
 9165POPC   C2B74072  28.128  36.772   6.750
 9165POPC   C3B74073  28.131  36.783   7.050
 9165POPC   C4B74074  28.129  36.846   7.350
 9166POPC   NC374075  10.515   4.313   5.550
 9166POPC   PO474076  10.541   4.305   5.850
 9166POPC   GL174077  10.480   4.301   6.150
 9166POPC   GL274078  10.501   4.468   6.150
 9166POPC   C1A74079  10.532   4.346   6.450
 9166POPC   D2A74080  10.481   4.275   6.750
 9166POPC   C3A74081  10.530   4.360   7.050
 9166POPC   C4A74082  10.546   4.361   7.350
 9166POPC   C1B74083  10.366   4.561   6.450
 9166POPC   C2B74084  10.377   4.560   6.750
 9166POPC   C3B74085  10.420   4.496   7.050
 9166POPC   C4B74086  10.422   4.530   7.350
 9167POPC   NC374087  35.318  24.502   5.550
 9167POPC   PO474088  35.342  24.465   5.850
 9167POPC   GL174089  35.311  24.535   6.150
 9167POPC   GL274090  35.250  24.549   6.150
 9167POPC   C1A74091  35.382  24.482   6.450
 9167POPC   D2A74092  35.323  24.489   6.750
 9167POPC   C3A74093  35.314  24.523   7.050
 9167POPC   C4A74094  35.374  24.536   7.350
 9167POPC   C1B74095  35.151  24.647   6.450
 9167POPC   C2B74096  35.176  24.636   6.750
 9167POPC   C3B74097  35.196  24.606   7.050
 9167POPC   C4B74098  35.147  24.628   7.350
 9168POPC   NC374099   4.352  29.193   5.550
 9168POPC   PO474100   4.312  29.158   5.850
 9168POPC   GL174101   4.349  29.108   6.150
 9168POPC   GL274102   4.249  29.055   6.150
 9168POPC   C1A74103   4.334  29.109   6.450
 9168POPC   D2A74104   4.314  29.130   6.750
 9168POPC   C3A74105   4.319  29.126   7.050
 9168POPC   C4A74106   4.280  29.157   7.350
 9168POPC   C1B74107   4.222  28.935   6.450
 9168POPC   C2B74108   4.242  28.885   6.750
 9168POPC   C3B74109   4.213  28.903   7.050
 9168POPC   C4B74110   4.192  28.949   7.350
 9169POPC   NC374111   3.559  44.689   5.550
 9169POPC   PO474112   3.509  44.658   5.850
 9169POPC   GL174113   3.526  44.701   6.150
 9169POPC   GL274114   3.567  44.811   6.150
 9169POPC   C1A74115   3.509  44.691   6.450
 9169POPC   D2A74116   3.572  44.656   6.750
 9169POPC   C3A74117   3.579  44.621   7.050
 9169POPC   C4A74118   3.501  44.712   7.350
 9169POPC   C1B74119   3.593  44.881   6.450
 9169POPC   C2B74120   3.668  44.915   6.750
 9169POPC   C3B74121   3.597  44.948   7.050
 9169POPC   C4B74122   3.621  44.869   7.350
 9170POPC   NC374123  38.419  20.575   5.550
 9170POPC   PO474124  38.416  20.576   5.850
 9170POPC   GL174125  38.446  20.569   6.150
 9170POPC   GL274126  38.626  20.573   6.150
 9170POPC   C1A74127  38.414  20.654   6.450
 9170POPC   D2A74128  38.426  20.625   6.750
 9170POPC   C3A74129  38.466  20.618   7.050
 9170POPC   C4A74130  38.503  20.658   7.350
 9170POPC   C1B74131  38.729  20.655   6.450
 9170POPC   C2B74132  38.727  20.596   6.750
 9170POPC   C3B74133  38.738  20.649   7.050
 9170POPC   C4B74134  38.720  20.660   7.350
 9171POPC   NC374135  15.141  32.265   5.550
 9171POPC   PO474136  15.215  32.240   5.850
 9171POPC   GL174137  15.201  32.272   6.150
 9171POPC   GL274138  15.343  32.335   6.150
 9171POPC   C1A74139  15.166  32.297   6.450
 9171POPC   D2A74140  15.199  32.278   6.750
 9171POPC   C3A74141  15.185  32.251   7.050
 9171POPC   C4A74142  15.215  32.256   7.350
 9171POPC   C1B74143  15.423  32.338   6.450
 9171POPC   C2B74144  15.410  32.348   6.750
 9171POPC   C3B74145  15.403  32.339   7.050
 9171POPC   C4B74146  15.398  32.307   7.350
 9172POPC   NC374147   6.689  10.544   5.550
 9172POPC   PO474148   6.680  10.567   5.850
 9172POPC   GL174149   6.629  10.543   6.150
 9172POPC   GL274150   6.555  10.685   6.150
 9172POPC   C1A74151   6.681  10.536   6.450
 9172POPC   D2A74152   6.693  10.528   6.750
 9172POPC   C3A74153   6.617  10.505   7.050
 9172POPC   C4A74154   6.628  10.551   7.350
 9172POPC   C1B74155   6.600  10.718   6.450
 9172POPC   C2B74156   6.554  10.764   6.750
 9172POPC   C3B74157   6.592  10.742   7.050
 9172POPC   C4B74158   6.513  10.729   7.350
 9173POPC   NC374159  25.300  29.159   5.550
 9173POPC   PO474160  25.255  29.120   5.850
 9173POPC   GL174161  25.300  29.180   6.150
 9173POPC   GL274162  25.372  29.073   6.150
 9173POPC   C1A74163  25.227  29.186   6.450
 9173POPC   D2A74164  25.298  29.143   6.750
 9173POPC   C3A74165  25.224  29.099   7.050
 9173POPC   C4A74166  25.257  29.173   7.350
 9173POPC   C1B74167  25.510  29.116   6.450
 9173POPC   C2B74168  25.519  29.112   6.750
 9173POPC   C3B74169  25.520  29.131   7.050
 9173POPC   C4B74170  25.492  29.079   7.350
 9174POPC   NC374171   1.225  27.606   5.550
 9174POPC   PO474172   1.246  27.588   5.850
 9174POPC   GL174173   1.212  27.569   6.150
 9174POPC   GL274174   1.360  27.568   6.150
 9174POPC   C1A74175   1.174  27.634   6.450
 9174POPC   D2A74176   1.212  27.563   6.750
 9174POPC   C3A74177   1.198  27.607   7.050
 9174POPC   C4A74178   1.235  27.629   7.350
 9174POPC   C1B74179   1.469  27.482   6.450
 9174POPC   C2B74180   1.458  27.477   6.750
 9174POPC   C3B74181   1.489  27.541   7.050
 9174POPC   C4B74182   1.463  27.453   7.350
 9175POPC   NC374183  40.797  26.029   5.550
 9175POPC   PO474184  40.824  26.088   5.850
 9175POPC   GL174185  40.831  26.082   6.150
 9175POPC   GL274186  40.879  25.999   6.150
 9175POPC   C1A74187  40.807  26.056   6.450
 9175POPC   D2A74188  40.796  26.057   6.750
 9175POPC   C3A74189  40.778  26.012   7.050
 9175POPC   C4A74190  40.825  26.027   7.350
 9175POPC   C1B74191  41.029  25.973   6.450
 9175POPC   C2B74192  41.003  25.891   6.750
 9175POPC   C3B74193  41.028  25.963   7.050
 9175POPC   C4B74194  40.965  25.900   7.350
 9176POPC   NC374195  14.371  41.530   5.550
 9176POPC   PO474196  14.398  41.516   5.850
 9176POPC   GL174197  14.436  41.523   6.150
 9176POPC   GL274198  14.363  41.432   6.150
 9176POPC   C1A74199  14.400  41.574   6.450
 9176POPC   D2A74200  14.362  41.534   6.750
 9176POPC   C3A74201  14.354  41.561   7.050
 9176POPC   C4A74202  14.450  41.594   7.350
 9176POPC   C1B74203  14.208  41.331   6.450
 9176POPC   C2B74204  14.277  41.400   6.750
 9176POPC   C3B74205  14.280  41.391   7.050
 9176POPC   C4B74206  14.267  41.319   7.350
 9177POPC   NC374207  44.612  44.630   5.550
 9177POPC   PO474208  44.702  44.627   5.850
 9177POPC   GL174209  44.686  44.694   6.150
 9177POPC   GL274210  44.640  44.804   6.150
 9177POPC   C1A74211  44.618  44.669   6.450
 9177POPC   D2A74212  44.688  44.686   6.750
 9177POPC   C3A74213  44.683  44.684   7.050
 9177POPC   C4A74214  44.706  44.616   7.350
 9177POPC   C1B74215  44.740  44.901   6.450
 9177POPC   C2B74216  44.717  44.932   6.750
 9177POPC   C3B74217  44.709  44.941   7.050
 9177POPC   C4B74218  44.696  44.927   7.350
 9178POPC   NC374219  36.108  22.986   5.550
 9178POPC   PO474220  36.175  22.930   5.850
 9178POPC   GL174221  36.114  22.901   6.150
 9178POPC   GL274222  36.094  23.005   6.150
 9178POPC   C1A74223  36.090  22.964   6.450
 9178POPC   D2A74224  36.078  22.902   6.750
 9178POPC   C3A74225  36.147  22.892   7.050
 9178POPC   C4A74226  36.170  22.966   7.350
 9178POPC   C1B74227  36.029  23.149   6.450
 9178POPC   C2B74228  35.993  23.129   6.750
 9178POPC   C3B74229  36.032  23.119   7.050
 9178POPC   C4B74230  35.962  23.154   7.350
 9179POPC   NC374231  42.341   4.275   5.550
 9179POPC   PO474232  42.316   4.339   5.850
 9179POPC   GL174233  42.336   4.277   6.150
 9179POPC   GL274234  42.176   4.241   6.150
 9179POPC   C1A74235  42.364   4.292   6.450
 9179POPC   D2A74236  42.312   4.276   6.750
 9179POPC   C3A74237  42.372   4.288   7.050
 9179POPC   C4A74238  42.321   4.359   7.350
 9179POPC   C1B74239  42.080   4.202   6.450
 9179POPC   C2B74240  42.063   4.241   6.750
 9179POPC   C3B74241  42.067   4.236   7.050
 9179POPC   C4B74242  42.069   4.171   7.350
 9180POPC   NC374243  41.592  19.823   5.550
 9180POPC   PO474244  41.519  19.812   5.850
 9180POPC   GL174245  41.545  19.872   6.150
 9180POPC   GL274246  41.430  19.808   6.150
 9180POPC   C1A74247  41.536  19.788   6.450
 9180POPC   D2A74248  41.605  19.856   6.750
 9180POPC   C3A74249  41.540  19.813   7.050
 9180POPC   C4A74250  41.566  19.828   7.350
 9180POPC   C1B74251  41.287  19.820   6.450
 9180POPC   C2B74252  41.277  19.870   6.750
 9180POPC   C3B74253  41.281  19.847   7.050
 9180POPC   C4B74254  41.300  19.827   7.350
 9181POPC   NC374255   6.624  36.946   5.550
 9181POPC   PO474256   6.625  36.907   5.850
 9181POPC   GL174257   6.659  36.923   6.150
 9181POPC   GL274258   6.568  36.841   6.150
 9181POPC   C1A74259   6.665  36.887   6.450
 9181POPC   D2A74260   6.649  36.877   6.750
 9181POPC   C3A74261   6.610  36.896   7.050
 9181POPC   C4A74262   6.614  36.951   7.350
 9181POPC   C1B74263   6.414  36.832   6.450
 9181POPC   C2B74264   6.425  36.797   6.750
 9181POPC   C3B74265   6.399  36.751   7.050
 9181POPC   C4B74266   6.442  36.757   7.350
 9182POPC   NC374267  32.250  39.979   5.550
 9182POPC   PO474268  32.263  40.026   5.850
 9182POPC   GL174269  32.223  39.988   6.150
 9182POPC   GL274270  32.305  39.873   6.150
 9182POPC   C1A74271  32.251  39.966   6.450
 9182POPC   D2A74272  32.237  39.969   6.750
 9182POPC   C3A74273  32.294  40.019   7.050
 9182POPC   C4A74274  32.264  40.042   7.350
 9182POPC   C1B74275  32.420  39.752   6.450
 9182POPC   C2B74276  32.366  39.806   6.750
 9182POPC   C3B74277  32.390  39.818   7.050
 9182POPC   C4B74278  32.346  39.794   7.350
 9183POPC   NC374279  24.535  40.040   5.550
 9183POPC   PO474280  24.480  40.026   5.850
 9183POPC   GL174281  24.526  39.977   6.150
 9183POPC   GL274282  24.426  39.897   6.150
 9183POPC   C1A74283  24.488  40.020   6.450
 9183POPC   D2A74284  24.499  40.016   6.750
 9183POPC   C3A74285  24.500  39.968   7.050
 9183POPC   C4A74286  24.461  40.045   7.350
 9183POPC   C1B74287  24.334  39.744   6.450
 9183POPC   C2B74288  24.344  39.819   6.750
 9183POPC   C3B74289  24.370  39.791   7.050
 9183POPC   C4B74290  24.351  39.765   7.350
 9184POPC   NC374291   2.006  22.891   5.550
 9184POPC   PO474292   2.019  22.974   5.850
 9184POPC   GL174293   1.975  22.986   6.150
 9184POPC   GL274294   1.903  22.981   6.150
 9184POPC   C1A74295   2.026  22.971   6.450
 9184POPC   D2A74296   1.988  22.908   6.750
 9184POPC   C3A74297   2.039  22.960   7.050
 9184POPC   C4A74298   1.993  22.942   7.350
 9184POPC   C1B74299   1.776  23.042   6.450
 9184POPC   C2B74300   1.743  23.043   6.750
 9184POPC   C3B74301   1.799  23.019   7.050
 9184POPC   C4B74302   1.789  23.015   7.350
 9185POPC   NC374303  37.705  25.238   5.550
 9185POPC   PO474304  37.725  25.252   5.850
 9185POPC   GL174305  37.644  25.230   6.150
 9185POPC   GL274306  37.682  25.100   6.150
 9185POPC   C1A74307  37.669  25.236   6.450
 9185POPC   D2A74308  37.638  25.223   6.750
 9185POPC   C3A74309  37.724  25.270   7.050
 9185POPC   C4A74310  37.702  25.247   7.350
 9185POPC   C1B74311  37.637  24.974   6.450
 9185POPC   C2B74312  37.613  25.011   6.750
 9185POPC   C3B74313  37.598  25.020   7.050
 9185POPC   C4B74314  37.647  25.040   7.350
 9186POPC   NC374315   4.268  12.074   5.550
 9186POPC   PO474316   4.358  12.062   5.850
 9186POPC   GL174317   4.269  12.064   6.150
 9186POPC   GL274318   4.288  12.000   6.150
 9186POPC   C1A74319   4.305  12.046   6.450
 9186POPC   D2A74320   4.351  12.121   6.750
 9186POPC   C3A74321   4.269  12.112   7.050
 9186POPC   C4A74322   4.349  12.073   7.350
 9186POPC   C1B74323   4.268  11.857   6.450
 9186POPC   C2B74324   4.221  11.881   6.750
 9186POPC   C3B74325   4.290  11.868   7.050
 9186POPC   C4B74326   4.209  11.811   7.350
 9187POPC   NC374327  13.581   3.507   5.550
 9187POPC   PO474328  13.580   3.514   5.850
 9187POPC   GL174329  13.578   3.497   6.150
 9187POPC   GL274330  13.537   3.612   6.150
 9187POPC   C1A74331  13.664   3.505   6.450
 9187POPC   D2A74332  13.641   3.512   6.750
 9187POPC   C3A74333  13.583   3.569   7.050
 9187POPC   C4A74334  13.662   3.530   7.350
 9187POPC   C1B74335  13.452   3.791   6.450
 9187POPC   C2B74336  13.459   3.707   6.750
 9187POPC   C3B74337  13.524   3.733   7.050
 9187POPC   C4B74338  13.515   3.769   7.350
 9188POPC   NC374339  14.446  15.178   5.550
 9188POPC   PO474340  14.415  15.218   5.850
 9188POPC   GL174341  14.411  15.178   6.150
 9188POPC   GL274342  14.483  15.073   6.150
 9188POPC   C1A74343  14.446  15.178   6.450
 9188POPC   D2A74344  14.355  15.201   6.750
 9188POPC   C3A74345  14.447  15.155   7.050
 9188POPC   C4A74346  14.423  15.186   7.350
 9188POPC   C1B74347  14.539  14.939   6.450
 9188POPC   C2B74348  14.553  14.991   6.750
 9188POPC   C3B74349  14.498  14.978   7.050
 9188POPC   C4B74350  14.537  14.927   7.350
 9189POPC   NC374351  43.152  44.679   5.550
 9189POPC   PO474352  43.106  44.673   5.850
 9189POPC   GL174353  43.066  44.619   6.150
 9189POPC   GL274354  43.171  44.704   6.150
 9189POPC   C1A74355  43.073  44.675   6.450
 9189POPC   D2A74356  43.066  44.613   6.750
 9189POPC   C3A74357  43.138  44.666   7.050
 9189POPC   C4A74358  43.152  44.627   7.350
 9189POPC   C1B74359  43.279  44.821   6.450
 9189POPC   C2B74360  43.267  44.773   6.750
 9189POPC   C3B74361  43.336  44.847   7.050
 9189POPC   C4B74362  43.319  44.817   7.350
 9190POPC   NC374363  32.279  36.929   5.550
 9190POPC   PO474364  32.233  36.907   5.850
 9190POPC   GL174365  32.297  36.902   6.150
 9190POPC   GL274366  32.346  36.920   6.150
 9190POPC   C1A74367  32.252  36.860   6.450
 9190POPC   D2A74368  32.220  36.945   6.750
 9190POPC   C3A74369  32.278  36.894   7.050
 9190POPC   C4A74370  32.243  36.924   7.350
 9190POPC   C1B74371  32.453  37.029   6.450
 9190POPC   C2B74372  32.481  37.046   6.750
 9190POPC   C3B74373  32.441  37.065   7.050
 9190POPC   C4B74374  32.462  37.008   7.350
 9191POPC   NC374375   5.895  13.636   5.550
 9191POPC   PO474376   5.858  13.666   5.850
 9191POPC   GL174377   5.889  13.600   6.150
 9191POPC   GL274378   5.815  13.564   6.150
 9191POPC   C1A74379   5.883  13.644   6.450
 9191POPC   D2A74380   5.826  13.646   6.750
 9191POPC   C3A74381   5.913  13.668   7.050
 9191POPC   C4A74382   5.918  13.580   7.350
 9191POPC   C1B74383   5.695  13.411   6.450
 9191POPC   C2B74384   5.656  13.500   6.750
 9191POPC   C3B74385   5.653  13.471   7.050
 9191POPC   C4B74386   5.683  13.500   7.350
 9192POPC   NC374387   3.546   9.725   5.550
 9192POPC   PO474388   3.523   9.785   5.850
 9192POPC   GL174389   3.591   9.731   6.150
 9192POPC   GL274390   3.500   9.902   6.150
 9192POPC   C1A74391   3.563   9.725   6.450
 9192POPC   D2A74392   3.557   9.716   6.750
 9192POPC   C3A74393   3.566   9.707   7.050
 9192POPC   C4A74394   3.548   9.758   7.350
 9192POPC   C1B74395   3.446   9.965   6.450
 9192POPC   C2B74396   3.449   9.989   6.750
 9192POPC   C3B74397   3.452   9.917   7.050
 9192POPC   C4B74398   3.450  10.008   7.350
 9193POPC   NC374399  15.917   6.635   5.550
 9193POPC   PO474400  15.975   6.603   5.850
 9193POPC   GL174401  15.916   6.645   6.150
 9193POPC   GL274402  15.936   6.519   6.150
 9193POPC   C1A74403  15.920   6.601   6.450
 9193POPC   D2A74404  15.951   6.617   6.750
 9193POPC   C3A74405  15.913   6.630   7.050
 9193POPC   C4A74406  15.948   6.692   7.350
 9193POPC   C1B74407  15.849   6.424   6.450
 9193POPC   C2B74408  15.812   6.418   6.750
 9193POPC   C3B74409  15.803   6.413   7.050
 9193POPC   C4B74410  15.830   6.457   7.350
 9194POPC   NC374411  36.913  32.262   5.550
 9194POPC   PO474412  36.891  32.252   5.850
 9194POPC   GL174413  36.902  32.272   6.150
 9194POPC   GL274414  36.882  32.361   6.150
 9194POPC   C1A74415  36.922  32.287   6.450
 9194POPC   D2A74416  36.875  32.208   6.750
 9194POPC   C3A74417  36.925  32.204   7.050
 9194POPC   C4A74418  36.930  32.202   7.350
 9194POPC   C1B74419  36.796  32.478   6.450
 9194POPC   C2B74420  36.807  32.483   6.750
 9194POPC   C3B74421  36.794  32.495   7.050
 9194POPC   C4B74422  36.775  32.445   7.350
 9195POPC   NC374423  13.675  19.811   5.550
 9195POPC   PO474424  13.595  19.808   5.850
 9195POPC   GL174425  13.635  19.803   6.150
 9195POPC   GL274426  13.493  19.768   6.150
 9195POPC   C1A74427  13.595  19.797   6.450
 9195POPC   D2A74428  13.655  19.863   6.750
 9195POPC   C3A74429  13.631  19.791   7.050
 9195POPC   C4A74430  13.657  19.831   7.350
 9195POPC   C1B74431  13.419  19.646   6.450
 9195POPC   C2B74432  13.419  19.682   6.750
 9195POPC   C3B74433  13.473  19.716   7.050
 9195POPC   C4B74434  13.391  19.681   7.350
 9196POPC   NC374435  35.305  20.657   5.550
 9196POPC   PO474436  35.377  20.596   5.850
 9196POPC   GL174437  35.395  20.618   6.150
 9196POPC   GL274438  35.306  20.726   6.150
 9196POPC   C1A74439  35.385  20.641   6.450
 9196POPC   D2A74440  35.332  20.582   6.750
 9196POPC   C3A74441  35.324  20.589   7.050
 9196POPC   C4A74442  35.366  20.605   7.350
 9196POPC   C1B74443  35.307  20.888   6.450
 9196POPC   C2B74444  35.388  20.864   6.750
 9196POPC   C3B74445  35.321  20.867   7.050
 9196POPC   C4B74446  35.346  20.832   7.350
 9197POPC   NC374447  33.006  33.073   5.550
 9197POPC   PO474448  32.995  32.984   5.850
 9197POPC   GL174449  33.066  32.996   6.150
 9197POPC   GL274450  32.925  33.118   6.150
 9197POPC   C1A74451  33.073  33.070   6.450
 9197POPC   D2A74452  33.023  32.984   6.750
 9197POPC   C3A74453  33.031  32.976   7.050
 9197POPC   C4A74454  33.070  32.990   7.350
 9197POPC   C1B74455  32.779  33.125   6.450
 9197POPC   C2B74456  32.824  33.150   6.750
 9197POPC   C3B74457  32.842  33.182   7.050
 9197POPC   C4B74458  32.810  33.129   7.350
 9198POPC   NC374459  19.879   4.284   5.550
 9198POPC   PO474460  19.785   4.352   5.850
 9198POPC   GL174461  19.847   4.322   6.150
 9198POPC   GL274462  19.760   4.340   6.150
 9198POPC   C1A74463  19.844   4.276   6.450
 9198POPC   D2A74464  19.877   4.317   6.750
 9198POPC   C3A74465  19.859   4.285   7.050
 9198POPC   C4A74466  19.821   4.353   7.350
 9198POPC   C1B74467  19.597   4.359   6.450
 9198POPC   C2B74468  19.587   4.386   6.750
 9198POPC   C3B74469  19.628   4.392   7.050
 9198POPC   C4B74470  19.539   4.316   7.350
 9199POPC   NC374471   1.200  26.060   5.550
 9199POPC   PO474472   1.187  26.000   5.850
 9199POPC   GL174473   1.211  26.012   6.150
 9199POPC   GL274474   1.122  26.016   6.150
 9199POPC   C1A74475   1.173  26.036   6.450
 9199POPC   D2A74476   1.237  26.035   6.750
 9199POPC   C3A74477   1.202  26.058   7.050
 9199POPC   C4A74478   1.219  26.040   7.350
 9199POPC   C1B74479   0.917  26.081   6.450
 9199POPC   C2B74480   0.924  26.048   6.750
 9199POPC   C3B74481   0.947  25.999   7.050
 9199POPC   C4B74482   0.939  26.007   7.350
 9200POPC   NC374483  22.153  15.145   5.550
 9200POPC   PO474484  22.122  15.218   5.850
 9200POPC   GL174485  22.125  15.181   6.150
 9200POPC   GL274486  22.071  15.277   6.150
 9200POPC   C1A74487  22.166  15.185   6.450
 9200POPC   D2A74488  22.207  15.221   6.750
 9200POPC   C3A74489  22.189  15.187   7.050
 9200POPC   C4A74490  22.134  15.183   7.350
 9200POPC   C1B74491  22.094  15.406   6.450
 9200POPC   C2B74492  22.074  15.455   6.750
 9200POPC   C3B74493  22.088  15.413   7.050
 9200POPC   C4B74494  22.094  15.373   7.350
 9201POPC   NC374495  15.944  34.534   5.550
 9201POPC   PO474496  15.969  34.598   5.850
 9201POPC   GL174497  15.924  34.599   6.150
 9201POPC   GL274498  15.836  34.602   6.150
 9201POPC   C1A74499  15.909  34.625   6.450
 9201POPC   D2A74500  15.928  34.555   6.750
 9201POPC   C3A74501  15.910  34.610   7.050
 9201POPC   C4A74502  15.985  34.532   7.350
 9201POPC   C1B74503  15.729  34.676   6.450
 9201POPC   C2B74504  15.670  34.657   6.750
 9201POPC   C3B74505  15.754  34.612   7.050
 9201POPC   C4B74506  15.724  34.613   7.350
 9202POPC   NC374507  42.348  36.079   5.550
 9202POPC   PO474508  42.356  36.165   5.850
 9202POPC   GL174509  42.341  36.115   6.150
 9202POPC   GL274510  42.360  36.271   6.150
 9202POPC   C1A74511  42.358  36.168   6.450
 9202POPC   D2A74512  42.371  36.125   6.750
 9202POPC   C3A74513  42.348  36.093   7.050
 9202POPC   C4A74514  42.384  36.121   7.350
 9202POPC   C1B74515  42.390  36.364   6.450
 9202POPC   C2B74516  42.353  36.405   6.750
 9202POPC   C3B74517  42.320  36.377   7.050
 9202POPC   C4B74518  42.386  36.339   7.350
 9203POPC   NC374519  26.015  36.131   5.550
 9203POPC   PO474520  26.026  36.092   5.850
 9203POPC   GL174521  26.031  36.154   6.150
 9203POPC   GL274522  26.124  36.194   6.150
 9203POPC   C1A74523  26.055  36.160   6.450
 9203POPC   D2A74524  26.030  36.137   6.750
 9203POPC   C3A74525  26.059  36.152   7.050
 9203POPC   C4A74526  26.014  36.106   7.350
 9203POPC   C1B74527  26.144  36.373   6.450
 9203POPC   C2B74528  26.215  36.333   6.750
 9203POPC   C3B74529  26.159  36.360   7.050
 9203POPC   C4B74530  26.221  36.376   7.350
 9204POPC   NC374531  43.105  35.394   5.550
 9204POPC   PO474532  43.083  35.358   5.850
 9204POPC   GL174533  43.075  35.302   6.150
 9204POPC   GL274534  43.018  35.337   6.150
 9204POPC   C1A74535  43.067  35.398   6.450
 9204POPC   D2A74536  43.101  35.369   6.750
 9204POPC   C3A74537  43.107  35.340   7.050
 9204POPC   C4A74538  43.098  35.307   7.350
 9204POPC   C1B74539  42.846  35.295   6.450
 9204POPC   C2B74540  42.915  35.285   6.750
 9204POPC   C3B74541  42.912  35.277   7.050
 9204POPC   C4B74542  42.914  35.306   7.350
 9205POPC   NC374543  18.332  42.364   5.550
 9205POPC   PO474544  18.246  42.334   5.850
 9205POPC   GL174545  18.260  42.289   6.150
 9205POPC   GL274546  18.213  42.415   6.150
 9205POPC   C1A74547  18.310  42.310   6.450
 9205POPC   D2A74548  18.304  42.368   6.750
 9205POPC   C3A74549  18.326  42.285   7.050
 9205POPC   C4A74550  18.275  42.312   7.350
 9205POPC   C1B74551  18.116  42.499   6.450
 9205POPC   C2B74552  18.099  42.435   6.750
 9205POPC   C3B74553  18.094  42.413   7.050
 9205POPC   C4B74554  18.107  42.447   7.350
 9206POPC   NC374555   2.019  28.346   5.550
 9206POPC   PO474556   1.985  28.397   5.850
 9206POPC   GL174557   1.998  28.331   6.150
 9206POPC   GL274558   2.076  28.285   6.150
 9206POPC   C1A74559   1.949  28.337   6.450
 9206POPC   D2A74560   1.976  28.391   6.750
 9206POPC   C3A74561   2.024  28.329   7.050
 9206POPC   C4A74562   1.987  28.395   7.350
 9206POPC   C1B74563   2.172  28.264   6.450
 9206POPC   C2B74564   2.261  28.289   6.750
 9206POPC   C3B74565   2.260  28.211   7.050
 9206POPC   C4B74566   2.226  28.273   7.350
 9207POPC   NC374567  38.466  32.209   5.550
 9207POPC   PO474568  38.488  32.206   5.850
 9207POPC   GL174569  38.448  32.259   6.150
 9207POPC   GL274570  38.611  32.172   6.150
 9207POPC   C1A74571  38.464  32.237   6.450
 9207POPC   D2A74572  38.465  32.229   6.750
 9207POPC   C3A74573  38.497  32.258   7.050
 9207POPC   C4A74574  38.483  32.241   7.350
 9207POPC   C1B74575  38.744  32.181   6.450
 9207POPC   C2B74576  38.650  32.217   6.750
 9207POPC   C3B74577  38.658  32.179   7.050
 9207POPC   C4B74578  38.680  32.193   7.350
 9208POPC   NC374579   6.638  35.335   5.550
 9208POPC   PO474580   6.654  35.383   5.850
 9208POPC   GL174581   6.597  35.354   6.150
 9208POPC   GL274582   6.669  35.513   6.150
 9208POPC   C1A74583   6.653  35.344   6.450
 9208POPC   D2A74584   6.686  35.362   6.750
 9208POPC   C3A74585   6.656  35.353   7.050
 9208POPC   C4A74586   6.661  35.318   7.350
 9208POPC   C1B74587   6.637  35.596   6.450
 9208POPC   C2B74588   6.565  35.622   6.750
 9208POPC   C3B74589   6.637  35.614   7.050
 9208POPC   C4B74590   6.586  35.551   7.350
 9209POPC   NC374591  19.024  43.843   5.550
 9209POPC   PO474592  19.058  43.927   5.850
 9209POPC   GL174593  19.090  43.914   6.150
 9209POPC   GL274594  18.950  43.817   6.150
 9209POPC   C1A74595  19.033  43.857   6.450
 9209POPC   D2A74596  19.050  43.895   6.750
 9209POPC   C3A74597  19.100  43.904   7.050
 9209POPC   C4A74598  19.014  43.891   7.350
 9209POPC   C1B74599  18.795  43.826   6.450
 9209POPC   C2B74600  18.857  43.822   6.750
 9209POPC   C3B74601  18.796  43.818   7.050
 9209POPC   C4B74602  18.806  43.748   7.350
 9210POPC   NC374603  15.978  36.098   5.550
 9210POPC   PO474604  16.003  36.141   5.850
 9210POPC   GL174605  15.936  36.157   6.150
 9210POPC   GL274606  15.939  35.992   6.150
 9210POPC   C1A74607  16.004  36.120   6.450
 9210POPC   D2A74608  15.982  36.098   6.750
 9210POPC   C3A74609  15.940  36.159   7.050
 9210POPC   C4A74610  15.920  36.142   7.350
 9210POPC   C1B74611  15.980  35.930   6.450
 9210POPC   C2B74612  16.031  35.901   6.750
 9210POPC   C3B74613  16.017  35.924   7.050
 9210POPC   C4B74614  15.946  35.905   7.350
 9211POPC   NC374615  41.589  23.755   5.550
 9211POPC   PO474616  41.567  23.667   5.850
 9211POPC   GL174617  41.554  23.750   6.150
 9211POPC   GL274618  41.472  23.768   6.150
 9211POPC   C1A74619  41.580  23.673   6.450
 9211POPC   D2A74620  41.568  23.682   6.750
 9211POPC   C3A74621  41.531  23.710   7.050
 9211POPC   C4A74622  41.588  23.673   7.350
 9211POPC   C1B74623  41.322  23.685   6.450
 9211POPC   C2B74624  41.264  23.695   6.750
 9211POPC   C3B74625  41.270  23.713   7.050
 9211POPC   C4B74626  41.295  23.689   7.350
 9212POPC   NC374627   1.944   0.458   5.550
 9212POPC   PO474628   2.024   0.482   5.850
 9212POPC   GL174629   2.018   0.394   6.150
 9212POPC   GL274630   2.087   0.510   6.150
 9212POPC   C1A74631   2.003   0.448   6.450
 9212POPC   D2A74632   1.977   0.388   6.750
 9212POPC   C3A74633   1.948   0.416   7.050
 9212POPC   C4A74634   2.007   0.474   7.350
 9212POPC   C1B74635   2.076   0.671   6.450
 9212POPC   C2B74636   2.093   0.630   6.750
 9212POPC   C3B74637   2.101   0.683   7.050
 9212POPC   C4B74638   2.127   0.651   7.350
 9213POPC   NC374639  14.359  34.557   5.550
 9213POPC   PO474640  14.412  34.581   5.850
 9213POPC   GL174641  14.426  34.536   6.150
 9213POPC   GL274642  14.361  34.670   6.150
 9213POPC   C1A74643  14.428  34.586   6.450
 9213POPC   D2A74644  14.366  34.613   6.750
 9213POPC   C3A74645  14.355  34.591   7.050
 9213POPC   C4A74646  14.427  34.622   7.350
 9213POPC   C1B74647  14.338  34.787   6.450
 9213POPC   C2B74648  14.321  34.861   6.750
 9213POPC   C3B74649  14.317  34.832   7.050
 9213POPC   C4B74650  14.273  34.791   7.350
 9214POPC   NC374651  15.916  16.693   5.550
 9214POPC   PO474652  16.000  16.758   5.850
 9214POPC   GL174653  15.956  16.712   6.150
 9214POPC   GL274654  15.979  16.571   6.150
 9214POPC   C1A74655  15.913  16.686   6.450
 9214POPC   D2A74656  15.928  16.710   6.750
 9214POPC   C3A74657  15.978  16.750   7.050
 9214POPC   C4A74658  15.965  16.684   7.350
 9214POPC   C1B74659  16.030  16.481   6.450
 9214POPC   C2B74660  16.114  16.462   6.750
 9214POPC   C3B74661  16.021  16.467   7.050
 9214POPC   C4B74662  16.075  16.536   7.350
 9215POPC   NC374663  38.439   5.096   5.550
 9215POPC   PO474664  38.425   5.088   5.850
 9215POPC   GL174665  38.457   5.072   6.150
 9215POPC   GL274666  38.349   5.060   6.150
 9215POPC   C1A74667  38.463   5.134   6.450
 9215POPC   D2A74668  38.472   5.131   6.750
 9215POPC   C3A74669  38.421   5.106   7.050
 9215POPC   C4A74670  38.444   5.063   7.350
 9215POPC   C1B74671  38.224   5.048   6.450
 9215POPC   C2B74672  38.192   5.066   6.750
 9215POPC   C3B74673  38.190   5.049   7.050
 9215POPC   C4B74674  38.182   5.046   7.350
 9216POPC   NC374675   8.167  12.891   5.550
 9216POPC   PO474676   8.220  12.819   5.850
 9216POPC   GL174677   8.229  12.884   6.150
 9216POPC   GL274678   8.331  12.795   6.150
 9216POPC   C1A74679   8.208  12.897   6.450
 9216POPC   D2A74680   8.154  12.840   6.750
 9216POPC   C3A74681   8.230  12.888   7.050
 9216POPC   C4A74682   8.165  12.893   7.350
 9216POPC   C1B74683   8.398  12.723   6.450
 9216POPC   C2B74684   8.345  12.678   6.750
 9216POPC   C3B74685   8.400  12.683   7.050
 9216POPC   C4B74686   8.351  12.662   7.350
 9217POPC   NC374687  29.149   6.685   5.550
 9217POPC   PO474688  29.117   6.689   5.850
 9217POPC   GL174689  29.119   6.619   6.150
 9217POPC   GL274690  29.263   6.777   6.150
 9217POPC   C1A74691  29.146   6.681   6.450
 9217POPC   D2A74692  29.138   6.670   6.750
 9217POPC   C3A74693  29.186   6.654   7.050
 9217POPC   C4A74694  29.156   6.656   7.350
 9217POPC   C1B74695  29.276   6.838   6.450
 9217POPC   C2B74696  29.300   6.811   6.750
 9217POPC   C3B74697  29.360   6.819   7.050
 9217POPC   C4B74698  29.324   6.871   7.350
 9218POPC   NC374699  21.423   6.657   5.550
 9218POPC   PO474700  21.365   6.601   5.850
 9218POPC   GL174701  21.407   6.644   6.150
 9218POPC   GL274702  21.364   6.780   6.150
 9218POPC   C1A74703  21.402   6.635   6.450
 9218POPC   D2A74704  21.341   6.595   6.750
 9218POPC   C3A74705  21.402   6.673   7.050
 9218POPC   C4A74706  21.406   6.600   7.350
 9218POPC   C1B74707  21.257   6.832   6.450
 9218POPC   C2B74708  21.268   6.910   6.750
 9218POPC   C3B74709  21.298   6.838   7.050
 9218POPC   C4B74710  21.283   6.855   7.350
 9219POPC   NC374711  13.669  31.521   5.550
 9219POPC   PO474712  13.662  31.429   5.850
 9219POPC   GL174713  13.624  31.439   6.150
 9219POPC   GL274714  13.727  31.612   6.150
 9219POPC   C1A74715  13.674  31.438   6.450
 9219POPC   D2A74716  13.604  31.469   6.750
 9219POPC   C3A74717  13.627  31.498   7.050
 9219POPC   C4A74718  13.632  31.457   7.350
 9219POPC   C1B74719  13.774  31.694   6.450
 9219POPC   C2B74720  13.727  31.717   6.750
 9219POPC   C3B74721  13.692  31.658   7.050
 9219POPC   C4B74722  13.767  31.702   7.350
 9220POPC   NC374723  15.136  33.775   5.550
 9220POPC   PO474724  15.203  33.849   5.850
 9220POPC   GL174725  15.215  33.840   6.150
 9220POPC   GL274726  15.088  33.730   6.150
 9220POPC   C1A74727  15.211  33.779   6.450
 9220POPC   D2A74728  15.202  33.772   6.750
 9220POPC   C3A74729  15.130  33.783   7.050
 9220POPC   C4A74730  15.158  33.789   7.350
 9220POPC   C1B74731  15.003  33.604   6.450
 9220POPC   C2B74732  14.963  33.600   6.750
 9220POPC   C3B74733  15.027  33.658   7.050
 9220POPC   C4B74734  14.981  33.635   7.350
 9221POPC   NC374735  10.492  12.098   5.550
 9221POPC   PO474736  10.508  12.068   5.850
 9221POPC   GL174737  10.562  12.059   6.150
 9221POPC   GL274738  10.560  11.966   6.150
 9221POPC   C1A74739  10.529  12.120   6.450
 9221POPC   D2A74740  10.558  12.039   6.750
 9221POPC   C3A74741  10.532  12.119   7.050
 9221POPC   C4A74742  10.513  12.040   7.350
 9221POPC   C1B74743  10.707  11.865   6.450
 9221POPC   C2B74744  10.739  11.869   6.750
 9221POPC   C3B74745  10.659  11.850   7.050
 9221POPC   C4B74746  10.713  11.871   7.350
 9222POPC   NC374747  27.584   3.531   5.550
 9222POPC   PO474748  27.636   3.547   5.850
 9222POPC   GL174749  27.544   3.583   6.150
 9222POPC   GL274750  27.660   3.410   6.150
 9222POPC   C1A74751  27.582   3.563   6.450
 9222POPC   D2A74752  27.621   3.562   6.750
 9222POPC   C3A74753  27.552   3.498   7.050
 9222POPC   C4A74754  27.639   3.579   7.350
 9222POPC   C1B74755  27.787   3.400   6.450
 9222POPC   C2B74756  27.729   3.399   6.750
 9222POPC   C3B74757  27.826   3.324   7.050
 9222POPC   C4B74758  27.826   3.343   7.350
 9223POPC   NC374759  17.525  34.527   5.550
 9223POPC   PO474760  17.460  34.527   5.850
 9223POPC   GL174761  17.486  34.586   6.150
 9223POPC   GL274762  17.389  34.646   6.150
 9223POPC   C1A74763  17.549  34.543   6.450
 9223POPC   D2A74764  17.515  34.594   6.750
 9223POPC   C3A74765  17.471  34.619   7.050
 9223POPC   C4A74766  17.557  34.591   7.350
 9223POPC   C1B74767  17.350  34.722   6.450
 9223POPC   C2B74768  17.317  34.726   6.750
 9223POPC   C3B74769  17.302  34.784   7.050
 9223POPC   C4B74770  17.311  34.798   7.350
 9224POPC   NC374771   1.974   6.694   5.550
 9224POPC   PO474772   2.016   6.659   5.850
 9224POPC   GL174773   1.981   6.685   6.150
 9224POPC   GL274774   1.958   6.516   6.150
 9224POPC   C1A74775   1.988   6.609   6.450
 9224POPC   D2A74776   2.028   6.653   6.750
 9224POPC   C3A74777   1.945   6.656   7.050
 9224POPC   C4A74778   1.978   6.681   7.350
 9224POPC   C1B74779   1.828   6.435   6.450
 9224POPC   C2B74780   1.900   6.440   6.750
 9224POPC   C3B74781   1.910   6.390   7.050
 9224POPC   C4B74782   1.846   6.422   7.350
 9225POPC   NC374783   8.173  11.255   5.550
 9225POPC   PO474784   8.157  11.299   5.850
 9225POPC   GL174785   8.232  11.342   6.150
 9225POPC   GL274786   8.314  11.350   6.150
 9225POPC   C1A74787   8.242  11.294   6.450
 9225POPC   D2A74788   8.163  11.265   6.750
 9225POPC   C3A74789   8.211  11.275   7.050
 9225POPC   C4A74790   8.185  11.293   7.350
 9225POPC   C1B74791   8.366  11.457   6.450
 9225POPC   C2B74792   8.433  11.394   6.750
 9225POPC   C3B74793   8.420  11.470   7.050
 9225POPC   C4B74794   8.412  11.468   7.350
 9226POPC   NC374795  22.978  35.397   5.550
 9226POPC   PO474796  22.919  35.320   5.850
 9226POPC   GL174797  22.921  35.382   6.150
 9226POPC   GL274798  22.898  35.217   6.150
 9226POPC   C1A74799  22.929  35.348   6.450
 9226POPC   D2A74800  22.932  35.344   6.750
 9226POPC   C3A74801  22.961  35.377   7.050
 9226POPC   C4A74802  22.893  35.334   7.350
 9226POPC   C1B74803  22.782  35.156   6.450
 9226POPC   C2B74804  22.755  35.140   6.750
 9226POPC   C3B74805  22.817  35.160   7.050
 9226POPC   C4B74806  22.837  35.124   7.350
 9227POPC   NC374807  29.886  28.364   5.550
 9227POPC   PO474808  29.957  28.378   5.850
 9227POPC   GL174809  29.893  28.363   6.150
 9227POPC   GL274810  29.932  28.228   6.150
 9227POPC   C1A74811  29.954  28.336   6.450
 9227POPC   D2A74812  29.931  28.378   6.750
 9227POPC   C3A74813  29.917  28.332   7.050
 9227POPC   C4A74814  29.881  28.356   7.350
 9227POPC   C1B74815  29.976  28.096   6.450
 9227POPC   C2B74816  29.950  28.158   6.750
 9227POPC   C3B74817  29.959  28.089   7.050
 9227POPC   C4B74818  29.965  28.148   7.350
 9228POPC   NC374819   9.791  33.026   5.550
 9228POPC   PO474820   9.780  33.063   5.850
 9228POPC   GL174821   9.749  33.025   6.150
 9228POPC   GL274822   9.723  33.170   6.150
 9228POPC   C1A74823   9.783  33.027   6.450
 9228POPC   D2A74824   9.759  33.065   6.750
 9228POPC   C3A74825   9.781  33.028   7.050
 9228POPC   C4A74826   9.702  32.995   7.350
 9228POPC   C1B74827   9.692  33.216   6.450
 9228POPC   C2B74828   9.676  33.252   6.750
 9228POPC   C3B74829   9.673  33.270   7.050
 9228POPC   C4B74830   9.660  33.226   7.350
 9229POPC   NC374831  11.335  13.581   5.550
 9229POPC   PO474832  11.316  13.617   5.850
 9229POPC   GL174833  11.268  13.651   6.150
 9229POPC   GL274834  11.189  13.646   6.150
 9229POPC   C1A74835  11.332  13.589   6.450
 9229POPC   D2A74836  11.283  13.676   6.750
 9229POPC   C3A74837  11.283  13.622   7.050
 9229POPC   C4A74838  11.292  13.639   7.350
 9229POPC   C1B74839  11.027  13.755   6.450
 9229POPC   C2B74840  11.091  13.704   6.750
 9229POPC   C3B74841  11.092  13.750   7.050
 9229POPC   C4B74842  11.041  13.669   7.350
 9230POPC   NC374843  19.800  32.293   5.550
 9230POPC   PO474844  19.785  32.261   5.850
 9230POPC   GL174845  19.873  32.227   6.150
 9230POPC   GL274846  19.876  32.172   6.150
 9230POPC   C1A74847  19.788  32.218   6.450
 9230POPC   D2A74848  19.850  32.230   6.750
 9230POPC   C3A74849  19.854  32.296   7.050
 9230POPC   C4A74850  19.861  32.200   7.350
 9230POPC   C1B74851  20.018  32.064   6.450
 9230POPC   C2B74852  20.054  32.028   6.750
 9230POPC   C3B74853  20.039  32.087   7.050
 9230POPC   C4B74854  20.040  32.042   7.350
 9231POPC   NC374855  42.316   1.954   5.550
 9231POPC   PO474856  42.376   1.996   5.850
 9231POPC   GL174857  42.295   1.993   6.150
 9231POPC   GL274858  42.237   1.987   6.150
 9231POPC   C1A74859  42.350   1.966   6.450
 9231POPC   D2A74860  42.297   2.002   6.750
 9231POPC   C3A74861  42.361   2.008   7.050
 9231POPC   C4A74862  42.286   1.994   7.350
 9231POPC   C1B74863  42.079   2.023   6.450
 9231POPC   C2B74864  42.080   2.003   6.750
 9231POPC   C3B74865  42.041   1.971   7.050
 9231POPC   C4B74866  42.071   2.011   7.350
 9232POPC   NC374867   7.399  43.854   5.550
 9232POPC   PO474868   7.425  43.877   5.850
 9232POPC   GL174869   7.428  43.877   6.150
 9232POPC   GL274870   7.592  43.879   6.150
 9232POPC   C1A74871   7.392  43.844   6.450
 9232POPC   D2A74872   7.458  43.875   6.750
 9232POPC   C3A74873   7.442  43.867   7.050
 9232POPC   C4A74874   7.415  43.896   7.350
 9232POPC   C1B74875   7.703  43.909   6.450
 9232POPC   C2B74876   7.624  43.855   6.750
 9232POPC   C3B74877   7.630  43.901   7.050
 9232POPC   C4B74878   7.656  43.851   7.350
 9233POPC   NC374879  40.824  24.486   5.550
 9233POPC   PO474880  40.803  24.531   5.850
 9233POPC   GL174881  40.810  24.524   6.150
 9233POPC   GL274882  40.902  24.501   6.150
 9233POPC   C1A74883  40.753  24.532   6.450
 9233POPC   D2A74884  40.821  24.477   6.750
 9233POPC   C3A74885  40.831  24.498   7.050
 9233POPC   C4A74886  40.786  24.508   7.350
 9233POPC   C1B74887  41.057  24.474   6.450
 9233POPC   C2B74888  41.050  24.444   6.750
 9233POPC   C3B74889  41.054  24.505   7.050
 9233POPC   C4B74890  41.003  24.484   7.350
 9234POPC   NC374891   1.262  28.335   5.550
 9234POPC   PO474892   1.181  28.343   5.850
 9234POPC   GL174893   1.178  28.418   6.150
 9234POPC   GL274894   1.117  28.332   6.150
 9234POPC   C1A74895   1.182  28.321   6.450
 9234POPC   D2A74896   1.202  28.357   6.750
 9234POPC   C3A74897   1.234  28.319   7.050
 9234POPC   C4A74898   1.256  28.371   7.350
 9234POPC   C1B74899   0.927  28.302   6.450
 9234POPC   C2B74900   0.984  28.279   6.750
 9234POPC   C3B74901   0.985  28.333   7.050
 9234POPC   C4B74902   0.966  28.351   7.350
 9235POPC   NC374903  43.879  24.460   5.550
 9235POPC   PO474904  43.874  24.504   5.850
 9235POPC   GL174905  43.911  24.531   6.150
 9235POPC   GL274906  43.844  24.376   6.150
 9235POPC   C1A74907  43.851  24.486   6.450
 9235POPC   D2A74908  43.875  24.486   6.750
 9235POPC   C3A74909  43.855  24.494   7.050
 9235POPC   C4A74910  43.865  24.533   7.350
 9235POPC   C1B74911  43.858  24.258   6.450
 9235POPC   C2B74912  43.797  24.227   6.750
 9235POPC   C3B74913  43.892  24.291   7.050
 9235POPC   C4B74914  43.816  24.228   7.350
 9236POPC   NC374915   6.644  12.879   5.550
 9236POPC   PO474916   6.694  12.815   5.850
 9236POPC   GL174917   6.658  12.838   6.150
 9236POPC   GL274918   6.493  12.752   6.150
 9236POPC   C1A74919   6.678  12.850   6.450
 9236POPC   D2A74920   6.655  12.840   6.750
 9236POPC   C3A74921   6.695  12.874   7.050
 9236POPC   C4A74922   6.692  12.897   7.350
 9236POPC   C1B74923   6.445  12.711   6.450
 9236POPC   C2B74924   6.463  12.762   6.750
 9236POPC   C3B74925   6.462  12.727   7.050
 9236POPC   C4B74926   6.416  12.784   7.350
 9237POPC   NC374927  24.522  26.797   5.550
 9237POPC   PO474928  24.446  26.809   5.850
 9237POPC   GL174929  24.535  26.811   6.150
 9237POPC   GL274930  24.642  26.772   6.150
 9237POPC   C1A74931  24.534  26.796   6.450
 9237POPC   D2A74932  24.539  26.866   6.750
 9237POPC   C3A74933  24.537  26.796   7.050
 9237POPC   C4A74934  24.460  26.831   7.350
 9237POPC   C1B74935  24.718  26.765   6.450
 9237POPC   C2B74936  24.745  26.757   6.750
 9237POPC   C3B74937  24.738  26.738   7.050
 9237POPC   C4B74938  24.715  26.797   7.350
 9238POPC   NC374939  44.614  12.894   5.550
 9238POPC   PO474940  44.660  12.868   5.850
 9238POPC   GL174941  44.660  12.888   6.150
 9238POPC   GL274942  44.759  12.829   6.150
 9238POPC   C1A74943  44.642  12.814   6.450
 9238POPC   D2A74944  44.711  12.896   6.750
 9238POPC   C3A74945  44.618  12.878   7.050
 9238POPC   C4A74946  44.667  12.867   7.350
 9238POPC   C1B74947  44.883  12.867   6.450
 9238POPC   C2B74948  44.898  12.889   6.750
 9238POPC   C3B74949  44.882  12.809   7.050
 9238POPC   C4B74950  44.881  12.796   7.350
 9239POPC   NC374951  36.150  32.219   5.550
 9239POPC   PO474952  36.134  32.297   5.850
 9239POPC   GL174953  36.147  32.239   6.150
 9239POPC   GL274954  36.129  32.392   6.150
 9239POPC   C1A74955  36.087  32.288   6.450
 9239POPC   D2A74956  36.135  32.227   6.750
 9239POPC   C3A74957  36.151  32.254   7.050
 9239POPC   C4A74958  36.081  32.282   7.350
 9239POPC   C1B74959  36.102  32.467   6.450
 9239POPC   C2B74960  36.083  32.501   6.750
 9239POPC   C3B74961  36.138  32.473   7.050
 9239POPC   C4B74962  36.094  32.528   7.350
 9240POPC   NC374963  42.339  27.583   5.550
 9240POPC   PO474964  42.289  27.559   5.850
 9240POPC   GL174965  42.366  27.630   6.150
 9240POPC   GL274966  42.265  27.617   6.150
 9240POPC   C1A74967  42.327  27.596   6.450
 9240POPC   D2A74968  42.364  27.569   6.750
 9240POPC   C3A74969  42.299  27.632   7.050
 9240POPC   C4A74970  42.347  27.617   7.350
 9240POPC   C1B74971  42.090  27.763   6.450
 9240POPC   C2B74972  42.102  27.767   6.750
 9240POPC   C3B74973  42.156  27.698   7.050
 9240POPC   C4B74974  42.145  27.742   7.350
 9241POPC   NC374975   1.240  32.986   5.550
 9241POPC   PO474976   1.178  32.977   5.850
 9241POPC   GL174977   1.164  33.013   6.150
 9241POPC   GL274978   1.300  33.020   6.150
 9241POPC   C1A74979   1.246  33.070   6.450
 9241POPC   D2A74980   1.169  33.002   6.750
 9241POPC   C3A74981   1.202  33.003   7.050
 9241POPC   C4A74982   1.260  33.042   7.350
 9241POPC   C1B74983   1.445  32.928   6.450
 9241POPC   C2B74984   1.444  32.953   6.750
 9241POPC   C3B74985   1.474  32.917   7.050
 9241POPC   C4B74986   1.476  32.953   7.350
 9242POPC   NC374987  22.176  33.787   5.550
 9242POPC   PO474988  22.118  33.850   5.850
 9242POPC   GL174989  22.156  33.802   6.150
 9242POPC   GL274990  22.275  33.852   6.150
 9242POPC   C1A74991  22.131  33.850   6.450
 9242POPC   D2A74992  22.171  33.833   6.750
 9242POPC   C3A74993  22.198  33.766   7.050
 9242POPC   C4A74994  22.180  33.842   7.350
 9242POPC   C1B74995  22.392  33.982   6.450
 9242POPC   C2B74996  22.386  33.933   6.750
 9242POPC   C3B74997  22.376  33.917   7.050
 9242POPC   C4B74998  22.414  33.979   7.350
 9243POPC   NC374999  43.849  19.860   5.550
 9243POPC   PO475000  43.862  19.816   5.850
 9243POPC   GL175001  43.875  19.817   6.150
 9243POPC   GL275002  43.781  19.910   6.150
 9243POPC   C1A75003  43.844  19.883   6.450
 9243POPC   D2A75004  43.855  19.858   6.750
 9243POPC   C3A75005  43.856  19.878   7.050
 9243POPC   C4A75006  43.903  19.825   7.350
 9243POPC   C1B75007  43.719  19.937   6.450
 9243POPC   C2B75008  43.689  19.989   6.750
 9243POPC   C3B75009  43.686  19.934   7.050
 9243POPC   C4B75010  43.649  19.952   7.350
 9244POPC   NC375011  30.735  25.306   5.550
 9244POPC   PO475012  30.679  25.268   5.850
 9244POPC   GL175013  30.703  25.260   6.150
 9244POPC   GL275014  30.704  25.352   6.150
 9244POPC   C1A75015  30.716  25.217   6.450
 9244POPC   D2A75016  30.691  25.307   6.750
 9244POPC   C3A75017  30.657  25.266   7.050
 9244POPC   C4A75018  30.741  25.221   7.350
 9244POPC   C1B75019  30.757  25.549   6.450
 9244POPC   C2B75020  30.801  25.544   6.750
 9244POPC   C3B75021  30.739  25.460   7.050
 9244POPC   C4B75022  30.791  25.521   7.350
 9245POPC   NC375023  28.399  33.056   5.550
 9245POPC   PO475024  28.416  33.043   5.850
 9245POPC   GL175025  28.398  33.073   6.150
 9245POPC   GL275026  28.461  33.135   6.150
 9245POPC   C1A75027  28.348  33.042   6.450
 9245POPC   D2A75028  28.329  33.060   6.750
 9245POPC   C3A75029  28.376  32.982   7.050
 9245POPC   C4A75030  28.342  33.019   7.350
 9245POPC   C1B75031  28.504  33.266   6.450
 9245POPC   C2B75032  28.569  33.226   6.750
 9245POPC   C3B75033  28.545  33.261   7.050
 9245POPC   C4B75034  28.543  33.203   7.350
 9246POPC   NC375035  32.271  22.925   5.550
 9246POPC   PO475036  32.238  22.965   5.850
 9246POPC   GL175037  32.214  22.984   6.150
 9246POPC   GL275038  32.340  23.036   6.150
 9246POPC   C1A75039  32.271  22.964   6.450
 9246POPC   D2A75040  32.269  22.973   6.750
 9246POPC   C3A75041  32.270  22.912   7.050
 9246POPC   C4A75042  32.269  22.958   7.350
 9246POPC   C1B75043  32.455  23.033   6.450
 9246POPC   C2B75044  32.516  23.100   6.750
 9246POPC   C3B75045  32.503  23.075   7.050
 9246POPC   C4B75046  32.468  23.031   7.350
 9247POPC   NC375047  12.092   8.998   5.550
 9247POPC   PO475048  12.116   8.972   5.850
 9247POPC   GL175049  12.083   8.995   6.150
 9247POPC   GL275050  11.953   8.838   6.150
 9247POPC   C1A75051  12.071   8.938   6.450
 9247POPC   D2A75052  12.093   8.945   6.750
 9247POPC   C3A75053  12.057   9.017   7.050
 9247POPC   C4A75054  12.091   8.986   7.350
 9247POPC   C1B75055  11.953   8.790   6.450
 9247POPC   C2B75056  11.959   8.809   6.750
 9247POPC   C3B75057  11.898   8.816   7.050
 9247POPC   C4B75058  11.906   8.757   7.350
 9248POPC   NC375059   3.547  15.135   5.550
 9248POPC   PO475060   3.502  15.229   5.850
 9248POPC   GL175061   3.536  15.194   6.150
 9248POPC   GL275062   3.442  15.153   6.150
 9248POPC   C1A75063   3.492  15.218   6.450
 9248POPC   D2A75064   3.495  15.143   6.750
 9248POPC   C3A75065   3.586  15.229   7.050
 9248POPC   C4A75066   3.513  15.131   7.350
 9248POPC   C1B75067   3.267  15.146   6.450
 9248POPC   C2B75068   3.283  15.125   6.750
 9248POPC   C3B75069   3.271  15.146   7.050
 9248POPC   C4B75070   3.320  15.165   7.350
 9249POPC   NC375071  39.244   5.840   5.550
 9249POPC   PO475072  39.245   5.859   5.850
 9249POPC   GL175073  39.249   5.886   6.150
 9249POPC   GL275074  39.202   6.036   6.150
 9249POPC   C1A75075  39.195   5.850   6.450
 9249POPC   D2A75076  39.226   5.864   6.750
 9249POPC   C3A75077  39.226   5.820   7.050
 9249POPC   C4A75078  39.247   5.822   7.350
 9249POPC   C1B75079  39.211   6.147   6.450
 9249POPC   C2B75080  39.213   6.100   6.750
 9249POPC   C3B75081  39.162   6.090   7.050
 9249POPC   C4B75082  39.151   6.074   7.350
 9250POPC   NC375083  32.284  24.483   5.550
 9250POPC   PO475084  32.237  24.487   5.850
 9250POPC   GL175085  32.293  24.479   6.150
 9250POPC   GL275086  32.370  24.522   6.150
 9250POPC   C1A75087  32.251  24.476   6.450
 9250POPC   D2A75088  32.207  24.513   6.750
 9250POPC   C3A75089  32.273  24.474   7.050
 9250POPC   C4A75090  32.212  24.489   7.350
 9250POPC   C1B75091  32.469  24.571   6.450
 9250POPC   C2B75092  32.470  24.573   6.750
 9250POPC   C3B75093  32.448  24.570   7.050
 9250POPC   C4B75094  32.537  24.507   7.350
 9251POPC   NC375095  15.140  16.722   5.550
 9251POPC   PO475096  15.169  16.735   5.850
 9251POPC   GL175097  15.149  16.774   6.150
 9251POPC   GL275098  15.304  16.680   6.150
 9251POPC   C1A75099  15.222  16.682   6.450
 9251POPC   D2A75100  15.157  16.752   6.750
 9251POPC   C3A75101  15.136  16.777   7.050
 9251POPC   C4A75102  15.208  16.772   7.350
 9251POPC   C1B75103  15.373  16.692   6.450
 9251POPC   C2B75104  15.379  16.675   6.750
 9251POPC   C3B75105  15.374  16.677   7.050
 9251POPC   C4B75106  15.459  16.621   7.350
 9252POPC   NC375107  27.592  23.669   5.550
 9252POPC   PO475108  27.550  23.756   5.850
 9252POPC   GL175109  27.601  23.760   6.150
 9252POPC   GL275110  27.504  23.800   6.150
 9252POPC   C1A75111  27.555  23.759   6.450
 9252POPC   D2A75112  27.553  23.679   6.750
 9252POPC   C3A75113  27.554  23.719   7.050
 9252POPC   C4A75114  27.607  23.761   7.350
 9252POPC   C1B75115  27.310  23.836   6.450
 9252POPC   C2B75116  27.343  23.842   6.750
 9252POPC   C3B75117  27.403  23.842   7.050
 9252POPC   C4B75118  27.341  23.751   7.350
 9253POPC   NC375119   1.239  22.972   5.550
 9253POPC   PO475120   1.232  22.952   5.850
 9253POPC   GL175121   1.217  22.969   6.150
 9253POPC   GL275122   1.200  22.863   6.150
 9253POPC   C1A75123   1.259  22.933   6.450
 9253POPC   D2A75124   1.220  22.981   6.750
 9253POPC   C3A75125   1.222  22.892   7.050
 9253POPC   C4A75126   1.228  22.896   7.350
 9253POPC   C1B75127   1.210  22.647   6.450
 9253POPC   C2B75128   1.256  22.687   6.750
 9253POPC   C3B75129   1.260  22.722   7.050
 9253POPC   C4B75130   1.202  22.713   7.350
 9254POPC   NC375131  14.360  16.779   5.550
 9254POPC   PO475132  14.430  16.705   5.850
 9254POPC   GL175133  14.432  16.723   6.150
 9254POPC   GL275134  14.245  16.696   6.150
 9254POPC   C1A75135  14.403  16.703   6.450
 9254POPC   D2A75136  14.401  16.739   6.750
 9254POPC   C3A75137  14.403  16.715   7.050
 9254POPC   C4A75138  14.370  16.686   7.350
 9254POPC   C1B75139  14.197  16.637   6.450
 9254POPC   C2B75140  14.203  16.668   6.750
 9254POPC   C3B75141  14.124  16.598   7.050
 9254POPC   C4B75142  14.207  16.694   7.350
 9255POPC   NC375143  26.815  19.041   5.550
 9255POPC   PO475144  26.776  19.052   5.850
 9255POPC   GL175145  26.859  19.047   6.150
 9255POPC   GL275146  26.928  19.011   6.150
 9255POPC   C1A75147  26.858  19.038   6.450
 9255POPC   D2A75148  26.818  19.030   6.750
 9255POPC   C3A75149  26.867  19.100   7.050
 9255POPC   C4A75150  26.864  19.043   7.350
 9255POPC   C1B75151  26.964  18.940   6.450
 9255POPC   C2B75152  26.960  18.854   6.750
 9255POPC   C3B75153  26.958  18.840   7.050
 9255POPC   C4B75154  26.983  18.861   7.350
 9256POPC   NC375155  27.627  40.801   5.550
 9256POPC   PO475156  27.603  40.788   5.850
 9256POPC   GL175157  27.635  40.752   6.150
 9256POPC   GL275158  27.684  40.652   6.150
 9256POPC   C1A75159  27.549  40.756   6.450
 9256POPC   D2A75160  27.594  40.774   6.750
 9256POPC   C3A75161  27.585  40.743   7.050
 9256POPC   C4A75162  27.556  40.744   7.350
 9256POPC   C1B75163  27.725  40.511   6.450
 9256POPC   C2B75164  27.688  40.511   6.750
 9256POPC   C3B75165  27.705  40.590   7.050
 9256POPC   C4B75166  27.659  40.578   7.350
 9257POPC   NC375167  17.556  15.146   5.550
 9257POPC   PO475168  17.512  15.138   5.850
 9257POPC   GL175169  17.494  15.192   6.150
 9257POPC   GL275170  17.342  15.217   6.150
 9257POPC   C1A75171  17.467  15.219   6.450
 9257POPC   D2A75172  17.534  15.139   6.750
 9257POPC   C3A75173  17.489  15.221   7.050
 9257POPC   C4A75174  17.516  15.153   7.350
 9257POPC   C1B75175  17.256  15.215   6.450
 9257POPC   C2B75176  17.284  15.207   6.750
 9257POPC   C3B75177  17.296  15.198   7.050
 9257POPC   C4B75178  17.276  15.210   7.350
 9258POPC   NC375179  15.166  22.143   5.550
 9258POPC   PO475180  15.203  22.174   5.850
 9258POPC   GL175181  15.131  22.188   6.150
 9258POPC   GL275182  15.219  22.235   6.150
 9258POPC   C1A75183  15.216  22.131   6.450
 9258POPC   D2A75184  15.162  22.202   6.750
 9258POPC   C3A75185  15.177  22.135   7.050
 9258POPC   C4A75186  15.185  22.168   7.350
 9258POPC   C1B75187  15.325  22.366   6.450
 9258POPC   C2B75188  15.362  22.314   6.750
 9258POPC   C3B75189  15.305  22.322   7.050
 9258POPC   C4B75190  15.331  22.325   7.350
 9259POPC   NC375191  38.420  35.319   5.550
 9259POPC   PO475192  38.503  35.372   5.850
 9259POPC   GL175193  38.476  35.388   6.150
 9259POPC   GL275194  38.467  35.202   6.150
 9259POPC   C1A75195  38.468  35.327   6.450
 9259POPC   D2A75196  38.433  35.346   6.750
 9259POPC   C3A75197  38.429  35.358   7.050
 9259POPC   C4A75198  38.460  35.351   7.350
 9259POPC   C1B75199  38.582  35.130   6.450
 9259POPC   C2B75200  38.541  35.069   6.750
 9259POPC   C3B75201  38.523  35.164   7.050
 9259POPC   C4B75202  38.544  35.142   7.350
 9260POPC   NC375203  19.848  22.136   5.550
 9260POPC   PO475204  19.873  22.113   5.850
 9260POPC   GL175205  19.812  22.162   6.150
 9260POPC   GL275206  19.939  22.252   6.150
 9260POPC   C1A75207  19.844  22.159   6.450
 9260POPC   D2A75208  19.866  22.189   6.750
 9260POPC   C3A75209  19.834  22.210   7.050
 9260POPC   C4A75210  19.843  22.160   7.350
 9260POPC   C1B75211  19.985  22.388   6.450
 9260POPC   C2B75212  20.011  22.394   6.750
 9260POPC   C3B75213  20.010  22.326   7.050
 9260POPC   C4B75214  20.040  22.382   7.350
 9261POPC   NC375215  40.764  36.112   5.550
 9261POPC   PO475216  40.738  36.131   5.850
 9261POPC   GL175217  40.795  36.164   6.150
 9261POPC   GL275218  40.669  36.199   6.150
 9261POPC   C1A75219  40.744  36.126   6.450
 9261POPC   D2A75220  40.752  36.081   6.750
 9261POPC   C3A75221  40.733  36.174   7.050
 9261POPC   C4A75222  40.821  36.099   7.350
 9261POPC   C1B75223  40.577  36.326   6.450
 9261POPC   C2B75224  40.589  36.257   6.750
 9261POPC   C3B75225  40.575  36.306   7.050
 9261POPC   C4B75226  40.582  36.235   7.350
 9262POPC   NC375227  10.549  29.145   5.550
 9262POPC   PO475228  10.573  29.171   5.850
 9262POPC   GL175229  10.478  29.099   6.150
 9262POPC   GL275230  10.519  29.249   6.150
 9262POPC   C1A75231  10.513  29.127   6.450
 9262POPC   D2A75232  10.479  29.126   6.750
 9262POPC   C3A75233  10.521  29.116   7.050
 9262POPC   C4A75234  10.512  29.136   7.350
 9262POPC   C1B75235  10.501  29.371   6.450
 9262POPC   C2B75236  10.471  29.383   6.750
 9262POPC   C3B75237  10.453  29.341   7.050
 9262POPC   C4B75238  10.504  29.354   7.350
 9263POPC   NC375239   9.748  37.651   5.550
 9263POPC   PO475240   9.747  37.697   5.850
 9263POPC   GL175241   9.745  37.729   6.150
 9263POPC   GL275242   9.622  37.696   6.150
 9263POPC   C1A75243   9.731  37.679   6.450
 9263POPC   D2A75244   9.708  37.681   6.750
 9263POPC   C3A75245   9.752  37.672   7.050
 9263POPC   C4A75246   9.796  37.724   7.350
 9263POPC   C1B75247   9.547  37.709   6.450
 9263POPC   C2B75248   9.488  37.698   6.750
 9263POPC   C3B75249   9.538  37.684   7.050
 9263POPC   C4B75250   9.498  37.687   7.350
 9264POPC   NC375251  20.616   4.346   5.550
 9264POPC   PO475252  20.591   4.275   5.850
 9264POPC   GL175253  20.644   4.346   6.150
 9264POPC   GL275254  20.690   4.340   6.150
 9264POPC   C1A75255  20.563   4.305   6.450
 9264POPC   D2A75256  20.567   4.281   6.750
 9264POPC   C3A75257  20.653   4.340   7.050
 9264POPC   C4A75258  20.646   4.315   7.350
 9264POPC   C1B75259  20.844   4.298   6.450
 9264POPC   C2B75260  20.815   4.296   6.750
 9264POPC   C3B75261  20.908   4.338   7.050
 9264POPC   C4B75262  20.871   4.365   7.350
 9265POPC   NC375263  37.705  36.870   5.550
 9265POPC   PO475264  37.635  36.950   5.850
 9265POPC   GL175265  37.682  36.931   6.150
 9265POPC   GL275266  37.759  37.022   6.150
 9265POPC   C1A75267  37.729  36.925   6.450
 9265POPC   D2A75268  37.714  36.887   6.750
 9265POPC   C3A75269  37.642  36.944   7.050
 9265POPC   C4A75270  37.718  36.884   7.350
 9265POPC   C1B75271  37.754  37.182   6.450
 9265POPC   C2B75272  37.721  37.116   6.750
 9265POPC   C3B75273  37.730  37.183   7.050
 9265POPC   C4B75274  37.782  37.110   7.350
 9266POPC   NC375275   1.945  25.280   5.550
 9266POPC   PO475276   1.942  25.217   5.850
 9266POPC   GL175277   2.020  25.303   6.150
 9266POPC   GL275278   1.964  25.343   6.150
 9266POPC   C1A75279   1.959  25.240   6.450
 9266POPC   D2A75280   1.981  25.226   6.750
 9266POPC   C3A75281   2.015  25.271   7.050
 9266POPC   C4A75282   1.958  25.268   7.350
 9266POPC   C1B75283   1.890  25.493   6.450
 9266POPC   C2B75284   1.886  25.499   6.750
 9266POPC   C3B75285   1.887  25.469   7.050
 9266POPC   C4B75286   1.863  25.507   7.350
 9267POPC   NC375287  12.086  19.063   5.550
 9267POPC   PO475288  12.098  19.053   5.850
 9267POPC   GL175289  12.089  19.055   6.150
 9267POPC   GL275290  12.027  18.909   6.150
 9267POPC   C1A75291  12.042  19.076   6.450
 9267POPC   D2A75292  12.120  19.037   6.750
 9267POPC   C3A75293  12.125  19.029   7.050
 9267POPC   C4A75294  12.084  19.096   7.350
 9267POPC   C1B75295  11.940  18.844   6.450
 9267POPC   C2B75296  11.933  18.821   6.750
 9267POPC   C3B75297  11.917  18.894   7.050
 9267POPC   C4B75298  11.915  18.866   7.350
 9268POPC   NC375299   5.847   8.971   5.550
 9268POPC   PO475300   5.887   8.985   5.850
 9268POPC   GL175301   5.881   9.019   6.150
 9268POPC   GL275302   5.766   9.113   6.150
 9268POPC   C1A75303   5.871   8.998   6.450
 9268POPC   D2A75304   5.854   8.977   6.750
 9268POPC   C3A75305   5.902   8.981   7.050
 9268POPC   C4A75306   5.849   9.000   7.350
 9268POPC   C1B75307   5.708   9.175   6.450
 9268POPC   C2B75308   5.746   9.171   6.750
 9268POPC   C3B75309   5.719   9.109   7.050
 9268POPC   C4B75310   5.682   9.169   7.350
 9269POPC   NC375311  15.137  34.625   5.550
 9269POPC   PO475312  15.164  34.548   5.850
 9269POPC   GL175313  15.136  34.613   6.150
 9269POPC   GL275314  15.043  34.471   6.150
 9269POPC   C1A75315  15.172  34.610   6.450
 9269POPC   D2A75316  15.144  34.553   6.750
 9269POPC   C3A75317  15.170  34.533   7.050
 9269POPC   C4A75318  15.227  34.623   7.350
 9269POPC   C1B75319  14.972  34.459   6.450
 9269POPC   C2B75320  15.007  34.403   6.750
 9269POPC   C3B75321  15.021  34.439   7.050
 9269POPC   C4B75322  14.958  34.377   7.350
 9270POPC   NC375323  30.662  33.795   5.550
 9270POPC   PO475324  30.688  33.756   5.850
 9270POPC   GL175325  30.707  33.816   6.150
 9270POPC   GL275326  30.594  33.892   6.150
 9270POPC   C1A75327  30.678  33.802   6.450
 9270POPC   D2A75328  30.743  33.782   6.750
 9270POPC   C3A75329  30.651  33.835   7.050
 9270POPC   C4A75330  30.735  33.785   7.350
 9270POPC   C1B75331  30.583  34.011   6.450
 9270POPC   C2B75332  30.611  33.983   6.750
 9270POPC   C3B75333  30.541  34.052   7.050
 9270POPC   C4B75334  30.583  33.982   7.350
 9271POPC   NC375335   8.932  41.564   5.550
 9271POPC   PO475336   9.012  41.535   5.850
 9271POPC   GL175337   8.994  41.594   6.150
 9271POPC   GL275338   9.049  41.472   6.150
 9271POPC   C1A75339   9.015  41.578   6.450
 9271POPC   D2A75340   8.938  41.568   6.750
 9271POPC   C3A75341   8.965  41.515   7.050
 9271POPC   C4A75342   8.939  41.557   7.350
 9271POPC   C1B75343   9.038  41.312   6.450
 9271POPC   C2B75344   9.083  41.319   6.750
 9271POPC   C3B75345   9.043  41.363   7.050
 9271POPC   C4B75346   9.044  41.318   7.350
 9272POPC   NC375347  13.672  29.157   5.550
 9272POPC   PO475348  13.589  29.169   5.850
 9272POPC   GL175349  13.669  29.165   6.150
 9272POPC   GL275350  13.730  29.208   6.150
 9272POPC   C1A75351  13.637  29.095   6.450
 9272POPC   D2A75352  13.642  29.107   6.750
 9272POPC   C3A75353  13.578  29.111   7.050
 9272POPC   C4A75354  13.670  29.149   7.350
 9272POPC   C1B75355  13.773  29.316   6.450
 9272POPC   C2B75356  13.753  29.375   6.750
 9272POPC   C3B75357  13.812  29.369   7.050
 9272POPC   C4B75358  13.813  29.376   7.350
 9273POPC   NC375359  26.017  37.729   5.550
 9273POPC   PO475360  26.074  37.699   5.850
 9273POPC   GL175361  26.004  37.666   6.150
 9273POPC   GL275362  26.094  37.631   6.150
 9273POPC   C1A75363  26.054  37.713   6.450
 9273POPC   D2A75364  26.081  37.687   6.750
 9273POPC   C3A75365  26.074  37.633   7.050
 9273POPC   C4A75366  26.039  37.699   7.350
 9273POPC   C1B75367  26.210  37.514   6.450
 9273POPC   C2B75368  26.200  37.562   6.750
 9273POPC   C3B75369  26.191  37.543   7.050
 9273POPC   C4B75370  26.228  37.527   7.350
 9274POPC   NC375371  29.162   7.448   5.550
 9274POPC   PO475372  29.151   7.452   5.850
 9274POPC   GL175373  29.121   7.448   6.150
 9274POPC   GL275374  29.231   7.298   6.150
 9274POPC   C1A75375  29.103   7.414   6.450
 9274POPC   D2A75376  29.117   7.399   6.750
 9274POPC   C3A75377  29.178   7.380   7.050
 9274POPC   C4A75378  29.131   7.417   7.350
 9274POPC   C1B75379  29.292   7.262   6.450
 9274POPC   C2B75380  29.352   7.259   6.750
 9274POPC   C3B75381  29.320   7.201   7.050
 9274POPC   C4B75382  29.326   7.283   7.350
 9275POPC   NC375383  20.626  42.336   5.550
 9275POPC   PO475384  20.604  42.307   5.850
 9275POPC   GL175385  20.611  42.332   6.150
 9275POPC   GL275386  20.499  42.322   6.150
 9275POPC   C1A75387  20.590  42.326   6.450
 9275POPC   D2A75388  20.619  42.369   6.750
 9275POPC   C3A75389  20.604  42.350   7.050
 9275POPC   C4A75390  20.649  42.299   7.350
 9275POPC   C1B75391  20.402  42.215   6.450
 9275POPC   C2B75392  20.376  42.242   6.750
 9275POPC   C3B75393  20.330  42.210   7.050
 9275POPC   C4B75394  20.346  42.210   7.350
 9276POPC   NC375395  22.114  25.315   5.550
 9276POPC   PO475396  22.194  25.226   5.850
 9276POPC   GL175397  22.142  25.256   6.150
 9276POPC   GL275398  22.272  25.275   6.150
 9276POPC   C1A75399  22.211  25.304   6.450
 9276POPC   D2A75400  22.195  25.258   6.750
 9276POPC   C3A75401  22.191  25.259   7.050
 9276POPC   C4A75402  22.117  25.259   7.350
 9276POPC   C1B75403  22.434  25.396   6.450
 9276POPC   C2B75404  22.356  25.391   6.750
 9276POPC   C3B75405  22.394  25.389   7.050
 9276POPC   C4B75406  22.400  25.375   7.350
 9277POPC   NC375407  43.116   2.799   5.550
 9277POPC   PO475408  43.118   2.782   5.850
 9277POPC   GL175409  43.147   2.775   6.150
 9277POPC   GL275410  43.040   2.600   6.150
 9277POPC   C1A75411  43.095   2.796   6.450
 9277POPC   D2A75412  43.141   2.751   6.750
 9277POPC   C3A75413  43.079   2.812   7.050
 9277POPC   C4A75414  43.069   2.718   7.350
 9277POPC   C1B75415  43.055   2.474   6.450
 9277POPC   C2B75416  43.081   2.495   6.750
 9277POPC   C3B75417  43.069   2.496   7.050
 9277POPC   C4B75418  43.032   2.540   7.350
 9278POPC   NC375419   4.338  17.475   5.550
 9278POPC   PO475420   4.322  17.531   5.850
 9278POPC   GL175421   4.342  17.497   6.150
 9278POPC   GL275422   4.404  17.407   6.150
 9278POPC   C1A75423   4.273  17.524   6.450
 9278POPC   D2A75424   4.279  17.487   6.750
 9278POPC   C3A75425   4.322  17.500   7.050
 9278POPC   C4A75426   4.314  17.464   7.350
 9278POPC   C1B75427   4.455  17.334   6.450
 9278POPC   C2B75428   4.461  17.297   6.750
 9278POPC   C3B75429   4.401  17.284   7.050
 9278POPC   C4B75430   4.442  17.324   7.350
 9279POPC   NC375431   0.463  19.085   5.550
 9279POPC   PO475432   0.427  19.078   5.850
 9279POPC   GL175433   0.448  19.080   6.150
 9279POPC   GL275434   0.508  19.057   6.150
 9279POPC   C1A75435   0.436  19.053   6.450
 9279POPC   D2A75436   0.394  19.026   6.750
 9279POPC   C3A75437   0.417  19.102   7.050
 9279POPC   C4A75438   0.397  19.107   7.350
 9279POPC   C1B75439   0.689  19.142   6.450
 9279POPC   C2B75440   0.623  19.131   6.750
 9279POPC   C3B75441   0.624  19.143   7.050
 9279POPC   C4B75442   0.718  19.120   7.350
 9280POPC   NC375443  29.121  32.253   5.550
 9280POPC   PO475444  29.096  32.292   5.850
 9280POPC   GL175445  29.147  32.260   6.150
 9280POPC   GL275446  29.043  32.153   6.150
 9280POPC   C1A75447  29.100  32.266   6.450
 9280POPC   D2A75448  29.188  32.253   6.750
 9280POPC   C3A75449  29.128  32.276   7.050
 9280POPC   C4A75450  29.163  32.252   7.350
 9280POPC   C1B75451  29.018  32.097   6.450
 9280POPC   C2B75452  29.015  32.048   6.750
 9280POPC   C3B75453  29.012  32.037   7.050
 9280POPC   C4B75454  28.978  32.024   7.350
 9281POPC   NC375455  43.889  15.154   5.550
 9281POPC   PO475456  43.861  15.181   5.850
 9281POPC   GL175457  43.869  15.189   6.150
 9281POPC   GL275458  43.974  15.057   6.150
 9281POPC   C1A75459  43.868  15.205   6.450
 9281POPC   D2A75460  43.912  15.201   6.750
 9281POPC   C3A75461  43.859  15.158   7.050
 9281POPC   C4A75462  43.887  15.203   7.350
 9281POPC   C1B75463  44.095  15.034   6.450
 9281POPC   C2B75464  44.122  15.046   6.750
 9281POPC   C3B75465  44.041  14.997   7.050
 9281POPC   C4B75466  44.088  15.011   7.350
 9282POPC   NC375467   5.071  12.813   5.550
 9282POPC   PO475468   5.128  12.864   5.850
 9282POPC   GL175469   5.103  12.805   6.150
 9282POPC   GL275470   5.042  12.707   6.150
 9282POPC   C1A75471   5.128  12.812   6.450
 9282POPC   D2A75472   5.063  12.859   6.750
 9282POPC   C3A75473   5.076  12.884   7.050
 9282POPC   C4A75474   5.076  12.817   7.350
 9282POPC   C1B75475   4.963  12.594   6.450
 9282POPC   C2B75476   5.016  12.602   6.750
 9282POPC   C3B75477   4.982  12.627   7.050
 9282POPC   C4B75478   4.918  12.611   7.350
 9283POPC   NC375479  36.937   0.472   5.550
 9283POPC   PO475480  36.951   0.410   5.850
 9283POPC   GL175481  36.889   0.401   6.150
 9283POPC   GL275482  36.932   0.294   6.150
 9283POPC   C1A75483  36.938   0.409   6.450
 9283POPC   D2A75484  36.878   0.448   6.750
 9283POPC   C3A75485  36.868   0.476   7.050
 9283POPC   C4A75486  36.859   0.470   7.350
 9283POPC   C1B75487  36.853   0.159   6.450
 9283POPC   C2B75488  36.924   0.171   6.750
 9283POPC   C3B75489  36.887   0.219   7.050
 9283POPC   C4B75490  36.945   0.159   7.350
 9284POPC   NC375491  41.578  43.888   5.550
 9284POPC   PO475492  41.516  43.897   5.850
 9284POPC   GL175493  41.574  43.883   6.150
 9284POPC   GL275494  41.708  43.985   6.150
 9284POPC   C1A75495  41.602  43.871   6.450
 9284POPC   D2A75496  41.545  43.848   6.750
 9284POPC   C3A75497  41.560  43.869   7.050
 9284POPC   C4A75498  41.548  43.916   7.350
 9284POPC   C1B75499  41.724  44.027   6.450
 9284POPC   C2B75500  41.805  44.008   6.750
 9284POPC   C3B75501  41.769  43.990   7.050
 9284POPC   C4B75502  41.790  43.980   7.350
 9285POPC   NC375503  33.848  13.631   5.550
 9285POPC   PO475504  33.795  13.645   5.850
 9285POPC   GL175505  33.793  13.604   6.150
 9285POPC   GL275506  33.925  13.624   6.150
 9285POPC   C1A75507  33.787  13.676   6.450
 9285POPC   D2A75508  33.753  13.579   6.750
 9285POPC   C3A75509  33.795  13.662   7.050
 9285POPC   C4A75510  33.751  13.648   7.350
 9285POPC   C1B75511  34.079  13.579   6.450
 9285POPC   C2B75512  34.039  13.556   6.750
 9285POPC   C3B75513  33.991  13.540   7.050
 9285POPC   C4B75514  33.996  13.511   7.350
 9286POPC   NC375515   1.952  26.848   5.550
 9286POPC   PO475516   2.001  26.782   5.850
 9286POPC   GL175517   2.031  26.842   6.150
 9286POPC   GL275518   2.101  26.756   6.150
 9286POPC   C1A75519   1.946  26.792   6.450
 9286POPC   D2A75520   1.997  26.836   6.750
 9286POPC   C3A75521   2.002  26.799   7.050
 9286POPC   C4A75522   1.962  26.822   7.350
 9286POPC   C1B75523   2.256  26.762   6.450
 9286POPC   C2B75524   2.262  26.800   6.750
 9286POPC   C3B75525   2.263  26.784   7.050
 9286POPC   C4B75526   2.277  26.822   7.350
 9287POPC   NC375527  36.885  29.180   5.550
 9287POPC   PO475528  36.902  29.134   5.850
 9287POPC   GL175529  36.879  29.130   6.150
 9287POPC   GL275530  36.845  29.022   6.150
 9287POPC   C1A75531  36.917  29.190   6.450
 9287POPC   D2A75532  36.953  29.188   6.750
 9287POPC   C3A75533  36.943  29.190   7.050
 9287POPC   C4A75534  36.919  29.114   7.350
 9287POPC   C1B75535  36.776  28.914   6.450
 9287POPC   C2B75536  36.790  28.946   6.750
 9287POPC   C3B75537  36.806  28.875   7.050
 9287POPC   C4B75538  36.855  28.925   7.350
 9288POPC   NC375539  44.665  10.519   5.550
 9288POPC   PO475540  44.633  10.485   5.850
 9288POPC   GL175541  44.670  10.503   6.150
 9288POPC   GL275542  44.499  10.464   6.150
 9288POPC   C1A75543  44.696  10.510   6.450
 9288POPC   D2A75544  44.672  10.530   6.750
 9288POPC   C3A75545  44.653  10.477   7.050
 9288POPC   C4A75546  44.639  10.565   7.350
 9288POPC   C1B75547  44.405  10.419   6.450
 9288POPC   C2B75548  44.455  10.486   6.750
 9288POPC   C3B75549  44.461  10.502   7.050
 9288POPC   C4B75550  44.418  10.466   7.350
 9289POPC   NC375551  36.104  17.508   5.550
 9289POPC   PO475552  36.151  17.522   5.850
 9289POPC   GL175553  36.132  17.483   6.150
 9289POPC   GL275554  36.060  17.608   6.150
 9289POPC   C1A75555  36.101  17.522   6.450
 9289POPC   D2A75556  36.147  17.506   6.750
 9289POPC   C3A75557  36.139  17.475   7.050
 9289POPC   C4A75558  36.136  17.520   7.350
 9289POPC   C1B75559  35.948  17.712   6.450
 9289POPC   C2B75560  35.936  17.687   6.750
 9289POPC   C3B75561  35.970  17.688   7.050
 9289POPC   C4B75562  35.912  17.649   7.350
 9290POPC   NC375563  29.948  12.823   5.550
 9290POPC   PO475564  29.899  12.834   5.850
 9290POPC   GL175565  29.962  12.811   6.150
 9290POPC   GL275566  29.773  12.921   6.150
 9290POPC   C1A75567  29.921  12.884   6.450
 9290POPC   D2A75568  29.887  12.823   6.750
 9290POPC   C3A75569  29.891  12.840   7.050
 9290POPC   C4A75570  29.962  12.869   7.350
 9290POPC   C1B75571  29.705  12.958   6.450
 9290POPC   C2B75572  29.694  12.943   6.750
 9290POPC   C3B75573  29.672  12.950   7.050
 9290POPC   C4B75574  29.679  12.931   7.350
 9291POPC   NC375575  42.368   2.749   5.550
 9291POPC   PO475576  42.384   2.742   5.850
 9291POPC   GL175577  42.337   2.745   6.150
 9291POPC   GL275578  42.408   2.851   6.150
 9291POPC   C1A75579  42.286   2.742   6.450
 9291POPC   D2A75580  42.325   2.789   6.750
 9291POPC   C3A75581  42.322   2.785   7.050
 9291POPC   C4A75582  42.330   2.790   7.350
 9291POPC   C1B75583  42.517   2.985   6.450
 9291POPC   C2B75584  42.501   3.013   6.750
 9291POPC   C3B75585  42.419   2.981   7.050
 9291POPC   C4B75586  42.436   2.988   7.350
 9292POPC   NC375587  30.711  36.107   5.550
 9292POPC   PO475588  30.651  36.140   5.850
 9292POPC   GL175589  30.682  36.158   6.150
 9292POPC   GL275590  30.849  36.180   6.150
 9292POPC   C1A75591  30.657  36.097   6.450
 9292POPC   D2A75592  30.684  36.117   6.750
 9292POPC   C3A75593  30.671  36.169   7.050
 9292POPC   C4A75594  30.672  36.130   7.350
 9292POPC   C1B75595  30.892  36.241   6.450
 9292POPC   C2B75596  30.891  36.194   6.750
 9292POPC   C3B75597  30.924  36.241   7.050
 9292POPC   C4B75598  30.902  36.196   7.350
 9293POPC   NC375599   7.452   6.678   5.550
 9293POPC   PO475600   7.447   6.602   5.850
 9293POPC   GL175601   7.445   6.625   6.150
 9293POPC   GL275602   7.336   6.634   6.150
 9293POPC   C1A75603   7.439   6.650   6.450
 9293POPC   D2A75604   7.407   6.691   6.750
 9293POPC   C3A75605   7.414   6.651   7.050
 9293POPC   C4A75606   7.406   6.650   7.350
 9293POPC   C1B75607   7.215   6.675   6.450
 9293POPC   C2B75608   7.186   6.692   6.750
 9293POPC   C3B75609   7.205   6.683   7.050
 9293POPC   C4B75610   7.168   6.670   7.350
 9294POPC   NC375611  19.790  30.688   5.550
 9294POPC   PO475612  19.855  30.736   5.850
 9294POPC   GL175613  19.884  30.711   6.150
 9294POPC   GL275614  19.979  30.602   6.150
 9294POPC   C1A75615  19.847  30.668   6.450
 9294POPC   D2A75616  19.791  30.654   6.750
 9294POPC   C3A75617  19.852  30.713   7.050
 9294POPC   C4A75618  19.798  30.658   7.350
 9294POPC   C1B75619  20.067  30.563   6.450
 9294POPC   C2B75620  20.011  30.577   6.750
 9294POPC   C3B75621  20.061  30.562   7.050
 9294POPC   C4B75622  20.008  30.575   7.350
 9295POPC   NC375623   6.692   9.728   5.550
 9295POPC   PO475624   6.669   9.771   5.850
 9295POPC   GL175625   6.643   9.716   6.150
 9295POPC   GL275626   6.789   9.764   6.150
 9295POPC   C1A75627   6.624   9.701   6.450
 9295POPC   D2A75628   6.694   9.749   6.750
 9295POPC   C3A75629   6.640   9.754   7.050
 9295POPC   C4A75630   6.662   9.728   7.350
 9295POPC   C1B75631   6.893   9.640   6.450
 9295POPC   C2B75632   6.886   9.656   6.750
 9295POPC   C3B75633   6.884   9.657   7.050
 9295POPC   C4B75634   6.913   9.690   7.350
 9296POPC   NC375635  11.311  33.778   5.550
 9296POPC   PO475636  11.275  33.752   5.850
 9296POPC   GL175637  11.284  33.846   6.150
 9296POPC   GL275638  11.323  33.931   6.150
 9296POPC   C1A75639  11.308  33.757   6.450
 9296POPC   D2A75640  11.303  33.792   6.750
 9296POPC   C3A75641  11.299  33.839   7.050
 9296POPC   C4A75642  11.272  33.807   7.350
 9296POPC   C1B75643  11.443  34.007   6.450
 9296POPC   C2B75644  11.437  34.019   6.750
 9296POPC   C3B75645  11.487  34.023   7.050
 9296POPC   C4B75646  11.483  33.993   7.350
 9297POPC   NC375647  36.148  26.803   5.550
 9297POPC   PO475648  36.143  26.816   5.850
 9297POPC   GL175649  36.109  26.769   6.150
 9297POPC   GL275650  36.268  26.915   6.150
 9297POPC   C1A75651  36.118  26.784   6.450
 9297POPC   D2A75652  36.135  26.783   6.750
 9297POPC   C3A75653  36.142  26.839   7.050
 9297POPC   C4A75654  36.086  26.790   7.350
 9297POPC   C1B75655  36.336  26.916   6.450
 9297POPC   C2B75656  36.369  26.961   6.750
 9297POPC   C3B75657  36.319  26.897   7.050
 9297POPC   C4B75658  36.379  26.954   7.350
 9298POPC   NC375659  20.596   7.445   5.550
 9298POPC   PO475660  20.639   7.410   5.850
 9298POPC   GL175661  20.598   7.458   6.150
 9298POPC   GL275662  20.683   7.281   6.150
 9298POPC   C1A75663  20.597   7.430   6.450
 9298POPC   D2A75664  20.612   7.462   6.750
 9298POPC   C3A75665  20.643   7.399   7.050
 9298POPC   C4A75666  20.608   7.395   7.350
 9298POPC   C1B75667  20.812   7.220   6.450
 9298POPC   C2B75668  20.794   7.278   6.750
 9298POPC   C3B75669  20.736   7.284   7.050
 9298POPC   C4B75670  20.733   7.207   7.350
 9299POPC   NC375671  31.500   8.936   5.550
 9299POPC   PO475672  31.482   8.979   5.850
 9299POPC   GL175673  31.482   8.955   6.150
 9299POPC   GL275674  31.503   9.047   6.150
 9299POPC   C1A75675  31.465   8.954   6.450
 9299POPC   D2A75676  31.486   8.941   6.750
 9299POPC   C3A75677  31.509   8.999   7.050
 9299POPC   C4A75678  31.444   9.003   7.350
 9299POPC   C1B75679  31.398   9.268   6.450
 9299POPC   C2B75680  31.434   9.176   6.750
 9299POPC   C3B75681  31.456   9.266   7.050
 9299POPC   C4B75682  31.462   9.223   7.350
 9300POPC   NC375683  19.057  30.673   5.550
 9300POPC   PO475684  19.081  30.647   5.850
 9300POPC   GL175685  19.098  30.745   6.150
 9300POPC   GL275686  18.937  30.589   6.150
 9300POPC   C1A75687  19.082  30.746   6.450
 9300POPC   D2A75688  19.100  30.683   6.750
 9300POPC   C3A75689  19.012  30.712   7.050
 9300POPC   C4A75690  19.014  30.647   7.350
 9300POPC   C1B75691  18.860  30.572   6.450
 9300POPC   C2B75692  18.810  30.546   6.750
 9300POPC   C3B75693  18.903  30.517   7.050
 9300POPC   C4B75694  18.841  30.586   7.350
 9301POPC   NC375695   2.007  12.895   5.550
 9301POPC   PO475696   1.989  12.865   5.850
 9301POPC   GL175697   2.017  12.898   6.150
 9301POPC   GL275698   1.881  12.921   6.150
 9301POPC   C1A75699   1.970  12.883   6.450
 9301POPC   D2A75700   2.020  12.892   6.750
 9301POPC   C3A75701   1.993  12.807   7.050
 9301POPC   C4A75702   1.955  12.832   7.350
 9301POPC   C1B75703   1.748  13.057   6.450
 9301POPC   C2B75704   1.783  12.984   6.750
 9301POPC   C3B75705   1.841  13.005   7.050
 9301POPC   C4B75706   1.810  13.007   7.350
 9302POPC   NC375707  44.684   5.141   5.550
 9302POPC   PO475708  44.618   5.074   5.850
 9302POPC   GL175709  44.664   5.059   6.150
 9302POPC   GL275710  44.639   4.926   6.150
 9302POPC   C1A75711  44.656   5.138   6.450
 9302POPC   D2A75712  44.618   5.053   6.750
 9302POPC   C3A75713  44.654   5.123   7.050
 9302POPC   C4A75714  44.663   5.122   7.350
 9302POPC   C1B75715  44.605   4.840   6.450
 9302POPC   C2B75716  44.621   4.824   6.750
 9302POPC   C3B75717  44.553   4.832   7.050
 9302POPC   C4B75718  44.623   4.897   7.350
 9303POPC   NC375719  17.490  44.669   5.550
 9303POPC   PO475720  17.534  44.691   5.850
 9303POPC   GL175721  17.485  44.633   6.150
 9303POPC   GL275722  17.645  44.571   6.150
 9303POPC   C1A75723  17.535  44.626   6.450
 9303POPC   D2A75724  17.479  44.653   6.750
 9303POPC   C3A75725  17.459  44.711   7.050
 9303POPC   C4A75726  17.535  44.618   7.350
 9303POPC   C1B75727  17.769  44.510   6.450
 9303POPC   C2B75728  17.725  44.539   6.750
 9303POPC   C3B75729  17.741  44.522   7.050
 9303POPC   C4B75730  17.726  44.535   7.350
 9304POPC   NC375731   2.788  36.080   5.550
 9304POPC   PO475732   2.776  36.149   5.850
 9304POPC   GL175733   2.796  36.115   6.150
 9304POPC   GL275734   2.633  36.114   6.150
 9304POPC   C1A75735   2.716  36.174   6.450
 9304POPC   D2A75736   2.783  36.102   6.750
 9304POPC   C3A75737   2.791  36.156   7.050
 9304POPC   C4A75738   2.754  36.116   7.350
 9304POPC   C1B75739   2.529  36.031   6.450
 9304POPC   C2B75740   2.519  36.080   6.750
 9304POPC   C3B75741   2.480  36.124   7.050
 9304POPC   C4B75742   2.491  36.090   7.350
 9305POPC   NC375743  20.576  43.875   5.550
 9305POPC   PO475744  20.648  43.880   5.850
 9305POPC   GL175745  20.626  43.850   6.150
 9305POPC   GL275746  20.723  43.972   6.150
 9305POPC   C1A75747  20.608  43.916   6.450
 9305POPC   D2A75748  20.641  43.846   6.750
 9305POPC   C3A75749  20.582  43.925   7.050
 9305POPC   C4A75750  20.584  43.869   7.350
 9305POPC   C1B75751  20.783  44.097   6.450
 9305POPC   C2B75752  20.794  44.111   6.750
 9305POPC   C3B75753  20.722  44.070   7.050
 9305POPC   C4B75754  20.716  44.065   7.350
 9306POPC   NC375755  40.743  15.206   5.550
 9306POPC   PO475756  40.832  15.217   5.850
 9306POPC   GL175757  40.810  15.178   6.150
 9306POPC   GL275758  40.769  15.278   6.150
 9306POPC   C1A75759  40.801  15.199   6.450
 9306POPC   D2A75760  40.778  15.199   6.750
 9306POPC   C3A75761  40.814  15.208   7.050
 9306POPC   C4A75762  40.799  15.202   7.350
 9306POPC   C1B75763  40.818  15.454   6.450
 9306POPC   C2B75764  40.826  15.406   6.750
 9306POPC   C3B75765  40.798  15.438   7.050
 9306POPC   C4B75766  40.772  15.455   7.350
 9307POPC   NC375767  27.630   8.943   5.550
 9307POPC   PO475768  27.638   9.021   5.850
 9307POPC   GL175769  27.588   8.946   6.150
 9307POPC   GL275770  27.627   9.128   6.150
 9307POPC   C1A75771  27.545   8.961   6.450
 9307POPC   D2A75772  27.583   8.993   6.750
 9307POPC   C3A75773  27.613   8.949   7.050
 9307POPC   C4A75774  27.603   9.000   7.350
 9307POPC   C1B75775  27.683   9.219   6.450
 9307POPC   C2B75776  27.634   9.203   6.750
 9307POPC   C3B75777  27.663   9.180   7.050
 9307POPC   C4B75778  27.608   9.244   7.350
 9308POPC   NC375779  18.245   9.005   5.550
 9308POPC   PO475780  18.253   8.970   5.850
 9308POPC   GL175781  18.290   8.961   6.150
 9308POPC   GL275782  18.109   9.015   6.150
 9308POPC   C1A75783  18.271   8.969   6.450
 9308POPC   D2A75784  18.250   8.939   6.750
 9308POPC   C3A75785  18.271   8.995   7.050
 9308POPC   C4A75786  18.247   9.015   7.350
 9308POPC   C1B75787  17.996   9.003   6.450
 9308POPC   C2B75788  17.995   9.023   6.750
 9308POPC   C3B75789  17.994   9.030   7.050
 9308POPC   C4B75790  18.051   8.977   7.350
 9309POPC   NC375791   2.735  33.050   5.550
 9309POPC   PO475792   2.749  33.044   5.850
 9309POPC   GL175793   2.811  33.008   6.150
 9309POPC   GL275794   2.816  33.128   6.150
 9309POPC   C1A75795   2.793  32.999   6.450
 9309POPC   D2A75796   2.781  32.988   6.750
 9309POPC   C3A75797   2.805  33.017   7.050
 9309POPC   C4A75798   2.762  33.054   7.350
 9309POPC   C1B75799   2.922  33.216   6.450
 9309POPC   C2B75800   2.963  33.186   6.750
 9309POPC   C3B75801   2.904  33.239   7.050
 9309POPC   C4B75802   2.935  33.205   7.350
 9310POPC   NC375803   2.746  12.841   5.550
 9310POPC   PO475804   2.812  12.803   5.850
 9310POPC   GL175805   2.737  12.823   6.150
 9310POPC   GL275806   2.720  12.729   6.150
 9310POPC   C1A75807   2.762  12.808   6.450
 9310POPC   D2A75808   2.750  12.898   6.750
 9310POPC   C3A75809   2.731  12.852   7.050
 9310POPC   C4A75810   2.813  12.889   7.350
 9310POPC   C1B75811   2.625  12.596   6.450
 9310POPC   C2B75812   2.674  12.577   6.750
 9310POPC   C3B75813   2.676  12.582   7.050
 9310POPC   C4B75814   2.708  12.638   7.350
 9311POPC   NC375815   9.714  14.444   5.550
 9311POPC   PO475816   9.730  14.381   5.850
 9311POPC   GL175817   9.709  14.432   6.150
 9311POPC   GL275818   9.705  14.315   6.150
 9311POPC   C1A75819   9.720  14.418   6.450
 9311POPC   D2A75820   9.777  14.450   6.750
 9311POPC   C3A75821   9.716  14.434   7.050
 9311POPC   C4A75822   9.751  14.453   7.350
 9311POPC   C1B75823   9.612  14.211   6.450
 9311POPC   C2B75824   9.603  14.183   6.750
 9311POPC   C3B75825   9.619  14.198   7.050
 9311POPC   C4B75826   9.626  14.176   7.350
 9312POPC   NC375827  15.916   2.722   5.550
 9312POPC   PO475828  15.928   2.751   5.850
 9312POPC   GL175829  15.923   2.774   6.150
 9312POPC   GL275830  16.122   2.729   6.150
 9312POPC   C1A75831  15.988   2.722   6.450
 9312POPC   D2A75832  15.986   2.797   6.750
 9312POPC   C3A75833  15.999   2.749   7.050
 9312POPC   C4A75834  15.942   2.768   7.350
 9312POPC   C1B75835  16.171   2.750   6.450
 9312POPC   C2B75836  16.181   2.710   6.750
 9312POPC   C3B75837  16.191   2.686   7.050
 9312POPC   C4B75838  16.247   2.752   7.350
 9313POPC   NC375839  33.847  30.656   5.550
 9313POPC   PO475840  33.755  30.736   5.850
 9313POPC   GL175841  33.751  30.746   6.150
 9313POPC   GL275842  33.932  30.722   6.150
 9313POPC   C1A75843  33.796  30.690   6.450
 9313POPC   D2A75844  33.823  30.705   6.750
 9313POPC   C3A75845  33.759  30.707   7.050
 9313POPC   C4A75846  33.795  30.724   7.350
 9313POPC   C1B75847  33.999  30.776   6.450
 9313POPC   C2B75848  34.053  30.775   6.750
 9313POPC   C3B75849  34.012  30.836   7.050
 9313POPC   C4B75850  34.036  30.809   7.350
 9314POPC   NC375851  10.516  38.491   5.550
 9314POPC   PO475852  10.572  38.501   5.850
 9314POPC   GL175853  10.559  38.413   6.150
 9314POPC   GL275854  10.430  38.429   6.150
 9314POPC   C1A75855  10.526  38.491   6.450
 9314POPC   D2A75856  10.546  38.420   6.750
 9314POPC   C3A75857  10.498  38.504   7.050
 9314POPC   C4A75858  10.525  38.470   7.350
 9314POPC   C1B75859  10.274  38.360   6.450
 9314POPC   C2B75860  10.284  38.315   6.750
 9314POPC   C3B75861  10.265  38.393   7.050
 9314POPC   C4B75862  10.325  38.339   7.350
 9315POPC   NC375863  40.746  13.608   5.550
 9315POPC   PO475864  40.756  13.627   5.850
 9315POPC   GL175865  40.810  13.647   6.150
 9315POPC   GL275866  40.643  13.558   6.150
 9315POPC   C1A75867  40.737  13.635   6.450
 9315POPC   D2A75868  40.819  13.579   6.750
 9315POPC   C3A75869  40.822  13.606   7.050
 9315POPC   C4A75870  40.766  13.638   7.350
 9315POPC   C1B75871  40.568  13.566   6.450
 9315POPC   C2B75872  40.587  13.566   6.750
 9315POPC   C3B75873  40.556  13.554   7.050
 9315POPC   C4B75874  40.599  13.544   7.350
 9316POPC   NC375875  29.879   9.731   5.550
 9316POPC   PO475876  29.898   9.781   5.850
 9316POPC   GL175877  29.913   9.769   6.150
 9316POPC   GL275878  29.786   9.697   6.150
 9316POPC   C1A75879  29.886   9.788   6.450
 9316POPC   D2A75880  29.949   9.790   6.750
 9316POPC   C3A75881  29.934   9.787   7.050
 9316POPC   C4A75882  29.947   9.712   7.350
 9316POPC   C1B75883  29.660   9.600   6.450
 9316POPC   C2B75884  29.687   9.582   6.750
 9316POPC   C3B75885  29.659   9.594   7.050
 9316POPC   C4B75886  29.731   9.669   7.350
 9317POPC   NC375887   0.477  26.040   5.550
 9317POPC   PO475888   0.396  26.007   5.850
 9317POPC   GL175889   0.399  26.009   6.150
 9317POPC   GL275890   0.387  25.968   6.150
 9317POPC   C1A75891   0.389  26.060   6.450
 9317POPC   D2A75892   0.394  26.069   6.750
 9317POPC   C3A75893   0.402  26.044   7.050
 9317POPC   C4A75894   0.413  26.061   7.350
 9317POPC   C1B75895   0.321  25.845   6.450
 9317POPC   C2B75896   0.416  25.824   6.750
 9317POPC   C3B75897   0.377  25.847   7.050
 9317POPC   C4B75898   0.356  25.837   7.350
 9318POPC   NC375899  19.097   8.155   5.550
 9318POPC   PO475900  19.080   8.159   5.850
 9318POPC   GL175901  19.047   8.169   6.150
 9318POPC   GL275902  19.048   8.276   6.150
 9318POPC   C1A75903  19.064   8.243   6.450
 9318POPC   D2A75904  19.047   8.171   6.750
 9318POPC   C3A75905  19.049   8.234   7.050
 9318POPC   C4A75906  19.031   8.162   7.350
 9318POPC   C1B75907  18.956   8.452   6.450
 9318POPC   C2B75908  18.919   8.389   6.750
 9318POPC   C3B75909  18.955   8.384   7.050
 9318POPC   C4B75910  18.923   8.409   7.350
 9319POPC   NC375911   3.500  35.340   5.550
 9319POPC   PO475912   3.546  35.363   5.850
 9319POPC   GL175913   3.552  35.334   6.150
 9319POPC   GL275914   3.465  35.229   6.150
 9319POPC   C1A75915   3.561  35.355   6.450
 9319POPC   D2A75916   3.556  35.305   6.750
 9319POPC   C3A75917   3.569  35.331   7.050
 9319POPC   C4A75918   3.504  35.338   7.350
 9319POPC   C1B75919   3.484  35.104   6.450
 9319POPC   C2B75920   3.424  35.134   6.750
 9319POPC   C3B75921   3.447  35.080   7.050
 9319POPC   C4B75922   3.437  35.125   7.350
 9320POPC   NC375923  17.533   9.783   5.550
 9320POPC   PO475924  17.547   9.737   5.850
 9320POPC   GL175925  17.527   9.759   6.150
 9320POPC   GL275926  17.469   9.811   6.150
 9320POPC   C1A75927  17.479   9.792   6.450
 9320POPC   D2A75928  17.529   9.761   6.750
 9320POPC   C3A75929  17.525   9.790   7.050
 9320POPC   C4A75930  17.466   9.747   7.350
 9320POPC   C1B75931  17.415   9.955   6.450
 9320POPC   C2B75932  17.326   9.914   6.750
 9320POPC   C3B75933  17.397   9.933   7.050
 9320POPC   C4B75934  17.417   9.960   7.350
 9321POPC   NC375935  32.980   6.627   5.550
 9321POPC   PO475936  33.031   6.666   5.850
 9321POPC   GL175937  33.039   6.651   6.150
 9321POPC   GL275938  32.986   6.723   6.150
 9321POPC   C1A75939  32.982   6.651   6.450
 9321POPC   D2A75940  32.981   6.643   6.750
 9321POPC   C3A75941  33.007   6.633   7.050
 9321POPC   C4A75942  33.028   6.618   7.350
 9321POPC   C1B75943  33.025   6.877   6.450
 9321POPC   C2B75944  33.049   6.941   6.750
 9321POPC   C3B75945  33.037   6.911   7.050
 9321POPC   C4B75946  33.006   6.886   7.350
 9322POPC   NC375947  19.802  17.511   5.550
 9322POPC   PO475948  19.884  17.485   5.850
 9322POPC   GL175949  19.822  17.472   6.150
 9322POPC   GL275950  19.922  17.663   6.150
 9322POPC   C1A75951  19.855  17.534   6.450
 9322POPC   D2A75952  19.799  17.515   6.750
 9322POPC   C3A75953  19.883  17.529   7.050
 9322POPC   C4A75954  19.801  17.489   7.350
 9322POPC   C1B75955  19.996  17.729   6.450
 9322POPC   C2B75956  19.935  17.708   6.750
 9322POPC   C3B75957  19.934  17.694   7.050
 9322POPC   C4B75958  19.993  17.690   7.350
 9323POPC   NC375959   0.431   1.964   5.550
 9323POPC   PO475960   0.472   2.018   5.850
 9323POPC   GL175961   0.434   2.000   6.150
 9323POPC   GL275962   0.310   2.051   6.150
 9323POPC   C1A75963   0.446   1.965   6.450
 9323POPC   D2A75964   0.476   1.989   6.750
 9323POPC   C3A75965   0.400   2.000   7.050
 9323POPC   C4A75966   0.410   1.957   7.350
 9323POPC   C1B75967   0.254   2.118   6.450
 9323POPC   C2B75968   0.288   2.150   6.750
 9323POPC   C3B75969   0.269   2.148   7.050
 9323POPC   C4B75970   0.264   2.195   7.350
 9324POPC   NC375971  39.262  43.159   5.550
 9324POPC   PO475972  39.279  43.160   5.850
 9324POPC   GL175973  39.278  43.088   6.150
 9324POPC   GL275974  39.286  43.190   6.150
 9324POPC   C1A75975  39.197  43.094   6.450
 9324POPC   D2A75976  39.258  43.088   6.750
 9324POPC   C3A75977  39.270  43.095   7.050
 9324POPC   C4A75978  39.191  43.115   7.350
 9324POPC   C1B75979  39.378  43.332   6.450
 9324POPC   C2B75980  39.389  43.278   6.750
 9324POPC   C3B75981  39.440  43.271   7.050
 9324POPC   C4B75982  39.439  43.299   7.350
 9325POPC   NC375983  26.006  19.882   5.550
 9325POPC   PO475984  25.997  19.803   5.850
 9325POPC   GL175985  26.046  19.850   6.150
 9325POPC   GL275986  26.050  19.926   6.150
 9325POPC   C1A75987  26.006  19.786   6.450
 9325POPC   D2A75988  25.998  19.792   6.750
 9325POPC   C3A75989  26.021  19.864   7.050
 9325POPC   C4A75990  26.014  19.878   7.350
 9325POPC   C1B75991  26.150  20.080   6.450
 9325POPC   C2B75992  26.136  20.030   6.750
 9325POPC   C3B75993  26.119  20.113   7.050
 9325POPC   C4B75994  26.071  20.057   7.350
 9326POPC   NC375995  22.180   9.713   5.550
 9326POPC   PO475996  22.167   9.731   5.850
 9326POPC   GL175997  22.171   9.705   6.150
 9326POPC   GL275998  22.262   9.770   6.150
 9326POPC   C1A75999  22.128   9.736   6.450
 9326POPC   D2A76000  22.163   9.758   6.750
 9326POPC   C3A76001  22.114   9.753   7.050
 9326POPC   C4A76002  22.192   9.776   7.350
 9326POPC   C1B76003  22.403   9.771   6.450
 9326POPC   C2B76004  22.391   9.803   6.750
 9326POPC   C3B76005  22.365   9.775   7.050
 9326POPC   C4B76006  22.371   9.754   7.350
 9327POPC   NC376007  14.370  40.802   5.550
 9327POPC   PO476008  14.403  40.734   5.850
 9327POPC   GL176009  14.401  40.792   6.150
 9327POPC   GL276010  14.371  40.687   6.150
 9327POPC   C1A76011  14.375  40.774   6.450
 9327POPC   D2A76012  14.420  40.767   6.750
 9327POPC   C3A76013  14.447  40.824   7.050
 9327POPC   C4A76014  14.404  40.809   7.350
 9327POPC   C1B76015  14.396  40.568   6.450
 9327POPC   C2B76016  14.413  40.516   6.750
 9327POPC   C3B76017  14.418  40.553   7.050
 9327POPC   C4B76018  14.423  40.483   7.350
 9328POPC   NC376019  12.036  30.718   5.550
 9328POPC   PO476020  12.089  30.678   5.850
 9328POPC   GL176021  12.102  30.734   6.150
 9328POPC   GL276022  11.997  30.735   6.150
 9328POPC   C1A76023  12.076  30.729   6.450
 9328POPC   D2A76024  12.098  30.689   6.750
 9328POPC   C3A76025  12.028  30.676   7.050
 9328POPC   C4A76026  12.125  30.731   7.350
 9328POPC   C1B76027  11.899  30.826   6.450
 9328POPC   C2B76028  11.865  30.823   6.750
 9328POPC   C3B76029  11.936  30.858   7.050
 9328POPC   C4B76030  11.876  30.911   7.350
 9329POPC   NC376031  35.311  10.543   5.550
 9329POPC   PO476032  35.325  10.497   5.850
 9329POPC   GL176033  35.397  10.522   6.150
 9329POPC   GL276034  35.355  10.652   6.150
 9329POPC   C1A76035  35.378  10.475   6.450
 9329POPC   D2A76036  35.315  10.475   6.750
 9329POPC   C3A76037  35.388  10.478   7.050
 9329POPC   C4A76038  35.392  10.564   7.350
 9329POPC   C1B76039  35.316  10.764   6.450
 9329POPC   C2B76040  35.299  10.811   6.750
 9329POPC   C3B76041  35.315  10.797   7.050
 9329POPC   C4B76042  35.335  10.735   7.350
 9330POPC   NC376043  12.882  24.474   5.550
 9330POPC   PO476044  12.888  24.489   5.850
 9330POPC   GL176045  12.866  24.526   6.150
 9330POPC   GL276046  12.736  24.431   6.150
 9330POPC   C1A76047  12.896  24.536   6.450
 9330POPC   D2A76048  12.815  24.484   6.750
 9330POPC   C3A76049  12.821  24.482   7.050
 9330POPC   C4A76050  12.873  24.496   7.350
 9330POPC   C1B76051  12.615  24.420   6.450
 9330POPC   C2B76052  12.668  24.339   6.750
 9330POPC   C3B76053  12.647  24.352   7.050
 9330POPC   C4B76054  12.579  24.420   7.350
 9331POPC   NC376055  30.711  17.520   5.550
 9331POPC   PO476056  30.725  17.546   5.850
 9331POPC   GL176057  30.706  17.523   6.150
 9331POPC   GL276058  30.632  17.575   6.150
 9331POPC   C1A76059  30.647  17.481   6.450
 9331POPC   D2A76060  30.651  17.492   6.750
 9331POPC   C3A76061  30.732  17.466   7.050
 9331POPC   C4A76062  30.680  17.541   7.350
 9331POPC   C1B76063  30.507  17.658   6.450
 9331POPC   C2B76064  30.425  17.636   6.750
 9331POPC   C3B76065  30.427  17.616   7.050
 9331POPC   C4B76066  30.463  17.656   7.350
 9332POPC   NC376067  13.601  27.574   5.550
 9332POPC   PO476068  13.658  27.576   5.850
 9332POPC   GL176069  13.614  27.633   6.150
 9332POPC   GL276070  13.566  27.674   6.150
 9332POPC   C1A76071  13.621  27.623   6.450
 9332POPC   D2A76072  13.666  27.611   6.750
 9332POPC   C3A76073  13.608  27.639   7.050
 9332POPC   C4A76074  13.641  27.610   7.350
 9332POPC   C1B76075  13.513  27.793   6.450
 9332POPC   C2B76076  13.517  27.794   6.750
 9332POPC   C3B76077  13.485  27.776   7.050
 9332POPC   C4B76078  13.444  27.831   7.350
 9333POPC   NC376079   5.049  40.056   5.550
 9333POPC   PO476080   5.123  39.978   5.850
 9333POPC   GL176081   5.084  39.978   6.150
 9333POPC   GL276082   5.210  39.908   6.150
 9333POPC   C1A76083   5.105  39.968   6.450
 9333POPC   D2A76084   5.096  40.011   6.750
 9333POPC   C3A76085   5.128  40.041   7.050
 9333POPC   C4A76086   5.143  39.968   7.350
 9333POPC   C1B76087   5.268  39.782   6.450
 9333POPC   C2B76088   5.282  39.855   6.750
 9333POPC   C3B76089   5.245  39.814   7.050
 9333POPC   C4B76090   5.303  39.787   7.350
 9334POPC   NC376091  11.290  27.554   5.550
 9334POPC   PO476092  11.274  27.636   5.850
 9334POPC   GL176093  11.327  27.636   6.150
 9334POPC   GL276094  11.161  27.694   6.150
 9334POPC   C1A76095  11.309  27.575   6.450
 9334POPC   D2A76096  11.281  27.553   6.750
 9334POPC   C3A76097  11.346  27.572   7.050
 9334POPC   C4A76098  11.256  27.576   7.350
 9334POPC   C1B76099  11.120  27.803   6.450
 9334POPC   C2B76100  11.109  27.768   6.750
 9334POPC   C3B76101  11.082  27.784   7.050
 9334POPC   C4B76102  11.155  27.783   7.350
 9335POPC   NC376103   2.031  12.114   5.550
 9335POPC   PO476104   1.953  12.109   5.850
 9335POPC   GL176105   1.964  12.076   6.150
 9335POPC   GL276106   2.124  12.074   6.150
 9335POPC   C1A76107   2.008  12.072   6.450
 9335POPC   D2A76108   2.029  12.109   6.750
 9335POPC   C3A76109   2.021  12.117   7.050
 9335POPC   C4A76110   2.030  12.086   7.350
 9335POPC   C1B76111   2.220  12.083   6.450
 9335POPC   C2B76112   2.269  12.071   6.750
 9335POPC   C3B76113   2.239  12.070   7.050
 9335POPC   C4B76114   2.260  12.055   7.350
 9336POPC   NC376115   3.583  37.637   5.550
 9336POPC   PO476116   3.574  37.716   5.850
 9336POPC   GL176117   3.528  37.659   6.150
 9336POPC   GL276118   3.426  37.614   6.150
 9336POPC   C1A76119   3.494  37.650   6.450
 9336POPC   D2A76120   3.543  37.639   6.750
 9336POPC   C3A76121   3.553  37.685   7.050
 9336POPC   C4A76122   3.527  37.650   7.350
 9336POPC   C1B76123   3.383  37.480   6.450
 9336POPC   C2B76124   3.384  37.567   6.750
 9336POPC   C3B76125   3.345  37.509   7.050
 9336POPC   C4B76126   3.338  37.556   7.350
 9337POPC   NC376127   8.245  39.198   5.550
 9337POPC   PO476128   8.223  39.199   5.850
 9337POPC   GL176129   8.227  39.271   6.150
 9337POPC   GL276130   8.071  39.242   6.150
 9337POPC   C1A76131   8.149  39.193   6.450
 9337POPC   D2A76132   8.245  39.258   6.750
 9337POPC   C3A76133   8.229  39.181   7.050
 9337POPC   C4A76134   8.202  39.275   7.350
 9337POPC   C1B76135   7.944  39.188   6.450
 9337POPC   C2B76136   7.929  39.222   6.750
 9337POPC   C3B76137   7.988  39.193   7.050
 9337POPC   C4B76138   7.923  39.199   7.350
 9338POPC   NC376139  33.042   0.454   5.550
 9338POPC   PO476140  32.985   0.434   5.850
 9338POPC   GL176141  33.046   0.405   6.150
 9338POPC   GL276142  33.092   0.511   6.150
 9338POPC   C1A76143  32.983   0.460   6.450
 9338POPC   D2A76144  32.993   0.409   6.750
 9338POPC   C3A76145  32.985   0.410   7.050
 9338POPC   C4A76146  33.001   0.399   7.350
 9338POPC   C1B76147  33.195   0.522   6.450
 9338POPC   C2B76148  33.211   0.590   6.750
 9338POPC   C3B76149  33.214   0.513   7.050
 9338POPC   C4B76150  33.266   0.599   7.350
 9339POPC   NC376151  38.485  24.454   5.550
 9339POPC   PO476152  38.435  24.502   5.850
 9339POPC   GL176153  38.465  24.527   6.150
 9339POPC   GL276154  38.337  24.383   6.150
 9339POPC   C1A76155  38.463  24.451   6.450
 9339POPC   D2A76156  38.425  24.461   6.750
 9339POPC   C3A76157  38.424  24.492   7.050
 9339POPC   C4A76158  38.482  24.506   7.350
 9339POPC   C1B76159  38.256  24.298   6.450
 9339POPC   C2B76160  38.212  24.294   6.750
 9339POPC   C3B76161  38.264  24.349   7.050
 9339POPC   C4B76162  38.262  24.377   7.350
 9340POPC   NC376163  33.843  44.620   5.550
 9340POPC   PO476164  33.759  44.660   5.850
 9340POPC   GL176165  33.757  44.701   6.150
 9340POPC   GL276166  33.660  44.627   6.150
 9340POPC   C1A76167  33.751  44.697   6.450
 9340POPC   D2A76168  33.828  44.659   6.750
 9340POPC   C3A76169  33.831  44.613   7.050
 9340POPC   C4A76170  33.836  44.695   7.350
 9340POPC   C1B76171  33.568  44.599   6.450
 9340POPC   C2B76172  33.532  44.623   6.750
 9340POPC   C3B76173  33.567  44.650   7.050
 9340POPC   C4B76174  33.524  44.600   7.350
 9341POPC   NC376175  29.099  13.618   5.550
 9341POPC   PO476176  29.129  13.676   5.850
 9341POPC   GL176177  29.149  13.600   6.150
 9341POPC   GL276178  29.278  13.500   6.150
 9341POPC   C1A76179  29.164  13.650   6.450
 9341POPC   D2A76180  29.180  13.625   6.750
 9341POPC   C3A76181  29.136  13.666   7.050
 9341POPC   C4A76182  29.126  13.616   7.350
 9341POPC   C1B76183  29.293  13.436   6.450
 9341POPC   C2B76184  29.311  13.479   6.750
 9341POPC   C3B76185  29.363  13.421   7.050
 9341POPC   C4B76186  29.301  13.413   7.350
 9342POPC   NC376187  36.166  40.771   5.550
 9342POPC   PO476188  36.099  40.791   5.850
 9342POPC   GL176189  36.150  40.789   6.150
 9342POPC   GL276190  36.024  40.895   6.150
 9342POPC   C1A76191  36.172  40.833   6.450
 9342POPC   D2A76192  36.139  40.808   6.750
 9342POPC   C3A76193  36.143  40.734   7.050
 9342POPC   C4A76194  36.080  40.814   7.350
 9342POPC   C1B76195  35.983  40.948   6.450
 9342POPC   C2B76196  35.916  40.989   6.750
 9342POPC   C3B76197  35.982  40.996   7.050
 9342POPC   C4B76198  35.993  40.981   7.350
 9343POPC   NC376199  42.358  39.965   5.550
 9343POPC   PO476200  42.293  40.052   5.850
 9343POPC   GL176201  42.317  39.992   6.150
 9343POPC   GL276202  42.263  40.046   6.150
 9343POPC   C1A76203  42.362  40.036   6.450
 9343POPC   D2A76204  42.369  40.055   6.750
 9343POPC   C3A76205  42.296  40.056   7.050
 9343POPC   C4A76206  42.380  40.020   7.350
 9343POPC   C1B76207  42.105  40.127   6.450
 9343POPC   C2B76208  42.071  40.116   6.750
 9343POPC   C3B76209  42.077  40.050   7.050
 9343POPC   C4B76210  42.052  40.058   7.350
 9344POPC   NC376211  38.452  29.123   5.550
 9344POPC   PO476212  38.424  29.097   5.850
 9344POPC   GL176213  38.411  29.184   6.150
 9344POPC   GL276214  38.535  29.156   6.150
 9344POPC   C1A76215  38.438  29.154   6.450
 9344POPC   D2A76216  38.451  29.191   6.750
 9344POPC   C3A76217  38.409  29.096   7.050
 9344POPC   C4A76218  38.462  29.114   7.350
 9344POPC   C1B76219  38.648  29.084   6.450
 9344POPC   C2B76220  38.658  29.077   6.750
 9344POPC   C3B76221  38.735  29.046   7.050
 9344POPC   C4B76222  38.715  29.055   7.350
 9345POPC   NC376223   1.258   3.588   5.550
 9345POPC   PO476224   1.177   3.495   5.850
 9345POPC   GL176225   1.210   3.510   6.150
 9345POPC   GL276226   1.119   3.595   6.150
 9345POPC   C1A76227   1.235   3.504   6.450
 9345POPC   D2A76228   1.255   3.545   6.750
 9345POPC   C3A76229   1.204   3.574   7.050
 9345POPC   C4A76230   1.176   3.538   7.350
 9345POPC   C1B76231   0.917   3.535   6.450
 9345POPC   C2B76232   0.951   3.595   6.750
 9345POPC   C3B76233   0.971   3.523   7.050
 9345POPC   C4B76234   0.953   3.545   7.350
 9346POPC   NC376235  34.528  31.489   5.550
 9346POPC   PO476236  34.549  31.451   5.850
 9346POPC   GL176237  34.562  31.425   6.150
 9346POPC   GL276238  34.667  31.454   6.150
 9346POPC   C1A76239  34.586  31.434   6.450
 9346POPC   D2A76240  34.575  31.469   6.750
 9346POPC   C3A76241  34.531  31.463   7.050
 9346POPC   C4A76242  34.577  31.478   7.350
 9346POPC   C1B76243  34.859  31.491   6.450
 9346POPC   C2B76244  34.872  31.483   6.750
 9346POPC   C3B76245  34.844  31.460   7.050
 9346POPC   C4B76246  34.777  31.460   7.350
 9347POPC   NC376247  39.960  21.338   5.550
 9347POPC   PO476248  40.017  21.416   5.850
 9347POPC   GL176249  40.054  21.342   6.150
 9347POPC   GL276250  39.953  21.532   6.150
 9347POPC   C1A76251  40.034  21.342   6.450
 9347POPC   D2A76252  40.051  21.424   6.750
 9347POPC   C3A76253  40.038  21.422   7.050
 9347POPC   C4A76254  40.013  21.388   7.350
 9347POPC   C1B76255  40.002  21.625   6.450
 9347POPC   C2B76256  39.971  21.677   6.750
 9347POPC   C3B76257  40.021  21.643   7.050
 9347POPC   C4B76258  39.934  21.658   7.350
 9348POPC   NC376259  30.694  36.893   5.550
 9348POPC   PO476260  30.694  36.929   5.850
 9348POPC   GL176261  30.650  36.863   6.150
 9348POPC   GL276262  30.831  36.964   6.150
 9348POPC   C1A76263  30.707  36.928   6.450
 9348POPC   D2A76264  30.728  36.927   6.750
 9348POPC   C3A76265  30.737  36.864   7.050
 9348POPC   C4A76266  30.741  36.949   7.350
 9348POPC   C1B76267  30.856  37.083   6.450
 9348POPC   C2B76268  30.917  37.082   6.750
 9348POPC   C3B76269  30.841  37.097   7.050
 9348POPC   C4B76270  30.915  37.020   7.350
 9349POPC   NC376271  42.307  33.789   5.550
 9349POPC   PO476272  42.326  33.755   5.850
 9349POPC   GL176273  42.355  33.826   6.150
 9349POPC   GL276274  42.358  33.727   6.150
 9349POPC   C1A76275  42.339  33.772   6.450
 9349POPC   D2A76276  42.311  33.829   6.750
 9349POPC   C3A76277  42.379  33.813   7.050
 9349POPC   C4A76278  42.346  33.838   7.350
 9349POPC   C1B76279  42.443  33.567   6.450
 9349POPC   C2B76280  42.525  33.624   6.750
 9349POPC   C3B76281  42.477  33.556   7.050
 9349POPC   C4B76282  42.433  33.548   7.350
 9350POPC   NC376283   4.310  33.033   5.550
 9350POPC   PO476284   4.324  33.001   5.850
 9350POPC   GL176285   4.304  33.033   6.150
 9350POPC   GL276286   4.423  33.049   6.150
 9350POPC   C1A76287   4.288  33.031   6.450
 9350POPC   D2A76288   4.351  33.051   6.750
 9350POPC   C3A76289   4.353  33.053   7.050
 9350POPC   C4A76290   4.276  33.067   7.350
 9350POPC   C1B76291   4.536  33.181   6.450
 9350POPC   C2B76292   4.479  33.201   6.750
 9350POPC   C3B76293   4.492  33.127   7.050
 9350POPC   C4B76294   4.495  33.143   7.350
 9351POPC   NC376295  25.285  19.817   5.550
 9351POPC   PO476296  25.254  19.832   5.850
 9351POPC   GL176297  25.221  19.788   6.150
 9351POPC   GL276298  25.376  19.906   6.150
 9351POPC   C1A76299  25.290  19.812   6.450
 9351POPC   D2A76300  25.286  19.795   6.750
 9351POPC   C3A76301  25.233  19.865   7.050
 9351POPC   C4A76302  25.256  19.846   7.350
 9351POPC   C1B76303  25.498  19.878   6.450
 9351POPC   C2B76304  25.495  19.916   6.750
 9351POPC   C3B76305  25.525  19.959   7.050
 9351POPC   C4B76306  25.470  19.885   7.350
 9352POPC   NC376307  17.514  33.790   5.550
 9352POPC   PO476308  17.476  33.829   5.850
 9352POPC   GL176309  17.545  33.816   6.150
 9352POPC   GL276310  17.478  33.945   6.150
 9352POPC   C1A76311  17.470  33.779   6.450
 9352POPC   D2A76312  17.530  33.836   6.750
 9352POPC   C3A76313  17.481  33.811   7.050
 9352POPC   C4A76314  17.521  33.751   7.350
 9352POPC   C1B76315  17.445  34.072   6.450
 9352POPC   C2B76316  17.429  34.012   6.750
 9352POPC   C3B76317  17.469  34.041   7.050
 9352POPC   C4B76318  17.427  34.085   7.350
 9353POPC   NC376319  24.512  20.654   5.550
 9353POPC   PO476320  24.530  20.607   5.850
 9353POPC   GL176321  24.466  20.583   6.150
 9353POPC   GL276322  24.400  20.611   6.150
 9353POPC   C1A76323  24.496  20.585   6.450
 9353POPC   D2A76324  24.531  20.606   6.750
 9353POPC   C3A76325  24.505  20.577   7.050
 9353POPC   C4A76326  24.475  20.608   7.350
 9353POPC   C1B76327  24.274  20.605   6.450
 9353POPC   C2B76328  24.278  20.566   6.750
 9353POPC   C3B76329  24.236  20.612   7.050
 9353POPC   C4B76330  24.268  20.616   7.350
 9354POPC   NC376331  18.238   5.120   5.550
 9354POPC   PO476332  18.258   5.076   5.850
 9354POPC   GL176333  18.269   5.071   6.150
 9354POPC   GL276334  18.196   4.992   6.150
 9354POPC   C1A76335  18.302   5.081   6.450
 9354POPC   D2A76336  18.305   5.092   6.750
 9354POPC   C3A76337  18.303   5.134   7.050
 9354POPC   C4A76338  18.259   5.139   7.350
 9354POPC   C1B76339  18.076   4.954   6.450
 9354POPC   C2B76340  18.102   4.910   6.750
 9354POPC   C3B76341  18.122   4.981   7.050
 9354POPC   C4B76342  18.054   4.936   7.350
 9355POPC   NC376343  29.169  37.728   5.550
 9355POPC   PO476344  29.151  37.647   5.850
 9355POPC   GL176345  29.107  37.708   6.150
 9355POPC   GL276346  29.003  37.641   6.150
 9355POPC   C1A76347  29.108  37.669   6.450
 9355POPC   D2A76348  29.190  37.667   6.750
 9355POPC   C3A76349  29.141  37.656   7.050
 9355POPC   C4A76350  29.128  37.632   7.350
 9355POPC   C1B76351  28.887  37.656   6.450
 9355POPC   C2B76352  28.873  37.627   6.750
 9355POPC   C3B76353  28.911  37.672   7.050
 9355POPC   C4B76354  28.922  37.707   7.350
 9356POPC   NC376355  16.737  13.662   5.550
 9356POPC   PO476356  16.763  13.613   5.850
 9356POPC   GL176357  16.703  13.583   6.150
 9356POPC   GL276358  16.710  13.491   6.150
 9356POPC   C1A76359  16.751  13.663   6.450
 9356POPC   D2A76360  16.758  13.675   6.750
 9356POPC   C3A76361  16.685  13.657   7.050
 9356POPC   C4A76362  16.742  13.621   7.350
 9356POPC   C1B76363  16.646  13.415   6.450
 9356POPC   C2B76364  16.676  13.359   6.750
 9356POPC   C3B76365  16.653  13.411   7.050
 9356POPC   C4B76366  16.630  13.369   7.350
 9357POPC   NC376367   3.522  43.117   5.550
 9357POPC   PO476368   3.572  43.066   5.850
 9357POPC   GL176369   3.572  43.109   6.150
 9357POPC   GL276370   3.370  43.150   6.150
 9357POPC   C1A76371   3.577  43.081   6.450
 9357POPC   D2A76372   3.518  43.132   6.750
 9357POPC   C3A76373   3.572  43.093   7.050
 9357POPC   C4A76374   3.574  43.068   7.350
 9357POPC   C1B76375   3.340  43.075   6.450
 9357POPC   C2B76376   3.313  43.103   6.750
 9357POPC   C3B76377   3.325  43.142   7.050
 9357POPC   C4B76378   3.256  43.126   7.350
 9358POPC   NC376379   9.710  44.614   5.550
 9358POPC   PO476380   9.769  44.617   5.850
 9358POPC   GL176381   9.727  44.699   6.150
 9358POPC   GL276382   9.861  44.728   6.150
 9358POPC   C1A76383   9.766  44.681   6.450
 9358POPC   D2A76384   9.747  44.695   6.750
 9358POPC   C3A76385   9.725  44.643   7.050
 9358POPC   C4A76386   9.737  44.635   7.350
 9358POPC   C1B76387   9.970  44.861   6.450
 9358POPC   C2B76388   9.934  44.816   6.750
 9358POPC   C3B76389   9.963  44.799   7.050
 9358POPC   C4B76390   9.967  44.794   7.350
 9359POPC   NC376391  31.504  16.758   5.550
 9359POPC   PO476392  31.430  16.698   5.850
 9359POPC   GL176393  31.477  16.685   6.150
 9359POPC   GL276394  31.571  16.800   6.150
 9359POPC   C1A76395  31.522  16.764   6.450
 9359POPC   D2A76396  31.452  16.722   6.750
 9359POPC   C3A76397  31.495  16.779   7.050
 9359POPC   C4A76398  31.472  16.775   7.350
 9359POPC   C1B76399  31.653  16.831   6.450
 9359POPC   C2B76400  31.667  16.843   6.750
 9359POPC   C3B76401  31.682  16.868   7.050
 9359POPC   C4B76402  31.651  16.833   7.350
 9360POPC   NC376403   8.965  23.729   5.550
 9360POPC   PO476404   8.952  23.750   5.850
 9360POPC   GL176405   8.940  23.665   6.150
 9360POPC   GL276406   8.820  23.764   6.150
 9360POPC   C1A76407   8.950  23.739   6.450
 9360POPC   D2A76408   9.020  23.747   6.750
 9360POPC   C3A76409   9.009  23.701   7.050
 9360POPC   C4A76410   8.924  23.697   7.350
 9360POPC   C1B76411   8.769  23.862   6.450
 9360POPC   C2B76412   8.779  23.813   6.750
 9360POPC   C3B76413   8.784  23.792   7.050
 9360POPC   C4B76414   8.738  23.815   7.350
 9361POPC   NC376415  43.903   0.473   5.550
 9361POPC   PO476416  43.880   0.467   5.850
 9361POPC   GL176417  43.839   0.423   6.150
 9361POPC   GL276418  43.806   0.534   6.150
 9361POPC   C1A76419  43.841   0.429   6.450
 9361POPC   D2A76420  43.846   0.432   6.750
 9361POPC   C3A76421  43.921   0.443   7.050
 9361POPC   C4A76422  43.935   0.468   7.350
 9361POPC   C1B76423  43.774   0.704   6.450
 9361POPC   C2B76424  43.776   0.666   6.750
 9361POPC   C3B76425  43.809   0.698   7.050
 9361POPC   C4B76426  43.765   0.649   7.350
 9362POPC   NC376427  29.164  26.816   5.550
 9362POPC   PO476428  29.186  26.796   5.850
 9362POPC   GL176429  29.178  26.768   6.150
 9362POPC   GL276430  29.178  26.915   6.150
 9362POPC   C1A76431  29.136  26.808   6.450
 9362POPC   D2A76432  29.117  26.787   6.750
 9362POPC   C3A76433  29.127  26.843   7.050
 9362POPC   C4A76434  29.192  26.803   7.350
 9362POPC   C1B76435  29.244  27.047   6.450
 9362POPC   C2B76436  29.271  27.026   6.750
 9362POPC   C3B76437  29.246  27.044   7.050
 9362POPC   C4B76438  29.234  27.033   7.350
 9363POPC   NC376439  21.337  25.228   5.550
 9363POPC   PO476440  21.431  25.225   5.850
 9363POPC   GL176441  21.410  25.256   6.150
 9363POPC   GL276442  21.321  25.379   6.150
 9363POPC   C1A76443  21.379  25.291   6.450
 9363POPC   D2A76444  21.376  25.303   6.750
 9363POPC   C3A76445  21.341  25.230   7.050
 9363POPC   C4A76446  21.433  25.298   7.350
 9363POPC   C1B76447  21.231  25.405   6.450
 9363POPC   C2B76448  21.220  25.430   6.750
 9363POPC   C3B76449  21.232  25.399   7.050
 9363POPC   C4B76450  21.173  25.465   7.350
 9364POPC   NC376451  19.059  17.478   5.550
 9364POPC   PO476452  19.029  17.536   5.850
 9364POPC   GL176453  19.037  17.480   6.150
 9364POPC   GL276454  19.129  17.431   6.150
 9364POPC   C1A76455  19.049  17.510   6.450
 9364POPC   D2A76456  19.009  17.491   6.750
 9364POPC   C3A76457  19.037  17.469   7.050
 9364POPC   C4A76458  19.108  17.504   7.350
 9364POPC   C1B76459  19.292  17.315   6.450
 9364POPC   C2B76460  19.300  17.342   6.750
 9364POPC   C3B76461  19.301  17.335   7.050
 9364POPC   C4B76462  19.234  17.337   7.350
 9365POPC   NC376463  37.648  22.888   5.550
 9365POPC   PO476464  37.680  22.923   5.850
 9365POPC   GL176465  37.721  22.981   6.150
 9365POPC   GL276466  37.757  22.932   6.150
 9365POPC   C1A76467  37.657  22.894   6.450
 9365POPC   D2A76468  37.688  22.979   6.750
 9365POPC   C3A76469  37.648  22.968   7.050
 9365POPC   C4A76470  37.725  22.945   7.350
 9365POPC   C1B76471  37.965  22.924   6.450
 9365POPC   C2B76472  37.897  22.896   6.750
 9365POPC   C3B76473  37.894  22.967   7.050
 9365POPC   C4B76474  37.909  22.895   7.350
 9366POPC   NC376475  19.071  35.396   5.550
 9366POPC   PO476476  19.047  35.332   5.850
 9366POPC   GL176477  19.052  35.329   6.150
 9366POPC   GL276478  19.067  35.231   6.150
 9366POPC   C1A76479  19.034  35.337   6.450
 9366POPC   D2A76480  19.028  35.332   6.750
 9366POPC   C3A76481  19.020  35.348   7.050
 9366POPC   C4A76482  19.097  35.304   7.350
 9366POPC   C1B76483  19.030  35.102   6.450
 9366POPC   C2B76484  18.958  35.147   6.750
 9366POPC   C3B76485  19.046  35.135   7.050
 9366POPC   C4B76486  19.029  35.139   7.350
 9367POPC   NC376487  10.544   1.993   5.550
 9367POPC   PO476488  10.481   1.969   5.850
 9367POPC   GL176489  10.573   1.977   6.150
 9367POPC   GL276490  10.411   1.972   6.150
 9367POPC   C1A76491  10.484   1.979   6.450
 9367POPC   D2A76492  10.520   2.009   6.750
 9367POPC   C3A76493  10.540   1.954   7.050
 9367POPC   C4A76494  10.562   1.999   7.350
 9367POPC   C1B76495  10.296   1.871   6.450
 9367POPC   C2B76496  10.249   1.910   6.750
 9367POPC   C3B76497  10.283   1.913   7.050
 9367POPC   C4B76498  10.295   1.924   7.350
 9368POPC   NC376499  25.222   8.186   5.550
 9368POPC   PO476500  25.288   8.224   5.850
 9368POPC   GL176501  25.238   8.193   6.150
 9368POPC   GL276502  25.143   8.178   6.150
 9368POPC   C1A76503  25.308   8.227   6.450
 9368POPC   D2A76504  25.257   8.199   6.750
 9368POPC   C3A76505  25.272   8.225   7.050
 9368POPC   C4A76506  25.292   8.216   7.350
 9368POPC   C1B76507  25.048   8.174   6.450
 9368POPC   C2B76508  24.977   8.111   6.750
 9368POPC   C3B76509  25.059   8.113   7.050
 9368POPC   C4B76510  25.016   8.104   7.350
 9369POPC   NC376511   6.678  20.596   5.550
 9369POPC   PO476512   6.598  20.612   5.850
 9369POPC   GL176513   6.646  20.629   6.150
 9369POPC   GL276514   6.551  20.632   6.150
 9369POPC   C1A76515   6.637  20.567   6.450
 9369POPC   D2A76516   6.666  20.570   6.750
 9369POPC   C3A76517   6.599  20.592   7.050
 9369POPC   C4A76518   6.674  20.599   7.350
 9369POPC   C1B76519   6.381  20.771   6.450
 9369POPC   C2B76520   6.386  20.773   6.750
 9369POPC   C3B76521   6.394  20.772   7.050
 9369POPC   C4B76522   6.403  20.683   7.350
 9370POPC   NC376523  40.035  11.288   5.550
 9370POPC   PO476524  40.048  11.262   5.850
 9370POPC   GL176525  40.001  11.301   6.150
 9370POPC   GL276526  40.143  11.323   6.150
 9370POPC   C1A76527  39.967  11.305   6.450
 9370POPC   D2A76528  40.047  11.327   6.750
 9370POPC   C3A76529  39.996  11.290   7.050
 9370POPC   C4A76530  40.027  11.338   7.350
 9370POPC   C1B76531  40.212  11.387   6.450
 9370POPC   C2B76532  40.279  11.413   6.750
 9370POPC   C3B76533  40.236  11.404   7.050
 9370POPC   C4B76534  40.215  11.362   7.350
 9371POPC   NC376535   6.604  38.437   5.550
 9371POPC   PO476536   6.597  38.437   5.850
 9371POPC   GL176537   6.692  38.442   6.150
 9371POPC   GL276538   6.513  38.576   6.150
 9371POPC   C1A76539   6.654  38.498   6.450
 9371POPC   D2A76540   6.642  38.452   6.750
 9371POPC   C3A76541   6.630  38.449   7.050
 9371POPC   C4A76542   6.607  38.488   7.350
 9371POPC   C1B76543   6.485  38.652   6.450
 9371POPC   C2B76544   6.411  38.609   6.750
 9371POPC   C3B76545   6.451  38.669   7.050
 9371POPC   C4B76546   6.504  38.633   7.350
 9372POPC   NC376547  37.685  10.550   5.550
 9372POPC   PO476548  37.647  10.549   5.850
 9372POPC   GL176549  37.692  10.491   6.150
 9372POPC   GL276550  37.769  10.454   6.150
 9372POPC   C1A76551  37.713  10.546   6.450
 9372POPC   D2A76552  37.659  10.541   6.750
 9372POPC   C3A76553  37.677  10.482   7.050
 9372POPC   C4A76554  37.717  10.534   7.350
 9372POPC   C1B76555  37.875  10.381   6.450
 9372POPC   C2B76556  37.827  10.307   6.750
 9372POPC   C3B76557  37.818  10.315   7.050
 9372POPC   C4B76558  37.852  10.371   7.350
 9373POPC   NC376559  32.244  18.289   5.550
 9373POPC   PO476560  32.261  18.311   5.850
 9373POPC   GL176561  32.286  18.238   6.150
 9373POPC   GL276562  32.178  18.380   6.150
 9373POPC   C1A76563  32.247  18.293   6.450
 9373POPC   D2A76564  32.231  18.294   6.750
 9373POPC   C3A76565  32.283  18.262   7.050
 9373POPC   C4A76566  32.219  18.271   7.350
 9373POPC   C1B76567  31.980  18.378   6.450
 9373POPC   C2B76568  31.994  18.362   6.750
 9373POPC   C3B76569  31.991  18.407   7.050
 9373POPC   C4B76570  32.049  18.352   7.350
 9374POPC   NC376571  20.583  44.654   5.550
 9374POPC   PO476572  20.649  44.685   5.850
 9374POPC   GL176573  20.633  44.702   6.150
 9374POPC   GL276574  20.630  44.516   6.150
 9374POPC   C1A76575  20.579  44.622   6.450
 9374POPC   D2A76576  20.654  44.691   6.750
 9374POPC   C3A76577  20.605  44.661   7.050
 9374POPC   C4A76578  20.585  44.681   7.350
 9374POPC   C1B76579  20.736  44.461   6.450
 9374POPC   C2B76580  20.760  44.407   6.750
 9374POPC   C3B76581  20.775  44.469   7.050
 9374POPC   C4B76582  20.740  44.432   7.350
 9375POPC   NC376583   5.045  29.122   5.550
 9375POPC   PO476584   5.143  29.117   5.850
 9375POPC   GL176585   5.100  29.102   6.150
 9375POPC   GL276586   5.004  29.242   6.150
 9375POPC   C1A76587   5.082  29.167   6.450
 9375POPC   D2A76588   5.075  29.128   6.750
 9375POPC   C3A76589   5.071  29.175   7.050
 9375POPC   C4A76590   5.143  29.114   7.350
 9375POPC   C1B76591   4.860  29.299   6.450
 9375POPC   C2B76592   4.942  29.309   6.750
 9375POPC   C3B76593   4.938  29.265   7.050
 9375POPC   C4B76594   4.941  29.283   7.350
 9376POPC   NC376595  37.671  20.580   5.550
 9376POPC   PO476596  37.630  20.612   5.850
 9376POPC   GL176597  37.633  20.566   6.150
 9376POPC   GL276598  37.737  20.647   6.150
 9376POPC   C1A76599  37.682  20.612   6.450
 9376POPC   D2A76600  37.712  20.593   6.750
 9376POPC   C3A76601  37.654  20.638   7.050
 9376POPC   C4A76602  37.665  20.659   7.350
 9376POPC   C1B76603  37.919  20.733   6.450
 9376POPC   C2B76604  37.874  20.783   6.750
 9376POPC   C3B76605  37.868  20.772   7.050
 9376POPC   C4B76606  37.887  20.757   7.350
 9377POPC   NC376607   4.326   0.428   5.550
 9377POPC   PO476608   4.363   0.416   5.850
 9377POPC   GL176609   4.357   0.451   6.150
 9377POPC   GL276610   4.216   0.427   6.150
 9377POPC   C1A76611   4.340   0.480   6.450
 9377POPC   D2A76612   4.306   0.443   6.750
 9377POPC   C3A76613   4.280   0.407   7.050
 9377POPC   C4A76614   4.332   0.483   7.350
 9377POPC   C1B76615   4.061   0.476   6.450
 9377POPC   C2B76616   4.026   0.471   6.750
 9377POPC   C3B76617   4.107   0.434   7.050
 9377POPC   C4B76618   4.058   0.500   7.350
 9378POPC   NC376619  39.280  36.879   5.550
 9378POPC   PO476620  39.230  36.944   5.850
 9378POPC   GL176621  39.274  36.873   6.150
 9378POPC   GL276622  39.171  36.976   6.150
 9378POPC   C1A76623  39.213  36.899   6.450
 9378POPC   D2A76624  39.189  36.899   6.750
 9378POPC   C3A76625  39.252  36.866   7.050
 9378POPC   C4A76626  39.270  36.908   7.350
 9378POPC   C1B76627  39.186  37.198   6.450
 9378POPC   C2B76628  39.178  37.179   6.750
 9378POPC   C3B76629  39.191  37.105   7.050
 9378POPC   C4B76630  39.226  37.120   7.350
 9379POPC   NC376631   1.246  12.804   5.550
 9379POPC   PO476632   1.189  12.820   5.850
 9379POPC   GL176633   1.189  12.873   6.150
 9379POPC   GL276634   1.139  13.006   6.150
 9379POPC   C1A76635   1.259  12.869   6.450
 9379POPC   D2A76636   1.177  12.852   6.750
 9379POPC   C3A76637   1.259  12.876   7.050
 9379POPC   C4A76638   1.207  12.873   7.350
 9379POPC   C1B76639   1.122  13.059   6.450
 9379POPC   C2B76640   1.189  13.055   6.750
 9379POPC   C3B76641   1.157  13.093   7.050
 9379POPC   C4B76642   1.122  13.107   7.350
 9380POPC   NC376643  42.357  34.528   5.550
 9380POPC   PO476644  42.337  34.591   5.850
 9380POPC   GL176645  42.287  34.548   6.150
 9380POPC   GL276646  42.211  34.532   6.150
 9380POPC   C1A76647  42.315  34.539   6.450
 9380POPC   D2A76648  42.300  34.562   6.750
 9380POPC   C3A76649  42.355  34.545   7.050
 9380POPC   C4A76650  42.293  34.582   7.350
 9380POPC   C1B76651  42.117  34.445   6.450
 9380POPC   C2B76652  42.099  34.514   6.750
 9380POPC   C3B76653  42.088  34.485   7.050
 9380POPC   C4B76654  42.080  34.454   7.350
 9381POPC   NC376655  40.780  23.735   5.550
 9381POPC   PO476656  40.780  23.668   5.850
 9381POPC   GL176657  40.816  23.742   6.150
 9381POPC   GL276658  40.642  23.680   6.150
 9381POPC   C1A76659  40.740  23.673   6.450
 9381POPC   D2A76660  40.833  23.679   6.750
 9381POPC   C3A76661  40.767  23.669   7.050
 9381POPC   C4A76662  40.793  23.760   7.350
 9381POPC   C1B76663  40.488  23.642   6.450
 9381POPC   C2B76664  40.504  23.641   6.750
 9381POPC   C3B76665  40.552  23.718   7.050
 9381POPC   C4B76666  40.553  23.721   7.350
 9382POPC   NC376667  28.407  10.547   5.550
 9382POPC   PO476668  28.378  10.493   5.850
 9382POPC   GL176669  28.348  10.558   6.150
 9382POPC   GL276670  28.455  10.450   6.150
 9382POPC   C1A76671  28.401  10.477   6.450
 9382POPC   D2A76672  28.335  10.539   6.750
 9382POPC   C3A76673  28.386  10.501   7.050
 9382POPC   C4A76674  28.386  10.554   7.350
 9382POPC   C1B76675  28.605  10.396   6.450
 9382POPC   C2B76676  28.598  10.349   6.750
 9382POPC   C3B76677  28.600  10.430   7.050
 9382POPC   C4B76678  28.530  10.405   7.350
 9383POPC   NC376679  36.104  30.702   5.550
 9383POPC   PO476680  36.086  30.743   5.850
 9383POPC   GL176681  36.111  30.647   6.150
 9383POPC   GL276682  36.188  30.787   6.150
 9383POPC   C1A76683  36.117  30.649   6.450
 9383POPC   D2A76684  36.156  30.657   6.750
 9383POPC   C3A76685  36.151  30.729   7.050
 9383POPC   C4A76686  36.163  30.666   7.350
 9383POPC   C1B76687  36.333  30.859   6.450
 9383POPC   C2B76688  36.336  30.842   6.750
 9383POPC   C3B76689  36.393  30.803   7.050
 9383POPC   C4B76690  36.295  30.807   7.350
 9384POPC   NC376691  15.180  37.679   5.550
 9384POPC   PO476692  15.178  37.695   5.850
 9384POPC   GL176693  15.143  37.643   6.150
 9384POPC   GL276694  15.119  37.592   6.150
 9384POPC   C1A76695  15.156  37.676   6.450
 9384POPC   D2A76696  15.197  37.705   6.750
 9384POPC   C3A76697  15.135  37.696   7.050
 9384POPC   C4A76698  15.185  37.702   7.350
 9384POPC   C1B76699  15.018  37.487   6.450
 9384POPC   C2B76700  14.978  37.485   6.750
 9384POPC   C3B76701  14.958  37.566   7.050
 9384POPC   C4B76702  14.974  37.531   7.350
 9385POPC   NC376703  36.901  26.784   5.550
 9385POPC   PO476704  36.935  26.803   5.850
 9385POPC   GL176705  36.914  26.812   6.150
 9385POPC   GL276706  36.986  26.687   6.150
 9385POPC   C1A76707  36.888  26.794   6.450
 9385POPC   D2A76708  36.875  26.807   6.750
 9385POPC   C3A76709  36.898  26.835   7.050
 9385POPC   C4A76710  36.890  26.787   7.350
 9385POPC   C1B76711  37.070  26.621   6.450
 9385POPC   C2B76712  37.111  26.599   6.750
 9385POPC   C3B76713  37.066  26.683   7.050
 9385POPC   C4B76714  37.052  26.675   7.350
 9386POPC   NC376715  19.812  44.613   5.550
 9386POPC   PO476716  19.883  44.668   5.850
 9386POPC   GL176717  19.868  44.632   6.150
 9386POPC   GL276718  19.909  44.762   6.150
 9386POPC   C1A76719  19.866  44.653   6.450
 9386POPC   D2A76720  19.813  44.668   6.750
 9386POPC   C3A76721  19.845  44.653   7.050
 9386POPC   C4A76722  19.814  44.619   7.350
 9386POPC   C1B76723  19.916  44.883   6.450
 9386POPC   C2B76724  19.980  44.894   6.750
 9386POPC   C3B76725  19.898  44.922   7.050
 9386POPC   C4B76726  19.972  44.902   7.350
 9387POPC   NC376727  15.210  36.878   5.550
 9387POPC   PO476728  15.194  36.878   5.850
 9387POPC   GL176729  15.207  36.935   6.150
 9387POPC   GL276730  15.110  36.839   6.150
 9387POPC   C1A76731  15.215  36.875   6.450
 9387POPC   D2A76732  15.226  36.871   6.750
 9387POPC   C3A76733  15.185  36.886   7.050
 9387POPC   C4A76734  15.199  36.882   7.350
 9387POPC   C1B76735  15.048  36.727   6.450
 9387POPC   C2B76736  15.039  36.655   6.750
 9387POPC   C3B76737  15.077  36.688   7.050
 9387POPC   C4B76738  15.050  36.736   7.350
 9388POPC   NC376739   5.883  33.843   5.550
 9388POPC   PO476740   5.878  33.801   5.850
 9388POPC   GL176741   5.910  33.848   6.150
 9388POPC   GL276742   5.952  33.908   6.150
 9388POPC   C1A76743   5.831  33.826   6.450
 9388POPC   D2A76744   5.826  33.829   6.750
 9388POPC   C3A76745   5.918  33.811   7.050
 9388POPC   C4A76746   5.834  33.816   7.350
 9388POPC   C1B76747   5.962  33.987   6.450
 9388POPC   C2B76748   5.996  34.036   6.750
 9388POPC   C3B76749   6.038  34.055   7.050
 9388POPC   C4B76750   6.004  34.015   7.350
 9389POPC   NC376751   0.415  32.245   5.550
 9389POPC   PO476752   0.411  32.249   5.850
 9389POPC   GL176753   0.396  32.216   6.150
 9389POPC   GL276754   0.398  32.165   6.150
 9389POPC   C1A76755   0.427  32.215   6.450
 9389POPC   D2A76756   0.449  32.230   6.750
 9389POPC   C3A76757   0.442  32.250   7.050
 9389POPC   C4A76758   0.462  32.250   7.350
 9389POPC   C1B76759   0.256  32.035   6.450
 9389POPC   C2B76760   0.263  32.064   6.750
 9389POPC   C3B76761   0.306  32.002   7.050
 9389POPC   C4B76762   0.307  32.030   7.350
 9390POPC   NC376763   2.791  32.277   5.550
 9390POPC   PO476764   2.736  32.199   5.850
 9390POPC   GL176765   2.722  32.247   6.150
 9390POPC   GL276766   2.693  32.311   6.150
 9390POPC   C1A76767   2.747  32.239   6.450
 9390POPC   D2A76768   2.736  32.200   6.750
 9390POPC   C3A76769   2.764  32.268   7.050
 9390POPC   C4A76770   2.775  32.224   7.350
 9390POPC   C1B76771   2.613  32.414   6.450
 9390POPC   C2B76772   2.539  32.439   6.750
 9390POPC   C3B76773   2.536  32.414   7.050
 9390POPC   C4B76774   2.621  32.386   7.350
 9391POPC   NC376775   6.678  33.817   5.550
 9391POPC   PO476776   6.684  33.763   5.850
 9391POPC   GL176777   6.609  33.825   6.150
 9391POPC   GL276778   6.728  33.718   6.150
 9391POPC   C1A76779   6.639  33.803   6.450
 9391POPC   D2A76780   6.676  33.813   6.750
 9391POPC   C3A76781   6.620  33.802   7.050
 9391POPC   C4A76782   6.663  33.753   7.350
 9391POPC   C1B76783   6.901  33.633   6.450
 9391POPC   C2B76784   6.903  33.691   6.750
 9391POPC   C3B76785   6.892  33.633   7.050
 9391POPC   C4B76786   6.850  33.642   7.350
 9392POPC   NC376787  34.624   2.815   5.550
 9392POPC   PO476788  34.610   2.796   5.850
 9392POPC   GL176789  34.561   2.758   6.150
 9392POPC   GL276790  34.507   2.654   6.150
 9392POPC   C1A76791  34.617   2.754   6.450
 9392POPC   D2A76792  34.561   2.774   6.750
 9392POPC   C3A76793  34.531   2.746   7.050
 9392POPC   C4A76794  34.596   2.812   7.350
 9392POPC   C1B76795  34.578   2.556   6.450
 9392POPC   C2B76796  34.502   2.554   6.750
 9392POPC   C3B76797  34.523   2.498   7.050
 9392POPC   C4B76798  34.552   2.482   7.350
 9393POPC   NC376799  43.124  19.050   5.550
 9393POPC   PO476800  43.096  19.066   5.850
 9393POPC   GL176801  43.080  19.039   6.150
 9393POPC   GL276802  43.060  18.945   6.150
 9393POPC   C1A76803  43.105  19.083   6.450
 9393POPC   D2A76804  43.096  19.075   6.750
 9393POPC   C3A76805  43.158  19.021   7.050
 9393POPC   C4A76806  43.105  19.080   7.350
 9393POPC   C1B76807  42.967  18.784   6.450
 9393POPC   C2B76808  42.971  18.855   6.750
 9393POPC   C3B76809  43.044  18.868   7.050
 9393POPC   C4B76810  43.025  18.855   7.350
 9394POPC   NC376811  19.011  27.631   5.550
 9394POPC   PO476812  19.035  27.617   5.850
 9394POPC   GL176813  19.092  27.603   6.150
 9394POPC   GL276814  18.976  27.565   6.150
 9394POPC   C1A76815  19.100  27.595   6.450
 9394POPC   D2A76816  19.072  27.558   6.750
 9394POPC   C3A76817  19.086  27.576   7.050
 9394POPC   C4A76818  19.091  27.638   7.350
 9394POPC   C1B76819  18.846  27.565   6.450
 9394POPC   C2B76820  18.785  27.590   6.750
 9394POPC   C3B76821  18.784  27.578   7.050
 9394POPC   C4B76822  18.796  27.602   7.350
 9395POPC   NC376823  28.416  38.471   5.550
 9395POPC   PO476824  28.400  38.468   5.850
 9395POPC   GL176825  28.392  38.498   6.150
 9395POPC   GL276826  28.378  38.343   6.150
 9395POPC   C1A76827  28.343  38.450   6.450
 9395POPC   D2A76828  28.395  38.489   6.750
 9395POPC   C3A76829  28.362  38.431   7.050
 9395POPC   C4A76830  28.371  38.416   7.350
 9395POPC   C1B76831  28.381  38.167   6.450
 9395POPC   C2B76832  28.404  38.231   6.750
 9395POPC   C3B76833  28.376  38.244   7.050
 9395POPC   C4B76834  28.418  38.255   7.350
 9396POPC   NC376835  14.387  18.296   5.550
 9396POPC   PO476836  14.386  18.255   5.850
 9396POPC   GL176837  14.397  18.255   6.150
 9396POPC   GL276838  14.419  18.426   6.150
 9396POPC   C1A76839  14.433  18.253   6.450
 9396POPC   D2A76840  14.381  18.285   6.750
 9396POPC   C3A76841  14.375  18.292   7.050
 9396POPC   C4A76842  14.359  18.256   7.350
 9396POPC   C1B76843  14.513  18.491   6.450
 9396POPC   C2B76844  14.436  18.534   6.750
 9396POPC   C3B76845  14.460  18.502   7.050
 9396POPC   C4B76846  14.476  18.489   7.350
 9397POPC   NC376847  14.411  22.899   5.550
 9397POPC   PO476848  14.355  22.961   5.850
 9397POPC   GL176849  14.390  22.921   6.150
 9397POPC   GL276850  14.293  23.011   6.150
 9397POPC   C1A76851  14.415  22.951   6.450
 9397POPC   D2A76852  14.434  22.924   6.750
 9397POPC   C3A76853  14.359  22.910   7.050
 9397POPC   C4A76854  14.391  22.983   7.350
 9397POPC   C1B76855  14.230  23.069   6.450
 9397POPC   C2B76856  14.254  23.137   6.750
 9397POPC   C3B76857  14.224  23.118   7.050
 9397POPC   C4B76858  14.199  23.106   7.350
 9398POPC   NC376859  12.092  23.719   5.550
 9398POPC   PO476860  12.095  23.753   5.850
 9398POPC   GL176861  12.029  23.745   6.150
 9398POPC   GL276862  12.210  23.776   6.150
 9398POPC   C1A76863  12.030  23.725   6.450
 9398POPC   D2A76864  12.117  23.713   6.750
 9398POPC   C3A76865  12.046  23.700   7.050
 9398POPC   C4A76866  12.080  23.721   7.350
 9398POPC   C1B76867  12.250  23.812   6.450
 9398POPC   C2B76868  12.281  23.797   6.750
 9398POPC   C3B76869  12.253  23.846   7.050
 9398POPC   C4B76870  12.261  23.828   7.350
 9399POPC   NC376871  32.275  15.129   5.550
 9399POPC   PO476872  32.296  15.197   5.850
 9399POPC   GL176873  32.249  15.171   6.150
 9399POPC   GL276874  32.182  15.109   6.150
 9399POPC   C1A76875  32.201  15.165   6.450
 9399POPC   D2A76876  32.289  15.130   6.750
 9399POPC   C3A76877  32.225  15.216   7.050
 9399POPC   C4A76878  32.244  15.179   7.350
 9399POPC   C1B76879  32.046  15.028   6.450
 9399POPC   C2B76880  32.015  15.020   6.750
 9399POPC   C3B76881  32.025  15.085   7.050
 9399POPC   C4B76882  32.058  15.085   7.350
 9400POPC   NC376883  23.694  22.912   5.550
 9400POPC   PO476884  23.712  22.952   5.850
 9400POPC   GL176885  23.721  22.985   6.150
 9400POPC   GL276886  23.854  22.969   6.150
 9400POPC   C1A76887  23.712  22.949   6.450
 9400POPC   D2A76888  23.689  22.938   6.750
 9400POPC   C3A76889  23.727  22.924   7.050
 9400POPC   C4A76890  23.735  22.947   7.350
 9400POPC   C1B76891  23.972  22.920   6.450
 9400POPC   C2B76892  23.930  22.928   6.750
 9400POPC   C3B76893  23.996  22.950   7.050
 9400POPC   C4B76894  23.916  22.932   7.350
 9401POPC   NC376895  26.057   2.760   5.550
 9401POPC   PO476896  26.057   2.805   5.850
 9401POPC   GL176897  26.016   2.775   6.150
 9401POPC   GL276898  26.145   2.678   6.150
 9401POPC   C1A76899  26.056   2.805   6.450
 9401POPC   D2A76900  26.048   2.747   6.750
 9401POPC   C3A76901  26.067   2.793   7.050
 9401POPC   C4A76902  26.057   2.797   7.350
 9401POPC   C1B76903  26.228   2.689   6.450
 9401POPC   C2B76904  26.308   2.682   6.750
 9401POPC   C3B76905  26.247   2.658   7.050
 9401POPC   C4B76906  26.315   2.700   7.350
 9402POPC   NC376907   8.195   8.978   5.550
 9402POPC   PO476908   8.164   8.985   5.850
 9402POPC   GL176909   8.166   8.927   6.150
 9402POPC   GL276910   8.241   8.890   6.150
 9402POPC   C1A76911   8.220   8.979   6.450
 9402POPC   D2A76912   8.170   8.960   6.750
 9402POPC   C3A76913   8.226   8.948   7.050
 9402POPC   C4A76914   8.168   8.967   7.350
 9402POPC   C1B76915   8.307   8.799   6.450
 9402POPC   C2B76916   8.342   8.715   6.750
 9402POPC   C3B76917   8.315   8.754   7.050
 9402POPC   C4B76918   8.299   8.780   7.350
 9403POPC   NC376919   7.377  11.316   5.550
 9403POPC   PO476920   7.447  11.300   5.850
 9403POPC   GL176921   7.380  11.330   6.150
 9403POPC   GL276922   7.338  11.327   6.150
 9403POPC   C1A76923   7.452  11.302   6.450
 9403POPC   D2A76924   7.460  11.266   6.750
 9403POPC   C3A76925   7.436  11.329   7.050
 9403POPC   C4A76926   7.380  11.257   7.350
 9403POPC   C1B76927   7.132  11.225   6.450
 9403POPC   C2B76928   7.198  11.302   6.750
 9403POPC   C3B76929   7.158  11.238   7.050
 9403POPC   C4B76930   7.211  11.291   7.350
 9404POPC   NC376931  43.145   5.838   5.550
 9404POPC   PO476932  43.062   5.863   5.850
 9404POPC   GL176933  43.126   5.914   6.150
 9404POPC   GL276934  43.214   5.847   6.150
 9404POPC   C1A76935  43.135   5.822   6.450
 9404POPC   D2A76936  43.138   5.843   6.750
 9404POPC   C3A76937  43.145   5.859   7.050
 9404POPC   C4A76938  43.125   5.895   7.350
 9404POPC   C1B76939  43.381   5.796   6.450
 9404POPC   C2B76940  43.385   5.831   6.750
 9404POPC   C3B76941  43.374   5.780   7.050
 9404POPC   C4B76942  43.342   5.870   7.350
 9405POPC   NC376943  19.090  15.226   5.550
 9405POPC   PO476944  19.062  15.216   5.850
 9405POPC   GL176945  19.017  15.201   6.150
 9405POPC   GL276946  19.101  15.303   6.150
 9405POPC   C1A76947  19.104  15.170   6.450
 9405POPC   D2A76948  19.103  15.195   6.750
 9405POPC   C3A76949  19.098  15.181   7.050
 9405POPC   C4A76950  19.075  15.190   7.350
 9405POPC   C1B76951  19.266  15.328   6.450
 9405POPC   C2B76952  19.246  15.357   6.750
 9405POPC   C3B76953  19.233  15.407   7.050
 9405POPC   C4B76954  19.265  15.399   7.350
 9406POPC   NC376955  42.319  25.267   5.550
 9406POPC   PO476956  42.325  25.312   5.850
 9406POPC   GL176957  42.289  25.221   6.150
 9406POPC   GL276958  42.296  25.415   6.150
 9406POPC   C1A76959  42.285  25.295   6.450
 9406POPC   D2A76960  42.377  25.275   6.750
 9406POPC   C3A76961  42.359  25.224   7.050
 9406POPC   C4A76962  42.372  25.234   7.350
 9406POPC   C1B76963  42.211  25.514   6.450
 9406POPC   C2B76964  42.153  25.451   6.750
 9406POPC   C3B76965  42.212  25.467   7.050
 9406POPC   C4B76966  42.158  25.451   7.350
 9407POPC   NC376967  31.502  27.616   5.550
 9407POPC   PO476968  31.488  27.569   5.850
 9407POPC   GL176969  31.460  27.619   6.150
 9407POPC   GL276970  31.542  27.470   6.150
 9407POPC   C1A76971  31.461  27.550   6.450
 9407POPC   D2A76972  31.446  27.609   6.750
 9407POPC   C3A76973  31.467  27.643   7.050
 9407POPC   C4A76974  31.495  27.594   7.350
 9407POPC   C1B76975  31.612  27.414   6.450
 9407POPC   C2B76976  31.654  27.430   6.750
 9407POPC   C3B76977  31.617  27.366   7.050
 9407POPC   C4B76978  31.629  27.407   7.350
 9408POPC   NC376979  23.670   6.606   5.550
 9408POPC   PO476980  23.730   6.666   5.850
 9408POPC   GL176981  23.718   6.604   6.150
 9408POPC   GL276982  23.580   6.630   6.150
 9408POPC   C1A76983  23.699   6.686   6.450
 9408POPC   D2A76984  23.748   6.675   6.750
 9408POPC   C3A76985  23.721   6.615   7.050
 9408POPC   C4A76986  23.741   6.609   7.350
 9408POPC   C1B76987  23.466   6.619   6.450
 9408POPC   C2B76988  23.466   6.657   6.750
 9408POPC   C3B76989  23.490   6.681   7.050
 9408POPC   C4B76990  23.469   6.591   7.350
 9409POPC   NC376991  33.839  26.831   5.550
 9409POPC   PO476992  33.822  26.834   5.850
 9409POPC   GL176993  33.814  26.795   6.150
 9409POPC   GL276994  33.692  26.775   6.150
 9409POPC   C1A76995  33.772  26.805   6.450
 9409POPC   D2A76996  33.751  26.861   6.750
 9409POPC   C3A76997  33.793  26.801   7.050
 9409POPC   C4A76998  33.848  26.851   7.350
 9409POPC   C1B76999  33.524  26.748   6.450
 9409POPC   C2B77000  33.530  26.764   6.750
 9409POPC   C3B77001  33.525  26.784   7.050
 9409POPC   C4B77002  33.520  26.767   7.350
 9410POPC   NC377003  25.258  12.878   5.550
 9410POPC   PO477004  25.292  12.899   5.850
 9410POPC   GL177005  25.275  12.817   6.150
 9410POPC   GL277006  25.342  12.770   6.150
 9410POPC   C1A77007  25.218  12.873   6.450
 9410POPC   D2A77008  25.290  12.841   6.750
 9410POPC   C3A77009  25.291  12.814   7.050
 9410POPC   C4A77010  25.263  12.836   7.350
 9410POPC   C1B77011  25.474  12.765   6.450
 9410POPC   C2B77012  25.463  12.714   6.750
 9410POPC   C3B77013  25.495  12.777   7.050
 9410POPC   C4B77014  25.473  12.747   7.350
 9411POPC   NC377015  19.824  28.366   5.550
 9411POPC   PO477016  19.790  28.365   5.850
 9411POPC   GL177017  19.808  28.419   6.150
 9411POPC   GL277018  19.712  28.412   6.150
 9411POPC   C1A77019  19.816  28.368   6.450
 9411POPC   D2A77020  19.820  28.344   6.750
 9411POPC   C3A77021  19.833  28.363   7.050
 9411POPC   C4A77022  19.851  28.341   7.350
 9411POPC   C1B77023  19.666  28.574   6.450
 9411POPC   C2B77024  19.616  28.558   6.750
 9411POPC   C3B77025  19.620  28.495   7.050
 9411POPC   C4B77026  19.627  28.573   7.350
 9412POPC   NC377027  43.928  26.015   5.550
 9412POPC   PO477028  43.838  26.018   5.850
 9412POPC   GL177029  43.888  26.076   6.150
 9412POPC   GL277030  44.016  26.015   6.150
 9412POPC   C1A77031  43.884  25.997   6.450
 9412POPC   D2A77032  43.867  26.088   6.750
 9412POPC   C3A77033  43.840  26.023   7.050
 9412POPC   C4A77034  43.860  26.089   7.350
 9412POPC   C1B77035  44.062  25.888   6.450
 9412POPC   C2B77036  44.099  25.856   6.750
 9412POPC   C3B77037  44.120  25.944   7.050
 9412POPC   C4B77038  44.130  25.911   7.350
 9413POPC   NC377039  16.004  41.600   5.550
 9413POPC   PO477040  15.997  41.546   5.850
 9413POPC   GL177041  15.961  41.530   6.150
 9413POPC   GL277042  16.112  41.531   6.150
 9413POPC   C1A77043  15.981  41.550   6.450
 9413POPC   D2A77044  15.908  41.541   6.750
 9413POPC   C3A77045  15.906  41.537   7.050
 9413POPC   C4A77046  15.979  41.526   7.350
 9413POPC   C1B77047  16.164  41.492   6.450
 9413POPC   C2B77048  16.214  41.540   6.750
 9413POPC   C3B77049  16.227  41.568   7.050
 9413POPC   C4B77050  16.201  41.555   7.350
 9414POPC   NC377051  39.252  27.641   5.550
 9414POPC   PO477052  39.252  27.557   5.850
 9414POPC   GL177053  39.273  27.557   6.150
 9414POPC   GL277054  39.276  27.635   6.150
 9414POPC   C1A77055  39.251  27.569   6.450
 9414POPC   D2A77056  39.215  27.606   6.750
 9414POPC   C3A77057  39.214  27.551   7.050
 9414POPC   C4A77058  39.209  27.555   7.350
 9414POPC   C1B77059  39.434  27.783   6.450
 9414POPC   C2B77060  39.425  27.806   6.750
 9414POPC   C3B77061  39.427  27.730   7.050
 9414POPC   C4B77062  39.369  27.769   7.350
 9415POPC   NC377063  24.524  23.725   5.550
 9415POPC   PO477064  24.529  23.710   5.850
 9415POPC   GL177065  24.526  23.726   6.150
 9415POPC   GL277066  24.529  23.798   6.150
 9415POPC   C1A77067  24.521  23.666   6.450
 9415POPC   D2A77068  24.461  23.725   6.750
 9415POPC   C3A77069  24.521  23.690   7.050
 9415POPC   C4A77070  24.475  23.674   7.350
 9415POPC   C1B77071  24.661  23.860   6.450
 9415POPC   C2B77072  24.667  23.932   6.750
 9415POPC   C3B77073  24.695  23.875   7.050
 9415POPC   C4B77074  24.656  23.867   7.350
 9416POPC   NC377075  32.237   8.996   5.550
 9416POPC   PO477076  32.277   8.933   5.850
 9416POPC   GL177077  32.213   8.965   6.150
 9416POPC   GL277078  32.315   9.109   6.150
 9416POPC   C1A77079  32.270   8.985   6.450
 9416POPC   D2A77080  32.204   8.975   6.750
 9416POPC   C3A77081  32.204   9.017   7.050
 9416POPC   C4A77082  32.267   8.988   7.350
 9416POPC   C1B77083  32.252   9.243   6.450
 9416POPC   C2B77084  32.300   9.234   6.750
 9416POPC   C3B77085  32.314   9.249   7.050
 9416POPC   C4B77086  32.335   9.173   7.350
 9417POPC   NC377087  15.962  22.921   5.550
 9417POPC   PO477088  15.966  22.966   5.850
 9417POPC   GL177089  15.922  22.899   6.150
 9417POPC   GL277090  15.869  23.067   6.150
 9417POPC   C1A77091  15.917  22.975   6.450
 9417POPC   D2A77092  16.004  22.959   6.750
 9417POPC   C3A77093  15.960  22.980   7.050
 9417POPC   C4A77094  15.968  22.902   7.350
 9417POPC   C1B77095  15.762  23.179   6.450
 9417POPC   C2B77096  15.817  23.176   6.750
 9417POPC   C3B77097  15.766  23.150   7.050
 9417POPC   C4B77098  15.767  23.111   7.350
 9418POPC   NC377099  33.813   5.047   5.550
 9418POPC   PO477100  33.750   5.138   5.850
 9418POPC   GL177101  33.761   5.109   6.150
 9418POPC   GL277102  33.935   5.029   6.150
 9418POPC   C1A77103  33.805   5.108   6.450
 9418POPC   D2A77104  33.795   5.102   6.750
 9418POPC   C3A77105  33.843   5.088   7.050
 9418POPC   C4A77106  33.799   5.122   7.350
 9418POPC   C1B77107  34.000   5.010   6.450
 9418POPC   C2B77108  34.038   5.046   6.750
 9418POPC   C3B77109  34.002   5.011   7.050
 9418POPC   C4B77110  33.998   4.966   7.350
 9419POPC   NC377111  26.797  34.616   5.550
 9419POPC   PO477112  26.832  34.571   5.850
 9419POPC   GL177113  26.796  34.613   6.150
 9419POPC   GL277114  26.717  34.506   6.150
 9419POPC   C1A77115  26.821  34.570   6.450
 9419POPC   D2A77116  26.799  34.581   6.750
 9419POPC   C3A77117  26.799  34.567   7.050
 9419POPC   C4A77118  26.776  34.609   7.350
 9419POPC   C1B77119  26.700  34.349   6.450
 9419POPC   C2B77120  26.743  34.386   6.750
 9419POPC   C3B77121  26.716  34.317   7.050
 9419POPC   C4B77122  26.692  34.382   7.350
 9420POPC   NC377123  19.840  10.541   5.550
 9420POPC   PO477124  19.826  10.522   5.850
 9420POPC   GL177125  19.827  10.520   6.150
 9420POPC   GL277126  19.806  10.675   6.150
 9420POPC   C1A77127  19.839  10.510   6.450
 9420POPC   D2A77128  19.785  10.557   6.750
 9420POPC   C3A77129  19.838  10.477   7.050
 9420POPC   C4A77130  19.810  10.489   7.350
 9420POPC   C1B77131  19.687  10.795   6.450
 9420POPC   C2B77132  19.731  10.730   6.750
 9420POPC   C3B77133  19.706  10.782   7.050
 9420POPC   C4B77134  19.765  10.747   7.350
 9421POPC   NC377135  38.471  22.958   5.550
 9421POPC   PO477136  38.415  22.928   5.850
 9421POPC   GL177137  38.414  22.929   6.150
 9421POPC   GL277138  38.534  22.859   6.150
 9421POPC   C1A77139  38.492  22.959   6.450
 9421POPC   D2A77140  38.410  22.969   6.750
 9421POPC   C3A77141  38.433  22.893   7.050
 9421POPC   C4A77142  38.482  22.912   7.350
 9421POPC   C1B77143  38.673  22.768   6.450
 9421POPC   C2B77144  38.642  22.825   6.750
 9421POPC   C3B77145  38.678  22.835   7.050
 9421POPC   C4B77146  38.659  22.829   7.350
 9422POPC   NC377147   0.482  31.477   5.550
 9422POPC   PO477148   0.451  31.502   5.850
 9422POPC   GL177149   0.418  31.464   6.150
 9422POPC   GL277150   0.536  31.370   6.150
 9422POPC   C1A77151   0.414  31.442   6.450
 9422POPC   D2A77152   0.485  31.482   6.750
 9422POPC   C3A77153   0.394  31.479   7.050
 9422POPC   C4A77154   0.428  31.458   7.350
 9422POPC   C1B77155   0.624  31.284   6.450
 9422POPC   C2B77156   0.593  31.230   6.750
 9422POPC   C3B77157   0.566  31.315   7.050
 9422POPC   C4B77158   0.556  31.223   7.350
 9423POPC   NC377159  39.984  14.401   5.550
 9423POPC   PO477160  40.045  14.389   5.850
 9423POPC   GL177161  40.051  14.362   6.150
 9423POPC   GL277162  40.108  14.396   6.150
 9423POPC   C1A77163  40.004  14.396   6.450
 9423POPC   D2A77164  40.010  14.365   6.750
 9423POPC   C3A77165  40.056  14.392   7.050
 9423POPC   C4A77166  39.994  14.407   7.350
 9423POPC   C1B77167  40.212  14.372   6.450
 9423POPC   C2B77168  40.248  14.431   6.750
 9423POPC   C3B77169  40.212  14.366   7.050
 9423POPC   C4B77170  40.243  14.398   7.350
 9424POPC   NC377171  27.613  27.553   5.550
 9424POPC   PO477172  27.590  27.607   5.850
 9424POPC   GL177173  27.628  27.581   6.150
 9424POPC   GL277174  27.698  27.632   6.150
 9424POPC   C1A77175  27.599  27.607   6.450
 9424POPC   D2A77176  27.568  27.578   6.750
 9424POPC   C3A77177  27.628  27.598   7.050
 9424POPC   C4A77178  27.590  27.579   7.350
 9424POPC   C1B77179  27.832  27.706   6.450
 9424POPC   C2B77180  27.866  27.665   6.750
 9424POPC   C3B77181  27.786  27.650   7.050
 9424POPC   C4B77182  27.841  27.684   7.350
 9425POPC   NC377183   3.580  43.858   5.550
 9425POPC   PO477184   3.583  43.839   5.850
 9425POPC   GL177185   3.576  43.912   6.150
 9425POPC   GL277186   3.477  43.794   6.150
 9425POPC   C1A77187   3.522  43.877   6.450
 9425POPC   D2A77188   3.513  43.896   6.750
 9425POPC   C3A77189   3.506  43.875   7.050
 9425POPC   C4A77190   3.561  43.838   7.350
 9425POPC   C1B77191   3.391  43.677   6.450
 9425POPC   C2B77192   3.341  43.720   6.750
 9425POPC   C3B77193   3.400  43.716   7.050
 9425POPC   C4B77194   3.342  43.656   7.350
 9426POPC   NC377195  38.498  30.728   5.550
 9426POPC   PO477196  38.483  30.658   5.850
 9426POPC   GL177197  38.474  30.716   6.150
 9426POPC   GL277198  38.570  30.734   6.150
 9426POPC   C1A77199  38.470  30.708   6.450
 9426POPC   D2A77200  38.467  30.731   6.750
 9426POPC   C3A77201  38.406  30.694   7.050
 9426POPC   C4A77202  38.414  30.710   7.350
 9426POPC   C1B77203  38.635  30.862   6.450
 9426POPC   C2B77204  38.677  30.883   6.750
 9426POPC   C3B77205  38.659  30.907   7.050
 9426POPC   C4B77206  38.601  30.910   7.350
 9427POPC   NC377207  43.883   2.030   5.550
 9427POPC   PO477208  43.838   1.948   5.850
 9427POPC   GL177209  43.907   2.017   6.150
 9427POPC   GL277210  43.810   1.846   6.150
 9427POPC   C1A77211  43.839   1.950   6.450
 9427POPC   D2A77212  43.910   2.037   6.750
 9427POPC   C3A77213  43.842   1.957   7.050
 9427POPC   C4A77214  43.912   1.955   7.350
 9427POPC   C1B77215  43.709   1.736   6.450
 9427POPC   C2B77216  43.739   1.803   6.750
 9427POPC   C3B77217  43.709   1.780   7.050
 9427POPC   C4B77218  43.745   1.764   7.350
 9428POPC   NC377219   5.071  43.890   5.550
 9428POPC   PO477220   5.057  43.851   5.850
 9428POPC   GL177221   5.114  43.859   6.150
 9428POPC   GL277222   5.234  43.975   6.150
 9428POPC   C1A77223   5.101  43.843   6.450
 9428POPC   D2A77224   5.142  43.902   6.750
 9428POPC   C3A77225   5.121  43.900   7.050
 9428POPC   C4A77226   5.044  43.887   7.350
 9428POPC   C1B77227   5.276  44.000   6.450
 9428POPC   C2B77228   5.351  43.987   6.750
 9428POPC   C3B77229   5.275  43.978   7.050
 9428POPC   C4B77230   5.275  44.046   7.350
 9429POPC   NC377231  29.110  38.410   5.550
 9429POPC   PO477232  29.164  38.421   5.850
 9429POPC   GL177233  29.193  38.478   6.150
 9429POPC   GL277234  29.119  38.341   6.150
 9429POPC   C1A77235  29.114  38.424   6.450
 9429POPC   D2A77236  29.109  38.470   6.750
 9429POPC   C3A77237  29.150  38.448   7.050
 9429POPC   C4A77238  29.096  38.453   7.350
 9429POPC   C1B77239  29.080  38.199   6.450
 9429POPC   C2B77240  29.078  38.202   6.750
 9429POPC   C3B77241  29.131  38.254   7.050
 9429POPC   C4B77242  29.151  38.209   7.350
 9430POPC   NC377243  40.809  15.944   5.550
 9430POPC   PO477244  40.827  15.940   5.850
 9430POPC   GL177245  40.818  15.923   6.150
 9430POPC   GL277246  40.828  15.888   6.150
 9430POPC   C1A77247  40.827  15.987   6.450
 9430POPC   D2A77248  40.815  15.959   6.750
 9430POPC   C3A77249  40.816  15.918   7.050
 9430POPC   C4A77250  40.744  15.985   7.350
 9430POPC   C1B77251  40.910  15.732   6.450
 9430POPC   C2B77252  40.895  15.762   6.750
 9430POPC   C3B77253  40.936  15.721   7.050
 9430POPC   C4B77254  40.874  15.710   7.350
 9431POPC   NC377255   0.424   8.214   5.550
 9431POPC   PO477256   0.482   8.161   5.850
 9431POPC   GL177257   0.428   8.148   6.150
 9431POPC   GL277258   0.473   8.267   6.150
 9431POPC   C1A77259   0.420   8.162   6.450
 9431POPC   D2A77260   0.442   8.195   6.750
 9431POPC   C3A77261   0.403   8.189   7.050
 9431POPC   C4A77262   0.482   8.198   7.350
 9431POPC   C1B77263   0.571   8.402   6.450
 9431POPC   C2B77264   0.543   8.474   6.750
 9431POPC   C3B77265   0.513   8.441   7.050
 9431POPC   C4B77266   0.544   8.449   7.350
 9432POPC   NC377267  26.015  30.693   5.550
 9432POPC   PO477268  26.083  30.679   5.850
 9432POPC   GL177269  26.008  30.680   6.150
 9432POPC   GL277270  25.877  30.654   6.150
 9432POPC   C1A77271  26.025  30.659   6.450
 9432POPC   D2A77272  26.088  30.740   6.750
 9432POPC   C3A77273  26.059  30.725   7.050
 9432POPC   C4A77274  26.022  30.652   7.350
 9432POPC   C1B77275  25.746  30.670   6.450
 9432POPC   C2B77276  25.750  30.657   6.750
 9432POPC   C3B77277  25.762  30.682   7.050
 9432POPC   C4B77278  25.753  30.658   7.350
 9433POPC   NC377279  43.905  40.813   5.550
 9433POPC   PO477280  43.899  40.770   5.850
 9433POPC   GL177281  43.901  40.751   6.150
 9433POPC   GL277282  43.978  40.911   6.150
 9433POPC   C1A77283  43.871  40.758   6.450
 9433POPC   D2A77284  43.936  40.829   6.750
 9433POPC   C3A77285  43.897  40.760   7.050
 9433POPC   C4A77286  43.870  40.776   7.350
 9433POPC   C1B77287  44.039  40.926   6.450
 9433POPC   C2B77288  44.078  40.985   6.750
 9433POPC   C3B77289  44.062  40.933   7.050
 9433POPC   C4B77290  44.114  40.959   7.350
 9434POPC   NC377291  12.876  36.860   5.550
 9434POPC   PO477292  12.869  36.865   5.850
 9434POPC   GL177293  12.871  36.905   6.150
 9434POPC   GL277294  12.936  36.863   6.150
 9434POPC   C1A77295  12.844  36.863   6.450
 9434POPC   D2A77296  12.833  36.856   6.750
 9434POPC   C3A77297  12.883  36.855   7.050
 9434POPC   C4A77298  12.836  36.934   7.350
 9434POPC   C1B77299  13.066  36.837   6.450
 9434POPC   C2B77300  13.112  36.867   6.750
 9434POPC   C3B77301  13.089  36.835   7.050
 9434POPC   C4B77302  13.110  36.870   7.350
 9435POPC   NC377303  21.406  13.616   5.550
 9435POPC   PO477304  21.426  13.664   5.850
 9435POPC   GL177305  21.363  13.641   6.150
 9435POPC   GL277306  21.283  13.629   6.150
 9435POPC   C1A77307  21.361  13.661   6.450
 9435POPC   D2A77308  21.359  13.676   6.750
 9435POPC   C3A77309  21.379  13.658   7.050
 9435POPC   C4A77310  21.395  13.593   7.350
 9435POPC   C1B77311  21.105  13.745   6.450
 9435POPC   C2B77312  21.179  13.705   6.750
 9435POPC   C3B77313  21.107  13.688   7.050
 9435POPC   C4B77314  21.149  13.716   7.350
 9436POPC   NC377315  15.958  12.103   5.550
 9436POPC   PO477316  15.931  12.105   5.850
 9436POPC   GL177317  15.981  12.124   6.150
 9436POPC   GL277318  15.843  12.145   6.150
 9436POPC   C1A77319  15.960  12.038   6.450
 9436POPC   D2A77320  15.972  12.098   6.750
 9436POPC   C3A77321  15.993  12.077   7.050
 9436POPC   C4A77322  15.910  12.125   7.350
 9436POPC   C1B77323  15.770  12.190   6.450
 9436POPC   C2B77324  15.692  12.239   6.750
 9436POPC   C3B77325  15.778  12.194   7.050
 9436POPC   C4B77326  15.710  12.205   7.350
 9437POPC   NC377327  19.037  22.888   5.550
 9437POPC   PO477328  19.028  22.988   5.850
 9437POPC   GL177329  19.016  22.893   6.150
 9437POPC   GL277330  19.021  22.835   6.150
 9437POPC   C1A77331  19.035  22.911   6.450
 9437POPC   D2A77332  19.106  22.890   6.750
 9437POPC   C3A77333  19.073  22.941   7.050
 9437POPC   C4A77334  19.079  22.932   7.350
 9437POPC   C1B77335  19.053  22.638   6.450
 9437POPC   C2B77336  19.026  22.723   6.750
 9437POPC   C3B77337  19.044  22.673   7.050
 9437POPC   C4B77338  19.093  22.691   7.350
 9438POPC   NC377339  41.516  13.594   5.550
 9438POPC   PO477340  41.511  13.669   5.850
 9438POPC   GL177341  41.515  13.665   6.150
 9438POPC   GL277342  41.717  13.577   6.150
 9438POPC   C1A77343  41.521  13.606   6.450
 9438POPC   D2A77344  41.542  13.585   6.750
 9438POPC   C3A77345  41.568  13.619   7.050
 9438POPC   C4A77346  41.552  13.584   7.350
 9438POPC   C1B77347  41.823  13.582   6.450
 9438POPC   C2B77348  41.819  13.509   6.750
 9438POPC   C3B77349  41.757  13.511   7.050
 9438POPC   C4B77350  41.841  13.496   7.350
 9439POPC   NC377351  34.596   5.914   5.550
 9439POPC   PO477352  34.543   5.841   5.850
 9439POPC   GL177353  34.537   5.841   6.150
 9439POPC   GL277354  34.664   6.002   6.150
 9439POPC   C1A77355  34.604   5.907   6.450
 9439POPC   D2A77356  34.614   5.843   6.750
 9439POPC   C3A77357  34.599   5.856   7.050
 9439POPC   C4A77358  34.605   5.861   7.350
 9439POPC   C1B77359  34.762   6.049   6.450
 9439POPC   C2B77360  34.731   6.039   6.750
 9439POPC   C3B77361  34.673   6.110   7.050
 9439POPC   C4B77362  34.741   6.104   7.350
 9440POPC   NC377363  11.269  26.057   5.550
 9440POPC   PO477364  11.291  26.082   5.850
 9440POPC   GL177365  11.278  26.077   6.150
 9440POPC   GL277366  11.219  26.129   6.150
 9440POPC   C1A77367  11.342  26.003   6.450
 9440POPC   D2A77368  11.307  26.031   6.750
 9440POPC   C3A77369  11.264  26.022   7.050
 9440POPC   C4A77370  11.341  26.053   7.350
 9440POPC   C1B77371  11.255  26.296   6.450
 9440POPC   C2B77372  11.264  26.243   6.750
 9440POPC   C3B77373  11.226  26.289   7.050
 9440POPC   C4B77374  11.217  26.283   7.350
 9441POPC   NC377375  15.177  20.588   5.550
 9441POPC   PO477376  15.165  20.591   5.850
 9441POPC   GL177377  15.167  20.568   6.150
 9441POPC   GL277378  15.155  20.775   6.150
 9441POPC   C1A77379  15.218  20.581   6.450
 9441POPC   D2A77380  15.194  20.645   6.750
 9441POPC   C3A77381  15.229  20.595   7.050
 9441POPC   C4A77382  15.147  20.617   7.350
 9441POPC   C1B77383  15.239  20.896   6.450
 9441POPC   C2B77384  15.242  20.901   6.750
 9441POPC   C3B77385  15.146  20.881   7.050
 9441POPC   C4B77386  15.156  20.896   7.350
 9442POPC   NC377387  20.590   3.555   5.550
 9442POPC   PO477388  20.639   3.508   5.850
 9442POPC   GL177389  20.647   3.506   6.150
 9442POPC   GL277390  20.721   3.626   6.150
 9442POPC   C1A77391  20.564   3.546   6.450
 9442POPC   D2A77392  20.624   3.541   6.750
 9442POPC   C3A77393  20.597   3.509   7.050
 9442POPC   C4A77394  20.652   3.537   7.350
 9442POPC   C1B77395  20.837   3.651   6.450
 9442POPC   C2B77396  20.824   3.594   6.750
 9442POPC   C3B77397  20.861   3.623   7.050
 9442POPC   C4B77398  20.881   3.581   7.350
 9443POPC   NC377399   8.990  24.471   5.550
 9443POPC   PO477400   8.928  24.450   5.850
 9443POPC   GL177401   8.970  24.522   6.150
 9443POPC   GL277402   8.810  24.502   6.150
 9443POPC   C1A77403   9.020  24.507   6.450
 9443POPC   D2A77404   8.928  24.515   6.750
 9443POPC   C3A77405   9.013  24.534   7.050
 9443POPC   C4A77406   8.924  24.507   7.350
 9443POPC   C1B77407   8.766  24.444   6.450
 9443POPC   C2B77408   8.706  24.504   6.750
 9443POPC   C3B77409   8.741  24.453   7.050
 9443POPC   C4B77410   8.685  24.440   7.350
 9444POPC   NC377411  29.898  29.947   5.550
 9444POPC   PO477412  29.875  29.940   5.850
 9444POPC   GL177413  29.900  29.950   6.150
 9444POPC   GL277414  29.799  29.857   6.150
 9444POPC   C1A77415  29.967  29.920   6.450
 9444POPC   D2A77416  29.935  29.903   6.750
 9444POPC   C3A77417  29.914  29.952   7.050
 9444POPC   C4A77418  29.897  29.926   7.350
 9444POPC   C1B77419  29.654  29.788   6.450
 9444POPC   C2B77420  29.732  29.783   6.750
 9444POPC   C3B77421  29.711  29.766   7.050
 9444POPC   C4B77422  29.706  29.788   7.350
 9445POPC   NC377423  28.383  29.942   5.550
 9445POPC   PO477424  28.389  29.912   5.850
 9445POPC   GL177425  28.381  29.886   6.150
 9445POPC   GL277426  28.220  29.987   6.150
 9445POPC   C1A77427  28.367  29.883   6.450
 9445POPC   D2A77428  28.407  29.887   6.750
 9445POPC   C3A77429  28.371  29.904   7.050
 9445POPC   C4A77430  28.381  29.890   7.350
 9445POPC   C1B77431  28.134  30.053   6.450
 9445POPC   C2B77432  28.095  30.057   6.750
 9445POPC   C3B77433  28.110  29.992   7.050
 9445POPC   C4B77434  28.119  29.972   7.350
 9446POPC   NC377435  32.984  15.998   5.550
 9446POPC   PO477436  33.066  15.957   5.850
 9446POPC   GL177437  33.021  15.998   6.150
 9446POPC   GL277438  32.918  16.064   6.150
 9446POPC   C1A77439  32.997  16.001   6.450
 9446POPC   D2A77440  32.982  15.913   6.750
 9446POPC   C3A77441  32.991  15.909   7.050
 9446POPC   C4A77442  33.031  15.993   7.350
 9446POPC   C1B77443  32.863  16.077   6.450
 9446POPC   C2B77444  32.859  16.143   6.750
 9446POPC   C3B77445  32.829  16.140   7.050
 9446POPC   C4B77446  32.864  16.090   7.350
 9447POPC   NC377447  12.882  26.809   5.550
 9447POPC   PO477448  12.854  26.821   5.850
 9447POPC   GL177449  12.863  26.848   6.150
 9447POPC   GL277450  12.879  26.667   6.150
 9447POPC   C1A77451  12.805  26.820   6.450
 9447POPC   D2A77452  12.864  26.864   6.750
 9447POPC   C3A77453  12.835  26.825   7.050
 9447POPC   C4A77454  12.852  26.814   7.350
 9447POPC   C1B77455  12.917  26.621   6.450
 9447POPC   C2B77456  12.971  26.586   6.750
 9447POPC   C3B77457  12.982  26.631   7.050
 9447POPC   C4B77458  12.939  26.571   7.350
 9448POPC   NC377459  23.710   9.711   5.550
 9448POPC   PO477460  23.725   9.761   5.850
 9448POPC   GL177461  23.750   9.728   6.150
 9448POPC   GL277462  23.589   9.728   6.150
 9448POPC   C1A77463  23.734   9.744   6.450
 9448POPC   D2A77464  23.733   9.707   6.750
 9448POPC   C3A77465  23.718   9.739   7.050
 9448POPC   C4A77466  23.666   9.780   7.350
 9448POPC   C1B77467  23.469   9.691   6.450
 9448POPC   C2B77468  23.473   9.695   6.750
 9448POPC   C3B77469  23.513   9.640   7.050
 9448POPC   C4B77470  23.444   9.611   7.350
 9449POPC   NC377471  32.298   6.641   5.550
 9449POPC   PO477472  32.200   6.687   5.850
 9449POPC   GL177473  32.262   6.649   6.150
 9449POPC   GL277474  32.398   6.750   6.150
 9449POPC   C1A77475  32.231   6.665   6.450
 9449POPC   D2A77476  32.276   6.627   6.750
 9449POPC   C3A77477  32.259   6.648   7.050
 9449POPC   C4A77478  32.208   6.617   7.350
 9449POPC   C1B77479  32.456   6.768   6.450
 9449POPC   C2B77480  32.464   6.745   6.750
 9449POPC   C3B77481  32.508   6.792   7.050
 9449POPC   C4B77482  32.434   6.812   7.350
 9450POPC   NC377483  40.733  20.615   5.550
 9450POPC   PO477484  40.735  20.607   5.850
 9450POPC   GL177485  40.773  20.584   6.150
 9450POPC   GL277486  40.654  20.490   6.150
 9450POPC   C1A77487  40.777  20.571   6.450
 9450POPC   D2A77488  40.783  20.652   6.750
 9450POPC   C3A77489  40.737  20.649   7.050
 9450POPC   C4A77490  40.741  20.612   7.350
 9450POPC   C1B77491  40.573  20.439   6.450
 9450POPC   C2B77492  40.633  20.487   6.750
 9450POPC   C3B77493  40.559  20.437   7.050
 9450POPC   C4B77494  40.594  20.494   7.350
 9451POPC   NC377495  35.327  26.829   5.550
 9451POPC   PO477496  35.400  26.838   5.850
 9451POPC   GL177497  35.357  26.807   6.150
 9451POPC   GL277498  35.349  26.643   6.150
 9451POPC   C1A77499  35.341  26.769   6.450
 9451POPC   D2A77500  35.336  26.835   6.750
 9451POPC   C3A77501  35.346  26.781   7.050
 9451POPC   C4A77502  35.330  26.832   7.350
 9451POPC   C1B77503  35.374  26.557   6.450
 9451POPC   C2B77504  35.399  26.612   6.750
 9451POPC   C3B77505  35.373  26.554   7.050
 9451POPC   C4B77506  35.326  26.519   7.350
 9452POPC   NC377507  41.608  24.509   5.550
 9452POPC   PO477508  41.541  24.471   5.850
 9452POPC   GL177509  41.525  24.514   6.150
 9452POPC   GL277510  41.418  24.509   6.150
 9452POPC   C1A77511  41.540  24.498   6.450
 9452POPC   D2A77512  41.566  24.453   6.750
 9452POPC   C3A77513  41.543  24.481   7.050
 9452POPC   C4A77514  41.574  24.481   7.350
 9452POPC   C1B77515  41.351  24.427   6.450
 9452POPC   C2B77516  41.282  24.486   6.750
 9452POPC   C3B77517  41.327  24.400   7.050
 9452POPC   C4B77518  41.271  24.449   7.350
 9453POPC   NC377519  19.867  26.864   5.550
 9453POPC   PO477520  19.811  26.781   5.850
 9453POPC   GL177521  19.798  26.770   6.150
 9453POPC   GL277522  19.854  26.966   6.150
 9453POPC   C1A77523  19.813  26.778   6.450
 9453POPC   D2A77524  19.835  26.775   6.750
 9453POPC   C3A77525  19.785  26.833   7.050
 9453POPC   C4A77526  19.813  26.823   7.350
 9453POPC   C1B77527  19.742  27.061   6.450
 9453POPC   C2B77528  19.833  27.065   6.750
 9453POPC   C3B77529  19.774  27.036   7.050
 9453POPC   C4B77530  19.770  27.049   7.350
 9454POPC   NC377531  26.865  29.112   5.550
 9454POPC   PO477532  26.850  29.188   5.850
 9454POPC   GL177533  26.855  29.178   6.150
 9454POPC   GL277534  26.809  29.220   6.150
 9454POPC   C1A77535  26.837  29.188   6.450
 9454POPC   D2A77536  26.798  29.110   6.750
 9454POPC   C3A77537  26.822  29.139   7.050
 9454POPC   C4A77538  26.777  29.171   7.350
 9454POPC   C1B77539  26.891  29.349   6.450
 9454POPC   C2B77540  26.817  29.371   6.750
 9454POPC   C3B77541  26.872  29.384   7.050
 9454POPC   C4B77542  26.820  29.376   7.350
 9455POPC   NC377543  37.720  42.311   5.550
 9455POPC   PO477544  37.704  42.360   5.850
 9455POPC   GL177545  37.687  42.381   6.150
 9455POPC   GL277546  37.712  42.213   6.150
 9455POPC   C1A77547  37.688  42.346   6.450
 9455POPC   D2A77548  37.655  42.376   6.750
 9455POPC   C3A77549  37.664  42.367   7.050
 9455POPC   C4A77550  37.650  42.322   7.350
 9455POPC   C1B77551  37.681  42.071   6.450
 9455POPC   C2B77552  37.688  42.118   6.750
 9455POPC   C3B77553  37.725  42.089   7.050
 9455POPC   C4B77554  37.776  42.104   7.350
 9456POPC   NC377555  42.353  36.920   5.550
 9456POPC   PO477556  42.307  36.929   5.850
 9456POPC   GL177557  42.325  36.860   6.150
 9456POPC   GL277558  42.393  37.052   6.150
 9456POPC   C1A77559  42.307  36.889   6.450
 9456POPC   D2A77560  42.344  36.913   6.750
 9456POPC   C3A77561  42.339  36.875   7.050
 9456POPC   C4A77562  42.334  36.891   7.350
 9456POPC   C1B77563  42.508  37.100   6.450
 9456POPC   C2B77564  42.432  37.148   6.750
 9456POPC   C3B77565  42.453  37.117   7.050
 9456POPC   C4B77566  42.478  37.156   7.350
 9457POPC   NC377567   2.753  36.926   5.550
 9457POPC   PO477568   2.802  36.935   5.850
 9457POPC   GL177569   2.790  36.923   6.150
 9457POPC   GL277570   2.628  36.915   6.150
 9457POPC   C1A77571   2.718  36.906   6.450
 9457POPC   D2A77572   2.798  36.920   6.750
 9457POPC   C3A77573   2.762  36.858   7.050
 9457POPC   C4A77574   2.808  36.908   7.350
 9457POPC   C1B77575   2.504  36.796   6.450
 9457POPC   C2B77576   2.508  36.798   6.750
 9457POPC   C3B77577   2.511  36.812   7.050
 9457POPC   C4B77578   2.514  36.833   7.350
 9458POPC   NC377579  36.120  13.607   5.550
 9458POPC   PO477580  36.163  13.640   5.850
 9458POPC   GL177581  36.079  13.598   6.150
 9458POPC   GL277582  36.213  13.549   6.150
 9458POPC   C1A77583  36.090  13.602   6.450
 9458POPC   D2A77584  36.136  13.640   6.750
 9458POPC   C3A77585  36.110  13.648   7.050
 9458POPC   C4A77586  36.078  13.609   7.350
 9458POPC   C1B77587  36.214  13.392   6.450
 9458POPC   C2B77588  36.227  13.419   6.750
 9458POPC   C3B77589  36.207  13.402   7.050
 9458POPC   C4B77590  36.213  13.443   7.350
 9459POPC   NC377591  27.626   7.442   5.550
 9459POPC   PO477592  27.584   7.440   5.850
 9459POPC   GL177593  27.562   7.446   6.150
 9459POPC   GL277594  27.464   7.491   6.150
 9459POPC   C1A77595  27.579   7.446   6.450
 9459POPC   D2A77596  27.630   7.392   6.750
 9459POPC   C3A77597  27.543   7.393   7.050
 9459POPC   C4A77598  27.612   7.410   7.350
 9459POPC   C1B77599  27.449   7.557   6.450
 9459POPC   C2B77600  27.454   7.575   6.750
 9459POPC   C3B77601  27.363   7.582   7.050
 9459POPC   C4B77602  27.453   7.615   7.350
 9460POPC   NC377603   7.381  33.047   5.550
 9460POPC   PO477604   7.384  33.060   5.850
 9460POPC   GL177605   7.456  33.047   6.150
 9460POPC   GL277606   7.546  32.948   6.150
 9460POPC   C1A77607   7.468  33.064   6.450
 9460POPC   D2A77608   7.380  33.031   6.750
 9460POPC   C3A77609   7.413  33.054   7.050
 9460POPC   C4A77610   7.405  33.023   7.350
 9460POPC   C1B77611   7.610  32.976   6.450
 9460POPC   C2B77612   7.611  32.971   6.750
 9460POPC   C3B77613   7.675  32.977   7.050
 9460POPC   C4B77614   7.629  32.917   7.350
 9461POPC   NC377615  27.569  22.966   5.550
 9461POPC   PO477616  27.641  22.970   5.850
 9461POPC   GL177617  27.619  22.948   6.150
 9461POPC   GL277618  27.672  23.039   6.150
 9461POPC   C1A77619  27.567  22.972   6.450
 9461POPC   D2A77620  27.561  22.935   6.750
 9461POPC   C3A77621  27.597  22.985   7.050
 9461POPC   C4A77622  27.642  22.952   7.350
 9461POPC   C1B77623  27.776  23.127   6.450
 9461POPC   C2B77624  27.788  23.066   6.750
 9461POPC   C3B77625  27.777  23.083   7.050
 9461POPC   C4B77626  27.744  23.129   7.350
 9462POPC   NC377627  16.701  31.426   5.550
 9462POPC   PO477628  16.750  31.470   5.850
 9462POPC   GL177629  16.689  31.460   6.150
 9462POPC   GL277630  16.584  31.440   6.150
 9462POPC   C1A77631  16.732  31.497   6.450
 9462POPC   D2A77632  16.740  31.498   6.750
 9462POPC   C3A77633  16.733  31.497   7.050
 9462POPC   C4A77634  16.717  31.427   7.350
 9462POPC   C1B77635  16.523  31.353   6.450
 9462POPC   C2B77636  16.547  31.359   6.750
 9462POPC   C3B77637  16.526  31.346   7.050
 9462POPC   C4B77638  16.482  31.379   7.350
 9463POPC   NC377639  25.231   3.530   5.550
 9463POPC   PO477640  25.305   3.515   5.850
 9463POPC   GL177641  25.244   3.576   6.150
 9463POPC   GL277642  25.399   3.452   6.150
 9463POPC   C1A77643  25.251   3.582   6.450
 9463POPC   D2A77644  25.243   3.535   6.750
 9463POPC   C3A77645  25.299   3.574   7.050
 9463POPC   C4A77646  25.248   3.542   7.350
 9463POPC   C1B77647  25.474   3.359   6.450
 9463POPC   C2B77648  25.390   3.369   6.750
 9463POPC   C3B77649  25.446   3.369   7.050
 9463POPC   C4B77650  25.437   3.395   7.350
 9464POPC   NC377651  22.959  34.551   5.550
 9464POPC   PO477652  22.927  34.623   5.850
 9464POPC   GL177653  22.967  34.541   6.150
 9464POPC   GL277654  22.893  34.680   6.150
 9464POPC   C1A77655  22.987  34.553   6.450
 9464POPC   D2A77656  22.975  34.562   6.750
 9464POPC   C3A77657  22.957  34.574   7.050
 9464POPC   C4A77658  22.930  34.606   7.350
 9464POPC   C1B77659  22.812  34.724   6.450
 9464POPC   C2B77660  22.834  34.730   6.750
 9464POPC   C3B77661  22.831  34.779   7.050
 9464POPC   C4B77662  22.748  34.742   7.350
 9465POPC   NC377663   3.552  30.671   5.550
 9465POPC   PO477664   3.499  30.681   5.850
 9465POPC   GL177665   3.543  30.712   6.150
 9465POPC   GL277666   3.453  30.777   6.150
 9465POPC   C1A77667   3.581  30.716   6.450
 9465POPC   D2A77668   3.562  30.746   6.750
 9465POPC   C3A77669   3.564  30.647   7.050
 9465POPC   C4A77670   3.543  30.715   7.350
 9465POPC   C1B77671   3.373  30.886   6.450
 9465POPC   C2B77672   3.370  30.902   6.750
 9465POPC   C3B77673   3.375  30.829   7.050
 9465POPC   C4B77674   3.326  30.879   7.350
 9466POPC   NC377675  16.718  33.005   5.550
 9466POPC   PO477676  16.694  33.027   5.850
 9466POPC   GL177677  16.776  33.043   6.150
 9466POPC   GL277678  16.855  33.054   6.150
 9466POPC   C1A77679  16.765  32.992   6.450
 9466POPC   D2A77680  16.681  32.997   6.750
 9466POPC   C3A77681  16.686  33.023   7.050
 9466POPC   C4A77682  16.765  33.019   7.350
 9466POPC   C1B77683  16.974  33.011   6.450
 9466POPC   C2B77684  17.025  33.026   6.750
 9466POPC   C3B77685  16.957  33.060   7.050
 9466POPC   C4B77686  16.964  33.019   7.350
 9467POPC   NC377687  15.185  40.822   5.550
 9467POPC   PO477688  15.132  40.822   5.850
 9467POPC   GL177689  15.195  40.796   6.150
 9467POPC   GL277690  15.077  40.897   6.150
 9467POPC   C1A77691  15.167  40.792   6.450
 9467POPC   D2A77692  15.142  40.782   6.750
 9467POPC   C3A77693  15.134  40.788   7.050
 9467POPC   C4A77694  15.211  40.761   7.350
 9467POPC   C1B77695  15.066  41.009   6.450
 9467POPC   C2B77696  15.073  41.022   6.750
 9467POPC   C3B77697  15.003  40.960   7.050
 9467POPC   C4B77698  14.986  40.985   7.350
 9468POPC   NC377699  37.647  14.365   5.550
 9468POPC   PO477700  37.656  14.414   5.850
 9468POPC   GL177701  37.658  14.429   6.150
 9468POPC   GL277702  37.587  14.545   6.150
 9468POPC   C1A77703  37.695  14.388   6.450
 9468POPC   D2A77704  37.683  14.421   6.750
 9468POPC   C3A77705  37.702  14.402   7.050
 9468POPC   C4A77706  37.691  14.364   7.350
 9468POPC   C1B77707  37.585  14.653   6.450
 9468POPC   C2B77708  37.539  14.621   6.750
 9468POPC   C3B77709  37.601  14.624   7.050
 9468POPC   C4B77710  37.583  14.652   7.350
 9469POPC   NC377711  25.269  20.648   5.550
 9469POPC   PO477712  25.279  20.607   5.850
 9469POPC   GL177713  25.307  20.659   6.150
 9469POPC   GL277714  25.256  20.750   6.150
 9469POPC   C1A77715  25.224  20.600   6.450
 9469POPC   D2A77716  25.222  20.649   6.750
 9469POPC   C3A77717  25.285  20.590   7.050
 9469POPC   C4A77718  25.272  20.629   7.350
 9469POPC   C1B77719  25.274  20.909   6.450
 9469POPC   C2B77720  25.304  20.854   6.750
 9469POPC   C3B77721  25.281  20.839   7.050
 9469POPC   C4B77722  25.298  20.814   7.350
 9470POPC   NC377723  24.514  43.117   5.550
 9470POPC   PO477724  24.515  43.136   5.850
 9470POPC   GL177725  24.466  43.133   6.150
 9470POPC   GL277726  24.521  43.231   6.150
 9470POPC   C1A77727  24.471  43.062   6.450
 9470POPC   D2A77728  24.506  43.154   6.750
 9470POPC   C3A77729  24.458  43.104   7.050
 9470POPC   C4A77730  24.507  43.138   7.350
 9470POPC   C1B77731  24.509  43.322   6.450
 9470POPC   C2B77732  24.481  43.353   6.750
 9470POPC   C3B77733  24.471  43.375   7.050
 9470POPC   C4B77734  24.463  43.388   7.350
 9471POPC   NC377735  39.965  40.033   5.550
 9471POPC   PO477736  40.053  40.037   5.850
 9471POPC   GL177737  39.992  39.991   6.150
 9471POPC   GL277738  40.093  40.028   6.150
 9471POPC   C1A77739  39.987  40.047   6.450
 9471POPC   D2A77740  39.959  40.009   6.750
 9471POPC   C3A77741  40.052  40.029   7.050
 9471POPC   C4A77742  40.039  40.002   7.350
 9471POPC   C1B77743  40.257  40.142   6.450
 9471POPC   C2B77744  40.231  40.091   6.750
 9471POPC   C3B77745  40.237  40.068   7.050
 9471POPC   C4B77746  40.252  40.079   7.350
 9472POPC   NC377747   5.116  19.810   5.550
 9472POPC   PO477748   5.129  19.810   5.850
 9472POPC   GL177749   5.099  19.825   6.150
 9472POPC   GL277750   5.231  19.925   6.150
 9472POPC   C1A77751   5.082  19.864   6.450
 9472POPC   D2A77752   5.102  19.877   6.750
 9472POPC   C3A77753   5.086  19.801   7.050
 9472POPC   C4A77754   5.060  19.794   7.350
 9472POPC   C1B77755   5.266  19.989   6.450
 9472POPC   C2B77756   5.323  19.978   6.750
 9472POPC   C3B77757   5.265  19.959   7.050
 9472POPC   C4B77758   5.340  19.933   7.350
 9473POPC   NC377759  13.616   5.835   5.550
 9473POPC   PO477760  13.664   5.846   5.850
 9473POPC   GL177761  13.674   5.898   6.150
 9473POPC   GL277762  13.714   5.878   6.150
 9473POPC   C1A77763  13.578   5.911   6.450
 9473POPC   D2A77764  13.578   5.825   6.750
 9473POPC   C3A77765  13.637   5.845   7.050
 9473POPC   C4A77766  13.595   5.831   7.350
 9473POPC   C1B77767  13.865   5.908   6.450
 9473POPC   C2B77768  13.918   5.863   6.750
 9473POPC   C3B77769  13.904   5.837   7.050
 9473POPC   C4B77770  13.912   5.838   7.350
 9474POPC   NC377771  25.267  21.352   5.550
 9474POPC   PO477772  25.254  21.419   5.850
 9474POPC   GL177773  25.294  21.364   6.150
 9474POPC   GL277774  25.355  21.480   6.150
 9474POPC   C1A77775  25.216  21.360   6.450
 9474POPC   D2A77776  25.233  21.429   6.750
 9474POPC   C3A77777  25.289  21.375   7.050
 9474POPC   C4A77778  25.218  21.385   7.350
 9474POPC   C1B77779  25.445  21.513   6.450
 9474POPC   C2B77780  25.496  21.575   6.750
 9474POPC   C3B77781  25.424  21.577   7.050
 9474POPC   C4B77782  25.419  21.570   7.350
 9475POPC   NC377783  35.353  31.440   5.550
 9475POPC   PO477784  35.347  31.514   5.850
 9475POPC   GL177785  35.309  31.435   6.150
 9475POPC   GL277786  35.229  31.434   6.150
 9475POPC   C1A77787  35.311  31.436   6.450
 9475POPC   D2A77788  35.376  31.481   6.750
 9475POPC   C3A77789  35.390  31.426   7.050
 9475POPC   C4A77790  35.317  31.432   7.350
 9475POPC   C1B77791  35.161  31.383   6.450
 9475POPC   C2B77792  35.109  31.388   6.750
 9475POPC   C3B77793  35.099  31.414   7.050
 9475POPC   C4B77794  35.114  31.351   7.350
 9476POPC   NC377795  23.668   7.381   5.550
 9476POPC   PO477796  23.671   7.421   5.850
 9476POPC   GL177797  23.683   7.392   6.150
 9476POPC   GL277798  23.593   7.406   6.150
 9476POPC   C1A77799  23.670   7.382   6.450
 9476POPC   D2A77800  23.674   7.390   6.750
 9476POPC   C3A77801  23.724   7.464   7.050
 9476POPC   C4A77802  23.737   7.425   7.350
 9476POPC   C1B77803  23.451   7.254   6.450
 9476POPC   C2B77804  23.495   7.333   6.750
 9476POPC   C3B77805  23.516   7.263   7.050
 9476POPC   C4B77806  23.547   7.330   7.350
 9477POPC   NC377807  43.156  41.553   5.550
 9477POPC   PO477808  43.094  41.531   5.850
 9477POPC   GL177809  43.149  41.562   6.150
 9477POPC   GL277810  43.251  41.598   6.150
 9477POPC   C1A77811  43.102  41.527   6.450
 9477POPC   D2A77812  43.066  41.520   6.750
 9477POPC   C3A77813  43.159  41.529   7.050
 9477POPC   C4A77814  43.144  41.513   7.350
 9477POPC   C1B77815  43.311  41.602   6.450
 9477POPC   C2B77816  43.321  41.551   6.750
 9477POPC   C3B77817  43.354  41.540   7.050
 9477POPC   C4B77818  43.395  41.536   7.350
 9478POPC   NC377819  26.829   5.831   5.550
 9478POPC   PO477820  26.784   5.820   5.850
 9478POPC   GL177821  26.842   5.828   6.150
 9478POPC   GL277822  26.841   6.026   6.150
 9478POPC   C1A77823  26.814   5.842   6.450
 9478POPC   D2A77824  26.780   5.851   6.750
 9478POPC   C3A77825  26.842   5.871   7.050
 9478POPC   C4A77826  26.866   5.869   7.350
 9478POPC   C1B77827  26.756   6.072   6.450
 9478POPC   C2B77828  26.816   6.153   6.750
 9478POPC   C3B77829  26.808   6.133   7.050
 9478POPC   C4B77830  26.824   6.120   7.350
 9479POPC   NC377831  37.704  33.074   5.550
 9479POPC   PO477832  37.711  33.025   5.850
 9479POPC   GL177833  37.649  33.017   6.150
 9479POPC   GL277834  37.738  32.953   6.150
 9479POPC   C1A77835  37.654  33.008   6.450
 9479POPC   D2A77836  37.651  33.034   6.750
 9479POPC   C3A77837  37.655  33.066   7.050
 9479POPC   C4A77838  37.630  33.068   7.350
 9479POPC   C1B77839  37.810  32.802   6.450
 9479POPC   C2B77840  37.824  32.807   6.750
 9479POPC   C3B77841  37.815  32.855   7.050
 9479POPC   C4B77842  37.803  32.828   7.350
 9480POPC   NC377843  25.307   1.221   5.550
 9480POPC   PO477844  25.225   1.257   5.850
 9480POPC   GL177845  25.285   1.185   6.150
 9480POPC   GL277846  25.263   1.384   6.150
 9480POPC   C1A77847  25.272   1.255   6.450
 9480POPC   D2A77848  25.273   1.248   6.750
 9480POPC   C3A77849  25.308   1.179   7.050
 9480POPC   C4A77850  25.227   1.209   7.350
 9480POPC   C1B77851  25.318   1.487   6.450
 9480POPC   C2B77852  25.264   1.513   6.750
 9480POPC   C3B77853  25.236   1.469   7.050
 9480POPC   C4B77854  25.299   1.505   7.350
 9481W        W77855  40.468   6.805  11.865
 9482W        W77856   2.345  25.546  13.493
 9483W        W77857  11.241   2.830   3.767
 9484W        W77858  20.216  33.030   4.789
 9485W        W77859  39.411   2.238  10.432
 9486W        W77860  15.790  28.645  14.866
 9487W        W77861  32.969  15.623  10.464
 9488W        W77862  12.213  16.566   2.836
 9489W        W77863  11.760  23.611   0.940
 9490W        W77864   2.754  24.555   2.900
 9491W        W77865  10.814  31.409  10.523
 9492W        W77866   4.307  30.104  11.991
 9493W        W77867  38.072   4.372  14.485
 9494W        W77868   1.313  36.381  10.624
 9495W        W77869   1.731  19.548   0.270
 9496W        W77870  32.436  12.777  14.323
 9497W        W77871   3.940  18.086  13.399
 9498W        W77872   5.696  13.649   4.240
 9499W        W77873  23.126  36.046   1.830
 9500W        W77874  32.637  28.043  13.544
 9501W        W77875  26.564   7.853   2.390
 9502W        W77876  42.500  33.489   0.255
 9503W        W77877  39.919  42.405  13.936
 9504W        W77878  32.041  11.653  13.839
 9505W        W77879  27.108  16.124   4.277
 9506W        W77880  24.007  14.118   3.788
 9507W        W77881  22.646  37.926  11.465
 9508W        W77882   8.207   0.769  10.984
 9509W        W77883  26.189  21.164   1.222
 9510W        W77884  44.270  27.942   0.940
 9511W        W77885  16.090  39.873  11.567
 9512W        W77886  10.796   1.370  14.452
 9513W        W77887  28.957  40.315  11.395
 9514W        W77888   0.970  42.997  12.439
 9515W        W77889  16.678  30.581   0.755
 9516W        W77890  36.561  16.278  14.012
 9517W        W77891  40.434  10.275  12.979
 9518W        W77892  12.291  22.545  14.952
 9519W        W77893  10.753  14.660  11.073
 9520W        W77894  15.242  38.540  11.468
 9521W        W77895  10.752   7.668   0.293
 9522W        W77896  40.877  42.893   3.262
 9523W        W77897  14.756   0.252  14.888
 9524W        W77898  37.364  29.472   2.818
 9525W        W77899  26.185   6.815   2.195
 9526W        W77900  36.923  28.999   2.270
 9527W        W77901  27.166  19.267  12.078
 9528W        W77902  43.792   2.280   1.421
 9529W        W77903  14.163   5.687  11.604
 9530W        W77904  15.245  25.026  12.354
 9531W        W77905  25.988  40.951  12.081
 9532W        W77906  36.037  10.363  13.854
 9533W        W77907   2.238  30.418  14.857
 9534W        W77908  37.907  29.450  10.931
 9535W        W77909  43.812  24.688  10.464
 9536W        W77910   3.400  42.307  11.914
 9537W        W77911  11.233  10.814  13.461
 9538W        W77912  30.416  10.816   1.279
 9539W        W77913  19.223  39.444  12.893
 9540W        W77914  30.097  14.245   2.794
 9541W        W77915   4.769   9.860   3.224
 9542W        W77916  24.140  33.901   1.216
 9543W        W77917  31.061  43.459   0.299
 9544W        W77918  12.784  25.216   4.163
 9545W        W77919  38.830  31.595  14.399
 9546W        W77920   1.318  34.408  13.425
 9547W        W77921  12.181   6.285  10.992
 9548W        W77922  32.916  25.676  12.473
 9549W        W77923  38.025  26.573  14.437
 9550W        W77924  33.910  28.130  12.395
 9551W        W77925   4.320   8.836   0.471
 9552W        W77926  27.158  38.367   1.298
 9553W        W77927  38.883  26.092  10.575
 9554W        W77928  24.481  17.588  10.905
 9555W        W77929  15.246   3.448   1.362
 9556W        W77930  24.150   7.397   0.850
 9557W        W77931  31.119  44.892   0.935
 9558W        W77932  28.464  43.306   2.736
 9559W        W77933  16.807  24.560   3.861
 9560W        W77934   3.900   4.391  12.916
 9561W        W77935   3.344  21.047   3.654
 9562W        W77936  38.012   5.195   0.916
 9563W        W77937   2.295  29.957  12.402
 9564W        W77938  16.307  26.526   4.656
 9565W        W77939  29.567  26.952   0.297
 9566W        W77940  13.676  19.642  12.019
 9567W        W77941   5.783  21.263   4.124
 9568W        W77942  42.815  11.316   1.759
 9569W        W77943  21.588  38.378   4.341
 9570W        W77944  19.682   6.799   0.943
 9571W        W77945   5.787   2.868  13.540
 9572W        W77946  30.072   4.330   0.942
 9573W        W77947  25.037  22.747   1.404
 9574W        W77948   1.824  30.450  14.894
 9575W        W77949  18.051  30.413  12.426
 9576W        W77950  32.553   8.889  14.818
 9577W        W77951  42.497   7.371   0.328
 9578W        W77952  20.676  23.137   1.847
 9579W        W77953  33.580   3.831   1.406
 9580W        W77954  19.210  33.416  14.765
 9581W        W77955  24.140  26.964  11.108
 9582W        W77956  23.098  42.322   0.932
 9583W        W77957  15.110  34.431   2.794
 9584W        W77958  18.265   0.361   0.908
 9585W        W77959  15.174  43.768   2.312
 9586W        W77960  12.766  11.818  12.495
 9587W        W77961  15.202   7.244   4.220
 9588W        W77962   6.840   6.408   4.283
 9589W        W77963  34.523  40.997   1.400
 9590W        W77964  19.723  32.889   3.731
 9591W        W77965  22.076  30.613   1.852
 9592W        W77966  38.996   4.865   4.720
 9593W        W77967  37.467   0.978  10.417
 9594W        W77968  18.122   5.702   4.192
 9595W        W77969  15.242  39.321   0.931
 9596W        W77970  14.676   0.768   0.891
 9597W        W77971  16.298  26.479   3.799
 9598W        W77972  13.176   9.857  10.422
 9599W        W77973  38.557   6.182  12.424
 9600W        W77974  15.153  43.358  14.015
 9601W        W77975  21.524   2.352  13.323
 9602W        W77976  35.359  13.613   1.419
 9603W        W77977  14.751  10.143  13.347
 9604W        W77978  44.802  29.175  14.428
 9605W        W77979   6.732  24.631  13.856
 9606W        W77980  37.952  41.933  13.997
 9607W        W77981   0.781  25.703   2.859
 9608W        W77982  26.563  13.204   4.320
 9609W        W77983  30.642  17.088  14.310
 9610W        W77984  30.628  29.998   4.661
 9611W        W77985  37.854  41.435  14.378
 9612W        W77986  10.766  36.379  11.379
 9613W        W77987  24.563   5.286   1.723
 9614W        W77988  18.080  19.732   4.243
 9615W        W77989   0.846  38.877  14.473
 9616W        W77990  16.195  12.626  13.342
 9617W        W77991  14.272  19.060   1.249
 9618W        W77992  30.135  20.713   2.302
 9619W        W77993   3.753  29.918   0.862
 9620W        W77994   4.335  10.345   0.879
 9621W        W77995   6.799   6.694  14.976
 9622W        W77996  23.640  36.932   4.170
 9623W        W77997   3.817  10.309   2.415
 9624W        W77998  27.107  19.137  12.869
 9625W        W77999  35.580  36.498  12.460
 9626W        W78000  35.494  42.428   0.924
 9627W        W78001  27.127  15.651  11.408
 9628W        W78002   7.792  17.291   2.366
 9629W        W78003  35.011  40.386   2.895
 9630W        W78004  32.410  17.601   0.755
 9631W        W78005  38.503  44.986  14.296
 9632W        W78006   8.666  13.146   5.089
 9633W        W78007  13.201  29.553  14.898
 9634W        W78008   5.925  33.481  14.998
 9635W        W78009  11.226  38.877   1.914
 9636W        W78010  36.454  44.863   2.206
 9637W        W78011  35.970  21.073   2.308
 9638W        W78012  34.109  41.293  11.901
 9639W        W78013  10.667  42.468  13.035
 9640W        W78014  19.602  19.163  12.885
 9641W        W78015   2.321  42.387   3.673
 9642W        W78016  16.249  19.056   4.228
 9643W        W78017  36.954   2.279   1.883
 9644W        W78018   4.249  39.436   2.701
 9645W        W78019  42.969  13.216   3.810
 9646W        W78020  43.891  43.871  14.769
 9647W        W78021  34.566   9.812  14.425
 9648W        W78022  16.090   1.355   4.300
 9649W        W78023  14.296  36.888  13.334
 9650W        W78024  15.244   3.456   4.602
 9651W        W78025  40.529  23.703   0.964
 9652W        W78026  21.755  35.017  11.904
 9653W        W78027  40.435  41.907   2.325
 9654W        W78028   4.752  42.362   2.224
 9655W        W78029  10.174  44.401  13.937
 9656W        W78030   5.742  32.129   2.236
 9657W        W78031  43.833   3.744  10.501
 9658W        W78032  25.692   6.335  11.082
 9659W        W78033  18.296   1.950  14.400
 9660W        W78034  11.177   4.912   1.764
 9661W        W78035   6.340  26.519   0.863
 9662W        W78036   4.839  38.883  13.522
 9663W        W78037  17.771   4.386   2.728
 9664W        W78038   1.755   6.202   3.869
 9665W        W78039  20.550  21.064   1.702
 9666W        W78040  26.094  24.078   4.783
 9667W        W78041   1.270   6.404  13.318
 9668W        W78042  34.113  40.801  14.883
 9669W        W78043   9.378  13.271  14.895
 9670W        W78044  13.270  28.668  10.543
 9671W        W78045  12.308  29.969  12.459
 9672W        W78046  31.045  37.937  12.460
 9673W        W78047  10.191  20.039   3.172
 9674W        W78048  25.220  44.942  13.495
 9675W        W78049  41.403   4.264   4.644
 9676W        W78050   8.324  29.625  11.985
 9677W        W78051   6.826  23.065   3.152
 9678W        W78052  15.737  17.070   3.822
 9679W        W78053  15.591   7.215  11.410
 9680W        W78054  13.194   0.895   0.754
 9681W        W78055  13.303  26.600  10.414
 9682W        W78056  20.159  16.294  11.124
 9683W        W78057  29.013   8.717   3.260
 9684W        W78058  11.724  30.923  12.855
 9685W        W78059  23.513  20.102   2.334
 9686W        W78060  43.408  43.444   1.266
 9687W        W78061  23.087  33.541   2.419
 9688W        W78062  24.119   4.902  11.520
 9689W        W78063   2.343  41.530   1.906
 9690W        W78064  29.959   8.303   3.201
 9691W        W78065  26.094   3.348  11.109
 9692W        W78066  44.953  26.546  10.121
 9693W        W78067   9.360  41.900   3.634
 9694W        W78068  24.521  10.369   0.380
 9695W        W78069  28.502  16.129   3.718
 9696W        W78070  41.852  25.963  14.930
 9697W        W78071   9.180  36.057   4.776
 9698W        W78072  36.880   9.265  11.529
 9699W        W78073  38.934  21.622   2.376
 9700W        W78074  16.793   8.657   0.775
 9701W        W78075  42.822  25.219   2.197
 9702W        W78076  15.615  27.501  10.958
 9703W        W78077  27.579  14.280   0.903
 9704W        W78078  18.568  40.477  10.495
 9705W        W78079  11.240   7.327   4.782
 9706W        W78080   8.334  18.564   0.726
 9707W        W78081  38.395  32.510   1.364
 9708W        W78082  34.489  22.174  12.850
 9709W        W78083   4.845  21.072   1.436
 9710W        W78084  41.925  12.774   2.294
 9711W        W78085   5.225  11.289  11.083
 9712W        W78086  16.132  43.991  11.058
 9713W        W78087  22.684  35.435  10.958
 9714W        W78088  37.968  37.410   3.271
 9715W        W78089  43.299   6.908  14.452
 9716W        W78090   0.469  20.247  12.343
 9717W        W78091  38.945  29.006  10.092
 9718W        W78092  31.485   9.232  11.431
 9719W        W78093   2.934  22.160  11.563
 9720W        W78094  12.353  21.754   2.356
 9721W        W78095  24.183   5.844   0.753
 9722W        W78096  30.450  15.231  14.415
 9723W        W78097  37.945   8.745   5.092
 9724W        W78098  18.197   9.241   1.365
 9725W        W78099  33.886  13.263   0.913
 9726W        W78100  11.321  26.468  13.336
 9727W        W78101  42.895  30.969   2.842
 9728W        W78102  20.239  22.669  11.114
 9729W        W78103   5.848  21.171  14.404
 9730W        W78104  30.072  35.045   0.852
 9731W        W78105  31.095  34.587   2.312
 9732W        W78106  41.382  35.411   1.927
 9733W        W78107   0.380  13.130   4.133
 9734W        W78108  30.956  19.672   4.653
 9735W        W78109  40.381  30.069   3.377
 9736W        W78110  20.137  24.488   2.833
 9737W        W78111   2.861  22.109  14.296
 9738W        W78112  33.998  15.102   4.812
 9739W        W78113  28.661   5.333  11.521
 9740W        W78114   8.731  43.379   5.252
 9741W        W78115  12.779   1.902  12.026
 9742W        W78116  43.272  22.669   0.728
 9743W        W78117  28.133   2.371  13.545
 9744W        W78118  25.019   5.886   3.323
 9745W        W78119  36.359   5.193  10.461
 9746W        W78120  26.552  44.304  14.008
 9747W        W78121  41.463   1.774  14.761
 9748W        W78122   9.822  38.959   0.439
 9749W        W78123  28.931   6.797   4.121
 9750W        W78124  39.980  14.714   4.244
 9751W        W78125   8.797  33.469  12.509
 9752W        W78126  15.120  13.330   4.690
 9753W        W78127  44.381  24.614   0.288
 9754W        W78128  23.170  17.713   5.799
 9755W        W78129  38.931  39.440   3.257
 9756W        W78130  18.061  40.907   1.857
 9757W        W78131   2.901  20.601   2.403
 9758W        W78132  22.084  13.317   1.254
 9759W        W78133  41.915  38.362  14.442
 9760W        W78134  39.908  14.786   3.774
 9761W        W78135  38.898  22.153  12.485
 9762W        W78136  19.604  44.371   5.245
 9763W        W78137  28.067  44.878  14.379
 9764W        W78138   7.236  31.029   0.340
 9765W        W78139   6.364  38.853   4.184
 9766W        W78140  12.149  12.321  13.016
 9767W        W78141  41.919   2.733  11.482
 9768W        W78142  39.393  43.394   1.440
 9769W        W78143  22.210   4.364  14.430
 9770W        W78144  16.660  33.962  13.464
 9771W        W78145  22.667  31.446  10.496
 9772W        W78146   2.459  13.776  14.448
 9773W        W78147  13.173  10.676   4.788
 9774W        W78148   7.344  39.977  14.824
 9775W        W78149   0.771  14.799   3.348
 9776W        W78150  44.482  22.208  14.496
 9777W        W78151   2.940  37.546  14.477
 9778W        W78152   3.802  40.405  14.010
 9779W        W78153  42.519   2.389   2.253
 9780W        W78154  25.064   4.795  14.810
 9781W        W78155  22.548  33.954   1.725
 9782W        W78156  36.081   7.824   2.833
 9783W        W78157  26.125   7.879  14.370
 9784W        W78158   5.731  23.106  14.448
 9785W        W78159  17.286  11.825  10.491
 9786W        W78160   7.887  24.074  11.489
 9787W        W78161  30.045  31.520   3.169
 9788W        W78162   3.260  40.963   0.926
 9789W        W78163   3.390  15.282  14.868
 9790W        W78164  10.662  32.548   1.719
 9791W        W78165  24.036  35.456   2.288
 9792W        W78166  41.970   1.741   2.223
 9793W        W78167  43.867  43.977  11.478
 9794W        W78168  43.306  21.703   1.701
 9795W        W78169  23.581  18.106  11.105
 9796W        W78170  31.930  17.271  14.931
 9797W        W78171  31.050  44.304   9.977
 9798W        W78172  10.653  42.908   0.869
 9799W        W78173  12.722  23.622  11.541
 9800W        W78174  32.429  13.793   2.309
 9801W        W78175   7.728  30.928   4.245
 9802W        W78176   1.975   4.828   0.260
 9803W        W78177   8.752  33.451   2.898
 9804W        W78178  12.638   6.190  11.428
 9805W        W78179  33.468  38.835  11.459
 9806W        W78180  26.050  13.710  14.985
 9807W        W78181  10.844  28.058   3.288
 9808W        W78182   0.872  39.969   1.725
 9809W        W78183  35.952   1.352  13.517
 9810W        W78184  26.149  36.433  13.385
 9811W        W78185  33.960  41.395  10.410
 9812W        W78186   9.669   0.874  14.809
 9813W        W78187  14.278  12.610   0.331
 9814W        W78188  24.998  28.639   4.144
 9815W        W78189  44.493  33.494  14.466
 9816W        W78190   1.787  42.330  12.525
 9817W        W78191   4.384  24.149   1.780
 9818W        W78192   6.784  10.230   0.325
 9819W        W78193  10.850  20.713   4.794
 9820W        W78194  26.588  13.838  14.922
 9821W        W78195   0.842  29.508  11.081
 9822W        W78196  23.626  38.959   5.745
 9823W        W78197   9.823  19.114  14.022
 9824W        W78198   7.237  20.088   4.230
 9825W        W78199  39.465   4.939  10.643
 9826W        W78200  18.641  22.717   3.766
 9827W        W78201  29.010  40.008  14.934
 9828W        W78202   5.315   1.394   2.754
 9829W        W78203   7.829  40.549   4.197
 9830W        W78204  43.884   9.661  10.918
 9831W        W78205  13.164   7.179   1.723
 9832W        W78206  11.245   1.801   1.848
 9833W        W78207  32.587  22.710   1.900
 9834W        W78208   6.208  36.566   1.860
 9835W        W78209  30.592  26.205   0.953
 9836W        W78210  11.325  34.006  14.888
 9837W        W78211  38.356  21.218  11.867
 9838W        W78212  24.121  33.947  13.434
 9839W        W78213   0.777   1.343  12.440
 9840W        W78214  39.435   2.426   4.685
 9841W        W78215  13.601  30.423   1.878
 9842W        W78216  17.709   7.686   3.320
 9843W        W78217  35.360  18.225   4.153
 9844W        W78218  44.304   3.797   0.364
 9845W        W78219   1.366   3.946  14.295
 9846W        W78220   5.340  34.956  14.388
 9847W        W78221  23.149  31.089  12.949
 9848W        W78222  11.803   5.878  14.368
 9849W        W78223  40.956  25.150   0.439
 9850W        W78224  33.062  41.324   1.380
 9851W        W78225  18.651  41.822   4.329
 9852W        W78226  39.337  31.127  12.515
 9853W        W78227  16.164  32.939   4.317
 9854W        W78228  28.085  43.005  10.941
 9855W        W78229  22.620  27.125  12.399
 9856W        W78230   2.945  44.267   3.718
 9857W        W78231  32.432  32.623   4.747
 9858W        W78232  26.523   2.309  11.440
 9859W        W78233  19.086  18.627   1.227
 9860W        W78234  29.048  14.195  12.096
 9861W        W78235  43.804  43.363   4.170
 9862W        W78236  38.501  35.039  12.912
 9863W        W78237   6.339  23.084   4.222
 9864W        W78238   6.207   9.211  14.366
 9865W        W78239  14.758  35.378  14.359
 9866W        W78240   7.709  16.790  13.480
 9867W        W78241  16.748  31.538  11.884
 9868W        W78242  25.652   7.302  14.424
 9869W        W78243  14.648  41.443  12.459
 9870W        W78244  21.646   1.933  14.312
 9871W        W78245   3.218  36.854  12.012
 9872W        W78246  13.182  38.380  13.843
 9873W        W78247  27.052   5.358  12.377
 9874W        W78248  14.795  26.474   4.229
 9875W        W78249  19.671  22.148  13.374
 9876W        W78250  37.451  42.884   2.364
 9877W        W78251   0.422  31.404   4.313
 9878W        W78252  37.427  35.420   3.273
 9879W        W78253  12.251  34.873   3.326
 9880W        W78254  26.143   6.403  11.558
 9881W        W78255  23.089  22.153   3.707
 9882W        W78256  24.641  25.981   0.891
 9883W        W78257   5.352  38.332  11.407
 9884W        W78258  23.035   8.665   4.133
 9885W        W78259   9.798  20.252   0.337
 9886W        W78260  15.143  32.934   1.250
 9887W        W78261  32.076  11.145   3.283
 9888W        W78262  29.485   6.685   2.697
 9889W        W78263   1.880  42.386  14.387
 9890W        W78264   5.314  36.489   3.712
 9891W        W78265   9.309   7.212   2.275
 9892W        W78266  18.737  20.587   2.221
 9893W        W78267  10.670  20.130  12.494
 9894W        W78268  27.660  36.087  12.354
 9895W        W78269  32.505  18.073  14.962
 9896W        W78270  41.304  10.756   1.255
 9897W        W78271  32.986  22.166  14.474
 9898W        W78272  25.521   0.835   4.188
 9899W        W78273  23.511  32.486   3.208
 9900W        W78274   0.367  26.206  11.478
 9901W        W78275  38.467   9.158  11.917
 9902W        W78276  30.052  19.632   1.919
 9903W        W78277  44.830  33.114  11.476
 9904W        W78278   8.725  15.783   4.672
 9905W        W78279  25.691  43.464  12.420
 9906W        W78280  26.035   6.286  14.413
 9907W        W78281  30.022  12.769   0.256
 9908W        W78282  18.126  39.866  12.526
 9909W        W78283  33.554  39.966   2.324
 9910W        W78284  40.897   4.231  10.638
 9911W        W78285  16.629  21.730  10.460
 9912W        W78286  18.604  34.382  11.027
 9913W        W78287  19.159   0.786  11.110
 9914W        W78288  16.752  32.538   0.801
 9915W        W78289  31.564  42.995   0.924
 9916W        W78290  42.336  28.595   1.759
 9917W        W78291   3.393   3.891  12.916
 9918W        W78292  12.724  11.202   2.822
 9919W        W78293  10.210  26.605  14.283
 9920W        W78294  41.430  42.521  12.914
 9921W        W78295  28.619  10.737  12.828
 9922W        W78296  21.223  12.779   4.242
 9923W        W78297   6.799  13.150  11.449
 9924W        W78298  10.201  16.280   5.117
 9925W        W78299  12.173  10.676   0.473
 9926W        W78300   3.276   2.877   4.718
 9927W        W78301  28.569  13.288  11.468
 9928W        W78302  29.440  37.925  13.027
 9929W        W78303  15.149  39.935  10.642
 9930W        W78304  17.619  24.698   3.647
 9931W        W78305  26.568  30.917   4.650
 9932W        W78306  17.277  43.883  10.572
 9933W        W78307  30.001  22.736   0.796
 9934W        W78308  40.326  26.536   4.700
 9935W        W78309  34.965  13.334  11.386
 9936W        W78310  34.999   1.820  11.609
 9937W        W78311  14.229  18.712   4.747
 9938W        W78312  44.354  10.872  11.081
 9939W        W78313   3.426   2.872   0.825
 9940W        W78314  32.521   5.358   1.833
 9941W        W78315   7.189  31.136  12.505
 9942W        W78316  42.827  39.504  13.828
 9943W        W78317  34.868   9.737   0.967
 9944W        W78318  29.157   0.915  11.922
 9945W        W78319  39.517  23.183   1.215
 9946W        W78320  35.443  24.689   4.172
 9947W        W78321  29.099   1.903  11.926
 9948W        W78322  36.921  28.949  14.006
 9949W        W78323  36.038  13.687   1.379
 9950W        W78324  35.599  17.122  12.348
 9951W        W78325  37.493  28.996  11.554
 9952W        W78326  14.255  25.187   1.799
 9953W        W78327   8.276  14.695  12.052
 9954W        W78328  28.625  43.003   1.881
 9955W        W78329  36.867   9.734   3.345
 9956W        W78330  26.195  12.843  11.512
 9957W        W78331  10.639   6.274   3.315
 9958W        W78332  16.129   3.775  13.840
 9959W        W78333   1.253  37.426   4.675
 9960W        W78334  17.284  14.767   2.792
 9961W        W78335   1.408  28.978   2.341
 9962W        W78336   7.691   8.731  10.889
 9963W        W78337  39.437  19.086  10.416
 9964W        W78338  43.849   5.857  10.951
 9965W        W78339   6.802  22.687  14.514
 9966W        W78340  36.997   7.749   1.873
 9967W        W78341  23.668  36.978  12.016
 9968W        W78342  23.000  29.490  11.515
 9969W        W78343   2.275  39.558  10.527
 9970W        W78344  13.675  38.493   1.358
 9971W        W78345  29.118  12.281   3.205
 9972W        W78346  37.003  18.179  14.478
 9973W        W78347  30.416  25.200   1.718
 9974W        W78348  14.795  11.720  10.155
 9975W        W78349   7.689   6.417   2.341
 9976W        W78350   1.738  38.501   0.267
 9977W        W78351   2.323  36.901  13.869
 9978W        W78352  44.493  22.598   2.353
 9979W        W78353  11.823   2.468   1.241
 9980W        W78354  42.786   9.173  10.439
 9981W        W78355  37.902  25.639  10.509
 9982W        W78356  24.632  33.113  11.015
 9983W        W78357   9.394  38.977   0.339
 9984W        W78358  22.594  19.555  11.894
 9985W        W78359   6.790  19.697  13.957
 9986W        W78360  10.671  34.970  12.825
 9987W        W78361   4.813  29.938   2.185
 9988W        W78362   0.423  32.521   2.327
 9989W        W78363  17.602  25.496  14.413
 9990W        W78364  44.850  31.131   0.904
 9991W        W78365  25.666  26.677  13.884
 9992W        W78366  23.584  14.290  13.385
 9993W        W78367   3.350  12.288  13.026
 9994W        W78368  12.277   9.364   4.238
 9995W        W78369   4.827  36.088   3.633
 9996W        W78370  14.753  23.096   4.825
 9997W        W78371  16.685  44.972   3.820
 9998W        W78372  42.872   3.344  12.565
 9999W        W78373  42.448  12.726  10.964
10000W        W78374  11.367  38.912   0.804
10001W        W78375   5.821  24.646   3.223
10002W        W78376  12.729  35.957   4.344
10003W        W78377  43.347  20.159  13.548
10004W        W78378  20.698  23.626   3.156
10005W        W78379   9.358  14.808   4.178
10006W        W78380  13.625  41.905   2.699
10007W        W78381  17.266  41.921   3.308
10008W        W78382  19.724  18.085  14.954
10009W        W78383  12.352  23.100   1.780
10010W        W78384  30.622  42.298  11.090
10011W        W78385  43.417  15.293   0.259
10012W        W78386  18.582  16.571   3.869
10013W        W78387  44.981  10.774  12.869
10014W        W78388  21.204  43.838   0.877
10015W        W78389   1.754  13.281   0.952
10016W        W78390  40.331  15.652   4.302
10017W        W78391   5.334  12.782  14.783
10018W        W78392  35.855  19.255  13.057
10019W        W78393  22.215  28.579   1.821
10020W        W78394  17.647  42.781  12.007
10021W        W78395  25.691  33.116  12.351
10022W        W78396  16.074  39.551  14.341
10023W        W78397   1.975   6.209  12.991
10024W        W78398  15.811  16.743   1.393
10025W        W78399   2.834  44.942  11.441
10026W        W78400  25.562   0.798  10.043
10027W        W78401  43.321   5.878  11.899
10028W        W78402  41.308  19.276  12.366
10029W        W78403  22.729  38.362  14.846
10030W        W78404  14.242   4.851   3.858
10031W        W78405  33.978  33.510   4.630
10032W        W78406  41.324  15.670  12.906
10033W        W78407   8.331  18.582   9.986
10034W        W78408  17.579  10.786  11.994
10035W        W78409  27.114  35.575  14.907
10036W        W78410  22.995  30.570  11.493
10037W        W78411  24.533  28.579  12.923
10038W        W78412  13.180  37.448  13.323
10039W        W78413   5.332   6.899  11.115
10040W        W78414   2.335  11.349   4.658
10041W        W78415  11.353  39.056   0.346
10042W        W78416  30.492  37.438   4.726
10043W        W78417  43.379   3.349  11.054
10044W        W78418  21.233  34.373  11.599
10045W        W78419  23.524  10.752  12.963
10046W        W78420  17.575  25.468  12.362
10047W        W78421   4.757  39.339  10.946
10048W        W78422   5.246   3.317  13.007
10049W        W78423  18.582  42.408   3.274
10050W        W78424  32.119  14.162  11.127
10051W        W78425   9.727  21.670   1.400
10052W        W78426  11.311  31.008  11.566
10053W        W78427  29.434  17.236   9.931
10054W        W78428  35.905   4.792  13.984
10055W        W78429  33.975   2.823  10.976
10056W        W78430  43.964  29.519   3.719
10057W        W78431  17.749  32.609   0.749
10058W        W78432  27.610  40.489  11.526
10059W        W78433   5.739  38.929   0.356
10060W        W78434   6.324   7.266   4.609
10061W        W78435  26.197  10.821  13.374
10062W        W78436  25.138  17.779  11.991
10063W        W78437   6.203  17.214  11.400
10064W        W78438  16.284  22.066  14.456
10065W        W78439   8.809  31.094   4.342
10066W        W78440  37.370  25.149  13.467
10067W        W78441   8.900  15.121  13.402
10068W        W78442  23.990  15.302  13.836
10069W        W78443  35.099  30.604   2.196
10070W        W78444   6.283   1.774   0.900
10071W        W78445  28.958   1.740   0.758
10072W        W78446   8.326  28.989  14.802
10073W        W78447   2.301  13.660   0.358
10074W        W78448  36.949   6.786   2.297
10075W        W78449  44.008  42.369   1.829
10076W        W78450  22.638  25.597  12.536
10077W        W78451   1.283   3.229  11.544
10078W        W78452   2.909   7.352  10.911
10079W        W78453  16.804  37.403   0.955
10080W        W78454  43.292  11.843   4.231
10081W        W78455  11.223   9.295  10.951
10082W        W78456  12.780  36.496  12.526
10083W        W78457  32.536   9.692   4.193
10084W        W78458  39.393  18.066   1.754
10085W        W78459   6.710   6.804   1.753
10086W        W78460  37.061   8.757   5.679
10087W        W78461  25.651   6.769   1.327
10088W        W78462   2.803  23.238  11.121
10089W        W78463   9.345   7.747  11.596
10090W        W78464  43.808   5.404   3.198
10091W        W78465  18.646  20.527  10.983
10092W        W78466   5.369  34.430   3.701
10093W        W78467   8.385  21.131   2.743
10094W        W78468  31.496  14.654   0.855
10095W        W78469  43.815   9.711  13.030
10096W        W78470  12.181  40.034   1.815
10097W        W78471  41.940  19.747   1.274
10098W        W78472  20.270  38.914   3.307
10099W        W78473  34.404   0.924  13.343
10100W        W78474  32.563   2.858  14.920
10101W        W78475  15.726  13.736   1.760
10102W        W78476  23.693   1.755   4.604
10103W        W78477  38.414   5.249   1.397
10104W        W78478  31.071  40.977   0.424
10105W        W78479  30.490  17.243   4.746
10106W        W78480  22.248   5.416   2.812
10107W        W78481  44.813  19.557   0.806
10108W        W78482  29.077  35.002  11.954
10109W        W78483   7.246  27.120   2.391
10110W        W78484   8.297   6.348  12.022
10111W        W78485  42.825  11.855   4.812
10112W        W78486  35.441  25.113  13.867
10113W        W78487   0.262  32.931   3.270
10114W        W78488   5.273  30.653   5.235
10115W        W78489  23.006  27.577   2.693
10116W        W78490  23.716  23.175   0.290
10117W        W78491   1.380   6.888  14.869
10118W        W78492  44.950  13.179  12.924
10119W        W78493  25.047  29.972   3.215
10120W        W78494  12.315   9.206   0.293
10121W        W78495  19.044  30.014  12.889
10122W        W78496  42.893   1.975  11.933
10123W        W78497  40.390  39.038   3.314
10124W        W78498   9.207  22.722  11.019
10125W        W78499  23.052   9.184   4.114
10126W        W78500  26.493  38.555   5.313
10127W        W78501  23.608   7.736   1.323
10128W        W78502   3.231  18.771  10.523
10129W        W78503   4.273  42.852   1.867
10130W        W78504   0.463  36.071   1.788
10131W        W78505   3.908   4.774  13.823
10132W        W78506  11.824  41.919   4.680
10133W        W78507  34.496   2.728   3.651
10134W        W78508  24.527  12.763  13.316
10135W        W78509  22.030  28.506   2.900
10136W        W78510  26.174  23.997   0.773
10137W        W78511  16.769   1.451  10.990
10138W        W78512  21.169  14.217  14.822
10139W        W78513  41.808   8.892   1.734
10140W        W78514  33.022   9.808   2.238
10141W        W78515   1.915  29.593  13.855
10142W        W78516   1.876   3.770   3.809
10143W        W78517   4.883  33.093  14.405
10144W        W78518  11.710  14.652  13.542
10145W        W78519  40.414  43.811  12.066
10146W        W78520  32.054  10.635   0.855
10147W        W78521  34.104  15.663  14.785
10148W        W78522  40.927   5.890  13.799
10149W        W78523  34.958  31.448  12.979
10150W        W78524   0.894   2.805  14.382
10151W        W78525  42.325  36.913  14.402
10152W        W78526  30.143  38.819  10.582
10153W        W78527   1.396  14.719  13.440
10154W        W78528  38.363  25.706  11.030
10155W        W78529  10.323  38.034   2.725
10156W        W78530  38.344  17.757   1.350
10157W        W78531  36.987  11.630  12.452
10158W        W78532  34.023  16.263  13.477
10159W        W78533  30.120   9.677   0.844
10160W        W78534  18.758  43.976  12.357
10161W        W78535  33.926  14.614   3.663
10162W        W78536  42.936  15.733   4.818
10163W        W78537  43.372  17.191   3.274
10164W        W78538   7.291  37.004   2.274
10165W        W78539   5.693   2.779   0.457
10166W        W78540  22.022  23.721  14.438
10167W        W78541   8.885   9.686   4.788
10168W        W78542  34.920  36.891   1.726
10169W        W78543  34.869   8.352  13.490
10170W        W78544  12.230  11.833  12.500
10171W        W78545  43.369  44.805   0.342
10172W        W78546  13.720  39.450   4.635
10173W        W78547  44.272  29.491   2.851
10174W        W78548  28.523  20.643  13.817
10175W        W78549   6.771  41.300  12.086
10176W        W78550  39.049  13.351   5.194
10177W        W78551  12.799  42.506   4.181
10178W        W78552  42.280  42.018   2.198
10179W        W78553   2.860  18.286   0.394
10180W        W78554   5.381  19.606  11.906
10181W        W78555  29.541   1.781  13.846
10182W        W78556  26.535   3.461   9.945
10183W        W78557  22.041  11.688   4.677
10184W        W78558  37.397   2.273   1.267
10185W        W78559   9.154  26.538  14.764
10186W        W78560  15.761  35.541   1.318
10187W        W78561  43.336  17.622   0.861
10188W        W78562  38.984  30.505   5.153
10189W        W78563  12.793  15.226  13.011
10190W        W78564  32.487  34.614  13.904
10191W        W78565   4.450  22.078  13.441
10192W        W78566  35.526  23.141   0.824
10193W        W78567   7.284  37.832  11.523
10194W        W78568  26.199  10.286  13.311
10195W        W78569  24.628  22.025  14.874
10196W        W78570   6.734  18.715   1.349
10197W        W78571   4.356   4.348   4.796
10198W        W78572  28.088  17.746  13.369
10199W        W78573   0.958  11.235  12.083
10200W        W78574   7.231  35.963   3.354
10201W        W78575  30.975  23.642   0.958
10202W        W78576  27.686  30.099   1.834
10203W        W78577  32.412   4.243   2.315
10204W        W78578   4.208  19.570  10.470
10205W        W78579  33.547  28.631  14.819
10206W        W78580  21.666  21.596   3.857
10207W        W78581   3.309  38.413   4.772
10208W        W78582  15.103  34.081  14.938
10209W        W78583  26.005  35.864  11.597
10210W        W78584  33.577  20.164  13.945
10211W        W78585  26.640  25.979  11.396
10212W        W78586  39.414  44.462   4.256
10213W        W78587  19.185  41.898   2.799
10214W        W78588  35.525  32.511   2.877
10215W        W78589  28.160  31.078   3.359
10216W        W78590  17.237  20.759   0.942
10217W        W78591   2.944   2.407   1.859
10218W        W78592  14.111   5.274  14.506
10219W        W78593  19.264  28.435  11.882
10220W        W78594  10.856  32.896  13.824
10221W        W78595  11.652  32.487   4.125
10222W        W78596   1.768  39.043   1.283
10223W        W78597  27.095   4.730  12.514
10224W        W78598  20.717   7.327  10.594
10225W        W78599   1.390  12.208   1.283
10226W        W78600  39.855   8.864   3.293
10227W        W78601  16.298  41.037   2.293
10228W        W78602  43.302  25.598  14.029
10229W        W78603  28.109  17.160   3.780
10230W        W78604  22.559   4.220  13.410
10231W        W78605  24.699  42.864   0.361
10232W        W78606   0.862  39.420  13.886
10233W        W78607  29.574  44.976  10.557
10234W        W78608  38.944   7.259  10.547
10235W        W78609  23.013  41.322  14.285
10236W        W78610  39.336  30.051   1.698
10237W        W78611  39.858   7.276   3.263
10238W        W78612  23.711  31.440  14.457
10239W        W78613   3.397  33.940  14.942
10240W        W78614   8.851  32.438   2.857
10241W        W78615  29.610  21.523  11.088
10242W        W78616   3.292   9.358  11.857
10243W        W78617  40.834  31.107  10.582
10244W        W78618  44.754   3.809   4.115
10245W        W78619  44.315  28.488  10.478
10246W        W78620  15.759  34.580  10.905
10247W        W78621  39.453  27.132  10.459
10248W        W78622  12.347  21.524  10.984
10249W        W78623  39.845  30.026  14.280
10250W        W78624  15.092  42.952  11.558
10251W        W78625   4.345   2.338  11.398
10252W        W78626  15.582  30.120   2.392
10253W        W78627  34.956  31.422  14.440
10254W        W78628  25.966  28.125  10.529
10255W        W78629   6.906  13.758  12.899
10256W        W78630  38.972  35.874   0.382
10257W        W78631   3.741  30.099   2.206
10258W        W78632   1.900  16.310  11.383
10259W        W78633  36.544   0.844  11.429
10260W        W78634  18.734  36.495   0.867
10261W        W78635  44.303  39.402   1.272
10262W        W78636   6.316  19.698  12.980
10263W        W78637  23.216   9.332  13.509
10264W        W78638   3.787  29.546   3.817
10265W        W78639  16.281  21.705   3.199
10266W        W78640  12.610  14.118  12.554
10267W        W78641  13.690  17.210  11.426
10268W        W78642   6.364  26.958  10.547
10269W        W78643   7.173   4.304  10.049
10270W        W78644  31.642  41.515  14.767
10271W        W78645  17.660  15.724   5.260
10272W        W78646  31.554  17.303   4.690
10273W        W78647   9.702   0.406   4.804
10274W        W78648  12.355  11.192  11.995
10275W        W78649  24.583  14.591  10.612
10276W        W78650   4.813  17.128   4.815
10277W        W78651  29.004   9.365   3.347
10278W        W78652  13.838  41.984  14.513
10279W        W78653   5.864  33.527  11.941
10280W        W78654   8.203  15.162  12.504
10281W        W78655  27.458  39.551  11.612
10282W        W78656  23.501  17.132   1.303
10283W        W78657  33.605  15.780  11.961
10284W        W78658  33.519  20.270  14.818
10285W        W78659   8.280  36.474  10.985
10286W        W78660  31.472  14.223  12.885
10287W        W78661  27.547   6.782  12.534
10288W        W78662  36.087  14.731   1.252
10289W        W78663  20.141  25.636  14.838
10290W        W78664  34.959  44.950  11.946
10291W        W78665  24.221  21.062   0.883
10292W        W78666  29.991   5.915  14.457
10293W        W78667  15.622   2.945  14.948
10294W        W78668  25.205  21.211  11.957
10295W        W78669  16.266  38.985  13.447
10296W        W78670   6.246  40.003   4.682
10297W        W78671  12.800  11.137  14.831
10298W        W78672  17.585  16.577   2.740
10299W        W78673  39.477   0.838  14.019
10300W        W78674  20.618  23.522   4.701
10301W        W78675   0.425  35.057   0.478
10302W        W78676   0.751   9.873   2.218
10303W        W78677   5.273  23.177   3.656
10304W        W78678  33.515  15.796  14.365
10305W        W78679  23.106  16.640  10.522
10306W        W78680  27.038  20.105  12.380
10307W        W78681  38.429  33.902   0.473
10308W        W78682  24.076  34.121  14.005
10309W        W78683   8.783  43.833  10.543
10310W        W78684  32.939  44.259  13.952
10311W        W78685  33.543  17.678  10.447
10312W        W78686  31.016  40.484   2.303
10313W        W78687  37.053  21.576  14.790
10314W        W78688  19.699  33.880  11.976
10315W        W78689   0.391   4.727  14.346
10316W        W78690  44.899  42.443   0.243
10317W        W78691   4.858  27.521  14.833
10318W        W78692  40.832  27.678  10.962
10319W        W78693  44.503  34.079   3.680
10320W        W78694  15.744  36.447   5.233
10321W        W78695  32.601   6.218  13.045
10322W        W78696  31.646  16.749  13.978
10323W        W78697   0.954  36.552   4.652
10324W        W78698  30.571  36.892  13.836
10325W        W78699  27.574  34.060   1.252
10326W        W78700  36.886  15.711   2.397
10327W        W78701  25.646  27.464  11.983
10328W        W78702  36.535  10.310  13.316
10329W        W78703  14.815  21.063   4.831
10330W        W78704   9.381  24.495  10.445
10331W        W78705  26.022  39.388   3.676
10332W        W78706  19.577  19.750  11.003
10333W        W78707   5.795  26.606  13.860
10334W        W78708  26.074  16.215   3.826
10335W        W78709  21.071  37.954  10.040
10336W        W78710  21.216  32.413   3.383
10337W        W78711  33.397  25.589   3.700
10338W        W78712  33.462  28.170  12.912
10339W        W78713  20.612  41.297   4.352
10340W        W78714   2.313  17.118   2.715
10341W        W78715  35.921   1.465   3.644
10342W        W78716  12.289   4.900   4.158
10343W        W78717  27.114   0.868   2.875
10344W        W78718  42.517  29.060  12.898
10345W        W78719  38.910   2.428  12.836
10346W        W78720   1.439  10.864  12.930
10347W        W78721  12.682  11.720  13.436
10348W        W78722  31.473  44.822  11.997
10349W        W78723  35.975  27.467   4.738
10350W        W78724  36.562  20.052   0.861
10351W        W78725  15.706  13.191  13.915
10352W        W78726  37.556  20.107  13.376
10353W        W78727  18.075  10.203   2.743
10354W        W78728  15.153  22.013   3.794
10355W        W78729  39.954   2.391   0.257
10356W        W78730  40.984  27.446   2.758
10357W        W78731   2.825  30.138  12.431
10358W        W78732  41.458  10.253  10.613
10359W        W78733   9.253  41.347  13.392
10360W        W78734  27.076  32.906  11.574
10361W        W78735  34.914  15.267  11.942
10362W        W78736  40.835  21.585   2.205
10363W        W78737  13.807  21.059  13.313
10364W        W78738  19.222  31.967   2.190
10365W        W78739   8.244  25.217   1.278
10366W        W78740  39.541  24.097   2.702
10367W        W78741  19.119  19.627  13.388
10368W        W78742  28.127   4.798  10.559
10369W        W78743  23.657  27.670   3.746
10370W        W78744  27.133  29.992  10.895
10371W        W78745  39.873  14.831  13.469
10372W        W78746  14.604  12.288  14.924
10373W        W78747  19.094   2.778   3.172
10374W        W78748  31.521  26.544   0.363
10375W        W78749   4.913   2.322   0.431
10376W        W78750  37.474  13.801   0.267
10377W        W78751   2.839  37.010  11.100
10378W        W78752  34.552  38.496  10.471
10379W        W78753  24.035  15.283   5.642
10380W        W78754  32.587  34.545  12.491
10381W        W78755  24.549  44.356  13.360
10382W        W78756  28.516  35.917  13.537
10383W        W78757   7.268   0.879   1.713
10384W        W78758  24.551  11.140  12.432
10385W        W78759  29.555  11.666  11.480
10386W        W78760  31.061  37.580   5.239
10387W        W78761  14.794  28.184  11.488
10388W        W78762   7.897  12.347   0.864
10389W        W78763   8.676   7.680  11.060
10390W        W78764  24.975  44.362  10.447
10391W        W78765   6.305  33.130  12.427
10392W        W78766   5.705  25.493   4.613
10393W        W78767  13.758   4.337   2.862
10394W        W78768  37.859   0.920   4.146
10395W        W78769   4.288  32.907  14.439
10396W        W78770   9.814   4.822   9.970
10397W        W78771  17.157  40.500   0.273
10398W        W78772  13.348  40.912   3.678
10399W        W78773  26.016   8.397   2.306
10400W        W78774   7.325  26.976   2.788
10401W        W78775  36.885  16.075   1.436
10402W        W78776  29.448   5.290  14.911
10403W        W78777  39.476  36.031  14.286
10404W        W78778   2.818  18.701   2.888
10405W        W78779  25.113  44.898  10.518
10406W        W78780  43.846  13.238   0.314
10407W        W78781  21.729  26.027   4.267
10408W        W78782  42.826  35.366   4.700
10409W        W78783   2.852  33.943  14.455
10410W        W78784   1.481  10.654   0.354
10411W        W78785   0.424  42.804  14.988
10412W        W78786   5.405   9.661  11.382
10413W        W78787  38.464  38.972   0.914
10414W        W78788  23.990  10.678   1.411
10415W        W78789  17.178  19.040  11.945
10416W        W78790  22.526  16.177   0.882
10417W        W78791  12.637  16.176  14.870
10418W        W78792  21.054  32.892   3.767
10419W        W78793  16.673  41.444  13.894
10420W        W78794  27.941  44.307   3.672
10421W        W78795  23.125  35.909  10.595
10422W        W78796   0.846   4.248  13.051
10423W        W78797  21.263  36.878  12.062
10424W        W78798  35.601  19.717   4.189
10425W        W78799  26.520  14.781   2.270
10426W        W78800  10.249   0.299   4.128
10427W        W78801   3.955  29.481   9.934
10428W        W78802  13.339   4.909  10.111
10429W        W78803  13.682  43.909   3.632
10430W        W78804  41.896   6.379   3.721
10431W        W78805  11.737  28.974  11.558
10432W        W78806  12.828   9.273   4.265
10433W        W78807   7.259  44.916  10.970
10434W        W78808   9.828   9.154  12.404
10435W        W78809  34.878  40.797  11.593
10436W        W78810  12.711  40.979   4.285
10437W        W78811  30.971  32.915  13.383
10438W        W78812   5.846  21.633  13.426
10439W        W78813  26.993  18.195   0.380
10440W        W78814  18.763   6.773  10.511
10441W        W78815  41.475  20.657  12.398
10442W        W78816  27.590   7.888  12.515
10443W        W78817   9.194  43.281  11.931
10444W        W78818  17.601  42.936   3.763
10445W        W78819   1.334  30.071   4.246
10446W        W78820   7.743  15.653   1.841
10447W        W78821   6.377  27.982  12.560
10448W        W78822  15.131  15.662  13.343
10449W        W78823  35.882  15.752  10.483
10450W        W78824  11.754  40.941  13.858
10451W        W78825   0.908  18.097  14.463
10452W        W78826  43.961  31.946  13.405
10453W        W78827   1.794  15.776  14.511
10454W        W78828  29.162  16.755  14.816
10455W        W78829  29.087  25.506   0.419
10456W        W78830  19.609   3.448  11.477
10457W        W78831  23.651  29.073  14.499
10458W        W78832  32.520  29.105   4.203
10459W        W78833  22.225  29.509  13.539
10460W        W78834  27.145  43.489  13.397
10461W        W78835  40.354  14.592  13.473
10462W        W78836  13.774   8.727  10.435
10463W        W78837  36.980  36.373   2.290
10464W        W78838  33.046  31.646   3.668
10465W        W78839  24.091  23.175  10.623
10466W        W78840   8.712  13.296   4.287
10467W        W78841  25.609  12.163   2.668
10468W        W78842  14.177   8.865  10.024
10469W        W78843  31.129  21.612  14.476
10470W        W78844  29.989  38.003   4.635
10471W        W78845  10.638   3.765   3.154
10472W        W78846  31.982  14.661  14.289
10473W        W78847  22.080  39.002   2.283
10474W        W78848  40.502  23.067   1.414
10475W        W78849  24.057  43.939   4.135
10476W        W78850  34.384  40.963  14.909
10477W        W78851  33.009  29.560  14.487
10478W        W78852  16.609  10.705   3.724
10479W        W78853  16.156  17.635   2.313
10480W        W78854  19.627   9.727   2.239
10481W        W78855   5.315  33.433  10.509
10482W        W78856  41.441  22.161   4.719
10483W        W78857  17.568  27.167   1.871
10484W        W78858  42.472  28.095  12.890
10485W        W78859  35.359  22.104   0.887
10486W        W78860   5.740  26.162  12.008
10487W        W78861  19.282  39.027  14.478
10488W        W78862  42.800  37.997   0.967
10489W        W78863  12.686  16.781  11.945
10490W        W78864  28.533  12.294  11.540
10491W        W78865  12.323   7.268  13.338
10492W        W78866  22.115  33.900   0.295
10493W        W78867  39.964  36.496   4.355
10494W        W78868  33.475  43.989   0.329
10495W        W78869  30.969  42.430   1.888
10496W        W78870  13.737  32.083  14.388
10497W        W78871  21.624  43.447  14.850
10498W        W78872   7.782  30.002   3.760
10499W        W78873  41.295  17.759   2.682
10500W        W78874   1.811  42.961   0.752
10501W        W78875  19.596  37.489   1.318
10502W        W78876   3.272  29.470   5.285
10503W        W78877  13.115  23.550  14.950
10504W        W78878  19.572   8.704   9.980
10505W        W78879   8.828  24.115   5.125
10506W        W78880  18.666  27.463   1.355
10507W        W78881  18.656  38.475   1.799
10508W        W78882  16.204   1.867  11.581
10509W        W78883  32.398  34.614   3.235
10510W        W78884  29.655   3.948   1.214
10511W        W78885   4.891   5.421   0.322
10512W        W78886  34.499   3.323   3.754
10513W        W78887   6.837   3.946  12.961
10514W        W78888  27.951  30.638  11.948
10515W        W78889  26.695   4.299   3.845
10516W        W78890  37.534  19.229  13.509
10517W        W78891   3.955  23.622   1.270
10518W        W78892   1.775  41.836   2.831
10519W        W78893   6.296  24.671   0.904
10520W        W78894  38.835   9.183  11.915
10521W        W78895  21.533   8.235  13.372
10522W        W78896  10.842  16.079  10.606
10523W        W78897  36.039  15.083   3.631
10524W        W78898  17.702  31.420   3.172
10525W        W78899   6.325  30.578   4.633
10526W        W78900  39.437  34.555   1.927
10527W        W78901  15.597  16.623  10.572
10528W        W78902  44.384  30.656   2.711
10529W        W78903  32.397  19.066  10.505
10530W        W78904   5.731   7.782   3.674
10531W        W78905  11.759  24.487  13.477
10532W        W78906  21.651  40.465   0.264
10533W        W78907  39.026  33.999   3.255
10534W        W78908  31.578  17.172   4.354
10535W        W78909  30.114   8.208   1.714
10536W        W78910  35.040   5.433  14.007
10537W        W78911  35.555  18.191   4.724
10538W        W78912   2.260  33.053  12.011
10539W        W78913   3.943  32.395   3.815
10540W        W78914   4.297   4.719   3.734
10541W        W78915  29.990  21.159   0.329
10542W        W78916  14.656  11.343  14.511
10543W        W78917  18.689   6.757   1.924
10544W        W78918   6.739  25.071  11.108
10545W        W78919  29.005  44.325  10.417
10546W        W78920   6.858  19.653  12.825
10547W        W78921   5.216  17.214   1.738
10548W        W78922  38.954   1.316  14.925
10549W        W78923  44.955  24.008   4.212
10550W        W78924   5.714  31.421   4.701
10551W        W78925  13.761   8.193   5.197
10552W        W78926   9.300  36.445   4.612
10553W        W78927   0.379  21.645   3.311
10554W        W78928  25.679  24.479   0.382
10555W        W78929  34.521   4.396  13.312
10556W        W78930  42.354  37.480  14.762
10557W        W78931  38.922  37.366   3.273
10558W        W78932  22.661  10.327   3.233
10559W        W78933  19.169  31.086  14.959
10560W        W78934   9.699  16.146  12.506
10561W        W78935  13.626   6.297  11.065
10562W        W78936  40.511  24.549  12.454
10563W        W78937  35.424  18.138   0.738
10564W        W78938  35.925  43.359   0.391
10565W        W78939  21.130  33.406   4.350
10566W        W78940  31.602  20.139  11.878
10567W        W78941  34.015  39.952  10.455
10568W        W78942   8.192  34.059  12.910
10569W        W78943  32.566  27.190  12.563
10570W        W78944  33.896  38.842   4.709
10571W        W78945  13.262  40.352   3.311
10572W        W78946  42.932   3.303   0.766
10573W        W78947  29.153  17.707   2.286
10574W        W78948   0.388  12.770  11.406
10575W        W78949   5.821  12.853  10.904
10576W        W78950  18.175   9.882   4.780
10577W        W78951  10.305  41.833  14.874
10578W        W78952   1.774   7.358  13.948
10579W        W78953  39.336  17.706   3.261
10580W        W78954  29.938  43.451   0.939
10581W        W78955  28.571   0.261   0.360
10582W        W78956  31.636  42.412   1.358
10583W        W78957  12.239   9.785   0.390
10584W        W78958  39.388  23.635   1.374
10585W        W78959   2.897  26.556   3.317
10586W        W78960   1.349   2.245  13.027
10587W        W78961  23.566  32.575   4.648
10588W        W78962  37.537  39.854   3.374
10589W        W78963   8.862   3.342  10.410
10590W        W78964   5.373  25.692   9.630
10591W        W78965  27.008  43.950  14.790
10592W        W78966  38.492  29.157   3.348
10593W        W78967  43.020   7.395  12.952
10594W        W78968   7.905  39.986  10.622
10595W        W78969   8.836   7.417   3.314
10596W        W78970  26.686  30.143   1.332
10597W        W78971  16.205   7.311   4.317
10598W        W78972  28.114   8.797   2.180
10599W        W78973  18.635  22.593  11.431
10600W        W78974  15.182  26.534  12.368
10601W        W78975  19.253  35.415  13.475
10602W        W78976  36.549  43.306   4.831
10603W        W78977   0.267  25.698  10.489
10604W        W78978  32.897   9.707  10.601
10605W        W78979  25.601  36.901   0.862
10606W        W78980   2.747  21.722   4.658
10607W        W78981  25.696  37.862  14.421
10608W        W78982  10.684   8.855  14.444
10609W        W78983  31.644  31.424   1.413
10610W        W78984  11.801  37.953  13.799
10611W        W78985  41.040  20.217   1.846
10612W        W78986   5.366  43.379   3.836
10613W        W78987  24.716  40.491  12.016
10614W        W78988  13.703  33.016  12.452
10615W        W78989   1.832  17.714   4.664
10616W        W78990   2.461   1.825  13.908
10617W        W78991  14.832   8.239  12.397
10618W        W78992   2.732  32.397  11.874
10619W        W78993  33.589  13.235   3.298
10620W        W78994  37.402  34.370  10.597
10621W        W78995  38.422   3.306  13.382
10622W        W78996   6.372  42.435   0.271
10623W        W78997  29.961  29.663  10.628
10624W        W78998  30.941  28.148  11.402
10625W        W78999   2.874   2.889   0.859
10626W        W79000  28.445  10.785   4.279
10627W        W79001  37.551  13.301   4.608
10628W        W79002  23.113  39.056   4.638
10629W        W79003  17.640  16.653   0.340
10630W        W79004  14.267  37.032   1.300
10631W        W79005  25.709  26.541  10.093
10632W        W79006  16.286  37.981   1.269
10633W        W79007  22.617  39.447  13.822
10634W        W79008   0.283  43.494   1.791
10635W        W79009  17.644  42.298  11.014
10636W        W79010   2.348  35.080   1.880
10637W        W79011  31.901  29.029   4.750
10638W        W79012  21.100  41.433   3.359
10639W        W79013  40.929   1.274   0.300
10640W        W79014  21.594  12.332   1.327
10641W        W79015   0.836   9.153   3.325
10642W        W79016  10.656  12.175   2.712
10643W        W79017  20.159  16.186   0.950
10644W        W79018  43.811   0.860   2.783
10645W        W79019  28.100  18.560  11.091
10646W        W79020  28.641   0.776   1.410
10647W        W79021   4.434  24.706  14.029
10648W        W79022  26.623  15.607  11.941
10649W        W79023   9.772  33.587  12.079
10650W        W79024  40.034  11.709  12.857
10651W        W79025   2.854  44.468   0.260
10652W        W79026   0.837  11.693   5.100
10653W        W79027  20.603  44.379  14.958
10654W        W79028  11.190   4.733  14.020
10655W        W79029  15.613  41.349   1.243
10656W        W79030  11.279  16.219  13.873
10657W        W79031  11.721  28.987  14.924
10658W        W79032  21.682  41.478   1.781
10659W        W79033  31.999  14.311   4.622
10660W        W79034  36.041   6.916  14.893
10661W        W79035   6.820   4.337  14.322
10662W        W79036   6.388   2.786   2.239
10663W        W79037  16.265   0.869  13.443
10664W        W79038  32.596  13.730  14.492
10665W        W79039  28.049  16.074  12.040
10666W        W79040  40.923  10.229   1.831
10667W        W79041  33.978   5.805   1.231
10668W        W79042  10.210   1.891   5.100
10669W        W79043  28.499   2.826  10.981
10670W        W79044  33.569   9.674   1.748
10671W        W79045   6.400  33.897   3.651
10672W        W79046   6.919  20.179  14.770
10673W        W79047  26.064  26.520   3.651
10674W        W79048   7.874  40.441  13.816
10675W        W79049   1.858  27.628  12.397
10676W        W79050  14.339  33.463   0.344
10677W        W79051  19.153  31.903  14.988
10678W        W79052   1.403  43.291  13.937
10679W        W79053  36.590  42.785  14.841
10680W        W79054  21.626  19.724  12.921
10681W        W79055  36.856  24.613   2.785
10682W        W79056  29.431  25.964   3.845
10683W        W79057  22.250  29.034   5.086
10684W        W79058  36.925   3.339  12.559
10685W        W79059  40.445  17.737   0.834
10686W        W79060  32.091  40.348  14.316
10687W        W79061  26.640  29.646  13.825
10688W        W79062   8.866  12.259  12.960
10689W        W79063  20.122  35.599   0.844
10690W        W79064  43.391  41.020  12.927
10691W        W79065  17.133  41.353   4.314
10692W        W79066   8.219  37.934   3.358
10693W        W79067  23.074  25.004  13.485
10694W        W79068   4.242  20.746  11.498
10695W        W79069   4.903  15.730   4.152
10696W        W79070  22.680  15.196   0.413
10697W        W79071  22.595  11.731   9.991
10698W        W79072  21.238  31.143   1.258
10699W        W79073  17.634  16.310   1.349
10700W        W79074  27.010  23.596   1.897
10701W        W79075   9.709  24.084  12.095
10702W        W79076  21.212  10.175   5.201
10703W        W79077  28.156  15.281   0.805
10704W        W79078   7.729  39.347  12.548
10705W        W79079   9.808  32.630   0.935
10706W        W79080  39.954  41.406  10.904
10707W        W79081   3.324  35.437  10.582
10708W        W79082  38.030  37.378   4.819
10709W        W79083  39.419  11.211  13.851
10710W        W79084  34.370  38.956   3.698
10711W        W79085  34.372   9.853  13.373
10712W        W79086   4.762  36.409   4.752
10713W        W79087  14.829  11.316  11.425
10714W        W79088  33.524  20.559   0.840
10715W        W79089  42.315   8.248   3.865
10716W        W79090  29.955  30.937   2.782
10717W        W79091  33.044  37.373   0.266
10718W        W79092  41.457  10.159   1.346
10719W        W79093   8.881  23.216  11.552
10720W        W79094  11.318  12.296  13.389
10721W        W79095  21.741  34.022  10.477
10722W        W79096  15.155  15.193  13.869
10723W        W79097  42.899  43.955   0.294
10724W        W79098  37.421  27.951   0.363
10725W        W79099   1.765  32.100   2.337
10726W        W79100   0.887  35.580  13.333
10727W        W79101  11.214   6.887  13.846
10728W        W79102   4.879  11.369  13.511
10729W        W79103   9.864   9.693  13.056
10730W        W79104  10.366  31.081  11.577
10731W        W79105  44.264  29.576   4.808
10732W        W79106   4.245  15.758  10.594
10733W        W79107  14.730  16.714   0.942
10734W        W79108   4.403  14.167   1.388
10735W        W79109  33.625  34.086   0.944
10736W        W79110  20.653  10.297  13.808
10737W        W79111   0.896  22.550   4.602
10738W        W79112  15.618  15.667  12.929
10739W        W79113  44.294  30.949   1.911
10740W        W79114   8.843  18.659  13.855
10741W        W79115   1.341   9.216   2.296
10742W        W79116  31.924   3.311   1.247
10743W        W79117  23.672  33.504   0.460
10744W        W79118  25.019  17.227  10.905
10745W        W79119  17.228  14.184  13.364
10746W        W79120   2.858  33.004  14.329
10747W        W79121  27.073   0.909  12.345
10748W        W79122  31.009  32.542  10.974
10749W        W79123  43.774  29.454  12.919
10750W        W79124   4.707  38.486  11.404
10751W        W79125  41.406  44.968   1.262
10752W        W79126  23.061  37.408  14.891
10753W        W79127   0.929  16.311   2.898
10754W        W79128  34.544  40.426  12.472
10755W        W79129  19.261  39.327   3.230
10756W        W79130  18.789  19.642   3.170
10757W        W79131  38.545  18.050  11.413
10758W        W79132   6.817   2.426   3.371
10759W        W79133  27.033  21.179  12.033
10760W        W79134  34.613   7.805   0.390
10761W        W79135  31.500  35.905  13.921
10762W        W79136  24.052   6.688   2.823
10763W        W79137  24.698   3.887  13.455
10764W        W79138   2.308  41.356   0.776
10765W        W79139  10.302  31.592  13.917
10766W        W79140  11.283   2.817   2.875
10767W        W79141  23.580  16.807   1.311
10768W        W79142  43.279  16.650  10.524
10769W        W79143  16.277  34.457   0.351
10770W        W79144  39.962  30.965   0.946
10771W        W79145   5.304  26.668  12.530
10772W        W79146  14.162  39.936   4.222
10773W        W79147  25.560  41.448   3.635
10774W        W79148  22.130  38.524  13.927
10775W        W79149   4.203  36.533   4.334
10776W        W79150   4.364  11.735  12.549
10777W        W79151  20.039  10.653   0.927
10778W        W79152  40.930  20.193  14.348
10779W        W79153  24.509  40.948   1.725
10780W        W79154  42.780  15.275   1.339
10781W        W79155  23.114  20.641  14.424
10782W        W79156  18.576  19.180   0.908
10783W        W79157  31.069  35.060   4.743
10784W        W79158   3.778  25.160   2.717
10785W        W79159  21.563  11.744  14.419
10786W        W79160  43.865   4.771  11.478
10787W        W79161  26.647  29.991  11.589
10788W        W79162  17.668  17.646   2.699
10789W        W79163  26.629   9.772   4.726
10790W        W79164  40.359  10.851  14.332
10791W        W79165   6.828  35.376  11.055
10792W        W79166   3.856   2.259   4.187
10793W        W79167  10.653   0.306   0.844
10794W        W79168  31.451   0.879  12.386
10795W        W79169  22.713  41.335   4.254
10796W        W79170  28.937  32.463  11.900
10797W        W79171  41.349   6.825  12.044
10798W        W79172  44.948  40.507  12.465
10799W        W79173   6.762  44.836  10.626
10800W        W79174  10.371   0.765  11.514
10801W        W79175  40.832  22.560  14.759
10802W        W79176   4.434  33.932   4.264
10803W        W79177  19.218   4.838   4.317
10804W        W79178  21.019  40.322   5.134
10805W        W79179  17.248  41.952  12.830
10806W        W79180  31.046  17.693   0.880
10807W        W79181   7.273  10.298   1.734
10808W        W79182   6.331  30.563   4.303
10809W        W79183   5.804  14.604   4.227
10810W        W79184  25.625  14.128  12.979
10811W        W79185  12.250   2.242  12.507
10812W        W79186  17.111  22.558  10.519
10813W        W79187  32.580   0.769  14.022
10814W        W79188  20.660  26.209   1.695
10815W        W79189  23.501  14.290  14.946
10816W        W79190  44.782   3.333   3.257
10817W        W79191  42.431  41.802  14.478
10818W        W79192  37.552  36.584   4.146
10819W        W79193  28.577  27.645  11.044
10820W        W79194  17.219  40.835   4.344
10821W        W79195  19.609   0.296   4.764
10822W        W79196   6.733  26.690   5.604
10823W        W79197   2.273  39.050  12.855
10824W        W79198   2.366  19.550  12.028
10825W        W79199  14.646  24.990   0.929
10826W        W79200  37.977   0.405  10.915
10827W        W79201  12.308   2.937  11.899
10828W        W79202   6.285  28.627   5.663
10829W        W79203  28.136  26.973   3.652
10830W        W79204  34.875  21.749   3.742
10831W        W79205   5.363  14.165  13.058
10832W        W79206  18.666  44.785  11.938
10833W        W79207   4.776  39.905   0.947
10834W        W79208  35.537  29.010   0.289
10835W        W79209  20.736  10.712  13.338
10836W        W79210  32.462  40.973  13.525
10837W        W79211  19.099  38.965  13.897
10838W        W79212  18.089   8.813   0.480
10839W        W79213  18.196  34.512  13.056
10840W        W79214  16.600  30.052   3.206
10841W        W79215  20.735  41.911  10.507
10842W        W79216   0.948  33.876   1.880
10843W        W79217  24.151  37.045  13.353
10844W        W79218  27.685  38.533  13.822
10845W        W79219  38.418   7.860   0.913
10846W        W79220  30.566  17.238   1.392
10847W        W79221  26.649  27.450   4.230
10848W        W79222  26.018  33.945  13.397
10849W        W79223  17.769   8.745   3.296
10850W        W79224  19.731   8.794   0.844
10851W        W79225   2.799  44.898  14.385
10852W        W79226   1.917  35.455   4.272
10853W        W79227   3.357  32.502  11.439
10854W        W79228  36.082  19.777  13.341
10855W        W79229  34.892   1.774  10.961
10856W        W79230  36.869  38.859   1.290
10857W        W79231  10.854  22.088  10.968
10858W        W79232   0.743  18.087   1.708
10859W        W79233  10.326  10.318   4.769
10860W        W79234  40.321  32.422  13.933
10861W        W79235  29.472   2.746  14.288
10862W        W79236  44.263  38.043   3.847
10863W        W79237  19.655  42.832   0.311
10864W        W79238  38.398   0.755  10.428
10865W        W79239  25.559  17.667  10.150
10866W        W79240  19.534  13.673   2.204
10867W        W79241   6.247  18.053  10.423
10868W        W79242   6.253  31.922  13.499
10869W        W79243   8.161  44.009   4.246
10870W        W79244  28.025   4.875   0.363
10871W        W79245   6.749   0.818  12.045
10872W        W79246  20.071  13.647   1.822
10873W        W79247   0.987  31.506  11.884
10874W        W79248  23.091  18.555  13.830
10875W        W79249  27.027  43.003   2.802
10876W        W79250   0.848  16.209   0.381
10877W        W79251  34.056  27.095   4.311
10878W        W79252  40.921  35.896  11.446
10879W        W79253  43.791  39.332   1.803
10880W        W79254  39.831  27.531  14.763
10881W        W79255  25.144  21.729  12.559
10882W        W79256  43.984  37.369  10.542
10883W        W79257  17.263  15.790  12.370
10884W        W79258   7.335  30.531  13.059
10885W        W79259  14.193  24.622  13.357
10886W        W79260  11.797  16.126   3.302
10887W        W79261  36.910  16.627  13.883
10888W        W79262  32.932  19.683   1.798
10889W        W79263   0.835  23.700  14.451
10890W        W79264   4.798  28.622   0.769
10891W        W79265   2.398  33.918   3.339
10892W        W79266  15.584  14.705  12.473
10893W        W79267  25.690  40.916  10.406
10894W        W79268  13.703  31.523  12.839
10895W        W79269  29.064  20.181  11.558
10896W        W79270  34.984  43.836  11.000
10897W        W79271  10.873  10.140   1.252
10898W        W79272  36.859   1.933   3.657
10899W        W79273  36.547  20.769   3.741
10900W        W79274  37.346  10.289  14.305
10901W        W79275  40.959   1.764   1.229
10902W        W79276  18.193  35.359   2.863
10903W        W79277  36.071   2.948  13.815
10904W        W79278   1.274  31.915  13.939
10905W        W79279  15.092  14.217   3.295
10906W        W79280  32.960  10.228  11.376
10907W        W79281  31.996  35.975  10.945
10908W        W79282  16.810   5.779  14.816
10909W        W79283  12.194  13.219  12.579
10910W        W79284   7.808  39.447  13.450
10911W        W79285   1.426   9.712  13.986
10912W        W79286   6.285  21.107  13.828
10913W        W79287   9.732   2.441   0.431
10914W        W79288  15.230  36.472   3.372
10915W        W79289   6.422  22.247   1.840
10916W        W79290  44.303  34.595  13.882
10917W        W79291  12.851  23.639  10.891
10918W        W79292  36.356  31.904  12.486
10919W        W79293  33.905  44.912   4.217
10920W        W79294  22.605  37.917   5.607
10921W        W79295  38.859  10.803  11.494
10922W        W79296  16.252  35.467  14.401
10923W        W79297  31.633  14.716  12.915
10924W        W79298  38.040   2.819   0.269
10925W        W79299  15.329  30.982   4.776
10926W        W79300  17.168  27.160  10.906
10927W        W79301  32.913   8.785  12.024
10928W        W79302  16.134  19.613  13.955
10929W        W79303  19.568  30.147  13.029
10930W        W79304   9.193  33.404  14.933
10931W        W79305  29.586  17.076  10.902
10932W        W79306   3.221  13.710  11.583
10933W        W79307   6.871  23.239   1.919
10934W        W79308  44.756  12.850   1.694
10935W        W79309  36.919   8.836   0.411
10936W        W79310  30.940  38.994   1.228
10937W        W79311  44.780  13.680  11.427
10938W        W79312  22.734  30.106  12.386
10939W        W79313  17.210  16.578  14.381
10940W        W79314  41.892  15.221  14.992
10941W        W79315  20.105  43.319   2.196
10942W        W79316   5.221  13.251   1.265
10943W        W79317  26.635  25.618   1.354
10944W        W79318  30.610  32.101   4.623
10945W        W79319  37.908  22.214  13.368
10946W        W79320   7.291   7.246   3.205
10947W        W79321  33.597  14.176  13.310
10948W        W79322  10.783  28.131  12.426
10949W        W79323   8.399  24.150   1.421
10950W        W79324   1.854  35.582   2.719
10951W        W79325   2.831  17.720   4.636
10952W        W79326   5.209  31.079   3.291
10953W        W79327  22.583   7.779   1.902
10954W        W79328  15.756   7.380   1.888
10955W        W79329   3.822  30.574   4.160
10956W        W79330  23.102  10.214   2.414
10957W        W79331  15.798  13.223  11.954
10958W        W79332  37.884  37.907  11.973
10959W        W79333  25.010   1.301   1.912
10960W        W79334  27.563  36.930  12.983
10961W        W79335   9.217  23.509  14.328
10962W        W79336   0.492  28.100  13.818
10963W        W79337  18.609  10.645  11.104
10964W        W79338   2.746  23.199   2.695
10965W        W79339  28.593  32.058  13.865
10966W        W79340  25.183  36.893  11.423
10967W        W79341   2.763  43.309  13.323
10968W        W79342  16.656  27.084  12.447
10969W        W79343  42.939  41.952   1.382
10970W        W79344  37.550  20.603  11.484
10971W        W79345   0.475  33.523   4.702
10972W        W79346  21.558  32.569  14.894
10973W        W79347  44.856  43.764   0.258
10974W        W79348  10.690   2.924  10.933
10975W        W79349   7.883  21.156   2.878
10976W        W79350  12.301  28.973   0.739
10977W        W79351  36.999  12.626  12.028
10978W        W79352  38.826  41.462   1.779
10979W        W79353  18.231   6.282  11.590
10980W        W79354  37.470  30.526  10.567
10981W        W79355  44.002  25.055  12.842
10982W        W79356  21.634   3.931  14.443
10983W        W79357  36.372  44.473  10.109
10984W        W79358   4.913  31.415   3.799
10985W        W79359  19.070  39.442  12.354
10986W        W79360  29.644   4.797   3.805
10987W        W79361  15.105  23.994  14.282
10988W        W79362  28.102  23.666  13.377
10989W        W79363   6.771   5.414   2.277
10990W        W79364  36.965  23.632   2.360
10991W        W79365  33.496  16.232   1.222
10992W        W79366  25.701  32.560  12.405
10993W        W79367  13.121  27.990   1.322
10994W        W79368  20.684  22.010  13.917
10995W        W79369  17.776  12.275   0.369
10996W        W79370   0.908  28.447  13.506
10997W        W79371  18.554  40.395  14.472
10998W        W79372  10.262  37.399   4.624
10999W        W79373   0.842  11.668   2.394
11000W        W79374   2.330  25.175  10.634
11001W        W79375  38.385  10.362  10.524
11002W        W79376  32.544  29.590  14.985
11003W        W79377  18.776  39.992  13.435
11004W        W79378  33.432  35.027  13.863
11005W        W79379  16.747   4.731  12.014
11006W        W79380   8.862   8.665  10.435
11007W        W79381  32.951   8.289  12.896
11008W        W79382  15.138  24.575   4.328
11009W        W79383  24.685  25.027   4.743
11010W        W79384  35.494   3.341  10.968
11011W        W79385  29.997  35.871   1.930
11012W        W79386  39.009  34.546  11.493
11013W        W79387  18.294   5.759   2.350
11014W        W79388   9.772  26.548   4.348
11015W        W79389   2.924  29.046   1.427
11016W        W79390  15.190  43.385  13.020
11017W        W79391   4.218  37.073   1.801
11018W        W79392  31.916  39.390   0.264
11019W        W79393   7.307   8.861  10.609
11020W        W79394  22.654  44.928  10.970
11021W        W79395  32.988  31.008  11.040
11022W        W79396  25.970  22.567  11.085
11023W        W79397   0.977  40.887  13.007
11024W        W79398   5.777  24.573  10.929
11025W        W79399  40.862  27.622   1.341
11026W        W79400  37.578  29.528   1.886
11027W        W79401   9.838  19.124  14.760
11028W        W79402  37.433  30.073  11.404
11029W        W79403  11.759  38.841   2.794
11030W        W79404  38.503  20.258   0.737
11031W        W79405  27.980  14.217  11.959
11032W        W79406  36.565  36.573   1.927
11033W        W79407  22.217  41.325  12.053
11034W        W79408  28.644  40.822  12.483
11035W        W79409  38.435   1.270  11.474
11036W        W79410   4.909  37.991   3.749
11037W        W79411   2.414  25.640   3.779
11038W        W79412   7.817   6.249   0.299
11039W        W79413  20.589  19.195   3.674
11040W        W79414  24.200   3.368  14.471
11041W        W79415  18.203  16.161   3.274
11042W        W79416  31.636  12.610   0.476
11043W        W79417  42.405  19.183  10.554
11044W        W79418   1.474  10.190   0.866
11045W        W79419   5.889  32.071  12.014
11046W        W79420   4.821   0.429   3.379
11047W        W79421  40.008  13.742   0.804
11048W        W79422  18.133  14.676   4.168
11049W        W79423  28.099  11.152   2.742
11050W        W79424   4.253  22.721  13.968
11051W        W79425  22.158  36.884  13.456
11052W        W79426  43.443  23.132  11.524
11053W        W79427   5.211  37.847   3.714
11054W        W79428  11.772  44.940  12.090
11055W        W79429  18.136  36.890  14.965
11056W        W79430  31.956  38.397  12.066
11057W        W79431  13.275  34.989   3.778
11058W        W79432  33.404   5.238  12.922
11059W        W79433  30.996  36.001   2.754
11060W        W79434  10.701  22.210  10.618
11061W        W79435   0.371   5.826   3.215
11062W        W79436  11.649  12.804  10.152
11063W        W79437  32.477  40.917   0.959
11064W        W79438  12.648  20.533   3.191
11065W        W79439  12.796  35.522   1.868
11066W        W79440  25.138  21.214   2.672
11067W        W79441  42.985  40.464   0.753
11068W        W79442  13.285  31.618  12.845
11069W        W79443  21.552  26.209   0.817
11070W        W79444  41.468  37.384   2.723
11071W        W79445  25.198  24.675   2.364
11072W        W79446   2.362  19.278  14.926
11073W        W79447   1.953  24.025  13.952
11074W        W79448   3.438  42.518  11.503
11075W        W79449   2.454  22.057  14.470
11076W        W79450   6.890  32.016   3.772
11077W        W79451  11.769  26.700   1.829
11078W        W79452  25.491  15.306   5.194
11079W        W79453  34.518  33.062   1.309
11080W        W79454  15.806  38.980  12.351
11081W        W79455  24.517  20.245   2.897
11082W        W79456  40.434  11.294   1.392
11083W        W79457  31.967  33.478  14.510
11084W        W79458  21.034  42.980  13.318
11085W        W79459  30.037  26.510  11.902
11086W        W79460   4.943  15.626   3.699
11087W        W79461  28.653  43.281  14.372
11088W        W79462  37.539  37.420   1.890
11089W        W79463  25.522  14.149  12.521
11090W        W79464  13.176  36.054   1.825
11091W        W79465  25.492   2.305  14.346
11092W        W79466   1.301   1.952   3.364
11093W        W79467  11.210  10.272  10.067
11094W        W79468  39.329  22.065   2.707
11095W        W79469  35.469  21.625   0.306
11096W        W79470  11.324   0.964  13.015
11097W        W79471  13.280  36.381  11.990
11098W        W79472  41.970  11.365  11.034
11099W        W79473  33.127  18.623   1.909
11100W        W79474  22.633  16.292  10.592
11101W        W79475  17.276   8.661  14.817
11102W        W79476  27.018  41.918  12.504
11103W        W79477  43.997  36.009   3.682
11104W        W79478  43.823  33.451   3.683
11105W        W79479   4.916  39.390   1.774
11106W        W79480  13.334  16.778  11.017
11107W        W79481  26.962   5.398   2.902
11108W        W79482   3.343  44.903   2.377
11109W        W79483  30.596   6.917   4.686
11110W        W79484  22.524  19.693   5.172
11111W        W79485  11.260  31.570  13.374
11112W        W79486  41.802  25.207   0.275
11113W        W79487  44.920  17.772  13.832
11114W        W79488   8.655  40.333   4.244
11115W        W79489   0.452  33.900  14.422
11116W        W79490   8.704  15.108   4.630
11117W        W79491  17.226   1.474   1.929
11118W        W79492   4.748   9.261   0.334
11119W        W79493  28.994  16.076  14.903
11120W        W79494  22.210  41.507   0.300
11121W        W79495  42.951  17.073   4.805
11122W        W79496  25.076   5.398   4.619
11123W        W79497  43.858  31.050  14.030
11124W        W79498  25.612  44.456   4.308
11125W        W79499   5.803   0.440  10.992
11126W        W79500  14.172  19.233   3.843
11127W        W79501  17.121  19.765  11.389
11128W        W79502  17.598  38.552   1.876
11129W        W79503   7.249  29.992  11.897
11130W        W79504  29.102  36.404  10.906
11131W        W79505   1.333  17.269   0.257
11132W        W79506  22.582  19.144   0.378
11133W        W79507  41.343  17.619   1.800
11134W        W79508  18.233  18.698   0.842
11135W        W79509  37.008  26.053  11.993
11136W        W79510  40.511  12.818   0.815
11137W        W79511  32.526  44.767  14.880
11138W        W79512  23.009  20.253  10.927
11139W        W79513  17.699  10.313  14.412
11140W        W79514  44.486  23.991   4.289
11141W        W79515  34.436  15.273   2.734
11142W        W79516  28.520  38.011   2.190
11143W        W79517  32.940  33.983  14.489
11144W        W79518  20.176  20.644  10.430
11145W        W79519  25.990  28.067   2.287
11146W        W79520  39.032  30.992   0.822
11147W        W79521  21.231  30.511  13.330
11148W        W79522  20.254  17.288  10.535
11149W        W79523  24.656   4.412   0.339
11150W        W79524  25.629  16.685   9.933
11151W        W79525   4.918  27.604  14.434
11152W        W79526  13.144  38.551   2.895
11153W        W79527   0.382  36.865  13.370
11154W        W79528   3.738  14.302  11.056
11155W        W79529   2.314   9.350   3.360
11156W        W79530  10.229  19.604  14.392
11157W        W79531  42.344  13.647   3.303
11158W        W79532  25.206  30.642  11.545
11159W        W79533  22.046  34.463   3.799
11160W        W79534  17.555  10.202   1.302
11161W        W79535  18.695  40.529  13.383
11162W        W79536  20.063   6.791  10.619
11163W        W79537  34.494  21.648   4.282
11164W        W79538  10.649  42.899   0.267
11165W        W79539  33.939  37.378   4.260
11166W        W79540  34.387  37.011  12.339
11167W        W79541  19.122   7.738  11.471
11168W        W79542  16.148  41.534  12.378
11169W        W79543   7.248  30.088  10.598
11170W        W79544  20.128   4.780   2.362
11171W        W79545  43.433  40.979  11.022
11172W        W79546  30.069  11.726   2.734
11173W        W79547  18.190   2.913  11.106
11174W        W79548  20.546   7.215   2.902
11175W        W79549   3.882  36.069  13.430
11176W        W79550  40.423  26.152   2.704
11177W        W79551  40.319   2.741   0.302
11178W        W79552  14.670  27.007   2.349
11179W        W79553  41.453  30.912  11.945
11180W        W79554   2.815   0.342  13.982
11181W        W79555   7.763  26.126  14.287
11182W        W79556  38.474   0.357  13.363
11183W        W79557  10.292  21.228   4.256
11184W        W79558  32.589  31.949  11.931
11185W        W79559  18.619  36.951  13.434
11186W        W79560  38.378  29.489   0.841
11187W        W79561  35.991  25.214  14.997
11188W        W79562  19.147  35.391   3.346
11189W        W79563  37.545  41.990   0.894
11190W        W79564  19.561  37.390   2.365
11191W        W79565   9.740  16.084  10.534
11192W        W79566  25.977  12.821   2.700
11193W        W79567  23.728  43.414  11.078
11194W        W79568  29.664  35.578   1.736
11195W        W79569  24.570  31.139  14.376
11196W        W79570  12.326  29.445  10.606
11197W        W79571   6.261   0.762   0.265
11198W        W79572  15.250   9.758   4.665
11199W        W79573  36.551  23.524   1.298
11200W        W79574  26.104   8.857  12.900
11201W        W79575   5.879  11.666   2.332
11202W        W79576  20.705  40.502  11.433
11203W        W79577  37.522  42.353   0.424
11204W        W79578  40.510   5.290  12.540
11205W        W79579   2.909  42.823  10.910
11206W        W79580   0.395   7.911   3.868
11207W        W79581  13.699  36.917   2.367
11208W        W79582  23.709   6.239   4.718
11209W        W79583  34.487  30.568   1.887
11210W        W79584  21.647  37.938   3.272
11211W        W79585  42.385  37.445  13.889
11212W        W79586  39.316  26.002   0.291
11213W        W79587  33.574   4.224   2.182
11214W        W79588  25.649  36.020  12.074
11215W        W79589  19.147  26.699   0.397
11216W        W79590   7.757  26.018   2.252
11217W        W79591   2.255  30.644  12.948
11218W        W79592  25.973  43.950  12.891
11219W        W79593  37.416  41.448   4.229
11220W        W79594  32.439  11.864  13.345
11221W        W79595  44.373  37.405  12.339
11222W        W79596  21.586  15.310  14.927
11223W        W79597  29.930   8.777   0.887
11224W        W79598  20.557  11.686   1.282
11225W        W79599  26.089   1.876  13.793
11226W        W79600  28.606   9.731   3.639
11227W        W79601   0.322  18.212   4.824
11228W        W79602   4.286  31.083  12.360
11229W        W79603  40.797   7.891  11.443
11230W        W79604  35.409  21.236   1.266
11231W        W79605  26.619  20.696  11.930
11232W        W79606  20.710  36.453   0.816
11233W        W79607   5.236  26.070  10.160
11234W        W79608  13.310  15.083   4.267
11235W        W79609   8.228   1.962  13.972
11236W        W79610  23.562  14.784  12.406
11237W        W79611  28.640  33.945   0.736
11238W        W79612  39.534  41.291  11.498
11239W        W79613  16.574   6.678   3.207
11240W        W79614  38.479  37.902  12.449
11241W        W79615  39.871  38.407   3.699
11242W        W79616  32.028  19.716  12.375
11243W        W79617  40.047  11.229   4.350
11244W        W79618  37.845   9.244  12.996
11245W        W79619   3.847  41.515  11.857
11246W        W79620  22.114  24.104   4.159
11247W        W79621   8.353  42.021  13.931
11248W        W79622  11.745  25.509  11.119
11249W        W79623  25.601  13.712  14.337
11250W        W79624  20.161  33.109   1.311
11251W        W79625  26.609  32.941  11.979
11252W        W79626   5.266  17.269  10.540
11253W        W79627   9.864  42.349  11.992
11254W        W79628  38.523  14.187   2.740
11255W        W79629  33.039  11.333   4.234
11256W        W79630  21.570  20.545  12.095
11257W        W79631  13.261   0.884  11.387
11258W        W79632  28.065  44.400   3.280
11259W        W79633  34.980  41.306   3.720
11260W        W79634  39.377  33.555   3.750
11261W        W79635  43.313  19.256   1.379
11262W        W79636  38.569  32.976  12.089
11263W        W79637   5.778  17.720   0.950
11264W        W79638  37.831  42.488  14.388
11265W        W79639  26.088  39.458   4.329
11266W        W79640   1.815   8.201   3.192
11267W        W79641  27.570  19.057   0.790
11268W        W79642  23.694  29.946  12.961
11269W        W79643  12.201  42.308   0.960
11270W        W79644  10.815  32.959   4.131
11271W        W79645   8.349  18.084  14.321
11272W        W79646  30.630  36.020   3.325
11273W        W79647  27.173  38.999   2.190
11274W        W79648  40.404  44.305   2.671
11275W        W79649  30.054  20.542  11.885
11276W        W79650  29.068  27.069  13.343
11277W        W79651   0.478  37.025   3.328
11278W        W79652  24.131  21.224   3.148
11279W        W79653  42.435   1.872  14.423
11280W        W79654  42.860  42.867  13.483
11281W        W79655  38.388  35.077  11.426
11282W        W79656  27.103  32.623  12.080
11283W        W79657  34.955  13.750   2.903
11284W        W79658  10.741  38.377  12.527
11285W        W79659  41.015  31.151  13.398
11286W        W79660  34.927   3.856   0.388
11287W        W79661  28.003  11.194  14.807
11288W        W79662  18.636  43.305   0.482
11289W        W79663  43.289  34.502  11.985
11290W        W79664  36.518  24.481   2.899
11291W        W79665  30.442  11.341  10.995
11292W        W79666   5.423  42.850  11.085
11293W        W79667  33.905  31.959   4.756
11294W        W79668  22.089  10.815  13.987
11295W        W79669  28.678  36.042  11.471
11296W        W79670   5.785  31.504  14.308
11297W        W79671   1.976  10.319   3.653
11298W        W79672  16.132  39.993   1.376
11299W        W79673  44.001  44.327   2.742
11300W        W79674   4.271  27.498  14.411
11301W        W79675  36.540  15.587   3.869
11302W        W79676   6.242  44.799   3.212
11303W        W79677  44.434  37.904   1.447
11304W        W79678  28.024  28.020   1.266
11305W        W79679  43.316   0.817   3.840
11306W        W79680  36.881  32.916   3.357
11307W        W79681  37.565  27.192  13.919
11308W        W79682  27.497  35.968   4.675
11309W        W79683  13.282  31.627   4.214
11310W        W79684   3.368  34.967   3.738
11311W        W79685  23.183   3.798   4.652
11312W        W79686  20.110  23.109   2.717
11313W        W79687  13.329  26.167  12.450
11314W        W79688  22.619   5.820  10.513
11315W        W79689  29.548  29.989   3.766
11316W        W79690  25.076  22.601  13.359
11317W        W79691  15.794  15.170  12.980
11318W        W79692  28.534   2.922  13.535
11319W        W79693  11.305  20.108   4.120
11320W        W79694  24.001  12.744  14.952
11321W        W79695  15.581  31.967  11.478
11322W        W79696  25.990  40.842  11.110
11323W        W79697  25.111  21.245   4.204
11324W        W79698  24.143  26.070   1.852
11325W        W79699   3.312  41.015   3.258
11326W        W79700  33.578  31.052   2.804
11327W        W79701  39.888  31.550  11.084
11328W        W79702  28.158  29.467  11.899
11329W        W79703  24.624   4.361  11.975
11330W        W79704  15.654  38.973   3.826
11331W        W79705  38.548  38.362   3.781
11332W        W79706  18.231  25.630  11.472
11333W        W79707  14.720  13.207  14.841
11334W        W79708  40.535  12.202  11.946
11335W        W79709   5.893   8.220   1.387
11336W        W79710  11.714  11.276  14.937
11337W        W79711  36.855   9.298   3.158
11338W        W79712  23.685  22.202  11.979
11339W        W79713  15.692  44.798  14.348
11340W        W79714  27.517  12.639  11.074
11341W        W79715  14.616  25.183  13.817
11342W        W79716  13.809   8.164   2.797
11343W        W79717  37.907   9.717   2.341
11344W        W79718  32.890   8.267   1.929
11345W        W79719  22.547  31.460  14.340
11346W        W79720  15.146   5.266  12.045
11347W        W79721  40.373  17.272  10.619
11348W        W79722   6.882  44.470  13.790
11349W        W79723  22.557  31.541   2.259
11350W        W79724  32.614  35.881   3.786
11351W        W79725  21.552  16.108   4.167
11352W        W79726  13.181   4.397  12.387
11353W        W79727  38.855  40.405   4.117
11354W        W79728   8.882  30.976   2.331
11355W        W79729   8.822  41.295  14.380
11356W        W79730  28.006  15.580   0.826
11357W        W79731  44.320  26.121   2.811
11358W        W79732   8.224  34.037   2.372
11359W        W79733  13.628   5.794   4.658
11360W        W79734  32.069  41.941   2.239
11361W        W79735   7.804   1.753  11.912
11362W        W79736   7.803  25.194   0.813
11363W        W79737  17.591   6.751  14.031
11364W        W79738  17.184  15.108   4.624
11365W        W79739  38.377  27.514  13.429
11366W        W79740  42.354  28.523   0.888
11367W        W79741  18.691  35.095   1.694
11368W        W79742  36.856   4.794   1.862
11369W        W79743  42.305  12.328  11.441
11370W        W79744  24.140  19.059   4.222
11371W        W79745  43.999   3.217   4.824
11372W        W79746  27.685  32.998   1.267
11373W        W79747  14.304  13.172  10.477
11374W        W79748   1.390  33.041   0.807
11375W        W79749  20.600  44.429   2.284
11376W        W79750   4.286  24.588  13.467
11377W        W79751  19.176  34.113  12.558
11378W        W79752  27.139   8.214   2.810
11379W        W79753   3.421  43.387  12.395
11380W        W79754   3.362   1.895  10.016
11381W        W79755  19.669  22.086  12.892
11382W        W79756   1.839   4.708  12.876
11383W        W79757   9.229  31.023  11.877
11384W        W79758  23.141  15.806  14.391
11385W        W79759   7.849  11.842   1.753
11386W        W79760  40.992   6.828   4.763
11387W        W79761  31.944  39.893   4.776
11388W        W79762  27.577  20.258   2.400
11389W        W79763  15.655  31.973   0.465
11390W        W79764  39.882  38.367   2.778
11391W        W79765  43.971  13.349  13.991
11392W        W79766  23.509  30.634  10.497
11393W        W79767  36.375  20.658  14.359
11394W        W79768  30.549  11.235   4.653
11395W        W79769  11.331  22.057   4.619
11396W        W79770  39.446  16.713  14.024
11397W        W79771  44.500   0.971  10.118
11398W        W79772  43.404   0.975   0.924
11399W        W79773  29.970   3.387  11.376
11400W        W79774  14.171  19.157   1.724
11401W        W79775  29.463   8.239  10.477
11402W        W79776  43.431  36.369   4.757
11403W        W79777  35.518  16.115   2.408
11404W        W79778   3.841  37.847  14.406
11405W        W79779  41.387   5.838  11.072
11406W        W79780  15.186  18.158  14.013
11407W        W79781  22.678  32.568   9.454
11408W        W79782  27.104  18.604  12.505
11409W        W79783  43.953  44.933   2.313
11410W        W79784   3.345  43.952  12.049
11411W        W79785  18.231  16.576   4.688
11412W        W79786  25.001  16.092   3.330
11413W        W79787  13.770  13.719  14.018
11414W        W79788   9.368  17.658   4.603
11415W        W79789  22.554  38.852  14.324
11416W        W79790  14.699  37.073   3.172
11417W        W79791  44.908  18.255  13.351
11418W        W79792  38.053   6.424   4.785
11419W        W79793  43.411  13.164  10.542
11420W        W79794  28.588  35.917   0.266
11421W        W79795  41.019  44.383  10.603
11422W        W79796  12.666  37.518   2.733
11423W        W79797  23.708  41.401  10.935
11424W        W79798  29.946  27.192  12.490
11425W        W79799  24.981  25.579   0.773
11426W        W79800  12.313  35.950  12.493
11427W        W79801   4.259   4.736   4.701
11428W        W79802  33.541   5.719   4.278
11429W        W79803  39.514  32.110  11.493
11430W        W79804   2.439  16.714   3.346
11431W        W79805  14.769  22.717  13.544
11432W        W79806  23.537  30.057   1.367
11433W        W79807   4.443  12.268  14.512
11434W        W79808  12.308  38.915  10.463
11435W        W79809  36.937  13.266  11.903
11436W        W79810   4.905  14.669   3.718
11437W        W79811  25.595  39.868  11.025
11438W        W79812  15.267  44.793  10.976
11439W        W79813  21.646   5.847   2.287
11440W        W79814  31.968  11.374  14.805
11441W        W79815  13.832  26.629   1.399
11442W        W79816   3.233  32.451  12.088
11443W        W79817  28.461  12.722  11.966
11444W        W79818   1.460  41.979   1.374
11445W        W79819  32.438  39.957   2.667
11446W        W79820   0.361   4.222  14.887
11447W        W79821  14.124  43.295  12.003
11448W        W79822  24.584  15.725   1.437
11449W        W79823  41.820   6.830  14.774
11450W        W79824  32.611  27.951   3.686
11451W        W79825  20.121  31.614   2.398
11452W        W79826   8.396  40.925  14.287
11453W        W79827  13.780  38.875  11.399
11454W        W79828   2.928  43.824  12.437
11455W        W79829   6.723  21.715  13.815
11456W        W79830  31.942  15.670  11.551
11457W        W79831  31.533  11.199   0.272
11458W        W79832  27.106  44.948  11.499
11459W        W79833  40.812  44.983   2.836
11460W        W79834   7.183  22.183   1.711
11461W        W79835  33.473   5.380   2.709
11462W        W79836  42.499  21.023   2.348
11463W        W79837   8.852  24.070  14.948
11464W        W79838  44.910  27.119   3.291
11465W        W79839  30.913  41.319   1.926
11466W        W79840   9.167   3.392  14.830
11467W        W79841   4.321   5.334   3.856
11468W        W79842  15.688   7.667   2.810
11469W        W79843  19.771  10.382   3.257
11470W        W79844  26.980  18.786  10.524
11471W        W79845  29.450  29.020   0.929
11472W        W79846   9.781   0.477  14.830
11473W        W79847  43.357   4.312  14.515
11474W        W79848  37.552  11.663   0.965
11475W        W79849  43.365   1.437   4.753
11476W        W79850  14.292   3.833  10.632
11477W        W79851  18.647  33.534   1.930
11478W        W79852  11.220  37.443  11.070
11479W        W79853   1.884  16.717   3.838
11480W        W79854  39.534   3.793   2.819
11481W        W79855  15.156  22.573  13.880
11482W        W79856  43.480  36.031  13.010
11483W        W79857  32.932  18.155  13.016
11484W        W79858  17.630   3.257   4.781
11485W        W79859   7.259  41.387   2.398
11486W        W79860  30.570  38.864  12.470
11487W        W79861   5.313  39.988  14.892
11488W        W79862  33.960  34.993  14.843
11489W        W79863  11.637  14.302  13.484
11490W        W79864  18.762  43.864  12.986
11491W        W79865   3.874   3.766   3.227
11492W        W79866  14.692  17.091  10.067
11493W        W79867  13.748  14.155  10.904
11494W        W79868  25.984  17.766   3.673
11495W        W79869  38.883  41.032   3.152
11496W        W79870  20.180  17.250  14.028
11497W        W79871  41.355  27.621   4.248
11498W        W79872  10.257   6.726   2.751
11499W        W79873  22.129  34.519   1.266
11500W        W79874  27.673  39.874   1.925
11501W        W79875  28.931  14.734   4.671
11502W        W79876  15.179  28.146  11.509
11503W        W79877  19.625  40.445  14.510
11504W        W79878  34.103   6.914  10.508
11505W        W79879  27.068  40.356  14.404
11506W        W79880  29.939  20.246  12.006
11507W        W79881  27.448  13.282   0.370
11508W        W79882  23.994   8.685  13.888
11509W        W79883  24.085   3.815   0.304
11510W        W79884  29.665  38.540  11.865
11511W        W79885  11.327  29.930   0.310
11512W        W79886  44.806  26.471  10.521
11513W        W79887  34.511  38.855   0.348
11514W        W79888  30.101  22.685   2.380
11515W        W79889   3.721  33.118   2.853
11516W        W79890  40.903  17.212   1.776
11517W        W79891   3.319  24.066  13.313
11518W        W79892  37.003  35.035  11.920
11519W        W79893  42.943   5.732  11.943
11520W        W79894   2.388  10.791  12.845
11521W        W79895  20.534  23.691  12.052
11522W        W79896  31.611   4.366   1.701
11523W        W79897  27.100  29.457  10.442
11524W        W79898  41.808  28.667   0.902
11525W        W79899  30.154  43.399   0.417
11526W        W79900  14.609  12.172  10.560
11527W        W79901   6.907  25.113  12.440
11528W        W79902  30.511  19.586   4.173
11529W        W79903  15.300  15.740  14.923
11530W        W79904  32.636  34.376  14.513
11531W        W79905  40.496   2.439   2.325
11532W        W79906  39.004  36.004   2.195
11533W        W79907  22.651   3.905  13.403
11534W        W79908  12.762   8.799   2.315
11535W        W79909  21.251  15.584   0.431
11536W        W79910  35.520  29.451   1.299
11537W        W79911  31.483  27.956  11.538
11538W        W79912  21.575  38.374  11.985
11539W        W79913  26.604  23.505   4.296
11540W        W79914  35.033  34.489   4.640
11541W        W79915  31.512   7.893   0.889
11542W        W79916  17.286  37.495   2.181
11543W        W79917  29.655  33.620  11.076
11544W        W79918  36.442  28.951  10.462
11545W        W79919  12.697  34.894  12.446
11546W        W79920  29.508  43.359   4.765
11547W        W79921  19.711  18.665  14.332
11548W        W79922  14.321  37.576   2.210
11549W        W79923  21.654  11.297  13.881
11550W        W79924   6.854   8.290   1.431
11551W        W79925  37.470  39.860  14.500
11552W        W79926  42.027  18.095   4.797
11553W        W79927   5.697   4.409   4.615
11554W        W79928   1.873  34.927   2.228
11555W        W79929  15.654   0.784  13.793
11556W        W79930   4.421  16.795   1.867
11557W        W79931  25.635   5.353  11.061
11558W        W79932  25.096  14.126  11.075
11559W        W79933  42.324   6.428   1.786
11560W        W79934  36.523   1.902  10.521
11561W        W79935  14.242  43.453  13.539
11562W        W79936  43.376  26.507  14.905
11563W        W79937  40.970  14.265   3.858
11564W        W79938  30.463  40.507  14.343
11565W        W79939  37.503  38.873  12.515
11566W        W79940   0.445  35.511  13.906
11567W        W79941  25.050  42.336  13.360
11568W        W79942  41.356   8.686   3.726
11569W        W79943  20.642  17.082  13.352
11570W        W79944  21.064   7.871  13.982
11571W        W79945  12.168  20.242  12.929
11572W        W79946  25.562  18.605  10.424
11573W        W79947   3.930  23.718  11.985
11574W        W79948  21.220  17.620  11.864
11575W        W79949  31.554  12.286  10.587
11576W        W79950  17.630   2.448   0.302
11577W        W79951  31.453  36.994  14.972
11578W        W79952  24.685  35.027   0.275
11579W        W79953   7.229   4.822   0.862
11580W        W79954  29.952  33.452  13.417
11581W        W79955  38.040  42.509  10.433
11582W        W79956  22.612  17.650  12.892
11583W        W79957   5.194  17.683  11.893
11584W        W79958  17.594  19.196  10.457
11585W        W79959  34.929   1.306  11.090
11586W        W79960   0.985   2.308  14.382
11587W        W79961  34.458  33.517   0.444
11588W        W79962  38.504  10.853  11.921
11589W        W79963  28.987   8.657   4.613
11590W        W79964  43.021  20.133   2.874
11591W        W79965  20.570   2.768   4.612
11592W        W79966  16.616  22.223   3.647
11593W        W79967  26.074  34.572   0.467
11594W        W79968   1.429  34.049  12.825
11595W        W79969  18.109  16.284  14.457
11596W        W79970  43.456  28.034  13.930
11597W        W79971  26.657   6.733   0.374
11598W        W79972   4.705  30.164   4.191
11599W        W79973  44.489  30.015   3.241
11600W        W79974  12.178   7.178   2.688
11601W        W79975  41.378  39.390  12.920
11602W        W79976   9.246  17.694  11.943
11603W        W79977  24.530  26.603  13.902
11604W        W79978  12.724  44.886  13.542
11605W        W79979  25.693   7.766   0.243
11606W        W79980   7.216  17.306  10.462
11607W        W79981  42.873   4.822  11.579
11608W        W79982  10.752   3.379   5.233
11609W        W79983  44.884   0.329  13.028
11610W        W79984  40.982  39.866   4.785
11611W        W79985  13.646  38.539   0.914
11612W        W79986  22.563  30.113   3.372
11613W        W79987  11.353  44.803  11.023
11614W        W79988  26.197   3.899   1.873
11615W        W79989  24.542  25.639  11.391
11616W        W79990  12.692   6.295  10.910
11617W        W79991  10.718  18.292  14.457
11618W        W79992   1.788  36.078  14.286
11619W        W79993  17.708  36.988  12.010
11620W        W79994  26.180  19.279   4.218
11621W        W79995  41.923  34.418   2.728
11622W        W79996   7.754  12.186  14.937
11623W        W79997   5.795   2.429   4.787
11624W        W79998  37.559  20.643  11.965
11625W        W79999   8.219  37.955  13.401
11626W        W80000  37.422  44.945  14.447
11627W        W80001  38.558  26.118  14.025
11628W        W80002   6.286  14.822   1.288
11629W        W80003  27.061   4.349   4.282
11630W        W80004  40.879   3.758  12.859
11631W        W80005  22.243  38.058  14.297
11632W        W80006   0.885  33.504  11.947
11633W        W80007  10.228  22.662   1.800
11634W        W80008  38.411  13.331   3.175
11635W        W80009  29.148  18.624   4.692
11636W        W80010  26.103  42.396  13.525
11637W        W80011  22.251  22.171   2.377
11638W        W80012  35.079  27.987   0.323
11639W        W80013  40.007  14.127   4.628
11640W        W80014  41.359  31.605   3.202
11641W        W80015  32.513  36.009   4.268
11642W        W80016  37.880   1.838   3.377
11643W        W80017   4.762  40.811  12.460
11644W        W80018  29.985  33.407   3.842
11645W        W80019  36.502   0.839   4.820
11646W        W80020  28.565  22.703  13.342
11647W        W80021   5.327  19.746   0.429
11648W        W80022   0.365  43.365   0.422
11649W        W80023  34.939  17.276   1.824
11650W        W80024  35.925  16.293  11.375
11651W        W80025  39.524  19.191   2.194
11652W        W80026  38.364  18.052   2.318
11653W        W80027   6.330  26.688   2.178
11654W        W80028  12.645  39.881   1.252
11655W        W80029  40.944  41.433   3.197
11656W        W80030   1.252  41.024   4.659
11657W        W80031  38.485  18.262  12.522
11658W        W80032  33.482  17.089  10.064
11659W        W80033  18.257  18.094  11.581
11660W        W80034  44.855  27.674   4.131
11661W        W80035   7.827  39.521  10.983
11662W        W80036  32.076  33.986  13.966
11663W        W80037  37.427  13.688  12.512
11664W        W80038   3.940  44.990   1.305
11665W        W80039  34.596  27.032   2.681
11666W        W80040   7.175  26.485   2.771
11667W        W80041  12.736  13.108   0.868
11668W        W80042  19.540  35.476  12.499
11669W        W80043  39.516  34.895   3.638
11670W        W80044  10.283  18.216   5.182
11671W        W80045   4.923   8.844  11.073
11672W        W80046  39.527  31.105   4.667
11673W        W80047  34.947  30.965  10.438
11674W        W80048  40.376  37.385   3.334
11675W        W80049  13.244   3.937  13.539
11676W        W80050  29.963  23.698   0.941
11677W        W80051  20.709  39.519  10.588
11678W        W80052  19.772   1.815  10.986
11679W        W80053  23.538  12.246   4.292
11680W        W80054  12.291   1.889  13.882
11681W        W80055   9.818   5.902   4.148
11682W        W80056  22.699  13.172  13.973
11683W        W80057  22.569   6.296  11.052
11684W        W80058  13.720  10.178  14.453
11685W        W80059  28.447  40.353  13.411
11686W        W80060   3.441  28.003   4.726
11687W        W80061  24.994  38.823  11.944
11688W        W80062  10.302  31.000   1.758
11689W        W80063   4.308   4.805  14.400
11690W        W80064   5.322   1.909   3.180
11691W        W80065  31.476  33.987   4.273
11692W        W80066  17.103  13.828  10.480
11693W        W80067  35.875   3.831  13.392
11694W        W80068  40.000  18.697  11.009
11695W        W80069  43.900  22.232  14.358
11696W        W80070  35.377  30.474   3.788
11697W        W80071   8.187  24.706   9.488
11698W        W80072  25.511  34.079   4.826
11699W        W80073   1.837   8.315  12.460
11700W        W80074  35.433  19.267  12.874
11701W        W80075  34.086  11.851   2.219
11702W        W80076  37.940  38.856  11.091
11703W        W80077  44.489  39.008  10.449
11704W        W80078  27.564   0.291  12.539
11705W        W80079   1.425  17.168  11.545
11706W        W80080   6.882  31.132  13.039
11707W        W80081   8.360   7.229  11.033
11708W        W80082   9.301  29.590  11.967
11709W        W80083  15.244  11.867  10.607
11710W        W80084   7.358  22.098  12.837
11711W        W80085   8.238  28.443   3.829
11712W        W80086  25.031  28.519  11.877
11713W        W80087  37.353  24.168  11.908
11714W        W80088  44.844  30.144   0.914
11715W        W80089  12.346  22.582  10.966
11716W        W80090  39.545   1.427  10.475
11717W        W80091  14.654  19.281  12.561
11718W        W80092  13.267  35.994  14.928
11719W        W80093  17.135  38.058  11.576
11720W        W80094  40.433  42.412   0.456
11721W        W80095  44.424  28.006  10.621
11722W        W80096   8.267  27.190  12.057
11723W        W80097   2.807  21.561  13.315
11724W        W80098  24.144  44.827   3.768
11725W        W80099   7.734  38.907   4.792
11726W        W80100  28.680  28.578   3.847
11727W        W80101   5.412  20.670   1.899
11728W        W80102  17.194  32.943   4.762
11729W        W80103  30.449  28.153  12.897
11730W        W80104  20.133  21.045  10.612
11731W        W80105  27.547  11.742  12.962
11732W        W80106  43.911  34.562  14.906
11733W        W80107  15.680   7.831  12.978
11734W        W80108  22.006  12.817   4.342
11735W        W80109  19.754  17.252  14.934
11736W        W80110  11.244  30.466  13.347
11737W        W80111  13.776   2.958  13.483
11738W        W80112   3.315  14.642   3.738
11739W        W80113   2.421  13.165   2.355
11740W        W80114  27.043  34.407   0.419
11741W        W80115  40.967  13.718  14.789
11742W        W80116  11.687  10.366   3.315
11743W        W80117  13.789  10.869  13.797
11744W        W80118   2.266  10.254  13.861
11745W        W80119  21.689  27.448   0.396
11746W        W80120   0.475  25.125  13.455
11747W        W80121  22.530  40.373   2.250
11748W        W80122  31.637  30.081  12.577
11749W        W80123   8.205   7.852  12.505
11750W        W80124  35.396  39.379   1.725
11751W        W80125   4.223  43.016  13.429
11752W        W80126  13.640  36.554   3.681
11753W        W80127  26.057  34.458   4.165
11754W        W80128  41.931   5.763   2.388
11755W        W80129  14.705  24.174  11.550
11756W        W80130  23.185  32.494  11.117
11757W        W80131  14.604  10.172   3.833
11758W        W80132  23.116  43.361  14.460
11759W        W80133  17.227  32.619   4.734
11760W        W80134  18.149  12.352   2.407
11761W        W80135  33.957  38.887  14.395
11762W        W80136  42.911  21.626  14.960
11763W        W80137  35.037  11.705  14.982
11764W        W80138  33.623   5.842  10.974
11765W        W80139   3.815   1.296  12.472
11766W        W80140  39.365  34.929   2.833
11767W        W80141  19.760  13.277   1.738
11768W        W80142  24.177   5.381  14.015
11769W        W80143   2.900  20.028  13.457
11770W        W80144  31.928   1.803   4.352
11771W        W80145   4.908  34.490   4.268
11772W        W80146  43.901   5.721  13.985
11773W        W80147  29.938  11.732  11.393
11774W        W80148  21.758  10.334  14.441
11775W        W80149   7.321  13.343   2.347
11776W        W80150  12.759  20.058   4.783
11777W        W80151  11.734   3.769  10.635
11778W        W80152   5.927   6.840  13.030
11779W        W80153   0.884  30.469  11.886
11780W        W80154  36.446  30.557   3.711
11781W        W80155   8.319  40.478   3.736
11782W        W80156   8.767  23.201  13.385
11783W        W80157  14.697   5.358  14.868
11784W        W80158  26.577  12.723  12.040
11785W        W80159  26.953  41.930   0.855
11786W        W80160  27.644   5.213  11.075
11787W        W80161  13.676  41.428   1.880
11788W        W80162  10.658  18.122   3.642
11789W        W80163  27.151  32.625  14.878
11790W        W80164   6.239  15.289   0.905
11791W        W80165  23.065  25.133   4.611
11792W        W80166  34.022  43.462  13.836
11793W        W80167  27.955  41.426  10.463
11794W        W80168  26.462   5.779   1.935
11795W        W80169  19.580  15.231  13.492
11796W        W80170  11.152   5.753   1.277
11797W        W80171  33.997  33.495   2.388
11798W        W80172  19.587  38.561  10.892
11799W        W80173  11.245   2.227  14.479
11800W        W80174  38.425  39.832  11.514
11801W        W80175  25.013  41.470   4.142
11802W        W80176  35.993  33.605  11.911
11803W        W80177  40.363  24.095   3.724
11804W        W80178  31.072   0.843   4.338
11805W        W80179  17.659  13.758  13.408
11806W        W80180  38.424  16.247   1.749
11807W        W80181  19.557  38.821   2.753
11808W        W80182   8.237  17.647  11.545
11809W        W80183  35.090  16.714  11.881
11810W        W80184   3.720  30.098  11.466
11811W        W80185  18.682  15.721   1.852
11812W        W80186   2.916  29.601  13.919
11813W        W80187  44.342  44.957  11.576
11814W        W80188   9.705   8.371  11.018
11815W        W80189  34.013  27.594   4.347
11816W        W80190   0.977  16.109  14.406
11817W        W80191  23.674  44.773  11.878
11818W        W80192  29.553  34.964   5.100
11819W        W80193  22.111  11.826   3.298
11820W        W80194  19.251   3.933  13.930
11821W        W80195  32.391  22.029  12.977
11822W        W80196  13.636  25.666  14.302
11823W        W80197   6.812  44.324   0.248
11824W        W80198  11.688  33.500  13.916
11825W        W80199   7.260  39.011   0.940
11826W        W80200  43.837  40.958  12.913
11827W        W80201   8.871   7.309  12.501
11828W        W80202  38.868  21.189   1.397
11829W        W80203  11.790   0.455  11.077
11830W        W80204  37.895  30.439  11.535
11831W        W80205  40.021   7.808   9.589
11832W        W80206  19.061   0.814  14.392
11833W        W80207  22.571  13.674   1.825
11834W        W80208  10.348   7.895  11.409
11835W        W80209  14.218  43.428   4.623
11836W        W80210  40.441  30.088   0.833
11837W        W80211  23.189   0.858   3.806
11838W        W80212  28.000  11.158  10.559
11839W        W80213  12.337   9.375   1.746
11840W        W80214  35.070  20.666   0.956
11841W        W80215  32.123  28.537   1.791
11842W        W80216  32.545  28.596  13.439
11843W        W80217   3.295   4.358  13.425
11844W        W80218   3.376  32.034  11.909
11845W        W80219  17.609   1.311  11.941
11846W        W80220  33.406  14.754   1.387
11847W        W80221  10.721  40.349   0.421
11848W        W80222  37.923  31.127   1.919
11849W        W80223  18.127  43.945  12.021
11850W        W80224  16.176   8.294   5.189
11851W        W80225   6.281  32.026   2.756
11852W        W80226   9.281  32.922  14.452
11853W        W80227  29.436   6.238   0.446
11854W        W80228  12.800  40.379   0.317
11855W        W80229  31.498  44.943   2.684
11856W        W80230  35.539  13.194  11.514
11857W        W80231  19.696  25.086  12.430
11858W        W80232  15.663   9.762  13.806
11859W        W80233  23.035   9.387  11.045
11860W        W80234  12.823   6.682  12.377
11861W        W80235   6.418   0.454  12.542
11862W        W80236   4.940  25.689   5.111
11863W        W80237   9.656   8.282   3.802
11864W        W80238   8.834  38.330   1.816
11865W        W80239  37.339   6.921  12.439
11866W        W80240  30.911  42.967   4.810
11867W        W80241   8.764  37.387  11.565
11868W        W80242  38.914   3.843   3.655
11869W        W80243  24.567  33.015  14.416
11870W        W80244   9.192   7.190   4.237
11871W        W80245  38.568  37.438  11.385
11872W        W80246  43.798   1.840  11.105
11873W        W80247  43.402  27.644   3.308
11874W        W80248  27.484  25.122  14.014
11875W        W80249  12.693  44.969  10.510
11876W        W80250  34.099  18.662  11.106
11877W        W80251   2.904  17.220  13.837
11878W        W80252  42.819  40.427  11.472
11879W        W80253  42.838   5.197   3.314
11880W        W80254  38.835  14.598   1.436
11881W        W80255  22.682  33.612  14.030
11882W        W80256  21.212  21.708   3.375
11883W        W80257  32.903  21.611   0.921
11884W        W80258   1.817  12.126   2.209
11885W        W80259   3.886  16.242   2.885
11886W        W80260  32.595  13.762  12.979
11887W        W80261  20.723  30.152  14.815
11888W        W80262  35.889  24.685  13.913
11889W        W80263  40.015  34.490   3.159
11890W        W80264  37.849  19.669  10.508
11891W        W80265  42.981  17.716   2.890
11892W        W80266  16.253  17.588   4.307
11893W        W80267  27.666  18.677  10.579
11894W        W80268  38.540   9.349   4.133
11895W        W80269   2.841  43.502  12.523
11896W        W80270  44.800   8.871   2.235
11897W        W80271  22.690   2.762   4.651
11898W        W80272   4.288  28.639  12.940
11899W        W80273  13.675  15.121  12.567
11900W        W80274   3.894  19.145   3.775
11901W        W80275  40.994   3.891   2.769
11902W        W80276  43.499  19.272   4.274
11903W        W80277  13.303  42.878  12.563
11904W        W80278   3.818  14.832   2.401
11905W        W80279  19.074  28.001   1.880
11906W        W80280  28.470  12.738  14.339
11907W        W80281  13.129  44.479  11.076
11908W        W80282  43.401   9.180   2.835
11909W        W80283  27.046  40.847  11.891
11910W        W80284   9.866  19.534  11.610
11911W        W80285  10.141  12.256   1.335
11912W        W80286  39.994  35.361  10.587
11913W        W80287  30.109  10.778   0.315
11914W        W80288   9.659  26.461  11.066
11915W        W80289   5.338  20.093   3.346
11916W        W80290  36.382  39.337  12.044
11917W        W80291  23.635   0.790   0.308
11918W        W80292   1.821  23.984   2.216
11919W        W80293   6.415  18.784  12.942
11920W        W80294  19.657  43.913  12.393
11921W        W80295   2.825  36.575  14.484
11922W        W80296  11.777  10.262   2.285
11923W        W80297   6.254  22.671  13.341
11924W        W80298  32.981  21.154   4.647
11925W        W80299   7.250  18.181   4.820
11926W        W80300  25.584  44.883  14.849
11927W        W80301  42.481  10.856  11.956
11928W        W80302  43.922  33.591   0.259
11929W        W80303  31.598   0.816  13.387
11930W        W80304  11.168  32.982  10.578
11931W        W80305  21.612  24.064  11.442
11932W        W80306  17.631  13.284   4.115
11933W        W80307  21.541  12.728  11.513
11934W        W80308  15.579  26.674  13.991
11935W        W80309  43.288  15.614  13.339
11936W        W80310  10.210  23.132  12.937
11937W        W80311  15.245   0.796   0.283
11938W        W80312  17.714  37.903   0.358
11939W        W80313  14.784  20.261  10.466
11940W        W80314  43.007  38.426   1.318
11941W        W80315  16.105  36.585  12.035
11942W        W80316  11.701   4.853   2.180
11943W        W80317  29.022  31.544  12.519
11944W        W80318  39.851  12.616  12.462
11945W        W80319   5.895  26.145  13.815
11946W        W80320   3.322  35.383   2.212
11947W        W80321  38.487  18.558   2.196
11948W        W80322  42.506  39.954   3.206
11949W        W80323  12.823   0.943  11.899
11950W        W80324  29.037  33.428   0.863
11951W        W80325  14.325   0.455   2.263
11952W        W80326   7.364   6.299  12.370
11953W        W80327  40.860  44.997  12.932
11954W        W80328  35.416  42.457  12.378
11955W        W80329  41.998  43.343   3.695
11956W        W80330  19.606  17.108   4.785
11957W        W80331  17.181  14.120  12.426
11958W        W80332  35.942  11.300  13.375
11959W        W80333   4.869   1.932   5.128
11960W        W80334  21.261  24.557   4.602
11961W        W80335  32.489  21.169   0.374
11962W        W80336  20.271  16.570  14.893
11963W        W80337   0.963  13.606   1.703
11964W        W80338  10.218  30.634  11.086
11965W        W80339  14.308   4.426   1.337
11966W        W80340  32.967  43.837   1.251
11967W        W80341   4.821  10.785  13.451
11968W        W80342  43.010   4.796   2.206
11969W        W80343   6.817  40.326  10.589
11970W        W80344  41.537  19.131  12.881
11971W        W80345  35.370  22.138  11.993
11972W        W80346   5.385  13.264  13.922
11973W        W80347  31.552   2.843   3.149
11974W        W80348  41.462  16.583   2.294
11975W        W80349   9.289  34.114   2.836
11976W        W80350  23.103  38.018  10.081
11977W        W80351  11.628  30.085   2.842
11978W        W80352  34.380   8.716   2.798
11979W        W80353   0.293  24.990  12.012
11980W        W80354  29.659  37.519  10.938
11981W        W80355  43.819  16.602  10.505
11982W        W80356   8.384  40.453   4.805
11983W        W80357  31.509  28.137   0.334
11984W        W80358  10.197  41.033  10.500
11985W        W80359  24.034  12.359   2.323
11986W        W80360  19.175  28.960  13.966
11987W        W80361  40.320  14.776   0.950
11988W        W80362  25.486  38.545  13.987
11989W        W80363  33.937  35.977   4.762
11990W        W80364  35.534  28.163  14.814
11991W        W80365  43.443  25.984   2.718
11992W        W80366  15.593  22.172  14.308
11993W        W80367  15.797  20.234   4.149
11994W        W80368  37.361  25.176  14.487
11995W        W80369  13.720  44.293  11.423
11996W        W80370  15.803   7.229   3.177
11997W        W80371  34.524  26.672  12.509
11998W        W80372   2.937  37.516   0.248
11999W        W80373   2.327   1.392   1.835
12000W        W80374  40.381   8.314   2.324
12001W        W80375  25.646  34.952  10.940
12002W        W80376  36.918   4.367  12.904
12003W        W80377  30.116  33.116  12.957
12004W        W80378  31.497   9.742   1.319
12005W        W80379  14.784  41.384  14.966
12006W        W80380  11.632  23.153   0.414
12007W        W80381   6.418  28.178   2.902
12008W        W80382  37.540  13.134   3.859
12009W        W80383  17.792  32.529   2.351
12010W        W80384   2.790  14.738   1.400
12011W        W80385  21.650  24.132   0.787
12012W        W80386  35.012  11.131  11.595
12013W        W80387   4.868   3.738   2.244
12014W        W80388  14.659   9.351  13.869
12015W        W80389  29.661  40.926  11.372
12016W        W80390  36.449  14.292   1.786
12017W        W80391  22.694   3.348   3.283
12018W        W80392  15.624  26.536   2.867
12019W        W80393  30.578  17.236   2.675
12020W        W80394  32.418  27.682  14.804
12021W        W80395   5.856   4.810   2.849
12022W        W80396   3.948  44.994  11.443
12023W        W80397  43.437  24.026  10.430
12024W        W80398   1.732   0.366   4.833
12025W        W80399  13.319  32.516   1.438
12026W        W80400  20.619  14.108  12.570
12027W        W80401  26.124   9.753  10.525
12028W        W80402  24.111  35.092   3.856
12029W        W80403  39.038   8.764   3.270
12030W        W80404  11.829  27.966   4.219
12031W        W80405  20.686  19.107  11.029
12032W        W80406  18.630   1.758  12.923
12033W        W80407  14.766   1.830   2.708
12034W        W80408  28.062  19.565  11.490
12035W        W80409  32.489   7.372   3.803
12036W        W80410  23.711  17.219  14.881
12037W        W80411   8.321   0.854  13.999
12038W        W80412  28.074  13.794   3.694
12039W        W80413  25.665  38.979  11.556
12040W        W80414  18.654  44.010   0.356
12041W        W80415  20.052   5.278  11.095
12042W        W80416  17.260  13.190   4.276
12043W        W80417  25.671  18.736   0.437
12044W        W80418   1.304  20.126   0.274
12045W        W80419  20.231  44.889   4.227
12046W        W80420  39.361   8.897  12.941
12047W        W80421  20.114   4.916  11.510
12048W        W80422   7.731   4.381  14.432
12049W        W80423  40.819  37.537   1.346
12050W        W80424  27.546  31.457   2.761
12051W        W80425  30.474  30.490   4.186
12052W        W80426  10.796  11.246   4.218
12053W        W80427  23.622  21.662   1.349
12054W        W80428  10.836  31.097  14.354
12055W        W80429   0.413  17.591  13.545
12056W        W80430  18.608   0.447   1.356
12057W        W80431  25.067  18.776   1.421
12058W        W80432   3.242  21.705  14.863
12059W        W80433  25.683  30.543   2.711
12060W        W80434  43.889  41.343  11.914
12061W        W80435   5.387  16.664   3.762
12062W        W80436  43.945  40.915   4.681
12063W        W80437  28.494  15.746  13.498
12064W        W80438  35.990  26.519   2.717
12065W        W80439   9.693  39.825  12.575
12066W        W80440  42.931  33.032   1.274
12067W        W80441  40.830  17.632   1.383
12068W        W80442  44.311  38.404  14.306
12069W        W80443  21.213  24.545   3.664
12070W        W80444  21.728  37.360  13.872
12071W        W80445  32.972   5.914  10.537
12072W        W80446  15.122  33.874   0.361
12073W        W80447  30.965  29.029   0.865
12074W        W80448  40.890  15.263  10.446
12075W        W80449  41.787  13.626   2.370
12076W        W80450  24.212  34.907   0.367
12077W        W80451  39.989   6.336   4.157
12078W        W80452   9.818  31.979   2.671
12079W        W80453   2.244   1.879   3.335
12080W        W80454  12.232  32.535  11.572
12081W        W80455  11.168  33.944  13.405
12082W        W80456  14.171  26.962  11.422
12083W        W80457  14.163  12.706   3.740
12084W        W80458  36.040  21.592  12.881
12085W        W80459  35.484  39.986  12.564
12086W        W80460  39.024   4.299   2.668
12087W        W80461   0.939   2.276   2.718
12088W        W80462  26.168   3.303   5.180
12089W        W80463  28.529   7.682  10.634
12090W        W80464  27.512  23.661   0.416
12091W        W80465  15.689  19.674   3.280
12092W        W80466  28.973   5.282   4.597
12093W        W80467   9.319   3.364   5.093
12094W        W80468   5.395   4.334  13.958
12095W        W80469  23.240  39.868   1.433
12096W        W80470   3.325   3.365  10.481
12097W        W80471   5.867  24.683   4.661
12098W        W80472  33.917  12.187  13.448
12099W        W80473  40.950  44.279  10.976
12100W        W80474   3.775  34.546  10.419
12101W        W80475  40.903  44.328  14.332
12102W        W80476  39.547  11.666   4.693
12103W        W80477   0.977  35.448  12.379
12104W        W80478  41.404  34.902  12.017
12105W        W80479  15.302   6.767   4.215
12106W        W80480  25.653  10.258  10.895
12107W        W80481  23.146   5.319   1.723
12108W        W80482  31.985  27.598  11.454
12109W        W80483  11.749  32.421   0.362
12110W        W80484  41.338   5.801   0.398
12111W        W80485  16.714   1.757  14.331
12112W        W80486  32.426  38.850   3.665
12113W        W80487  13.654  34.887   1.868
12114W        W80488  42.458   4.869  12.019
12115W        W80489  38.439   0.369   0.263
12116W        W80490  17.622  15.588   0.483
12117W        W80491  41.039  24.029   2.852
12118W        W80492  16.694  19.181  13.453
12119W        W80493  32.560  26.104   4.113
12120W        W80494  18.280  35.941  11.014
12121W        W80495   9.814  10.201   0.394
12122W        W80496  40.396  36.401   0.326
12123W        W80497  15.246  26.582   1.268
12124W        W80498  15.130  23.606   1.288
12125W        W80499  34.931   0.929   5.179
12126W        W80500  13.333  23.108  11.891
12127W        W80501  25.674   8.858  11.006
12128W        W80502  11.773  13.841   3.316
12129W        W80503  38.370  36.392   3.734
12130W        W80504  22.050  40.423  13.947
12131W        W80505  38.999  14.300   4.266
12132W        W80506  38.045  12.714  12.464
12133W        W80507  20.160  41.356  14.312
12134W        W80508  22.240  39.873  13.843
12135W        W80509  28.525  25.010  13.416
12136W        W80510   4.310  37.353  13.828
12137W        W80511   1.744  38.988   1.785
12138W        W80512  39.873  18.725  11.960
12139W        W80513  11.189  39.396  12.037
12140W        W80514  34.376  43.319  14.420
12141W        W80515  34.890  12.686  14.791
12142W        W80516  16.571  26.958   4.251
12143W        W80517  15.150  42.522  10.978
12144W        W80518  40.518   6.722  11.515
12145W        W80519  28.059  14.830   0.896
12146W        W80520   3.330  31.931  14.974
12147W        W80521  33.911  24.157   4.629
12148W        W80522  39.048  14.712   0.745
12149W        W80523  37.859   2.724   0.751
12150W        W80524  29.593  40.993   2.846
12151W        W80525  28.949  16.742  12.579
12152W        W80526  34.497  13.230   1.759
12153W        W80527  11.629  35.949  12.036
12154W        W80528  22.683   4.305   1.354
12155W        W80529  23.687   2.882  13.909
12156W        W80530  15.812  29.967  14.497
12157W        W80531  40.850   2.392   4.670
12158W        W80532  22.184  12.203  11.374
12159W        W80533  10.314   9.835  13.970
12160W        W80534  38.901  19.255  13.384
12161W        W80535  41.493  20.065   2.212
12162W        W80536  16.782  12.705   1.879
12163W        W80537  23.706  15.225   4.768
12164W        W80538  13.169  10.645  11.919
12165W        W80539  42.481  10.820  14.913
12166W        W80540  27.612  35.363   1.782
12167W        W80541  42.296  32.024  14.798
12168W        W80542  34.898  27.011   2.667
12169W        W80543  30.415  42.018  12.994
12170W        W80544  17.690  17.627  11.499
12171W        W80545   1.269  37.061  14.818
12172W        W80546  18.254  27.070  14.298
12173W        W80547  40.482  37.033  12.382
12174W        W80548  30.521  16.743   3.857
12175W        W80549  35.009  35.860  10.571
12176W        W80550  22.067  42.405  14.782
12177W        W80551  31.556  39.929  13.862
12178W        W80552  35.972  31.554   4.216
12179W        W80553  31.550  14.112   1.351
12180W        W80554  17.694  28.573  10.644
12181W        W80555   4.269  13.777  13.864
12182W        W80556  29.462  43.014  14.031
12183W        W80557  22.146  23.617   1.914
12184W        W80558  29.589  26.125   1.788
12185W        W80559  34.443  38.026  10.447
12186W        W80560  24.210  31.966   0.432
12187W        W80561  36.979  14.698   3.329
12188W        W80562  27.169  31.907   2.199
12189W        W80563  39.064  39.992   3.242
12190W        W80564  22.710  34.486   0.451
12191W        W80565  42.297  23.696  13.995
12192W        W80566  32.958  12.318   4.611
12193W        W80567   7.212  11.345   4.204
12194W        W80568  13.720  39.462  11.457
12195W        W80569  42.287  11.313   3.760
12196W        W80570  40.000  30.111  11.063
12197W        W80571   3.857  33.130   1.727
12198W        W80572  31.545  37.931  12.498
12199W        W80573  37.058  40.949   4.151
12200W        W80574  39.044  13.840   0.772
12201W        W80575  20.039  38.428   1.796
12202W        W80576  15.094  14.199   4.308
12203W        W80577  42.890  16.692  10.910
12204W        W80578  15.094  27.601  13.542
12205W        W80579  12.661  11.732  11.972
12206W        W80580   3.411  11.629  12.478
12207W        W80581  37.921  12.262  14.810
12208W        W80582  32.889  23.083  11.409
12209W        W80583  19.038  33.399  11.575
12210W        W80584  27.490   7.792   2.259
12211W        W80585   2.362  34.948   4.160
12212W        W80586  39.850  20.186   0.919
12213W        W80587  40.416  18.196   9.998
12214W        W80588  19.213  18.768   0.728
12215W        W80589   6.244  29.960   9.630
12216W        W80590  17.128  37.402   3.767
12217W        W80591  36.054   2.839  11.519
12218W        W80592   9.164  15.169   2.225
12219W        W80593  35.558  17.611   4.597
12220W        W80594  25.013  14.315   0.436
12221W        W80595  25.495  38.927   0.436
12222W        W80596   6.335  13.303  14.931
12223W        W80597   1.276   4.295  11.467
12224W        W80598  34.615  34.588   0.753
12225W        W80599  38.516   7.852  14.380
12226W        W80600  42.344  10.347  10.419
12227W        W80601  37.497  21.574   3.379
12228W        W80602  20.081   3.435  14.830
12229W        W80603  24.486  18.244  13.476
12230W        W80604  20.744   9.712  14.415
12231W        W80605  15.823  24.991  14.792
12232W        W80606   4.297   7.226  11.539
12233W        W80607  44.489  19.567   4.658
12234W        W80608  22.639   6.398   5.157
12235W        W80609   6.884  39.988  13.988
12236W        W80610  42.886  38.887  12.940
12237W        W80611  10.683  33.510   1.325
12238W        W80612   7.210  34.877  12.853
12239W        W80613   6.373  38.953  12.526
12240W        W80614   9.287  31.536   1.844
12241W        W80615  20.647  14.149   3.293
12242W        W80616  36.565  25.192  13.051
12243W        W80617   8.387  22.095  12.035
12244W        W80618   9.677  43.478  10.564
12245W        W80619  34.923  29.953   2.865
12246W        W80620  20.135   8.887   0.827
12247W        W80621   1.929  29.121   3.279
12248W        W80622   7.824  38.457  13.035
12249W        W80623  34.899   0.866   3.236
12250W        W80624  37.952  30.462   0.267
12251W        W80625  12.706  31.538  13.384
12252W        W80626   8.268  25.171   5.308
12253W        W80627  27.176  24.485   4.811
12254W        W80628   6.784  26.645  11.973
12255W        W80629   8.786  30.654   5.274
12256W        W80630  19.215  14.145  14.928
12257W        W80631   3.454   1.911   2.798
12258W        W80632   8.296  12.688  11.517
12259W        W80633  24.222  24.189   3.729
12260W        W80634  12.355  44.270  11.450
12261W        W80635  13.765   8.807  11.114
12262W        W80636  32.142  24.004   3.635
12263W        W80637  32.394  32.018   0.769
12264W        W80638   5.746  44.461   3.266
12265W        W80639   8.852  27.049  11.506
12266W        W80640   6.410  21.229  11.959
12267W        W80641   2.269  42.784  11.416
12268W        W80642  30.008  12.252  11.099
12269W        W80643   6.699   8.759   2.817
12270W        W80644  10.318   3.877  14.931
12271W        W80645  33.525  23.549  13.474
12272W        W80646  17.720   7.795  14.340
12273W        W80647  41.320  39.423   0.333
12274W        W80648  33.517  36.085   1.727
12275W        W80649  28.107  19.220   3.263
12276W        W80650  34.452  29.511  12.361
12277W        W80651  29.981  38.854   3.716
12278W        W80652   0.368  21.217   2.709
12279W        W80653  30.139  16.106   1.237
12280W        W80654  10.816  42.305  13.382
12281W        W80655  21.047  37.967   2.236
12282W        W80656  19.569   7.859   3.728
12283W        W80657  41.345  23.053   0.286
12284W        W80658  14.643  19.591  11.425
12285W        W80659  33.578  23.540  12.055
12286W        W80660  36.912  42.916   0.451
12287W        W80661  42.960  15.737   0.943
12288W        W80662  18.556   9.686  14.512
12289W        W80663  35.419   3.952   1.406
12290W        W80664  15.307  17.072  13.338
12291W        W80665  13.183  28.555   4.789
12292W        W80666  27.620  12.249  13.909
12293W        W80667   4.810  27.144  13.350
12294W        W80668  32.903  16.243  14.805
12295W        W80669   9.732  32.932   4.708
12296W        W80670   1.946  24.000  12.950
12297W        W80671  27.646  15.757  10.569
12298W        W80672  15.583  10.271   0.335
12299W        W80673   1.424  25.540  12.478
12300W        W80674   2.288  29.648   2.272
12301W        W80675  16.737  20.189  11.454
12302W        W80676  43.891  27.638  14.460
12303W        W80677   4.865  30.035   1.820
12304W        W80678  21.156  19.548   1.908
12305W        W80679  35.576  19.661   2.882
12306W        W80680  25.641  40.011  13.056
12307W        W80681  34.986  11.169   3.647
12308W        W80682  10.691   9.799   3.315
12309W        W80683   6.912  34.418   2.260
12310W        W80684  18.572   5.389   3.248
12311W        W80685  20.691  34.600  11.907
12312W        W80686   2.305   3.807  13.503
12313W        W80687  13.191  10.333   1.361
12314W        W80688   0.364  34.050  11.609
12315W        W80689  33.426  40.432  12.911
12316W        W80690  28.967   0.815   1.800
12317W        W80691   3.713  41.821  13.823
12318W        W80692  24.001  41.512   9.991
12319W        W80693  24.160  41.327   0.779
12320W        W80694  44.274  34.115  11.889
12321W        W80695   9.796  35.948  14.409
12322W        W80696   3.747  38.924   2.364
12323W        W80697  27.044  14.329   2.774
12324W        W80698  27.640  38.505  14.281
12325W        W80699  13.814  17.580  10.427
12326W        W80700  41.478  40.402  13.914
12327W        W80701  15.763  34.051   5.240
12328W        W80702  24.013  17.731   4.322
12329W        W80703  39.000  23.008  11.500
12330W        W80704   9.201  39.542  11.440
12331W        W80705  43.365  43.990  14.440
12332W        W80706  34.880  18.606   4.761
12333W        W80707   9.333  41.398  11.560
12334W        W80708  39.493   9.213   5.281
12335W        W80709  14.613  19.701   2.833
12336W        W80710  15.213  40.366   3.259
12337W        W80711  18.575   9.840   0.941
12338W        W80712  28.149  22.600  10.059
12339W        W80713   4.754  13.330   0.306
12340W        W80714  10.779  10.651  10.569
12341W        W80715   3.905  39.489   1.229
12342W        W80716  11.347  31.577   4.325
12343W        W80717  42.996  37.015   2.228
12344W        W80718   6.870  26.530  10.418
12345W        W80719   8.220  34.587   2.231
12346W        W80720  24.631  28.571   4.225
12347W        W80721  34.368   8.338   2.805
12348W        W80722  40.547  20.251   2.333
12349W        W80723  13.228  29.139   3.682
12350W        W80724  35.492  42.475  14.997
12351W        W80725   2.327  27.074  12.535
12352W        W80726  15.601   9.872   1.286
12353W        W80727  12.223  17.631  12.064
12354W        W80728   9.861  17.750  12.503
12355W        W80729  30.981  12.123  10.505
12356W        W80730   7.406  12.765  14.432
12357W        W80731  41.963   2.912   4.183
12358W        W80732   0.258  29.585   4.252
12359W        W80733   2.794  32.970   0.249
12360W        W80734  21.207  29.490  12.548
12361W        W80735  33.119  28.646   4.601
12362W        W80736  41.042  11.746   4.236
12363W        W80737  34.446  29.990  12.367
12364W        W80738   8.401  26.569   3.792
12365W        W80739  37.575  29.933  11.897
12366W        W80740   3.392  43.946  11.097
12367W        W80741  36.516  44.818   3.272
12368W        W80742  23.620  39.365   1.895
12369W        W80743  12.799  34.492   3.333
12370W        W80744  38.437  14.830  12.891
12371W        W80745  28.460  27.096  13.940
12372W        W80746  33.116   0.435   2.863
12373W        W80747   7.179  23.196  13.390
12374W        W80748   2.426  38.973   3.678
12375W        W80749  27.453  33.505   4.305
12376W        W80750  20.161   8.382  14.401
12377W        W80751   8.275  28.453  10.492
12378W        W80752  12.159  31.003   2.382
12379W        W80753  27.634  28.161   4.242
12380W        W80754  39.910  11.369   1.259
12381W        W80755  38.014  24.985   4.721
12382W        W80756  36.093  30.434   2.673
12383W        W80757   4.278   3.851   2.367
12384W        W80758  28.108  14.604  14.843
12385W        W80759  14.821  26.099   4.232
12386W        W80760  34.076   1.284  12.849
12387W        W80761  25.686  16.638   3.769
12388W        W80762  42.915   6.296   0.796
12389W        W80763   8.225  29.034   0.338
12390W        W80764  44.937  21.260  12.502
12391W        W80765  18.598  12.739   3.249
12392W        W80766  25.002  31.934  12.935
12393W        W80767  24.713  34.092   1.745
12394W        W80768  29.964  15.790   3.668
12395W        W80769  34.046  25.997   0.252
12396W        W80770  40.824  32.142   2.662
12397W        W80771   7.898  35.539  11.951
12398W        W80772  44.006  32.070   1.725
12399W        W80773  42.820   7.839   4.646
12400W        W80774  26.524   3.292   0.859
12401W        W80775  10.741  43.322   0.966
12402W        W80776   2.313  15.235   1.220
12403W        W80777  17.598   2.879   0.409
12404W        W80778  20.213  27.941  11.936
12405W        W80779  23.094  37.010   4.114
12406W        W80780   4.780  31.551  12.843
12407W        W80781  40.322  11.196  12.005
12408W        W80782   6.393  37.373  10.944
12409W        W80783  16.597  18.284  12.407
12410W        W80784  24.602   1.291   3.181
12411W        W80785  20.702   8.738   5.142
12412W        W80786  42.395  33.558   4.650
12413W        W80787   1.857  25.187  14.378
12414W        W80788  27.517  20.750   1.436
12415W        W80789  22.525  22.565   3.756
12416W        W80790  37.970   9.755   5.192
12417W        W80791  41.955  23.732   0.765
12418W        W80792  42.935  37.501   3.695
12419W        W80793  44.952   0.921  12.555
12420W        W80794   0.357   5.884  14.969
12421W        W80795  15.106  39.993  14.291
12422W        W80796  36.363  19.118  13.045
12423W        W80797   7.329  19.045  10.104
12424W        W80798  12.117   1.323   3.265
12425W        W80799  33.108  21.203   1.360
12426W        W80800  17.144   9.807   1.860
12427W        W80801  18.604  40.371   2.843
12428W        W80802  21.638  23.524   3.361
12429W        W80803  28.651  27.983  12.984
12430W        W80804  43.795   8.219   0.450
12431W        W80805  18.080  29.505   0.948
12432W        W80806   1.433  31.582  14.400
12433W        W80807   0.247  24.556   2.408
12434W        W80808  32.017  26.684   3.728
12435W        W80809  10.847  31.549   4.303
12436W        W80810   7.841  42.889   3.645
12437W        W80811   8.356  17.665  11.000
12438W        W80812   7.329   2.304   4.142
12439W        W80813  22.134  31.134   0.918
12440W        W80814  15.643  27.036   9.975
12441W        W80815  37.859  13.248  13.500
12442W        W80816  39.453  19.229   2.709
12443W        W80817  29.459  18.202  14.382
12444W        W80818  14.722  25.977   3.787
12445W        W80819  42.283  26.165  14.350
12446W        W80820  17.726   4.891   1.740
12447W        W80821   7.269  21.512  12.380
12448W        W80822   7.248  30.584   4.802
12449W        W80823  42.284  19.170   1.701
12450W        W80824  24.075  17.156   1.335
12451W        W80825   5.932  11.694  14.007
12452W        W80826   1.965  44.791   2.726
12453W        W80827   3.430  30.024   4.329
12454W        W80828  13.648  38.845   0.290
12455W        W80829   7.764  33.015  14.795
12456W        W80830  14.627  25.088  10.475
12457W        W80831  37.924  39.832   2.728
12458W        W80832  11.649  33.525   4.727
12459W        W80833  38.332  40.382  12.483
12460W        W80834  44.499  16.638   4.267
12461W        W80835  37.348  29.462   3.158
12462W        W80836  21.143   4.746  14.412
12463W        W80837  37.387  24.517   3.376
12464W        W80838   7.739  29.535   2.681
12465W        W80839  38.364  22.641   1.224
12466W        W80840  29.590   3.933  10.489
12467W        W80841  31.444  21.673   3.650
12468W        W80842  22.012  41.400  12.933
12469W        W80843  34.473  17.289   2.770
12470W        W80844  22.013   3.910   4.806
12471W        W80845  14.268  39.811  13.324
12472W        W80846  38.502  11.159   2.304
12473W        W80847  19.672  43.812   1.741
12474W        W80848   6.809  37.454  13.931
12475W        W80849  10.228   8.778   2.832
12476W        W80850  34.437  10.683   2.820
12477W        W80851  41.436  15.717  11.128
12478W        W80852  34.592   7.843  13.406
12479W        W80853  33.947  34.030  13.022
12480W        W80854  44.927  26.092   4.153
12481W        W80855  11.259  31.986   2.862
12482W        W80856  34.405  17.698   3.193
12483W        W80857  39.860  38.345  13.792
12484W        W80858  35.955  41.301   1.761
12485W        W80859   4.283   4.709  10.488
12486W        W80860  13.123   2.266  11.011
12487W        W80861  20.618  13.750   3.646
12488W        W80862  35.526   2.310  11.907
12489W        W80863   7.314  16.612  12.532
12490W        W80864  37.427   1.852   0.355
12491W        W80865   4.873  13.224   3.775
12492W        W80866  23.579  22.513  13.968
12493W        W80867  28.537  17.222   3.294
12494W        W80868   2.924  25.032   3.148
12495W        W80869  43.873  42.936   1.420
12496W        W80870  15.220  42.460  10.562
12497W        W80871  10.287   2.948   4.306
12498W        W80872  26.955  20.201   4.631
12499W        W80873  17.205  14.763  11.932
12500W        W80874  23.556   4.345   2.799
12501W        W80875  15.782  31.010   3.806
12502W        W80876  34.873  36.963   0.771
12503W        W80877  32.472  34.040   0.739
12504W        W80878   8.655  24.640  11.399
12505W        W80879  13.599  26.132   4.769
12506W        W80880  15.284  39.391  12.052
12507W        W80881  39.822  12.797   2.346
12508W        W80882  20.694  43.795  11.940
12509W        W80883   4.806  35.526   4.815
12510W        W80884  24.117  27.056  14.327
12511W        W80885  37.570  10.261  12.510
12512W        W80886  41.294  41.040   2.785
12513W        W80887  16.702  43.380   2.870
12514W        W80888  37.371  23.985  11.540
12515W        W80889   5.430  18.246  10.915
12516W        W80890  38.055   6.294   3.683
12517W        W80891  12.627  44.941   4.337
12518W        W80892  38.998  26.631  13.063
12519W        W80893   5.229   6.388  14.801
12520W        W80894  30.927  17.731   4.709
12521W        W80895  10.777  23.062   2.406
12522W        W80896  33.900  34.046  13.402
12523W        W80897   0.898  20.197   3.793
12524W        W80898   6.357  21.573  11.900
12525W        W80899  38.559  23.010   1.436
12526W        W80900  44.909  26.147   3.285
12527W        W80901  30.043  14.728   1.332
12528W        W80902   3.921   1.289  13.528
12529W        W80903  14.179   4.413   4.812
12530W        W80904  43.870   5.242  11.460
12531W        W80905  41.795  25.001  13.920
12532W        W80906  21.173  27.617  13.504
12533W        W80907  28.623  42.438  10.446
12534W        W80908  39.001   5.262   1.906
12535W        W80909  44.801  12.271  12.462
12536W        W80910  26.643  44.943   5.711
12537W        W80911  16.681  25.570   4.318
12538W        W80912  39.055  13.276  11.412
12539W        W80913  24.979  34.879  10.989
12540W        W80914  36.492  21.156  14.392
12541W        W80915  30.455  33.599  13.507
12542W        W80916  23.023  21.668   2.388
12543W        W80917  21.720  18.114  13.510
12544W        W80918  20.531  20.113  14.290
12545W        W80919   2.914   0.477   2.226
12546W        W80920  35.013  16.300   2.252
12547W        W80921  27.488  38.540   0.321
12548W        W80922  24.653  35.996   3.675
12549W        W80923  25.586  43.859   3.178
12550W        W80924   6.344  30.076   3.769
12551W        W80925  19.534  16.750   2.668
12552W        W80926  20.611   5.722   2.392
12553W        W80927  31.433  10.676  10.606
12554W        W80928   5.845   1.281  12.463
12555W        W80929  10.298  35.037  12.418
12556W        W80930  41.982  21.059   3.184
12557W        W80931  30.618  44.369  14.803
12558W        W80932  39.014  30.558  14.770
12559W        W80933  17.579  19.675   0.888
12560W        W80934  13.661  35.975   2.683
12561W        W80935  28.047  43.799   3.785
12562W        W80936  16.261  38.479   0.302
12563W        W80937  11.318  42.789  14.447
12564W        W80938  18.197   1.899   3.348
12565W        W80939  36.091  41.508  10.492
12566W        W80940  42.976  40.935  13.880
12567W        W80941  34.403  38.824  11.498
12568W        W80942  39.837  39.548  12.406
12569W        W80943  23.573  39.366   3.805
12570W        W80944  36.393  27.527   1.336
12571W        W80945  33.892  12.613  12.980
12572W        W80946  18.577  20.251  10.559
12573W        W80947  21.214  44.880   0.463
12574W        W80948  28.176  23.501  10.941
12575W        W80949   6.758  16.618   4.190
12576W        W80950  11.692   1.952   1.798
12577W        W80951  26.079   7.800  11.040
12578W        W80952  42.794  34.045  11.940
12579W        W80953   8.833  42.494   1.921
12580W        W80954  15.723  35.464  12.342
12581W        W80955  15.202   3.906   3.665
12582W        W80956  35.063   9.757  13.538
12583W        W80957  28.082   1.255   4.233
12584W        W80958  16.284  25.003  12.955
12585W        W80959  15.215  25.593  11.456
12586W        W80960  22.508  42.867  13.039
12587W        W80961  29.496  26.985  13.339
12588W        W80962  24.989  29.077  14.774
12589W        W80963  34.900  32.628  10.510
12590W        W80964  39.920  32.589   1.224
12591W        W80965  26.598  19.210  10.895
12592W        W80966   6.793  17.574   4.837
12593W        W80967  16.297  35.002   1.747
12594W        W80968  26.689  24.636  11.010
12595W        W80969   6.270  35.533  13.837
12596W        W80970  25.621   0.905   2.774
12597W        W80971  42.415  41.868   4.827
12598W        W80972  36.866  40.441   3.163
12599W        W80973  40.367   7.745   3.317
12600W        W80974  15.598  34.442  12.008
12601W        W80975  11.352  22.126   3.303
12602W        W80976  29.100  13.120   3.303
12603W        W80977  12.818  13.728   0.339
12604W        W80978   7.790  21.054  13.015
12605W        W80979   9.884   6.829   4.820
12606W        W80980   4.859  37.979   4.237
12607W        W80981  42.779  36.017  10.047
12608W        W80982   8.241  16.229  13.915
12609W        W80983  41.373  20.134  14.901
12610W        W80984  31.588   8.180  11.469
12611W        W80985  34.588  42.369   4.284
12612W        W80986  37.056  17.603  14.952
12613W        W80987   1.241  36.987   1.321
12614W        W80988  20.740  27.037  11.106
12615W        W80989   2.303  21.260  10.607
12616W        W80990  28.489  38.426  12.872
12617W        W80991  39.534   8.771   0.945
12618W        W80992  11.762  33.014   0.288
12619W        W80993   8.296  32.887   3.644
12620W        W80994  14.833   2.726   1.293
12621W        W80995  43.453   7.339   3.787
12622W        W80996  37.475  26.056   1.328
12623W        W80997   8.261   7.235   0.392
12624W        W80998  34.094   8.737   1.316
12625W        W80999   4.449  27.058  13.489
12626W        W81000  19.189  11.623   1.294
12627W        W81001  37.363  41.999   5.258
12628W        W81002   6.761   7.826  14.294
12629W        W81003  25.699  17.765   0.869
12630W        W81004   6.860  23.015   2.335
12631W        W81005  14.607  22.060   4.317
12632W        W81006   3.761  23.515   0.734
12633W        W81007   4.874  26.493   4.182
12634W        W81008   5.927  28.637  14.952
12635W        W81009  43.016  26.549   2.269
12636W        W81010  22.140  19.556  10.939
12637W        W81011   9.270  15.809   2.841
12638W        W81012  27.986  42.892   4.280
12639W        W81013  31.535  35.471  13.830
12640W        W81014  19.539  32.054   3.227
12641W        W81015  34.880  29.147   4.700
12642W        W81016   0.446  25.711   2.367
12643W        W81017  39.047  24.124  10.964
12644W        W81018  33.625  14.306   5.147
12645W        W81019  17.780  43.509  12.435
12646W        W81020   8.327  20.708  11.946
12647W        W81021  22.553  43.958   2.272
12648W        W81022  41.408  22.618   4.244
12649W        W81023  33.099  30.423   1.406
12650W        W81024   6.267  38.028   3.367
12651W        W81025  42.972   4.944  14.825
12652W        W81026  32.106   0.875   3.222
12653W        W81027   8.366  23.585  12.390
12654W        W81028  16.589  43.444   2.301
12655W        W81029  32.450  17.654   1.816
12656W        W81030   9.667   4.703  14.396
12657W        W81031  15.271   4.900   0.840
12658W        W81032  18.667  20.217  13.512
12659W        W81033  34.999  19.579  12.837
12660W        W81034  12.697  34.913  10.578
12661W        W81035  13.623   5.432   4.601
12662W        W81036   2.963  25.685   4.644
12663W        W81037  19.273   5.239  14.456
12664W        W81038   7.179  28.507  11.975
12665W        W81039  22.741  12.210  13.849
12666W        W81040   6.217  36.529   2.847
12667W        W81041  37.342  38.058   0.321
12668W        W81042   6.391  23.526  11.879
12669W        W81043  43.801  39.956  13.904
12670W        W81044  19.743  12.180   3.812
12671W        W81045  29.580  35.913  10.611
12672W        W81046   7.355  28.183  11.550
12673W        W81047  44.806  23.642   4.651
12674W        W81048  26.519  32.477   0.324
12675W        W81049  33.927   9.823  13.510
12676W        W81050   8.219   9.170   3.643
12677W        W81051  42.020  16.154  13.990
12678W        W81052  17.561  19.224   3.651
12679W        W81053  13.261  28.660   0.447
12680W        W81054   8.374   7.688   1.440
12681W        W81055  23.228  27.492  14.275
12682W        W81056  40.510   4.753  11.034
12683W        W81057  32.081  37.053  12.927
12684W        W81058  34.060  38.329   2.755
12685W        W81059   7.348  16.096  13.799
12686W        W81060  18.706  40.442  11.077
12687W        W81061  19.170  36.510   1.259
12688W        W81062  17.139   1.767  10.037
12689W        W81063  10.328  42.028   4.719
12690W        W81064  15.586  38.550  13.335
12691W        W81065  36.501   8.723   0.361
12692W        W81066  44.790  19.567   3.153
12693W        W81067  11.127  30.103  10.941
12694W        W81068  15.782  32.444  13.349
12695W        W81069  38.832  20.107  12.983
12696W        W81070  32.413  30.591  14.281
12697W        W81071  32.981  35.031  14.358
12698W        W81072  38.853  11.741   1.783
12699W        W81073  37.522   7.301   3.329
12700W        W81074  42.478   6.202   0.423
12701W        W81075  42.322  34.896   2.395
12702W        W81076  26.690  27.958  11.455
12703W        W81077  12.263  31.493   4.604
12704W        W81078  37.947  29.434   2.841
12705W        W81079  38.958   9.791   1.797
12706W        W81080  17.671  20.683   0.402
12707W        W81081  14.814  38.904  13.045
12708W        W81082  34.401  32.544   1.313
12709W        W81083  21.591  40.936   0.354
12710W        W81084   3.770  35.369   3.174
12711W        W81085  43.480  36.367  10.957
12712W        W81086  18.185  30.102   0.944
12713W        W81087   5.334  39.357   2.705
12714W        W81088  29.066   7.411  11.966
12715W        W81089  29.518  40.505   1.700
12716W        W81090  12.156  21.516   1.374
12717W        W81091  28.522  35.996   2.237
12718W        W81092  25.208  18.199  13.832
12719W        W81093  42.465  16.604  14.833
12720W        W81094   7.787  44.289   3.150
12721W        W81095  13.707  28.179   1.888
12722W        W81096  31.537  19.115  13.895
12723W        W81097  28.184  23.524   0.417
12724W        W81098  43.767  25.969  12.093
12725W        W81099  38.421  33.027  10.575
12726W        W81100  15.115  16.623   4.194
12727W        W81101  22.732  20.583  10.912
12728W        W81102  41.026   9.214   4.620
12729W        W81103  18.682  30.532  13.449
12730W        W81104   3.803  42.917  14.984
12731W        W81105  21.608  20.123   3.844
12732W        W81106  19.055   0.432  13.872
12733W        W81107  44.775   8.401  14.823
12734W        W81108  12.839  25.652   3.257
12735W        W81109  33.512  25.629   3.346
12736W        W81110  42.891  10.335   3.726
12737W        W81111  40.860  17.097  13.384
12738W        W81112   1.256  27.547  11.458
12739W        W81113  17.278  42.284   4.640
12740W        W81114   4.442   0.457   3.793
12741W        W81115  32.392  40.316   3.749
12742W        W81116  37.497   6.195   0.941
12743W        W81117  24.183  42.449   3.690
12744W        W81118  29.581  28.006  14.347
12745W        W81119  14.623  43.428  11.572
12746W        W81120  17.735   8.222   0.965
12747W        W81121  43.864  29.432   4.683
12748W        W81122  37.914  37.901   0.249
12749W        W81123  44.477  34.417  11.027
12750W        W81124   3.793  16.676  14.945
12751W        W81125  43.924   2.426   3.346
12752W        W81126  24.573  39.469   1.265
12753W        W81127  36.571  28.042  13.868
12754W        W81128  31.497   8.717   2.268
12755W        W81129  11.710  33.070  10.615
12756W        W81130   6.734  42.798  14.337
12757W        W81131   5.823   5.744  12.057
12758W        W81132   1.875  29.016   4.711
12759W        W81133  33.051  13.704  12.041
12760W        W81134   0.968  34.987   4.711
12761W        W81135  25.580   8.793  11.895
12762W        W81136  22.523  15.720   3.271
12763W        W81137  13.607  24.493   2.203
12764W        W81138  28.036  19.658   5.141
12765W        W81139  21.184   6.412  11.564
12766W        W81140  36.421  30.962   4.753
12767W        W81141  27.612  31.118  11.894
12768W        W81142  21.237  33.616   0.967
12769W        W81143  36.886   5.282  11.381
12770W        W81144  36.029  36.506  12.441
12771W        W81145   5.287   3.336  14.396
12772W        W81146  32.513  18.782  12.032
12773W        W81147   0.745  17.771  14.405
12774W        W81148  38.515  19.166   0.247
12775W        W81149  15.132  16.230   4.659
12776W        W81150   7.247  38.970  12.904
12777W        W81151   1.268  15.216  12.921
12778W        W81152  23.510   4.342  11.399
12779W        W81153   3.721   3.319  12.550
12780W        W81154   6.384  15.220  12.967
12781W        W81155  18.590  25.651   1.217
12782W        W81156  39.028  28.472   1.813
12783W        W81157  42.882  10.795   1.815
12784W        W81158  20.074  11.311   4.692
12785W        W81159   5.815   1.770   4.284
12786W        W81160  10.207   3.821  13.547
12787W        W81161   7.360   9.285  11.402
12788W        W81162   2.755  36.973   0.879
12789W        W81163   3.220  28.636   1.797
12790W        W81164   0.490  23.584  11.559
12791W        W81165  25.701  15.200   0.250
12792W        W81166  23.086  30.907   4.813
12793W        W81167  35.534  13.609   4.321
12794W        W81168   9.174  28.025  14.364
12795W        W81169  35.877   7.719   5.226
12796W        W81170   2.918   5.746   4.709
12797W        W81171  26.153  41.461   1.232
12798W        W81172  20.062  42.858  13.323
12799W        W81173  32.518  42.830   0.749
12800W        W81174  11.233  12.321   0.882
12801W        W81175  41.991  42.931  10.064
12802W        W81176   9.644   1.885  12.409
12803W        W81177  32.028  28.103  13.529
12804W        W81178   2.426   3.748   2.411
12805W        W81179  32.076   6.328   5.275
12806W        W81180   0.828  35.015  14.374
12807W        W81181  20.538  25.171  10.452
12808W        W81182  38.953  42.823  10.585
12809W        W81183  27.154  32.940   3.857
12810W        W81184  33.391  12.812  11.119
12811W        W81185  23.118  29.096   4.204
12812W        W81186  42.859   9.763  11.468
12813W        W81187  40.961  30.973   3.158
12814W        W81188  26.540  42.998  11.059
12815W        W81189   8.845  12.645  13.369
12816W        W81190  28.618  20.768   3.221
12817W        W81191   5.782  11.299  14.410
12818W        W81192  32.136  18.059  10.967
12819W        W81193  35.899  36.947   0.929
12820W        W81194  20.045   7.251  12.866
12821W        W81195  32.897  14.591  12.505
12822W        W81196  19.572  38.533  10.515
12823W        W81197   7.377  25.151  11.000
12824W        W81198   5.249  14.656   4.773
12825W        W81199   8.773  25.105  12.885
12826W        W81200  33.077  41.347  11.939
12827W        W81201   4.870   9.274  13.503
12828W        W81202  15.623   4.412  13.542
12829W        W81203  19.721  22.743   5.155
12830W        W81204  28.489  37.847   1.393
12831W        W81205  37.834  42.310   1.914
12832W        W81206  29.587   3.767   3.366
12833W        W81207   2.942   7.759  14.916
12834W        W81208  27.453  31.559  14.985
12835W        W81209  26.703  39.872  13.375
12836W        W81210  11.165  24.542  10.978
12837W        W81211  31.907  22.650   4.116
12838W        W81212   0.427   0.900  12.500
12839W        W81213  41.814  24.667  10.445
12840W        W81214  10.222  24.100   0.366
12841W        W81215  22.084  13.673   4.150
12842W        W81216  33.084   5.327  14.294
12843W        W81217  13.777   4.779  14.991
12844W        W81218  21.536  33.474  10.636
12845W        W81219  42.499  40.350   3.802
12846W        W81220  28.558  18.051  13.017
12847W        W81221  18.636   6.251   3.832
12848W        W81222  44.936  13.276   3.726
12849W        W81223  29.514  36.872  12.065
12850W        W81224  18.616  25.170  11.394
12851W        W81225  38.395  15.194  14.489
12852W        W81226  20.566  35.073  11.559
12853W        W81227   6.406  19.159  13.927
12854W        W81228  33.009  35.963   1.875
12855W        W81229  25.649  32.568   2.887
12856W        W81230  20.599  22.161   4.302
12857W        W81231  16.237   5.764  11.473
12858W        W81232  34.609   6.367  12.897
12859W        W81233  17.190  32.018   4.805
12860W        W81234  16.701  15.819  12.476
12861W        W81235  24.165  35.576  14.982
12862W        W81236  14.259  20.537   0.266
12863W        W81237  16.643  34.523  12.045
12864W        W81238  35.507  11.694  13.886
12865W        W81239  17.634   5.840  10.539
12866W        W81240  24.066  31.139   2.686
12867W        W81241  33.976  23.235   3.168
12868W        W81242  22.578   8.194  11.527
12869W        W81243  19.127  19.092   2.276
12870W        W81244  11.631  18.569   5.125
12871W        W81245  27.621  21.523   2.411
12872W        W81246  12.328  40.389   0.925
12873W        W81247   4.704  29.434  11.121
12874W        W81248  21.756  39.935   1.330
12875W        W81249  30.617   3.301  12.534
12876W        W81250   1.878   2.337  11.069
12877W        W81251  44.982  18.708  14.890
12878W        W81252  14.151  17.259  14.429
12879W        W81253  20.739  44.466  10.489
12880W        W81254  14.789  23.679   3.737
12881W        W81255  23.055   1.954   2.286
12882W        W81256   6.752  38.568   0.768
12883W        W81257   4.808  37.060  14.498
12884W        W81258  42.943  24.673   1.264
12885W        W81259  43.904  22.539  10.968
12886W        W81260   1.744  34.438  14.514
12887W        W81261   6.687  23.527   3.326
12888W        W81262  14.117   2.916  12.045
12889W        W81263  22.084  29.428   2.794
12890W        W81264  27.629  21.058   0.957
12891W        W81265   4.232  40.504  11.545
12892W        W81266  39.943  13.145  12.948
12893W        W81267  37.059  29.024   1.901
12894W        W81268   4.734  23.035  12.514
12895W        W81269  26.470  27.185  11.877
12896W        W81270  17.644  39.484   1.307
12897W        W81271  19.104   9.237  13.812
12898W        W81272  36.363  27.977  11.609
12899W        W81273  28.580  34.571   1.805
12900W        W81274   8.296  32.529  10.545
12901W        W81275  27.068  18.234  10.429
12902W        W81276   1.976  19.138   0.885
12903W        W81277  20.747  37.515   3.667
12904W        W81278  29.429  21.129   0.826
12905W        W81279   9.824   1.925  11.525
12906W        W81280  40.871  36.367  11.890
12907W        W81281  13.204  41.942   0.833
12908W        W81282  34.063  33.624   1.896
12909W        W81283  36.386  40.809  14.336
12910W        W81284  23.160  12.835   1.316
12911W        W81285  16.162   9.244  13.374
12912W        W81286  21.660  27.087  12.429
12913W        W81287   9.297  31.917   1.835
12914W        W81288   1.733  18.256   1.326
12915W        W81289  38.976   0.321   2.738
12916W        W81290  41.467   1.321  12.945
12917W        W81291  13.688  26.016   1.809
12918W        W81292  33.969  14.633   2.289
12919W        W81293  32.491   9.825  11.482
12920W        W81294   6.371  37.938  11.887
12921W        W81295  32.894   3.919   3.337
12922W        W81296  17.688  11.133  14.012
12923W        W81297  19.091  17.194  11.432
12924W        W81298  34.115  42.003   4.614
12925W        W81299  29.003  36.901  10.900
12926W        W81300   3.445  21.070  14.516
12927W        W81301  27.595  38.530  14.805
12928W        W81302  11.637   2.285   4.198
12929W        W81303  10.196   6.791   1.910
12930W        W81304   7.325  29.484  11.865
12931W        W81305  32.125   6.855   0.819
12932W        W81306  23.574   3.751  14.316
12933W        W81307  19.590  29.502   2.778
12934W        W81308  28.463  31.024  10.969
12935W        W81309  36.993   8.863   3.273
12936W        W81310  12.761  44.393   2.340
12937W        W81311  27.494  31.920  11.098
12938W        W81312  33.439  35.559   2.901
12939W        W81313   0.484   3.343   1.724
12940W        W81314  28.137  11.784  12.566
12941W        W81315  16.216  37.065  11.997
12942W        W81316   5.734  37.893   1.799
12943W        W81317  31.596  34.436   3.387
12944W        W81318  28.485   5.789   1.435
12945W        W81319  39.000   9.666  12.517
12946W        W81320  31.448  13.760   2.412
12947W        W81321   8.836  14.606   2.723
12948W        W81322  30.931  18.114  14.413
12949W        W81323  24.023  29.437  10.576
12950W        W81324  42.359  10.139   2.810
12951W        W81325  33.623   4.371  14.898
12952W        W81326   8.251   5.216   0.957
12953W        W81327  38.960   7.345   1.891
12954W        W81328   4.239  27.582   2.825
12955W        W81329   7.228   0.952   0.863
12956W        W81330  16.280  28.440  14.015
12957W        W81331  35.537  41.007  11.906
12958W        W81332   8.279  25.471  11.505
12959W        W81333  37.994  41.507   0.811
12960W        W81334  41.887   6.911  13.453
12961W        W81335  13.617  27.689   1.814
12962W        W81336   7.187  14.603   1.705
12963W        W81337  39.915   7.288   2.863
12964W        W81338   7.746   6.776   1.785
12965W        W81339  27.462  28.506   4.189
12966W        W81340   9.293  32.956   2.306
12967W        W81341   9.363   3.831   1.258
12968W        W81342  13.350  15.213  11.411
12969W        W81343  26.965  34.473   2.802
12970W        W81344  34.953   3.839  13.024
12971W        W81345  37.398  12.696   2.364
12972W        W81346  30.132  36.420  11.962
12973W        W81347  35.956  20.576   1.447
12974W        W81348  28.950  11.838   2.696
12975W        W81349  34.516  43.299   2.248
12976W        W81350  19.231  43.777  12.913
12977W        W81351   2.771  17.149  10.421
12978W        W81352   6.372  38.324  12.000
12979W        W81353  44.904  28.561   3.294
12980W        W81354   0.790   2.296   1.251
12981W        W81355  37.574   0.476   4.779
12982W        W81356  17.595  22.032  13.475
12983W        W81357  15.202  11.864   4.827
12984W        W81358  14.325  14.643   2.281
12985W        W81359  10.344  13.715  14.980
12986W        W81360  10.740  18.210  10.975
12987W        W81361  38.462  10.313  14.772
12988W        W81362  31.950   4.879  13.798
12989W        W81363  40.373  14.834  13.867
12990W        W81364  40.831  23.088  10.513
12991W        W81365  30.151  25.208  14.936
12992W        W81366  33.590  37.457   1.451
12993W        W81367  10.835   0.822  11.423
12994W        W81368   9.221   2.289  13.464
12995W        W81369  37.409  30.593   3.314
12996W        W81370  43.852  44.845  14.358
12997W        W81371  10.151  32.891   4.692
12998W        W81372  26.041  10.646   0.827
12999W        W81373  13.744  30.907  14.997
13000W        W81374  26.027  22.044  14.004
13001W        W81375  33.563  12.232  11.973
13002W        W81376  14.312   9.786  11.569
13003W        W81377  11.190   5.739  13.953
13004W        W81378  40.986  40.445   3.822
13005W        W81379   3.407  20.034   3.797
13006W        W81380  20.705  18.683   3.781
13007W        W81381   3.788  20.734   4.217
13008W        W81382  29.665  31.972  10.897
13009W        W81383  13.339  32.401  13.342
13010W        W81384  18.164  34.055  11.396
13011W        W81385  12.258   5.302   4.239
13012W        W81386   4.336  28.436  14.976
13013W        W81387  44.324   4.896   1.345
13014W        W81388  29.014  26.673   1.437
13015W        W81389  34.409  44.331   2.753
13016W        W81390   1.371  18.767   3.744
13017W        W81391  37.946  11.802   0.907
13018W        W81392  26.096  12.199   1.273
13019W        W81393  18.267  41.487  11.115
13020W        W81394   4.821  38.977   4.682
13021W        W81395  35.918  28.451  13.444
13022W        W81396   0.436   7.192  13.542
13023W        W81397   8.315   0.835   1.386
13024W        W81398  12.754  14.719  12.396
13025W        W81399  40.475   7.175  13.446
13026W        W81400  23.033   6.720   1.418
13027W        W81401  36.043  24.141  10.998
13028W        W81402  17.675  44.475   1.911
13029W        W81403   8.661  32.581   0.754
13030W        W81404   0.318   4.417  14.476
13031W        W81405  37.870  23.714  13.353
13032W        W81406  33.398  14.748  12.842
13033W        W81407  41.900  43.395   2.364
13034W        W81408  13.204  18.251   1.416
13035W        W81409   1.953  22.155  11.960
13036W        W81410  20.591  42.819  13.965
13037W        W81411  16.156  32.493  10.431
13038W        W81412  39.020  42.491   4.323
13039W        W81413  37.507  11.155   1.284
13040W        W81414  25.495  33.391   1.867
13041W        W81415   3.888  36.368   0.752
13042W        W81416   8.800  36.402   0.855
13043W        W81417  39.918  14.274  10.512
13044W        W81418  33.078  24.570   2.805
13045W        W81419  35.362  16.134  11.401
13046W        W81420  37.377  38.382   4.276
13047W        W81421  16.138  39.436   0.784
13048W        W81422  42.303  29.565  14.775
13049W        W81423  27.074  38.370  10.488
13050W        W81424  31.520  28.016   2.191
13051W        W81425  18.087  34.593  14.793
13052W        W81426   0.279   2.412  14.002
13053W        W81427  10.271  28.681   0.903
13054W        W81428   0.823  13.660   4.711
13055W        W81429   9.853  43.446  10.917
13056W        W81430  10.274  25.507   5.116
13057W        W81431  14.682   9.829   2.694
13058W        W81432   3.801  30.469   0.408
13059W        W81433  14.630  31.626   1.357
13060W        W81434  40.937   7.225   1.894
13061W        W81435   6.828  25.622   1.410
13062W        W81436  20.525  14.099   4.738
13063W        W81437  29.043   0.294   5.585
13064W        W81438   6.362  34.898  10.443
13065W        W81439  21.700  31.511  12.045
13066W        W81440   8.291  26.557   4.303
13067W        W81441  37.472  38.324  10.519
13068W        W81442  13.147  13.259  12.358
13069W        W81443  23.641  17.091  13.392
13070W        W81444  22.051  28.134  14.398
13071W        W81445  38.382  42.489  14.001
13072W        W81446   9.293  42.365   4.680
13073W        W81447   1.395  44.927  12.974
13074W        W81448   4.255  23.011   1.770
13075W        W81449  28.059   2.873  12.389
13076W        W81450  27.562  28.616  14.276
13077W        W81451  35.394  29.670  10.892
13078W        W81452  37.895  20.677   2.249
13079W        W81453  16.273  44.928   3.766
13080W        W81454  33.033  10.851  12.934
13081W        W81455  29.968  25.478   1.379
13082W        W81456  26.177  24.179   3.163
13083W        W81457  40.477  17.732   1.770
13084W        W81458   6.895  14.688  14.025
13085W        W81459  31.624  40.444   2.323
13086W        W81460   0.926  23.523   0.330
13087W        W81461   2.766  34.113  13.541
13088W        W81462  41.439  43.793  13.877
13089W        W81463  44.347  20.246   2.740
13090W        W81464   8.186   6.242   2.338
13091W        W81465  24.060  10.692   2.743
13092W        W81466  16.672   9.744  12.365
13093W        W81467  32.626  27.035  12.096
13094W        W81468  39.988  22.067  12.081
13095W        W81469  35.089  35.022  13.492
13096W        W81470  26.021  17.646  12.852
13097W        W81471  43.322  16.302  12.913
13098W        W81472   8.237   3.731   4.838
13099W        W81473  24.140  22.719   1.394
13100W        W81474  10.827  17.070  11.091
13101W        W81475   4.321  10.793   0.958
13102W        W81476  24.501  22.579   1.392
13103W        W81477   7.213  23.069   3.855
13104W        W81478  14.663   6.860   0.338
13105W        W81479  40.876  15.206  14.761
13106W        W81480  35.879  37.519  10.007
13107W        W81481   6.891  37.892   0.788
13108W        W81482  20.585  25.020   2.252
13109W        W81483  42.481   7.891  14.024
13110W        W81484  43.340  41.894   4.733
13111W        W81485  19.193   6.861  14.392
13112W        W81486  11.712  22.513  11.872
13113W        W81487   3.816   3.955  13.536
13114W        W81488  40.900  39.505  13.318
13115W        W81489  23.623   8.173  12.902
13116W        W81490  24.998  15.584  10.093
13117W        W81491  20.648  32.500   4.835
13118W        W81492  23.621  17.785  12.345
13119W        W81493  32.463  38.559  14.320
13120W        W81494  39.489  22.226  14.503
13121W        W81495  16.657  29.623   4.826
13122W        W81496  42.808  28.665   1.874
13123W        W81497  30.655  39.541   4.712
13124W        W81498  23.685  42.440  10.541
13125W        W81499  11.818  13.338  13.463
13126W        W81500  43.370  31.414  10.584
13127W        W81501   4.378  29.647   3.656
13128W        W81502  43.811  12.135   2.778
13129W        W81503  32.399  23.591   2.301
13130W        W81504  31.983  42.327   1.214
13131W        W81505  37.401  11.630  10.518
13132W        W81506  40.499  28.047  14.476
13133W        W81507  30.134  31.530   0.283
13134W        W81508  15.169  34.409   0.459
13135W        W81509  24.140  32.600  12.399
13136W        W81510  44.817   8.692   4.318
13137W        W81511  12.740  43.461  14.901
13138W        W81512  34.892  31.950   3.665
13139W        W81513  23.579  22.168  10.909
13140W        W81514  30.494  37.406   3.709
13141W        W81515  38.397  19.070  11.930
13142W        W81516  13.635  32.451   4.636
13143W        W81517  32.116  21.201   9.943
13144W        W81518  32.886  13.792   3.817
13145W        W81519  41.452  20.167   5.238
13146W        W81520  42.321  23.620  13.040
13147W        W81521  13.194  40.515  13.472
13148W        W81522  44.956  44.008  11.545
13149W        W81523  14.149  10.826   5.125
13150W        W81524  19.772  12.138   1.428
13151W        W81525  18.604  32.954   1.818
13152W        W81526  42.324  26.076  13.426
13153W        W81527  25.139  29.991   0.388
13154W        W81528  10.873  32.117  14.301
13155W        W81529   3.797  22.132   4.220
13156W        W81530  29.656  22.674   3.845
13157W        W81531  37.928   9.862   5.744
13158W        W81532  15.769   7.760  13.889
13159W        W81533   7.787   0.797   2.369
13160W        W81534  26.170  16.189  11.443
13161W        W81535  18.060  26.595  10.940
13162W        W81536  14.127   1.363  13.503
13163W        W81537   5.386  34.372   0.455
13164W        W81538  21.160  23.652   3.760
13165W        W81539  33.028  26.015  13.057
13166W        W81540  22.537  35.884   0.903
13167W        W81541  21.070  35.589   1.838
13168W        W81542  37.875  23.220   4.211
13169W        W81543  15.685  19.777  10.594
13170W        W81544   8.861  20.560  12.900
13171W        W81545  32.045  17.245   3.227
13172W        W81546  25.068  15.236   9.496
13173W        W81547  37.559  10.312  13.849
13174W        W81548  41.420   1.873  12.881
13175W        W81549   0.359  42.783   4.200
13176W        W81550  35.903  33.525   4.151
13177W        W81551   6.348  26.693   1.751
13178W        W81552  18.670  11.225   2.255
13179W        W81553  33.074  38.995  12.421
13180W        W81554  29.556   2.849   3.238
13181W        W81555   1.356  33.043  14.885
13182W        W81556  12.707  26.569   4.648
13183W        W81557  15.277  17.676  11.879
13184W        W81558  20.170   2.452   1.892
13185W        W81559   7.226  40.391  10.541
13186W        W81560  33.513  39.403  12.880
13187W        W81561   8.839  10.229  12.525
13188W        W81562  27.041  22.735  12.069
13189W        W81563  24.641  17.251  10.447
13190W        W81564  33.990  20.176   1.331
13191W        W81565  16.197   4.204  14.437
13192W        W81566  20.616  19.614   2.257
13193W        W81567  10.244  28.134   4.802
13194W        W81568  30.971  26.128  12.008
13195W        W81569  16.282   9.378   5.188
13196W        W81570   6.708  23.079  10.088
13197W        W81571  21.719  17.161   0.842
13198W        W81572   8.806  12.703   2.855
13199W        W81573  39.328  41.400  11.015
13200W        W81574  36.490  28.460   1.310
13201W        W81575   8.662  40.846   4.797
13202W        W81576  35.581  44.499  13.398
13203W        W81577  32.509   3.400  12.379
13204W        W81578  16.806   5.419   2.739
13205W        W81579  26.974  38.847  10.479
13206W        W81580  21.110  20.031  11.438
13207W        W81581  40.428  41.445   1.703
13208W        W81582  24.107  32.562  11.095
13209W        W81583  17.652   9.712  12.050
13210W        W81584  14.783  29.468   1.874
13211W        W81585  32.475  25.636   1.738
13212W        W81586  34.407   5.926  13.382
13213W        W81587   3.874  25.129  12.934
13214W        W81588   0.802  28.640  13.899
13215W        W81589  11.212  36.014  12.393
13216W        W81590  39.467  16.718   0.830
13217W        W81591  20.219  32.914  13.853
13218W        W81592  25.075  28.977  12.428
13219W        W81593  24.029  22.674   4.694
13220W        W81594  43.503  42.989  12.915
13221W        W81595   0.879  17.682  11.024
13222W        W81596  25.546   9.250   2.718
13223W        W81597  33.402  24.164   0.893
13224W        W81598   2.341  11.321  11.577
13225W        W81599  42.905  35.440  12.888
13226W        W81600   1.917  23.540  13.435
13227W        W81601  42.513   3.336   1.445
13228W        W81602  36.452  34.603   3.758
13229W        W81603  34.583   9.176  12.988
13230W        W81604   0.462   6.331   1.410
13231W        W81605  21.613  24.010  10.160
13232W        W81606  29.630  15.111   1.401
13233W        W81607  28.454   8.777  12.366
13234W        W81608  16.717  24.550  12.455
13235W        W81609  28.640  37.054  13.879
13236W        W81610  22.677  42.932   1.277
13237W        W81611  23.222  20.064  13.802
13238W        W81612  44.320  25.473  14.876
13239W        W81613  26.063  18.267  12.359
13240W        W81614  24.982  39.922   2.743
13241W        W81615  40.843  24.155  10.412
13242W        W81616   9.853  11.677   3.345
13243W        W81617  28.586  18.284   2.211
13244W        W81618  24.985  44.841   2.218
13245W        W81619  21.546  16.139  13.494
13246W        W81620  27.978  11.339  11.885
13247W        W81621   5.438   4.800  11.527
13248W        W81622  30.542  40.823  14.448
13249W        W81623  27.135   3.385  14.000
13250W        W81624   0.323  23.119   3.217
13251W        W81625   2.252  31.026  14.980
13252W        W81626   7.730  14.784   1.397
13253W        W81627  36.887   8.346  10.562
13254W        W81628  20.713  37.528   0.482
13255W        W81629   3.440   3.802   0.361
13256W        W81630  39.450  18.283   1.430
13257W        W81631  37.532  14.750   3.716
13258W        W81632   0.921   3.454   0.757
13259W        W81633  42.023  41.951   0.402
13260W        W81634  20.587  37.007  11.888
13261W        W81635   2.400  14.626   0.308
13262W        W81636  39.481  41.813   4.663
13263W        W81637   6.870  26.157   2.411
13264W        W81638  26.107  17.088  14.436
13265W        W81639  36.560  18.638   0.949
13266W        W81640  44.484  36.584   4.703
13267W        W81641  12.625   1.753   3.714
13268W        W81642   9.702  31.016  13.465
13269W        W81643  23.617  19.203   1.765
13270W        W81644  28.989  11.254  12.565
13271W        W81645  11.860  33.592  12.003
13272W        W81646  29.161  32.604   3.805
13273W        W81647  10.740  38.058   2.292
13274W        W81648  36.006  32.612   4.651
13275W        W81649   0.349  36.362   3.861
13276W        W81650  41.940  25.218  12.931
13277W        W81651  34.883  33.064  11.386
13278W        W81652   7.909  32.421  13.926
13279W        W81653   3.243  14.230  13.469
13280W        W81654  44.813  24.120  14.323
13281W        W81655   5.814   9.319   0.815
13282W        W81656   1.780   0.357  13.483
13283W        W81657  34.602   5.779  14.350
13284W        W81658  19.062  31.466   4.222
13285W        W81659  27.507   0.312   5.792
13286W        W81660   5.734  28.991   1.242
13287W        W81661  15.239  12.699  12.494
13288W        W81662  20.197  12.159   1.346
13289W        W81663   0.308   1.885   4.824
13290W        W81664  41.493  17.262   4.242
13291W        W81665   8.204  27.641  12.414
13292W        W81666  14.683  17.177  13.400
13293W        W81667  30.509  26.675  12.969
13294W        W81668   3.736   8.197  12.350
13295W        W81669  16.293   6.323  12.053
13296W        W81670  39.903   5.891  13.950
13297W        W81671  30.076  31.115  11.071
13298W        W81672  12.811  20.728  14.370
13299W        W81673  36.869  15.579   4.352
13300W        W81674  28.113  16.135  11.571
13301W        W81675  38.516  20.105  11.068
13302W        W81676  33.449   1.306  11.005
13303W        W81677  21.704  38.447   2.403
13304W        W81678  35.057  34.596   1.337
13305W        W81679  22.584  31.484   3.174
13306W        W81680  26.992   2.800  12.448
13307W        W81681  29.942  24.553   2.401
13308W        W81682  23.677   7.290   2.263
13309W        W81683   2.310  28.444  12.972
13310W        W81684   9.353  25.045   1.844
13311W        W81685  35.039  17.762  11.924
13312W        W81686   9.752  42.815  14.810
13313W        W81687  20.619   3.740  14.424
13314W        W81688  20.075  17.200   3.647
13315W        W81689  11.317  38.038  11.880
13316W        W81690  37.567  24.544  12.024
13317W        W81691   3.789  36.430  10.632
13318W        W81692   2.384  28.981  14.416
13319W        W81693  10.878  14.170  12.378
13320W        W81694  32.060   1.444   2.204
13321W        W81695  13.757   7.407  14.474
13322W        W81696  32.490  15.301  10.933
13323W        W81697  41.462  12.147  13.320
13324W        W81698  41.000  24.593  11.518
13325W        W81699  39.354  44.490  14.970
13326W        W81700  11.306  21.026  12.040
13327W        W81701  34.507   4.870   2.749
13328W        W81702  30.966  23.171  13.033
13329W        W81703  18.782   5.907  12.547
13330W        W81704  13.267  26.006   1.713
13331W        W81705   7.368  39.384  12.959
13332W        W81706  42.435  16.175   2.693
13333W        W81707   8.181   2.933  13.042
13334W        W81708   6.368  20.573  14.975
13335W        W81709  29.997  26.207  14.026
13336W        W81710  41.831  19.185  12.072
13337W        W81711  33.075   7.202   2.870
13338W        W81712  14.798  15.230  12.518
13339W        W81713  23.003  31.064  12.480
13340W        W81714  17.065  17.284  12.480
13341W        W81715  34.471  42.974   2.304
13342W        W81716  29.078  29.160   4.617
13343W        W81717   2.255  18.145  13.371
13344W        W81718   6.752  23.538   4.731
13345W        W81719  10.350  43.021  14.345
13346W        W81720   4.364  30.467   2.876
13347W        W81721  28.476  29.531  12.949
13348W        W81722  26.985  38.422   2.720
13349W        W81723  32.075  19.207   1.856
13350W        W81724  22.087  13.843   1.268
13351W        W81725  43.864  33.880   4.165
13352W        W81726  25.962   6.268   2.688
13353W        W81727  17.214  33.110   0.920
13354W        W81728  12.794   8.372  14.442
13355W        W81729  43.295   2.336   3.835
13356W        W81730  24.020  38.467   2.788
13357W        W81731   9.168   3.822  14.768
13358W        W81732  16.587  37.049  12.873
13359W        W81733   3.765  44.294   3.226
13360W        W81734  40.350  15.215  12.476
13361W        W81735  25.566  20.693  11.085
13362W        W81736  18.265  35.915  12.353
13363W        W81737  10.640  32.897  11.069
13364W        W81738  28.942  30.156  14.809
13365W        W81739  29.168  25.548   4.782
13366W        W81740   2.311  29.149   0.245
13367W        W81741  22.031  31.448   2.291
13368W        W81742  30.507   8.806  12.972
13369W        W81743  40.932  29.585  14.856
13370W        W81744  18.742   7.268   1.333
13371W        W81745  43.878  31.624  11.581
13372W        W81746  23.591  38.412   1.318
13373W        W81747  32.536  36.464  14.353
13374W        W81748  35.035  20.697  14.293
13375W        W81749  25.049   0.822   4.239
13376W        W81750  29.052  36.882   2.354
13377W        W81751  12.658   2.468  12.424
13378W        W81752   2.351  26.971   4.658
13379W        W81753   5.386  12.362   1.868
13380W        W81754  20.122  31.579   0.895
13381W        W81755  23.730  24.583   2.699
13382W        W81756   8.293  19.159  12.404
13383W        W81757  34.405   4.233   3.792
13384W        W81758  26.983  19.071   0.299
13385W        W81759  44.930  29.641  14.296
13386W        W81760  12.158  43.430   4.333
13387W        W81761  17.092  25.532  12.382
13388W        W81762  29.584  21.214  12.573
13389W        W81763  28.592   1.426   4.255
13390W        W81764   6.845  33.438  11.884
13391W        W81765  32.448   0.900  11.973
13392W        W81766  33.470  16.259   2.349
13393W        W81767  23.035   4.374   1.864
13394W        W81768  31.409  42.780   1.853
13395W        W81769  32.960   2.728   0.875
13396W        W81770  14.828  32.546  13.441
13397W        W81771  18.714  26.014  10.641
13398W        W81772  18.249  37.449  13.435
13399W        W81773  17.108  16.160   1.708
13400W        W81774  32.564   2.417  10.485
13401W        W81775  26.053  38.439   4.635
13402W        W81776  38.844   5.896   2.891
13403W        W81777  38.859  20.607   4.718
13404W        W81778  32.590  32.996   1.334
13405W        W81779  10.707   9.716  10.574
13406W        W81780   4.932  19.208   4.701
13407W        W81781  19.629  14.315   2.368
13408W        W81782   1.895  32.477  13.468
13409W        W81783  11.629  17.604   0.826
13410W        W81784   6.789  20.072   0.772
13411W        W81785   8.330  24.208  13.311
13412W        W81786  28.627  44.955   0.406
13413W        W81787  35.361   4.768   3.762
13414W        W81788  38.880  27.472  13.914
13415W        W81789  12.181  37.521  12.049
13416W        W81790  19.279  27.060   4.661
13417W        W81791  20.061   2.961  14.005
13418W        W81792  29.482   0.769  13.415
13419W        W81793  16.226   4.228   1.772
13420W        W81794  31.914   7.707  11.598
13421W        W81795  19.652  18.057  14.437
13422W        W81796  19.119   1.393  12.828
13423W        W81797  17.682   3.770  14.813
13424W        W81798   6.321  41.315   1.705
13425W        W81799   4.726   6.306  11.554
13426W        W81800  38.379  32.103   1.219
13427W        W81801   1.780  32.009   0.363
13428W        W81802   0.918   9.659   3.844
13429W        W81803  19.126  40.404  11.971
13430W        W81804   4.334  41.374   0.843
13431W        W81805  23.700  44.953   1.917
13432W        W81806  16.294  28.037   0.416
13433W        W81807  32.123  16.291  10.894
13434W        W81808  22.663  12.747  11.521
13435W        W81809   6.805  34.528   3.189
13436W        W81810  29.169  23.614   4.130
13437W        W81811  29.136   1.445   3.801
13438W        W81812  43.480  42.818  13.931
13439W        W81813  39.902  41.470   4.789
13440W        W81814   3.266  12.226  13.995
13441W        W81815  44.850  33.438  14.340
13442W        W81816  14.206  17.159  14.835
13443W        W81817  12.614  17.670  12.506
13444W        W81818  33.933   5.918   3.769
13445W        W81819  39.954  33.128  13.939
13446W        W81820  39.491   5.758   3.850
13447W        W81821  35.072  34.996   1.280
13448W        W81822  38.398   4.857   4.715
13449W        W81823  12.330  21.117   1.786
13450W        W81824  39.902  17.592   3.151
13451W        W81825  20.089  44.946  14.390
13452W        W81826  37.408  34.546   0.764
13453W        W81827  35.491  44.499   4.305
13454W        W81828  32.435  44.933   1.232
13455W        W81829   3.812   8.881  14.889
13456W        W81830  28.550  43.375  12.870
13457W        W81831  42.979  41.299   4.215
13458W        W81832  41.819  10.810  11.017
13459W        W81833  18.235  16.754  14.475
13460W        W81834   1.407  24.662  12.850
13461W        W81835   0.852  14.158  10.580
13462W        W81836  31.914  31.012   2.375
13463W        W81837  42.305  38.885  12.975
13464W        W81838   3.770  39.409   4.124
13465W        W81839   0.906  29.607  13.909
13466W        W81840   9.284  16.740  13.344
13467W        W81841  27.577  10.330  14.314
13468W        W81842  21.541  34.035  12.463
13469W        W81843  24.482  39.342   4.274
13470W        W81844  41.366  15.169  11.128
13471W        W81845  42.883  25.557   1.810
13472W        W81846  43.774  37.975  11.971
13473W        W81847  30.949  11.729   0.244
13474W        W81848  17.557  44.478   3.383
13475W        W81849   6.911  40.434  13.384
13476W        W81850  40.879  44.836  11.899
13477W        W81851  11.654  30.039   3.662
13478W        W81852  11.707  37.367  10.908
13479W        W81853  17.737  43.360  13.891
13480W        W81854  17.721  16.768  12.479
13481W        W81855  37.072  15.702  13.382
13482W        W81856  18.732   6.701   3.203
13483W        W81857  13.156  12.308  12.939
13484W        W81858  32.471  41.020  14.997
13485W        W81859  33.986  24.128   0.843
13486W        W81860  43.326  35.892   4.809
13487W        W81861   8.668  12.224  12.510
13488W        W81862  32.450  27.987   2.293
13489W        W81863  19.193  16.775   1.246
13490W        W81864  18.147   6.886   1.342
13491W        W81865  25.547  40.420   1.444
13492W        W81866  41.789  28.099  12.443
13493W        W81867   5.702  25.555  13.394
13494W        W81868  29.028  19.708   5.250
13495W        W81869   8.819  34.539  10.953
13496W        W81870  17.228  15.626   4.731
13497W        W81871  40.833  11.806   2.257
13498W        W81872  24.488  43.765   1.442
13499W        W81873  37.034  41.497  14.896
13500W        W81874  27.009  12.839   0.848
13501W        W81875   7.667  23.107  13.053
13502W        W81876  36.590  33.414   5.128
13503W        W81877   8.175  10.322  10.582
13504W        W81878  38.566  29.503  11.946
13505W        W81879  17.063  32.989  13.868
13506W        W81880   8.898  31.931  12.434
13507W        W81881   5.205  22.031   3.255
13508W        W81882   5.321  16.105  13.877
13509W        W81883  20.634   2.910  13.903
13510W        W81884  40.901  43.425   2.413
13511W        W81885  33.876  36.085   1.388
13512W        W81886  18.079   9.281   2.228
13513W        W81887  28.106  32.624   4.168
13514W        W81888  14.785  42.407  14.337
13515W        W81889   6.800  23.052  13.959
13516W        W81890  32.096  35.020   5.088
13517W        W81891  38.449  24.535  12.986
13518W        W81892  25.061  21.231   5.309
13519W        W81893  10.791  30.015   1.269
13520W        W81894  33.548   6.226   0.424
13521W        W81895  25.490  23.147  12.485
13522W        W81896  25.216   9.176  10.589
13523W        W81897  24.197   4.228  10.621
13524W        W81898  24.010  30.501  14.760
13525W        W81899  31.472  24.145   3.832
13526W        W81900  18.689   0.858   2.669
13527W        W81901  15.606   2.407   4.753
13528W        W81902  14.171  27.487  12.365
13529W        W81903  25.118   2.833   0.870
13530W        W81904  11.190  18.122  12.538
13531W        W81905  43.332  44.460   3.212
13532W        W81906   0.974   6.264  10.076
13533W        W81907  31.975  10.833  14.349
13534W        W81908  39.388   1.911   3.697
13535W        W81909  20.735  20.065  10.565
13536W        W81910  34.380  23.644   1.352
13537W        W81911  37.459  17.575  12.946
13538W        W81912   9.796  20.209   3.272
13539W        W81913  21.219  41.849   2.401
13540W        W81914   1.369  12.761  11.965
13541W        W81915  39.337   1.299   1.238
13542W        W81916  15.179   5.226  12.455
13543W        W81917  13.747  18.128   1.277
13544W        W81918  42.875  44.354  10.914
13545W        W81919  18.167  43.289  13.836
13546W        W81920  10.646  15.264   1.219
13547W        W81921  37.408   6.747   4.134
13548W        W81922  15.255  10.288   5.172
13549W        W81923  17.205  30.075   4.134
13550W        W81924  24.174   9.714   4.252
13551W        W81925  42.455  13.718   2.797
13552W        W81926  15.753  13.107  12.866
13553W        W81927  18.084  33.595  11.412
13554W        W81928   4.319   1.877  13.027
13555W        W81929   7.718  24.688   3.752
13556W        W81930  28.572  25.669  12.400
13557W        W81931   4.924  30.452   2.335
13558W        W81932   4.814  43.782   3.194
13559W        W81933   8.272  25.009   2.795
13560W        W81934  31.515  25.980   3.658
13561W        W81935  38.370  10.823  14.339
13562W        W81936  42.402  17.263  11.525
13563W        W81937  17.237   7.401   2.838
13564W        W81938  39.485  31.606  13.486
13565W        W81939  36.087  10.729  12.554
13566W        W81940  17.579   2.405  14.401
13567W        W81941  38.547  44.474   0.348
13568W        W81942   1.898  25.218   3.725
13569W        W81943   7.890  39.337  11.939
13570W        W81944  20.562  25.674   1.434
13571W        W81945   6.261   1.415   0.333
13572W        W81946  40.422   9.364  14.026
13573W        W81947  13.662  29.505   1.800
13574W        W81948  44.796  41.308   1.374
13575W        W81949  12.157   9.718   2.247
13576W        W81950   5.910  43.456   1.397
13577W        W81951   1.876  34.974  12.412
13578W        W81952  18.244  18.628   3.674
13579W        W81953  43.345  26.088  12.471
13580W        W81954  25.132  30.056   1.860
13581W        W81955   6.695  28.491  11.992
13582W        W81956  11.841   9.652   3.718
13583W        W81957  41.983  41.479   5.235
13584W        W81958  12.202   4.274   4.250
13585W        W81959  12.777  10.241  10.887
13586W        W81960  23.544  15.729   1.380
13587W        W81961  23.684  43.482   3.858
13588W        W81962  28.549  30.464  13.858
13589W        W81963  13.139  36.926   4.313
13590W        W81964  32.927  34.900   1.419
13591W        W81965   3.268  40.465  12.831
13592W        W81966  42.318  31.526   4.345
13593W        W81967   7.704  26.547  14.935
13594W        W81968   5.878  38.422   4.782
13595W        W81969  34.872  31.092   2.748
13596W        W81970  25.713  18.772  11.865
13597W        W81971  37.982  33.077   4.321
13598W        W81972  33.480  16.804   1.328
13599W        W81973  37.576  11.275   0.399
13600W        W81974   6.724  37.430  11.080
13601W        W81975  20.564  13.288  13.442
13602W        W81976  42.908  15.309   3.719
13603W        W81977   0.277  20.227   4.743
13604W        W81978  14.759  41.419   0.381
13605W        W81979  14.158  17.211  13.963
13606W        W81980  43.320  17.736  13.356
13607W        W81981  37.437  26.648   1.819
13608W        W81982   3.279  26.028  12.552
13609W        W81983  35.539   9.292   3.157
13610W        W81984  24.565  23.511  13.930
13611W        W81985  10.849  21.167  11.549
13612W        W81986  29.657  12.851  11.378
13613W        W81987  19.766  27.126  13.541
13614W        W81988  28.604  13.155   1.231
13615W        W81989  36.846  26.571   0.468
13616W        W81990  32.029   4.936  11.457
13617W        W81991  29.448  14.118  10.897
13618W        W81992  44.837  23.113  14.002
13619W        W81993  38.913  40.527  13.466
13620W        W81994   9.366  16.637  14.301
13621W        W81995  24.631   5.874  14.390
13622W        W81996   7.371  37.907  12.349
13623W        W81997  27.449  44.960  14.769
13624W        W81998  19.236  30.016   0.312
13625W        W81999  32.528  16.188   1.908
13626W        W82000  42.878  13.276   4.733
13627W        W82001  13.778  32.953  13.475
13628W        W82002  13.824  18.138  12.438
13629W        W82003  40.913  38.004   3.151
13630W        W82004  16.272  18.087  13.451
13631W        W82005  31.547  35.481  14.405
13632W        W82006  16.775   3.406   0.878
13633W        W82007   1.761  19.218   4.340
13634W        W82008  10.308   9.299  12.495
13635W        W82009  11.357  33.455   0.405
13636W        W82010  26.103   9.825  11.112
13637W        W82011   5.702   4.230  11.966
13638W        W82012  10.359   7.199  12.533
13639W        W82013  30.077  36.407  11.440
13640W        W82014  17.218  27.627  13.346
13641W        W82015   6.237  38.338  10.010
13642W        W82016  35.493  36.408   4.780
13643W        W82017  34.423  35.049   1.332
13644W        W82018  23.551  33.512  11.995
13645W        W82019  18.289   6.765  14.384
13646W        W82020  11.745  20.761   1.328
13647W        W82021   5.733  26.633  14.401
13648W        W82022  37.872  26.510  14.867
13649W        W82023  37.537   2.251  11.557
13650W        W82024  42.390   4.863   4.171
13651W        W82025  29.526  24.590   0.261
13652W        W82026  23.136  29.632   4.221
13653W        W82027  42.323   2.844  10.985
13654W        W82028  13.283  43.442  13.353
13655W        W82029   5.785  19.557  14.473
13656W        W82030  41.931  10.312   3.806
13657W        W82031  37.529  12.123   1.421
13658W        W82032   6.714  15.796   1.251
13659W        W82033   9.735  18.127   2.886
13660W        W82034  29.106  17.564   4.305
13661W        W82035   6.397   4.272   3.685
13662W        W82036  22.033  18.225  14.277
13663W        W82037  22.506  16.213   2.215
13664W        W82038  12.723  22.212  14.486
13665W        W82039  25.965  15.230   4.239
13666W        W82040  29.150  18.218   1.809
13667W        W82041  11.318  31.071  13.927
13668W        W82042   1.897  42.019   0.436
13669W        W82043   4.216  29.553  10.475
13670W        W82044  21.219  24.985   0.898
13671W        W82045   3.351  44.773   1.825
13672W        W82046  17.574   8.300  14.856
13673W        W82047  40.821  36.413   4.823
13674W        W82048   8.684  23.733   3.787
13675W        W82049   4.425  38.346  11.870
13676W        W82050  42.994  18.613   5.255
13677W        W82051   4.361  34.977   4.258
13678W        W82052   6.326  30.544   5.084
13679W        W82053  39.032  19.630  11.593
13680W        W82054  23.725  13.208  12.972
13681W        W82055  32.926  21.227   1.836
13682W        W82056  11.765  36.079  13.378
13683W        W82057  29.434  41.802  12.878
13684W        W82058   4.927  11.327   2.246
13685W        W82059  41.401  40.312   1.756
13686W        W82060  16.181   6.883  10.431
13687W        W82061   9.724  12.293   3.248
13688W        W82062   8.718  41.017   3.379
13689W        W82063  38.941  21.094  12.956
13690W        W82064  10.162   0.909  12.936
13691W        W82065  28.578  41.001  10.995
13692W        W82066  36.520  38.461   3.366
13693W        W82067  18.227  23.498   1.410
13694W        W82068  21.155  32.037  12.354
13695W        W82069  24.092  25.115  11.045
13696W        W82070   6.238  16.136  11.050
13697W        W82071   5.357  29.146   1.433
13698W        W82072  22.248   8.875  13.423
13699W        W82073   4.767   7.285  11.122
13700W        W82074  12.632   5.780   1.909
13701W        W82075  17.127  22.125  14.483
13702W        W82076  13.846  17.231   0.313
13703W        W82077   6.332   8.327   1.840
13704W        W82078   6.856  20.725  11.545
13705W        W82079  18.291  39.435   2.236
13706W        W82080  39.385   2.351  11.533
13707W        W82081  22.174  27.467  11.499
13708W        W82082  16.618  36.010   3.792
13709W        W82083   8.222  39.883   0.381
13710W        W82084  25.534  41.808  11.923
13711W        W82085  15.816  14.102  12.908
13712W        W82086   6.304  22.628  12.394
13713W        W82087  28.636  17.614   4.148
13714W        W82088  44.492   4.901   3.833
13715W        W82089  10.351  13.318   3.206
13716W        W82090  16.283  17.281   3.231
13717W        W82091  36.459  29.481  10.434
13718W        W82092  18.707  13.752  13.809
13719W        W82093  30.942  43.007  14.920
13720W        W82094  31.448   6.772  12.453
13721W        W82095   8.742   2.417   3.286
13722W        W82096  24.168   8.833   1.747
13723W        W82097  28.087   5.381   0.401
13724W        W82098  35.069  15.287   1.288
13725W        W82099  40.929  38.472  12.365
13726W        W82100  41.363  42.933  10.984
13727W        W82101  29.650  17.770  10.534
13728W        W82102  20.230   1.367   3.212
13729W        W82103  14.312  30.997  11.610
13730W        W82104  22.129  40.549  10.421
13731W        W82105  13.315  43.407  12.370
13732W        W82106  18.154  37.975  13.906
13733W        W82107  19.610  42.023   1.817
13734W        W82108  20.085  10.806   2.770
13735W        W82109  36.496  13.766   1.398
13736W        W82110   9.844  20.735   1.368
13737W        W82111  39.053  19.766  10.069
13738W        W82112  25.651  36.442   2.720
13739W        W82113   8.847  17.280  14.298
13740W        W82114  40.966   9.229   3.787
13741W        W82115  29.665  18.632   0.391
13742W        W82116  38.391  24.059   1.362
13743W        W82117   9.759   0.898   2.848
13744W        W82118   9.194  29.948  13.982
13745W        W82119  31.981  26.002  11.909
13746W        W82120  32.548  10.377   3.160
13747W        W82121  39.924  34.931   3.181
13748W        W82122  11.699   7.242   4.803
13749W        W82123  14.693  33.131  13.059
13750W        W82124  25.546   8.252  10.534
13751W        W82125   7.848  14.630  10.918
13752W        W82126   6.760  30.011   4.239
13753W        W82127  30.035  11.206   1.697
13754W        W82128  38.430   7.291  11.602
13755W        W82129  35.862   9.707   1.733
13756W        W82130  31.077  16.200   1.293
13757W        W82131  21.122  12.849  10.504
13758W        W82132  26.630  22.125   3.823
13759W        W82133  28.586   6.377  13.792
13760W        W82134   1.297   8.206   1.324
13761W        W82135   2.895  36.544   2.764
13762W        W82136  20.048   0.394   0.763
13763W        W82137  32.480  24.016  12.370
13764W        W82138  23.605  35.947   0.465
13765W        W82139  23.693   4.446  12.991
13766W        W82140  18.612  26.043  13.819
13767W        W82141  22.597  41.948  13.519
13768W        W82142  37.021  26.475  12.422
13769W        W82143  12.714  44.410  13.980
13770W        W82144  29.945  18.612   1.917
13771W        W82145  16.163  35.485   4.704
13772W        W82146  19.153  21.731  13.058
13773W        W82147  17.783  24.591   3.322
13774W        W82148  37.419  39.495   2.851
13775W        W82149   3.221  33.114  14.975
13776W        W82150  15.693  25.572   0.902
13777W        W82151   7.673  23.130   2.311
13778W        W82152  38.843   3.801  10.994
13779W        W82153  34.500  27.552  12.048
13780W        W82154   6.239  21.723  13.831
13781W        W82155  14.302  28.098  11.982
13782W        W82156   8.752   5.305  11.549
13783W        W82157  38.024   7.714   4.829
13784W        W82158  14.153   8.233  12.411
13785W        W82159   3.738  14.108   4.171
13786W        W82160  40.812   1.794   0.801
13787W        W82161  25.654   8.655   0.461
13788W        W82162  20.225   4.699  10.998
13789W        W82163  43.004  38.908   2.340
13790W        W82164  38.334   5.744   0.319
13791W        W82165  43.819  24.045   1.926
13792W        W82166  19.135  23.075  12.932
13793W        W82167   5.773  17.173   1.212
13794W        W82168  17.688  21.134  13.970
13795W        W82169  38.076   8.180  11.066
13796W        W82170   3.756  36.951   1.853
13797W        W82171   9.337  17.588  14.291
13798W        W82172  31.466  22.588   2.902
13799W        W82173  21.141  35.565  11.590
13800W        W82174  20.590  17.161  13.981
13801W        W82175  19.548  16.087   4.760
13802W        W82176   4.395  21.728  12.872
13803W        W82177  17.090  15.776  10.563
13804W        W82178  29.509  17.682  11.578
13805W        W82179  37.459  21.533   0.467
13806W        W82180  30.966   4.749  11.996
13807W        W82181  21.573  42.780  11.565
13808W        W82182   0.404  21.235   3.689
13809W        W82183  39.879  16.653  12.082
13810W        W82184  22.102  41.517  13.388
13811W        W82185  14.276  14.681  14.311
13812W        W82186  44.783  29.926  12.913
13813W        W82187  29.088  44.430   3.723
13814W        W82188  24.181  18.706   1.433
13815W        W82189  36.858  24.674   0.756
13816W        W82190   9.388   5.767  12.053
13817W        W82191  10.359  25.698   0.356
13818W        W82192  27.949  27.620   3.256
13819W        W82193   5.377  12.317   2.679
13820W        W82194  22.725  34.936   5.234
13821W        W82195  23.106  26.560  12.944
13822W        W82196  13.726  12.618  13.797
13823W        W82197   7.238  36.350  12.964
13824W        W82198   7.834  15.268   3.220
13825W        W82199  13.783  39.373  14.319
13826W        W82200  10.776  22.713  10.579
13827W        W82201   6.908  19.177  13.797
13828W        W82202  29.487  25.045  14.311
13829W        W82203  17.791  23.052   0.926
13830W        W82204  15.230   7.771  12.978
13831W        W82205  22.029  17.128  12.831
13832W        W82206  11.752  43.468  13.963
13833W        W82207   7.197  34.090  10.608
13834W        W82208   5.802  41.804   0.772
13835W        W82209  18.761  24.036   3.640
13836W        W82210  14.733   1.384   0.350
13837W        W82211   8.341  12.122   2.810
13838W        W82212   9.753  43.279   0.737
13839W        W82213  15.640  18.769  14.799
13840W        W82214  29.456  20.738   1.343
13841W        W82215   8.790   2.853   1.352
13842W        W82216  16.624  17.126   3.157
13843W        W82217  38.824   3.330  13.318
13844W        W82218   6.290   7.333   0.418
13845W        W82219  14.142  11.155   3.798
13846W        W82220  19.043  10.365   4.219
13847W        W82221  29.922  39.951  13.002
13848W        W82222  43.969  11.706   3.265
13849W        W82223  39.011   6.340  14.826
13850W        W82224  28.043  42.465   9.531
13851W        W82225  28.592  42.861  10.048
13852W        W82226   2.944  41.816  14.430
13853W        W82227   9.875  38.331   3.364
13854W        W82228  38.962   6.306   0.876
13855W        W82229   3.295  14.639   2.720
13856W        W82230   0.842  10.220  10.052
13857W        W82231  30.432  39.065  11.958
13858W        W82232  23.985  41.866   4.285
13859W        W82233  42.478  32.457  13.482
13860W        W82234   1.278  10.847   2.239
13861W        W82235   4.890  24.131  14.936
13862W        W82236   4.400  20.527   0.910
13863W        W82237  37.847  38.887   3.221
13864W        W82238   5.788  31.473   0.444
13865W        W82239  19.264   6.838  13.315
13866W        W82240  18.669  13.331   1.701
13867W        W82241  41.877   4.896  13.944
13868W        W82242  32.118   3.365   3.811
13869W        W82243  22.133  19.678   3.349
13870W        W82244  20.237  22.234   2.240
13871W        W82245  40.020  12.200  14.978
13872W        W82246  36.064  22.146  13.390
13873W        W82247   2.370  16.146  10.937
13874W        W82248  21.256  41.508  13.375
13875W        W82249  19.250  44.841   3.829
13876W        W82250  40.033  30.518   1.714
13877W        W82251   4.362  17.261  14.884
13878W        W82252  40.034  30.957  14.834
13879W        W82253  32.134  11.318  10.537
13880W        W82254   3.951  26.103   1.843
13881W        W82255  24.637  20.122  13.947
13882W        W82256  19.676   2.828  13.468
13883W        W82257  33.129   6.735  11.887
13884W        W82258  30.961  34.594   0.306
13885W        W82259   8.766  20.603   1.439
13886W        W82260  22.584  31.116   0.745
13887W        W82261  24.524  23.527   2.837
13888W        W82262  29.478  24.504  14.354
13889W        W82263  43.479  36.037   0.762
13890W        W82264  36.424   2.858  13.478
13891W        W82265  31.912   5.281   1.894
13892W        W82266   8.761  43.313   4.285
13893W        W82267  23.176  27.134   2.814
13894W        W82268  30.564  10.258  14.295
13895W        W82269  15.756   2.904  11.029
13896W        W82270  24.208   9.287   2.398
13897W        W82271  23.996   0.414   3.668
13898W        W82272  28.995  14.685  13.509
13899W        W82273  39.945   7.749   9.932
13900W        W82274  20.220  32.966   4.346
13901W        W82275  27.669   3.328   3.704
13902W        W82276  20.090  30.999  12.049
13903W        W82277  20.120  33.507   2.894
13904W        W82278  18.690  23.646  11.556
13905W        W82279  10.284  27.580  11.507
13906W        W82280  15.097   7.273   2.757
13907W        W82281  36.363  25.546  13.386
13908W        W82282   5.388   3.370  11.482
13909W        W82283  12.231   0.916   0.348
13910W        W82284  24.165  40.896  14.323
13911W        W82285  28.656  14.684  12.444
13912W        W82286  22.036   5.743   1.696
13913W        W82287  10.175  34.911   0.829
13914W        W82288   0.822  42.385  12.438
13915W        W82289  38.959  28.610  14.987
13916W        W82290  37.400  36.523   1.904
13917W        W82291   8.841  33.881   3.166
13918W        W82292  10.383  18.723   4.715
13919W        W82293  33.405  21.607  11.440
13920W        W82294  10.200  34.513   2.382
13921W        W82295  13.822  36.591  12.035
13922W        W82296  41.874  42.485   4.285
13923W        W82297  31.478  28.045   3.370
13924W        W82298  43.448  34.011  12.399
13925W        W82299   4.861  24.211   1.334
13926W        W82300   3.861   7.185   1.265
13927W        W82301  24.714  20.106  12.386
13928W        W82302  41.942  14.610   1.805
13929W        W82303  35.375  16.176  11.121
13930W        W82304  24.521  35.564   3.836
13931W        W82305  17.255  27.965  11.475
13932W        W82306  40.302  15.760  13.347
13933W        W82307  35.551   5.312   4.147
13934W        W82308  40.367   2.366  12.509
13935W        W82309  19.623  22.221   3.853
13936W        W82310  38.878   3.818  12.019
13937W        W82311  18.607  18.677   0.833
13938W        W82312  15.231   9.760   3.755
13939W        W82313  15.163  28.111  13.914
13940W        W82314  15.262   0.858  14.307
13941W        W82315  22.695  44.958  10.017
13942W        W82316   2.381  33.894  12.529
13943W        W82317  38.934   3.763  13.839
13944W        W82318  34.504   4.346   2.401
13945W        W82319  18.110  14.731  13.918
13946W        W82320   2.791  35.601   4.818
13947W        W82321  23.194  12.315  13.322
13948W        W82322  41.816   0.956   2.321
13949W        W82323  38.908  11.156  10.418
13950W        W82324  29.989  14.095   5.216
13951W        W82325  42.967  35.576   0.443
13952W        W82326  34.434   3.255   2.360
13953W        W82327  25.977  38.382  13.790
13954W        W82328  24.615   0.933   2.374
13955W        W82329   3.840  29.111  13.393
13956W        W82330  39.374  13.729   4.139
13957W        W82331  40.907  12.713  10.994
13958W        W82332  32.635   1.875   3.330
13959W        W82333  32.923  35.451  12.466
13960W        W82334  37.951   1.360   4.676
13961W        W82335   3.443  43.510  11.101
13962W        W82336  12.763   0.920   1.813
13963W        W82337  29.072  30.538  10.528
13964W        W82338  26.988   8.406  12.425
13965W        W82339  20.221  44.972   1.271
13966W        W82340  34.075  10.633   2.321
13967W        W82341  13.835  36.995  10.955
13968W        W82342  39.558  42.425   1.866
13969W        W82343   2.917   5.314  14.367
13970W        W82344   0.983  38.881   4.775
13971W        W82345  44.365   9.851  14.487
13972W        W82346  22.628  18.681  11.507
13973W        W82347  18.762  16.756   2.794
13974W        W82348  12.762   9.854   1.413
13975W        W82349  11.823  36.444   1.338
13976W        W82350  11.211  13.711  11.517
13977W        W82351   4.417  18.197  13.797
13978W        W82352  40.342  42.877  11.570
13979W        W82353  31.027  29.579  12.557
13980W        W82354  42.414  38.963  13.838
13981W        W82355  44.985  37.072   0.780
13982W        W82356  40.815   9.285  13.546
13983W        W82357  42.281  14.214   2.793
13984W        W82358  23.130  41.836   2.202
13985W        W82359  43.290  33.932  14.768
13986W        W82360   8.281  28.995   3.867
13987W        W82361   9.391  29.130  12.060
13988W        W82362  16.804  13.190  12.002
13989W        W82363  13.315  24.177   4.185
13990W        W82364  27.626   4.829  12.049
13991W        W82365  20.632  39.850   0.871
13992W        W82366  24.503  22.604   0.940
13993W        W82367  24.623  31.931  10.982
13994W        W82368  33.418  14.214  14.973
13995W        W82369  10.167  13.614  11.454
13996W        W82370  10.148   2.763   4.631
13997W        W82371  22.505  35.557   3.717
13998W        W82372  17.568   1.920   1.702
13999W        W82373   8.270  34.014   4.260
14000W        W82374  32.397  16.569   4.193
14001W        W82375  15.090   3.948   1.729
14002W        W82376  17.071  31.590   0.300
14003W        W82377  39.553  25.183   0.345
14004W        W82378  23.624   6.775  13.445
14005W        W82379  22.546  11.728  13.499
14006W        W82380  27.655  28.444  13.381
14007W        W82381  11.858  42.948   4.204
14008W        W82382  34.973  11.367   3.160
14009W        W82383  41.345  15.118  11.990
14010W        W82384  23.603   0.914   1.250
14011W        W82385  11.646  17.268   4.797
14012W        W82386   6.342  31.475   4.239
14013W        W82387  25.011  15.181  14.892
14014W        W82388  19.546  31.414  14.920
14015W        W82389  22.081  39.414   3.222
14016W        W82390  29.657  16.262  13.998
14017W        W82391  25.486  24.717   0.813
14018W        W82392  27.567   0.856  10.589
14019W        W82393  11.828   0.941   3.733
14020W        W82394  19.538  37.987   4.622
14021W        W82395  39.929  10.676  10.516
14022W        W82396  44.988  13.185   2.321
14023W        W82397  21.088   5.712   2.887
14024W        W82398  16.098  40.018   4.802
14025W        W82399  19.204  34.977   4.678
14026W        W82400  26.065   3.788  13.814
14027W        W82401  25.652  31.435  12.910
14028W        W82402  18.570  27.540  11.430
14029W        W82403  44.924  20.259   1.786
14030W        W82404  29.649  18.727  14.300
14031W        W82405  11.186  25.617  13.369
14032W        W82406  21.142   9.242  11.544
14033W        W82407  28.533   7.383   3.181
14034W        W82408  26.181  19.212   1.255
14035W        W82409  39.893   9.192   0.475
14036W        W82410  17.098  39.331  10.996
14037W        W82411   6.910   8.792   1.219
14038W        W82412  16.235  33.394  14.003
14039W        W82413   5.281  21.712  14.954
14040W        W82414  21.655  15.329   4.796
14041W        W82415   0.410  24.979  11.441
14042W        W82416  39.044   0.804   0.870
14043W        W82417  38.541  21.081  11.036
14044W        W82418  19.648  28.645   0.918
14045W        W82419  39.934  27.952  10.447
14046W        W82420  15.095  38.987   3.760
14047W        W82421   0.386  34.475   3.223
14048W        W82422   4.392   1.301   0.893
14049W        W82423  16.569   7.765   2.745
14050W        W82424   0.400  11.288   0.875
14051W        W82425  16.203  16.268   1.759
14052W        W82426  17.169   4.938   0.872
14053W        W82427   6.255  38.410  12.417
14054W        W82428   7.338  42.776  14.817
14055W        W82429   6.259  21.541   0.803
14056W        W82430  20.261  12.693   5.175
14057W        W82431   0.359  34.073   1.913
14058W        W82432  25.489  14.822  14.369
14059W        W82433  41.957  43.019   2.329
14060W        W82434  25.066  39.543  10.570
14061W        W82435   4.742  39.008   1.698
14062W        W82436  10.859  25.537  12.047
14063W        W82437  40.442  40.007   2.419
14064W        W82438   1.463  39.829   0.375
14065W        W82439  28.611   7.302  12.577
14066W        W82440  30.950  28.543   3.735
14067W        W82441  13.115  25.964  12.051
14068W        W82442   2.388  29.572  10.986
14069W        W82443   5.323  39.993   4.323
14070W        W82444  28.109  38.916   5.149
14071W        W82445  37.974  18.136  12.913
14072W        W82446  11.236  37.556   0.794
14073W        W82447   3.848   2.836   4.778
14074W        W82448   6.355  10.781   1.806
14075W        W82449  33.460  31.029  11.114
14076W        W82450  14.185  20.600  14.008
14077W        W82451  20.538   5.416  10.498
14078W        W82452  30.120  30.973   0.933
14079W        W82453   5.376  42.858   4.244
14080W        W82454  14.176  37.975   1.441
14081W        W82455  24.667  38.034   1.386
14082W        W82456   9.264  22.241   4.126
14083W        W82457  25.108  31.920   1.285
14084W        W82458  17.730  38.981  12.350
14085W        W82459  32.427  26.120   3.754
14086W        W82460  24.720  24.634  12.867
14087W        W82461  15.716   0.984  13.530
14088W        W82462   9.291   0.455  13.466
14089W        W82463  14.129  16.611  13.938
14090W        W82464  31.520  24.227   4.603
14091W        W82465   1.359  36.541   4.186
14092W        W82466   9.387  16.671  12.046
14093W        W82467   6.696  32.396  10.888
14094W        W82468  32.000  40.348   4.712
14095W        W82469   9.161   8.708   1.406
14096W        W82470  14.153   2.942  12.432
14097W        W82471  42.024  27.668   3.253
14098W        W82472  25.047   5.280  10.893
14099W        W82473  12.712  15.181   2.702
14100W        W82474  19.777  12.336  14.020
14101W        W82475  43.365  22.226   2.900
14102W        W82476   4.306  42.404  12.892
14103W        W82477   4.441  20.681  12.525
14104W        W82478  42.450  36.973   3.803
14105W        W82479  15.329   9.211   5.308
14106W        W82480  37.355  22.593   2.753
14107W        W82481  29.055  29.469  11.115
14108W        W82482  43.492  27.517  11.869
14109W        W82483  24.667   0.788   4.189
14110W        W82484  36.507  25.629   3.244
14111W        W82485  17.759  24.584  12.579
14112W        W82486  42.945  21.696   4.173
14113W        W82487  15.123  36.469   1.816
14114W        W82488  26.547  23.217  11.018
14115W        W82489  12.116  10.752  11.941
14116W        W82490  14.142  43.924  13.031
14117W        W82491   0.942   9.341  10.447
14118W        W82492  15.786  34.024   4.329
14119W        W82493   6.183  27.602  10.036
14120W        W82494  20.238   4.267  12.503
14121W        W82495  36.961   0.457  14.891
14122W        W82496  43.997   2.350   0.449
14123W        W82497  43.346   5.224   1.374
14124W        W82498   3.784   1.333   0.327
14125W        W82499  41.383  14.284   4.261
14126W        W82500  27.582  11.655   3.666
14127W        W82501  19.661   1.952  11.926
14128W        W82502   8.268  44.833  13.400
14129W        W82503  39.042  19.560  12.380
14130W        W82504  42.929  15.792  13.849
14131W        W82505   5.285   9.734  12.874
14132W        W82506  39.545   7.910   2.809
14133W        W82507  35.495   0.300  14.029
14134W        W82508  20.689  15.766  14.767
14135W        W82509  37.015   7.266  14.760
14136W        W82510  21.101   5.244  11.433
14137W        W82511  33.616  13.181  14.810
14138W        W82512  41.035  26.968   1.910
14139W        W82513  41.011  10.797   0.336
14140W        W82514  30.529  37.566   2.367
14141W        W82515  37.920  29.482  11.513
14142W        W82516  43.324   5.798  14.897
14143W        W82517  33.920  19.612   0.951
14144W        W82518  13.800  36.494   4.354
14145W        W82519  19.073  40.938   2.325
14146W        W82520  33.597  19.568   4.738
14147W        W82521  23.097  28.066   2.232
14148W        W82522  15.211  13.165   3.230
14149W        W82523  14.288  31.639   4.237
14150W        W82524   6.273  32.952  13.523
14151W        W82525  19.056  24.185   3.357
14152W        W82526  15.305  33.000  13.513
14153W        W82527  11.750  27.125  12.392
14154W        W82528  29.506  17.134  13.824
14155W        W82529  34.456   6.190   3.870
14156W        W82530  31.145  27.546   1.331
14157W        W82531  23.576   8.382   0.951
14158W        W82532   4.375  30.425  13.351
14159W        W82533  15.644  16.756  13.375
14160W        W82534  31.139  35.031  14.458
14161W        W82535   0.437  42.382  10.950
14162W        W82536  20.028   2.788   1.912
14163W        W82537  25.625  32.085   2.234
14164W        W82538   9.360   5.883   2.782
14165W        W82539   9.230  39.987   4.791
14166W        W82540  13.665  25.595  12.464
14167W        W82541  26.089  27.574  11.442
14168W        W82542  30.483   2.801   0.822
14169W        W82543   0.465  23.734  10.979
14170W        W82544   8.298  32.536  14.327
14171W        W82545   1.780  38.468  13.409
14172W        W82546  17.206  11.867  12.079
14173W        W82547  40.911   7.231   0.966
14174W        W82548  31.509   2.401  10.959
14175W        W82549  26.597   9.270  13.954
14176W        W82550  13.207  19.743  10.068
14177W        W82551  42.281  14.689   4.645
14178W        W82552  31.069  32.472  14.477
14179W        W82553  20.719  19.588   0.297
14180W        W82554  40.332  39.410   3.647
14181W        W82555  35.049  21.191   3.634
14182W        W82556   0.397  16.123  12.428
14183W        W82557  30.988   9.760   3.243
14184W        W82558  40.334   9.201   1.753
14185W        W82559  10.842  18.261  12.018
14186W        W82560  39.875   9.803  10.597
14187W        W82561  17.071  16.632   0.789
14188W        W82562   9.197  38.934  10.421
14189W        W82563  26.142  29.582  13.913
14190W        W82564  15.194   5.907   0.818
14191W        W82565  28.574  41.927   4.210
14192W        W82566   9.781  35.029  13.541
14193W        W82567  11.795  17.603   4.834
14194W        W82568  12.139  12.819   3.672
14195W        W82569  36.416  34.055  11.467
14196W        W82570   6.355  41.473   0.775
14197W        W82571  15.166  36.577  11.879
14198W        W82572  44.945  19.060   4.619
14199W        W82573  37.346   9.349  13.912
14200W        W82574  12.830  14.759   4.133
14201W        W82575  34.412  22.160   0.337
14202W        W82576  30.058  14.648  11.926
14203W        W82577   0.814   4.924  14.502
14204W        W82578  10.222  31.104  11.013
14205W        W82579  20.532  14.615   2.713
14206W        W82580  28.050  19.668  13.477
14207W        W82581   5.365  35.904  10.513
14208W        W82582  31.439  24.624   4.664
14209W        W82583   1.421  24.718  14.494
14210W        W82584  30.987  33.897  11.915
14211W        W82585  40.508  18.582  11.430
14212W        W82586  28.680   1.446   2.681
14213W        W82587  21.599   2.301   4.250
14214W        W82588  23.563   8.773  14.458
14215W        W82589   4.296  21.566  14.800
14216W        W82590  26.059  40.322   3.299
14217W        W82591  30.926  40.903   4.805
14218W        W82592  27.059  25.995   3.247
14219W        W82593   1.461  19.105   1.836
14220W        W82594   8.890  38.907  14.980
14221W        W82595  27.661  30.477   0.379
14222W        W82596  31.086   5.865   0.951
14223W        W82597   6.680  20.071  11.009
14224W        W82598   7.906   2.461   2.261
14225W        W82599  27.095   4.749   0.807
14226W        W82600  29.650  31.045  11.450
14227W        W82601  22.633   0.824   3.681
14228W        W82602  21.092  15.193  12.086
14229W        W82603  16.076  38.047   0.873
14230W        W82604  38.874  16.700   4.217
14231W        W82605  35.552  41.925   2.270
14232W        W82606  30.076  32.550   0.302
14233W        W82607  37.066  33.619  13.875
14234W        W82608   1.767   1.390  14.870
14235W        W82609  16.674  16.728   3.829
14236W        W82610  37.065   7.792   3.646
14237W        W82611  15.773   9.203   4.801
14238W        W82612   1.740  28.646  14.916
14239W        W82613   1.875   7.683  14.865
14240W        W82614  24.977   3.359  13.523
14241W        W82615  35.502  17.748   0.772
14242W        W82616  44.783  23.705   1.419
14243W        W82617   0.900  17.268  11.412
14244W        W82618  12.820  15.744  12.481
14245W        W82619  11.621   2.843   0.848
14246W        W82620   2.353  23.118   0.462
14247W        W82621  28.110   8.707   5.089
14248W        W82622  35.422  24.537  14.401
14249W        W82623  44.977  10.312  14.462
14250W        W82624  19.678  23.721   2.714
14251W        W82625   8.759   6.810  14.340
14252W        W82626  26.588  36.398   1.340
14253W        W82627   4.872  24.179  10.954
14254W        W82628  23.033  15.689   1.850
14255W        W82629  11.758  38.013   1.850
14256W        W82630  39.523  36.976   1.727
14257W        W82631  10.232  26.047   2.300
14258W        W82632  31.936  28.130   4.802
14259W        W82633  35.462   8.173   0.839
14260W        W82634  16.679   6.801   2.895
14261W        W82635  20.723  25.150  12.376
14262W        W82636  35.919  14.793  14.015
14263W        W82637   1.351  21.578  10.407
14264W        W82638  13.334  41.429   5.232
14265W        W82639  32.064  22.605   1.343
14266W        W82640  27.508  16.216   0.254
14267W        W82641   0.302   5.817  13.334
14268W        W82642  29.973  13.732  10.616
14269W        W82643  16.147  25.096  13.314
14270W        W82644  25.680  29.043   3.760
14271W        W82645  20.742   1.304   4.779
14272W        W82646  44.997  33.500  12.001
14273W        W82647  18.183  17.094   4.717
14274W        W82648  37.501  39.825  11.883
14275W        W82649  28.165  13.283  11.911
14276W        W82650  17.258  14.788   0.243
14277W        W82651  23.635  42.907  12.982
14278W        W82652  27.038  18.691  11.577
14279W        W82653  31.494  43.773   2.399
14280W        W82654  26.672  38.848   1.264
14281W        W82655  23.052   3.231   3.265
14282W        W82656   7.704  28.490  15.000
14283W        W82657  22.026   2.864   1.310
14284W        W82658  19.653  20.573  11.511
14285W        W82659  44.335  41.793  11.011
14286W        W82660  22.615  31.136  13.521
14287W        W82661  28.136  12.763  11.990
14288W        W82662  41.396  24.011  13.036
14289W        W82663  19.593  14.714  12.409
14290W        W82664  41.911  25.153  10.456
14291W        W82665  33.433  18.683  12.464
14292W        W82666  19.570  20.237  13.425
14293W        W82667   8.728  37.485  14.957
14294W        W82668  35.461   4.877   4.702
14295W        W82669  14.166  40.971  10.550
14296W        W82670  41.952  18.277  11.999
14297W        W82671   5.241  17.230   3.833
14298W        W82672   0.878  19.629  12.404
14299W        W82673   5.394  26.572   4.343
14300W        W82674  38.401   5.271  13.479
14301W        W82675  38.050  17.635   3.784
14302W        W82676  30.552  18.240   3.210
14303W        W82677   6.760   9.694   3.308
14304W        W82678  14.129  15.142   2.892
14305W        W82679   8.334  28.160   3.869
14306W        W82680  36.033  22.734   3.316
14307W        W82681   2.765  11.135   3.714
14308W        W82682  44.942  12.343  14.443
14309W        W82683   6.266   5.829   3.639
14310W        W82684  12.238  20.125   0.823
14311W        W82685  36.065  29.157  11.955
14312W        W82686  28.093  20.614  14.323
14313W        W82687   5.754  37.924  10.488
14314W        W82688  37.504   5.930   4.699
14315W        W82689  12.790   8.325  12.948
14316W        W82690   4.784   4.398   2.690
14317W        W82691  13.724  42.798   4.771
14318W        W82692  19.148   6.699  12.996
14319W        W82693  37.952  39.414   4.153
14320W        W82694  11.157   5.732  14.841
14321W        W82695   4.233  41.292  11.927
14322W        W82696  30.969  41.854  10.969
14323W        W82697  34.371  42.490  13.975
14324W        W82698   4.421  30.417   3.372
14325W        W82699  37.086  21.685   0.810
14326W        W82700  44.995  27.974   4.829
14327W        W82701  26.525  24.590  14.308
14328W        W82702  32.912  15.631  11.583
14329W        W82703  38.487   5.705  10.527
14330W        W82704  16.794  18.696   1.318
14331W        W82705  43.920  22.523  13.365
14332W        W82706  41.905  25.497   1.731
14333W        W82707  32.074  16.647  12.447
14334W        W82708  33.596   3.837   3.258
14335W        W82709  23.036  38.065   4.314
14336W        W82710  34.599  30.572  14.492
14337W        W82711   5.896  12.233  13.916
14338W        W82712   1.439   7.911   1.316
14339W        W82713  42.891   4.748   0.467
14340W        W82714  34.109  32.441   1.845
14341W        W82715  32.441  35.401   4.828
14342W        W82716  38.964  16.694  11.587
14343W        W82717   6.760   1.975   9.951
14344W        W82718   4.909  29.065   0.483
14345W        W82719  17.756   3.409   0.788
14346W        W82720  17.196   3.291   5.236
14347W        W82721  33.555   5.283   1.787
14348W        W82722  30.958  39.982   3.633
14349W        W82723  32.012  16.288  14.291
14350W        W82724  42.029  19.547  10.046
14351W        W82725  24.542  41.481  11.483
14352W        W82726  20.033  39.933   3.767
14353W        W82727  22.242  13.227  14.968
14354W        W82728  15.661  35.994   3.264
14355W        W82729  13.616   0.276   1.341
14356W        W82730  35.928  25.700   4.205
14357W        W82731   8.163  25.668  12.477
14358W        W82732   4.433  42.480   1.256
14359W        W82733  32.968  43.449  10.898
14360W        W82734  42.317   5.700   0.891
14361W        W82735  27.487  33.028  12.526
14362W        W82736   4.768  31.628   1.909
14363W        W82737   4.939  29.036  12.844
14364W        W82738  37.337  40.903   0.482
14365W        W82739  24.641   1.440  11.032
14366W        W82740   3.834  31.412   4.259
14367W        W82741  14.112   1.915   2.863
14368W        W82742  41.314  13.633  10.960
14369W        W82743  37.514   3.375   1.711
14370W        W82744  20.044  27.460  13.999
14371W        W82745  32.472  13.839  14.947
14372W        W82746  42.321  17.596  13.865
14373W        W82747  25.484  18.553  10.048
14374W        W82748   9.269  43.781   2.322
14375W        W82749   3.886  44.822   3.661
14376W        W82750  15.780  14.684  13.061
14377W        W82751  16.732  30.652  11.094
14378W        W82752   4.290  27.586   3.150
14379W        W82753   0.307  44.338  11.077
14380W        W82754  14.722  34.452  13.419
14381W        W82755   4.806   0.330  10.075
14382W        W82756  20.635  44.866  12.463
14383W        W82757  41.455  26.683  14.457
14384W        W82758  20.524  42.900  11.430
14385W        W82759  37.854  10.695   2.696
14386W        W82760   4.826  30.553   3.214
14387W        W82761   0.858  21.717  11.020
14388W        W82762   8.751  14.143  14.908
14389W        W82763  16.798  21.641  13.456
14390W        W82764  12.626   2.383  11.962
14391W        W82765  27.089  13.228   2.363
14392W        W82766  43.856  43.790  13.968
14393W        W82767  11.747   7.687   1.894
14394W        W82768  38.464   8.387   3.637
14395W        W82769  25.176  42.335   0.384
14396W        W82770   5.225  15.147  10.432
14397W        W82771   4.731  33.974  13.521
14398W        W82772  16.788  25.036   2.716
14399W        W82773  27.097  21.654   3.720
14400W        W82774   9.316  24.594  11.124
14401W        W82775  26.197  16.719   9.943
14402W        W82776  25.600  15.688  13.025
14403W        W82777  30.655  18.141   2.702
14404W        W82778  38.030  36.483  12.417
14405W        W82779   9.841  26.672  13.924
14406W        W82780   3.931  29.077   4.354
14407W        W82781  24.215   8.297   3.241
14408W        W82782  12.750  11.654  13.927
14409W        W82783  15.809   7.352   3.778
14410W        W82784  21.172  35.925   2.263
14411W        W82785  28.050   0.962  11.929
14412W        W82786  25.526   3.727  11.588
14413W        W82787  30.425  44.395  11.499
14414W        W82788  26.014  15.775  10.615
14415W        W82789  14.226  18.248   0.310
14416W        W82790   1.442  18.568   2.671
14417W        W82791  43.315  11.742  11.855
14418W        W82792  26.082  35.586   4.798
14419W        W82793  35.486   2.931  11.996
14420W        W82794  40.042  29.998   3.341
14421W        W82795   6.915  19.745   9.589
14422W        W82796  16.136   4.777  11.125
14423W        W82797  40.350   4.873  13.341
14424W        W82798  13.135  42.506  14.293
14425W        W82799   7.886  10.351  10.084
14426W        W82800  39.553  19.284   0.483
14427W        W82801   4.729  26.459   4.725
14428W        W82802  23.619  25.087   0.356
14429W        W82803  18.627  16.644  12.454
14430W        W82804  25.562  30.464   3.240
14431W        W82805   9.856  26.098  11.108
14432W        W82806  43.943   3.223  14.333
14433W        W82807  33.983  35.090   2.186
14434W        W82808   2.742   6.284  10.502
14435W        W82809  25.563   8.191   0.296
14436W        W82810  25.516  25.675  14.444
14437W        W82811   2.831  40.397  12.531
14438W        W82812  16.134  37.443   2.764
14439W        W82813   2.280  10.264   0.482
14440W        W82814  15.244  35.024  14.390
14441W        W82815  16.253  33.442  10.431
14442W        W82816  20.185  26.551   0.744
14443W        W82817  19.100  28.093   2.297
14444W        W82818  20.081  35.523  12.901
14445W        W82819  12.241  13.622   0.939
14446W        W82820  10.218   6.860  13.461
14447W        W82821   9.294   9.728   2.396
14448W        W82822  35.569  10.750  14.838
14449W        W82823  41.036  42.815  14.324
14450W        W82824  16.291  42.884  11.430
14451W        W82825  35.441   6.740  13.366
14452W        W82826  14.284  40.049  11.934
14453W        W82827  15.674  34.967  12.017
14454W        W82828  27.635  30.153   4.639
14455W        W82829  41.470  35.054  14.403
14456W        W82830  35.100  30.101  11.421
14457W        W82831  10.260  15.295  11.088
14458W        W82832  15.281  35.887   1.346
14459W        W82833  40.798   5.288  14.960
14460W        W82834  11.784  26.027  11.380
14461W        W82835  30.651  33.039  13.434
14462W        W82836   6.193   6.845  14.000
14463W        W82837  44.323   7.206   4.210
14464W        W82838  37.926   6.732   9.617
14465W        W82839  25.986   3.448   0.922
14466W        W82840  14.286  26.685  13.047
14467W        W82841  12.699   3.798  14.507
14468W        W82842  20.709   0.344   4.701
14469W        W82843  43.447  11.810   1.388
14470W        W82844  24.037  26.132  11.492
14471W        W82845  17.133   3.248  10.118
14472W        W82846  17.779  19.590   2.288
14473W        W82847  10.179   1.411   4.606
14474W        W82848  39.883   5.833   3.704
14475W        W82849  10.211  12.219   0.459
14476W        W82850  11.281   5.855   4.342
14477W        W82851  41.468  24.523   0.366
14478W        W82852  42.456   1.462  10.438
14479W        W82853  13.809   8.692   5.290
14480W        W82854  28.046   0.343   2.194
14481W        W82855  34.878   1.886  13.936
14482W        W82856  41.345  13.791  14.760
14483W        W82857  25.583   4.700  10.547
14484W        W82858  15.720   8.402   1.310
14485W        W82859   3.376   8.317  11.402
14486W        W82860  34.563  15.312  12.824
14487W        W82861  24.692   2.353  14.319
14488W        W82862  26.577  20.757   4.301
14489W        W82863   6.292  36.484   0.844
14490W        W82864   0.896  31.970   1.701
14491W        W82865  41.787  24.037   2.877
14492W        W82866  19.596   4.307   4.689
14493W        W82867  44.487  35.490  14.005
14494W        W82868  44.460  14.643  14.961
14495W        W82869  42.927   9.781  14.804
14496W        W82870  40.995  29.025  10.998
14497W        W82871  30.597  42.452  11.598
14498W        W82872  16.808  27.566   3.845
14499W        W82873   0.759  20.238   3.146
14500W        W82874  16.072  17.084   4.115
14501W        W82875  21.150  14.613   3.733
14502W        W82876  32.998  42.281  14.927
14503W        W82877  18.633  34.994  11.560
14504W        W82878  34.380  36.094   1.247
14505W        W82879  39.555  23.630   1.809
14506W        W82880  25.206  36.365  12.499
14507W        W82881  21.168  28.672   0.834
14508W        W82882  32.486  34.535   1.900
14509W        W82883  12.140  38.327  11.914
14510W        W82884  23.139  22.022   4.184
14511W        W82885   3.802  41.336   1.838
14512W        W82886  16.691  21.656  14.991
14513W        W82887  24.669  25.984  10.529
14514W        W82888  29.552  37.414  12.829
14515W        W82889  32.438  15.137   1.337
14516W        W82890   3.954   6.427   1.770
14517W        W82891  43.394  27.023  13.836
14518W        W82892  14.334  17.723   4.170
14519W        W82893   1.421   0.932  14.313
14520W        W82894   2.461  18.573  11.483
14521W        W82895   8.208  15.172   0.429
14522W        W82896   5.739  23.060  10.477
14523W        W82897  36.903  14.121   0.411
14524W        W82898  32.485  10.300   0.299
14525W        W82899  16.645   5.713  13.461
14526W        W82900   9.784  39.977   1.917
14527W        W82901  12.826  35.084  10.944
14528W        W82902  41.416  36.049  11.440
14529W        W82903   5.267  29.981   2.236
14530W        W82904  35.453  30.555   4.602
14531W        W82905   4.219  37.998  11.481
14532W        W82906   2.754   2.382  12.401
14533W        W82907  37.363   4.726  12.923
14534W        W82908  35.026  23.658   9.991
14535W        W82909  11.689  23.543   1.859
14536W        W82910  41.981  24.495   2.393
14537W        W82911  41.464   4.800  12.475
14538W        W82912  12.654  40.907  14.932
14539W        W82913  25.047  30.415   2.230
14540W        W82914  25.670  32.511   1.814
14541W        W82915  35.494  21.219   0.754
14542W        W82916  20.167  17.787   1.928
14543W        W82917  23.198  37.468   3.867
14544W        W82918  25.159  28.146   1.753
14545W        W82919  18.714  38.404   2.866
14546W        W82920   1.375  39.840  11.085
14547W        W82921  14.229   4.772   0.369
14548W        W82922   4.217  13.320   1.793
14549W        W82923  27.617  34.066  10.987
14550W        W82924   5.314   9.694  13.985
14551W        W82925  28.610  11.160  10.620
14552W        W82926  31.984  25.667  14.981
14553W        W82927   0.822  18.759   4.128
14554W        W82928  20.089   4.798  12.455
14555W        W82929  10.761  17.657   4.667
14556W        W82930  22.717   5.216  10.566
14557W        W82931  23.156  31.991  13.862
14558W        W82932  25.594   9.652  13.877
14559W        W82933   0.788  39.943   4.759
14560W        W82934  26.660  21.705  12.572
14561W        W82935  16.590  16.731   2.348
14562W        W82936  28.120   4.450  12.423
14563W        W82937  24.025  44.802  13.534
14564W        W82938  38.049  43.405   4.812
14565W        W82939  16.196   2.387  12.951
14566W        W82940  17.708  21.037   2.381
14567W        W82941  27.535   4.230   2.835
14568W        W82942  13.611   3.223  10.453
14569W        W82943  42.932  34.450   2.735
14570W        W82944   0.331  32.907   0.468
14571W        W82945  33.401  10.823   3.179
14572W        W82946   5.371  40.392  11.429
14573W        W82947  33.595  14.110   3.821
14574W        W82948  31.946  27.511  12.945
14575W        W82949  30.049   8.312   3.724
14576W        W82950  39.508  28.506  12.397
14577W        W82951  33.875  41.341   0.845
14578W        W82952   6.704  42.803  10.518
14579W        W82953  37.569  27.486  10.603
14580W        W82954  28.631   9.806   4.171
14581W        W82955  25.195  29.081   4.249
14582W        W82956   5.219  33.482   4.232
14583W        W82957  17.586  12.744  13.381
14584W        W82958  24.090  21.236  10.895
14585W        W82959   5.305  13.781   3.856
14586W        W82960  22.172  41.006   1.782
14587W        W82961   8.182  20.117   5.201
14588W        W82962  38.381   7.668  11.959
14589W        W82963  18.096  34.430  11.128
14590W        W82964   5.427   7.691   4.812
14591W        W82965  38.545  11.357  13.880
14592W        W82966  35.527   3.759   2.345
14593W        W82967  16.198  12.286   3.292
14594W        W82968  38.057  14.815  14.762
14595W        W82969  10.854   6.225   3.669
14596W        W82970   7.203  27.086  11.556
14597W        W82971  33.037  36.552  11.057
14598W        W82972  28.031  35.563   2.797
14599W        W82973   4.230  25.470  13.920
14600W        W82974  25.128  22.747   0.417
14601W        W82975  33.439  28.997   4.604
14602W        W82976  34.495  29.973  13.860
14603W        W82977  33.621  29.523   2.691
14604W        W82978  42.354   0.433   3.322
14605W        W82979   8.307   3.386  12.996
14606W        W82980  20.235  36.931   4.644
14607W        W82981  38.393  31.467   4.318
14608W        W82982  41.520  24.707   3.651
14609W        W82983   5.296  30.942   0.965
14610W        W82984  13.782  27.590   0.815
14611W        W82985  27.109   0.362  10.996
14612W        W82986  25.538  32.573  14.432
14613W        W82987  43.356  20.597   2.392
14614W        W82988   8.769  28.602   0.733
14615W        W82989  37.447  17.628  12.526
14616W        W82990  18.760  35.546  13.032
14617W        W82991   5.219  31.044  14.915
14618W        W82992  24.034  41.319   2.821
14619W        W82993  16.702  23.201  11.392
14620W        W82994  14.808  17.264   1.704
14621W        W82995   7.319   1.318   4.815
14622W        W82996   6.754  22.668  10.559
14623W        W82997   7.910  18.257   3.632
14624W        W82998   7.383   1.944  13.969
14625W        W82999  24.686  42.293  13.797
14626W        W83000  31.577   0.795   4.192
14627W        W83001  44.321  14.825   2.403
14628W        W83002   5.819  41.018  11.595
14629W        W83003  19.046  16.132  11.603
14630W        W83004  42.466   0.832  10.506
14631W        W83005  25.206   1.366  11.051
14632W        W83006  38.897  36.020   4.123
14633W        W83007  33.949  21.561  14.029
14634W        W83008  33.063  36.469  10.622
14635W        W83009  25.160  19.608  14.346
14636W        W83010  26.517  27.998  11.936
14637W        W83011  10.346  10.720   4.733
14638W        W83012  39.373  35.946   1.347
14639W        W83013  16.308  16.754   1.897
14640W        W83014  13.276  21.260   1.358
14641W        W83015   6.240  18.279  13.023
14642W        W83016  41.867  13.213   4.658
14643W        W83017  41.983  30.615  11.936
14644W        W83018   0.987  29.054   2.289
14645W        W83019  33.502  22.137   0.946
14646W        W83020  18.768  10.310  14.920
14647W        W83021  16.142  27.664  11.048
14648W        W83022  27.654   0.278   0.314
14649W        W83023  30.542  16.651   2.863
14650W        W83024   9.774   2.257  10.570
14651W        W83025   2.448   3.891  11.595
14652W        W83026  25.206  30.530  12.392
14653W        W83027   5.698  10.802  13.980
14654W        W83028  16.781  24.606   3.303
14655W        W83029  15.311  30.594   3.239
14656W        W83030  27.459  42.468   4.651
14657W        W83031  11.726   3.239  11.456
14658W        W83032  31.561  13.256  13.043
14659W        W83033  18.209  19.263  12.505
14660W        W83034  41.848  15.729  10.938
14661W        W83035  26.648  10.330   0.363
14662W        W83036  18.698  41.479   4.237
14663W        W83037  27.514  25.525  11.438
14664W        W83038  32.606  30.631   2.243
14665W        W83039  21.264  37.041  11.025
14666W        W83040  22.729   6.774   0.421
14667W        W83041   9.186  17.091  11.074
14668W        W83042   0.924  37.373   3.164
14669W        W83043   5.731   1.750  11.467
14670W        W83044  21.554   1.418  14.432
14671W        W83045  10.672  43.928  13.360
14672W        W83046  13.693  35.399   0.336
14673W        W83047  33.054  20.571  13.412
14674W        W83048  28.102  42.008   4.186
14675W        W83049   1.456  36.918  13.002
14676W        W83050  22.527  22.137  12.368
14677W        W83051   7.737  28.041   9.635
14678W        W83052  41.829  13.620  13.888
14679W        W83053  37.858   7.906  10.478
14680W        W83054   4.928  43.332   3.372
14681W        W83055  40.026  19.043  11.451
14682W        W83056  24.715  15.664  11.991
14683W        W83057  42.990  21.607  13.940
14684W        W83058  42.414  21.189  14.877
14685W        W83059   3.891  43.961   1.795
14686W        W83060   3.284   8.743  11.988
14687W        W83061  43.356  13.185   1.334
14688W        W83062  14.797   4.327  14.023
14689W        W83063  10.214   8.795  13.056
14690W        W83064  19.100  33.564   3.207
14691W        W83065   2.236  25.988   1.724
14692W        W83066  22.059  16.571  11.084
14693W        W83067   8.275  15.195  12.828
14694W        W83068  28.071  39.428   3.286
14695W        W83069   6.722  43.308   0.255
14696W        W83070  17.268   7.720  12.436
14697W        W83071  19.089  25.595   3.727
14698W        W83072  18.140  38.936   0.868
14699W        W83073   2.877  10.361  12.954
14700W        W83074  44.926   9.279  10.930
14701W        W83075   0.948  15.300   1.887
14702W        W83076   2.945  23.521  14.429
14703W        W83077   8.726  17.133   2.688
14704W        W83078  35.525  28.955  14.282
14705W        W83079  21.084   3.920   4.334
14706W        W83080  18.545  39.422   2.738
14707W        W83081  41.909  34.893  11.431
14708W        W83082  31.603  12.851  10.438
14709W        W83083  19.140  43.481   2.696
14710W        W83084  19.125  28.945  12.084
14711W        W83085  22.069  43.982  12.460
14712W        W83086   2.427   2.909  12.405
14713W        W83087   5.847   8.322  11.490
14714W        W83088  26.169  11.756  12.429
14715W        W83089  42.371  38.451  12.532
14716W        W83090  44.459   8.798  11.878
14717W        W83091   9.711  20.682   9.930
14718W        W83092  18.244  30.960  11.376
14719W        W83093  24.075   3.720   0.758
14720W        W83094  39.487  38.543   0.325
14721W        W83095   6.271   2.421  10.645
14722W        W83096   1.361  42.955  12.077
14723W        W83097  27.674  26.586   1.277
14724W        W83098  13.831  29.650  10.493
14725W        W83099  26.048  35.960  13.352
14726W        W83100  29.074  20.031   0.460
14727W        W83101  42.438   2.470   4.598
14728W        W83102   3.296  10.340   3.241
14729W        W83103  14.606  28.446  13.891
14730W        W83104  44.955  20.251  13.055
14731W        W83105  13.163  41.531   3.708
14732W        W83106  29.950  33.924   1.881
14733W        W83107  43.280  37.837  10.577
14734W        W83108   1.367  38.872   3.240
14735W        W83109  18.236  41.018  13.485
14736W        W83110   8.792  21.565   0.335
14737W        W83111  36.508   2.413  14.388
14738W        W83112  25.060  16.285   2.300
14739W        W83113   5.346  18.735   2.887
14740W        W83114  12.796  18.284   1.733
14741W        W83115  35.878  38.951   0.822
14742W        W83116   8.849  43.839   2.249
14743W        W83117   4.450   9.333   1.326
14744W        W83118  33.990   4.803   1.855
14745W        W83119  39.488  22.658   9.975
14746W        W83120  26.204   2.860  10.405
14747W        W83121  33.431  41.000  10.635
14748W        W83122  36.943  39.004   3.386
14749W        W83123  43.846  28.632   2.822
14750W        W83124  34.600  44.333  13.044
14751W        W83125  40.019  13.706  14.368
14752W        W83126  21.085  21.060   2.827
14753W        W83127  25.610  17.240  11.455
14754W        W83128  37.874   0.789   2.186
14755W        W83129   4.711  21.645   1.829
14756W        W83130   8.399  19.626   2.863
14757W        W83131   7.793   9.785  13.416
14758W        W83132  15.797  30.623  12.087
14759W        W83133   0.462  29.025   3.174
14760W        W83134  27.055   3.292   9.989
14761W        W83135  33.957  19.710  11.092
14762W        W83136  30.074   0.381   2.677
14763W        W83137  22.131  28.966   4.828
14764W        W83138  35.951  16.702  10.982
14765W        W83139   0.928  24.188  10.479
14766W        W83140   1.749  43.011  10.545
14767W        W83141   8.404  22.179  10.472
14768W        W83142  34.931  32.416   0.330
14769W        W83143  12.769  36.350  13.903
14770W        W83144   0.746   4.322   3.672
14771W        W83145  28.620  43.402   9.927
14772W        W83146  21.654   8.232   3.822
14773W        W83147  42.004   4.417   3.844
14774W        W83148  11.365  31.608   0.966
14775W        W83149  39.457  26.512   0.781
14776W        W83150  34.504  36.095   3.166
14777W        W83151  12.270   5.437  10.620
14778W        W83152  30.013  25.695  12.841
14779W        W83153   2.747  26.004  14.882
14780W        W83154   8.246  44.978   0.967
14781W        W83155  26.046  13.614  12.448
14782W        W83156  43.331  11.642  13.317
14783W        W83157   7.355  29.609   5.239
14784W        W83158  17.256  15.140  10.533
14785W        W83159  12.187   0.932   4.350
14786W        W83160  38.329  14.171  12.398
14787W        W83161   9.316   9.275  10.569
14788W        W83162  21.615  37.081  14.497
14789W        W83163  44.928  16.176  13.853
14790W        W83164  38.425  32.058  10.895
14791W        W83165  32.619  24.637  13.430
14792W        W83166  35.437  39.327   3.358
14793W        W83167  40.995  33.589  12.011
14794W        W83168   3.286  35.372  12.831
14795W        W83169  35.001  30.082   4.658
14796W        W83170  11.154   4.915   4.113
14797W        W83171  35.459  40.512  12.969
14798W        W83172  16.159   8.299  10.098
14799W        W83173   0.832   1.803  13.910
14800W        W83174  44.883  28.592  11.967
14801W        W83175  43.513  16.249  10.460
14802W        W83176  38.028   7.677   0.767
14803W        W83177  22.668  34.380  13.946
14804W        W83178  44.282  42.984  10.404
14805W        W83179  36.363  20.754   2.727
14806W        W83180   3.834  17.247   1.891
14807W        W83181   7.794   2.466   3.811
14808W        W83182  20.715  37.380   1.755
14809W        W83183   8.763  26.980   1.334
14810W        W83184   2.454  19.671   1.721
14811W        W83185  24.582  35.013   4.779
14812W        W83186  20.203  29.962  13.399
14813W        W83187   1.481   1.783  11.033
14814W        W83188   4.280  21.066  10.422
14815W        W83189  11.682  44.007   4.815
14816W        W83190  34.039  24.094   1.438
14817W        W83191  33.565  39.529   3.221
14818W        W83192   1.360  43.999   0.458
14819W        W83193   1.396  44.487  12.036
14820W        W83194  17.194  26.093  13.502
14821W        W83195  20.242  37.354   3.348
14822W        W83196  23.732  25.631  12.469
14823W        W83197  26.586  14.777   3.700
14824W        W83198   9.699  26.477  14.318
14825W        W83199   6.289  38.018   1.921
14826W        W83200  11.717   5.870   3.724
14827W        W83201  23.656  22.504   2.204
14828W        W83202  31.606  38.343  11.566
14829W        W83203  36.845  16.646   0.451
14830W        W83204  32.104  23.734  14.398
14831W        W83205  25.056  26.677  10.993
14832W        W83206  19.609   0.968  14.324
14833W        W83207  37.073  15.692   2.846
14834W        W83208  41.035  35.401   2.793
14835W        W83209  27.051  33.900   2.395
14836W        W83210  32.634  34.892  10.997
14837W        W83211  37.536  18.545   3.352
14838W        W83212  39.394  24.104   4.637
14839W        W83213  15.609  18.561   1.379
14840W        W83214   5.432  17.166  11.017
14841W        W83215  42.505  44.323   3.716
14842W        W83216  17.639  15.314   4.299
14843W        W83217  15.697  35.445   4.215
14844W        W83218  16.134  34.010  12.970
14845W        W83219  44.350   3.270  13.458
14846W        W83220  41.430  31.521  14.809
14847W        W83221  37.058   6.253   0.857
14848W        W83222   5.205  37.990   1.404
14849W        W83223  19.095  17.724   3.682
14850W        W83224  10.301  15.122  12.890
14851W        W83225   6.727   1.441   4.224
14852W        W83226  12.805  36.956  10.526
14853W        W83227  44.327  16.299   0.376
14854W        W83228  10.840  41.358   3.687
14855W        W83229   7.876  10.372   4.297
14856W        W83230  41.495  38.856  12.349
14857W        W83231  32.117  35.899  11.537
14858W        W83232   0.884  28.159   2.259
14859W        W83233  42.884  19.085   0.337
14860W        W83234  17.563  40.891  11.908
14861W        W83235  14.672   1.421   4.198
14862W        W83236  19.558  13.635   4.271
14863W        W83237   9.305  17.270   4.207
14864W        W83238   8.258   1.440   4.180
14865W        W83239  19.153  17.166  11.957
14866W        W83240  36.452  37.400  10.028
14867W        W83241  44.971   1.243   4.660
14868W        W83242  27.458  11.731  13.394
14869W        W83243  17.235  30.659  14.942
14870W        W83244   1.736  23.085   0.897
14871W        W83245   0.438   2.912  12.467
14872W        W83246   8.373  26.960  13.417
14873W        W83247  28.043  25.996   2.386
14874W        W83248  27.952  38.400  10.459
14875W        W83249  10.306  10.178   4.225
14876W        W83250   6.308  19.724   1.726
14877W        W83251  18.055   3.885   4.271
14878W        W83252  23.734   8.265   2.742
14879W        W83253  34.535   4.440  13.913
14880W        W83254  35.565   0.867   0.948
14881W        W83255  37.909  12.314   4.319
14882W        W83256  39.842  16.579  12.942
14883W        W83257  31.999  16.156   4.780
14884W        W83258  13.726  22.209  13.948
14885W        W83259   0.830  35.382  13.885
14886W        W83260   3.319   1.823   4.262
14887W        W83261  33.455   2.402  10.978
14888W        W83262  39.981   4.319  12.999
14889W        W83263  19.247   7.225   0.866
14890W        W83264  23.626  12.769  13.854
14891W        W83265  20.201  35.554   4.733
14892W        W83266   9.851  29.437   3.155
14893W        W83267  44.438  43.785   1.360
14894W        W83268   9.857  41.971   3.320
14895W        W83269  11.654  37.850  14.832
14896W        W83270  34.497  27.058   3.853
14897W        W83271   8.719   8.831  14.320
14898W        W83272   9.156   1.788   0.910
14899W        W83273  38.825  31.552   9.990
14900W        W83274   0.460  11.684  12.947
14901W        W83275   8.390  33.596   0.873
14902W        W83276  25.134  24.643   0.890
14903W        W83277   1.392  43.336   0.289
14904W        W83278  40.547  12.692  13.794
14905W        W83279  34.496   2.945  12.838
14906W        W83280  18.107  20.103  14.896
14907W        W83281  15.786  38.998  11.512
14908W        W83282   0.250  12.238   1.922
14909W        W83283  28.071  32.492   1.307
14910W        W83284  24.705  37.428  13.528
14911W        W83285  35.089   6.683  10.442
14912W        W83286   9.806   9.731   1.900
14913W        W83287  37.509  37.027  11.382
14914W        W83288  14.259   6.359  12.548
14915W        W83289   1.765  40.959   4.636
14916W        W83290   1.360  34.868  10.417
14917W        W83291   6.322   8.716   3.716
14918W        W83292  12.658   5.378  13.906
14919W        W83293  28.029  15.681   1.437
14920W        W83294  30.620  37.988   2.697
14921W        W83295  17.703  29.490   1.853
14922W        W83296  30.159  37.906   0.400
14923W        W83297  27.946  16.749   2.340
14924W        W83298   8.406  37.955  13.926
14925W        W83299  21.677  28.480   0.842
14926W        W83300  28.437  18.621   4.653
14927W        W83301  13.351   1.904   3.756
14928W        W83302  19.646  28.050   3.769
14929W        W83303  19.773  41.364   1.776
14930W        W83304  31.416   3.375  13.392
14931W        W83305  19.755  37.053   0.735
14932W        W83306  14.759   2.832   2.765
14933W        W83307  13.733  15.720   4.224
14934W        W83308  22.223   5.763  14.763
14935W        W83309  25.633  20.215  10.511
14936W        W83310  12.720  21.124   0.766
14937W        W83311  18.283  17.076  14.986
14938W        W83312   7.257  30.493  14.918
14939W        W83313  29.075   6.215  14.482
14940W        W83314  17.783  13.802  11.008
14941W        W83315  39.039  24.719   4.173
14942W        W83316  34.500  10.222  12.412
14943W        W83317  22.633  18.660   1.263
14944W        W83318  28.149   2.345  12.950
14945W        W83319  13.138  38.545  12.896
14946W        W83320  29.556  44.828  11.391
14947W        W83321  10.634   2.772   4.173
14948W        W83322  38.432  20.728  14.877
14949W        W83323  32.143  42.864   5.170
14950W        W83324   0.282  40.798  14.323
14951W        W83325  23.714  12.333  11.081
14952W        W83326  28.095  39.479   5.317
14953W        W83327  32.039  28.488  12.920
14954W        W83328  30.964  26.987   4.610
14955W        W83329   4.445  25.200  13.517
14956W        W83330  15.586   6.728   3.290
14957W        W83331  21.752   8.325  13.804
14958W        W83332  11.806  11.267   4.195
14959W        W83333   2.273  40.339  10.445
14960W        W83334  40.497  40.450  12.504
14961W        W83335  40.001  17.572  11.044
14962W        W83336  17.794  43.965   2.701
14963W        W83337  16.658  31.544   2.777
14964W        W83338  44.908  33.619  10.031
14965W        W83339  28.955  43.331   3.275
14966W        W83340   4.839   8.208  14.840
14967W        W83341  13.128   2.307  12.865
14968W        W83342  12.301  27.467   4.294
14969W        W83343   1.470  10.188   4.173
14970W        W83344  39.358  13.791  10.415
14971W        W83345   9.172  12.267  12.027
14972W        W83346  17.303   4.262   0.792
14973W        W83347  44.860  27.460  11.973
14974W        W83348  20.225  33.948   0.796
14975W        W83349  25.110  11.317  11.547
14976W        W83350  17.572  18.665  10.546
14977W        W83351  21.168  18.586   4.293
14978W        W83352  24.165  22.096   4.142
14979W        W83353   5.728   5.727  12.365
14980W        W83354   3.446   3.348  14.854
14981W        W83355   9.647   3.332  14.331
14982W        W83356  25.578  26.495  11.058
14983W        W83357  44.411  10.353   1.295
14984W        W83358  18.276  17.113  11.125
14985W        W83359  22.021  12.823  10.964
14986W        W83360  31.475  39.422   1.423
14987W        W83361   0.420  36.522   2.314
14988W        W83362  21.515   9.733  12.388
14989W        W83363  35.524  36.403   3.255
14990W        W83364  20.047  26.656   5.322
14991W        W83365  31.956  12.294   2.221
14992W        W83366  11.712   3.793  14.404
14993W        W83367  21.723  10.361  12.386
14994W        W83368  32.553  34.069  12.880
14995W        W83369  13.651   9.769  10.525
14996W        W83370  17.125  30.453   4.294
14997W        W83371  26.630  35.028   0.484
14998W        W83372  33.563  14.632  11.972
14999W        W83373  25.576  40.547  13.362
15000W        W83374   2.842  26.105   2.810
15001W        W83375  26.099  40.354  12.009
15002W        W83376   5.909  26.969   4.116
15003W        W83377  24.563   6.338   3.799
15004W        W83378  26.975  27.500  10.519
15005W        W83379  44.885  31.435   2.732
15006W        W83380  16.295  27.597   0.905
15007W        W83381  27.042  26.139   1.403
15008W        W83382   1.927  20.639   1.250
15009W        W83383  20.059  28.532   4.690
15010W        W83384  41.039  14.777   0.278
15011W        W83385  28.009   7.212   5.104
15012W        W83386  38.896  23.571  10.034
15013W        W83387   8.253   7.256   1.869
15014W        W83388  33.957   6.363   3.793
15015W        W83389  26.533  42.836  11.916
15016W        W83390  10.143  26.063   0.252
15017W        W83391  22.231   0.375  13.509
15018W        W83392  12.819   5.411   0.462
15019W        W83393  11.684  31.931  12.358
15020W        W83394  36.889  20.728   1.881
15021W        W83395   7.384  29.477   0.326
15022W        W83396  19.777  37.360   1.892
15023W        W83397  32.937  31.602   1.390
15024W        W83398   4.778  33.503  11.569
15025W        W83399  38.368  40.486   0.794
15026W        W83400  42.839  35.437   3.679
15027W        W83401  27.029   7.175   5.118
15028W        W83402  42.937  19.216  13.907
15029W        W83403  17.653  22.737  11.899
15030W        W83404   4.756  31.612   9.972
15031W        W83405  19.706  22.205   0.884
15032W        W83406  33.071  40.356   3.324
15033W        W83407  21.246   5.819   0.335
15034W        W83408  34.551  29.668  13.310
15035W        W83409  10.172   5.307   2.896
15036W        W83410  10.296  18.666  13.936
15037W        W83411  39.827  13.311   0.450
15038W        W83412  32.083  22.557  10.412
15039W        W83413   1.959  37.943   4.663
15040W        W83414  13.211  12.833   0.437
15041W        W83415   0.905  15.713  10.055
15042W        W83416  29.143  25.469  13.843
15043W        W83417   0.490   6.819   1.902
15044W        W83418   9.384  36.079   1.294
15045W        W83419   2.826   1.347  13.547
15046W        W83420  33.041  13.768   3.344
15047W        W83421  44.847  15.673   3.307
15048W        W83422   0.846  36.078   3.192
15049W        W83423  42.280  26.014   2.204
15050W        W83424   3.734   6.743   4.294
15051W        W83425  19.608  32.412  13.967
15052W        W83426  18.650   8.838   3.864
15053W        W83427  40.401  25.696  13.375
15054W        W83428  21.226   9.810   3.160
15055W        W83429  10.200  28.174  13.054
15056W        W83430  20.274  18.065  12.963
15057W        W83431  25.624  28.159  10.634
15058W        W83432  42.872  25.994   2.287
15059W        W83433   0.898  36.461  10.456
15060W        W83434  15.115  13.222  13.017
15061W        W83435  43.923  12.757   0.835
15062W        W83436  35.385  26.632   0.777
15063W        W83437  21.056  30.036   3.171
15064W        W83438  11.346  37.996  13.533
15065W        W83439  42.973  29.945   1.807
15066W        W83440  35.395  24.224  14.997
15067W        W83441   2.456  35.999   0.407
15068W        W83442   8.690  34.554  11.407
15069W        W83443  10.253  34.084  10.491
15070W        W83444  14.290   6.800  12.937
15071W        W83445   5.248  39.411  12.437
15072W        W83446  34.512   5.859  10.951
15073W        W83447  25.144  24.224  13.839
15074W        W83448   1.873  40.877   1.359
15075W        W83449  15.264  39.958  13.055
15076W        W83450  13.235   9.883  11.054
15077W        W83451  16.591  41.356  10.899
15078W        W83452  41.040  34.387  13.374
15079W        W83453  22.747   1.949   3.724
15080W        W83454  12.356   1.463  11.544
15081W        W83455  25.053  31.469   2.213
15082W        W83456   0.252  44.981  14.979
15083W        W83457  20.082  35.992   5.302
15084W        W83458  35.971  39.955  14.345
15085W        W83459  43.918   6.371   1.213
15086W        W83460  35.090  23.629   3.727
15087W        W83461  18.782  12.753  13.985
15088W        W83462   6.246  36.879  14.283
15089W        W83463  39.316  37.430  10.581
15090W        W83464  18.129   2.738   4.697
15091W        W83465  18.272  17.683   3.841
15092W        W83466  12.714  36.534  10.456
15093W        W83467  18.721  13.305  14.440
15094W        W83468   9.814  44.980  11.582
15095W        W83469   5.925   8.299   3.288
15096W        W83470  16.132  10.847   3.741
15097W        W83471  22.705  34.550   1.400
15098W        W83472  32.908  27.154   4.354
15099W        W83473  41.356  10.867  10.587
15100W        W83474  19.756  15.142  12.872
15101W        W83475  10.159  15.083  13.364
15102W        W83476   0.457   4.251   3.728
15103W        W83477  34.875  23.127   4.323
15104W        W83478  20.617   4.899  12.567
15105W        W83479  39.539  13.738   1.420
15106W        W83480   1.879   6.225  12.538
15107W        W83481  20.142  16.159  12.847
15108W        W83482  27.636  32.123   2.869
15109W        W83483  43.296  29.483  13.355
15110W        W83484  20.227  13.130   0.762
15111W        W83485  16.682   0.469  13.467
15112W        W83486  21.564   5.817  11.045
15113W        W83487  13.166  18.055   3.829
15114W        W83488  29.615  13.246   3.341
15115W        W83489  40.804   6.820   3.803
15116W        W83490  27.106  41.410  13.432
15117W        W83491  23.652  16.147   4.758
15118W        W83492  42.366  10.690  12.402
15119W        W83493  23.079  40.977  14.438
15120W        W83494  38.371  12.311  14.974
15121W        W83495  13.758   8.745   2.743
15122W        W83496  29.639   2.823  11.447
15123W        W83497   0.778  18.638  12.997
15124W        W83498   7.820  19.158   0.779
15125W        W83499  38.522   9.798  10.531
15126W        W83500  18.702  33.552  12.471
15127W        W83501  41.992  26.098  11.022
15128W        W83502   3.263  43.830  11.506
15129W        W83503  39.883  32.596   0.753
15130W        W83504  26.056   3.230  12.514
15131W        W83505  12.812  44.376   3.353
15132W        W83506   6.770  31.121   0.944
15133W        W83507  40.817  11.844  12.836
15134W        W83508  13.169  39.990   1.823
15135W        W83509  33.488  18.726   0.903
15136W        W83510   2.440  31.026   4.650
15137W        W83511  23.163  10.767  11.058
15138W        W83512  41.351  34.013   1.438
15139W        W83513  31.534  17.598  14.315
15140W        W83514  14.824  31.626  14.007
15141W        W83515  19.261  16.162   2.861
15142W        W83516  24.053  22.167  11.497
15143W        W83517  15.261  12.220   4.748
15144W        W83518  31.525  24.092  10.921
15145W        W83519  13.271  24.152   0.326
15146W        W83520  44.860  31.915   2.783
15147W        W83521  23.564  16.679  13.906
15148W        W83522  34.504  41.869  13.025
15149W        W83523  44.794  41.990  14.821
15150W        W83524  18.215   6.831  10.973
15151W        W83525  15.795  16.166   4.299
15152W        W83526   7.368  12.792   1.398
15153W        W83527  26.694  24.521   5.301
15154W        W83528  14.716   5.843  11.045
15155W        W83529  26.640  18.070  11.562
15156W        W83530  30.654   8.226  10.902
15157W        W83531  38.512  16.639   4.729
15158W        W83532  25.195  25.999  14.962
15159W        W83533  36.946  17.639   4.327
15160W        W83534   4.278  27.652  13.373
15161W        W83535  29.492  42.974  14.406
15162W        W83536  25.176  35.465   1.908
15163W        W83537  17.673  34.511   0.898
15164W        W83538  20.526  18.725  12.501
15165W        W83539  30.492   7.737  13.486
15166W        W83540  19.770  25.028   1.805
15167W        W83541  41.390   9.255   0.302
15168W        W83542  38.535  14.140  13.913
15169W        W83543   7.704  15.772   1.418
15170W        W83544   1.731  37.562  11.570
15171W        W83545  21.053   5.228   3.201
15172W        W83546  12.688   8.877   1.775
15173W        W83547  43.786  31.573   4.233
15174W        W83548  34.514   7.267  12.861
15175W        W83549  11.196  19.766  11.430
15176W        W83550  31.536  38.515  10.414
15177W        W83551  25.656  30.912  14.466
15178W        W83552  23.491  38.328  10.039
15179W        W83553   7.413  40.455   0.775
15180W        W83554  39.001  27.655   1.216
15181W        W83555  44.452  44.979   3.864
15182W        W83556   8.693  28.085   4.822
15183W        W83557  19.624  13.655   2.775
15184W        W83558  14.772   1.937   2.305
15185W        W83559   2.845   6.859  14.868
15186W        W83560  23.568  29.425   5.595
15187W        W83561  11.229  39.548   3.345
15188W        W83562  32.428  16.573  11.376
15189W        W83563  37.985  30.931  11.598
15190W        W83564  13.284  23.006  11.559
15191W        W83565  24.522  34.369  11.381
15192W        W83566   0.424  41.331   0.303
15193W        W83567  20.713   9.716  13.852
15194W        W83568  10.692  22.144  13.824
15195W        W83569  12.228  31.566   1.875
15196W        W83570  23.734   3.821   1.328
15197W        W83571  42.357  11.642   2.785
15198W        W83572  19.601  10.828  14.289
15199W        W83573   7.702  36.554   1.716
15200W        W83574  31.493   7.875   1.357
15201W        W83575  34.081   1.735   4.612
15202W        W83576   4.770  15.682   4.762
15203W        W83577  17.265  41.953   2.340
15204W        W83578  19.696   4.718   4.190
15205W        W83579   8.837   6.904   1.723
15206W        W83580  26.510  26.042   3.352
15207W        W83581  40.466  36.983   3.682
15208W        W83582  38.933  40.930  11.076
15209W        W83583  20.199   6.423  14.845
15210W        W83584  42.825  44.386   3.242
15211W        W83585   0.332  29.453  10.617
15212W        W83586   0.817  24.613  13.481
15213W        W83587  25.692  14.249  11.520
15214W        W83588  19.614  15.286   1.700
15215W        W83589   9.324  16.130  13.913
15216W        W83590  17.145  38.035   2.259
15217W        W83591  37.579  15.304   1.809
15218W        W83592  36.900  41.474   4.123
15219W        W83593  10.185  41.821  14.005
15220W        W83594  32.514  30.418  12.051
15221W        W83595  40.969  18.287   2.339
15222W        W83596  13.210  43.363   2.388
15223W        W83597  26.538  10.200  14.000
15224W        W83598  21.628  36.390  13.505
15225W        W83599  19.751  26.605   1.257
15226W        W83600   2.917   0.887  14.504
15227W        W83601  23.582  12.678  10.417
15228W        W83602   3.415  26.997  12.050
15229W        W83603  22.044  25.469   4.300
15230W        W83604  13.190  42.517   4.646
15231W        W83605   3.403  14.209   4.177
15232W        W83606  11.830   0.955   3.342
15233W        W83607  33.605  38.936   1.706
15234W        W83608  13.686   4.211  10.902
15235W        W83609  27.184  21.082   3.381
15236W        W83610   5.392  18.231  12.998
15237W        W83611   2.294  15.691   4.116
15238W        W83612  26.998  10.156  13.484
15239W        W83613  37.578   7.321   3.741
15240W        W83614  29.146   8.702   3.813
15241W        W83615  27.598   1.398  10.082
15242W        W83616  33.495  18.170   1.826
15243W        W83617  11.294  13.187  10.970
15244W        W83618  27.523  34.024   4.116
15245W        W83619   7.253  12.854  11.015
15246W        W83620   5.371  11.681  13.312
15247W        W83621   2.383   3.339  13.488
15248W        W83622  23.544  31.104   1.376
15249W        W83623  21.743   6.357   1.215
15250W        W83624   0.974  36.969   4.779
15251W        W83625  24.644  35.941   1.850
15252W        W83626   8.404  14.790   2.292
15253W        W83627  20.059  12.331   4.721
15254W        W83628  42.285  22.707   4.331
15255W        W83629  40.548  26.596   0.740
15256W        W83630   3.812   4.279  13.989
15257W        W83631  32.530  30.430   3.341
15258W        W83632  42.959  26.951  13.313
15259W        W83633  32.022  10.688   3.169
15260W        W83634  12.817  44.912  13.954
15261W        W83635  34.877   7.373  14.302
15262W        W83636   6.836  27.950  12.382
15263W        W83637   0.326  18.222   3.287
15264W        W83638   4.250  17.162  13.485
15265W        W83639   7.823   7.279   5.100
15266W        W83640  30.910  40.438   4.723
15267W        W83641  31.939  27.995   0.961
15268W        W83642  12.184  38.484   4.268
15269W        W83643  21.095  28.132  13.479
15270W        W83644  31.439  36.537  11.881
15271W        W83645  32.071  34.939  10.600
15272W        W83646  40.847  22.678   3.730
15273W        W83647  17.119  33.382  13.406
15274W        W83648   0.265  17.260   2.370
15275W        W83649  23.125  17.230  14.918
15276W        W83650  41.895  23.126  13.949
15277W        W83651  42.998  25.592   2.194
15278W        W83652  30.025  28.989   4.723
15279W        W83653  30.601  20.618   3.634
15280W        W83654  37.546  21.559  14.463
15281W        W83655   7.342  39.449   1.348
15282W        W83656  20.166  42.318   1.222
15283W        W83657   6.200  34.943  13.322
15284W        W83658   8.764   5.256   2.834
15285W        W83659   3.453   0.252   1.306
15286W        W83660  33.947  32.071   4.152
15287W        W83661  37.580  15.125  13.385
15288W        W83662  38.557  35.059   4.806
15289W        W83663  37.453  34.048   0.465
15290W        W83664  13.816  12.787   0.802
15291W        W83665  42.872  40.970   2.663
15292W        W83666   1.868  28.451  12.072
15293W        W83667  15.800   5.305   0.872
15294W        W83668   2.429  36.530   1.264
15295W        W83669  35.880  14.815  11.500
15296W        W83670  22.715   1.778  12.835
15297W        W83671  37.494   9.659   5.124
15298W        W83672   0.908  12.759  12.891
15299W        W83673  44.866  14.322  11.994
15300W        W83674  43.786  31.588  13.359
15301W        W83675  29.428  32.393   3.181
15302W        W83676  40.504   7.174  14.464
15303W        W83677  11.681   4.373  12.507
15304W        W83678  20.720  29.644  14.378
15305W        W83679  19.691  12.807   2.878
15306W        W83680  11.315  30.590   3.356
15307W        W83681   5.249  11.372  13.968
15308W        W83682   7.722  20.258  14.980
15309W        W83683   2.797  23.553  14.901
15310W        W83684   1.283  25.546   1.270
15311W        W83685  40.028  17.215   1.789
15312W        W83686  17.228  31.920   2.666
15313W        W83687  13.189  31.957  12.377
15314W        W83688  25.046  12.314   0.829
15315W        W83689   9.319  21.621   2.785
15316W        W83690  44.875  39.934   1.710
15317W        W83691  25.164  27.469   1.852
15318W        W83692  41.509  31.075   2.394
15319W        W83693  38.839  32.609   2.349
15320W        W83694  18.547  23.614   1.373
15321W        W83695   6.862  12.296  13.928
15322W        W83696  13.300  38.413  13.431
15323W        W83697   0.819  27.135  10.420
15324W        W83698   3.853   2.355  11.479
15325W        W83699  20.054   8.842   1.342
15326W        W83700  40.930  44.478   3.173
15327W        W83701  17.284  42.299  10.438
15328W        W83702   9.318  20.203   3.819
15329W        W83703  22.715   1.879   2.846
15330W        W83704  39.043  41.822   2.416
15331W        W83705  11.146  23.137   4.794
15332W        W83706  26.017  10.294   4.749
15333W        W83707  18.116  17.696  13.833
15334W        W83708  20.647  10.735   1.845
15335W        W83709  32.932  14.119   3.865
15336W        W83710  42.432  43.013  11.991
15337W        W83711   0.778  19.694  14.968
15338W        W83712   4.904  42.982   3.267
15339W        W83713  14.716  19.078   2.786
15340W        W83714   5.769  44.980  11.107
15341W        W83715  16.263  28.548   1.289
15342W        W83716  41.843  12.167   0.935
15343W        W83717  35.023   7.856   3.718
15344W        W83718  10.271  20.117   4.764
15345W        W83719  19.228  40.046   1.406
15346W        W83720  36.464  37.025   4.251
15347W        W83721  41.418  38.000   4.113
15348W        W83722   2.253  11.296   0.428
15349W        W83723  34.100  22.636   4.350
15350W        W83724   4.263  16.129  11.930
15351W        W83725   5.910  39.461  14.006
15352W        W83726   7.233  37.432   1.439
15353W        W83727  12.172  35.364  14.491
15354W        W83728  34.608  19.282   3.293
15355W        W83729  44.962  42.513  10.501
15356W        W83730  27.946  14.116  11.404
15357W        W83731  37.081  12.239   1.299
15358W        W83732  17.220  31.030  11.886
15359W        W83733  36.065   8.314   3.785
15360W        W83734  10.677   5.747   1.784
15361W        W83735   5.323  15.615  13.028
15362W        W83736  10.190  41.954   4.266
15363W        W83737   4.837  38.820   0.774
15364W        W83738  39.042  29.478   2.217
15365W        W83739  26.105  38.480  14.423
15366W        W83740   3.254   7.246  14.868
15367W        W83741  31.099  28.161   1.759
15368W        W83742  19.648  11.808   3.858
15369W        W83743  37.976  35.071  12.861
15370W        W83744  38.902  18.729  12.085
15371W        W83745  34.967  41.520   1.926
15372W        W83746  28.145  24.548   2.814
15373W        W83747  20.759  24.627  10.448
15374W        W83748  30.544  33.067  12.038
15375W        W83749   4.415  23.996  11.075
15376W        W83750  33.091  41.932   0.815
15377W        W83751  22.248  28.619  14.315
15378W        W83752  38.436  32.456  12.430
15379W        W83753  29.014  36.389   1.779
15380W        W83754  14.293  25.680  12.019
15381W        W83755   0.390  24.139  10.549
15382W        W83756  34.553  35.929   3.831
15383W        W83757  28.159  26.973   1.708
15384W        W83758  39.869   8.397   5.597
15385W        W83759  30.951   9.345   2.183
15386W        W83760  27.015   1.348  11.468
15387W        W83761  40.461  40.490   0.425
15388W        W83762  19.596   3.217   2.350
15389W        W83763  28.091   0.463   3.648
15390W        W83764   1.395  21.105   0.967
15391W        W83765  17.674  37.875   4.653
15392W        W83766  29.516  27.579   1.801
15393W        W83767  27.029  34.532   0.847
15394W        W83768  34.972   0.434   3.317
15395W        W83769  36.032  28.664  12.349
15396W        W83770  15.659  32.904   0.379
15397W        W83771   3.734  29.956  11.967
15398W        W83772   5.770  12.809  13.008
15399W        W83773   9.886  35.453  14.325
15400W        W83774  21.032  15.233  12.514
15401W        W83775   7.744  25.963   2.746
15402W        W83776  13.677  24.973   2.347
15403W        W83777  12.802   2.304  13.369
15404W        W83778  19.611  26.529   2.668
15405W        W83779  14.310  11.670   3.762
15406W        W83780  25.202  33.891  10.417
15407W        W83781  10.301  25.213  13.395
15408W        W83782   9.772  12.663  12.889
15409W        W83783  14.165   3.452  13.856
15410W        W83784   3.272  23.056  10.472
15411W        W83785  27.655  36.902  13.416
15412W        W83786  32.975   7.246  14.423
15413W        W83787  34.468  43.986  14.278
15414W        W83788  26.613  17.727  12.376
15415W        W83789  37.993  22.104   1.769
15416W        W83790  18.633  44.333  10.515
15417W        W83791  29.155   4.281   0.729
15418W        W83792  30.581   7.796  12.928
15419W        W83793  29.997  34.999  11.975
15420W        W83794  35.458  11.811  12.047
15421W        W83795  31.118  44.307  14.933
15422W        W83796  37.340  31.513   2.280
15423W        W83797   5.750  35.992   1.426
15424W        W83798  37.836  44.481  11.995
15425W        W83799  27.037   6.889   2.374
15426W        W83800   4.701  36.423   3.279
15427W        W83801   6.781  19.088  14.994
15428W        W83802  30.508  40.343  13.846
15429W        W83803  27.093  11.268  14.788
15430W        W83804  17.783  40.941   0.294
15431W        W83805  28.156  17.276  14.768
15432W        W83806  35.390  41.837  11.550
15433W        W83807  31.543  30.528  11.026
15434W        W83808  25.170  11.734  11.893
15435W        W83809  33.571  25.512   2.789
15436W        W83810  29.551  17.139   3.685
15437W        W83811  32.405  28.068   1.810
15438W        W83812  12.698   9.704   3.263
15439W        W83813  16.256  30.647   1.214
15440W        W83814   3.421  18.629  14.427
15441W        W83815  29.454  30.082   2.808
15442W        W83816  40.331  16.148  11.106
15443W        W83817  12.755  38.383   0.900
15444W        W83818   8.359   7.229  13.829
15445W        W83819  20.592  31.514  13.895
15446W        W83820   7.355  24.665   1.358
15447W        W83821  18.154  26.658   2.346
15448W        W83822   9.670  22.186   1.726
15449W        W83823   1.845  24.129  11.444
15450W        W83824  40.540  41.366   2.781
15451W        W83825   5.850  10.252  14.805
15452W        W83826  16.164  27.127  11.530
15453W        W83827  32.524  39.849  10.970
15454W        W83828  35.520  11.310   3.352
15455W        W83829  39.457  18.759   1.220
15456W        W83830  11.725  34.465  11.490
15457W        W83831  13.631  13.194   4.737
15458W        W83832  40.310   9.334   2.187
15459W        W83833  32.121  24.150   0.411
15460W        W83834  17.733   2.807   3.199
15461W        W83835  16.642  16.719   0.483
15462W        W83836  11.298  14.176   0.935
15463W        W83837   0.345  31.437  14.406
15464W        W83838  13.244  40.897   1.415
15465W        W83839  12.738   8.781  14.364
15466W        W83840  35.913   7.675   9.989
15467W        W83841  18.086   2.822   0.324
15468W        W83842   4.311  35.517  10.425
15469W        W83843  18.180  11.735   4.652
15470W        W83844  27.545   2.383   1.778
15471W        W83845  19.723  29.137  11.873
15472W        W83846  26.574  23.683   1.818
15473W        W83847  41.420  12.241   3.163
15474W        W83848  32.991  26.700   1.381
15475W        W83849  33.459  26.121  14.877
15476W        W83850  10.233  25.062   0.918
15477W        W83851  38.989  13.606   4.287
15478W        W83852  25.472  43.410   1.868
15479W        W83853  12.322  16.733   3.212
15480W        W83854  15.801  29.939   3.277
15481W        W83855  40.324  19.718   9.937
15482W        W83856  34.585  21.645  13.828
15483W        W83857  37.965  18.720  12.958
15484W        W83858  14.773  42.396  14.795
15485W        W83859  15.203  42.448   1.323
15486W        W83860  26.475  42.450  13.968
15487W        W83861  18.222   7.188  13.366
15488W        W83862  38.954  12.198   4.143
15489W        W83863  33.604  37.084  14.853
15490W        W83864  23.537  41.469  14.511
15491W        W83865  28.177   0.775   0.739
15492W        W83866  22.196  13.227  11.427
15493W        W83867  27.471  37.876   2.714
15494W        W83868  19.162  39.515   1.292
15495W        W83869  42.441  28.498   2.866
15496W        W83870  16.140  33.469   3.789
15497W        W83871  23.172  32.459  13.818
15498W        W83872   1.734  40.338  11.865
15499W        W83873  25.132  38.531  14.306
15500W        W83874   6.752   5.257  11.099
15501W        W83875  18.547  18.653   0.451
15502W        W83876  41.406  10.789   4.697
15503W        W83877  40.933  37.990  13.466
15504W        W83878   9.855  34.426   1.932
15505W        W83879  33.883  24.491   2.878
15506W        W83880  36.022  36.092   2.751
15507W        W83881  21.531  41.412  12.568
15508W        W83882  24.209   6.356   1.275
15509W        W83883  11.670  33.011  14.406
15510W        W83884  16.605  37.943  11.597
15511W        W83885   8.828  30.590  11.855
15512W        W83886  10.308  14.172  10.089
15513W        W83887   1.862  36.384  11.558
15514W        W83888  21.590  38.535   2.722
15515W        W83889   5.754  24.697   1.703
15516W        W83890  33.116  34.972   0.902
15517W        W83891  42.829  21.577   2.724
15518W        W83892  15.273  25.144  11.974
15519W        W83893  15.586  35.048  12.502
15520W        W83894  17.606  24.523  13.954
15521W        W83895  13.684  34.094  11.434
15522W        W83896  39.030  14.687   2.344
15523W        W83897  21.049  37.462   3.148
15524W        W83898  24.645  39.809   4.173
15525W        W83899  12.289   1.356  11.020
15526W        W83900  24.987  16.136  13.814
15527W        W83901  37.945  21.622   2.854
15528W        W83902  18.554   2.391   4.826
15529W        W83903  42.317  15.663  11.085
15530W        W83904   8.876  12.732  14.884
15531W        W83905  15.807  25.610   4.354
15532W        W83906  43.295  20.070  10.549
15533W        W83907  29.950  16.097   4.700
15534W        W83908   7.679  27.551   3.357
15535W        W83909  26.457  21.559  13.386
15536W        W83910  31.467  22.593  12.567
15537W        W83911  25.191   5.904   0.336
15538W        W83912  36.848  22.665   2.748
15539W        W83913   5.788   6.277   4.700
15540W        W83914  27.538  19.592   3.262
15541W        W83915   2.875  42.823  13.484
15542W        W83916   1.766   0.488   4.289
15543W        W83917  12.262  22.520  12.377
15544W        W83918  19.061  29.569  11.940
15545W        W83919  21.092  26.601   1.711
15546W        W83920  43.322  25.051   2.344
15547W        W83921  17.778  36.376  11.871
15548W        W83922  30.156  10.767  11.473
15549W        W83923  13.648  24.505   1.705
15550W        W83924  35.965  18.201  12.035
15551W        W83925  29.571  40.917   4.609
15552W        W83926  23.694   2.316   2.669
15553W        W83927   8.160  10.304  12.498
15554W        W83928   5.895  19.560  12.487
15555W        W83929  17.148  41.987  14.447
15556W        W83930  34.388  27.458   1.694
15557W        W83931  28.980  28.588   1.272
15558W        W83932  44.456   2.890  10.902
15559W        W83933  43.907  11.738  12.455
15560W        W83934  26.529   8.260  11.950
15561W        W83935  41.807  44.900   2.693
15562W        W83936  41.322  39.021   0.843
15563W        W83937  11.848  28.169  12.008
15564W        W83938  11.173  14.213  14.378
15565W        W83939  36.900   5.808  13.023
15566W        W83940  25.656   3.829  10.413
15567W        W83941  41.403  26.458  14.992
15568W        W83942  25.087  25.979   4.261
15569W        W83943  23.173  25.691   2.198
15570W        W83944  12.846  43.842   4.681
15571W        W83945  35.361   9.757  12.441
15572W        W83946   5.381  42.477  11.529
15573W        W83947  27.072  30.912  13.507
15574W        W83948  40.946  29.010   1.842
15575W        W83949  20.054  19.537   0.394
15576W        W83950  40.050  10.247  11.913
15577W        W83951   3.385  40.965   1.905
15578W        W83952   7.203  33.887  13.797
15579W        W83953  30.582  13.150  14.829
15580W        W83954  26.184  17.235   2.234
15581W        W83955  39.373  13.291  14.448
15582W        W83956  25.024  24.594   4.682
15583W        W83957  16.096  10.178   1.404
15584W        W83958  44.849  20.734  13.900
15585W        W83959   1.405  26.623  11.081
15586W        W83960  14.323  17.792  12.526
15587W        W83961  10.639   8.331  11.899
15588W        W83962   3.311  17.198   1.753
15589W        W83963  33.438  18.069   0.861
15590W        W83964  30.617   2.251  11.976
15591W        W83965  29.608  26.486  10.048
15592W        W83966   5.309   0.443   4.331
15593W        W83967  14.254  12.623  12.512
15594W        W83968  30.564  33.125  14.980
15595W        W83969  16.138  41.943   1.325
15596W        W83970  21.221   0.321  11.429
15597W        W83971  35.511   1.736  11.009
15598W        W83972   9.880  11.697  10.570
15599W        W83973  10.842  18.209   0.901
15600W        W83974  12.180  19.230  11.521
15601W        W83975  10.755  30.544   3.863
15602W        W83976   7.196  24.192   5.181
15603W        W83977   6.371  12.814  10.024
15604W        W83978   3.854  12.187   2.406
15605W        W83979  37.475  21.213   2.782
15606W        W83980  42.456  14.236  11.918
15607W        W83981  31.628   7.353  11.463
15608W        W83982  44.284  22.235  10.633
15609W        W83983   5.900  41.323   0.346
15610W        W83984  41.880   4.764   9.975
15611W        W83985  41.810  15.764   4.129
15612W        W83986  44.783  17.642  12.413
15613W        W83987  37.027   9.724  12.559
15614W        W83988  21.171  39.936   9.666
15615W        W83989  44.363  29.651  13.025
15616W        W83990   7.892  20.055  13.800
15617W        W83991   6.368  43.276   4.774
15618W        W83992   4.911  40.026  11.014
15619W        W83993  35.989  41.400  12.923
15620W        W83994   7.719  15.822  11.986
15621W        W83995  23.140   3.370  11.422
15622W        W83996  25.009  33.973   2.683
15623W        W83997  29.569   3.417  10.947
15624W        W83998  41.307  39.448   1.771
15625W        W83999  13.740   2.936   4.139
15626W        W84000  25.143  11.363   3.325
15627W        W84001  33.879   9.654  13.032
15628W        W84002  43.278  23.210   1.839
15629W        W84003  32.423  22.114  13.509
15630W        W84004   3.229  19.731   2.242
15631W        W84005   8.328  38.870   1.287
15632W        W84006  17.148   0.346  12.427
15633W        W84007  34.538  35.901   4.145
15634W        W84008   3.238  21.650  11.973
15635W        W84009  18.785  36.488  13.931
15636W        W84010  12.731  17.748   2.704
15637W        W84011  43.991  16.222  11.006
15638W        W84012  31.972  17.121   0.730
15639W        W84013   9.265  37.499   5.178
15640W        W84014  38.009  13.271  10.600
15641W        W84015   3.219  11.133   3.633
15642W        W84016  28.034   2.794  10.140
15643W        W84017  30.591  20.121  14.462
15644W        W84018   7.346  20.713   0.379
15645W        W84019  22.724   7.388   4.133
15646W        W84020   9.369  14.138  11.910
15647W        W84021  38.945   4.432  10.517
15648W        W84022   6.185   6.278   3.711
15649W        W84023  28.961  15.132   1.727
15650W        W84024   2.336   2.351  11.524
15651W        W84025  40.479  15.725   3.177
15652W        W84026   6.850  14.693  10.427
15653W        W84027  44.284   1.443   2.322
15654W        W84028  15.123  16.109  11.040
15655W        W84029  34.389  22.579  11.574
15656W        W84030  11.316  14.793   0.731
15657W        W84031  35.551  19.268   3.239
15658W        W84032   1.279  22.106  13.404
15659W        W84033  33.594   1.791  13.936
15660W        W84034  25.499  32.424   4.630
15661W        W84035   8.865  17.796   5.312
15662W        W84036  38.962   7.345  13.358
15663W        W84037  36.845  30.575  12.560
15664W        W84038  31.453   2.744   3.785
15665W        W84039  27.113  12.722   4.134
15666W        W84040   6.420  20.270  13.027
15667W        W84041  18.051  24.182  13.883
15668W        W84042  11.677  13.323  14.916
15669W        W84043  30.023  12.671   4.263
15670W        W84044  42.472  36.441   3.378
15671W        W84045  25.051   4.345  14.900
15672W        W84046   4.732  38.886  10.953
15673W        W84047  19.689  42.972   4.212
15674W        W84048  10.175   7.398  10.079
15675W        W84049   3.788  19.204  10.581
15676W        W84050  17.754   8.729   0.386
15677W        W84051  10.230  35.080   3.204
15678W        W84052  26.550   6.848  14.379
15679W        W84053   6.332  40.333   1.865
15680W        W84054  24.139  36.495   4.321
15681W        W84055   3.793  42.849   4.323
15682W        W84056  37.455  12.770   2.672
15683W        W84057  16.098  20.099   4.800
15684W        W84058  37.923  42.995  10.896
15685W        W84059  40.389  16.747   3.327
15686W        W84060  20.746  12.323  11.445
15687W        W84061   2.226  22.540   4.797
15688W        W84062   4.845   8.755   2.759
15689W        W84063  16.137   4.734  11.901
15690W        W84064  16.786  33.444   0.323
15691W        W84065  29.539  37.348   3.858
15692W        W84066   7.861   2.381  11.090
15693W        W84067   7.235  20.039   0.941
15694W        W84068  35.445  26.612  13.839
15695W        W84069  27.975  38.494  11.954
15696W        W84070   7.815  42.865   4.763
15697W        W84071   3.246  22.079   2.835
15698W        W84072  22.046  10.812   1.251
15699W        W84073  28.138   1.776   3.813
15700W        W84074   7.700  15.134  10.431
15701W        W84075   8.784  11.675  13.509
15702W        W84076   9.166  23.718  11.416
15703W        W84077   0.788  12.691   4.296
15704W        W84078  32.132   0.871   0.281
15705W        W84079  10.245   7.384   0.273
15706W        W84080  42.494  33.460   3.380
15707W        W84081  35.437   2.878   0.322
15708W        W84082  24.485  23.080   2.813
15709W        W84083  35.486  24.553  12.490
15710W        W84084  29.064   7.790  13.857
15711W        W84085   8.698  31.435  14.500
15712W        W84086  10.643  19.561   2.743
15713W        W84087  15.086  44.768  13.895
15714W        W84088  38.844  44.914   4.254
15715W        W84089   6.396  22.639   3.635
15716W        W84090  14.172  27.664  11.044
15717W        W84091  28.940  43.866  13.825
15718W        W84092  43.954  31.048  12.350
15719W        W84093  21.625   0.977  12.948
15720W        W84094  37.924  21.046  14.364
15721W        W84095   4.208  14.316  12.342
15722W        W84096  17.179  13.703   3.661
15723W        W84097   1.910  36.590  12.021
15724W        W84098  40.424  32.497   1.412
15725W        W84099  31.043   0.849  13.423
15726W        W84100   7.274   0.375   2.280
15727W        W84101  17.561  41.857   4.652
15728W        W84102  30.638   0.480  14.291
15729W        W84103  28.035  43.425  12.829
15730W        W84104   8.784   8.322   2.844
15731W        W84105  27.671  26.619   3.267
15732W        W84106  17.294   3.447  11.374
15733W        W84107  36.917  21.119  10.484
15734W        W84108  29.921  25.653   2.750
15735W        W84109  43.813  22.009  13.975
15736W        W84110  28.141  44.880   0.779
15737W        W84111   5.355  18.594   0.291
15738W        W84112  39.474  28.482  12.089
15739W        W84113  21.142   4.891   0.829
15740W        W84114  14.727  28.135   9.997
15741W        W84115  18.297   9.854   1.293
15742W        W84116  34.972   5.793   4.150
15743W        W84117  29.119  35.568   4.257
15744W        W84118  27.182   9.644   1.754
15745W        W84119   8.873   4.882  13.036
15746W        W84120   8.259  13.763  11.975
15747W        W84121  10.358  36.441  14.865
15748W        W84122  39.934  25.685   1.757
15749W        W84123  43.294  24.560   0.443
15750W        W84124  21.557  12.811   2.215
15751W        W84125   6.810  36.874  13.026
15752W        W84126   3.813  23.068  13.894
15753W        W84127   4.808  16.256  11.544
15754W        W84128   2.917  40.012   0.462
15755W        W84129  34.947  31.899   3.149
15756W        W84130  43.800  26.459   4.795
15757W        W84131  20.230   8.369  12.362
15758W        W84132  31.972  15.094  12.851
15759W        W84133   3.276  39.014   4.811
15760W        W84134  28.030  38.362  14.839
15761W        W84135  17.781  41.032   1.702
15762W        W84136  28.513  29.429  11.978
15763W        W84137  23.542  12.833  13.464
15764W        W84138  24.181  40.934   3.806
15765W        W84139  38.826  31.929   4.272
15766W        W84140  41.963  41.400  13.899
15767W        W84141  18.768  27.662  11.076
15768W        W84142  18.625  16.594  11.601
15769W        W84143  31.002  18.579  10.952
15770W        W84144  17.169  19.729  10.017
15771W        W84145  42.515   4.821  11.066
15772W        W84146   8.208  34.480  11.588
15773W        W84147  20.054  29.957   1.709
15774W        W84148   4.759  41.341  13.488
15775W        W84149  14.335  26.023   4.301
15776W        W84150  39.878  25.045  11.419
15777W        W84151  20.251  10.146  12.083
15778W        W84152  40.459   1.279   2.213
15779W        W84153  24.132  22.097   3.664
15780W        W84154   6.725  39.027   4.611
15781W        W84155  13.780  41.528   1.387
15782W        W84156  27.147  23.681  11.036
15783W        W84157  44.500  16.652   1.422
15784W        W84158  28.962   7.883   3.372
15785W        W84159  25.672   1.419   4.236
15786W        W84160   9.162  43.332   2.226
15787W        W84161   6.853  27.098  14.402
15788W        W84162  42.384   8.266  12.557
15789W        W84163   4.870   7.897   2.347
15790W        W84164  16.152  34.374  11.023
15791W        W84165  39.966   6.409   0.754
15792W        W84166  24.163  32.625   3.209
15793W        W84167  10.148  38.896   5.198
15794W        W84168  31.505   4.701  11.384
15795W        W84169   6.257  11.625   0.352
15796W        W84170  32.127  22.047   0.732
15797W        W84171  30.552  29.159   3.679
15798W        W84172  29.425  13.181   0.332
15799W        W84173  44.333  17.294  11.961
15800W        W84174  39.480  28.184  10.560
15801W        W84175  27.648  39.379   0.836
15802W        W84176  11.756  41.333   3.712
15803W        W84177  25.637  12.295  11.472
15804W        W84178  39.479  11.365  10.442
15805W        W84179  17.678  18.787  12.532
15806W        W84180  23.687  28.151   3.844
15807W        W84181  39.542   5.288  12.864
15808W        W84182  21.157  27.045  10.638
15809W        W84183   9.727  27.148  10.561
15810W        W84184  29.534   4.440   1.445
15811W        W84185   7.790   1.864   2.841
15812W        W84186   9.263  27.649  11.925
15813W        W84187   2.329  35.014  14.789
15814W        W84188  22.613  34.998  13.048
15815W        W84189  17.569  33.558  12.040
15816W        W84190  20.063  42.282  11.111
15817W        W84191  29.921  23.544  11.918
15818W        W84192   3.418  35.419   3.781
15819W        W84193   4.704   2.937  13.378
15820W        W84194   4.821  22.731   2.293
15821W        W84195  39.490  11.788   1.929
15822W        W84196   7.399   4.707   2.770
15823W        W84197  34.931  36.347   3.702
15824W        W84198  38.544  42.472   0.893
15825W        W84199  21.679  18.709   1.819
15826W        W84200  13.124  17.723  12.458
15827W        W84201  42.944  12.290   2.309
15828W        W84202  38.531  40.045  11.951
15829W        W84203  22.186  21.264   1.210
15830W        W84204  25.661  18.232   9.540
15831W        W84205   1.347   9.281  10.921
15832W        W84206   2.752  13.178  12.823
15833W        W84207  34.554  33.902   4.334
15834W        W84208  21.591   0.950  11.537
15835W        W84209  28.089  19.067  13.406
15836W        W84210  19.159  23.511   0.413
15837W        W84211   0.876  43.854   3.653
15838W        W84212  40.011  14.105  13.513
15839W        W84213  25.102   2.239   2.877
15840W        W84214  16.178  21.152   1.773
15841W        W84215  33.001  13.184  14.003
15842W        W84216  18.585  44.447   1.795
15843W        W84217  36.853   5.827   3.226
15844W        W84218  27.588   3.877  11.860
15845W        W84219   7.690   1.298  13.850
15846W        W84220   5.228  40.904   2.320
15847W        W84221   0.400  32.923  13.459
15848W        W84222  32.546   8.900   0.271
15849W        W84223   0.913   0.393  11.112
15850W        W84224   4.446  34.113   1.234
15851W        W84225  36.502  44.914   4.336
15852W        W84226  12.765   2.846   1.791
15853W        W84227  43.322  26.552   4.314
15854W        W84228   5.746  25.634   9.999
15855W        W84229  13.341  23.629  12.981
15856W        W84230  14.818   5.360   3.185
15857W        W84231  25.559   6.334   1.801
15858W        W84232   8.801  25.651  10.959
15859W        W84233  44.263   9.665   0.368
15860W        W84234   1.883  27.997  10.547
15861W        W84235   2.253   1.875  13.474
15862W        W84236   1.394  28.989   3.244
15863W        W84237  10.635   0.846  12.987
15864W        W84238  34.530   7.666  13.882
15865W        W84239   0.810   5.694  14.800
15866W        W84240   2.368  34.579   0.420
15867W        W84241  30.071   5.332  14.421
15868W        W84242  34.934  17.665   4.728
15869W        W84243  35.517  19.623   3.861
15870W        W84244  12.335   5.317  11.033
15871W        W84245   0.258  20.608   1.841
15872W        W84246  10.197   4.441   2.685
15873W        W84247  34.931  14.099  11.077
15874W        W84248  12.846  17.570   1.443
15875W        W84249   9.814  36.036  12.500
15876W        W84250  44.946   4.416  12.542
15877W        W84251  38.505   3.846  10.480
15878W        W84252  10.241  13.344   0.909
15879W        W84253   5.901  44.360  10.445
15880W        W84254  30.577  32.493   4.284
15881W        W84255  18.221  22.686   2.262
15882W        W84256  38.441  16.812   2.760
15883W        W84257  36.498  15.580   0.395
15884W        W84258  21.017   6.687  13.370
15885W        W84259  19.041   4.424  12.059
15886W        W84260   5.372  35.522   4.728
15887W        W84261   2.275  39.031   4.661
15888W        W84262  18.203   7.348  14.369
15889W        W84263  34.576  31.555   2.871
15890W        W84264  21.258  21.159   3.201
15891W        W84265  40.422   0.960  13.981
15892W        W84266  21.697  27.481  13.998
15893W        W84267  32.142  42.374   2.740
15894W        W84268   4.305  29.100  10.989
15895W        W84269  14.292  22.712   1.417
15896W        W84270  19.041  11.674   3.205
15897W        W84271  39.384  21.689   3.169
15898W        W84272  44.757  30.020   4.632
15899W        W84273  17.186  23.694  13.390
15900W        W84274  37.460   6.869  11.932
15901W        W84275  23.734  29.943  11.972
15902W        W84276  25.533  16.569   1.357
15903W        W84277  28.559  15.773   4.680
15904W        W84278  39.438   6.822  10.019
15905W        W84279  38.965  33.940   3.847
15906W        W84280  24.122  14.690   2.848
15907W        W84281  37.928   2.365   1.888
15908W        W84282  40.873  24.147  12.943
15909W        W84283  37.043  18.081  13.828
15910W        W84284   2.742  26.082   4.336
15911W        W84285  43.424  39.536   0.822
15912W        W84286  37.903   5.327   1.852
15913W        W84287   8.290  32.427  13.390
15914W        W84288  25.174   0.451   4.657
15915W        W84289  33.952   5.394  10.899
15916W        W84290  42.977  31.412  12.933
15917W        W84291  33.120  18.086  14.471
15918W        W84292   2.399  41.884   1.247
15919W        W84293  18.682  25.014  13.051
15920W        W84294  41.319  25.685  10.557
15921W        W84295  17.716  26.974   3.187
15922W        W84296  38.431   9.322  10.953
15923W        W84297  30.618   3.903   1.320
15924W        W84298   3.813  20.176   1.774
15925W        W84299  37.488  24.113   5.148
15926W        W84300  33.132   0.795   2.887
15927W        W84301  29.160  43.016  11.376
15928W        W84302  34.499  24.583   3.788
15929W        W84303  25.628  17.560  12.842
15930W        W84304  27.557  14.829   2.314
15931W        W84305  25.991   6.289   1.332
15932W        W84306  12.250  25.697   4.185
15933W        W84307  21.691  17.171  12.970
15934W        W84308   4.220  18.220  12.963
15935W        W84309  14.647   7.376   2.770
15936W        W84310  27.506  26.165  12.986
15937W        W84311  10.311  23.541   1.806
15938W        W84312  21.029  44.871  13.994
15939W        W84313  43.998  43.428   0.324
15940W        W84314  35.940  33.984  11.385
15941W        W84315  41.386   7.759   4.776
15942W        W84316   5.229  19.099  11.879
15943W        W84317  11.331  12.729  12.359
15944W        W84318  11.234  44.925   4.779
15945W        W84319  19.720  41.524   4.287
15946W        W84320  10.721   2.804   3.171
15947W        W84321  20.587  23.149  14.839
15948W        W84322  21.073  21.684  11.460
15949W        W84323  21.218  29.501  14.348
15950W        W84324  23.635  31.908   2.861
15951W        W84325  21.110  41.475   4.764
15952W        W84326  13.270   3.401   4.622
15953W        W84327  38.523  10.665  12.937
15954W        W84328  29.971  33.482   4.631
15955W        W84329   0.753   7.894  13.934
15956W        W84330  35.451   2.249  14.319
15957W        W84331  28.003  29.506  13.813
15958W        W84332  32.432   7.274  11.597
15959W        W84333   7.356  18.676   5.739
15960W        W84334  11.785  34.369  13.501
15961W        W84335  20.260   3.714   3.862
15962W        W84336  13.231  13.680   2.739
15963W        W84337   6.191  37.034   0.395
15964W        W84338   0.898   8.330  12.012
15965W        W84339  17.728  20.619  13.812
15966W        W84340  10.312  38.929   2.364
15967W        W84341  34.563   9.763  12.931
15968W        W84342   4.824  38.415   4.624
15969W        W84343   5.396  30.606   3.177
15970W        W84344  11.149   3.851   3.198
15971W        W84345   5.196  32.438   2.206
15972W        W84346  36.474  32.954   1.878
15973W        W84347  34.115  44.390   1.921
15974W        W84348  25.633  16.253   4.677
15975W        W84349   1.898   9.740   1.824
15976W        W84350  30.164  19.248   0.325
15977W        W84351  10.292   5.847   1.919
15978W        W84352  17.694  40.814   2.682
15979W        W84353   5.202   1.933   0.244
15980W        W84354  35.059  36.841   1.379
15981W        W84355  37.930   1.389  13.320
15982W        W84356  33.433  14.774   3.331
15983W        W84357  12.750  15.302   0.953
15984W        W84358  28.455  18.596   1.718
15985W        W84359  14.700  14.639   3.760
15986W        W84360   9.344  25.060  10.432
15987W        W84361  15.214  25.113   4.244
15988W        W84362  19.222   8.362   2.228
15989W        W84363  13.741  17.676  14.005
15990W        W84364  37.573  44.856  11.509
15991W        W84365   9.335   3.720   2.675
15992W        W84366  15.594  13.773   0.304
15993W        W84367  24.193  38.874  10.616
15994W        W84368  10.735  18.585  14.310
15995W        W84369   9.220   0.745  11.907
15996W        W84370  10.267   4.243   3.832
15997W        W84371  43.998  42.913  11.451
15998W        W84372  41.510  10.275  13.983
15999W        W84373  41.908   0.393   4.654
16000W        W84374  37.962  15.769   1.369
16001W        W84375  22.623  15.253  12.999
16002W        W84376   4.783   6.711   1.392
16003W        W84377  31.082  43.008  13.901
16004W        W84378  44.487  10.781   1.911
16005W        W84379  31.543  41.979   4.210
16006W        W84380   4.826  12.838  13.382
16007W        W84381  36.871   5.424  11.902
16008W        W84382  20.261  14.609   1.373
16009W        W84383  22.578  15.581   4.329
16010W        W84384  20.183   2.471   2.881
16011W        W84385   4.357  29.477  14.514
16012W        W84386   7.348  41.454   3.292
16013W        W84387  34.042  14.785   4.165
16014W        W84388  28.641  20.608   4.342
16015W        W84389  16.278  28.109  13.995
16016W        W84390  17.096  11.292  11.478
16017W        W84391  44.425  32.990   2.819
16018W        W84392   6.770  30.919  12.010
16019W        W84393  10.697  20.558   1.287
16020W        W84394  41.472  12.281  11.932
16021W        W84395  25.117  31.905   1.739
16022W        W84396   7.756  22.590   1.709
16023W        W84397  40.957  34.590  11.603
16024W        W84398   0.882  22.645   4.300
16025W        W84399  16.077  43.290   1.803
16026W        W84400   0.805  22.057   2.355
16027W        W84401  22.740  22.630   2.282
16028W        W84402  22.601  17.253   3.843
16029W        W84403   3.729  16.173  14.343
16030W        W84404  10.694  30.431  10.921
16031W        W84405  24.721  12.356  14.328
16032W        W84406   9.736  19.125   4.314
16033W        W84407  28.663  26.162  10.890
16034W        W84408  33.604  22.722  13.540
16035W        W84409  40.033  13.328   4.278
16036W        W84410  35.570  14.635   1.746
16037W        W84411  22.540  21.148   2.200
16038W        W84412  26.605  25.072   3.719
16039W        W84413  25.081   6.777   3.808
16040W        W84414  23.702  11.842   3.659
16041W        W84415  41.350   2.929  14.495
16042W        W84416  10.380  24.990  12.439
16043W        W84417  26.115  25.632  13.485
16044W        W84418   2.932  23.545   1.785
16045W        W84419   8.300  40.936  10.946
16046W        W84420  33.076   6.414   0.849
16047W        W84421   6.305  34.971   1.305
16048W        W84422   8.876  11.713   0.883
16049W        W84423  25.018  34.999   3.351
16050W        W84424   6.352  10.256   3.762
16051W        W84425  33.064  10.701   0.295
16052W        W84426  28.186  40.022   4.682
16053W        W84427  18.268  42.987  12.574
16054W        W84428  11.149  44.992   3.649
16055W        W84429  22.063  30.026   1.364
16056W        W84430  15.242   5.384   1.266
16057W        W84431  36.496  27.680   0.811
16058W        W84432  14.136  38.909   1.347
16059W        W84433  26.085  30.412  11.474
16060W        W84434  40.535  39.923  10.589
16061W        W84435  15.134  31.905   4.136
16062W        W84436   6.306  31.617   3.195
16063W        W84437  30.530  21.102   1.271
16064W        W84438   7.371   9.741  11.397
16065W        W84439   4.337  42.861  11.127
16066W        W84440  29.629  14.257   0.301
16067W        W84441  36.923  18.754  11.095
16068W        W84442   2.455  27.639   3.168
16069W        W84443  36.357  42.349   4.227
16070W        W84444  30.444  16.745   4.632
16071W        W84445  15.139  18.708   3.374
16072W        W84446  13.687   8.259   1.821
16073W        W84447  11.850  11.167  14.486
16074W        W84448  42.922  30.030  10.892
16075W        W84449  15.603  38.477  12.446
16076W        W84450  33.075  22.629  14.512
16077W        W84451   5.222  32.903   2.741
16078W        W84452   9.325  19.775  12.549
16079W        W84453  16.730  34.402  14.437
16080W        W84454  21.253  12.160  14.923
16081W        W84455  16.734  43.501   3.760
16082W        W84456  39.393   2.453  12.489
16083W        W84457   0.762  29.538  11.415
16084W        W84458  30.946   2.878  14.904
16085W        W84459  33.919   5.882  12.893
16086W        W84460   0.472   0.980   0.927
16087W        W84461  40.925  27.175   0.379
16088W        W84462  21.134  18.262   1.767
16089W        W84463  33.498  44.901  11.401
16090W        W84464  41.522  25.086  13.026
16091W        W84465  11.152  29.149  11.583
16092W        W84466  39.011   6.261   1.835
16093W        W84467  35.600   8.736  11.506
16094W        W84468  41.528  32.059  10.413
16095W        W84469   5.218   1.791   4.321
16096W        W84470  36.429   9.694   4.275
16097W        W84471  42.351  33.993   1.240
16098W        W84472  26.489  19.280   3.329
16099W        W84473  25.605   2.819  11.520
16100W        W84474  22.240  22.053   4.335
16101W        W84475  30.522  16.290  11.914
16102W        W84476   6.333  20.662   2.344
16103W        W84477   1.315  13.127   0.389
16104W        W84478  32.979  31.064  13.896
16105W        W84479  16.670  23.679  10.934
16106W        W84480  14.588  25.481  10.414
16107W        W84481  25.531  14.213   1.215
16108W        W84482  35.459  13.819  14.972
16109W        W84483  12.327   4.441  13.813
16110W        W84484  44.981  18.730   2.723
16111W        W84485  17.181  16.193   4.622
16112W        W84486  36.549  28.104   4.708
16113W        W84487  13.615  39.461   1.768
16114W        W84488   2.961  38.433  10.947
16115W        W84489   4.822  18.201   3.344
16116W        W84490  23.659  12.647   2.664
16117W        W84491  25.147  34.024   2.409
16118W        W84492  40.383  18.654   0.928
16119W        W84493  21.189  34.419  13.468
16120W        W84494  22.006  10.671   3.286
16121W        W84495  29.513  24.596  12.907
16122W        W84496  28.059   7.211   4.783
16123W        W84497  44.489  32.136   3.271
16124W        W84498  23.151  29.937   4.137
16125W        W84499  40.879  10.778   2.772
16126W        W84500  16.576   8.377  12.949
16127W        W84501  24.198  21.047   4.691
16128W        W84502  18.270  28.664   3.797
16129W        W84503   6.896   8.336   4.760
16130W        W84504  23.618  14.150  11.944
16131W        W84505   9.336   5.208  13.807
16132W        W84506  38.358  40.320  14.484
16133W        W84507  15.163  29.151   0.909
16134W        W84508  14.740  15.231  11.577
16135W        W84509  40.835  12.809   2.865
16136W        W84510  25.076  21.594  13.487
16137W        W84511   9.780  18.707   1.328
16138W        W84512  29.050  36.940  13.443
16139W        W84513  42.911   5.355  12.080
16140W        W84514  38.972   9.765  14.815
16141W        W84515  39.540   9.238  14.452
16142W        W84516  25.175  15.690  13.333
16143W        W84517  41.506  15.285   4.733
16144W        W84518  11.811  36.540   3.853
16145W        W84519   8.831   8.696   4.653
16146W        W84520  40.045  10.741  13.834
16147W        W84521  34.966   2.292   0.809
16148W        W84522  39.452   7.321   1.830
16149W        W84523  35.046  34.414  13.329
16150W        W84524  39.003   5.706  13.049
16151W        W84525   4.797  36.499  10.939
16152W        W84526  28.648  26.588  12.409
16153W        W84527  36.955   3.289  14.277
16154W        W84528   8.669  17.169   4.814
16155W        W84529  35.999  34.910   3.702
16156W        W84530  26.199  13.601   1.910
16157W        W84531  18.086   4.723   0.266
16158W        W84532  27.088  14.701   3.658
16159W        W84533   2.240  40.321   1.817
16160W        W84534  19.252  29.092  13.501
16161W        W84535  10.810  40.873  12.872
16162W        W84536   6.692  24.042  14.420
16163W        W84537   2.281  38.014  12.515
16164W        W84538  30.455  17.574  13.342
16165W        W84539  19.220  44.920  10.435
16166W        W84540  29.467  29.645  13.309
16167W        W84541  29.571  38.363  14.974
16168W        W84542  33.607  41.985  13.923
16169W        W84543  19.764   9.755  10.914
16170W        W84544  36.944  16.213  13.917
16171W        W84545   4.929  12.799   3.384
16172W        W84546  42.354  13.817   3.764
16173W        W84547  42.988   6.188  12.865
16174W        W84548  42.011   3.835  10.621
16175W        W84549  40.843  21.102  13.371
16176W        W84550  31.904   3.305  12.461
16177W        W84551  18.089  16.195  10.448
16178W        W84552  32.090  44.332  11.427
16179W        W84553  27.129  36.068  10.437
16180W        W84554  39.424  29.468  11.070
16181W        W84555  25.116  23.996   1.400
16182W        W84556   7.675  38.913   1.220
16183W        W84557  38.063  22.157   3.164
16184W        W84558  41.484  25.108   3.180
16185W        W84559  31.568   9.671  11.992
16186W        W84560  38.890  20.655   2.217
16187W        W84561  26.624  23.638  11.502
16188W        W84562  30.931  12.181  10.897
16189W        W84563  23.675  14.231   1.819
16190W        W84564   7.832  34.961  12.532
16191W        W84565  10.877  32.960   3.181
16192W        W84566   5.834   7.283   4.811
16193W        W84567  15.162  10.145  13.011
16194W        W84568  16.074  42.340   2.788
16195W        W84569   6.862  30.150  11.081
16196W        W84570  37.920  13.750  11.435
16197W        W84571  42.790  18.141   9.990
16198W        W84572  11.628  10.227   1.821
16199W        W84573  34.880  33.508   3.853
16200W        W84574   5.375  13.695  10.602
16201W        W84575  37.561  25.567   2.753
16202W        W84576  29.586  16.669   0.437
16203W        W84577  12.800  24.543  12.391
16204W        W84578  28.068  32.408   2.822
16205W        W84579  20.658  23.137  14.451
16206W        W84580  29.434  12.339  10.545
16207W        W84581  33.116  20.723  13.853
16208W        W84582  18.564  36.075  12.095
16209W        W84583  23.663  38.957   1.922
16210W        W84584  18.786  34.478   2.201
16211W        W84585  31.565  21.111   1.840
16212W        W84586  26.039  39.421  14.884
16213W        W84587  29.452  19.646   4.605
16214W        W84588  23.161  33.557  14.883
16215W        W84589  27.066  34.059  11.066
16216W        W84590  37.525   4.812  13.996
16217W        W84591  39.848  15.761   3.672
16218W        W84592   7.363  44.450  11.925
16219W        W84593  38.429   3.239  11.099
16220W        W84594   9.835  22.048  12.991
16221W        W84595  18.050  16.763  11.925
16222W        W84596   8.705  40.869  11.567
16223W        W84597  21.099  40.466   5.598
16224W        W84598  31.003  43.342   2.804
16225W        W84599  41.456  12.824   4.837
16226W        W84600  32.922  12.676  13.452
16227W        W84601   1.745   4.838   1.905
16228W        W84602  26.971   1.829   4.250
16229W        W84603   7.877  10.191  11.412
16230W        W84604  14.252  25.676  14.029
16231W        W84605  31.931  11.715  10.601
16232W        W84606  23.560   4.430  12.542
16233W        W84607  32.414  32.461   1.299
16234W        W84608  39.062  21.592  13.047
16235W        W84609   5.367  42.018   2.322
16236W        W84610  32.452  38.992   0.451
16237W        W84611  21.204  38.822  14.907
16238W        W84612   3.861   2.925   2.209
16239W        W84613  35.039  32.088  14.454
16240W        W84614  24.608  39.321   4.608
16241W        W84615  36.003   6.766  14.375
16242W        W84616  31.145  14.124   0.882
16243W        W84617  44.298  21.182   3.746
16244W        W84618  22.214   2.392  13.485
16245W        W84619  25.530  26.069  12.025
16246W        W84620  13.640  36.009   1.395
16247W        W84621   5.824  36.894   4.744
16248W        W84622  10.343  10.874   3.287
16249W        W84623  21.561  15.707   2.351
16250W        W84624   1.838  36.922  13.463
16251W        W84625  15.750  35.429   0.351
16252W        W84626  23.684   8.267  12.036
16253W        W84627   4.431  42.347   0.341
16254W        W84628  31.081  10.668  14.490
16255W        W84629  38.491  26.563   1.793
16256W        W84630  37.546  42.881  13.944
16257W        W84631  16.737  35.387   4.282
16258W        W84632  27.104  33.511   4.300
16259W        W84633  44.832  23.993   0.863
16260W        W84634  22.530  36.966   2.407
16261W        W84635  35.413   4.781  13.317
16262W        W84636  33.039  23.619   1.394
16263W        W84637  38.902  27.019   4.612
16264W        W84638  36.371   0.366  11.469
16265W        W84639  22.727  19.043  11.003
16266W        W84640   1.829  17.655   3.698
16267W        W84641  12.360  24.158   0.795
16268W        W84642  19.213   7.214   1.775
16269W        W84643   3.377  43.428  10.629
16270W        W84644  28.129  26.633  12.349
16271W        W84645  32.005  10.274  10.484
16272W        W84646  35.453  19.215   0.368
16273W        W84647  24.032   7.325   4.725
16274W        W84648   0.407  38.982   0.466
16275W        W84649  21.243  43.951  11.490
16276W        W84650  41.865   5.266   2.862
16277W        W84651  41.005   2.957   2.330
16278W        W84652  12.116   2.466   1.798
16279W        W84653   2.933  26.620   4.124
16280W        W84654  30.998  24.191  10.636
16281W        W84655  38.454   2.226  10.474
16282W        W84656  11.216  17.150   1.288
16283W        W84657  14.217   3.924  13.022
16284W        W84658  27.107  19.133   2.857
16285W        W84659  21.108   3.266  12.451
16286W        W84660   7.302  39.367  11.371
16287W        W84661  42.344  16.578  11.959
16288W        W84662   9.732   5.800   2.804
16289W        W84663  36.923  11.677   0.945
16290W        W84664  10.723   6.210  10.590
16291W        W84665  23.010  28.161  11.120
16292W        W84666  40.827  24.152   3.825
16293W        W84667  14.699  18.163  11.902
16294W        W84668   4.216  37.952  10.475
16295W        W84669   5.333  42.327  12.912
16296W        W84670  31.586  12.217   2.315
16297W        W84671  32.562  36.404   0.830
16298W        W84672  36.913  29.471  11.592
16299W        W84673   8.231  28.646  14.908
16300W        W84674  25.965  34.049  11.011
16301W        W84675   1.431  26.557  12.068
16302W        W84676  10.815   8.689  12.041
16303W        W84677  36.563  20.146  12.903
16304W        W84678  22.520   5.351  12.395
16305W        W84679   9.843  24.620   0.910
16306W        W84680  40.328  34.067   2.325
16307W        W84681   3.414  36.457   4.801
16308W        W84682   9.328  33.419   4.204
16309W        W84683  36.087  29.020  10.572
16310W        W84684  28.582  37.834  12.092
16311W        W84685  13.117   5.222   4.250
16312W        W84686   3.800  21.601   1.333
16313W        W84687  18.050  32.081  11.506
16314W        W84688  33.973  31.603   3.773
16315W        W84689   4.289  37.941   1.911
16316W        W84690   9.839   0.432   1.338
16317W        W84691  10.694   8.732  10.565
16318W        W84692  10.220   1.353  13.049
16319W        W84693   0.397   2.407  14.425
16320W        W84694  33.916  14.709  12.883
16321W        W84695  17.618  43.847  13.906
16322W        W84696  42.905  44.395   4.597
16323W        W84697  18.571  41.357   1.320
16324W        W84698  24.669  11.333   0.326
16325W        W84699  23.515  30.633  13.418
16326W        W84700  41.960  38.417   4.627
16327W        W84701  39.874  26.116  12.496
16328W        W84702  44.006  16.179  11.987
16329W        W84703   6.294   6.400  14.465
16330W        W84704  26.971   5.223  10.544
16331W        W84705   6.767  11.275  14.941
16332W        W84706  33.958  43.385  12.560
16333W        W84707   7.897  13.159  14.892
16334W        W84708  17.744   8.280   4.293
16335W        W84709  12.830  39.513   2.184
16336W        W84710  23.008  39.969   1.904
16337W        W84711  42.362   8.755   1.860
16338W        W84712   1.417  20.111   3.716
16339W        W84713  44.438   5.774   2.668
16340W        W84714  26.662  13.758   2.808
16341W        W84715  38.001  41.444  13.047
16342W        W84716  20.642  43.318   2.816
16343W        W84717  37.371  12.664   0.393
16344W        W84718  36.845  18.192  10.450
16345W        W84719   4.766  36.060   9.921
16346W        W84720   0.982  38.966   3.792
16347W        W84721   1.786  22.650  14.992
16348W        W84722   6.298  28.975   5.263
16349W        W84723  13.165  16.627  13.883
16350W        W84724   8.701  17.592   5.679
16351W        W84725   0.262  18.094  10.899
16352W        W84726  18.677  34.989  13.857
16353W        W84727  16.316  23.151   0.880
16354W        W84728  29.493  23.587   4.222
16355W        W84729  10.859  11.780   3.200
16356W        W84730   6.766   2.732   3.350
16357W        W84731  28.557  39.968  12.487
16358W        W84732   0.368  34.477   3.680
16359W        W84733   6.310   7.240   1.901
16360W        W84734  22.154  27.546  14.940
16361W        W84735  12.692  12.357   2.290
16362W        W84736  35.422  32.018  10.475
16363W        W84737   1.391  27.671   0.803
16364W        W84738  36.949  36.424   2.763
16365W        W84739  20.768  31.632  10.586
16366W        W84740  40.897  16.786   2.363
16367W        W84741  43.795  37.412   1.771
16368W        W84742  33.087  24.653  12.370
16369W        W84743  13.228   3.921   1.267
16370W        W84744  21.133  43.515   5.116
16371W        W84745  14.215  19.168  12.055
16372W        W84746   9.728  23.164   1.275
16373W        W84747  11.654   9.358   1.853
16374W        W84748  21.646  36.379  13.990
16375W        W84749  24.004   0.482  13.910
16376W        W84750  39.935  20.765  10.499
16377W        W84751   5.401  35.467  11.439
16378W        W84752   4.239  26.143   1.767
16379W        W84753  33.028   6.757   2.719
16380W        W84754  16.221  39.949  10.507
16381W        W84755  36.930  37.913  13.362
16382W        W84756  23.153   3.794   1.311
16383W        W84757   9.870   4.269   1.872
16384W        W84758  12.851   8.832   2.847
16385W        W84759   8.263  30.071  13.805
16386W        W84760   9.763  14.816   2.221
16387W        W84761   3.908  31.896   0.281
16388W        W84762  26.181  18.722  12.929
16389W        W84763  19.541  43.823  12.989
16390W        W84764  40.811  27.446   2.367
16391W        W84765   0.776   8.721  12.467
16392W        W84766  21.221  21.188  13.895
16393W        W84767  44.002   8.401  14.837
16394W        W84768  21.080   4.336  10.911
16395W        W84769   2.366  35.374  12.988
16396W        W84770  38.002  42.935   0.794
16397W        W84771  14.817  27.447  12.542
16398W        W84772  34.570   2.286  10.944
16399W        W84773  24.207  14.252  11.070
16400W        W84774  22.628  41.380   3.711
16401W        W84775  17.295  35.551   9.957
16402W        W84776  10.210  24.055   4.676
16403W        W84777  24.147   9.152  14.436
16404W        W84778  12.755  42.965   1.233
16405W        W84779  14.093  44.898   4.124
16406W        W84780  14.259   9.269  13.440
16407W        W84781  12.300  27.631  10.940
16408W        W84782  44.844   8.160  12.388
16409W        W84783  36.967  15.227  14.308
16410W        W84784  30.497  18.054  14.849
16411W        W84785  19.115  17.195   1.909
16412W        W84786  28.161   1.780  13.392
16413W        W84787  33.512  37.403   4.137
16414W        W84788   3.939   6.182  13.469
16415W        W84789  16.631  33.975   3.649
16416W        W84790  11.728  15.788   3.301
16417W        W84791  35.045  42.796  12.385
16418W        W84792  34.387   1.292  11.971
16419W        W84793  40.881  17.634  14.804
16420W        W84794  29.919  12.344   1.291
16421W        W84795   6.381  42.516  14.394
16422W        W84796  44.377  28.946   2.696
16423W        W84797   0.398  11.840   4.632
16424W        W84798  25.700  25.081   4.267
16425W        W84799  29.622  24.707   2.755
16426W        W84800  28.561  44.392   0.746
16427W        W84801  14.714   4.734   4.265
16428W        W84802  33.052  24.064   3.825
16429W        W84803  23.073  33.574  13.511
16430W        W84804   9.377  39.956  14.935
16431W        W84805  36.910   7.233   4.760
16432W        W84806  28.173  38.831  14.495
16433W        W84807  38.851  26.680  14.784
16434W        W84808   8.686  29.615   3.855
16435W        W84809  32.008   8.705   4.751
16436W        W84810  24.559  13.767   3.821
16437W        W84811  11.129  36.893   2.862
16438W        W84812   5.928  33.943   3.163
16439W        W84813   9.741  11.860  13.409
16440W        W84814  13.156  20.596   3.645
16441W        W84815  13.740  26.006  11.503
16442W        W84816   8.337  29.943  14.760
16443W        W84817  35.559  38.002   0.310
16444W        W84818  39.387  41.957  14.335
16445W        W84819  20.184  24.551   4.832
16446W        W84820  31.423   6.891   0.852
16447W        W84821  11.865  11.702   0.843
16448W        W84822  28.633  28.130   1.439
16449W        W84823   5.928  29.453  12.554
16450W        W84824   8.370   8.274   4.142
16451W        W84825  35.396   1.878  14.796
16452W        W84826  11.861  29.651   5.129
16453W        W84827   9.194  31.467  10.592
16454W        W84828   9.172  13.614   4.247
16455W        W84829   5.726  42.886   3.640
16456W        W84830  42.878  15.312  13.860
16457W        W84831   2.458  11.759   2.765
16458W        W84832  34.497  26.117   4.314
16459W        W84833  10.186  38.873   3.737
16460W        W84834  42.945   1.923   0.816
16461W        W84835  43.014  23.503   1.311
16462W        W84836  25.478  33.069  14.503
16463W        W84837  42.469  37.392  11.882
16464W        W84838  17.110  11.316   1.929
16465W        W84839  25.106  34.411   2.395
16466W        W84840  38.483  21.596   4.223
16467W        W84841   5.285   2.341   1.929
16468W        W84842  40.542  33.016   2.285
16469W        W84843  21.756   6.334  12.087
16470W        W84844  41.387  31.140  13.822
16471W        W84845  27.655  34.402  11.066
16472W        W84846   8.727   3.889  14.474
16473W        W84847  14.169   8.671  11.395
16474W        W84848  42.322  33.539  14.931
16475W        W84849  44.817  13.239   0.760
16476W        W84850   2.961  33.070  13.484
16477W        W84851  41.398  25.023   1.697
16478W        W84852   2.450  43.867   1.305
16479W        W84853  16.072  30.146   4.318
16480W        W84854   9.727  23.085   3.260
16481W        W84855  40.907  15.797   0.746
16482W        W84856  31.082  39.352   2.257
16483W        W84857   6.270  10.795  11.092
16484W        W84858   5.294  36.000  13.440
16485W        W84859  35.366  14.166  14.769
16486W        W84860  40.436  28.929   1.927
16487W        W84861  32.036  11.159   0.377
16488W        W84862  31.629  19.578  13.826
16489W        W84863   2.358  32.949  11.001
16490W        W84864   5.797   6.246  11.424
16491W        W84865  35.536   8.743   1.711
16492W        W84866  35.529  33.080  10.567
16493W        W84867  37.463  26.589   0.395
16494W        W84868  35.884   4.392   4.215
16495W        W84869   1.435  15.138  10.636
16496W        W84870   3.915   1.896  11.062
16497W        W84871  19.097  13.251   0.843
16498W        W84872   6.716  36.500   1.376
16499W        W84873   0.974  44.439  10.481
16500W        W84874  24.681  39.334  14.346
16501W        W84875  16.201  37.344  14.855
16502W        W84876  30.127  41.469  12.081
16503W        W84877  13.765   7.255  14.923
16504W        W84878  44.794  38.002   3.728
16505W        W84879  12.837  10.373   9.968
16506W        W84880  39.467  44.791  14.921
16507W        W84881  15.721   6.291   3.359
16508W        W84882  18.105   1.460   0.845
16509W        W84883  11.136  18.548  12.030
16510W        W84884  18.066  17.098  11.578
16511W        W84885  27.184  39.035  12.082
16512W        W84886  30.068  12.166   1.909
16513W        W84887  26.470  25.109  14.826
16514W        W84888   0.798   9.769   1.927
16515W        W84889  22.191  38.897  10.534
16516W        W84890  36.928  37.498   3.185
16517W        W84891  23.005   4.366   1.220
16518W        W84892  26.599  43.020  13.346
16519W        W84893  34.424  41.802   4.740
16520W        W84894  38.553   7.411  10.899
16521W        W84895  13.314  30.997   4.773
16522W        W84896  19.608  28.039   0.252
16523W        W84897  40.911  16.727   0.851
16524W        W84898  27.578  12.165   2.883
16525W        W84899   5.296  26.027  10.509
16526W        W84900  34.120   8.842   4.292
16527W        W84901   4.433  13.167   0.442
16528W        W84902   3.953  32.416   1.854
16529W        W84903  28.169   0.960  11.010
16530W        W84904   1.424   0.477   4.135
16531W        W84905  43.860  27.948  11.945
16532W        W84906  19.733   5.423   1.834
16533W        W84907  25.644  29.427  14.992
16534W        W84908  25.634  38.482  14.846
16535W        W84909   8.824  13.200   2.335
16536W        W84910   0.277   7.347   0.789
16537W        W84911  43.893  25.098   1.425
16538W        W84912  36.581   5.433   1.811
16539W        W84913  15.109  12.673   1.745
16540W        W84914  42.027  33.412   0.756
16541W        W84915  17.176  38.033   0.841
16542W        W84916  13.245   6.772   2.735
16543W        W84917  19.726   4.405  14.438
16544W        W84918  11.221  13.124  10.601
16545W        W84919  37.537  36.097   1.296
16546W        W84920  33.937  16.605   2.206
16547W        W84921  12.161   8.294   2.240
16548W        W84922  18.225  21.535  12.982
16549W        W84923   0.337  42.448   3.748
16550W        W84924  28.021  19.158  13.026
16551W        W84925  13.796   3.374  10.973
16552W        W84926  42.474   6.340  11.592
16553W        W84927  13.226  15.807   1.233
16554W        W84928  31.491  16.223   3.290
16555W        W84929   1.835  19.583   2.239
16556W        W84930  37.065  27.979  14.992
16557W        W84931  22.017  26.180   4.618
16558W        W84932  20.589  19.054  12.920
16559W        W84933  18.284  37.002   3.191
16560W        W84934  23.125  13.275   1.865
16561W        W84935   4.924  13.764   2.335
16562W        W84936  38.454  36.952  14.401
16563W        W84937  34.933  29.517  14.282
16564W        W84938   2.248  27.962   4.243
16565W        W84939  22.663   4.447  11.578
16566W        W84940  10.763  21.579   2.764
16567W        W84941   5.435  17.686  11.059
16568W        W84942  31.576   2.863  14.341
16569W        W84943  34.590  42.857  11.024
16570W        W84944  38.063  31.509  10.541
16571W        W84945   6.220  10.203  11.598
16572W        W84946  10.863  32.591  13.328
16573W        W84947  18.777  20.554  13.325
16574W        W84948  32.073  10.304   0.885
16575W        W84949   9.237  33.589   4.684
16576W        W84950  32.605  24.219   3.241
16577W        W84951  21.244   9.792  13.885
16578W        W84952  23.563  18.673  11.911
16579W        W84953  33.536   8.785   3.631
16580W        W84954  30.012  16.299  13.840
16581W        W84955  31.564  27.963   1.447
16582W        W84956   3.343   7.335  12.008
16583W        W84957  19.596   9.308   0.825
16584W        W84958  16.114   4.704   2.280
16585W        W84959  27.194   1.910   1.790
16586W        W84960  33.408  18.096   1.248
16587W        W84961  38.381  28.141   4.615
16588W        W84962  28.662  18.267   3.195
16589W        W84963  30.138  34.064   0.380
16590W        W84964  38.021  34.610  13.374
16591W        W84965  12.345   6.720   3.200
16592W        W84966   6.714  42.811  13.007
16593W        W84967  15.150  33.897   1.243
16594W        W84968   5.369  43.491   0.324
16595W        W84969  20.187  26.068  13.441
16596W        W84970  13.762  28.605   3.364
16597W        W84971  38.456  32.463   0.839
16598W        W84972  42.838  25.648   3.233
16599W        W84973  34.609  13.293  14.350
16600W        W84974  26.590   6.414   4.346
16601W        W84975   5.721  35.569   4.761
16602W        W84976  43.325  21.108   1.832
16603W        W84977   5.362  14.741   0.381
16604W        W84978  22.717  29.078   1.382
16605W        W84979   4.211  41.849  12.441
16606W        W84980  12.321   4.362  13.063
16607W        W84981  38.513   1.342  13.979
16608W        W84982  24.082  24.608   4.811
16609W        W84983  15.108   1.849   4.823
16610W        W84984   6.769  18.606  13.791
16611W        W84985  18.788   0.441   4.194
16612W        W84986  30.977  28.091  12.342
16613W        W84987  35.392  34.526  12.971
16614W        W84988  26.007  32.558  12.044
16615W        W84989  32.020   4.266  14.996
16616W        W84990  35.595  37.512   4.766
16617W        W84991  18.058  12.730  11.380
16618W        W84992  43.420  20.531  12.969
16619W        W84993  24.993  44.906  14.436
16620W        W84994  20.554  33.919  11.877
16621W        W84995  14.121  11.211   1.916
16622W        W84996  17.698  44.287  11.891
16623W        W84997  20.635  42.306  14.336
16624W        W84998  39.062   3.368  14.012
16625W        W84999   9.317  40.988   4.771
16626W        W85000  42.990   0.899  11.975
16627W        W85001   0.430  35.860  12.473
16628W        W85002  37.853  41.318   2.740
16629W        W85003  25.623  29.094  10.516
16630W        W85004  12.840  22.177   4.782
16631W        W85005   2.302  12.813  14.854
16632W        W85006   7.294  19.110  14.896
16633W        W85007  25.136  11.358   1.233
16634W        W85008  44.312   5.419   3.231
16635W        W85009   5.272  25.116  10.551
16636W        W85010   1.281   8.714  14.350
16637W        W85011  43.840  20.223   2.833
16638W        W85012  33.589  26.027   1.369
16639W        W85013  28.940  18.600  11.112
16640W        W85014  26.158   4.912  12.497
16641W        W85015  19.255  29.134   0.420
16642W        W85016  32.010   0.279  10.121
16643W        W85017  15.107  32.918   2.235
16644W        W85018  22.509  22.090   4.629
16645W        W85019  37.013  44.949  13.791
16646W        W85020  26.169  39.021   2.667
16647W        W85021  15.257  18.762   1.367
16648W        W85022  23.022  22.065   3.174
16649W        W85023  33.455  26.122   1.855
16650W        W85024  32.118  11.290   3.860
16651W        W85025  22.555  43.975   2.793
16652W        W85026   6.918  18.209  11.405
16653W        W85027  37.396   8.242   1.239
16654W        W85028  42.336  20.682  14.800
16655W        W85029  38.873  28.034  11.942
16656W        W85030  24.525  17.583  10.134
16657W        W85031   3.414  33.392  11.998
16658W        W85032  32.085  34.902   1.865
16659W        W85033  23.638  40.015   3.803
16660W        W85034   4.872  38.348  12.357
16661W        W85035   4.446  29.056   0.752
16662W        W85036   1.948  39.986  13.496
16663W        W85037  27.080  17.669   2.284
16664W        W85038  43.882  18.619  12.965
16665W        W85039  38.840   9.353   0.340
16666W        W85040   3.329  43.315  14.420
16667W        W85041   5.213   4.712  11.953
16668W        W85042  31.542  18.607   2.763
16669W        W85043  17.727  42.004   1.897
16670W        W85044  11.262   8.181  11.388
16671W        W85045  15.669  37.565  13.398
16672W        W85046  26.183   3.403   0.370
16673W        W85047   2.776  41.786  11.560
16674W        W85048  13.131  43.461  13.972
16675W        W85049  35.572   4.412   0.368
16676W        W85050  24.492  10.187   1.413
16677W        W85051   5.801  40.017  12.355
16678W        W85052   1.326  37.956  11.073
16679W        W85053  40.316  19.559  14.467
16680W        W85054  10.676  31.594  11.895
16681W        W85055  34.948  31.531  11.916
16682W        W85056  19.232  13.272   3.682
16683W        W85057  12.350  14.274  14.981
16684W        W85058  32.918  43.353   4.672
16685W        W85059   8.401  44.421  13.035
16686W        W85060  17.149  43.809   4.809
16687W        W85061  25.088  21.263   0.882
16688W        W85062  25.684  18.061  13.811
16689W        W85063   1.911   7.362   1.337
16690W        W85064  22.598  32.067   2.281
16691W        W85065  16.739  27.527  13.794
16692W        W85066  18.210  22.127  13.849
16693W        W85067  36.908   6.227   1.859
16694W        W85068  39.991   1.738   1.822
16695W        W85069  20.245   3.300   9.986
16696W        W85070  14.232  39.061  14.973
16697W        W85071   3.729  14.101   3.802
16698W        W85072  10.330  10.158   0.736
16699W        W85073  30.641  19.227  11.897
16700W        W85074   7.711  43.999  14.769
16701W        W85075   6.333  12.199  12.380
16702W        W85076   5.755  19.635   2.721
16703W        W85077  25.642  14.317   4.832
16704W        W85078   7.415   3.756  12.342
16705W        W85079   3.309  22.608  12.042
16706W        W85080  35.009  39.897  11.932
16707W        W85081   7.908   4.791   5.148
16708W        W85082  15.240  19.127  14.978
16709W        W85083  38.986  13.227  12.458
16710W        W85084  13.140  22.543  11.444
16711W        W85085  31.119  37.898  12.081
16712W        W85086  43.488  28.177  10.073
16713W        W85087   2.720  13.302   1.732
16714W        W85088  14.683   7.703   1.254
16715W        W85089  38.541  16.742   3.219
16716W        W85090  36.886  15.284  12.424
16717W        W85091  34.018  18.142  11.601
16718W        W85092  41.044  33.444  11.509
16719W        W85093  43.830   0.935  14.769
16720W        W85094  43.899  40.305  10.421
16721W        W85095  30.010  41.982   1.411
16722W        W85096  14.166   4.228  12.027
16723W        W85097  38.528  15.098   2.295
16724W        W85098  11.258  42.020   3.642
16725W        W85099   3.339  24.587  14.459
16726W        W85100  43.782  32.510  14.781
16727W        W85101  10.816  42.940  13.340
16728W        W85102  31.924  32.531   2.772
16729W        W85103   6.187  19.636   4.775
16730W        W85104  38.568  43.437  11.940
16731W        W85105  28.012  29.459  12.485
16732W        W85106  25.067  12.137   2.213
16733W        W85107  40.423   9.744  12.344
16734W        W85108  19.207   6.193  14.989
16735W        W85109  11.269  13.257   2.190
16736W        W85110  34.021  30.073   4.304
16737W        W85111  27.669  16.280   0.942
16738W        W85112  20.617  40.337  12.439
16739W        W85113  29.023  22.183  12.001
16740W        W85114  11.822  20.585   2.748
16741W        W85115  33.584  13.619   1.321
16742W        W85116  27.636  41.306  12.030
16743W        W85117  29.125  40.027   1.750
16744W        W85118  23.220   9.655  13.050
16745W        W85119  11.277  17.076  12.086
16746W        W85120  35.979  22.725   0.476
16747W        W85121  21.652   0.936   3.348
16748W        W85122  31.985  11.844   2.724
16749W        W85123   3.300  34.536   4.674
16750W        W85124   9.841  21.715  14.967
16751W        W85125  35.554  37.996   4.697
16752W        W85126  17.664  44.452   2.797
16753W        W85127  44.310   6.913   3.663
16754W        W85128   6.698  18.670  11.998
16755W        W85129  28.993  10.376   1.336
16756W        W85130  35.533  10.700  14.317
16757W        W85131  44.335   0.310   1.712
16758W        W85132  16.583  30.534  14.461
16759W        W85133  40.507  40.308   4.797
16760W        W85134   6.708  25.052   4.149
16761W        W85135  22.515  31.642  13.371
16762W        W85136  19.159  15.182  10.536
16763W        W85137  21.079  41.037  12.547
16764W        W85138  38.944  10.217  13.321
16765W        W85139  39.341  26.193   4.619
16766W        W85140  44.347   1.956  13.352
16767W        W85141  28.670  22.604   1.377
16768W        W85142  12.268   4.860   3.304
16769W        W85143  12.638  30.973  12.096
16770W        W85144   7.404  39.007   4.335
16771W        W85145  14.674  22.028  13.903
16772W        W85146  38.355  11.671   3.275
16773W        W85147  26.971  29.569   2.892
16774W        W85148   9.203  42.017  13.794
16775W        W85149   8.238  25.611   5.128
16776W        W85150   7.891   2.731   3.796
16777W        W85151  18.720  21.214   1.326
16778W        W85152  38.470   3.779  12.539
16779W        W85153   9.843   1.462   1.251
16780W        W85154  25.038  13.120   4.604
16781W        W85155  44.774  29.098   4.677
16782W        W85156  39.516  33.923   1.717
16783W        W85157  42.836  35.554  13.792
16784W        W85158  39.942   4.849  11.420
16785W        W85159  36.550   0.844   0.894
16786W        W85160  29.602   7.699  12.549
16787W        W85161  29.160  35.428  13.858
16788W        W85162  14.594  36.934   3.832
16789W        W85163  34.477  38.431   1.883
16790W        W85164  10.320  42.955   0.459
16791W        W85165  41.424  12.206   1.309
16792W        W85166  33.087  40.805  11.481
16793W        W85167  11.182  10.196   1.788
16794W        W85168  26.621  16.791   1.411
16795W        W85169  31.995  13.755  13.376
16796W        W85170  28.471  12.820  13.813
16797W        W85171  31.979  14.824  13.850
16798W        W85172  37.547  34.439  11.456
16799W        W85173  16.711  18.636  12.851
16800W        W85174  25.547  26.001   1.436
16801W        W85175  11.228  30.503  14.777
16802W        W85176   3.298  11.328  13.382
16803W        W85177   2.406  17.250   1.398
16804W        W85178   9.240   8.758  10.628
16805W        W85179   9.209  13.672   2.662
16806W        W85180   4.777   6.267  11.004
16807W        W85181  27.078  20.267  11.474
16808W        W85182  25.011  14.183  13.364
16809W        W85183   7.214   8.343   0.286
16810W        W85184  36.866  24.701   4.134
16811W        W85185  17.159  30.621   0.456
16812W        W85186   9.865  38.039   3.721
16813W        W85187  41.450  14.688  12.079
16814W        W85188  26.969   4.940  14.426
16815W        W85189  34.038   2.835  13.450
16816W        W85190  21.647  10.355  14.870
16817W        W85191  28.457  35.934   1.866
16818W        W85192  37.573   0.857   4.261
16819W        W85193   8.166  31.924   5.205
16820W        W85194  15.617  40.429   2.692
16821W        W85195  21.029  15.668  10.499
16822W        W85196  35.979   0.868   1.790
16823W        W85197  28.980  21.587  14.001
16824W        W85198   8.683  18.739  14.368
16825W        W85199  16.262  15.137  14.974
16826W        W85200  27.125  16.720  13.851
16827W        W85201  19.644  19.263  13.466
16828W        W85202   8.353  39.324  14.775
16829W        W85203  35.553   4.246  12.452
16830W        W85204   8.777  17.640   0.366
16831W        W85205  23.621  44.334  12.053
16832W        W85206  20.576  28.985  10.548
16833W        W85207  28.966  32.945   3.356
16834W        W85208  42.873  22.643   3.645
16835W        W85209   3.908  44.760  12.576
16836W        W85210   3.925  26.669  13.527
16837W        W85211  18.288  11.273  14.865
16838W        W85212  40.376  36.098   5.190
16839W        W85213  22.183  42.015  14.352
16840W        W85214   8.237  31.072  11.033
16841W        W85215  19.278  42.326   1.223
16842W        W85216  19.565  11.257  10.477
16843W        W85217  15.192  17.241   1.325
16844W        W85218   7.253   7.365  12.877
16845W        W85219  12.198  17.705  10.532
16846W        W85220  20.094   9.741   0.828
16847W        W85221  37.893  19.217   4.354
16848W        W85222  13.651   8.665  12.983
16849W        W85223  12.765  27.657   1.814
16850W        W85224  26.060   6.780  12.981
16851W        W85225  21.035  44.351   0.838
16852W        W85226  38.860  34.983  14.447
16853W        W85227  24.151   4.756   0.965
16854W        W85228  33.880  37.417   2.209
16855W        W85229  15.814  44.296  10.607
16856W        W85230  32.106  29.440  10.451
16857W        W85231   0.910  36.027  13.052
16858W        W85232  19.691  27.625   1.697
16859W        W85233  28.185  31.948  12.974
16860W        W85234  22.521  43.480  10.420
16861W        W85235  24.649   1.255   1.416
16862W        W85236   4.417  21.526  13.399
16863W        W85237  33.000  44.390  11.443
16864W        W85238  32.028  12.164  13.817
16865W        W85239   9.293  10.139  14.017
16866W        W85240  11.297   0.953  10.563
16867W        W85241   2.891  17.613  12.512
16868W        W85242  22.114   7.845  11.603
16869W        W85243   7.307  41.403   1.706
16870W        W85244  12.157  26.027   2.334
16871W        W85245   8.771  42.831  13.519
16872W        W85246  19.039  34.956  10.944
16873W        W85247  17.682  26.517  14.807
16874W        W85248   6.381  36.089   9.994
16875W        W85249  28.002  32.938  14.312
16876W        W85250  31.114  43.917   3.662
16877W        W85251  25.108  24.167  11.094
16878W        W85252  22.029   8.882   3.293
16879W        W85253  39.025   9.722   2.760
16880W        W85254  39.867  36.844   2.670
16881W        W85255   7.196  24.585  11.496
16882W        W85256  22.201   1.244  14.298
16883W        W85257  24.604  31.522   0.876
16884W        W85258   6.807  31.014   2.795
16885W        W85259  25.131   0.879  12.927
16886W        W85260  30.536   7.846   3.867
16887W        W85261  14.646  16.107   4.614
16888W        W85262  43.381  18.294  12.419
16889W        W85263  37.831   6.302   5.207
16890W        W85264   3.285  24.204   3.657
16891W        W85265  23.504   6.769   4.163
16892W        W85266  13.637  10.259   5.747
16893W        W85267  27.074  43.317   9.463
16894W        W85268  33.934  30.484   2.375
16895W        W85269  25.157  10.741   2.778
16896W        W85270  14.667  17.740   3.702
16897W        W85271   9.739  18.265   0.818
16898W        W85272  35.402  42.485  13.427
16899W        W85273  15.764  24.121   4.221
16900W        W85274  23.490   1.877   2.192
16901W        W85275  34.963  21.674  14.912
16902W        W85276  10.706   3.222  14.835
16903W        W85277  29.566   9.202   0.257
16904W        W85278  36.403  18.163  11.087
16905W        W85279  43.862  12.750   1.444
16906W        W85280   6.709  19.566   1.728
16907W        W85281  14.177   5.905  14.800
16908W        W85282  42.887  11.299   2.706
16909W        W85283  41.468   1.397  11.494
16910W        W85284  27.484  18.667   0.255
16911W        W85285  33.418  11.766  10.903
16912W        W85286  17.764  36.367   0.768
16913W        W85287   0.337  40.534  14.311
16914W        W85288  30.101  16.674   2.885
16915W        W85289   7.791  32.431   4.706
16916W        W85290   4.434  34.391   0.736
16917W        W85291  33.045   2.940  13.425
16918W        W85292  13.658  35.854  10.636
16919W        W85293  29.663  25.486  11.091
16920W        W85294   3.803  12.120  11.470
16921W        W85295  14.094  39.394   3.818
16922W        W85296  30.035  15.282  11.989
16923W        W85297  19.274  39.905   1.776
16924W        W85298  21.117   5.306   3.763
16925W        W85299  29.464  38.860   2.710
16926W        W85300   6.800   0.310   2.191
16927W        W85301  16.600   0.365  13.813
16928W        W85302  17.142  25.475   2.339
16929W        W85303  38.974   6.422  13.367
16930W        W85304  32.137  14.743   1.735
16931W        W85305   4.296  26.139   0.819
16932W        W85306  22.103  21.666  10.505
16933W        W85307   5.299   7.266  10.407
16934W        W85308  28.447  10.677  14.835
16935W        W85309  25.515   8.658   4.819
16936W        W85310  33.921   2.808   1.370
16937W        W85311  11.137  29.473  12.350
16938W        W85312   8.691  37.042   1.285
16939W        W85313  29.552  41.033  14.840
16940W        W85314  32.998  37.969   4.176
16941W        W85315   2.304  40.896  13.540
16942W        W85316  24.036  28.571  13.461
16943W        W85317   5.810  25.203   4.793
16944W        W85318   5.355  44.871   0.777
16945W        W85319  25.108  35.977   2.841
16946W        W85320  34.087  44.783   1.281
16947W        W85321  43.499  40.333   0.944
16948W        W85322  13.799  27.998  14.003
16949W        W85323  14.654   6.865   2.868
16950W        W85324  44.764   8.790  14.941
16951W        W85325  35.449  28.953   1.862
16952W        W85326  24.081  10.742  13.975
16953W        W85327  11.665   5.239  10.464
16954W        W85328  43.458  37.392   0.830
16955W        W85329   6.335  39.368   0.733
16956W        W85330   2.325  24.142  14.404
16957W        W85331  18.076  42.334   4.646
16958W        W85332  24.168   9.244   3.868
16959W        W85333   8.330  43.437  11.037
16960W        W85334   8.391   8.299  13.444
16961W        W85335   1.795  43.436  10.606
16962W        W85336   4.927   8.331  14.022
16963W        W85337  32.431  22.244  14.281
16964W        W85338   0.933  16.773  12.422
16965W        W85339  25.012  34.505   3.252
16966W        W85340   8.353   2.468  12.854
16967W        W85341   1.266  36.937  13.384
16968W        W85342  44.416  24.591   2.793
16969W        W85343  31.140  12.172   1.858
16970W        W85344  13.320  42.843  14.492
16971W        W85345  33.965  38.478   2.359
16972W        W85346  24.718  19.664  13.536
16973W        W85347  35.430   5.413  12.568
16974W        W85348   6.735  14.270   3.691
16975W        W85349  24.608   7.752  10.457
16976W        W85350   2.444  21.203  13.958
16977W        W85351  37.463   7.760  13.059
16978W        W85352  37.414  13.333  11.080
16979W        W85353  19.111  34.071  11.602
16980W        W85354  14.746  34.374   1.292
16981W        W85355  10.779  23.157   3.870
16982W        W85356  28.028  19.149  14.894
16983W        W85357  12.679  10.747  12.482
16984W        W85358   0.759  18.245   0.870
16985W        W85359  33.889   7.909  14.462
16986W        W85360  25.081  11.145   2.740
16987W        W85361   4.927  31.037   5.107
16988W        W85362  26.550  36.844   2.819
16989W        W85363  40.991  34.589  10.627
16990W        W85364  23.224  15.153   3.179
16991W        W85365  21.538  32.065  12.492
16992W        W85366   9.669   9.299   0.765
16993W        W85367  15.611  32.596   2.388
16994W        W85368  41.965  15.260   1.823
16995W        W85369  43.004   1.472   3.771
16996W        W85370  25.523  41.032   1.716
16997W        W85371  15.646   7.251  10.037
16998W        W85372  11.263   6.773   3.296
16999W        W85373  14.816  32.992  10.621
17000W        W85374  14.781  12.636   4.134
17001W        W85375   3.381  35.369   4.207
17002W        W85376  31.014  38.516  14.474
17003W        W85377   9.240  41.447   4.240
17004W        W85378  25.003  38.920  11.033
17005W        W85379  15.290  41.914  12.432
17006W        W85380  24.610  39.431  13.016
17007W        W85381  42.821  19.227   1.863
17008W        W85382  32.527  23.606  11.984
17009W        W85383  44.274  41.419  12.006
17010W        W85384  41.910   4.700  14.471
17011W        W85385  25.053  21.556  12.871
17012W        W85386   9.758  22.168  10.621
17013W        W85387  36.860  44.965   1.439
17014W        W85388  34.602  39.925   1.385
17015W        W85389   7.719  35.504   3.868
17016W        W85390   1.871   8.406   0.880
17017W        W85391  35.516   9.794   2.179
17018W        W85392  19.155   5.193  13.984
17019W        W85393  38.995   2.841   1.313
17020W        W85394  27.153  23.503  13.361
17021W        W85395  26.194   8.239   4.169
17022W        W85396  31.952   3.711  13.415
17023W        W85397  29.613  43.980   3.367
17024W        W85398  43.999  10.150  14.822
17025W        W85399  44.798  23.566  13.050
17026W        W85400   2.764  17.726  10.490
17027W        W85401  33.488  43.282  13.497
17028W        W85402  44.867  35.047  10.888
17029W        W85403  41.009  12.259  14.351
17030W        W85404  13.335  26.518  11.997
17031W        W85405  14.269  44.268  14.500
17032W        W85406  14.767  17.253  12.033
17033W        W85407   6.317  24.033  14.789
17034W        W85408  14.313  39.822  13.859
17035W        W85409  36.438  30.476  14.936
17036W        W85410   0.902  17.254  12.348
17037W        W85411  23.237  21.105  14.855
17038W        W85412  42.428  19.704  12.033
17039W        W85413   4.427  12.779   3.694
17040W        W85414  33.457   4.761   0.416
17041W        W85415  37.025  17.142   0.812
17042W        W85416   1.270  29.487  10.611
17043W        W85417  32.526  20.655  13.536
17044W        W85418  41.444  40.364  12.870
17045W        W85419   7.243  41.962   1.253
17046W        W85420  39.003  36.960   1.814
17047W        W85421   5.832  35.487  12.358
17048W        W85422  23.212  29.604  12.079
17049W        W85423   5.735  22.685  12.978
17050W        W85424   6.824  27.108   4.269
17051W        W85425  35.389  43.355  12.498
17052W        W85426  37.514  44.411   2.895
17053W        W85427  28.093   4.427  14.825
17054W        W85428   3.387   8.692  12.472
17055W        W85429  36.013  39.321   4.703
17056W        W85430  13.337  28.642   2.754
17057W        W85431  32.554  44.327   4.721
17058W        W85432  14.288   0.826   1.223
17059W        W85433  27.541  33.485  11.413
17060W        W85434   4.828  27.526   2.216
17061W        W85435   3.783   0.425  13.870
17062W        W85436  37.040  30.946  11.070
17063W        W85437  44.385  14.730  11.418
17064W        W85438  31.638  29.082  14.019
17065W        W85439  28.504   8.713  13.854
17066W        W85440   1.894  21.261  12.339
17067W        W85441   2.908  11.668  10.989
17068W        W85442   1.405  42.319  11.989
17069W        W85443   0.297  13.643   3.652
17070W        W85444  42.905  27.541   1.770
17071W        W85445  40.919  19.610  13.934
17072W        W85446   2.396  37.410   4.174
17073W        W85447   6.304  25.618   5.290
17074W        W85448  25.570   5.417   3.199
17075W        W85449  12.723  41.376  13.391
17076W        W85450  25.198  13.351   2.386
17077W        W85451  15.787   4.703   2.190
17078W        W85452  12.833   0.318   0.277
17079W        W85453  16.771  22.188  12.879
17080W        W85454   6.802  17.681  13.484
17081W        W85455  38.491  43.899   2.779
17082W        W85456   4.713  16.144  11.963
17083W        W85457   6.346  16.160   4.222
17084W        W85458  11.270  36.923   3.153
17085W        W85459   7.799  34.609  13.937
17086W        W85460   6.270   1.920   1.756
17087W        W85461  18.682  43.394  13.428
17088W        W85462  25.470  15.292   3.857
17089W        W85463  10.854  18.150   5.121
17090W        W85464  36.000  30.570  14.447
17091W        W85465  12.339  35.378   0.417
17092W        W85466  11.189  44.787   3.370
17093W        W85467  38.411  43.412  10.475
17094W        W85468  29.064  25.588   1.285
17095W        W85469  30.532  11.768   1.919
17096W        W85470  30.957  34.565  11.435
17097W        W85471   7.381  10.840   1.309
17098W        W85472  35.469  43.502   1.267
17099W        W85473   5.913  17.286  14.773
17100W        W85474  18.699  13.672   4.271
17101W        W85475  23.186  38.423  12.836
17102W        W85476  14.617   2.369  13.893
17103W        W85477  38.450  26.533   0.840
17104W        W85478  31.492  37.422   3.311
17105W        W85479  24.715  15.190  13.378
17106W        W85480  23.031  26.477  14.990
17107W        W85481  28.939  10.243   4.271
17108W        W85482   1.744   2.344   4.330
17109W        W85483   6.428   3.880   2.271
17110W        W85484  39.044   4.431   1.756
17111W        W85485  28.174   4.888   4.248
17112W        W85486  18.594  32.037  11.450
17113W        W85487  39.402   7.222   9.937
17114W        W85488  35.997  14.758   4.797
17115W        W85489  41.845  15.679   0.781
17116W        W85490  36.349   1.969   4.221
17117W        W85491  11.178  17.112   2.357
17118W        W85492   3.220  35.385  11.536
17119W        W85493  12.637  29.544  10.541
17120W        W85494   1.921  19.196  14.388
17121W        W85495  43.798  38.019  13.474
17122W        W85496   5.417  22.197   2.745
17123W        W85497  40.040  34.520   2.200
17124W        W85498  18.710  19.596  10.152
17125W        W85499  34.997   6.294   5.234
17126W        W85500   1.753  25.584  14.774
17127W        W85501   6.708  40.859  10.458
17128W        W85502  29.504  25.002  13.466
17129W        W85503  30.952  37.359  13.990
17130W        W85504  40.878  37.403  13.502
17131W        W85505   9.188  40.357   1.433
17132W        W85506  25.171  16.216  12.355
17133W        W85507  39.422  15.643   1.827
17134W        W85508   8.838  26.981  13.362
17135W        W85509  20.632  28.974  13.845
17136W        W85510  34.044   4.269  10.601
17137W        W85511  41.869  18.275   4.138
17138W        W85512  43.377  16.216   4.142
17139W        W85513  16.802  43.889  10.543
17140W        W85514   5.289  22.201   4.214
17141W        W85515   4.766  39.408   4.210
17142W        W85516  13.824  23.136  11.006
17143W        W85517  36.490  41.468   0.409
17144W        W85518   2.864   4.924  14.983
17145W        W85519  25.978  27.562   0.929
17146W        W85520   8.672  43.506  11.545
17147W        W85521   2.302  39.526   3.224
17148W        W85522  16.791  41.511   2.704
17149W        W85523  34.573  31.633   1.777
17150W        W85524  23.687  10.213  13.986
17151W        W85525  20.691  25.534  12.074
17152W        W85526   6.220  41.803  13.469
17153W        W85527  21.161  13.129   0.891
17154W        W85528  33.597  26.115   4.682
17155W        W85529  21.193  24.646  11.389
17156W        W85530  38.878  21.032   5.256
17157W        W85531  12.721   5.211  13.493
17158W        W85532  27.506   6.409  14.836
17159W        W85533  27.000   0.464  10.155
17160W        W85534  15.725  14.100  14.777
17161W        W85535  25.203   7.401   3.736
17162W        W85536  41.459  35.036   3.274
17163W        W85537  21.087  41.991  13.464
17164W        W85538   5.704   5.321   0.438
17165W        W85539  14.830  35.852  12.045
17166W        W85540  22.135   4.916   4.249
17167W        W85541   6.706  18.172   0.470
17168W        W85542   0.761  21.090  11.610
17169W        W85543  17.703  30.030  12.357
17170W        W85544   8.246   2.800  11.459
17171W        W85545  11.623   9.168   1.449
17172W        W85546   0.276  29.525   1.422
17173W        W85547  27.631   9.813  10.542
17174W        W85548  14.234  12.258   1.890
17175W        W85549   6.254  27.491   3.265
17176W        W85550   1.386   8.309  14.404
17177W        W85551  35.934  33.438  12.349
17178W        W85552  32.595  22.006   2.673
17179W        W85553  14.096  24.711   3.279
17180W        W85554  25.592   0.902   2.193
17181W        W85555  29.032   0.333  10.034
17182W        W85556  16.276  27.570  14.885
17183W        W85557   6.214  42.350   2.339
17184W        W85558  36.985   8.223  14.804
17185W        W85559  10.221  25.185  10.131
17186W        W85560   0.929  17.268  13.318
17187W        W85561  28.969  33.896  13.546
17188W        W85562  11.351  38.485  11.565
17189W        W85563  19.603  25.482  10.953
17190W        W85564   0.300  26.550   1.836
17191W        W85565  14.783  10.795  10.950
17192W        W85566  15.598  23.668  14.505
17193W        W85567  21.568  26.532  10.548
17194W        W85568  35.374  36.947  14.000
17195W        W85569  35.530  27.104  13.450
17196W        W85570  32.977  39.323   3.344
17197W        W85571  18.687  36.077  14.410
17198W        W85572  17.083  43.995  12.383
17199W        W85573  29.483   8.317   2.836
17200W        W85574   0.877   4.935  13.802
17201W        W85575  34.899  17.080   0.902
17202W        W85576  43.506   5.397  11.119
17203W        W85577  34.937   3.379  10.590
17204W        W85578  12.270  43.296  11.559
17205W        W85579   2.280  43.881   3.267
17206W        W85580  39.493  12.841   1.847
17207W        W85581   2.408  27.608  12.402
17208W        W85582   4.796   2.410   3.204
17209W        W85583  38.386   0.401   3.861
17210W        W85584  23.160   8.178  10.470
17211W        W85585  10.250   0.264  13.359
17212W        W85586  43.401  18.059  11.903
17213W        W85587  37.368  14.813   1.381
17214W        W85588  44.273   8.668  13.039
17215W        W85589  13.719  10.280   9.946
17216W        W85590  15.638   0.300   2.684
17217W        W85591  24.675  16.731   1.804
17218W        W85592  37.387  39.407   3.356
17219W        W85593  38.383  30.520   4.655
17220W        W85594  23.612  36.954  12.453
17221W        W85595  14.143  22.629   2.857
17222W        W85596  11.239  24.674  14.471
17223W        W85597  23.995  25.198   1.326
17224W        W85598  27.595   8.686  10.583
17225W        W85599  15.690  30.523   0.879
17226W        W85600  40.336   7.260   4.634
17227W        W85601  31.501  39.317   2.284
17228W        W85602  27.187   2.910  14.764
17229W        W85603  35.109  12.149   0.410
17230W        W85604  43.810  35.940   3.294
17231W        W85605  20.648  10.779  11.914
17232W        W85606  40.458   9.672  10.929
17233W        W85607  26.677   4.879  14.913
17234W        W85608  14.094  20.675   4.643
17235W        W85609  15.719  29.168  11.916
17236W        W85610  38.469  23.076   3.781
17237W        W85611  27.690  24.088   2.768
17238W        W85612  34.559  31.040  10.599
17239W        W85613  36.018  38.955  11.980
17240W        W85614   6.330   7.762  12.518
17241W        W85615  37.897   7.818   3.338
17242W        W85616   9.381   4.220  14.923
17243W        W85617   3.917  40.853   0.928
17244W        W85618   4.908  40.972   0.353
17245W        W85619  43.918   6.822  14.507
17246W        W85620  27.126  39.976   3.367
17247W        W85621  33.111  22.714   0.879
17248W        W85622  21.139  15.168  12.875
17249W        W85623  21.664   6.705  12.569
17250W        W85624  20.607  16.571  12.978
17251W        W85625  25.685  13.276   1.246
17252W        W85626   5.245  17.682   1.724
17253W        W85627  28.661  16.780   1.883
17254W        W85628   7.247   1.805   0.411
17255W        W85629  31.068  18.735   4.337
17256W        W85630   7.292   3.801  13.841
17257W        W85631  20.684  35.549  13.945
17258W        W85632  23.690  23.038  11.506
17259W        W85633  42.913   8.211  13.498
17260W        W85634   0.400  20.617   3.217
17261W        W85635  18.589  21.589  13.404
17262W        W85636  11.303  15.811  11.482
17263W        W85637  22.069  32.547   4.737
17264W        W85638   7.798  19.675  12.988
17265W        W85639  39.966   7.213  10.562
17266W        W85640   6.335   5.762   4.624
17267W        W85641  12.301  41.982   3.653
17268W        W85642   8.191  22.667  13.348
17269W        W85643  11.340  19.278   1.238
17270W        W85644   8.681  26.045   1.245
17271W        W85645   1.741  13.803   2.880
17272W        W85646   8.816  42.848  10.957
17273W        W85647  10.640  15.633  10.545
17274W        W85648  20.596  31.560  14.813
17275W        W85649  20.216  13.750  12.033
17276W        W85650   9.781   7.756  13.448
17277W        W85651  43.874  13.699   4.784
17278W        W85652  14.745  11.327  13.839
17279W        W85653   7.906  42.322  13.808
17280W        W85654  19.600  17.752   4.115
17281W        W85655  34.892  17.797   4.131
17282W        W85656   9.819  21.654   1.828
17283W        W85657  33.062  24.226   2.231
17284W        W85658  39.039  29.927  11.511
17285W        W85659  32.127   9.744   1.412
17286W        W85660  19.226  32.014   0.884
17287W        W85661  22.107  27.550  11.988
17288W        W85662  26.143  16.694   2.760
17289W        W85663   5.778  22.030   4.775
17290W        W85664  24.513  29.121   1.822
17291W        W85665   5.348  36.846   2.694
17292W        W85666  20.107   3.864  12.549
17293W        W85667  19.189  35.599   2.870
17294W        W85668  36.961  10.359   0.445
17295W        W85669  41.311  22.171  13.360
17296W        W85670  31.639  24.566  10.626
17297W        W85671  40.831  34.044  14.030
17298W        W85672  10.171  32.533  14.401
17299W        W85673  10.682   5.291  14.807
17300W        W85674   9.381  40.946  12.558
17301W        W85675  39.958  11.252  14.968
17302W        W85676  28.160  28.549   4.174
17303W        W85677  16.125  14.222   1.224
17304W        W85678  10.275  22.216  14.852
17305W        W85679  11.357  15.247  11.472
17306W        W85680   3.711  33.977  10.932
17307W        W85681  19.681  30.622  13.330
17308W        W85682   2.281   5.707   1.328
17309W        W85683  31.016  26.067   0.288
17310W        W85684  39.392  36.479   3.344
17311W        W85685   7.739  14.821   0.283
17312W        W85686   2.961   4.377  10.907
17313W        W85687  44.455  33.604  13.015
17314W        W85688   4.403  13.329  14.795
17315W        W85689  43.459  31.091   2.267
17316W        W85690  34.067   2.726  12.351
17317W        W85691  33.118  40.304   0.462
17318W        W85692   9.784   8.373   4.822
17319W        W85693  39.047  38.480  12.485
17320W        W85694   1.869  23.067   2.688
17321W        W85695  37.882   0.858  14.405
17322W        W85696  11.850  25.706   4.646
17323W        W85697  40.813   4.316   2.266
17324W        W85698   5.273  20.194   2.319
17325W        W85699   2.241   5.829   2.235
17326W        W85700  24.172  44.392  13.364
17327W        W85701   5.412  19.160  11.498
17328W        W85702  10.248  29.947   0.344
17329W        W85703   3.917  20.230  11.985
17330W        W85704  30.586  38.393   4.702
17331W        W85705  15.764  36.926   0.917
17332W        W85706  15.215   3.326   3.734
17333W        W85707  36.879  14.808   2.752
17334W        W85708  39.052   2.284   5.194
17335W        W85709  15.627  34.610   4.656
17336W        W85710  40.353   2.306   4.666
17337W        W85711  16.217  16.613  12.537
17338W        W85712  40.382  42.884   1.390
17339W        W85713  31.130  41.479  12.062
17340W        W85714   2.279   2.922  12.952
17341W        W85715  34.880  38.549   1.875
17342W        W85716   7.756  22.653  10.009
17343W        W85717  21.104  42.440  10.984
17344W        W85718  13.192  31.644  13.535
17345W        W85719  13.219  28.633   4.275
17346W        W85720  37.483  43.920   4.226
17347W        W85721  17.061  16.203  12.096
17348W        W85722  26.976  17.167   2.187
17349W        W85723   4.810   5.772  13.441
17350W        W85724  36.366   9.787   0.878
17351W        W85725  13.792   9.687   0.735
17352W        W85726  42.352  35.960  14.371
17353W        W85727  39.832   0.303  12.838
17354W        W85728   8.711  44.817  12.345
17355W        W85729  32.988  32.498  13.814
17356W        W85730  25.982  17.563  10.616
17357W        W85731   6.785  39.005  12.371
17358W        W85732  35.923  11.763  14.293
17359W        W85733  16.088  32.890  13.947
17360W        W85734  43.377  16.721   1.354
17361W        W85735  39.817  35.582  11.048
17362W        W85736   1.848  12.755  12.068
17363W        W85737  38.061  36.904   0.260
17364W        W85738  43.463  33.972  12.865
17365W        W85739   8.777   2.469   0.370
17366W        W85740  21.533  28.111   2.898
17367W        W85741  28.533  24.073   1.819
17368W        W85742  15.815  10.850   4.148
17369W        W85743  25.151  25.553  13.415
17370W        W85744  38.886   9.381   2.200
17371W        W85745  30.433   7.776   5.151
17372W        W85746  18.289   5.258   1.825
17373W        W85747   2.359  39.314   3.632
17374W        W85748  25.469  42.810  13.502
17375W        W85749  24.652  34.954   4.234
17376W        W85750  23.223  30.059  13.346
17377W        W85751   6.201   6.809  12.491
17378W        W85752  10.174   3.835  12.445
17379W        W85753  30.118  35.371  12.015
17380W        W85754  31.640  13.624   0.789
17381W        W85755  35.557  32.046   0.957
17382W        W85756  33.581  19.242   4.145
17383W        W85757  18.215  22.170   2.365
17384W        W85758  44.279   1.237  11.550
17385W        W85759  39.380  40.412   4.749
17386W        W85760   3.931  37.417  12.923
17387W        W85761  36.970  15.283   0.896
17388W        W85762   8.325  31.005   3.375
17389W        W85763  20.063  19.671  12.007
17390W        W85764   5.228  11.362   2.201
17391W        W85765   3.377   0.756  14.922
17392W        W85766   1.925  14.305   0.852
17393W        W85767  28.013  11.628   0.813
17394W        W85768   5.357  10.857   0.263
17395W        W85769  38.468  30.130  10.917
17396W        W85770  26.023   0.293   1.696
17397W        W85771  42.290  41.521   0.418
17398W        W85772  17.703  35.077  13.538
17399W        W85773  18.776  10.269   5.123
17400W        W85774  32.972  43.956  13.912
17401W        W85775   7.701  21.150  14.353
17402W        W85776  39.973  16.601  14.005
17403W        W85777  37.038   7.691   0.916
17404W        W85778  41.438   2.820   1.270
17405W        W85779   4.751   8.884   1.220
17406W        W85780   4.851  33.380   4.632
17407W        W85781   3.785  34.598   0.413
17408W        W85782  28.680   7.413   2.708
17409W        W85783  36.941  30.040  10.890
17410W        W85784  39.865   3.271  13.384
17411W        W85785   0.907  28.532  11.064
17412W        W85786   5.254  37.871  13.399
17413W        W85787  39.530  37.381  13.418
17414W        W85788  21.111  17.066   3.849
17415W        W85789  42.507   1.881   1.836
17416W        W85790   4.838  22.697  10.974
17417W        W85791  11.306  31.580   1.721
17418W        W85792  18.194  42.855   0.914
17419W        W85793  36.914  14.148   4.136
17420W        W85794  17.245   6.834   2.273
17421W        W85795   8.893  36.534   3.677
17422W        W85796   2.266   9.793  14.357
17423W        W85797  15.646  25.488   0.324
17424W        W85798  17.165   8.255  13.038
17425W        W85799   4.785  26.589   0.958
17426W        W85800  21.599  37.378   5.587
17427W        W85801  18.605  43.347   4.817
17428W        W85802  32.895  41.455  11.035
17429W        W85803   4.307  20.638  14.840
17430W        W85804  37.541  37.069  12.855
17431W        W85805  22.647  38.441   4.685
17432W        W85806  15.190  37.854  11.470
17433W        W85807  11.651  15.670  14.472
17434W        W85808  29.615  16.707   2.397
17435W        W85809  11.202  19.121  13.798
17436W        W85810   4.756  20.077  14.850
17437W        W85811   0.371  27.531   0.396
17438W        W85812  18.571  11.839   3.268
17439W        W85813  24.001   6.787  14.495
17440W        W85814  35.591  40.020   4.662
17441W        W85815   8.225  31.410  11.955
17442W        W85816  24.534  22.194   1.248
17443W        W85817   9.186  34.883   2.282
17444W        W85818  22.071  11.209  11.536
17445W        W85819  28.458  14.632  14.836
17446W        W85820  10.797   4.750  13.917
17447W        W85821  42.390  43.790  11.388
17448W        W85822   2.285  12.278   2.284
17449W        W85823  41.310  10.789   4.235
17450W        W85824   9.204  43.316   3.777
17451W        W85825  14.166  10.846  11.402
17452W        W85826  25.997  16.750  12.353
17453W        W85827  26.065  27.972  11.381
17454W        W85828  27.670  11.216   4.311
17455W        W85829  37.482  25.484   3.661
17456W        W85830  10.365  16.233   3.693
17457W        W85831  23.166  15.671   0.262
17458W        W85832  40.836  22.735  10.972
17459W        W85833  37.562  26.113   3.277
17460W        W85834  13.277   0.799  12.354
17461W        W85835  43.380  42.496  12.446
17462W        W85836  26.475  28.544   1.843
17463W        W85837  16.774  26.633   3.672
17464W        W85838  21.036  19.595  10.611
17465W        W85839  43.462  30.534  14.303
17466W        W85840   7.703  28.521  12.849
17467W        W85841  32.521  27.647   1.282
17468W        W85842  21.190  38.935  13.966
17469W        W85843   8.195  41.897   0.813
17470W        W85844  22.501  35.456  13.390
17471W        W85845  44.291  43.494   4.204
17472W        W85846   9.751  42.405  10.557
17473W        W85847  10.165   6.195   1.840
17474W        W85848  27.061  33.899   0.905
17475W        W85849  39.022  20.239  13.446
17476W        W85850   6.190   3.393  12.365
17477W        W85851  20.064  25.970  14.451
17478W        W85852  23.661  31.106  12.369
17479W        W85853  39.005   8.839   3.727
17480W        W85854  25.156   3.880  13.323
17481W        W85855  40.304   1.930  10.903
17482W        W85856  34.059  17.684   3.787
17483W        W85857  32.942  20.759  12.470
17484W        W85858  35.930  39.007  14.810
17485W        W85859   5.304  42.905  13.331
17486W        W85860  37.337  39.032  13.343
17487W        W85861  37.455  34.117   3.845
17488W        W85862  30.530  16.625  11.505
17489W        W85863  28.164   5.912   1.367
17490W        W85864  11.180  31.573   2.841
17491W        W85865  20.763  39.444   5.267
17492W        W85866  12.136  29.926  13.809
17493W        W85867  39.431  27.954  14.874
17494W        W85868  41.996  33.523  12.344
17495W        W85869  17.135  44.482   3.315
17496W        W85870  21.584  15.236  12.942
17497W        W85871  17.791   7.383  13.399
17498W        W85872   5.928  40.847   3.169
17499W        W85873  42.810  34.073   4.658
17500W        W85874  41.292  38.921   2.786
17501W        W85875   1.278  24.146   3.695
17502W        W85876  26.044   0.384  12.563
17503W        W85877  27.179   5.827   1.376
17504W        W85878  16.746   2.445  11.109
17505W        W85879  12.757  44.304  10.585
17506W        W85880  25.599  27.631  14.449
17507W        W85881   1.271  22.504  13.845
17508W        W85882  34.560  12.200   2.301
17509W        W85883  38.008  43.412   1.233
17510W        W85884  33.447  10.853   3.700
17511W        W85885  38.894   1.790   1.914
17512W        W85886  25.074  27.687  14.419
17513W        W85887  11.847  36.925  14.411
17514W        W85888  36.469  17.601   2.717
17515W        W85889  18.760  18.152   0.419
17516W        W85890  36.564   8.261  13.968
17517W        W85891   6.866   4.923   4.612
17518W        W85892  13.232  44.888  11.863
17519W        W85893   4.359   3.740   1.724
17520W        W85894  24.578  38.540   4.650
17521W        W85895  19.268   1.280  10.485
17522W        W85896  23.091   5.338   2.230
17523W        W85897  24.184  28.670   2.220
17524W        W85898   8.741  44.796   3.705
17525W        W85899   4.887  28.564  10.519
17526W        W85900  32.562  30.650   1.696
17527W        W85901  10.810  14.801   2.669
17528W        W85902   9.810  10.850  13.800
17529W        W85903  40.395  20.560  11.095
17530W        W85904  26.674   8.719   2.733
17531W        W85905  21.134   6.728   0.771
17532W        W85906  25.170  35.451   0.795
17533W        W85907  24.627  33.943  12.878
17534W        W85908  11.296  30.599   4.329
17535W        W85909  31.613  30.926   3.178
17536W        W85910  14.682   8.665   4.628
17537W        W85911  25.631  31.010  12.434
17538W        W85912  15.695  18.612  12.892
17539W        W85913  18.647  38.984  14.029
17540W        W85914   8.371  42.505   2.753
17541W        W85915   4.432  20.174   0.317
17542W        W85916  23.697  32.105  12.506
17543W        W85917  11.818  33.931   3.727
17544W        W85918  39.397  25.189   3.189
17545W        W85919  24.124  26.101   2.365
17546W        W85920   2.861  38.324  13.478
17547W        W85921   3.421   0.859  13.022
17548W        W85922  24.175  37.872   3.764
17549W        W85923  27.670  40.858  14.909
17550W        W85924  17.594  34.526  12.979
17551W        W85925  32.429   8.320  12.004
17552W        W85926   6.405  32.958  14.916
17553W        W85927  24.690  13.123   2.764
17554W        W85928  26.473   9.236  11.077
17555W        W85929  17.162  10.828  11.903
17556W        W85930  12.746  28.146  13.020
17557W        W85931  10.837   1.359  12.533
17558W        W85932  16.774  35.381  10.986
17559W        W85933   3.383  27.947  10.926
17560W        W85934  17.560  12.359   2.846
17561W        W85935  12.352  18.073  13.501
17562W        W85936   0.784  33.580  10.587
17563W        W85937  13.161  24.186  14.932
17564W        W85938   6.853  39.855   1.746
17565W        W85939  40.944  43.944   0.745
17566W        W85940  22.146  40.960  11.545
17567W        W85941   9.390  38.905   4.301
17568W        W85942  20.672  13.255   1.851
17569W        W85943  42.472   6.807  11.395
17570W        W85944   1.777  21.092   4.738
17571W        W85945   3.328   3.426  13.017
17572W        W85946  40.326   0.982   3.697
17573W        W85947  10.144  16.594  10.967
17574W        W85948  37.397  20.207  12.500
17575W        W85949  24.091  29.998   4.132
17576W        W85950  24.076   5.728  11.427
17577W        W85951   9.749  39.438  12.848
17578W        W85952  35.959  16.645  12.541
17579W        W85953   9.782   3.919  14.369
17580W        W85954  20.079   9.882  13.543
17581W        W85955  29.134  12.359   1.411
17582W        W85956  22.248  33.071  12.826
17583W        W85957  23.213  23.712   0.345
17584W        W85958  26.056  28.474   0.731
17585W        W85959  14.101  33.620  13.319
17586W        W85960   3.885   5.285   1.250
17587W        W85961  33.447  44.354   2.817
17588W        W85962  26.535   6.876   3.313
17589W        W85963  19.281  33.878   1.766
17590W        W85964  37.539  38.056   1.310
17591W        W85965  16.813  27.469  13.524
17592W        W85966  37.489  29.605  13.843
17593W        W85967  19.689  16.265   3.745
17594W        W85968  32.493   3.891   0.967
17595W        W85969  25.045   5.810   1.881
17596W        W85970  30.476  14.664   4.240
17597W        W85971   1.741  14.250   5.177
17598W        W85972  28.045  37.505  13.352
17599W        W85973  26.134  31.607   1.920
17600W        W85974  44.873  17.730   0.829
17601W        W85975  32.582  41.293  14.376
17602W        W85976   0.465  38.536  13.943
17603W        W85977  38.878  33.582   0.795
17604W        W85978   4.941   5.816  12.554
17605W        W85979  20.131  41.975  14.309
17606W        W85980  40.872  30.131   4.208
17607W        W85981  43.506  38.455  10.594
17608W        W85982   8.654  16.285   1.697
17609W        W85983  41.812  41.303  10.636
17610W        W85984   1.785  31.137  11.530
17611W        W85985  25.091  27.643   4.346
17612W        W85986  15.818  27.689   1.723
17613W        W85987   7.287  23.103   2.880
17614W        W85988  32.482  15.593  13.912
17615W        W85989  44.401  44.366   4.745
17616W        W85990   9.352   3.438  10.530
17617W        W85991  28.100  28.124   1.718
17618W        W85992  43.479   4.275   1.286
17619W        W85993  14.696  36.456   2.811
17620W        W85994   9.766   6.229   0.403
17621W        W85995  24.214  19.160  10.565
17622W        W85996  18.604  16.120  14.920
17623W        W85997   1.443  37.365   3.706
17624W        W85998  42.954  10.661   0.924
17625W        W85999  40.952   8.815  11.946
17626W        W86000  27.634  40.995   2.794
17627W        W86001  26.559  29.007   2.748
17628W        W86002  25.582   4.788  10.010
17629W        W86003   8.216  38.005  14.791
17630W        W86004  22.523  43.413   1.776
17631W        W86005  14.263   3.912  14.860
17632W        W86006  33.083  20.045  13.531
17633W        W86007  36.869  29.502  13.032
17634W        W86008  12.807  23.017   0.351
17635W        W86009  38.982  29.660   0.800
17636W        W86010  25.597   2.427   3.634
17637W        W86011   9.186   1.796  10.123
17638W        W86012  18.295  14.128   0.480
17639W        W86013  19.656  26.475   4.748
17640W        W86014  16.635   5.437   2.298
17641W        W86015  22.209   5.794  10.476
17642W        W86016   5.899  20.160   4.626
17643W        W86017  32.134  41.422   2.378
17644W        W86018  18.240  36.383   0.905
17645W        W86019   6.250  33.493  10.588
17646W        W86020  27.647  36.072   1.259
17647W        W86021   3.316  33.405   0.839
17648W        W86022   9.760  32.939   1.337
17649W        W86023   3.288  43.901  14.017
17650W        W86024  22.608  19.753  11.404
17651W        W86025  23.534  11.210   4.160
17652W        W86026  43.795   6.858  10.620
17653W        W86027  19.077  17.106  13.799
17654W        W86028  35.995   3.263   2.379
17655W        W86029  37.406  21.032   3.183
17656W        W86030  27.677  20.120  11.866
17657W        W86031  38.476  41.851   4.146
17658W        W86032  11.674  19.683   3.743
17659W        W86033  40.323  31.941   2.336
17660W        W86034   2.733  35.444   2.298
17661W        W86035  25.987  37.506   0.430
17662W        W86036   0.963  34.578   4.628
17663W        W86037   5.299  34.039   3.746
17664W        W86038  17.566  29.948  13.006
17665W        W86039  23.549  29.019  14.886
17666W        W86040  15.676   1.275  13.808
17667W        W86041  17.104  29.536   0.866
17668W        W86042  43.809  28.110  12.409
17669W        W86043   7.756  19.205   3.222
17670W        W86044  33.453  26.458  14.331
17671W        W86045  38.074  22.017  12.369
17672W        W86046  13.134   3.222   5.105
17673W        W86047  20.602  27.480   4.202
17674W        W86048  40.000  15.768  14.867
17675W        W86049  43.888  26.466  11.021
17676W        W86050  29.634  12.231  12.481
17677W        W86051  29.536  36.417  10.507
17678W        W86052  39.825  23.601  11.056
17679W        W86053   5.883  12.639   3.267
17680W        W86054   5.695  19.169  13.981
17681W        W86055  31.980  18.121   1.370
17682W        W86056  35.526  33.030   2.844
17683W        W86057  29.051   0.874   0.431
17684W        W86058   6.206  18.102   2.200
17685W        W86059  23.548  43.768  13.495
17686W        W86060  16.125   0.955  10.909
17687W        W86061  18.660  29.042  11.957
17688W        W86062  27.114   0.817   0.775
17689W        W86063  38.524   3.799   1.308
17690W        W86064   6.860  34.940   0.318
17691W        W86065   0.376  24.635   0.298
17692W        W86066  35.505   8.398   4.167
17693W        W86067  37.436  29.496  14.907
17694W        W86068  35.879  23.732   2.229
17695W        W86069  36.520  18.767  14.030
17696W        W86070   0.742  27.595  14.285
17697W        W86071  12.257  12.196   1.851
17698W        W86072  33.379   7.887  10.106
17699W        W86073  14.653  32.078  14.289
17700W        W86074  14.176   1.902   2.301
17701W        W86075  38.499  22.637   4.124
17702W        W86076  20.037  10.183  10.039
17703W        W86077  11.333  19.662   1.922
17704W        W86078   2.445   0.895  14.004
17705W        W86079  22.087  13.305  12.502
17706W        W86080  27.464  14.751  12.443
17707W        W86081  21.202  26.694  12.075
17708W        W86082  30.421  33.503  12.954
17709W        W86083  38.386   1.921   0.822
17710W        W86084  16.149  38.511  10.920
17711W        W86085  32.547  33.403   4.719
17712W        W86086  21.699  32.991  12.384
17713W        W86087  30.474  40.949   4.183
17714W        W86088  37.429   4.430  12.544
17715W        W86089  33.891   8.363  12.986
17716W        W86090  19.089   1.950   0.785
17717W        W86091  21.235  28.447   1.889
17718W        W86092  27.118   2.391  13.476
17719W        W86093   9.382  28.655  11.082
17720W        W86094  39.009  14.610  12.559
17721W        W86095  11.274  35.990   3.846
17722W        W86096  22.557  25.005  14.787
17723W        W86097  43.974  23.205   2.362
17724W        W86098  18.644  11.275   2.682
17725W        W86099  21.178   5.421  14.490
17726W        W86100  18.174  41.511   2.264
17727W        W86101  10.866   8.210  13.985
17728W        W86102  29.428   8.321  14.392
17729W        W86103  37.442  41.335   0.257
17730W        W86104  23.696  39.500  14.955
17731W        W86105  37.503  37.007  13.959
17732W        W86106  18.665  32.489   4.742
17733W        W86107  32.958  24.625   3.778
17734W        W86108   5.875  38.367  14.894
17735W        W86109  18.092  25.189   3.784
17736W        W86110  26.070  43.506  10.999
17737W        W86111  34.528  42.508   3.166
17738W        W86112  41.910  36.501  12.514
17739W        W86113   4.773   1.811   4.765
17740W        W86114  22.725   7.228  10.526
17741W        W86115  42.953  37.072   4.286
17742W        W86116  43.299  39.882  12.986
17743W        W86117  40.025   3.405  11.129
17744W        W86118   6.408  12.299  10.457
17745W        W86119  13.704   4.429   4.238
17746W        W86120  22.652  17.090  11.944
17747W        W86121  22.615  23.666   9.924
17748W        W86122  20.538  41.460  14.889
17749W        W86123  31.508   8.752   3.293
17750W        W86124  21.213  17.277   1.390
17751W        W86125   3.810   3.883   0.270
17752W        W86126   6.386  16.695  12.838
17753W        W86127  38.904  13.832   3.341
17754W        W86128   5.231  30.052   1.309
17755W        W86129  25.041  17.101   1.306
17756W        W86130  39.904  41.973   2.685
17757W        W86131  11.652  26.462  14.906
17758W        W86132  36.500  42.950   2.734
17759W        W86133  36.914  42.507  10.889
17760W        W86134  12.764  43.443   1.711
17761W        W86135  10.827  10.730  12.941
17762W        W86136  16.315  23.022   3.798
17763W        W86137  34.451  27.131   2.179
17764W        W86138   6.187  30.020   0.831
17765W        W86139   7.197  41.333  14.777
17766W        W86140  23.235   2.735   4.141
17767W        W86141  31.510  11.234   1.295
17768W        W86142  10.778   2.833   3.689
17769W        W86143  12.744  15.203  10.966
17770W        W86144  22.082  13.259  12.906
17771W        W86145  10.318  19.176   0.257
17772W        W86146  41.965   4.317  13.548
17773W        W86147  13.247  22.033  12.032
17774W        W86148  30.558  32.914  11.093
17775W        W86149  27.109   0.813   3.852
17776W        W86150  16.109  20.604   2.874
17777W        W86151  20.188  21.090   2.334
17778W        W86152   2.759   6.868   2.385
17779W        W86153  19.258  19.649  10.952
17780W        W86154  34.609   9.749   3.865
17781W        W86155   0.268  30.135  10.556
17782W        W86156  16.317  28.652  11.883
17783W        W86157   5.438  32.401  13.479
17784W        W86158  39.423   3.444  11.066
17785W        W86159  22.709   6.375   3.358
17786W        W86160  15.195   8.398   3.156
17787W        W86161  37.406  43.468   2.868
17788W        W86162  17.252  13.730  12.532
17789W        W86163  41.000  19.676   0.458
17790W        W86164  12.158  21.071   3.747
17791W        W86165  35.560  42.017   0.878
17792W        W86166   8.285   9.869   2.225
17793W        W86167  35.095  30.972  11.401
17794W        W86168   0.278  33.482   0.734
17795W        W86169  30.451   6.254  11.058
17796W        W86170  28.599  18.722  12.068
17797W        W86171  19.595  24.168   4.682
17798W        W86172  43.341   2.402   4.194
17799W        W86173   9.685  24.057  11.054
17800W        W86174  36.350  34.950  11.992
17801W        W86175  20.229  32.425   2.416
17802W        W86176   0.291  38.328   1.916
17803W        W86177  17.613  25.546  11.450
17804W        W86178   4.830  40.969   4.768
17805W        W86179   4.335  18.065   2.269
17806W        W86180   5.882   4.425   5.772
17807W        W86181  24.554  23.075  10.497
17808W        W86182  18.259  30.972   3.155
17809W        W86183   8.866   5.267  13.992
17810W        W86184  28.996  13.284   4.341
17811W        W86185  38.842  22.226   3.678
17812W        W86186  25.482  37.924   2.740
17813W        W86187  40.886  39.328   2.304
17814W        W86188   4.331  18.274   0.810
17815W        W86189  19.574  28.555   4.621
17816W        W86190  23.130   7.800  14.362
17817W        W86191  25.087  10.301   1.747
17818W        W86192  26.631  20.226   2.801
17819W        W86193  42.434  38.470   0.849
17820W        W86194  16.716  32.128  12.859
17821W        W86195   6.709  39.326  11.855
17822W        W86196  37.021  40.974  13.953
17823W        W86197  38.058  16.782  12.536
17824W        W86198  20.178  36.929   0.742
17825W        W86199  36.441  20.248   2.884
17826W        W86200  42.941   5.892   1.785
17827W        W86201  25.141   8.841   1.817
17828W        W86202  35.482  44.299  11.891
17829W        W86203  41.986   4.316   1.774
17830W        W86204  33.611  29.171  14.982
17831W        W86205   8.196  28.636  10.020
17832W        W86206  25.538  21.223  13.995
17833W        W86207  10.832  11.323  13.859
17834W        W86208   8.848   0.404   3.219
17835W        W86209  44.449  26.511  12.447
17836W        W86210   4.378  34.082  14.833
17837W        W86211  28.492  13.241   2.766
17838W        W86212  23.508  36.001   2.375
17839W        W86213  17.068  29.032   0.882
17840W        W86214  31.970   2.334   0.353
17841W        W86215  12.780  32.933   0.802
17842W        W86216  29.458   2.869  12.929
17843W        W86217  42.924  31.498  11.527
17844W        W86218   3.447  30.953  10.980
17845W        W86219  13.305  32.450  13.823
17846W        W86220  20.659  14.830  12.887
17847W        W86221  17.160   9.650  11.485
17848W        W86222  16.188  44.961   2.237
17849W        W86223  33.996  18.653  13.857
17850W        W86224  25.021  15.120   2.351
17851W        W86225  10.343  27.563  10.420
17852W        W86226  19.755  23.583  14.911
17853W        W86227  42.016   7.871  14.511
17854W        W86228   0.940  36.555   1.900
17855W        W86229  13.240  27.565   1.769
17856W        W86230  30.570  13.106   2.394
17857W        W86231  30.651  28.056   4.822
17858W        W86232  12.852   7.348   0.758
17859W        W86233   2.899  36.085  13.910
17860W        W86234  16.104  43.934   3.851
17861W        W86235  25.172   1.247   4.779
17862W        W86236  30.039  18.178  14.849
17863W        W86237  23.509  37.504  14.809
17864W        W86238  30.972  36.045  13.540
17865W        W86239  24.554  29.656  11.573
17866W        W86240  38.072  14.786   4.729
17867W        W86241   0.490   0.826  12.048
17868W        W86242  22.568  10.276   4.611
17869W        W86243  34.031  29.622   1.913
17870W        W86244  32.564  37.463  13.833
17871W        W86245  42.916  24.546  13.978
17872W        W86246   7.877  12.668  11.556
17873W        W86247  31.561   5.268  11.035
17874W        W86248  19.775   8.738   2.837
17875W        W86249  25.647  32.048   4.300
17876W        W86250  33.442   3.896   4.187
17877W        W86251  18.092  29.532   3.301
17878W        W86252  37.007  34.870   4.664
17879W        W86253  27.086  30.577  14.281
17880W        W86254   9.888  12.357   2.711
17881W        W86255  42.297  26.966  11.035
17882W        W86256  12.149   1.240   1.366
17883W        W86257   5.882  43.507   2.350
17884W        W86258  43.427  23.692   3.855
17885W        W86259  34.888  18.754   2.231
17886W        W86260  39.870  13.186   1.912
17887W        W86261  15.139  20.596  14.967
17888W        W86262  12.303  29.079  10.983
17889W        W86263  40.807  19.223  12.823
17890W        W86264  43.840   3.862   4.184
17891W        W86265  10.327   3.838  11.914
17892W        W86266  25.710  33.038  10.567
17893W        W86267   7.897  11.295  13.409
17894W        W86268   3.909  37.495  11.934
17895W        W86269   9.149  41.862   4.629
17896W        W86270  20.660  32.519  11.064
17897W        W86271  23.014  28.578  10.909
17898W        W86272  35.404   0.322  14.375
17899W        W86273  37.475   1.384  12.975
17900W        W86274  30.009  42.287  12.040
17901W        W86275   5.757  17.140  11.396
17902W        W86276  30.109  39.496  14.895
17903W        W86277  28.095   5.214  13.387
17904W        W86278  24.479  11.627  13.335
17905W        W86279  12.741   1.922   4.722
17906W        W86280   0.913  11.747   1.903
17907W        W86281  33.542   1.258  14.924
17908W        W86282   9.797  34.466   1.404
17909W        W86283  32.626   4.252  10.430
17910W        W86284  30.996  34.032   3.837
17911W        W86285  43.453  18.062   3.239
17912W        W86286  30.994   2.911  11.442
17913W        W86287  24.216  23.161   4.200
17914W        W86288   2.297  22.096  14.873
17915W        W86289  22.104  38.343  13.421
17916W        W86290  15.218  11.283  10.026
17917W        W86291  36.946   2.888   1.787
17918W        W86292   1.928  39.937   2.756
17919W        W86293   7.695  43.784  10.638
17920W        W86294  13.617   9.829  10.893
17921W        W86295  40.906  24.167   1.302
17922W        W86296  36.861  26.638   2.192
17923W        W86297  41.934  27.076  12.484
17924W        W86298  44.949  24.616  10.498
17925W        W86299   7.270   4.423   2.411
17926W        W86300  26.651  14.162   4.603
17927W        W86301   7.285  26.104  13.852
17928W        W86302  14.668  33.909   4.248
17929W        W86303  40.961  30.507  14.900
17930W        W86304   6.295  11.142  14.002
17931W        W86305  20.569  20.561  14.489
17932W        W86306   3.341  33.613  12.925
17933W        W86307   2.841  35.866   3.727
17934W        W86308  19.588  37.531   3.854
17935W        W86309   5.301  13.250   0.305
17936W        W86310  44.356  27.151   1.761
17937W        W86311  41.300  33.970   1.767
17938W        W86312   0.829   4.354   4.147
17939W        W86313  17.779  40.806   2.319
17940W        W86314  18.287  31.091   2.814
17941W        W86315  33.400  25.130  14.972
17942W        W86316   1.325  16.578   1.846
17943W        W86317  21.669  35.042   1.399
17944W        W86318  40.346  12.757  13.417
17945W        W86319  22.513  31.023  11.563
17946W        W86320  41.997  15.250   2.202
17947W        W86321  16.189  18.751  14.894
17948W        W86322   3.906  31.499   2.328
17949W        W86323  42.781  38.036  12.459
17950W        W86324  10.193  19.671   1.851
17951W        W86325  25.045   2.806   2.708
17952W        W86326  16.262  27.997   1.324
17953W        W86327  42.349   5.285   4.316
17954W        W86328  40.346  12.300   2.778
17955W        W86329  10.817  39.407  14.869
17956W        W86330  35.091  37.452  14.312
17957W        W86331  25.182  35.453   3.662
17958W        W86332  22.141  44.375  11.447
17959W        W86333  41.962  30.109   2.740
17960W        W86334  10.712   1.462   3.310
17961W        W86335  18.208  34.479   3.178
17962W        W86336  19.107  43.012  14.432
17963W        W86337  26.175   0.828   1.917
17964W        W86338   5.361   0.255  10.929
17965W        W86339   5.706  22.216  12.905
17966W        W86340  20.037   4.332   3.723
17967W        W86341  42.348  23.616   2.374
17968W        W86342  28.996  41.859  11.978
17969W        W86343  15.294  35.440  10.954
17970W        W86344  21.647   0.465   0.833
17971W        W86345  22.045  11.729  11.072
17972W        W86346  44.326  21.535   4.256
17973W        W86347  31.897  15.328  10.520
17974W        W86348  13.241   8.700  12.895
17975W        W86349  36.378  17.695  13.506
17976W        W86350   5.887  30.493  12.348
17977W        W86351  25.097  19.157   2.727
17978W        W86352  13.220  20.114   0.324
17979W        W86353  21.566  29.587   3.767
17980W        W86354   3.838  14.607  14.911
17981W        W86355  41.978  23.634   3.335
17982W        W86356   9.708  35.567   2.386
17983W        W86357  11.369  24.557   3.695
17984W        W86358  44.971  23.576  14.762
17985W        W86359  36.390   6.182   4.165
17986W        W86360  21.674   4.351   1.299
17987W        W86361  39.359  44.350  13.959
17988W        W86362  13.301  19.676   2.199
17989W        W86363   5.207  36.559  13.926
17990W        W86364  21.226   2.254   2.769
17991W        W86365  35.994  14.198   3.293
17992W        W86366  15.195  41.513  11.433
17993W        W86367  39.539   2.809   0.896
17994W        W86368  10.152  23.146  12.382
17995W        W86369  42.788  39.439  12.062
17996W        W86370  18.159  32.460  12.058
17997W        W86371  40.347  44.385   0.835
17998W        W86372  11.678  31.595  11.503
17999W        W86373  42.447  26.060   1.237
18000W        W86374  37.556  32.091   2.318
18001W        W86375  18.668  13.335  10.967
18002W        W86376   6.360  16.812  14.408
18003W        W86377  36.527  22.169  12.559
18004W        W86378  27.662  37.476   0.453
18005W        W86379  24.164  32.553   4.333
18006W        W86380  38.051  22.022   1.345
18007W        W86381  25.152  21.142  12.914
18008W        W86382  10.223  17.215   2.736
18009W        W86383  14.798  34.004  14.938
18010W        W86384  39.315  42.925  10.462
18011W        W86385   9.784   8.823  12.847
18012W        W86386  26.995  25.598   4.656
18013W        W86387  38.570  28.015   3.165
18014W        W86388  29.499  31.602  10.610
18015W        W86389  36.593  19.044  13.875
18016W        W86390   9.767   4.244  13.509
18017W        W86391  37.939  31.129   4.231
18018W        W86392  19.190  40.391   0.465
18019W        W86393  35.599   0.337  13.359
18020W        W86394  31.958  13.153  14.499
18021W        W86395  41.959  21.079  13.477
18022W        W86396  16.269   6.403   0.790
18023W        W86397   7.351  27.492  12.567
18024W        W86398  40.515  22.116   1.339
18025W        W86399  44.505  22.539   1.801
18026W        W86400   7.740  12.360  11.946
18027W        W86401   2.763  14.645   4.173
18028W        W86402  14.651  41.441  10.569
18029W        W86403  23.631  20.541   3.159
18030W        W86404  11.194  44.484   4.161
18031W        W86405  31.521  16.778   1.885
18032W        W86406  10.373  17.163  10.970
18033W        W86407  28.952  38.056  10.993
18034W        W86408  20.067  28.531   1.695
18035W        W86409  21.066  37.954   1.757
18036W        W86410  18.208   6.326   1.219
18037W        W86411  18.722  38.856  12.939
18038W        W86412  23.586  21.551   2.848
18039W        W86413  29.511   3.808   4.623
18040W        W86414  30.022   3.792   3.691
18041W        W86415  39.845  17.585  13.481
18042W        W86416  23.124  19.251  11.069
18043W        W86417  34.052  27.649   1.785
18044W        W86418  27.635  12.779   3.847
18045W        W86419  14.240  24.608  11.889
18046W        W86420   7.689  41.011  11.564
18047W        W86421  25.087  43.388  12.938
18048W        W86422   8.871  30.104  12.382
18049W        W86423  29.601  27.167   4.260
18050W        W86424   5.754   3.769   3.862
18051W        W86425  36.959  29.546   0.872
18052W        W86426  25.158  26.498  14.006
18053W        W86427   9.832  26.016   1.801
18054W        W86428   7.244  24.647  13.350
18055W        W86429   4.782  22.008   0.249
18056W        W86430  44.502  39.466   4.771
18057W        W86431  35.470   9.750   0.830
18058W        W86432  14.835   1.843  13.919
18059W        W86433  23.573   5.327   2.407
18060W        W86434  31.055  38.926   0.245
18061W        W86435   0.839  22.064  14.797
18062W        W86436  36.033  28.468  14.808
18063W        W86437  27.994  43.465   0.383
18064W        W86438   1.357  22.132  11.411
18065W        W86439  40.799   1.805   4.282
18066W        W86440  43.984  44.340  14.363
18067W        W86441  20.544  32.073  14.904
18068W        W86442  19.280  31.571   1.738
18069W        W86443  41.018  22.122   3.372
18070W        W86444  40.418  22.555  14.430
18071W        W86445  25.064  29.635   0.937
18072W        W86446  10.382  39.421  14.429
18073W        W86447  32.051   5.879  10.594
18074W        W86448  43.993  26.137   0.300
18075W        W86449   5.227  41.993   4.314
18076W        W86450   2.829   1.732  12.075
18077W        W86451  24.982  25.699  10.430
18078W        W86452  33.947   3.942  13.537
18079W        W86453  20.603  37.417   4.251
18080W        W86454   6.276  19.693   2.802
18081W        W86455   5.789  41.968   2.900
18082W        W86456   5.276   0.901  10.134
18083W        W86457  32.455  29.640  13.836
18084W        W86458  40.027  31.587   3.266
18085W        W86459   2.762  37.923  13.532
18086W        W86460  14.205   2.854   3.726
18087W        W86461  12.850  31.016   3.375
18088W        W86462  44.386  18.209   0.281
18089W        W86463  31.531  44.487  12.016
18090W        W86464   4.784  37.386   3.375
18091W        W86465   4.796  38.549   0.444
18092W        W86466  28.605   7.858   4.677
18093W        W86467   5.876   3.880   1.417
18094W        W86468  21.158  32.563  10.622
18095W        W86469  11.777  15.703  12.857
18096W        W86470  44.853  40.007   2.251
18097W        W86471  10.803   3.814   1.292
18098W        W86472  22.599  28.648   2.726
18099W        W86473  15.137  19.114   4.666
18100W        W86474   2.747   7.765   2.309
18101W        W86475  19.691   5.745   3.843
18102W        W86476  37.434   9.706   4.680
18103W        W86477  39.924  36.998  13.348
18104W        W86478  16.761  18.662   0.750
18105W        W86479  12.838  35.000  12.029
18106W        W86480   0.445  12.320  10.516
18107W        W86481  31.523  27.612   3.257
18108W        W86482  19.552  43.376  14.319
18109W        W86483  24.544   3.363  11.017
18110W        W86484  33.459   5.214   3.174
18111W        W86485  42.319  43.782   3.719
18112W        W86486  18.717  17.555   4.656
18113W        W86487  32.540  44.765   0.434
18114W        W86488   8.655  21.133   9.989
18115W        W86489   2.901  20.141   4.695
18116W        W86490  29.519  13.678   2.227
18117W        W86491  23.034  33.616   1.427
18118W        W86492  13.224  25.975   3.788
18119W        W86493  22.104  13.218  13.389
18120W        W86494   6.791  27.164   2.741
18121W        W86495  12.145  43.839   1.722
18122W        W86496  22.167   3.322  12.959
18123W        W86497  31.604   5.283  13.445
18124W        W86498  43.782  25.496  12.408
18125W        W86499   9.176  15.789  13.008
18126W        W86500  26.621  14.815  13.431
18127W        W86501  29.126  44.988  10.971
18128W        W86502  38.982   7.328   2.361
18129W        W86503  14.610   8.298  11.980
18130W        W86504   0.904  37.919  11.965
18131W        W86505  27.157  38.333   3.652
18132W        W86506  19.681  27.491   4.347
18133W        W86507  37.411  17.621   4.740
18134W        W86508  11.761  18.567   1.820
18135W        W86509  13.300   4.783   2.386
18136W        W86510  21.163  43.385   2.724
18137W        W86511   7.709  14.728   2.813
18138W        W86512   4.288   7.279   2.240
18139W        W86513  40.896  42.520  13.005
18140W        W86514   8.840  39.910  11.122
18141W        W86515   3.901  34.556   1.751
18142W        W86516  11.183  33.501   0.876
18143W        W86517  44.270  14.732   4.617
18144W        W86518  37.952  44.459   0.446
18145W        W86519   7.746  27.452  14.448
18146W        W86520   3.808  38.334  10.449
18147W        W86521  26.666  31.092  14.018
18148W        W86522  33.083   0.862  11.979
18149W        W86523  33.408  33.924  13.490
18150W        W86524   4.756  29.170  13.400
18151W        W86525  14.700  25.983   3.342
18152W        W86526  22.039  18.275   2.283
18153W        W86527  40.014   5.896   3.217
18154W        W86528   9.794   2.754  11.941
18155W        W86529  35.013  27.125  14.302
18156W        W86530   8.191   6.686  12.011
18157W        W86531  20.242  18.052   2.209
18158W        W86532  18.686   3.904   4.689
18159W        W86533  20.029  25.987   0.739
18160W        W86534  22.201  26.062   2.348
18161W        W86535  32.613   4.313   2.862
18162W        W86536  28.177  23.493  12.496
18163W        W86537  25.666  18.263   1.895
18164W        W86538  24.165  36.041   9.948
18165W        W86539  11.713  21.029  13.933
18166W        W86540  21.738  22.014  13.827
18167W        W86541   3.241  24.484  10.568
18168W        W86542  44.982   1.409  11.394
18169W        W86543  17.629  15.190   1.911
18170W        W86544  36.547  40.339   2.294
18171W        W86545  38.918   5.852  10.406
18172W        W86546  42.470  37.005   0.333
18173W        W86547  31.504   6.797   4.151
18174W        W86548  36.546  38.052   1.741
18175W        W86549  36.033   3.352   1.213
18176W        W86550  37.466  42.293  11.559
18177W        W86551  22.090  14.631  13.337
18178W        W86552  35.867  15.790   0.877
18179W        W86553  31.414  12.837  14.373
18180W        W86554  33.977  33.095   1.811
18181W        W86555  14.134  16.658   2.402
18182W        W86556  43.343  22.553   4.273
18183W        W86557  32.552  30.487   4.814
18184W        W86558   1.731  32.131   3.324
18185W        W86559  26.053  42.486   4.254
18186W        W86560  14.665  20.570   3.234
18187W        W86561   9.669  37.936  13.410
18188W        W86562  36.084  30.626  12.453
18189W        W86563  27.174  25.507   3.246
18190W        W86564  33.603  35.495  12.463
18191W        W86565  44.400  18.669   3.725
18192W        W86566  11.203   4.756  11.122
18193W        W86567   2.830  44.273  12.467
18194W        W86568  14.671  30.917   2.771
18195W        W86569   9.186  21.562  11.373
18196W        W86570   7.394  44.374   2.237
18197W        W86571   2.852  41.430   0.872
18198W        W86572  35.937  32.395   1.912
18199W        W86573   3.405   7.788   3.327
18200W        W86574  34.087  35.447  14.344
18201W        W86575  34.577  41.883   3.766
18202W        W86576  35.369  26.992   2.785
18203W        W86577  23.136  12.143   1.373
18204W        W86578  42.969  39.888   0.331
18205W        W86579  24.510   5.325   0.932
18206W        W86580   1.949  40.827  12.406
18207W        W86581  26.106  28.522  11.455
18208W        W86582  29.549  17.165  10.609
18209W        W86583  21.540  38.056  10.068
18210W        W86584  38.835  21.220   4.750
18211W        W86585  26.040   2.298  13.847
18212W        W86586  23.207  36.530   4.833
18213W        W86587  21.657  36.450   2.879
18214W        W86588   2.320   7.710  10.499
18215W        W86589  19.100  15.214   1.325
18216W        W86590  15.593  38.537  14.869
18217W        W86591  25.504  39.951   1.781
18218W        W86592   1.862  20.254  12.041
18219W        W86593  13.202  15.662   3.286
18220W        W86594  36.068  24.631   2.202
18221W        W86595  30.560  44.448   3.833
18222W        W86596  35.933  26.157  14.847
18223W        W86597  30.544  10.257  13.048
18224W        W86598  35.487  30.467  12.065
18225W        W86599   7.358  32.997   3.171
18226W        W86600  18.656  37.437   0.774
18227W        W86601   0.428  20.234   0.292
18228W        W86602   1.847   4.214  13.381
18229W        W86603  16.758  16.760  11.066
18230W        W86604   5.415  37.459   2.706
18231W        W86605  15.205   1.418  10.572
18232W        W86606  25.485  12.275  10.635
18233W        W86607  30.155   0.303   5.739
18234W        W86608  18.082  32.963   1.438
18235W        W86609  30.018   1.251  11.603
18236W        W86610  30.097  19.150  14.891
18237W        W86611  18.121  27.660   3.748
18238W        W86612  22.192  21.034  13.437
18239W        W86613  28.136   0.331  13.814
18240W        W86614  27.110   7.827  13.956
18241W        W86615  31.020  42.425   0.780
18242W        W86616  27.641  37.025  10.501
18243W        W86617  38.972   5.367   3.735
18244W        W86618  27.036  20.647   4.244
18245W        W86619   9.249  10.800  14.019
18246W        W86620   4.771   5.864   4.807
18247W        W86621   0.853  12.252   0.943
18248W        W86622  32.457  18.182   0.306
18249W        W86623  28.126  18.775  12.094
18250W        W86624   9.704  10.357  14.919
18251W        W86625  38.380  10.749   4.118
18252W        W86626  11.259  38.821  14.867
18253W        W86627   2.467  27.514  11.577
18254W        W86628  18.258  23.184  14.965
18255W        W86629  21.186  32.026   4.182
18256W        W86630  25.697  39.065  12.916
18257W        W86631  15.625  11.312  10.895
18258W        W86632  41.923  23.221  10.992
18259W        W86633   8.209  37.421   2.362
18260W        W86634  11.277   4.354  11.507
18261W        W86635  38.046   3.355  14.506
18262W        W86636  10.227   4.718  11.379
18263W        W86637  16.272  30.452   3.646
18264W        W86638   4.289  11.640   4.303
18265W        W86639   3.932  20.270   0.809
18266W        W86640  25.215  30.147   5.199
18267W        W86641  43.364  28.599  11.511
18268W        W86642  12.839  43.497   2.272
18269W        W86643  13.220  32.140   3.640
18270W        W86644  17.101   1.769  13.809
18271W        W86645  22.018  30.648  11.547
18272W        W86646  31.608  13.797   1.223
18273W        W86647  26.008  14.736  14.398
18274W        W86648   4.248  44.011   0.344
18275W        W86649   1.752   3.944   3.349
18276W        W86650  40.871  24.545  13.373
18277W        W86651  31.586  39.537  11.981
18278W        W86652  43.344   6.895  12.836
18279W        W86653  24.018  36.877  13.003
18280W        W86654  27.112  17.710  14.007
18281W        W86655  33.015  37.377  12.875
18282W        W86656  37.420  14.095  11.115
18283W        W86657  10.233   4.384  14.318
18284W        W86658   1.832  23.083  12.470
18285W        W86659   5.933  16.643   2.247
18286W        W86660  31.474   0.391  14.916
18287W        W86661  29.617  18.208  10.114
18288W        W86662  35.081  42.866  14.791
18289W        W86663   1.374  40.010   3.335
18290W        W86664  40.982   0.399   1.229
18291W        W86665  24.513   4.767  11.494
18292W        W86666  31.624   8.241   4.610
18293W        W86667  34.369  22.516  14.405
18294W        W86668  23.518  22.220   1.842
18295W        W86669  25.126  14.241  13.838
18296W        W86670   3.243   2.291  11.612
18297W        W86671  18.663  35.545   4.816
18298W        W86672   8.305  39.940  14.335
18299W        W86673  41.526  15.694  13.419
18300W        W86674  34.521  31.970   0.777
18301W        W86675   2.934  39.477  11.378
18302W        W86676  43.890  29.176   0.832
18303W        W86677  36.432  34.585  10.592
18304W        W86678  43.963  14.224   4.163
18305W        W86679  38.978  21.700  14.027
18306W        W86680  24.537   7.819   2.857
18307W        W86681  38.970   8.736   1.432
18308W        W86682  25.981   4.938   3.242
18309W        W86683  13.617  27.136   2.384
18310W        W86684  15.291  37.018   2.852
18311W        W86685  23.729  41.383   0.423
18312W        W86686   1.886   1.966  12.519
18313W        W86687  25.165   5.778  12.492
18314W        W86688   9.234   4.812  14.833
18315W        W86689  12.294  10.368   1.218
18316W        W86690   0.968  32.885   2.223
18317W        W86691  38.516  27.476   0.873
18318W        W86692  30.949   5.688   3.203
18319W        W86693  36.068  41.531  13.849
18320W        W86694   6.921  18.296  11.860
18321W        W86695  31.514  20.050   0.863
18322W        W86696  33.528   6.379   5.261
18323W        W86697  12.640  37.554  13.382
18324W        W86698  27.676  31.454   0.854
18325W        W86699  32.450  20.663   4.810
18326W        W86700  16.769  36.918   2.707
18327W        W86701  11.797   7.871   1.442
18328W        W86702  41.815  15.595  12.070
18329W        W86703  18.120  39.987   1.728
18330W        W86704  31.028  16.176   0.432
18331W        W86705  40.460  17.790   4.782
18332W        W86706   5.710  16.570   1.696
18333W        W86707  12.276  11.739   0.772
18334W        W86708  44.280  38.369  12.359
18335W        W86709  18.721  36.866  12.092
18336W        W86710  21.645   3.240  13.022
18337W        W86711  11.835  40.872   2.830
18338W        W86712   1.799  11.625   4.189
18339W        W86713  11.634  22.186   0.945
18340W        W86714  31.105   9.256   0.859
18341W        W86715  21.554   0.262  11.474
18342W        W86716  17.648  11.250  14.914
18343W        W86717  32.928  28.935  10.549
18344W        W86718  21.229  13.642  11.020
18345W        W86719   6.284  23.048  12.381
18346W        W86720  38.508  41.367  13.418
18347W        W86721   5.356  37.028   4.690
18348W        W86722   7.286  38.466  14.954
18349W        W86723  16.756  12.620  13.797
18350W        W86724   6.845   0.904  14.857
18351W        W86725  29.554  33.619  12.968
18352W        W86726  28.127  16.640  12.079
18353W        W86727  36.509   3.757   0.945
18354W        W86728   3.771   8.241  12.962
18355W        W86729  11.327   2.312   3.869
18356W        W86730  35.978  30.104  11.868
18357W        W86731  30.094  40.325   4.334
18358W        W86732  23.082  19.590   3.266
18359W        W86733  30.646  40.504   0.818
18360W        W86734  10.342  35.582   4.665
18361W        W86735  20.228  44.941  12.533
18362W        W86736  15.187  14.655   3.188
18363W        W86737  11.255  43.297   2.246
18364W        W86738  26.629  37.008  11.903
18365W        W86739  11.864   4.384  11.020
18366W        W86740  25.665   4.841  12.465
18367W        W86741  39.455  34.563  14.448
18368W        W86742  43.333  23.041   0.250
18369W        W86743   7.330  36.548   2.812
18370W        W86744  41.538  23.649   2.836
18371W        W86745   9.221  29.033  11.404
18372W        W86746  42.507  12.337  12.006
18373W        W86747   5.399   0.839  13.862
18374W        W86748  21.644  40.970   1.876
18375W        W86749  31.979   4.770  11.051
18376W        W86750  16.631  44.898   4.192
18377W        W86751  31.001   6.746  13.503
18378W        W86752  27.197  37.888  11.550
18379W        W86753  30.051  32.041  12.523
18380W        W86754  44.814  40.374   3.800
18381W        W86755   1.425  37.442  11.078
18382W        W86756  22.746  16.597   4.348
18383W        W86757  43.493  14.229   0.358
18384W        W86758   2.335  30.162   2.391
18385W        W86759  30.954  12.288   3.826
18386W        W86760  13.196  19.657  11.001
18387W        W86761  13.275  23.171   0.466
18388W        W86762  25.623  44.835   0.437
18389W        W86763   4.211  42.513   2.404
18390W        W86764  23.637  17.702   4.643
18391W        W86765  23.613  20.123   3.817
18392W        W86766  11.178  37.505   2.687
18393W        W86767  22.120   0.954   2.270
18394W        W86768  39.840  24.100  14.970
18395W        W86769  28.617  14.203  11.501
18396W        W86770  18.642  12.854   4.672
18397W        W86771  44.859  33.119   4.807
18398W        W86772  35.100   2.359  13.376
18399W        W86773  37.495  11.170  11.103
18400W        W86774  22.744  15.579  14.366
18401W        W86775   0.867  39.969   1.349
18402W        W86776  40.840   5.367   1.384
18403W        W86777  15.708  18.701  11.919
18404W        W86778  26.592  24.646  10.522
18405W        W86779  12.751  19.587   4.776
18406W        W86780  41.865  39.852  10.031
18407W        W86781  33.461  39.392  10.603
18408W        W86782  19.596  15.290  13.862
18409W        W86783  40.833  20.034   2.359
18410W        W86784  16.751   2.461   2.323
18411W        W86785   2.332   1.855   4.221
18412W        W86786  19.067  21.038   3.276
18413W        W86787  21.224  30.973  11.592
18414W        W86788  42.426   1.482   2.366
18415W        W86789  10.186   0.890  14.782
18416W        W86790   8.217  31.513  12.844
18417W        W86791  16.767  16.588   3.243
18418W        W86792  38.051  18.070   4.750
18419W        W86793  25.028  32.002   4.623
18420W        W86794  23.991  36.415  13.462
18421W        W86795  15.159  11.143  11.525
18422W        W86796  31.084  39.404   3.633
18423W        W86797  37.917  24.479  10.528
18424W        W86798  11.134  15.647   4.605
18425W        W86799  10.684   7.703  12.993
18426W        W86800  17.730  38.043  11.398
18427W        W86801  25.061  32.995   3.149
18428W        W86802  34.442   5.278   4.730
18429W        W86803  44.848   3.406  13.416
18430W        W86804   1.850  36.472  11.012
18431W        W86805   1.783  22.017   1.373
18432W        W86806  33.545  20.639  13.959
18433W        W86807  18.633  34.021   4.806
18434W        W86808  35.986  36.926   4.299
18435W        W86809  19.549  27.132  10.488
18436W        W86810  43.813  40.840   0.281
18437W        W86811  34.570  42.323  11.923
18438W        W86812  13.229  42.946   2.896
18439W        W86813  11.714   7.214  10.625
18440W        W86814  24.194   2.804   1.376
18441W        W86815  28.678  15.266  12.440
18442W        W86816  19.045   5.201   4.308
18443W        W86817   2.250  13.175  13.369
18444W        W86818  34.038  12.128   2.754
18445W        W86819  11.850   1.826  11.945
18446W        W86820   0.365   7.234  14.504
18447W        W86821  35.559  21.689  10.570
18448W        W86822   0.981  19.742  10.028
18449W        W86823   4.870  13.806   4.692
18450W        W86824  39.340  17.673  14.947
18451W        W86825  12.645   4.835   4.197
18452W        W86826  40.435   1.337   1.213
18453W        W86827   4.312  41.947  10.449
18454W        W86828   0.464  39.475   1.231
18455W        W86829  24.598  19.161  10.429
18456W        W86830   1.901  32.600  11.525
18457W        W86831   0.283  24.480  13.851
18458W        W86832  31.916  35.509  13.514
18459W        W86833   4.724  34.475  11.909
18460W        W86834   4.347  28.467  10.970
18461W        W86835   2.296  14.099  10.441
18462W        W86836  25.593  19.247  14.355
18463W        W86837  35.370  34.076   2.345
18464W        W86838  44.287  28.005  12.007
18465W        W86839  21.581  37.021  11.392
18466W        W86840  36.381  19.179   1.802
18467W        W86841  39.958   2.238   2.877
18468W        W86842  20.058   4.280   1.742
18469W        W86843  44.007   0.343  14.412
18470W        W86844  27.680  29.639   2.319
18471W        W86845  24.488  20.048   0.432
18472W        W86846   2.742  12.829  12.475
18473W        W86847  40.512  44.997  10.542
18474W        W86848   6.196  25.149  11.987
18475W        W86849  23.617  32.960  11.527
18476W        W86850  19.048  23.561   3.378
18477W        W86851  17.711  18.117  12.868
18478W        W86852  19.089   0.281   4.743
18479W        W86853  44.281  39.833   0.857
18480W        W86854  36.461  31.140   0.784
18481W        W86855  41.948  26.005   2.856
18482W        W86856  36.570  41.840   1.396
18483W        W86857   8.899  25.210  11.006
18484W        W86858   3.842  40.457   2.721
18485W        W86859  10.851  17.656  12.516
18486W        W86860  35.532  17.665   3.840
18487W        W86861  22.710  18.059  14.422
18488W        W86862  29.523  39.421   1.417
18489W        W86863   6.802  15.618   1.761
18490W        W86864  19.171  43.383   3.320
18491W        W86865  18.261  41.386  11.481
18492W        W86866  14.812  18.574  10.927
18493W        W86867   8.354  22.078   2.835
18494W        W86868  19.080  42.473   0.462
18495W        W86869  28.935  16.717  13.402
18496W        W86870  30.438   9.351   4.775
18497W        W86871  12.331  20.755   0.878
18498W        W86872  41.397   5.817   3.672
18499W        W86873   4.930  10.689   0.905
18500W        W86874  41.438   2.426   3.870
18501W        W86875  29.634  37.417  11.430
18502W        W86876   6.260  33.447  13.423
18503W        W86877  11.214  11.326  14.490
18504W        W86878   4.733   0.443  12.578
18505W        W86879  29.483  29.530  14.003
18506W        W86880  22.508  20.172  13.916
18507W        W86881  36.388   3.230  10.444
18508W        W86882   4.776  21.597   0.267
18509W        W86883  10.357   4.917   1.401
18510W        W86884  34.921  42.321   2.370
18511W        W86885   1.893  18.770  14.392
18512W        W86886  22.522  15.777  10.114
18513W        W86887  27.086  35.468   1.399
18514W        W86888   7.310  23.043   1.851
18515W        W86889  41.926  43.781  13.345
18516W        W86890  38.368  31.977  14.022
18517W        W86891   1.892  16.735  14.841
18518W        W86892  32.471  22.645  10.998
18519W        W86893  40.531   9.734   3.738
18520W        W86894  41.834  22.592   0.860
18521W        W86895  38.513   0.264   0.856
18522W        W86896  25.985  25.663  14.314
18523W        W86897  15.654  24.678   1.905
18524W        W86898  32.117   0.364  13.881
18525W        W86899  21.655  27.487   2.743
18526W        W86900  32.981  37.072   3.852
18527W        W86901  10.217  30.995   4.646
18528W        W86902   6.831  38.048  12.015
18529W        W86903  10.341  44.951  11.524
18530W        W86904  25.077  22.520  14.769
18531W        W86905  26.511  23.164   2.902
18532W        W86906  16.272  42.385  12.531
18533W        W86907  40.434  40.338  10.479
18534W        W86908  19.668  44.856   4.114
18535W        W86909  10.144  33.999  11.531
18536W        W86910  24.197  37.481   5.201
18537W        W86911  25.543  32.009  11.118
18538W        W86912  10.250  22.200   4.252
18539W        W86913   4.250  15.284   0.872
18540W        W86914  19.618   6.776  14.803
18541W        W86915  36.918  16.716   2.861
18542W        W86916  25.197  35.942   2.214
18543W        W86917  13.247   7.726   2.305
18544W        W86918   7.887  20.752  13.941
18545W        W86919  40.851   6.225   3.230
18546W        W86920  24.638  21.121   2.390
18547W        W86921  13.617   4.887   2.678
18548W        W86922  31.501   6.426  10.442
18549W        W86923  35.425   5.417  14.968
18550W        W86924  38.397  43.791   3.869
18551W        W86925  27.545  44.879   0.339
18552W        W86926  43.438  28.170  13.412
18553W        W86927   5.826   8.832   3.325
18554W        W86928  41.969  36.926   4.621
18555W        W86929  14.116  32.591  10.526
18556W        W86930   9.255  25.115   2.862
18557W        W86931  30.602  20.641  10.484
18558W        W86932  26.970  43.796  10.956
18559W        W86933  18.777  22.594  12.059
18560W        W86934   8.721   8.813  11.570
18561W        W86935  17.301  16.626  13.452
18562W        W86936  40.908  10.292   4.685
18563W        W86937   3.342  21.195  10.425
18564W        W86938  21.086   1.330   4.249
18565W        W86939   9.258  16.123  10.473
18566W        W86940  16.254  41.336   1.277
18567W        W86941   2.798  27.667   0.392
18568W        W86942  23.119  15.169   4.286
18569W        W86943  29.083  17.592  11.060
18570W        W86944  17.090  31.036   3.167
18571W        W86945   0.898  22.136  11.012
18572W        W86946  36.915  32.577   4.655
18573W        W86947  21.089  41.009  14.792
18574W        W86948  27.982  10.686  10.611
18575W        W86949   8.372  26.461   2.275
18576W        W86950  28.525  40.328  10.559
18577W        W86951  11.648  24.699  14.413
18578W        W86952  31.451  27.164   2.760
18579W        W86953  40.025  37.420  12.519
18580W        W86954  23.133  25.190  12.483
18581W        W86955  19.243  18.654  14.777
18582W        W86956  39.865  15.696   5.178
18583W        W86957  38.515   0.794   0.434
18584W        W86958  39.546  30.461  13.381
18585W        W86959  28.497  21.146  13.473
18586W        W86960  25.624  33.615  10.108
18587W        W86961  13.666  14.678   2.796
18588W        W86962  10.803  36.364  14.872
18589W        W86963   0.892  15.176   3.309
18590W        W86964  21.191   1.325   1.421
18591W        W86965  26.969  41.312  14.448
18592W        W86966   5.707  18.250   4.716
18593W        W86967   5.868  20.263  11.939
18594W        W86968  18.076  21.681  14.304
18595W        W86969  23.545  32.608   1.882
18596W        W86970  21.172   1.451  10.405
18597W        W86971  40.475   6.752  10.969
18598W        W86972  13.205   8.379  14.353
18599W        W86973  42.825   5.392   2.806
18600W        W86974  20.213  44.863   4.704
18601W        W86975   4.765  35.944   0.266
18602W        W86976  33.966  36.536  10.445
18603W        W86977  38.351  16.738  13.847
18604W        W86978  35.456  21.712   4.267
18605W        W86979   2.831  14.794  14.481
18606W        W86980  39.344  15.203   4.207
18607W        W86981   9.250   2.872  14.337
18608W        W86982  24.042  14.260   2.757
18609W        W86983  36.849  31.963   3.197
18610W        W86984  16.233  16.666   4.814
18611W        W86985   5.745  31.963  14.457
18612W        W86986   8.283  36.488  13.461
18613W        W86987  35.407  23.072  13.035
18614W        W86988  29.923   7.260   3.310
18615W        W86989  39.487  19.274  14.876
18616W        W86990  37.954  29.029   3.837
18617W        W86991  38.990  11.661   1.417
18618W        W86992  12.281  34.896  14.888
18619W        W86993  33.025  33.103   2.294
18620W        W86994  10.647  42.496   3.316
18621W        W86995   8.268  41.514  12.997
18622W        W86996  11.845  26.662  13.045
18623W        W86997  39.489  42.781   4.605
18624W        W86998  29.634  15.650  12.895
18625W        W86999  29.124   2.325   3.692
18626W        W87000   9.849  13.340   1.775
18627W        W87001  18.103  30.640   2.243
18628W        W87002  24.210  11.239  13.949
18629W        W87003  33.932   4.870  14.320
18630W        W87004  23.038  16.639   3.765
18631W        W87005  25.075  15.251   5.165
18632W        W87006  29.918  42.370   3.232
18633W        W87007  23.725   0.465   3.164
18634W        W87008   3.908   8.245   2.333
18635W        W87009   4.373  24.093   0.377
18636W        W87010   0.276   0.953  10.589
18637W        W87011  17.129  15.184   1.394
18638W        W87012   0.370   6.834   3.753
18639W        W87013  27.972  11.843  13.994
18640W        W87014  41.877  30.163   1.398
18641W        W87015  11.182   5.787   2.756
18642W        W87016  11.751   9.261   4.284
18643W        W87017  21.088  27.677   2.187
18644W        W87018  33.577   4.277   1.349
18645W        W87019  27.027  24.516  13.925
18646W        W87020  26.542  39.338   3.225
18647W        W87021  13.838  22.531   1.868
18648W        W87022  16.140  43.868  13.376
18649W        W87023  40.384  13.828  14.338
18650W        W87024  41.882  34.446   0.954
18651W        W87025  16.677  15.239  14.818
18652W        W87026  19.050  38.936   1.268
18653W        W87027  17.295  43.866  13.421
18654W        W87028  34.534  43.805   0.299
18655W        W87029  38.564  25.051   0.758
18656W        W87030  19.621   6.873   2.898
18657W        W87031  10.246   3.747   4.306
18658W        W87032   0.807  43.802   3.162
18659W        W87033  32.023  17.717  12.838
18660W        W87034  30.490  15.294  10.432
18661W        W87035  39.395  27.641   4.219
18662W        W87036  31.921   6.219   0.448
18663W        W87037   4.371  39.038   0.422
18664W        W87038  44.771  42.887   1.236
18665W        W87039   1.265   2.959   4.348
18666W        W87040  10.864  16.753   1.275
18667W        W87041   1.792  37.480   2.758
18668W        W87042  29.959  28.124  10.461
18669W        W87043  38.553  11.343  13.324
18670W        W87044   6.910  13.733   3.686
18671W        W87045   9.328  33.092  13.509
18672W        W87046   3.734   3.751   3.692
18673W        W87047  39.051   1.764  13.494
18674W        W87048   2.471   4.800   4.772
18675W        W87049   7.383  35.908   1.342
18676W        W87050  35.071  41.800  12.066
18677W        W87051  26.473   0.270   4.775
18678W        W87052  42.860  31.642   0.396
18679W        W87053  32.016  24.591  14.319
18680W        W87054  34.906  37.344   1.314
18681W        W87055  20.665   8.380   4.631
18682W        W87056  29.630   6.914  14.963
18683W        W87057  14.336   7.253  13.495
18684W        W87058  26.670  21.726   4.153
18685W        W87059  15.298  36.446  14.936
18686W        W87060  24.124   5.792  12.419
18687W        W87061  14.261  21.126   1.771
18688W        W87062  33.618   9.361  12.438
18689W        W87063  43.315  33.613   3.774
18690W        W87064  18.233   0.421   3.649
18691W        W87065   2.365  22.141  12.476
18692W        W87066  37.084  22.697   0.958
18693W        W87067   9.259  16.660  10.551
18694W        W87068   7.338  16.170  12.038
18695W        W87069  32.479  35.961   5.221
18696W        W87070  31.089  23.661  13.368
18697W        W87071   4.855  35.006  11.433
18698W        W87072   9.274   8.685   1.874
18699W        W87073  41.897  40.452   2.400
18700W        W87074   0.988  13.271  13.484
18701W        W87075   8.253  43.945   3.253
18702W        W87076  20.179  35.088  14.822
18703W        W87077  29.632  36.419  12.457
18704W        W87078  42.830  40.506   4.314
18705W        W87079  29.441   9.314   3.830
18706W        W87080   8.811  34.544   1.252
18707W        W87081  13.318  43.893   1.366
18708W        W87082  12.136  32.546  12.522
18709W        W87083  23.181   1.911  12.368
18710W        W87084  13.765  31.096   3.285
18711W        W87085  42.857  40.473  14.794
18712W        W87086  23.013   0.424  13.450
18713W        W87087  21.655   0.287   2.264
18714W        W87088  42.517  21.019   0.452
18715W        W87089  17.708  24.620   1.720
18716W        W87090  39.999  41.882  14.425
18717W        W87091  43.310   8.177   4.233
18718W        W87092   4.745  23.712   3.178
18719W        W87093  26.679  40.951   1.845
18720W        W87094  42.782  27.454   3.372
18721W        W87095  44.306  41.900  14.352
18722W        W87096  25.218  38.849   1.772
18723W        W87097   3.931   5.705   4.208
18724W        W87098  15.216  30.415  14.439
18725W        W87099  19.176  14.683  11.989
18726W        W87100  14.332  27.087   0.270
18727W        W87101   1.280   8.273  11.109
18728W        W87102  27.651  13.663   1.411
18729W        W87103  41.530  33.579  14.330
18730W        W87104  16.719  18.548  11.119
18731W        W87105  39.352  30.647   1.871
18732W        W87106   0.466  32.893  11.024
18733W        W87107  14.591   4.438   3.278
18734W        W87108   2.402  38.059   2.807
18735W        W87109  34.378  38.029   2.849
18736W        W87110  10.854  36.520   1.360
18737W        W87111  14.777  36.852  12.987
18738W        W87112  30.992  38.346   0.342
18739W        W87113  44.408  31.044  14.488
18740W        W87114  26.989  16.658  11.902
18741W        W87115  40.523  44.893   0.264
18742W        W87116   3.363  30.114   2.856
18743W        W87117   1.826  32.960  12.826
18744W        W87118  43.494  29.535  11.606
18745W        W87119   0.779  16.211  13.915
18746W        W87120  26.118  10.699  12.448
18747W        W87121  27.636   2.310  12.830
18748W        W87122  40.026  28.048   2.398
18749W        W87123  16.693  13.725  12.084
18750W        W87124  20.636  24.498  13.540
18751W        W87125  38.841  38.946  11.405
18752W        W87126  18.774  13.162   2.293
18753W        W87127  41.876   2.409  13.376
18754W        W87128   8.313  28.056  10.583
18755W        W87129  41.411  24.212   1.324
18756W        W87130  39.523  42.389  11.860
18757W        W87131   8.394  29.655  10.110
18758W        W87132  18.274  44.865  13.402
18759W        W87133   5.432   5.389   4.129
18760W        W87134  23.053  39.490  10.488
18761W        W87135   8.868  21.549   4.149
18762W        W87136  31.416  35.420   2.281
18763W        W87137   6.397   5.262   0.911
18764W        W87138  33.500  20.738   0.366
18765W        W87139  43.349  29.155   4.637
18766W        W87140  44.371  26.142   4.677
18767W        W87141  33.416  28.973  14.461
18768W        W87142  37.843   5.334   4.635
18769W        W87143   0.971   4.843   5.217
18770W        W87144  30.141  19.747  10.576
18771W        W87145  27.080  27.944   1.824
18772W        W87146  44.912   3.251   2.209
18773W        W87147  27.182  24.156  14.367
18774W        W87148  14.333   6.761   4.692
18775W        W87149  40.355  14.225   0.355
18776W        W87150  42.001   7.852   5.220
18777W        W87151  36.083  27.155  14.478
18778W        W87152  10.844  32.987   3.744
18779W        W87153   6.262  26.703  12.534
18780W        W87154   2.763  30.142   3.648
18781W        W87155  41.482  25.162  14.376
18782W        W87156  10.655  15.294  13.527
18783W        W87157   4.247  14.142   4.773
18784W        W87158  29.962  30.559  12.565
18785W        W87159  17.274   3.920  13.943
18786W        W87160  21.226  25.596   3.734
18787W        W87161  20.680   2.302   1.359
18788W        W87162  21.138   0.326   0.915
18789W        W87163  43.994   8.759   3.345
18790W        W87164  14.218  24.623  11.603
18791W        W87165   8.814  24.679  11.897
18792W        W87166  30.471  37.886  12.367
18793W        W87167   9.799   9.216   2.671
18794W        W87168   0.847  23.681  13.874
18795W        W87169  40.508  25.159   3.179
18796W        W87170  19.214  19.127  14.317
18797W        W87171  14.205   6.782  13.353
18798W        W87172  16.263  10.868  12.391
18799W        W87173  14.642  26.979  14.333
18800W        W87174  16.619   6.684   1.800
18801W        W87175  37.951  11.281  11.935
18802W        W87176  33.539  30.543  11.882
18803W        W87177  13.248  31.994  12.003
18804W        W87178  44.961   4.204  13.876
18805W        W87179  39.337   5.798  12.855
18806W        W87180   7.376  33.072  12.008
18807W        W87181  16.087  27.117   3.651
18808W        W87182  40.006  40.918   3.366
18809W        W87183  43.792   7.232  10.960
18810W        W87184   2.451  18.696   1.262
18811W        W87185  17.593   6.333  13.319
18812W        W87186  26.658  43.838   5.581
18813W        W87187  11.628  42.959   4.700
18814W        W87188  21.513  21.654  13.462
18815W        W87189  25.479  25.536   1.810
18816W        W87190  15.823  17.288  14.981
18817W        W87191  38.481  15.323  11.535
18818W        W87192   7.867  25.615  10.933
18819W        W87193  43.303  23.493  11.004
18820W        W87194  29.607  32.099   4.302
18821W        W87195  15.809  32.627   0.305
18822W        W87196  20.703  35.983   0.483
18823W        W87197   7.729  39.933   3.202
18824W        W87198  32.442  22.580   3.842
18825W        W87199  14.323  30.086  13.811
18826W        W87200   9.788  21.209  12.490
18827W        W87201  21.231  22.742   1.387
18828W        W87202  25.075  26.987  12.454
18829W        W87203   2.724  27.684  12.580
18830W        W87204  27.101  23.728  11.935
18831W        W87205  26.195  25.664   1.300
18832W        W87206  31.440  42.828   2.675
18833W        W87207  36.424  17.149  13.540
18834W        W87208  17.651  42.444  11.560
18835W        W87209  33.549  17.681   3.204
18836W        W87210  41.463  20.755   4.765
18837W        W87211  33.923  42.934   4.740
18838W        W87212  40.462   0.907  14.828
18839W        W87213  31.943  19.255  11.053
18840W        W87214  15.789  43.861  11.982
18841W        W87215  36.395  31.963  13.396
18842W        W87216  15.757  13.813   1.340
18843W        W87217  23.531   3.835  14.996
18844W        W87218  10.257  28.131   5.134
18845W        W87219  26.622  12.833  10.891
18846W        W87220   3.427  22.205   4.160
18847W        W87221   3.769  16.767   1.746
18848W        W87222  43.010  19.676   0.465
18849W        W87223  26.987  33.884  14.329
18850W        W87224  26.999  24.496  14.780
18851W        W87225  29.660   2.955   0.748
18852W        W87226   7.860  34.070  11.468
18853W        W87227   1.341  24.580   4.313
18854W        W87228   7.780  34.457  11.402
18855W        W87229  34.560   3.259   1.299
18856W        W87230   2.725  16.179   0.742
18857W        W87231  15.270  29.608   4.606
18858W        W87232  27.628  15.205   0.912
18859W        W87233  16.257   6.900   2.181
18860W        W87234  44.350  23.710   0.287
18861W        W87235  33.582  24.518   1.357
18862W        W87236  38.908   3.728  14.894
18863W        W87237  12.753  33.118   4.116
18864W        W87238  36.465   9.852   3.739
18865W        W87239  40.523  24.665  10.622
18866W        W87240  24.040  44.282   0.940
18867W        W87241   5.910  39.493  10.526
18868W        W87242  28.985  10.814  10.916
18869W        W87243  11.665  42.964  12.417
18870W        W87244  21.195  16.297   2.237
18871W        W87245  33.073  17.630   1.722
18872W        W87246  33.433   2.365  14.830
18873W        W87247  34.073   2.958   3.357
18874W        W87248  30.469  18.697  13.991
18875W        W87249  26.202  42.501   2.270
18876W        W87250  33.452  41.862   4.737
18877W        W87251  17.112  32.403   0.366
18878W        W87252   8.179  20.194  13.316
18879W        W87253  32.101  42.958   0.272
18880W        W87254  14.642  17.157   2.817
18881W        W87255  40.966  16.248  11.891
18882W        W87256  22.129   1.830  14.360
18883W        W87257  41.322  38.509  13.886
18884W        W87258   1.354  32.093   3.238
18885W        W87259  37.469  11.630  14.879
18886W        W87260  14.339   9.883   4.773
18887W        W87261   1.248  11.255  12.073
18888W        W87262  29.046  28.944   2.804
18889W        W87263   1.252  36.381   4.669
18890W        W87264  19.265   3.249  13.360
18891W        W87265  38.482  39.882   4.232
18892W        W87266   2.383  23.564   0.335
18893W        W87267  38.909  21.690   1.746
18894W        W87268   3.271  35.997  12.837
18895W        W87269   2.426  38.043   1.784
18896W        W87270   7.211  25.218  13.901
18897W        W87271  17.716  15.119   1.356
18898W        W87272  22.132  44.505   1.933
18899W        W87273   5.741  39.876  11.049
18900W        W87274  17.073  17.104  12.977
18901W        W87275  35.856  40.043  11.074
18902W        W87276  13.145  40.881   0.802
18903W        W87277  24.098  29.919  11.579
18904W        W87278   7.359   7.347  14.996
18905W        W87279  11.211  14.146  13.029
18906W        W87280   7.752  26.673   2.342
18907W        W87281  40.480  15.731   4.633
18908W        W87282  24.189  20.611   3.316
18909W        W87283  28.535   0.949   4.768
18910W        W87284   7.182  30.918  10.548
18911W        W87285  16.573  44.824  11.479
18912W        W87286   1.828  41.796   4.734
18913W        W87287  34.437  33.977  13.487
18914W        W87288  13.171   9.200   5.591
18915W        W87289  34.007  40.821   2.367
18916W        W87290   4.922  43.423  14.938
18917W        W87291  43.846   3.348  10.641
18918W        W87292  27.555  15.194  14.971
18919W        W87293   0.862  13.166   0.406
18920W        W87294  19.112  44.843  11.940
18921W        W87295  44.938  29.644  12.532
18922W        W87296   1.894   2.256   3.660
18923W        W87297  17.262   6.379  10.916
18924W        W87298   4.393  23.199   3.272
18925W        W87299  38.055  17.801  14.777
18926W        W87300  40.839  40.850   4.755
18927W        W87301  27.983  36.534   1.734
18928W        W87302  33.573  28.181  10.535
18929W        W87303   9.311  31.910   0.759
18930W        W87304  22.223  32.548   5.764
18931W        W87305  14.635  41.348   2.784
18932W        W87306  33.614  11.707   1.229
18933W        W87307  20.682  31.916   4.347
18934W        W87308  28.668  17.601  11.509
18935W        W87309   8.815  16.274  14.405
18936W        W87310  13.633  23.492   1.798
18937W        W87311  39.359  39.442   1.348
18938W        W87312  12.346  33.447   4.268
18939W        W87313  13.809  35.580  12.482
18940W        W87314   5.230  12.792   4.113
18941W        W87315  44.469  31.962  12.469
18942W        W87316  42.487  42.016   3.384
18943W        W87317  32.397  27.582   2.853
18944W        W87318   0.880   1.250  10.561
18945W        W87319  11.687  32.114  14.928
18946W        W87320   9.252  22.663   4.184
18947W        W87321  34.972  10.755   3.256
18948W        W87322  28.966  18.698   3.354
18949W        W87323   8.847  25.149  12.385
18950W        W87324  18.786  25.485  11.524
18951W        W87325  26.088  22.650   0.765
18952W        W87326  44.311  37.831  10.572
18953W        W87327  22.517  26.101   0.461
18954W        W87328  19.555  41.499  14.784
18955W        W87329  31.534  43.495   4.750
18956W        W87330  19.168  10.254   2.349
18957W        W87331  18.785  44.967  14.372
18958W        W87332  40.862  21.199   3.297
18959W        W87333  42.511  14.264   0.328
18960W        W87334   1.772   5.304  10.615
18961W        W87335  13.234   1.769   2.834
18962W        W87336  39.493  29.533   4.771
18963W        W87337  10.733  22.594  14.463
18964W        W87338  10.683  16.673  14.022
18965W        W87339  17.237  26.969   0.468
18966W        W87340  10.377  26.016  13.361
18967W        W87341  41.822   0.777   0.259
18968W        W87342   5.427  26.187   0.419
18969W        W87343  38.485   6.189   0.789
18970W        W87344   9.179  17.788   9.983
18971W        W87345  34.377  34.507   1.253
18972W        W87346  39.453   6.256   2.664
18973W        W87347  13.254  18.715  10.957
18974W        W87348  27.178  34.880  11.893
18975W        W87349  42.415   4.784  12.534
18976W        W87350  23.220  20.050  13.541
18977W        W87351  22.165  27.072   3.745
18978W        W87352  24.495  19.268  13.951
18979W        W87353  25.109  37.544   4.192
18980W        W87354  33.071  38.840  13.404
18981W        W87355  17.585   1.423  11.559
18982W        W87356   1.754  12.730   1.406
18983W        W87357  24.492  22.621  10.535
18984W        W87358  19.779  34.986   0.266
18985W        W87359   9.796  20.736   4.648
18986W        W87360  39.841  11.659  12.458
18987W        W87361  30.541  37.453  13.976
18988W        W87362  29.142  16.207  12.054
18989W        W87363  31.108  32.084   3.149
18990W        W87364   4.377   5.782  11.055
18991W        W87365  23.604  34.503  13.368
18992W        W87366   8.687  44.972  11.903
18993W        W87367  37.031  30.094   4.256
18994W        W87368  24.487  24.724   2.347
18995W        W87369  29.951  30.092  13.869
18996W        W87370  23.077  24.610  13.409
18997W        W87371  35.090  37.982   0.926
18998W        W87372   7.354  33.098  13.483
18999W        W87373  13.270  42.781  11.596
19000W        W87374  18.656   7.901   3.240
19001W        W87375  16.579   7.807  14.968
19002W        W87376  26.062  21.043   4.262
19003W        W87377  23.681  14.123   3.765
19004W        W87378  23.562   7.912  13.908
19005W        W87379  42.317  12.675  13.848
19006W        W87380  21.101   0.492  12.894
19007W        W87381  26.601  29.427   1.835
19008W        W87382  12.734  15.257  12.352
19009W        W87383  18.780  19.606  12.421
19010W        W87384  14.144  15.653  12.505
19011W        W87385  16.214  18.735   2.309
19012W        W87386  23.180  22.724   2.806
19013W        W87387  16.091   1.769   1.890
19014W        W87388  26.201  15.112   0.463
19015W        W87389  10.677  24.994   4.718
19016W        W87390  11.332  20.721   0.821
19017W        W87391  13.693  12.736  13.394
19018W        W87392   2.797   2.870   4.267
19019W        W87393   6.418  10.818  13.865
19020W        W87394  44.819  14.119  13.059
19021W        W87395  35.991  13.724   4.758
19022W        W87396  37.490  42.785   4.628
19023W        W87397  11.646  18.115  14.866
19024W        W87398  33.054  13.808  14.322
19025W        W87399  36.949  10.849   3.321
19026W        W87400  39.002  38.545   3.659
19027W        W87401  29.647   6.727   4.297
19028W        W87402   3.736  19.260   1.315
19029W        W87403   4.796  42.957  13.794
19030W        W87404   4.311   4.407  14.470
19031W        W87405  28.646   1.748  14.471
19032W        W87406  29.058  28.569  11.588
19033W        W87407  24.046  43.933  10.556
19034W        W87408   5.692  13.183  14.309
19035W        W87409  28.446  24.654   3.343
19036W        W87410  43.339  23.230   4.178
19037W        W87411  20.076  40.427  10.579
19038W        W87412  25.058   1.882   1.838
19039W        W87413  17.246  21.098  10.130
19040W        W87414  25.096  21.665  11.904
19041W        W87415   2.356  44.871   1.413
19042W        W87416   1.929  10.266  11.992
19043W        W87417   3.922   5.687   2.192
19044W        W87418  11.234  21.140   0.480
19045W        W87419  11.660  11.775   4.319
19046W        W87420  27.101   3.799   1.915
19047W        W87421  40.969  24.479   0.944
19048W        W87422   7.245   3.894  11.390
19049W        W87423   5.841  26.123  13.491
19050W        W87424  18.561  10.765  14.005
19051W        W87425  44.349   4.409  14.933
19052W        W87426  43.446  15.193   2.283
19053W        W87427  32.922   6.335  11.977
19054W        W87428   4.844  24.230  13.517
19055W        W87429  21.621   8.756  14.016
19056W        W87430  39.989  39.548  10.612
19057W        W87431   7.265  40.012   2.887
19058W        W87432  43.344  30.120  14.420
19059W        W87433  10.752  17.141   4.159
19060W        W87434   1.753  23.520  12.833
19061W        W87435  33.540  12.706   0.827
19062W        W87436   3.353  41.447   4.734
19063W        W87437   0.880  39.478  12.454
19064W        W87438   0.964   9.758  13.884
19065W        W87439  13.654   7.263  10.432
19066W        W87440  23.630  21.213   4.760
19067W        W87441  29.126  32.097   4.805
19068W        W87442  10.795  19.640  14.833
19069W        W87443  29.173  22.180   3.772
19070W        W87444  18.688  32.109   0.369
19071W        W87445  22.517  10.289   2.724
19072W        W87446  21.231   4.430   4.215
19073W        W87447  19.741   9.385   2.384
19074W        W87448  20.084  29.562  12.352
19075W        W87449   7.211  23.520   1.401
19076W        W87450  44.470   7.861  12.507
19077W        W87451   9.194  32.133   1.299
19078W        W87452  15.279  36.842  13.339
19079W        W87453   7.712   8.703   4.606
19080W        W87454  40.980  39.976  11.930
19081W        W87455  31.440  18.056   3.158
19082W        W87456  25.172  22.539   2.272
19083W        W87457  37.885  19.167  12.994
19084W        W87458  39.350  15.655  12.533
19085W        W87459   1.966   2.446  13.031
19086W        W87460   2.766  15.650   4.331
19087W        W87461   3.224  19.564  14.508
19088W        W87462  43.464  24.570  13.849
19089W        W87463  24.542  19.067   3.839
19090W        W87464  28.167  34.005  12.875
19091W        W87465  16.653  36.023  12.858
19092W        W87466  19.268   6.362   0.394
19093W        W87467  40.328  15.118  11.529
19094W        W87468   8.375   7.688  11.931
19095W        W87469  12.752  14.227  13.005
19096W        W87470  29.126  34.020  11.936
19097W        W87471  13.811  38.890  12.834
19098W        W87472   4.314  19.218  10.987
19099W        W87473   5.689   7.678   4.191
19100W        W87474  11.748  28.150  14.881
19101W        W87475   0.742  40.433  12.028
19102W        W87476  18.215  18.121  14.370
19103W        W87477  41.474   8.339   1.252
19104W        W87478  23.633  30.019   4.284
19105W        W87479  34.375  15.768  11.000
19106W        W87480  19.645  38.037   3.743
19107W        W87481  22.057  38.513  14.289
19108W        W87482  27.607  41.984   0.401
19109W        W87483  43.912  24.717   4.124
19110W        W87484   8.763   0.864   0.755
19111W        W87485   0.460   9.880  14.806
19112W        W87486  35.056  39.514  13.980
19113W        W87487  20.708  43.957  14.366
19114W        W87488  20.674  20.256  13.988
19115W        W87489  28.615  38.828  11.371
19116W        W87490  42.449   1.923  11.523
19117W        W87491   9.166   0.978  13.496
19118W        W87492  33.093  11.155  13.976
19119W        W87493  22.157  14.339   4.291
19120W        W87494   5.214  27.619   1.266
19121W        W87495  32.555  11.184   0.348
19122W        W87496   8.878  27.035  14.879
19123W        W87497  13.231  38.918   2.809
19124W        W87498   9.748  12.758   0.842
19125W        W87499  27.623  11.843   3.357
19126W        W87500   2.360  10.369  14.439
19127W        W87501  12.728  23.167   0.918
19128W        W87502  18.085  38.374   0.452
19129W        W87503  39.017  15.236  10.894
19130W        W87504  25.567  20.274  14.505
19131W        W87505  44.374  35.993  10.475
19132W        W87506  19.760  37.986  12.995
19133W        W87507  40.000  29.111   4.625
19134W        W87508  16.309  44.827   2.701
19135W        W87509  34.588  26.612   4.178
19136W        W87510  42.293  35.073  10.433
19137W        W87511  21.174  11.133   2.692
19138W        W87512  30.556  16.214  13.331
19139W        W87513  28.156  20.552  12.471
19140W        W87514   2.416   0.284   1.447
19141W        W87515   2.895  33.934  11.374
19142W        W87516  13.724  23.076  12.542
19143W        W87517  36.907  39.840   3.709
19144W        W87518  17.265  13.744   1.249
19145W        W87519   3.805  27.971  12.883
19146W        W87520   4.817   8.299  14.471
19147W        W87521  21.746  43.777  13.529
19148W        W87522  15.683  36.546   3.739
19149W        W87523  16.133  36.581   4.234
19150W        W87524   1.474   7.376  10.453
19151W        W87525   4.356  32.936   1.361
19152W        W87526   1.479  14.753   1.217
19153W        W87527   6.681  22.181   3.155
19154W        W87528   6.363   5.687   2.222
19155W        W87529  34.869  44.788   0.372
19156W        W87530  11.203  24.509  11.437
19157W        W87531   7.835  32.001  12.402
19158W        W87532  14.206   7.319   4.816
19159W        W87533   9.171   0.368  10.916
19160W        W87534   7.803  13.799   0.775
19161W        W87535  30.937  15.809  14.850
19162W        W87536  40.862  17.669  11.095
19163W        W87537   1.921  38.568  11.416
19164W        W87538  18.112  12.831  14.433
19165W        W87539  14.617   2.343   3.304
19166W        W87540  44.927  16.227   4.232
19167W        W87541  25.482  40.974  14.483
19168W        W87542  22.681  24.508   0.757
19169W        W87543  16.632  15.086   1.723
19170W        W87544  44.320  42.992   5.130
19171W        W87545  35.938  16.723   1.232
19172W        W87546   5.314   2.739   1.916
19173W        W87547  41.826  37.887   1.343
19174W        W87548  14.670  11.223  14.913
19175W        W87549  33.464  10.790   2.318
19176W        W87550  28.111  41.346  14.763
19177W        W87551  29.160   3.397  10.911
19178W        W87552   2.854  44.259  11.885
19179W        W87553  14.689  17.697  12.846
19180W        W87554  20.256   5.784   0.422
19181W        W87555  30.416  11.836  14.343
19182W        W87556  23.710   8.898   0.832
19183W        W87557  35.557  44.844  14.509
19184W        W87558  20.690   8.686   1.334
19185W        W87559  16.658  23.155   0.791
19186W        W87560  11.862   4.308   2.888
19187W        W87561  35.039  27.135   4.169
19188W        W87562  24.724  32.563   9.675
19189W        W87563  36.031   5.255  10.626
19190W        W87564  14.622  14.614   3.383
19191W        W87565  22.573   5.934   1.447
19192W        W87566  16.637  43.495  11.497
19193W        W87567  38.972  44.374  13.897
19194W        W87568  11.655  16.196   2.878
19195W        W87569  22.729  23.090  12.449
19196W        W87570  14.770  32.068  12.460
19197W        W87571  14.142   5.353   0.925
19198W        W87572  42.494  41.474   4.651
19199W        W87573  26.508   1.800  12.388
19200W        W87574  29.007  17.186   1.331
19201W        W87575  43.978  36.853  14.295
19202W        W87576  14.644  12.222  14.489
19203W        W87577   1.243   8.231   0.786
19204W        W87578  26.570  32.595   4.710
19205W        W87579  38.354   1.912   4.603
19206W        W87580   3.937  33.997  13.491
19207W        W87581  18.618  26.184   0.916
19208W        W87582   5.224  26.640  13.876
19209W        W87583  37.065  32.043  13.822
19210W        W87584  38.847   5.914  11.114
19211W        W87585  37.938   5.747  10.537
19212W        W87586  28.057  10.367  13.918
19213W        W87587   7.236  37.888  13.390
19214W        W87588   1.287   0.780  12.039
19215W        W87589   8.728   1.259   1.714
19216W        W87590   8.798  22.553  11.857
19217W        W87591   3.755  11.807   0.458
19218W        W87592  24.596   9.817   3.325
19219W        W87593  11.800  40.851   4.115
19220W        W87594  27.047  30.428   4.811
19221W        W87595  44.317  34.532   2.711
19222W        W87596  32.936  17.292  10.999
19223W        W87597   0.422   1.955  14.030
19224W        W87598  29.982  16.780  14.352
19225W        W87599   2.295  29.954   4.340
19226W        W87600  43.837  34.869  13.020
19227W        W87601  15.111  42.946   3.866
19228W        W87602  25.623   9.212  14.507
19229W        W87603  41.988  27.948  13.960
19230W        W87604  29.574  12.707   2.355
19231W        W87605  30.913  28.991   5.085
19232W        W87606   0.489   9.849  10.461
19233W        W87607  18.063  14.630   0.922
19234W        W87608  32.401   8.703   1.828
19235W        W87609  39.360   9.885   5.721
19236W        W87610  15.658  20.572  12.962
19237W        W87611   8.851  26.596  13.481
19238W        W87612  14.337  14.692   3.674
19239W        W87613  18.638  36.583  11.116
19240W        W87614  36.513  40.033  10.964
19241W        W87615  16.571  28.148   0.879
19242W        W87616   1.464  36.050  14.980
19243W        W87617  20.044  32.993  13.038
19244W        W87618  12.155  15.823  13.456
19245W        W87619  30.550  31.534  11.949
19246W        W87620  11.863  21.143  10.108
19247W        W87621  39.412   8.273  12.025
19248W        W87622  25.632  25.570   3.212
19249W        W87623  26.624  42.367   1.382
19250W        W87624  40.013   6.697  11.460
19251W        W87625  30.536  34.018   3.281
19252W        W87626  32.949  33.875   2.209
19253W        W87627   8.270   0.774   0.452
19254W        W87628  43.420  27.037   4.118
19255W        W87629   0.445  21.668  11.961
19256W        W87630  42.504  19.588   4.322
19257W        W87631  37.082  30.024   2.830
19258W        W87632  15.153  15.608   3.313
19259W        W87633  30.503  21.745   3.778
19260W        W87634  25.647  25.129   9.970
19261W        W87635  17.650  22.543  14.402
19262W        W87636  44.262  16.195   2.225
19263W        W87637  39.370   1.261   2.892
19264W        W87638  35.474  15.204  13.457
19265W        W87639  17.164  36.051   1.712
19266W        W87640  10.349  20.267  11.074
19267W        W87641  20.707  15.649  14.375
19268W        W87642  18.658   3.283  11.011
19269W        W87643   2.917  23.529  11.062
19270W        W87644  22.745   9.863  12.876
19271W        W87645  22.675  39.379  11.552
19272W        W87646  40.390  28.007  13.334
19273W        W87647  26.618  34.611   4.738
19274W        W87648  28.559  32.056   3.858
19275W        W87649  26.175  24.535  10.556
19276W        W87650  35.436   1.886  11.558
19277W        W87651  40.398  24.178   2.212
19278W        W87652  34.597  12.661  12.378
19279W        W87653   1.739  24.140   3.316
19280W        W87654  41.483  30.004  10.455
19281W        W87655  19.626  13.755  10.554
19282W        W87656  19.271  30.575   4.314
19283W        W87657  29.120  31.121  12.062
19284W        W87658  16.629  41.350  12.441
19285W        W87659  27.019  31.628   4.605
19286W        W87660  34.002  44.005  13.050
19287W        W87661  27.649  26.172  13.331
19288W        W87662  32.895  13.839   4.777
19289W        W87663   8.230  21.184   9.933
19290W        W87664  29.161  34.609   3.857
19291W        W87665   2.886  12.190   4.117
19292W        W87666  43.000  16.664   0.462
19293W        W87667  33.394  22.141   9.979
19294W        W87668  44.325  30.979   1.319
19295W        W87669  25.524  26.649   4.758
19296W        W87670  12.298  22.509  10.601
19297W        W87671   6.199  41.444   3.787
19298W        W87672  23.105  19.176   4.655
19299W        W87673   0.752   0.822   4.306
19300W        W87674   2.830  19.555   0.806
19301W        W87675  44.470  34.592  10.546
19302W        W87676  35.961   9.648   2.737
19303W        W87677  37.842  23.693   4.676
19304W        W87678  15.162  17.289   0.265
19305W        W87679  15.311  29.442   2.353
19306W        W87680  31.131   9.197   1.276
19307W        W87681  29.478  26.206  12.353
19308W        W87682  43.473   0.934  12.491
19309W        W87683   6.324  16.682   2.219
19310W        W87684  38.010   7.756  13.008
19311W        W87685  24.534  16.215   0.468
19312W        W87686  31.576  38.933  14.976
19313W        W87687  21.574  44.011  12.890
19314W        W87688   0.398  41.895  10.430
19315W        W87689   1.340   8.339   3.658
19316W        W87690  15.727  11.172   4.122
19317W        W87691  37.564  23.203   4.189
19318W        W87692  22.183  20.261  13.417
19319W        W87693  43.280   3.827  14.954
19320W        W87694  39.965  14.136   4.128
19321W        W87695   2.932  31.412  13.454
19322W        W87696  31.525  12.348  11.936
19323W        W87697  14.834  35.894   0.314
19324W        W87698  27.678  14.695  13.320
19325W        W87699  17.110  29.080  11.527
19326W        W87700   0.397  19.246  11.575
19327W        W87701  34.957  33.439  10.554
19328W        W87702  36.906  33.904  11.893
19329W        W87703  31.411  15.757   4.656
19330W        W87704   5.695  39.436   3.332
19331W        W87705  14.255  21.661   0.290
19332W        W87706  27.541   5.853   0.322
19333W        W87707   9.377  28.484  10.078
19334W        W87708  24.584  33.067   1.853
19335W        W87709  27.563  42.363   9.555
19336W        W87710  44.482  28.116  13.799
19337W        W87711   6.922  14.812  12.041
19338W        W87712   1.260  38.494  10.534
19339W        W87713  21.572  36.548   2.342
19340W        W87714  36.385  34.877   3.364
19341W        W87715  21.571   1.767   2.751
19342W        W87716  33.118   2.810  13.831
19343W        W87717  17.161  32.089   5.311
19344W        W87718  13.742  40.943  14.428
19345W        W87719  21.526  33.069  13.488
19346W        W87720  19.126  17.760   4.817
19347W        W87721   5.784  13.252  11.080
19348W        W87722  26.083  33.380  13.910
19349W        W87723  35.447  15.222  10.554
19350W        W87724  25.087  22.698  13.825
19351W        W87725  33.495   1.875   5.280
19352W        W87726   5.225  22.577   4.207
19353W        W87727  26.478  39.410  11.583
19354W        W87728  20.033  40.303  13.041
19355W        W87729  27.452   8.259   3.173
19356W        W87730  29.029   6.392  13.880
19357W        W87731  38.512  27.574   1.293
19358W        W87732  11.232  39.828   4.179
19359W        W87733   9.250   9.184  13.019
19360W        W87734  19.765  31.536  13.939
19361W        W87735   6.281  40.985   0.887
19362W        W87736   1.825  41.338   0.284
19363W        W87737   9.335  17.074  13.520
19364W        W87738  37.547  14.330  13.325
19365W        W87739   3.362   5.338  12.461
19366W        W87740  34.938  25.037  12.023
19367W        W87741  44.497  13.268   5.141
19368W        W87742   0.447   3.780  13.547
19369W        W87743  37.414  25.090  11.050
19370W        W87744  17.107   8.681  10.617
19371W        W87745  34.401   7.724   1.910
19372W        W87746  43.919  29.453   2.745
19373W        W87747   6.417   7.353  14.768
19374W        W87748  36.026   9.687  12.006
19375W        W87749  39.967  14.601  14.336
19376W        W87750   9.838   5.318  14.784
19377W        W87751  27.985  19.245   2.339
19378W        W87752   7.889  16.662   2.884
19379W        W87753  16.765  18.187  14.320
19380W        W87754  42.792  14.267  12.851
19381W        W87755  38.990  14.599  13.443
19382W        W87756   6.399   5.399  14.002
19383W        W87757  42.921  19.539  12.920
19384W        W87758  39.424  39.842   0.319
19385W        W87759  11.190  17.799   0.369
19386W        W87760  30.512  34.022  11.925
19387W        W87761  14.738   6.291   2.731
19388W        W87762  23.615   3.225   3.662
19389W        W87763  37.481  18.743   5.106
19390W        W87764  18.189  26.658   4.247
19391W        W87765  36.966  44.848  12.832
19392W        W87766  37.357  38.972   3.777
19393W        W87767  35.359  31.525   4.763
19394W        W87768  41.532   5.365   1.348
19395W        W87769  15.777  35.469  11.087
19396W        W87770  19.710  36.896  11.612
19397W        W87771  13.105  38.336   3.808
19398W        W87772  10.776  41.365  13.406
19399W        W87773  22.517  39.547  12.839
19400W        W87774  44.005  35.562   2.323
19401W        W87775  40.384  33.461  10.559
19402W        W87776  31.455   6.297  13.396
19403W        W87777  41.395   8.223  10.508
19404W        W87778  23.022  27.513  14.894
19405W        W87779  26.185  33.502  11.419
19406W        W87780  28.052  29.135   4.822
19407W        W87781   5.405   3.269   4.191
19408W        W87782  22.650  41.039   3.362
19409W        W87783  30.484   6.759  13.915
19410W        W87784   4.827  23.229  12.907
19411W        W87785  11.248   5.688   2.178
19412W        W87786   7.201  12.118   1.777
19413W        W87787  33.029   7.291  11.588
19414W        W87788  12.176  23.072   2.215
19415W        W87789  15.121  17.647   4.604
19416W        W87790  24.076   5.811   1.407
19417W        W87791   6.875  36.474   1.808
19418W        W87792  15.154  21.210  11.938
19419W        W87793  17.694   0.967   3.313
19420W        W87794  23.596   3.861   1.800
19421W        W87795  23.624  33.968  14.492
19422W        W87796  36.584  15.717  14.947
19423W        W87797   9.357  20.133  11.095
19424W        W87798  40.821   0.822   2.348
19425W        W87799   8.763   2.236  13.885
19426W        W87800   5.259  35.603  13.318
19427W        W87801  37.922  32.076  11.919
19428W        W87802   8.738   9.720   4.332
19429W        W87803   7.686   6.387  12.862
19430W        W87804  43.844  30.511   0.483
19431W        W87805   4.292  14.712   3.298
19432W        W87806  35.361   5.380   1.920
19433W        W87807  22.086   7.764   4.809
19434W        W87808  20.229   2.389   3.684
19435W        W87809  41.919  12.822   1.304
19436W        W87810  33.463  16.225   3.366
19437W        W87811   1.911  39.011   3.725
19438W        W87812  12.131  29.571   3.730
19439W        W87813   3.434  32.043  14.467
19440W        W87814  14.823  28.512   0.844
19441W        W87815  24.017  14.658  12.436
19442W        W87816   1.317  35.997  11.450
19443W        W87817  29.116  38.435   1.810
19444W        W87818  21.691  39.534  13.338
19445W        W87819  26.505  24.104   1.353
19446W        W87820   0.488   0.893  12.988
19447W        W87821  25.027  11.787   0.249
19448W        W87822  31.057  22.696  14.866
19449W        W87823  44.888  36.533  10.521
19450W        W87824  32.895  21.155  12.553
19451W        W87825  20.093  14.319  12.396
19452W        W87826  23.143  44.788   0.850
19453W        W87827  33.875  19.564   1.210
19454W        W87828  36.380  20.704   1.263
19455W        W87829  32.428  25.106   3.155
19456W        W87830  22.560  14.641  10.589
19457W        W87831  21.555  17.715  13.907
19458W        W87832  12.764  16.148  10.418
19459W        W87833  25.505  26.564   3.195
19460W        W87834  40.004  16.215   4.753
19461W        W87835  21.239   2.448  12.904
19462W        W87836   8.883   4.245  10.896
19463W        W87837   9.159  11.288   3.197
19464W        W87838  17.720  44.311  14.421
19465W        W87839  31.131  43.351  12.883
19466W        W87840  20.618  32.052   4.788
19467W        W87841  11.630  37.422  13.790
19468W        W87842  37.847  11.213  11.415
19469W        W87843  30.122  10.271  13.918
19470W        W87844  19.764  42.319  13.316
19471W        W87845   8.287  19.092   2.268
19472W        W87846  40.394  19.222  12.559
19473W        W87847  17.787   8.309   3.287
19474W        W87848  12.155  10.648  11.038
19475W        W87849  44.359   4.267  11.101
19476W        W87850  10.332  33.895   1.902
19477W        W87851  37.943  40.458   4.747
19478W        W87852  25.507  43.808  13.841
19479W        W87853  36.063   6.427   0.772
19480W        W87854  22.122  35.499  12.497
19481W        W87855  19.189  22.227  12.975
19482W        W87856  35.377  11.793  14.837
19483W        W87857   5.727  13.137   4.709
19484W        W87858  38.385   0.399  11.041
19485W        W87859  17.693   4.323  13.347
19486W        W87860  39.463   4.216   0.417
19487W        W87861  18.122  15.218  14.503
19488W        W87862  31.425   9.651  11.104
19489W        W87863  37.835  30.071  10.941
19490W        W87864   4.224  44.273   1.233
19491W        W87865  20.114  17.584  13.035
19492W        W87866  29.111  25.997   1.811
19493W        W87867  44.757   5.204   0.393
19494W        W87868   0.321   8.834  11.437
19495W        W87869  21.190  22.117  11.473
19496W        W87870  28.668  40.350  14.897
19497W        W87871  17.746  19.686   1.232
19498W        W87872  40.533  14.185   4.669
19499W        W87873  19.065  32.507  14.447
19500W        W87874   4.926   3.808  12.997
19501W        W87875   4.261  13.650   2.671
19502W        W87876  13.141   7.375  14.795
19503W        W87877  30.523   3.305   3.328
19504W        W87878   1.362  43.874  14.331
19505W        W87879  11.224  19.779  14.291
19506W        W87880  12.152  11.132  10.986
19507W        W87881  27.651  32.054  14.881
19508W        W87882  18.716  38.443   3.707
19509W        W87883  42.895  11.761  10.543
19510W        W87884  38.940  40.396  13.058
19511W        W87885  18.115  17.677   3.225
19512W        W87886  39.844  39.366   3.678
19513W        W87887  38.900  38.827  13.379
19514W        W87888  28.176   9.655   4.745
19515W        W87889  29.509  28.961  11.538
19516W        W87890  16.264  24.577  12.851
19517W        W87891   8.316  28.587  12.482
19518W        W87892  20.613  40.993  10.413
19519W        W87893  21.732  31.935   2.893
19520W        W87894   9.700  16.795  10.473
19521W        W87895  37.907  30.023  13.317
19522W        W87896  23.695  31.446   1.238
19523W        W87897   6.847  12.218   2.313
19524W        W87898  32.398   3.923   4.690
19525W        W87899   5.268  22.074  11.942
19526W        W87900   5.216  15.210  11.594
19527W        W87901  43.981  24.991  11.967
19528W        W87902  31.907  11.236   4.204
19529W        W87903  11.159   8.288  14.430
19530W        W87904   4.361   8.743  12.525
19531W        W87905  12.230  31.984  12.017
19532W        W87906  13.215  17.787   3.658
19533W        W87907  31.574  43.831  10.973
19534W        W87908  18.231   3.394  14.299
19535W        W87909   7.906  24.517  11.894
19536W        W87910  24.490  26.048  11.998
19537W        W87911   3.295  11.789   1.294
19538W        W87912  25.051  17.668   1.801
19539W        W87913   8.171  40.523   0.810
19540W        W87914   7.903   4.770   4.342
19541W        W87915  32.934  43.862  13.334
19542W        W87916  16.641  22.664   2.690
19543W        W87917  36.470  31.137  14.368
19544W        W87918  11.764  20.157  13.918
19545W        W87919  21.739  19.620  11.860
19546W        W87920   5.284  36.912  13.382
19547W        W87921  42.322  11.699  12.517
19548W        W87922  10.296  31.130   5.228
19549W        W87923  39.848  10.832  11.520
19550W        W87924  30.542  30.014   4.314
19551W        W87925  14.797   6.298   3.654
19552W        W87926  35.021  14.206   3.241
19553W        W87927  10.739  23.721  14.396
19554W        W87928  20.639  14.169   4.283
19555W        W87929  19.628  13.763  12.958
19556W        W87930  40.544  12.788   1.902
19557W        W87931   8.354  25.186  13.545
19558W        W87932  33.012  13.822  14.829
19559W        W87933   8.356  13.630  10.417
19560W        W87934   4.277  13.146  13.423
19561W        W87935   2.385  40.017  13.541
19562W        W87936  36.027  12.127  12.862
19563W        W87937  10.212  39.066  14.977
19564W        W87938  10.810  36.407   1.817
19565W        W87939  14.808   2.302  11.383
19566W        W87940  36.430  39.374  11.054
19567W        W87941  44.320  32.612   3.349
19568W        W87942  37.579   0.899  10.897
19569W        W87943  38.908  12.271  11.906
19570W        W87944  21.665  17.298   1.871
19571W        W87945   0.480  38.420  11.877
19572W        W87946  34.081  19.662  11.595
19573W        W87947  16.287  39.510  11.057
19574W        W87948  36.950  30.121  14.791
19575W        W87949  41.815  22.521   4.180
19576W        W87950  43.440  20.537  14.909
19577W        W87951  22.186  13.816   2.378
19578W        W87952   9.681  44.502  14.290
19579W        W87953  37.895   3.873  11.444
19580W        W87954  22.539  20.198   4.254
19581W        W87955  16.283  24.623   0.309
19582W        W87956  21.690  34.988   4.300
19583W        W87957   9.779   3.730   4.705
19584W        W87958  24.482  16.134   1.927
19585W        W87959  41.981  19.128  14.906
19586W        W87960  26.132  27.533   4.276
19587W        W87961  29.548  32.521  13.959
19588W        W87962   1.364  36.056  14.304
19589W        W87963  32.907  25.646  14.429
19590W        W87964  10.821   3.418  14.364
19591W        W87965  36.469  30.924   1.281
19592W        W87966   5.272  16.613  12.062
19593W        W87967  35.876  43.870   4.617
19594W        W87968  26.582   7.395  13.335
19595W        W87969   5.197  28.032  10.108
19596W        W87970  36.539   7.681   0.470
19597W        W87971  29.065  26.699   3.383
19598W        W87972   8.787  10.858   4.313
19599W        W87973  44.758  17.201   0.967
19600W        W87974  24.691  17.160  13.349
19601W        W87975  22.577  28.083   5.232
19602W        W87976   3.325   5.259  10.983
19603W        W87977  13.844   8.735   1.894
19604W        W87978  12.843  10.643   4.826
19605W        W87979  15.212  39.465  10.987
19606W        W87980   3.728  22.998   1.933
19607W        W87981  24.068  13.298   2.752
19608W        W87982  27.077  26.619   4.663
19609W        W87983  22.044  38.413  11.427
19610W        W87984   6.901  26.667  12.525
19611W        W87985  19.092  41.405  11.108
19612W        W87986  31.494  15.791  11.553
19613W        W87987  16.189  11.746   4.700
19614W        W87988  24.677  31.106   3.816
19615W        W87989  25.483  22.166  11.404
19616W        W87990   6.260  20.568  12.897
19617W        W87991   7.772  33.472   2.753
19618W        W87992  26.554  19.728  11.473
19619W        W87993  41.913  35.862  13.405
19620W        W87994  10.211  40.540  13.528
19621W        W87995   0.902  19.079  13.027
19622W        W87996  44.803   7.704   4.280
19623W        W87997  10.685   0.945  14.767
19624W        W87998   3.324  10.336  13.882
19625W        W87999  44.404  13.808   2.750
19626W        W88000  38.459  36.012   4.797
19627W        W88001  43.833  39.341  12.570
19628W        W88002  15.698  28.930  11.477
19629W        W88003  25.608  17.175   0.817
19630W        W88004   0.984  23.141  14.916
19631W        W88005   7.854   1.786  11.576
19632W        W88006  30.129  32.100   4.784
19633W        W88007  42.514  20.151   3.634
19634W        W88008  27.563  18.279   0.301
19635W        W88009  10.645  21.633   0.369
19636W        W88010  24.572  27.592  13.815
19637W        W88011  19.652  22.021  11.468
19638W        W88012  10.166  36.503  11.397
19639W        W88013   0.255  18.106  12.056
19640W        W88014  35.429  29.044  12.412
19641W        W88015  31.641  44.010   2.857
19642W        W88016  44.843   0.886  14.978
19643W        W88017  43.959  14.205   1.821
19644W        W88018  27.597  19.146  14.026
19645W        W88019  13.194  10.365  10.583
19646W        W88020  32.073   6.775  11.070
19647W        W88021  41.420  24.539  10.423
19648W        W88022  21.524  37.009   2.855
19649W        W88023  44.455  43.863   4.138
19650W        W88024  21.158  32.973  10.621
19651W        W88025  12.622  36.026  14.395
19652W        W88026  35.954  17.747  12.406
19653W        W88027  40.001  37.019  12.569
19654W        W88028  19.647  26.022  11.872
19655W        W88029  16.696   6.261   4.213
19656W        W88030   4.899  38.019   1.797
19657W        W88031   9.273  38.983   9.952
19658W        W88032  22.077  25.962   1.841
19659W        W88033   2.467  26.510  13.950
19660W        W88034   4.219  24.118  14.365
19661W        W88035   3.369   2.257  14.304
19662W        W88036  22.033  14.340  14.443
19663W        W88037  37.551  24.218   3.367
19664W        W88038   0.896  16.622   4.115
19665W        W88039  40.443   5.312  11.923
19666W        W88040  28.663  10.794   2.273
19667W        W88041  20.201  15.180   0.931
19668W        W88042  39.032  31.952  14.398
19669W        W88043  36.402   1.841  10.136
19670W        W88044  28.507  14.206   1.227
19671W        W88045  20.091  28.184   4.156
19672W        W88046  34.096  26.599   2.701
19673W        W88047  36.376   9.669  11.987
19674W        W88048   4.819   2.417  10.526
19675W        W88049  42.301  14.607   3.767
19676W        W88050   0.978  20.760   3.331
19677W        W88051  35.415  13.812  10.503
19678W        W88052  18.115   8.796  14.843
19679W        W88053   8.765   2.450   3.664
19680W        W88054  22.634  29.172   2.405
19681W        W88055   4.753  20.669  13.419
19682W        W88056  32.976  37.013   0.326
19683W        W88057  33.996  29.105  14.901
19684W        W88058  25.541   6.819   0.362
19685W        W88059   4.382  31.955  13.327
19686W        W88060  23.109  34.957  14.371
19687W        W88061   1.731  27.098  11.047
19688W        W88062  39.473   4.899   1.727
19689W        W88063  27.153  14.157   1.266
19690W        W88064  37.356  40.385   5.153
19691W        W88065  27.016  42.849  14.816
19692W        W88066  12.281  32.989   0.469
19693W        W88067   4.294  43.381  13.862
19694W        W88068  15.720  15.605   0.950
19695W        W88069   8.312   5.240  14.014
19696W        W88070   4.857  30.099   0.332
19697W        W88071  35.024  35.019  11.382
19698W        W88072  16.249  22.150  10.611
19699W        W88073  44.430  40.406   2.401
19700W        W88074  35.472   5.421  13.534
19701W        W88075  14.233  10.633  14.921
19702W        W88076  34.014  10.743   4.676
19703W        W88077  44.954   5.781   0.469
19704W        W88078  34.378  30.586  12.959
19705W        W88079   0.754  18.704  14.322
19706W        W88080  18.637  37.066   0.355
19707W        W88081  14.656   0.934  11.029
19708W        W88082  43.437  31.972   5.232
19709W        W88083  31.946  11.853   5.288
19710W        W88084  42.525  29.175  11.866
19711W        W88085  24.650  17.288   0.839
19712W        W88086  25.602  12.712  13.514
19713W        W88087  28.142  20.523   0.413
19714W        W88088   5.784  23.640   4.239
19715W        W88089  30.086  21.623  12.889
19716W        W88090  32.097  30.942   3.720
19717W        W88091  38.503  42.031   2.725
19718W        W88092  30.123  15.327   2.830
19719W        W88093  25.004   6.719   0.257
19720W        W88094  20.052  29.130   1.348
19721W        W88095  39.555  30.055   2.840
19722W        W88096  21.180  16.813  11.911
19723W        W88097  33.955  15.323  14.493
19724W        W88098  12.637  26.509   2.400
19725W        W88099  15.734   7.262   4.829
19726W        W88100   9.723  41.535  11.498
19727W        W88101   8.205  27.624   5.568
19728W        W88102  28.507  17.762  10.597
19729W        W88103  20.746  20.701  10.939
19730W        W88104  31.487  16.694   0.793
19731W        W88105   0.873  11.648  12.467
19732W        W88106  17.668  34.369  14.921
19733W        W88107  13.345  11.632  10.981
19734W        W88108  36.012  34.893   4.324
19735W        W88109  42.871   6.888  12.018
19736W        W88110   1.865  36.857   0.812
19737W        W88111  27.969  35.861   1.436
19738W        W88112   3.715  10.267   1.732
19739W        W88113  32.538  35.907   2.297
19740W        W88114  18.163  28.010  12.828
19741W        W88115   4.273   5.264  11.087
19742W        W88116  40.325   3.349   5.153
19743W        W88117   5.432  39.324   1.781
19744W        W88118   5.198  37.552  14.315
19745W        W88119  36.591  15.210   3.829
19746W        W88120  18.104  20.181  13.841
19747W        W88121  42.860   0.465   2.892
19748W        W88122  30.433  10.779  14.821
19749W        W88123   8.803   9.192  12.960
19750W        W88124   7.795  31.640   0.395
19751W        W88125  11.647  43.890   1.363
19752W        W88126  17.171  37.854  13.832
19753W        W88127  30.450  30.520   3.221
19754W        W88128  16.187  20.727  13.002
19755W        W88129  41.432  23.141   4.257
19756W        W88130  15.688  26.114  11.500
19757W        W88131  16.684  42.788   1.884
19758W        W88132  35.445  10.190   4.127
19759W        W88133  24.210   8.719   0.453
19760W        W88134  17.240  31.576   3.323
19761W        W88135  40.929  14.593  10.896
19762W        W88136  37.834  20.611  11.118
19763W        W88137  34.088  32.887   3.774
19764W        W88138  25.983  16.217   5.095
19765W        W88139  43.463  10.328  13.352
19766W        W88140  41.329  26.098  12.420
19767W        W88141  23.603  44.986  13.383
19768W        W88142  34.517   8.677  13.884
19769W        W88143   2.304   6.274  11.380
19770W        W88144   5.892  39.505   1.751
19771W        W88145  11.745  27.001   3.199
19772W        W88146  37.841  12.638   3.826
19773W        W88147  11.263   7.377  13.478
19774W        W88148   1.407   9.763  11.080
19775W        W88149  28.089  14.248   4.647
19776W        W88150  26.961  36.448   1.747
19777W        W88151  16.111  39.455  12.017
19778W        W88152  10.663  43.438  12.397
19779W        W88153  41.906  38.411   1.769
19780W        W88154  12.232  32.433   3.809
19781W        W88155  16.219   1.781   1.344
19782W        W88156   1.445   5.439   3.300
19783W        W88157  25.579  39.431  12.946
19784W        W88158  10.845  16.103   4.832
19785W        W88159  35.421  27.037   3.218
19786W        W88160  15.619  23.178   4.344
19787W        W88161  41.324   1.877  14.406
19788W        W88162  17.633  40.380  12.883
19789W        W88163  27.540  35.373  13.415
19790W        W88164  16.709  35.859  14.961
19791W        W88165   1.881  38.526  10.512
19792W        W88166  11.681   8.400   3.348
19793W        W88167  13.283  32.109  13.526
19794W        W88168  33.976  21.580  12.495
19795W        W88169  13.816  22.591  13.925
19796W        W88170  26.152  18.142   4.606
19797W        W88171  20.241  17.139  11.571
19798W        W88172  32.033  14.253  13.375
19799W        W88173  10.377  23.099   0.365
19800W        W88174   9.850  23.685  11.060
19801W        W88175  22.605  15.246   2.712
19802W        W88176  15.666  27.524   4.748
19803W        W88177  12.846  35.391  14.768
19804W        W88178  32.472  23.694   5.272
19805W        W88179  16.772  10.769  12.563
19806W        W88180  15.179   6.420  12.984
19807W        W88181  21.073  34.935   3.751
19808W        W88182  27.616   0.336   3.791
19809W        W88183  30.555  25.092   5.191
19810W        W88184   8.880  24.704   3.290
19811W        W88185  20.229  29.429  12.925
19812W        W88186  37.447  25.033  10.101
19813W        W88187  33.541   4.209  12.981
19814W        W88188  14.271  25.501   3.275
19815W        W88189  20.126  38.925   4.801
19816W        W88190  41.395  16.152   2.320
19817W        W88191   5.334   4.868   0.895
19818W        W88192   1.379  44.780   4.690
19819W        W88193   6.918  44.461   1.422
19820W        W88194  41.520   5.871  14.868
19821W        W88195  43.885   6.745   4.329
19822W        W88196  19.151  40.967   4.714
19823W        W88197  41.005  22.649  13.382
19824W        W88198  35.099  12.179  14.988
19825W        W88199  28.641  32.058   1.415
19826W        W88200  40.925  29.477   2.209
19827W        W88201  22.096  43.920   0.471
19828W        W88202  22.533  28.066  13.520
19829W        W88203   5.215  37.947  14.905
19830W        W88204  31.975  19.051  13.798
19831W        W88205  13.660  42.028  11.937
19832W        W88206  33.612   5.808  13.319
19833W        W88207  22.061  15.254  13.955
19834W        W88208   1.884  14.602  11.959
19835W        W88209  25.180  29.666   1.702
19836W        W88210  40.868   9.348   3.183
19837W        W88211  33.500  17.800  10.966
19838W        W88212  31.913   3.916   1.804
19839W        W88213  13.777   3.364   2.307
19840W        W88214  25.968   0.981  14.435
19841W        W88215  31.932  24.008   0.767
19842W        W88216  27.601  25.016   2.329
19843W        W88217  20.175  13.151   2.664
19844W        W88218   1.861  34.936  12.997
19845W        W88219  26.200  30.137  14.371
19846W        W88220  11.676  18.693   3.636
19847W        W88221  12.713   7.835  14.952
19848W        W88222  34.077  41.436  13.546
19849W        W88223  22.035  41.804   4.792
19850W        W88224  41.375  23.171   3.806
19851W        W88225   2.721  29.987   2.711
19852W        W88226   6.922  11.200  12.488
19853W        W88227  40.367  42.809   2.201
19854W        W88228  31.046   1.794  13.483
19855W        W88229  22.224  11.287   1.878
19856W        W88230  42.321   7.322   3.242
19857W        W88231  43.926  19.587  12.466
19858W        W88232  10.643  44.482   0.469
19859W        W88233  33.550  14.288   2.204
19860W        W88234  24.589  14.263  13.429
19861W        W88235  22.588  37.528   2.346
19862W        W88236  31.097   1.269   2.806
19863W        W88237  13.721  22.675  10.559
19864W        W88238   9.366  33.463  12.982
19865W        W88239   4.421  43.892   2.787
19866W        W88240  29.616  44.814   9.467
19867W        W88241  19.166  12.176  14.783
19868W        W88242  41.977  16.699  11.112
19869W        W88243  29.939  37.908   2.277
19870W        W88244   0.317  22.177   4.791
19871W        W88245  44.453  31.078  11.406
19872W        W88246  23.549  35.853  11.043
19873W        W88247  36.563  16.584  13.919
19874W        W88248  42.900  31.570  14.311
19875W        W88249  44.980  34.965   2.361
19876W        W88250   8.735  43.898  13.350
19877W        W88251  33.033  31.509  12.392
19878W        W88252   4.373  42.822  14.386
19879W        W88253  39.884  11.801   3.800
19880W        W88254   2.964  21.225   1.408
19881W        W88255   2.328  32.115   4.253
19882W        W88256  38.427  44.854   3.764
19883W        W88257  18.225  30.466  13.490
19884W        W88258  32.446   7.714   1.796
19885W        W88259  25.529  23.641   4.324
19886W        W88260  10.229  37.879   0.393
19887W        W88261  41.423  29.088   3.836
19888W        W88262  29.633  43.445   1.446
19889W        W88263   5.857  33.626  12.505
19890W        W88264  38.571  36.057   4.312
19891W        W88265   2.399  33.981  11.995
19892W        W88266  35.598  43.380  10.631
19893W        W88267  39.974  29.661  13.439
19894W        W88268  37.565   8.296   4.146
19895W        W88269  17.630  16.723   1.358
19896W        W88270  31.509   4.786  11.902
19897W        W88271  28.991   9.733   0.452
19898W        W88272  37.842   0.406  14.871
19899W        W88273  34.513  24.048   3.643
19900W        W88274  15.815  31.088   2.800
19901W        W88275   5.254   7.279   3.861
19902W        W88276   8.752   5.859  14.362
19903W        W88277  29.457  44.346   1.694
19904W        W88278   5.811  28.939   4.635
19905W        W88279  21.669  39.472  12.881
19906W        W88280  38.570  26.497  11.575
19907W        W88281  28.519  44.803   1.860
19908W        W88282  34.120   2.762  14.360
19909W        W88283  30.431  32.127   1.831
19910W        W88284  30.105  40.988   0.903
19911W        W88285  13.828  17.785  11.377
19912W        W88286  33.041  33.057  14.982
19913W        W88287  36.850  20.582   2.771
19914W        W88288  23.492  34.427  14.336
19915W        W88289  24.706  43.932  13.392
19916W        W88290  31.025  13.144  14.498
19917W        W88291  14.809   8.797   1.247
19918W        W88292  42.934   0.804   4.195
19919W        W88293  30.058  44.466   3.660
19920W        W88294  12.831  40.521   2.358
19921W        W88295  41.859  25.043  13.397
19922W        W88296  15.590   7.701  12.496
19923W        W88297  16.790  43.955   0.935
19924W        W88298  28.438  40.327   0.834
19925W        W88299  27.006  21.616   2.835
19926W        W88300  33.380  27.954   0.844
19927W        W88301  32.475  20.134  13.540
19928W        W88302   9.661   8.326   4.305
19929W        W88303  35.914  29.570  12.471
19930W        W88304  33.034  28.089   0.471
19931W        W88305   9.847  20.628  12.488
19932W        W88306  21.191  12.745   2.332
19933W        W88307  10.773   7.348  12.941
19934W        W88308  37.443  25.596  13.337
19935W        W88309  36.441  12.808   0.383
19936W        W88310  20.749  29.651  13.016
19937W        W88311   2.242  17.768   1.751
19938W        W88312  26.626  37.371   3.239
19939W        W88313  14.816  32.134  14.820
19940W        W88314  24.124  42.868   4.725
19941W        W88315  42.333  16.579   1.269
19942W        W88316  37.077  40.314  12.449
19943W        W88317   9.712   1.400  12.943
19944W        W88318  21.638  14.329   0.256
19945W        W88319  24.637  10.824  10.551
19946W        W88320  26.696  37.505  10.601
19947W        W88321  26.463  44.938  13.010
19948W        W88322  27.661  21.181  13.049
19949W        W88323  21.628  30.014  14.445
19950W        W88324   0.403  38.924  14.978
19951W        W88325  29.984  26.637  14.910
19952W        W88326  20.219  11.198   3.182
19953W        W88327  43.970  34.952   2.829
19954W        W88328   4.398  18.282   2.799
19955W        W88329  20.186  39.039   1.238
19956W        W88330  15.134  43.786   1.332
19957W        W88331  41.801  39.056   4.174
19958W        W88332   1.396  16.223   0.896
19959W        W88333  28.005  12.235   0.250
19960W        W88334   6.331  15.274   2.282
19961W        W88335   7.804  20.595  12.495
19962W        W88336  11.278  22.184  12.481
19963W        W88337  25.505  16.284  11.097
19964W        W88338  33.933  12.715   2.696
19965W        W88339  17.767   0.384   1.288
19966W        W88340  25.709   1.751   2.868
19967W        W88341   3.786  41.028   2.677
19968W        W88342   1.926  26.037   4.254
19969W        W88343   6.241  28.007  12.992
19970W        W88344  36.383  22.095   0.855
19971W        W88345   2.754  15.673  14.027
19972W        W88346  32.555  35.011  10.641
19973W        W88347  41.996   5.844  14.354
19974W        W88348  34.008   8.187  14.476
19975W        W88349   9.861  15.692  13.812
19976W        W88350  24.058  27.626   3.737
19977W        W88351  36.427  25.692  11.954
19978W        W88352  30.920  16.173  12.516
19979W        W88353  26.032  44.800   1.312
19980W        W88354  19.205  39.454   2.850
19981W        W88355  32.513   2.891  12.568
19982W        W88356  31.639   8.378  10.498
19983W        W88357  25.054  31.558   4.311
19984W        W88358  12.351  16.268   2.761
19985W        W88359  10.738  30.952  12.039
19986W        W88360  15.292  15.193   4.808
19987W        W88361  31.555   5.430  14.326
19988W        W88362   4.832  39.451  14.366
19989W        W88363  24.134  28.015   1.237
19990W        W88364  18.110  10.300  11.902
19991W        W88365  29.550  25.201  12.854
19992W        W88366  12.135  43.852  12.920
19993W        W88367  21.230  40.955  12.966
19994W        W88368  18.611  15.751  14.795
19995W        W88369  40.337  18.569  10.915
19996W        W88370  10.329  29.641   3.647
19997W        W88371  41.005   0.361  13.460
19998W        W88372  40.394  28.064  11.908
19999W        W88373  43.769  37.554   4.193
20000W        W88374  13.689  42.444   3.681
20001W        W88375  19.643  11.169  13.464
20002W        W88376  41.311  29.975  13.348
20003W        W88377  33.948  41.016  10.625
20004W        W88378   0.988  33.536  14.456
20005W        W88379  11.625  24.532   3.783
20006W        W88380  29.583  25.160   3.640
20007W        W88381  12.640  22.690  11.457
20008W        W88382  30.011  34.997  14.341
20009W        W88383  34.378  36.974   0.294
20010W        W88384  27.097   2.881   0.373
20011W        W88385   0.316   7.877   2.727
20012W        W88386  14.630  43.447  14.782
20013W        W88387  28.639   8.823   5.222
20014W        W88388  10.339  44.789   3.839
20015W        W88389  30.094   0.422  12.501
20016W        W88390  31.557  20.180   2.847
20017W        W88391  14.314  15.326   0.781
20018W        W88392   4.764  41.330  10.115
20019W        W88393  44.366  38.938  10.968
20020W        W88394  14.654  35.378  14.945
20021W        W88395  20.172  27.485  12.395
20022W        W88396  30.430  22.223   1.213
20023W        W88397  25.128  38.984  13.501
20024W        W88398  37.395   5.800   4.179
20025W        W88399  31.931  23.185   2.232
20026W        W88400  34.412  34.598  12.389
20027W        W88401  34.941   1.780   0.954
20028W        W88402  23.604  43.338   4.776
20029W        W88403   8.719   7.282   9.954
20030W        W88404  26.555  38.549   3.640
20031W        W88405  13.731   7.303  11.125
20032W        W88406   8.862   2.366   4.674
20033W        W88407  12.847   5.245  14.429
20034W        W88408  13.160  27.117   1.763
20035W        W88409  17.282  41.024   3.322
20036W        W88410  43.507   2.730   1.756
20037W        W88411  16.749  28.490   2.241
20038W        W88412  39.019   6.343   2.839
20039W        W88413  40.400  25.475   0.790
20040W        W88414  31.913  24.231   4.798
20041W        W88415  19.770   4.905   0.406
20042W        W88416   1.909  37.895   4.200
20043W        W88417  10.161  40.832   3.870
20044W        W88418  17.162   6.767  10.431
20045W        W88419   6.297  11.170   0.377
20046W        W88420   2.230   1.962   4.721
20047W        W88421  41.446  44.299  13.524
20048W        W88422  24.660   4.722   3.689
20049W        W88423  35.083  43.441  13.877
20050W        W88424  17.712  16.771   0.751
20051W        W88425  36.867  11.803   3.779
20052W        W88426  34.588  20.047  12.995
20053W        W88427  44.894   7.326   0.289
20054W        W88428   4.287  17.156   4.649
20055W        W88429  29.106   2.928   4.160
20056W        W88430  18.545   0.459   2.792
20057W        W88431  43.878  20.525   2.227
20058W        W88432   6.827  32.135   4.161
20059W        W88433  32.060   2.386   3.376
20060W        W88434   1.396   4.903   1.809
20061W        W88435  41.807  41.468   3.332
20062W        W88436  26.972  37.470  11.585
20063W        W88437  14.813  27.035  10.519
20064W        W88438  35.539  34.426   4.354
20065W        W88439  29.601  10.814  13.871
20066W        W88440   2.897  25.711   2.247
20067W        W88441  30.936  11.171   3.823
20068W        W88442  35.379  44.363   3.716
20069W        W88443   3.803  12.120   1.441
20070W        W88444  28.077  44.981   0.443
20071W        W88445   9.715  31.148   1.320
20072W        W88446  21.060   4.257  11.566
20073W        W88447   8.221  33.954  10.562
20074W        W88448  30.565   9.718   4.678
20075W        W88449  35.492  27.984  13.816
20076W        W88450  12.333  35.400   0.933
20077W        W88451  32.466  39.852   0.275
20078W        W88452  13.723  39.364  13.499
20079W        W88453  14.674  18.630   4.262
20080W        W88454   4.273  42.457  10.510
20081W        W88455  10.331  24.681   1.840
20082W        W88456  39.974  37.414  11.490
20083W        W88457  36.541  14.775  12.559
20084W        W88458   9.156   2.269  11.967
20085W        W88459  43.270  26.151   3.246
20086W        W88460   1.325  30.611  14.320
20087W        W88461   8.279  30.494   3.684
20088W        W88462  25.171   8.321   2.854
20089W        W88463  39.873  39.843   3.867
20090W        W88464  17.125  12.677  11.063
20091W        W88465  42.498   3.898   2.251
20092W        W88466  17.232  11.252   1.284
20093W        W88467  34.497   4.772   1.863
20094W        W88468   9.779  36.360  13.414
20095W        W88469   6.826  28.519   2.205
20096W        W88470  19.169  15.646   4.733
20097W        W88471  20.765   4.711   1.833
20098W        W88472  34.964  14.672   2.190
20099W        W88473  29.043  29.110   1.810
20100W        W88474  42.288  35.373   4.267
20101W        W88475  37.879   6.678   4.238
20102W        W88476   2.790  38.859   2.758
20103W        W88477  25.016  38.535   0.854
20104W        W88478   2.408  21.702  11.581
20105W        W88479  15.690  12.726   3.798
20106W        W88480   1.798  16.675  10.933
20107W        W88481  13.291  11.358  13.911
20108W        W88482  19.051   6.849   3.320
20109W        W88483  10.191  27.495  12.471
20110W        W88484  17.582  30.574  13.821
20111W        W88485   4.267  30.444   3.704
20112W        W88486   4.913   0.949   4.220
20113W        W88487   6.812   3.854  10.423
20114W        W88488  35.981  25.656   2.406
20115W        W88489  43.834  36.359  14.836
20116W        W88490  41.924  40.422   2.816
20117W        W88491  28.459  31.462   1.860
20118W        W88492   1.466  24.611  11.388
20119W        W88493  27.037  29.071  14.428
20120W        W88494  35.040  42.372  11.991
20121W        W88495  36.847  26.670   1.229
20122W        W88496   9.277  37.336   4.752
20123W        W88497  38.480  22.066   0.823
20124W        W88498  24.076  17.726   3.654
20125W        W88499  24.487  31.913   3.176
20126W        W88500   8.721  31.626   2.883
20127W        W88501  37.414   9.680   2.702
20128W        W88502  15.185   7.861  10.456
20129W        W88503  33.572   3.730  12.544
20130W        W88504  36.524   0.367  13.477
20131W        W88505  36.929  18.062  10.900
20132W        W88506  17.197  14.174   4.801
20133W        W88507  34.391  26.952  11.609
20134W        W88508   7.863   4.412   4.155
20135W        W88509  28.581  27.087   1.239
20136W        W88510  30.053  18.709   4.621
20137W        W88511  32.596  26.969   4.190
20138W        W88512  26.004  31.539   0.261
20139W        W88513  42.809  21.192  12.402
20140W        W88514  33.409  21.628   0.329
20141W        W88515  32.111  33.914   0.907
20142W        W88516  36.888  18.740   2.190
20143W        W88517  44.766  27.966  11.481
20144W        W88518   2.759  19.714   1.721
20145W        W88519  38.524  44.996   1.767
20146W        W88520  36.586   2.463   0.901
20147W        W88521   4.729  30.420  10.080
20148W        W88522  29.669  21.114  10.632
20149W        W88523  23.515  15.174  12.918
20150W        W88524   1.385  33.980  10.946
20151W        W88525  39.445  23.219   2.259
20152W        W88526  38.363  36.377  12.507
20153W        W88527  11.367  40.853   1.744
20154W        W88528  42.369   6.898  13.838
20155W        W88529   1.958  38.927   0.336
20156W        W88530  21.615  30.934   2.241
20157W        W88531  32.905  14.230  13.487
20158W        W88532  36.011   7.292   2.263
20159W        W88533  34.429  30.974  12.373
20160W        W88534  10.324  21.617   4.295
20161W        W88535  13.347  28.058   0.863
20162W        W88536  18.117  23.227  11.855
20163W        W88537  41.927  42.331  10.569
20164W        W88538  32.561   3.296   2.377
20165W        W88539  42.444  23.071  11.607
20166W        W88540  43.905  26.660   3.155
20167W        W88541  35.932  37.575   2.269
20168W        W88542  16.607  17.610  12.466
20169W        W88543   4.415  18.788   3.743
20170W        W88544  14.177  24.182   2.849
20171W        W88545  43.446  35.960  14.940
20172W        W88546  39.479  14.202  14.377
20173W        W88547  21.552  11.207  13.344
20174W        W88548  14.115  29.582   2.372
20175W        W88549  41.299  43.280   4.744
20176W        W88550  23.985  37.520  10.080
20177W        W88551   4.226  24.051   3.368
20178W        W88552   8.331  22.150  12.930
20179W        W88553  31.896   9.176   3.381
20180W        W88554  24.540  13.255  12.411
20181W        W88555   7.868  18.772  11.462
20182W        W88556  38.897   3.783   1.344
20183W        W88557  33.046  29.112  14.435
20184W        W88558  41.319  20.603   3.797
20185W        W88559  29.560   9.299  12.973
20186W        W88560   1.950  30.109   2.770
20187W        W88561  35.363  43.851   3.694
20188W        W88562  16.682  26.516   1.741
20189W        W88563   4.243  38.551   4.761
20190W        W88564   8.692  10.208   4.767
20191W        W88565  28.179  40.317  14.845
20192W        W88566  21.245  38.459  12.361
20193W        W88567  20.653   4.905  14.487
20194W        W88568  24.173  42.778  11.480
20195W        W88569  37.409  40.866  10.964
20196W        W88570  10.768   0.422   1.816
20197W        W88571  28.460  26.119  12.492
20198W        W88572  32.603  26.591   4.778
20199W        W88573  39.967  38.903   0.342
20200W        W88574  36.930  27.654   1.858
20201W        W88575  22.125   6.378  12.342
20202W        W88576  35.953  27.489  12.870
20203W        W88577   6.704  31.413  11.940
20204W        W88578   0.295   0.749   0.257
20205W        W88579  20.729   0.778   4.245
20206W        W88580  33.620   4.706  11.468
20207W        W88581  34.928  27.074   1.864
20208W        W88582  18.581  38.529  13.423
20209W        W88583  37.416  36.513  12.973
20210W        W88584  33.908   9.822   1.697
20211W        W88585   3.924  13.730  11.578
20212W        W88586  36.041  18.584   3.285
20213W        W88587  36.417   7.283  11.015
20214W        W88588  44.759  16.211  13.468
20215W        W88589  11.769  14.171   1.232
20216W        W88590  13.120  20.171   3.165
20217W        W88591  26.517   0.911   4.694
20218W        W88592  43.892  39.822   3.669
20219W        W88593   0.779  14.700  10.909
20220W        W88594   4.714   7.865  14.448
20221W        W88595  31.964  31.474   4.776
20222W        W88596  35.518   8.845  14.794
20223W        W88597   7.796  13.343  11.443
20224W        W88598  21.234  32.496  11.029
20225W        W88599   0.929  42.284   4.330
20226W        W88600   8.268  38.018   4.774
20227W        W88601   3.835  24.073  13.385
20228W        W88602   3.237   4.226   0.912
20229W        W88603   0.382  17.614  12.891
20230W        W88604  44.000  14.101  14.358
20231W        W88605   8.674  20.609  10.991
20232W        W88606   5.727  24.640  12.420
20233W        W88607   1.954  30.555   0.343
20234W        W88608  44.876  14.736  12.438
20235W        W88609  40.833  15.102  11.590
20236W        W88610  24.706  12.216  12.074
20237W        W88611  12.218  42.877  14.815
20238W        W88612  32.630  44.939  12.997
20239W        W88613   7.683  43.980   2.758
20240W        W88614   8.741  30.058   3.355
20241W        W88615  34.593  33.625  13.415
20242W        W88616   9.193  14.613   1.850
20243W        W88617   9.263  20.530   3.769
20244W        W88618  40.917  22.109  12.092
20245W        W88619   7.185  10.841  13.016
20246W        W88620  40.306   4.789   5.290
20247W        W88621   9.653   4.356  11.505
20248W        W88622   2.751  41.947  13.995
20249W        W88623   2.896  42.395  12.388
20250W        W88624  42.463  31.076   1.244
20251W        W88625  16.256  21.630   0.894
20252W        W88626   0.868  37.903  10.479
20253W        W88627  21.546  43.770  11.513
20254W        W88628  18.763   2.748  14.393
20255W        W88629  20.748  33.983  13.953
20256W        W88630  10.347  18.726   4.236
20257W        W88631   9.148  44.448  14.968
20258W        W88632  23.071  16.656   3.244
20259W        W88633   6.311  14.614   4.199
20260W        W88634  35.991  44.296   0.372
20261W        W88635  44.850   5.841  14.813
20262W        W88636  30.056  22.519  11.415
20263W        W88637  23.074   7.816   0.302
20264W        W88638   7.318  40.037  13.902
20265W        W88639  31.912   0.980   4.666
20266W        W88640  17.288  12.250   1.794
20267W        W88641  37.888   6.323   5.737
20268W        W88642  40.321   1.256   3.206
20269W        W88643  44.444   4.737  11.458
20270W        W88644  12.823   8.219  11.948
20271W        W88645  33.409  20.737   2.678
20272W        W88646  12.778  34.576   2.352
20273W        W88647   6.324  20.082   4.662
20274W        W88648  20.173  24.026   1.899
20275W        W88649   0.906  36.072  10.901
20276W        W88650   8.274  20.270  14.290
20277W        W88651  26.045  17.768   1.896
20278W        W88652  14.696  38.456   2.698
20279W        W88653  40.974  16.611   4.663
20280W        W88654  16.202   6.774   1.813
20281W        W88655  15.302  25.161  11.590
20282W        W88656  10.383  18.219   9.922
20283W        W88657  27.188  11.824   1.333
20284W        W88658  41.895  31.490  12.063
20285W        W88659  41.339  42.989   1.907
20286W        W88660  34.558   9.208  12.023
20287W        W88661   6.705  39.390   3.256
20288W        W88662  30.108  39.044   4.707
20289W        W88663  36.914   0.839   2.384
20290W        W88664  30.644  29.997   3.732
20291W        W88665   3.461   6.315  11.995
20292W        W88666  32.038  21.717  14.306
20293W        W88667  14.194  17.599   1.266
20294W        W88668   8.720   7.349  11.455
20295W        W88669  19.549   1.258   0.751
20296W        W88670  40.323   4.366  11.117
20297W        W88671  26.060  12.217  12.045
20298W        W88672  35.942  29.500  12.088
20299W        W88673  12.195  15.781   0.898
20300W        W88674  11.255  40.342   4.308
20301W        W88675  15.817   1.743   4.637
20302W        W88676  10.340  44.964   4.812
20303W        W88677   4.204  12.843  11.922
20304W        W88678  36.450   2.389  14.844
20305W        W88679  43.833   6.796  13.544
20306W        W88680   0.283   0.777   3.780
20307W        W88681  21.739   1.275   3.632
20308W        W88682  33.006  41.818   2.752
20309W        W88683  28.062  15.189   0.397
20310W        W88684  30.606  12.295  13.885
20311W        W88685  39.928  14.742  10.592
20312W        W88686  23.132  23.179   3.714
20313W        W88687  39.360  37.367   1.234
20314W        W88688   9.861  15.324   4.685
20315W        W88689  34.942   6.773   0.252
20316W        W88690  33.917  41.984  10.569
20317W        W88691  36.033  26.014  11.863
20318W        W88692  16.122  42.295   0.898
20319W        W88693  15.324  34.520   3.312
20320W        W88694  12.853  14.805   1.695
20321W        W88695  32.905  18.643  13.816
20322W        W88696  39.940   5.849   4.631
20323W        W88697  21.725  20.629  10.930
20324W        W88698   7.698  30.589  11.545
20325W        W88699  13.836  38.511   1.861
20326W        W88700  21.206  14.192   4.175
20327W        W88701  31.589  22.207  10.607
20328W        W88702   1.896  19.735  14.398
20329W        W88703  33.087  42.335  13.946
20330W        W88704  14.274  30.048   4.774
20331W        W88705  41.040  35.528  10.437
20332W        W88706  19.723  40.526  13.445
20333W        W88707  18.622  18.132  13.923
20334W        W88708  31.634  37.379   4.662
20335W        W88709  14.095  12.277   1.310
20336W        W88710  19.150  13.673   4.677
20337W        W88711  34.489  39.420  14.427
20338W        W88712  43.958  29.588  11.601
20339W        W88713  42.473  39.528  14.866
20340W        W88714  17.302  37.580   9.925
20341W        W88715  41.488  38.054   3.697
20342W        W88716  20.719  33.941  12.403
20343W        W88717  39.502  43.338   2.263
20344W        W88718  31.592  35.949  14.424
20345W        W88719  13.674  27.131  14.974
20346W        W88720  38.978  19.228   4.218
20347W        W88721  18.778  16.299   2.684
20348W        W88722  35.565  21.546   4.661
20349W        W88723   9.769  27.017   2.741
20350W        W88724  36.088  20.112   0.894
20351W        W88725  15.783  10.247  14.400
20352W        W88726  33.506  16.229   5.270
20353W        W88727  41.292  37.351  12.022
20354W        W88728   5.287  36.551  13.331
20355W        W88729  21.521  28.475  13.991
20356W        W88730  37.855  36.352  14.468
20357W        W88731  43.022  31.067   1.279
20358W        W88732   6.206   2.321  12.026
20359W        W88733  28.133  16.285   1.804
20360W        W88734  13.272  37.866  14.826
20361W        W88735  34.028  21.191   5.109
20362W        W88736  15.155  14.285   1.272
20363W        W88737  18.666  29.962  14.478
20364W        W88738  10.645  44.967  13.849
20365W        W88739  24.013  13.188   4.163
20366W        W88740  15.248  36.887   0.802
20367W        W88741  18.137  25.563   4.813
20368W        W88742  39.858   7.753  14.917
20369W        W88743  10.827  21.046   0.957
20370W        W88744  14.187  43.431  11.527
20371W        W88745  12.309  11.133   1.722
20372W        W88746  31.151  42.879   5.284
20373W        W88747  13.291  35.492  13.438
20374W        W88748  25.474  25.149   2.710
20375W        W88749   9.340  26.691  10.447
20376W        W88750  20.256  37.433  12.010
20377W        W88751  26.508  13.781  11.856
20378W        W88752  40.358  43.388   3.339
20379W        W88753   5.382  38.908   9.946
20380W        W88754  42.996  16.113  12.995
20381W        W88755  17.282  42.846  14.796
20382W        W88756   4.450  42.898  13.017
20383W        W88757  14.333  38.328  10.530
20384W        W88758  40.435   7.877   3.658
20385W        W88759  29.170  39.883  11.022
20386W        W88760  23.182  20.259   3.743
20387W        W88761  16.256  41.997  11.051
20388W        W88762  17.252  10.719   3.318
20389W        W88763  34.077  31.132   1.238
20390W        W88764  42.947  36.390   2.358
20391W        W88765  21.141   0.933   1.265
20392W        W88766  12.845  23.073   1.441
20393W        W88767   0.296  11.350  11.964
20394W        W88768  39.854  36.044   2.784
20395W        W88769  33.548  15.771  11.604
20396W        W88770   0.981  24.981   5.104
20397W        W88771  17.173   2.767   0.776
20398W        W88772  25.677  26.152   0.440
20399W        W88773  27.512   1.482   0.753
20400W        W88774  40.351  25.515   2.683
20401W        W88775  17.609  33.939  12.492
20402W        W88776   3.319   7.381   2.898
20403W        W88777  22.008  22.638   4.295
20404W        W88778  22.553  33.047   0.270
20405W        W88779  43.868  13.620  12.543
20406W        W88780   2.876  23.041  11.596
20407W        W88781  20.264  10.758  14.895
20408W        W88782  32.524  29.542  11.426
20409W        W88783  38.565  43.444   1.392
20410W        W88784   4.813  28.489  12.518
20411W        W88785  23.499   9.723   4.744
20412W        W88786  26.576   0.933  10.448
20413W        W88787  30.437  30.923  10.950
20414W        W88788  21.234   4.365  10.497
20415W        W88789  18.153  28.098   4.681
20416W        W88790   6.287  26.541  11.044
20417W        W88791  17.250  37.986   4.255
20418W        W88792  16.175  37.465   0.951
20419W        W88793  37.444  34.058   2.358
20420W        W88794  19.555  33.490  13.373
20421W        W88795  38.831   9.652  13.914
20422W        W88796  18.571  33.520   1.403
20423W        W88797  26.588  24.519  12.397
20424W        W88798   1.434  20.524   3.318
20425W        W88799   8.793   0.336  12.915
20426W        W88800  32.566  36.064  12.047
20427W        W88801  18.614  15.160  12.456
20428W        W88802  13.835  15.725   3.325
20429W        W88803  14.295  43.397  13.864
20430W        W88804  32.422  29.539   3.315
20431W        W88805  37.451  14.125  14.367
20432W        W88806  43.493  24.205   1.698
20433W        W88807  18.591  18.248  14.289
20434W        W88808  28.081  26.614   0.829
20435W        W88809  34.099  30.656  14.813
20436W        W88810  43.880   8.367   4.757
20437W        W88811  34.600  24.675  14.000
20438W        W88812  10.311   2.925   1.308
20439W        W88813  41.865  36.968   0.758
20440W        W88814  35.541  14.296   0.742
20441W        W88815  13.645  26.525  10.435
20442W        W88816  12.182  20.554  14.026
20443W        W88817   0.752  44.769  12.501
20444W        W88818  13.262  18.591  10.479
20445W        W88819   9.349   8.891  13.468
20446W        W88820  10.851  21.515  13.968
20447W        W88821  10.794  43.768  10.983
20448W        W88822  36.467  17.219   3.687
20449W        W88823  33.080  12.615  14.022
20450W        W88824  19.678  27.182   3.198
20451W        W88825   6.199  17.723   1.721
20452W        W88826  43.895  11.803   0.462
20453W        W88827  36.547  30.639   2.302
20454W        W88828  28.140  15.112  11.024
20455W        W88829  11.207  26.067   1.286
20456W        W88830   0.918   7.261   2.878
20457W        W88831  28.016  27.047  14.469
20458W        W88832  40.963  12.207  12.825
20459W        W88833  13.334   0.457   3.789
20460W        W88834  24.003  30.142   0.798
20461W        W88835  16.713   7.767  14.310
20462W        W88836  38.427  34.527  12.483
20463W        W88837  31.145  40.009  14.388
20464W        W88838  38.003   7.803   5.196
20465W        W88839  35.591  40.968   1.419
20466W        W88840  43.379  44.432   4.226
20467W        W88841   0.440   4.372   4.217
20468W        W88842   2.425   4.795   5.193
20469W        W88843  33.058  35.873  10.566
20470W        W88844  24.156  16.697   1.305
20471W        W88845  14.132  37.411   1.225
20472W        W88846  27.056   6.298   2.410
20473W        W88847  16.212  25.514   4.340
20474W        W88848  14.626  35.996   0.835
20475W        W88849  31.110  35.488  10.466
20476W        W88850  41.976  23.621  12.920
20477W        W88851  21.033  26.105  10.435
20478W        W88852  21.630  21.177  13.822
20479W        W88853  42.012   3.415   2.322
20480W        W88854   2.313  16.595  14.938
20481W        W88855   6.305  44.438   2.178
20482W        W88856   0.322  33.058  13.955
20483W        W88857  33.471  30.445  10.595
20484W        W88858  12.312  44.295  10.969
20485W        W88859   9.204  24.077  11.478
20486W        W88860  20.625  15.124  12.857
20487W        W88861  32.949   8.162   4.766
20488W        W88862   6.681  27.170   5.780
20489W        W88863  33.487  44.453  14.828
20490W        W88864   5.693  42.012   1.847
20491W        W88865  12.737  39.358  13.418
20492W        W88866  16.313  18.715   0.304
20493W        W88867   4.800  40.547  13.463
20494W        W88868   2.834  34.394  13.927
20495W        W88869  22.180  34.530   2.849
20496W        W88870  37.424  34.577  13.805
20497W        W88871  44.950  28.082  12.999
20498W        W88872   0.466  38.962   4.687
20499W        W88873   1.376  42.457   2.353
20500W        W88874   4.888   1.337  10.515
20501W        W88875  13.628  16.118   2.274
20502W        W88876  32.548   5.742  10.482
20503W        W88877  28.584  24.095   2.205
20504W        W88878  23.510  34.911  13.045
20505W        W88879   4.813   1.758  14.279
20506W        W88880  38.025  19.753  10.137
20507W        W88881  13.665  17.710  11.903
20508W        W88882  21.696  27.172   1.399
20509W        W88883   6.784  26.184  11.416
20510W        W88884  22.646  27.986   1.266
20511W        W88885  28.639  10.712  11.510
20512W        W88886  34.554   2.898   1.843
20513W        W88887  19.261  37.969   4.342
20514W        W88888  14.628  28.053   3.305
20515W        W88889   6.816   0.974   1.217
20516W        W88890  29.438   4.210  13.413
20517W        W88891  23.154  30.044   5.142
20518W        W88892   3.405   5.778   2.674
20519W        W88893  43.382  11.285  10.517
20520W        W88894  26.686  44.010   3.647
20521W        W88895  44.860  29.451  13.389
20522W        W88896  36.359  39.827  11.917
20523W        W88897  43.379  23.104   0.819
20524W        W88898  38.032  24.690   3.165
20525W        W88899  14.734   4.211  14.867
20526W        W88900  43.897   4.793   4.248
20527W        W88901  10.715  31.505  12.970
20528W        W88902   6.186   2.388  11.410
20529W        W88903  18.263  42.482  11.110
20530W        W88904   9.224  30.444   0.833
20531W        W88905  11.635   1.464   0.726
20532W        W88906   7.731  32.906   3.674
20533W        W88907  23.167  17.095   1.843
20534W        W88908  43.276  31.422   1.743
20535W        W88909  43.841  37.397   0.825
20536W        W88910  16.579  40.430   0.772
20537W        W88911  39.326  32.126   0.727
20538W        W88912  16.709  43.905  14.296
20539W        W88913  30.623  32.514   0.923
20540W        W88914  39.450  19.690   0.266
20541W        W88915   8.740   8.173  13.307
20542W        W88916  12.856  30.603   3.721
20543W        W88917  37.351  18.639  10.551
20544W        W88918  22.137  26.136  10.414
20545W        W88919  35.360  38.981  11.919
20546W        W88920  44.369  33.978   3.175
20547W        W88921   2.870  33.908   3.383
20548W        W88922  17.063  44.869   1.354
20549W        W88923  43.371  35.485   1.388
20550W        W88924  34.428  40.447  10.973
20551W        W88925  26.477  15.599   0.247
20552W        W88926   9.252  13.200   1.372
20553W        W88927  38.823  38.843   1.901
20554W        W88928  34.394  17.118  13.535
20555W        W88929  20.264  33.982  11.930
20556W        W88930  16.810   9.258   1.422
20557W        W88931  44.010  29.633  10.407
20558W        W88932  19.634  25.515  10.404
20559W        W88933   9.857   3.405   1.858
20560W        W88934  28.522   8.295  12.561
20561W        W88935  19.627  11.848   1.443
20562W        W88936  33.615  43.893   2.821
20563W        W88937  28.999  33.897   2.226
20564W        W88938  41.816   5.762  10.414
20565W        W88939  24.511   7.265   1.278
20566W        W88940  41.950   1.827  11.038
20567W        W88941  33.891  18.132  12.059
20568W        W88942  30.083  12.850  14.483
20569W        W88943  35.359   6.854   4.306
20570W        W88944   3.742  43.491   2.826
20571W        W88945   2.743  10.640  13.510
20572W        W88946  43.491  10.264  12.869
20573W        W88947  42.431  13.715   2.268
20574W        W88948  31.579  14.749  12.017
20575W        W88949  23.665  14.320  10.095
20576W        W88950  16.175   9.689  12.384
20577W        W88951  16.570  39.527   0.462
20578W        W88952  14.144  30.914   2.384
20579W        W88953  44.838  32.015  10.403
20580W        W88954  34.388   0.354   4.601
20581W        W88955   8.792   9.685   2.902
20582W        W88956  27.176  28.642   0.913
20583W        W88957  18.207  30.437   1.210
20584W        W88958  21.205  33.584   2.750
20585W        W88959  24.559  44.847   2.765
20586W        W88960  28.097  34.872  13.028
20587W        W88961  30.929  23.163   4.767
20588W        W88962  10.165  35.376  12.579
20589W        W88963  34.095  37.007  13.963
20590W        W88964   1.411  36.062  12.969
20591W        W88965  43.977  26.081   1.793
20592W        W88966  29.649  38.838   4.170
20593W        W88967   3.739  35.416  11.063
20594W        W88968  34.458  44.846  13.542
20595W        W88969  23.998  28.062   3.386
20596W        W88970  12.328  33.015   2.750
20597W        W88971  30.015  21.105   3.266
20598W        W88972  25.561  44.477   3.365
20599W        W88973  22.512  27.181  11.893
20600W        W88974  19.113  30.960   0.779
20601W        W88975  10.247  23.664  14.782
20602W        W88976  31.107  21.235  12.979
20603W        W88977  10.873  37.543  12.948
20604W        W88978  38.825   6.876  11.576
20605W        W88979  26.958  15.708   2.402
20606W        W88980  13.262  36.434   2.877
20607W        W88981  12.688   8.337  14.759
20608W        W88982  22.647   9.832   2.392
20609W        W88983  13.133  24.583  11.066
20610W        W88984  21.044  35.991  13.511
20611W        W88985   6.390  20.098   4.309
20612W        W88986  12.269  20.718  12.548
20613W        W88987  19.259  21.619   0.474
20614W        W88988  28.931  28.073  12.894
20615W        W88989  34.113  43.873   0.834
20616W        W88990   8.370  15.216  11.466
20617W        W88991  32.632   3.808   0.371
20618W        W88992  30.999  18.148   2.673
20619W        W88993  43.374   2.832  12.962
20620W        W88994  28.009  30.506   9.987
20621W        W88995  44.478  37.015   3.651
20622W        W88996  23.685  38.409   0.732
20623W        W88997  28.664  22.253  12.352
20624W        W88998   3.360  19.695   3.239
20625W        W88999  43.997  17.295   2.257
20626W        W89000  40.508   8.871  11.435
20627W        W89001  34.990  43.355   3.710
20628W        W89002  38.565   4.419   1.853
20629W        W89003  19.620  34.523   0.861
20630W        W89004  31.085   2.431   0.365
20631W        W89005  12.233  28.039   3.710
20632W        W89006  14.646  21.159  14.349
20633W        W89007  33.109  18.620   0.835
20634W        W89008  17.557  18.165   0.940
20635W        W89009  25.101  20.720   1.749
20636W        W89010  39.332  21.617  14.391
20637W        W89011  21.699  14.102   2.815
20638W        W89012  38.980  31.547   2.682
20639W        W89013  35.471  33.450   1.910
20640W        W89014   7.747  36.958   2.801
20641W        W89015  32.894  35.037  13.807
20642W        W89016   2.751  18.716  13.806
20643W        W89017  34.482   2.906  14.028
20644W        W89018   8.762  31.920   1.225
20645W        W89019  23.648  41.795  12.381
20646W        W89020   3.455  16.608   3.258
20647W        W89021  19.637  14.112  13.903
20648W        W89022  39.049  17.662   4.826
20649W        W89023   0.359  29.472  11.126
20650W        W89024  26.057  43.984   4.150
20651W        W89025  14.647   5.235   1.853
20652W        W89026  21.179  38.339   1.845
20653W        W89027   4.236  38.343   4.148
20654W        W89028   0.265   3.362   4.324
20655W        W89029   0.852  40.999   1.320
20656W        W89030  24.708  29.535   4.324
20657W        W89031  30.582   5.299   4.215
20658W        W89032  43.020   0.309   0.402
20659W        W89033  18.267  15.225  10.913
20660W        W89034  13.708  36.367  10.542
20661W        W89035   6.262   3.235  14.882
20662W        W89036  22.049  15.725   1.746
20663W        W89037  38.525  19.234   4.601
20664W        W89038  18.743   0.308   1.879
20665W        W89039   4.756  35.921  12.560
20666W        W89040  34.515   3.285   1.860
20667W        W89041  41.019  34.501  12.578
20668W        W89042  31.536  24.484   0.858
20669W        W89043  21.732   1.795   3.294
20670W        W89044  36.898  23.209  13.860
20671W        W89045   7.202  44.454  12.451
20672W        W89046  21.518   7.303   1.448
20673W        W89047  18.052  15.691   1.802
20674W        W89048  13.135  22.667  10.503
20675W        W89049   7.360  35.581   1.434
20676W        W89050  36.894  37.918   1.854
20677W        W89051  36.084  16.277   3.290
20678W        W89052   7.908  13.789  10.891
20679W        W89053  24.131  11.134   3.262
20680W        W89054  37.365  23.561   4.730
20681W        W89055  32.454  43.881   0.924
20682W        W89056  17.675  15.737   1.447
20683W        W89057   9.296   7.786  12.428
20684W        W89058  26.112  13.191   0.855
20685W        W89059  26.462  10.223   1.368
20686W        W89060   4.728  40.501   0.857
20687W        W89061   8.845  41.942   4.804
20688W        W89062   5.732  16.235  14.858
20689W        W89063  41.364   4.449   1.216
20690W        W89064  36.454  23.044   0.377
20691W        W89065  11.293  30.003   2.672
20692W        W89066  35.858  15.223  12.037
20693W        W89067  30.982  36.497   1.264
20694W        W89068   9.167  32.419  10.419
20695W        W89069  38.463  32.514  14.446
20696W        W89070  24.208  20.111   1.349
20697W        W89071  38.829  19.237   3.817
20698W        W89072  25.656   5.901  13.822
20699W        W89073  20.115  27.135  14.023
20700W        W89074  24.586   5.860   0.439
20701W        W89075   9.660  40.857   0.389
20702W        W89076  36.385  16.117  11.997
20703W        W89077  25.527  41.796   3.202
20704W        W89078  24.556   9.766  13.973
20705W        W89079  43.015  17.264   4.143
20706W        W89080  42.459  10.184   4.682
20707W        W89081  22.600  33.598  11.498
20708W        W89082  36.869  13.239  12.900
20709W        W89083   6.855   4.415   0.764
20710W        W89084  15.302  33.908   2.244
20711W        W89085  15.742  20.224   5.204
20712W        W89086   8.373  15.778   3.782
20713W        W89087  26.963  21.638  11.524
20714W        W89088  30.624  16.654   4.186
20715W        W89089  22.523   5.366  11.486
20716W        W89090   7.358  27.017  12.426
20717W        W89091  41.982  22.187  12.403
20718W        W89092  13.758  41.423  10.536
20719W        W89093  22.501  16.770  13.387
20720W        W89094   1.911  31.632   2.278
20721W        W89095  17.153  30.658   4.721
20722W        W89096  27.061   7.747  12.389
20723W        W89097  41.348   9.752   4.307
20724W        W89098  29.465  28.145  13.018
20725W        W89099  38.995  26.472   0.436
20726W        W89100   4.732  30.602   4.638
20727W        W89101  27.038  37.561  13.954
20728W        W89102  23.043  27.058  14.932
20729W        W89103  19.049  11.183   2.266
20730W        W89104  32.511  28.107  14.325
20731W        W89105  29.935  24.207   0.375
20732W        W89106  17.605  42.805   4.741
20733W        W89107   7.234   0.838  13.529
20734W        W89108  28.990  44.478   5.310
20735W        W89109   9.677   5.413  12.431
20736W        W89110  12.191   3.846   1.786
20737W        W89111  38.894   8.865  13.537
20738W        W89112  41.983  11.843  14.848
20739W        W89113  41.885  16.688   0.862
20740W        W89114  11.316  21.653   4.326
20741W        W89115  15.127  21.121  13.371
20742W        W89116  37.383  34.965  11.582
20743W        W89117   9.299   2.374  11.094
20744W        W89118  36.451  17.131   2.373
20745W        W89119  31.535  27.499  12.401
20746W        W89120  20.251  25.200  12.378
20747W        W89121  24.620  22.213   1.779
20748W        W89122  42.516   5.817   4.647
20749W        W89123   3.232  38.873  10.946
20750W        W89124  26.097  35.877   4.732
20751W        W89125  14.801  16.263  13.385
20752W        W89126  27.668   7.684  14.408
20753W        W89127  39.040  10.161  14.335
20754W        W89128   5.727   2.882  10.001
20755W        W89129  23.544  28.474  14.998
20756W        W89130   9.186   4.214  12.407
20757W        W89131  15.148   4.825   3.825
20758W        W89132  25.032   9.757  10.623
20759W        W89133  12.838   3.299   4.803
20760W        W89134  34.113  12.700   4.128
20761W        W89135   0.826   1.380  13.480
20762W        W89136  12.279  34.460  13.544
20763W        W89137  13.845  39.321   0.793
20764W        W89138  21.125   5.318  13.890
20765W        W89139   7.803  44.400  11.996
20766W        W89140  33.076  29.924  10.448
20767W        W89141  12.748  19.735  13.366
20768W        W89142  23.529  18.683   0.780
20769W        W89143   7.387  19.627  14.988
20770W        W89144  37.952  40.850   0.918
20771W        W89145  12.124  44.870   0.948
20772W        W89146  26.468   3.731  13.323
20773W        W89147  37.054  30.069  11.907
20774W        W89148  20.255  14.177   2.675
20775W        W89149  29.128  17.630   0.338
20776W        W89150  10.756  33.538   2.898
20777W        W89151  37.412  21.039  13.392
20778W        W89152  36.486  24.554   3.383
20779W        W89153  15.206  26.516   3.868
20780W        W89154  39.018   8.374  14.016
20781W        W89155  34.542  11.653  13.841
20782W        W89156  29.538  14.656  13.452
20783W        W89157   0.333  27.123   2.347
20784W        W89158  23.171  19.755   0.782
20785W        W89159  28.167   5.284  13.028
20786W        W89160  24.058  43.286   2.755
20787W        W89161  30.928  20.766   2.852
20788W        W89162  30.152  34.549  14.965
20789W        W89163  31.923  40.458  10.964
20790W        W89164   8.806  15.759  11.587
20791W        W89165   0.762  41.354  10.062
20792W        W89166  39.554   3.852   4.318
20793W        W89167  27.018  15.209   1.895
20794W        W89168  15.668  36.526   1.433
20795W        W89169  44.282  12.284   4.212
20796W        W89170  24.161  23.539   3.692
20797W        W89171  18.270  41.456  12.548
20798W        W89172  17.773  35.860  10.428
20799W        W89173  13.138  39.372  13.516
20800W        W89174  41.405   4.225   0.760
20801W        W89175  23.015  13.229  14.916
20802W        W89176  19.171  39.392   1.849
20803W        W89177  12.803  31.466  12.469
20804W        W89178   7.367  41.436   0.787
20805W        W89179  12.288  11.673   3.281
20806W        W89180  28.482   1.295  11.520
20807W        W89181  10.730  11.216  14.947
20808W        W89182   7.366   4.420  10.533
20809W        W89183  30.069   0.344  13.981
20810W        W89184  15.773  16.635  12.537
20811W        W89185  23.530  40.436  13.464
20812W        W89186   9.780  30.002   1.345
20813W        W89187   5.826  33.603   3.749
20814W        W89188  14.629  19.200  14.489
20815W        W89189   8.770  39.846  14.907
20816W        W89190  37.401   9.262  12.919
20817W        W89191  30.910   9.719  13.046
20818W        W89192   0.855   6.387   0.805
20819W        W89193  16.144   7.887  13.995
20820W        W89194  34.538   3.759   4.276
20821W        W89195  17.185  42.942   2.318
20822W        W89196  12.164   8.318  11.968
20823W        W89197  11.247  37.511   1.721
20824W        W89198  42.526  31.548   2.307
20825W        W89199  14.176  28.493   4.829
20826W        W89200  16.697  27.028  14.927
20827W        W89201  36.499  41.922  12.969
20828W        W89202  35.398   2.439   1.827
20829W        W89203  12.647   1.483  12.048
20830W        W89204  44.986  42.487   3.709
20831W        W89205  27.086  44.794   3.192
20832W        W89206  35.426  23.684   4.169
20833W        W89207  13.645   6.289   4.348
20834W        W89208  13.159  14.253  14.395
20835W        W89209  42.403  14.744  12.503
20836W        W89210   1.790  25.710  12.456
20837W        W89211  25.163   9.315   2.764
20838W        W89212  28.677  37.568   4.296
20839W        W89213  28.608  30.976  14.892
20840W        W89214  25.112   1.323   2.409
20841W        W89215   4.409  23.989   1.250
20842W        W89216  30.488  12.667   0.796
20843W        W89217  25.710  35.447   0.378
20844W        W89218  26.461   5.829   4.222
20845W        W89219  38.530   3.237   4.622
20846W        W89220  31.467   8.659  12.827
20847W        W89221   6.338   6.366   1.744
20848W        W89222   5.775   8.375   0.923
20849W        W89223  36.444  31.405   1.397
20850W        W89224  14.817  40.549  11.952
20851W        W89225  36.522   0.981   3.225
20852W        W89226  20.727  10.688   2.357
20853W        W89227  27.043  21.245  11.044
20854W        W89228  10.696  28.172   3.862
20855W        W89229  26.527  11.776  13.452
20856W        W89230  22.541  17.594   1.448
20857W        W89231   5.764  23.541   3.795
20858W        W89232  16.163   9.749   4.148
20859W        W89233  42.405  42.830   1.437
20860W        W89234  12.357  22.503  13.478
20861W        W89235  17.147  24.215   1.698
20862W        W89236   7.259   1.405   3.287
20863W        W89237  33.895  34.372   0.348
20864W        W89238  18.170  12.285  10.517
20865W        W89239  39.478  23.591   4.682
20866W        W89240  36.414  14.252   4.793
20867W        W89241   1.782   2.305  13.922
20868W        W89242   5.783  43.281   3.341
20869W        W89243  44.936  29.018  11.534
20870W        W89244   6.712  25.096  14.998
20871W        W89245   1.428  33.917   1.918
20872W        W89246  34.013  23.630   3.160
20873W        W89247  35.964   2.730   4.744
20874W        W89248   0.807   5.782  12.011
20875W        W89249   7.873  28.112  11.997
20876W        W89250  43.836  32.529   4.194
20877W        W89251  43.791   2.964   4.161
20878W        W89252  14.666  41.295  13.544
20879W        W89253  11.720   6.685   3.323
20880W        W89254   3.941  36.435  12.946
20881W        W89255  15.579   0.890   5.188
20882W        W89256  42.446  40.834   0.792
20883W        W89257   1.327  41.478  10.952
20884W        W89258  10.220   0.417  11.384
20885W        W89259  30.530  13.602  14.885
20886W        W89260  31.146   3.429   4.691
20887W        W89261  19.725   1.243  13.523
20888W        W89262  14.163  16.230   3.845
20889W        W89263  32.008  17.752  11.587
20890W        W89264  32.095   0.375   4.778
20891W        W89265  14.743  10.854  14.304
20892W        W89266  35.511  11.316   3.633
20893W        W89267  34.571  41.026  11.532
20894W        W89268   4.781  35.392   0.851
20895W        W89269  16.082  23.724   0.379
20896W        W89270  28.581  22.167   1.370
20897W        W89271  22.718   3.217  12.094
20898W        W89272  36.497  16.102  10.412
20899W        W89273  14.661  27.478  11.556
20900W        W89274  15.109   3.285  12.073
20901W        W89275  36.581  23.619  10.038
20902W        W89276   5.370  15.778   2.791
20903W        W89277  12.283  33.456   0.306
20904W        W89278  21.736  22.700   3.756
20905W        W89279  16.192  10.695   4.606
20906W        W89280  42.347  31.109   0.934
20907W        W89281   1.770   1.944  11.956
20908W        W89282   9.792   5.364  10.464
20909W        W89283  24.097  33.453   4.781
20910W        W89284  12.846  39.348   4.764
20911W        W89285   4.360  41.985  11.893
20912W        W89286  10.350  29.930  10.115
20913W        W89287  11.821  42.419   2.340
20914W        W89288  35.062  30.093   4.293
20915W        W89289  23.530  32.975  14.870
20916W        W89290  22.253  43.432  11.083
20917W        W89291  40.877  17.245   3.721
20918W        W89292  19.242  32.947   1.216
20919W        W89293   5.717  36.402   3.727
20920W        W89294  19.121   5.817  11.525
20921W        W89295  17.064  26.611  12.011
20922W        W89296  17.107  14.752  14.006
20923W        W89297  42.500   4.866   2.269
20924W        W89298   1.415  32.133  11.450
20925W        W89299  17.290  42.014   3.780
20926W        W89300  15.268   4.423   3.838
20927W        W89301  34.454  27.665  12.530
20928W        W89302  32.580  31.074   0.297
20929W        W89303   0.831  22.707   2.677
20930W        W89304  40.897  29.534   0.837
20931W        W89305  14.731   3.437   2.897
20932W        W89306   8.325  31.566   2.290
20933W        W89307  29.949  41.983   0.429
20934W        W89308  32.093  36.477   4.127
20935W        W89309  43.004   3.226   3.849
20936W        W89310   1.464  17.696  11.904
20937W        W89311  28.609  14.805   2.299
20938W        W89312  16.727  20.251  11.921
20939W        W89313   2.949  44.831   3.189
20940W        W89314   4.399  10.809  11.599
20941W        W89315   8.373  21.164   4.661
20942W        W89316  19.122   1.380   0.812
20943W        W89317  41.427  30.929   1.908
20944W        W89318  15.160   5.782  11.610
20945W        W89319   3.337  23.088   2.881
20946W        W89320   7.357   1.380  11.043
20947W        W89321  19.165   2.397  13.457
20948W        W89322  33.412  18.195   4.685
20949W        W89323   8.853   4.783   2.709
20950W        W89324  39.010   4.716   0.756
20951W        W89325  13.220  17.119   3.278
20952W        W89326  16.244  38.046  13.805
20953W        W89327  43.494  33.502  10.977
20954W        W89328  15.651  22.008  12.390
20955W        W89329  33.916   5.215  12.854
20956W        W89330  28.960  18.734   2.829
20957W        W89331  32.102  38.972  11.513
20958W        W89332  34.018  15.620   4.245
20959W        W89333   8.212   8.818  11.531
20960W        W89334  42.320  43.397   0.783
20961W        W89335  24.189  15.814   4.622
20962W        W89336  42.482  38.839  14.479
20963W        W89337  23.147  31.061  13.359
20964W        W89338  39.854  27.545   0.383
20965W        W89339  11.827  16.167  11.409
20966W        W89340  18.667   6.911  10.893
20967W        W89341   0.453  43.879  14.889
20968W        W89342  30.106  29.062  10.525
20969W        W89343   0.884  29.126   3.751
20970W        W89344   6.910   5.848  11.514
20971W        W89345  43.900  26.566  14.410
20972W        W89346  31.961  43.426  11.994
20973W        W89347  21.186   7.869  14.853
20974W        W89348  33.124  22.159   2.896
20975W        W89349  40.013  36.554   0.323
20976W        W89350   7.873   8.318   4.271
20977W        W89351   4.372  44.869   2.803
20978W        W89352  10.338  11.648   0.943
20979W        W89353  38.935  11.782  13.003
20980W        W89354  36.080  44.854   1.346
20981W        W89355  27.980  41.982   3.334
20982W        W89356  35.363  24.120   4.671
20983W        W89357  24.694   6.915   3.293
20984W        W89358  24.536  27.168   1.326
20985W        W89359   3.788  43.868   3.233
20986W        W89360  12.720   3.765  10.900
20987W        W89361  26.991  26.609   4.131
20988W        W89362  39.992  31.940  11.898
20989W        W89363  14.627   9.722  12.443
20990W        W89364  16.605   2.873  11.433
20991W        W89365   4.920  17.601   0.955
20992W        W89366   4.428  38.925   3.222
20993W        W89367   0.281  10.271   0.362
20994W        W89368  21.212  29.922   2.880
20995W        W89369  42.342  13.307  11.434
20996W        W89370  43.400   5.779   1.872
20997W        W89371  21.251  15.120   1.753
20998W        W89372   1.901  36.990   0.374
20999W        W89373   7.739   6.777   2.682
21000W        W89374  38.356  24.178  12.084
21001W        W89375  42.890  24.124  10.638
21002W        W89376  25.016  32.103   5.137
21003W        W89377  13.321   3.431   4.137
21004W        W89378   7.299  28.957   0.878
21005W        W89379  29.619  20.256   1.884
21006W        W89380  19.662  31.099  14.947
21007W        W89381   7.766  36.458   4.624
21008W        W89382  26.018   1.372   2.848
21009W        W89383  21.108  13.603  11.443
21010W        W89384  23.730  20.227   4.775
21011W        W89385  28.098  40.400  13.316
21012W        W89386  29.493  40.457  12.973
21013W        W89387  29.057   8.309  11.607
21014W        W89388   2.242   6.686  12.073
21015W        W89389  40.856   7.727   3.176
21016W        W89390  24.704  44.802  10.504
21017W        W89391  22.545  26.133  10.556
21018W        W89392  28.965  27.524  14.769
21019W        W89393  16.739  31.518  13.420
21020W        W89394  10.383  13.637  10.949
21021W        W89395  13.622   6.809   4.700
21022W        W89396  35.440  17.265   2.779
21023W        W89397  43.783   6.349  10.890
21024W        W89398  41.844  18.545   2.686
21025W        W89399  15.755  16.228  10.147
21026W        W89400  17.601  18.289  14.863
21027W        W89401  38.048  27.992   2.195
21028W        W89402  16.720   5.307   3.823
21029W        W89403  30.464  21.049  14.986
21030W        W89404  18.150  19.062  11.535
21031W        W89405  37.392   4.763  14.883
21032W        W89406  20.538  30.910  11.051
21033W        W89407   5.863  33.953   0.933
21034W        W89408  28.503  39.981   0.302
21035W        W89409  38.980   2.733  10.963
21036W        W89410   5.244  43.415   1.707
21037W        W89411  41.035   0.752  10.576
21038W        W89412   2.398  43.886  12.467
21039W        W89413  43.959  44.809  11.895
21040W        W89414   2.235  33.096   1.330
21041W        W89415  18.586  43.919   2.888
21042W        W89416  10.705  14.105   0.290
21043W        W89417  25.554   1.402   3.310
21044W        W89418  16.699  37.951  14.764
21045W        W89419  40.863  12.801   2.329
21046W        W89420  11.637  10.365   4.641
21047W        W89421  35.396  10.193  12.867
21048W        W89422  36.539  10.368   0.323
21049W        W89423   0.262  41.956   3.172
21050W        W89424  40.915  30.977   2.403
21051W        W89425  24.598   1.780   4.246
21052W        W89426  29.582  32.571  11.988
21053W        W89427  26.548   2.793  11.500
21054W        W89428   1.399  40.451   0.344
21055W        W89429  43.970  38.414   1.829
21056W        W89430  31.467  19.775   1.290
21057W        W89431  27.451  35.060  14.790
21058W        W89432  37.348   7.297  12.054
21059W        W89433   1.330  19.221  11.504
21060W        W89434  39.833  42.971   3.336
21061W        W89435   4.353  25.483   1.816
21062W        W89436   3.860   3.819   2.857
21063W        W89437  25.588  16.619  10.481
21064W        W89438  24.724  31.507   2.860
21065W        W89439   3.790   8.687  12.417
21066W        W89440  36.964   0.799  12.559
21067W        W89441  30.945  38.071  11.017
21068W        W89442   0.943   0.804   1.378
21069W        W89443  33.981  28.619  13.534
21070W        W89444  44.297  29.044  13.846
21071W        W89445   2.753  15.691   0.846
21072W        W89446  13.310   6.699   0.302
21073W        W89447   2.961  33.460  12.879
21074W        W89448  33.023  32.913   2.863
21075W        W89449  43.423  21.613  11.120
21076W        W89450  27.680  25.621   3.371
21077W        W89451  28.176   8.297  10.581
21078W        W89452  23.518  33.403  12.579
21079W        W89453  39.447  15.799  12.829
21080W        W89454  30.946  26.611   0.328
21081W        W89455  37.067  32.098   0.818
21082W        W89456  35.876  29.996   3.781
21083W        W89457  32.408  30.587   2.741
21084W        W89458  11.146  36.903   1.863
21085W        W89459  44.784   3.286   0.269
21086W        W89460  13.206   9.717  14.454
21087W        W89461  31.116  44.282   1.742
21088W        W89462   7.304  34.473   1.831
21089W        W89463  11.311  36.465  10.520
21090W        W89464  18.117   3.774  14.869
21091W        W89465  16.161  23.043   2.820
21092W        W89466  28.505  34.892  10.569
21093W        W89467  21.518  42.842  14.914
21094W        W89468  23.115  26.099   1.878
21095W        W89469  29.076  37.054   4.187
21096W        W89470  19.100  37.396  13.416
21097W        W89471  21.746  21.104  11.505
21098W        W89472  14.608  42.833   0.365
21099W        W89473  35.372   6.850  11.006
21100W        W89474  23.080  18.267  12.989
21101W        W89475  29.463   4.351   0.809
21102W        W89476  44.003  22.226   3.361
21103W        W89477  16.609   3.216   2.860
21104W        W89478  41.028  34.066   3.775
21105W        W89479  42.030  38.348  11.079
21106W        W89480  23.224   0.248   2.876
21107W        W89481  24.550   8.257  13.464
21108W        W89482   7.750  10.775  14.459
21109W        W89483  19.676  42.944  12.913
21110W        W89484  37.000  18.293  11.936
21111W        W89485  25.543  34.076   1.369
21112W        W89486  43.270  19.104  11.096
21113W        W89487  37.001  14.737   2.181
21114W        W89488  35.457  39.528   4.809
21115W        W89489   7.253  18.104  12.007
21116W        W89490  43.957  35.391  11.956
21117W        W89491   4.336  21.656   2.334
21118W        W89492   1.900  27.055  12.549
21119W        W89493  26.611  17.642   4.201
21120W        W89494   1.333   9.281  13.404
21121W        W89495  28.096  42.894  12.434
21122W        W89496  44.300  10.258   0.445
21123W        W89497  26.992  40.990   1.773
21124W        W89498   5.720  31.422   3.346
21125W        W89499   7.380  13.811  14.511
21126W        W89500  40.963  42.467  14.406
21127W        W89501  19.645  29.127   3.830
21128W        W89502  35.870  22.601   3.824
21129W        W89503  20.767  14.673   3.359
21130W        W89504  12.804  27.684   3.237
21131W        W89505  17.106   2.384   4.247
21132W        W89506  17.705  38.536   3.855
21133W        W89507  32.071   4.937   5.223
21134W        W89508   5.825  17.708  12.012
21135W        W89509  35.066  35.885  10.023
21136W        W89510  37.014  15.740   3.319
21137W        W89511  31.490  41.525  13.921
21138W        W89512  13.797  36.965  10.621
21139W        W89513  18.694   4.835   1.816
21140W        W89514   5.433  30.642  12.089
21141W        W89515  25.649  40.958   3.713
21142W        W89516  15.782  13.697  13.493
21143W        W89517   6.349   4.775   0.450
21144W        W89518  10.743   5.807  10.955
21145W        W89519   2.789  10.730  14.462
21146W        W89520   4.239  21.096   2.861
21147W        W89521  33.568   7.888  12.832
21148W        W89522  38.050  27.485  12.040
21149W        W89523  41.987   6.182   2.357
21150W        W89524   4.899  14.244  13.939
21151W        W89525  13.179  14.205   4.214
21152W        W89526  44.490  41.824   2.863
21153W        W89527  38.361  20.764   0.816
21154W        W89528  42.488  25.629  12.981
21155W        W89529   5.927   9.667  12.831
21156W        W89530  44.425  13.679  10.929
21157W        W89531   2.242  12.810   3.858
21158W        W89532  30.162   5.918   2.868
21159W        W89533  26.099  44.924  14.894
21160W        W89534  44.307   3.875  11.899
21161W        W89535  15.643  34.922   0.917
21162W        W89536  18.113  43.293  13.059
21163W        W89537  28.979  17.102  14.495
21164W        W89538  10.281  12.687  14.291
21165W        W89539   8.321  25.681  14.979
21166W        W89540   8.335   4.701  14.316
21167W        W89541  44.345   0.376   2.713
21168W        W89542  13.834  25.977   2.774
21169W        W89543  11.719  13.820   4.348
21170W        W89544  16.743  36.349  14.375
21171W        W89545  40.455  24.066  11.951
21172W        W89546  38.354   6.212  12.030
21173W        W89547  36.566  44.469   2.259
21174W        W89548  22.236   6.289  13.997
21175W        W89549  16.590  29.106  14.515
21176W        W89550  14.127  27.065  11.930
21177W        W89551  41.370  17.601  13.935
21178W        W89552  36.082  37.860   3.853
21179W        W89553  23.685  17.222   1.823
21180W        W89554  19.614  26.180  13.804
21181W        W89555   8.171  32.631  12.857
21182W        W89556  22.144  25.008   3.849
21183W        W89557  14.593  25.540   4.732
21184W        W89558  42.457  15.773  11.977
21185W        W89559  44.318  22.505   3.669
21186W        W89560  27.175  31.637   1.931
21187W        W89561  35.492  23.186  11.611
21188W        W89562  41.987  11.258   4.709
21189W        W89563   2.785  41.996  12.929
21190W        W89564  22.242  36.377   4.125
21191W        W89565  31.083  41.311  11.478
21192W        W89566  22.131  30.023   2.192
21193W        W89567  32.079  17.599  10.474
21194W        W89568  20.209  26.515  11.403
21195W        W89569  36.487  30.103  12.853
21196W        W89570  26.997  18.243   4.837
21197W        W89571   4.356  15.251  14.366
21198W        W89572   3.310   4.435   3.672
21199W        W89573  40.407  35.984  14.308
21200W        W89574  40.806  16.666  12.028
21201W        W89575  27.078  42.837   1.344
21202W        W89576  10.706  43.321   4.623
21203W        W89577  23.699  10.765   4.631
21204W        W89578   9.810  11.765  11.495
21205W        W89579  28.525  38.553  12.560
21206W        W89580  20.575   7.199  14.323
21207W        W89581  10.781  29.667  13.463
21208W        W89582  36.949  12.610  12.454
21209W        W89583  40.878  11.761  12.054
21210W        W89584  30.473  36.978   2.740
21211W        W89585   4.259  36.049   2.896
21212W        W89586   8.402  29.065  11.906
21213W        W89587  17.279  27.963   5.287
21214W        W89588  12.821  21.221  14.023
21215W        W89589   7.179   0.324   1.793
21216W        W89590  19.108   4.878   2.895
21217W        W89591  26.524  44.797   1.424
21218W        W89592  32.955  39.529  12.054
21219W        W89593  36.465  32.478  10.455
21220W        W89594  21.613  34.397   1.373
21221W        W89595  18.273  43.863   2.745
21222W        W89596   9.242  38.448   1.282
21223W        W89597  19.250  35.987  14.287
21224W        W89598  20.034  17.166   0.762
21225W        W89599   1.786  40.008  12.883
21226W        W89600  13.143  42.850   1.390
21227W        W89601  30.150  20.744   3.645
21228W        W89602  34.046  44.804  10.618
21229W        W89603  41.822  43.442  11.547
21230W        W89604  29.170  20.218  14.354
21231W        W89605   3.398   6.355  11.389
21232W        W89606  16.181  24.979   4.650
21233W        W89607  31.108   5.201   3.834
21234W        W89608   0.974  32.104   0.932
21235W        W89609  32.536  42.326   3.197
21236W        W89610  39.435  11.848  14.431
21237W        W89611   2.924  39.028   2.389
21238W        W89612  18.744   5.836  13.832
21239W        W89613  33.547  12.767   1.251
21240W        W89614   0.906   2.349  10.932
21241W        W89615   5.828  15.205  14.998
21242W        W89616  13.221  32.109  14.885
21243W        W89617   8.855  28.183   1.422
21244W        W89618  11.792  30.615  13.953
21245W        W89619   9.288  22.531  12.040
21246W        W89620   3.251  36.067   0.911
21247W        W89621  41.019  26.604  14.391
21248W        W89622  12.192  26.694  10.639
21249W        W89623  22.507   9.197  11.071
21250W        W89624  22.067   4.244   2.395
21251W        W89625  40.908  40.980   4.319
21252W        W89626   7.789  27.060  11.896
21253W        W89627  22.719  16.752  11.074
21254W        W89628  23.078  39.989   0.740
21255W        W89629  16.072  24.624   1.816
21256W        W89630  24.624  38.532  13.975
21257W        W89631  42.372  34.957   0.308
21258W        W89632  17.696  39.862   4.126
21259W        W89633  31.408  29.549  10.641
21260W        W89634  24.586  33.444   2.406
21261W        W89635   4.928  14.251  10.080
21262W        W89636  35.070  19.609   3.162
21263W        W89637  32.094  33.593   2.874
21264W        W89638  24.598  29.170  12.076
21265W        W89639  19.211  30.648   3.287
21266W        W89640  36.063  33.386   2.725
21267W        W89641  35.037  29.021   0.287
21268W        W89642  22.044  32.435  12.535
21269W        W89643   1.412  38.441   3.704
21270W        W89644  31.975   7.407  10.057
21271W        W89645   9.838   6.898  11.530
21272W        W89646  27.067  21.524   3.171
21273W        W89647   5.827  43.325  10.623
21274W        W89648  26.557  43.285  10.059
21275W        W89649  24.103  26.580  11.428
21276W        W89650  31.048   8.886   0.781
21277W        W89651  10.771  37.341   3.861
21278W        W89652  24.195   0.746  14.475
21279W        W89653  28.062  13.195  10.606
21280W        W89654  44.426  38.538  12.913
21281W        W89655   3.261  37.977  13.329
21282W        W89656  40.998  22.136  11.450
21283W        W89657   8.333  38.507  12.543
21284W        W89658  27.689   9.155   1.253
21285W        W89659  38.881  25.160   2.183
21286W        W89660   7.343  38.452  12.407
21287W        W89661   3.847  11.301  12.007
21288W        W89662  26.502  25.001   1.285
21289W        W89663   4.868  16.680   0.898
21290W        W89664  18.176  37.355  12.034
21291W        W89665  36.863   1.821  14.984
21292W        W89666  42.350  42.010  13.324
21293W        W89667   2.743  15.159   4.120
21294W        W89668   7.247  14.709   2.335
21295W        W89669  13.228  21.544  11.954
21296W        W89670  40.395  17.614   2.192
21297W        W89671  40.819  18.598   4.189
21298W        W89672  38.963  15.595  11.484
21299W        W89673  12.849  17.746   0.834
21300W        W89674  11.279  37.518   4.663
21301W        W89675  14.665  28.138  12.010
21302W        W89676   4.904   9.754  11.519
21303W        W89677  38.492   8.267   2.319
21304W        W89678  42.954  28.497   1.441
21305W        W89679  21.670  15.670   3.321
21306W        W89680  38.327  24.218  11.481
21307W        W89681  41.816  37.446  11.121
21308W        W89682  33.030  12.277  11.034
21309W        W89683   2.873   9.663  11.015
21310W        W89684  36.905  31.937  13.498
21311W        W89685  37.002   4.893   1.384
21312W        W89686  17.299  30.116   0.457
21313W        W89687  24.644  17.654  12.543
21314W        W89688  41.497  12.305  12.826
21315W        W89689  28.638  33.583  12.078
21316W        W89690  18.706   6.386  12.425
21317W        W89691  42.969  10.308   0.951
21318W        W89692   4.291  36.087   4.634
21319W        W89693  40.441  20.567   1.824
21320W        W89694  16.583  29.153   1.276
21321W        W89695  40.474  32.072  10.559
21322W        W89696  42.364  35.047  11.908
21323W        W89697  10.174  30.960   2.695
21324W        W89698  18.591  43.384  14.800
21325W        W89699  37.354  42.866  10.910
21326W        W89700  19.651  20.705   4.160
21327W        W89701  10.271  29.936  11.439
21328W        W89702   8.662  33.055  12.871
21329W        W89703  20.062   5.781  11.468
21330W        W89704   2.393  11.712  12.541
21331W        W89705  28.173  41.390   2.189
21332W        W89706  19.181  40.951   3.328
21333W        W89707  39.036   7.745   1.445
21334W        W89708  36.363  25.019  13.853
21335W        W89709  33.984  13.190   2.401
21336W        W89710   5.386  43.977   4.597
21337W        W89711   2.334   2.265  14.387
21338W        W89712  40.481  25.687  14.817
21339W        W89713  11.763  13.135  13.871
21340W        W89714  28.478   4.845  10.410
21341W        W89715   9.677  12.287  12.972
21342W        W89716   4.901  36.976   3.344
21343W        W89717  29.458   1.747   2.346
21344W        W89718  11.718  38.444  12.920
21345W        W89719  17.609  10.649   2.407
21346W        W89720  30.584   9.293  11.970
21347W        W89721   1.736  18.634   4.795
21348W        W89722  17.218  38.343  11.940
21349W        W89723  29.480  38.027   3.162
21350W        W89724  10.662  13.334   3.745
21351W        W89725  10.846  26.679  10.426
21352W        W89726   9.826   9.298  13.804
21353W        W89727  24.513   7.790  14.908
21354W        W89728  11.779  43.892   4.326
21355W        W89729  36.021  41.345  13.394
21356W        W89730   3.420  44.956   2.838
21357W        W89731  24.511   9.842   2.249
21358W        W89732  20.571   2.350  11.874
21359W        W89733  26.545  10.836   2.322
21360W        W89734  36.544  16.675  10.902
21361W        W89735  36.022  42.915   4.733
21362W        W89736  32.531  24.169   4.601
21363W        W89737  40.420  21.573   1.872
21364W        W89738   9.269  22.652  11.399
21365W        W89739   9.789   4.880  11.545
21366W        W89740  34.528  36.565  13.852
21367W        W89741  28.161  23.565   3.746
21368W        W89742  44.928  13.673  14.906
21369W        W89743   3.417  21.052  13.802
21370W        W89744  34.484  12.256   4.742
21371W        W89745  41.832   3.873   2.179
21372W        W89746  31.424  22.121   2.393
21373W        W89747  19.272   8.245  11.949
21374W        W89748  24.993  29.530   3.832
21375W        W89749  24.538  18.765   3.334
21376W        W89750  29.146  43.965   4.236
21377W        W89751   8.380   1.790  14.915
21378W        W89752   4.833   8.710  12.948
21379W        W89753   2.290  35.998   5.150
21380W        W89754  11.847  39.999   2.220
21381W        W89755   4.847  35.464  13.019
21382W        W89756  39.981  18.165   3.212
21383W        W89757  12.728  40.519   1.718
21384W        W89758  33.951  19.598  12.085
21385W        W89759  24.983  31.048   3.159
21386W        W89760  25.154  20.261  14.399
21387W        W89761  22.715  21.613   4.607
21388W        W89762  33.380  15.156  10.623
21389W        W89763   1.879  34.553  12.422
21390W        W89764  12.128  43.405  12.827
21391W        W89765  16.663  41.876  12.019
21392W        W89766  28.653  13.833  14.818
21393W        W89767  13.780  29.166   3.254
21394W        W89768   3.375   1.973  12.834
21395W        W89769  26.988  27.636  11.118
21396W        W89770  25.149  24.513   2.727
21397W        W89771   6.243  35.460  10.459
21398W        W89772   6.826   9.863  13.490
21399W        W89773  20.235   9.205   2.410
21400W        W89774   1.334  40.393  14.395
21401W        W89775  20.152  12.356  14.854
21402W        W89776  21.169  30.077  10.121
21403W        W89777  13.126  41.313   0.901
21404W        W89778   8.718  23.574  14.336
21405W        W89779   9.692  40.960  11.868
21406W        W89780   9.245  26.137  14.489
21407W        W89781  39.544  40.942   3.229
21408W        W89782  24.564  36.009   2.358
21409W        W89783   7.798   8.335   2.247
21410W        W89784  39.406   6.243  12.357
21411W        W89785  19.732  17.558   4.761
21412W        W89786  39.942  29.170   3.323
21413W        W89787  38.440  40.348   1.449
21414W        W89788  19.544  27.051  12.430
21415W        W89789  18.259   3.344  11.398
21416W        W89790  25.210  27.504   2.393
21417W        W89791   7.679   3.774   0.467
21418W        W89792  14.237   8.224   2.319
21419W        W89793  11.787   3.749   1.422
21420W        W89794  40.978   6.426  10.993
21421W        W89795  16.191  34.507   3.350
21422W        W89796  13.114  44.906  12.463
21423W        W89797   6.758   9.230   4.777
21424W        W89798  28.963  21.097   2.826
21425W        W89799  23.221   1.740  11.431
21426W        W89800   9.203  19.158  14.905
21427W        W89801   5.352  29.044   0.414
21428W        W89802  44.965  13.752   0.959
21429W        W89803   4.282  27.057  14.428
21430W        W89804  44.803  29.024  10.618
21431W        W89805  27.998  18.723  14.921
21432W        W89806   8.267  40.485  10.912
21433W        W89807  22.517  42.848   4.634
21434W        W89808  28.636  15.600   3.799
21435W        W89809  22.704  29.591   0.414
21436W        W89810  32.939  29.988  13.543
21437W        W89811  19.123  34.970   1.756
21438W        W89812   9.213  19.207   4.820
21439W        W89813  12.664  20.235  12.546
21440W        W89814  41.412  13.234  12.385
21441W        W89815  43.769  42.406   4.158
21442W        W89816  11.223  30.567   0.473
21443W        W89817  24.660   5.923  10.994
21444W        W89818   4.435   2.919   2.708
21445W        W89819  19.640  29.091  10.051
21446W        W89820   6.719  43.999  13.906
21447W        W89821   2.966   2.236  14.998
21448W        W89822  28.541  14.622   3.263
21449W        W89823  28.101  17.280  12.848
21450W        W89824   8.851  44.906   2.702
21451W        W89825  28.624   0.963  13.465
21452W        W89826   1.462  41.465  13.515
21453W        W89827  14.228   0.428   3.725
21454W        W89828  20.690  31.467  14.444
21455W        W89829  24.154   1.357   3.813
21456W        W89830  44.985  43.863  14.835
21457W        W89831  30.657   4.400  14.927
21458W        W89832  24.974  40.915   0.840
21459W        W89833  37.032  24.097  12.433
21460W        W89834  37.955  34.887  10.124
21461W        W89835  33.017  43.440  12.899
21462W        W89836  23.591  28.020  13.374
21463W        W89837  42.015  16.305   2.319
21464W        W89838  23.683  21.513  10.959
21465W        W89839   0.485  35.933  14.910
21466W        W89840  15.731  44.796  14.793
21467W        W89841  38.000  36.963  14.983
21468W        W89842  42.794  29.438   1.334
21469W        W89843   3.331  12.324   1.841
21470W        W89844  39.820  14.159  14.324
21471W        W89845  13.141  35.951  10.135
21472W        W89846  39.890  26.139  10.935
21473W        W89847  30.112  37.986  12.365
21474W        W89848  44.878  23.640   2.898
21475W        W89849   6.740  31.499   2.789
21476W        W89850  15.225  18.087   0.843
21477W        W89851   8.780  43.438   1.801
21478W        W89852   1.421   7.394   3.385
21479W        W89853  20.608   1.869  12.029
21480W        W89854   4.784  31.632   4.266
21481W        W89855  20.192  41.378   0.953
21482W        W89856  27.953  24.579  12.078
21483W        W89857  43.901   4.392   4.647
21484W        W89858  13.744  35.461  13.006
21485W        W89859  12.209   6.342   1.849
21486W        W89860  21.066  10.298   3.216
21487W        W89861  39.024  18.635  13.388
21488W        W89862  44.462  34.084   0.416
21489W        W89863  19.723  42.980   3.350
21490W        W89864  19.269  27.538  11.080
21491W        W89865  35.943  33.931   4.723
21492W        W89866  25.029  34.455  13.914
21493W        W89867  26.519   8.863   1.357
21494W        W89868  32.582  40.003  11.478
21495W        W89869  16.076  40.930   1.931
21496W        W89870  37.521  22.245   1.807
21497W        W89871  21.583  40.361  11.528
21498W        W89872  18.625   8.373   0.313
21499W        W89873  17.073  40.324   2.347
21500W        W89874   6.368  42.998   0.282
21501W        W89875  31.079  29.451  13.863
21502W        W89876   5.837  41.904  12.864
21503W        W89877  10.193   2.816   3.664
21504W        W89878   2.226  25.042  13.948
21505W        W89879  14.755  19.164  10.603
21506W        W89880  36.520   8.665  14.835
21507W        W89881  23.587   6.849  12.481
21508W        W89882  31.452   8.253  12.484
21509W        W89883  42.330   8.881  13.919
21510W        W89884  31.610  13.824  13.356
21511W        W89885  25.144  13.262  11.015
21512W        W89886  25.030  18.266  14.445
21513W        W89887  38.497  37.426   3.756
21514W        W89888  27.051   2.311  12.847
21515W        W89889  11.265  41.950  10.581
21516W        W89890  44.429  15.322  12.080
21517W        W89891  20.581  42.418  11.954
21518W        W89892  15.620  34.588   0.260
21519W        W89893  22.696  41.324   1.794
21520W        W89894   4.897  41.491  14.964
21521W        W89895  12.644  29.130   4.249
21522W        W89896  25.476  23.514   2.351
21523W        W89897  34.409   5.831   0.254
21524W        W89898  21.592  15.256   1.935
21525W        W89899   7.695  18.590   2.356
21526W        W89900  19.138   0.970   4.268
21527W        W89901  41.873  31.532   0.399
21528W        W89902  43.873   3.864   1.774
21529W        W89903   9.845  10.860   1.430
21530W        W89904  12.165  29.076   2.259
21531W        W89905   6.790  24.711  13.356
21532W        W89906  10.725  38.524   1.792
21533W        W89907   7.277   5.880   2.814
21534W        W89908  33.083  13.706  12.357
21535W        W89909  32.519  34.489   2.743
21536W        W89910  17.251  44.471   0.303
21537W        W89911  40.504   2.344   3.296
21538W        W89912  36.533  30.611  10.471
21539W        W89913  40.410  19.283   1.379
21540W        W89914   3.383   2.900   3.866
21541W        W89915   1.839  20.130  11.433
21542W        W89916  24.603  31.641   0.336
21543W        W89917  32.133  25.493   1.213
21544W        W89918  31.137  32.889  14.025
21545W        W89919  18.108  37.044  11.950
21546W        W89920  15.293  38.969  11.026
21547W        W89921  25.123  23.149   0.445
21548W        W89922   1.434  31.093   2.352
21549W        W89923   0.804  39.478  13.430
21550W        W89924  21.096  18.105  14.025
21551W        W89925   5.197  37.436  12.562
21552W        W89926  22.211  38.937   1.803
21553W        W89927   9.194   5.203   2.694
21554W        W89928  12.812  20.742   2.247
21555W        W89929  38.931  31.023  13.544
21556W        W89930  23.234  15.239  10.472
21557W        W89931   4.705   8.769  11.598
21558W        W89932  20.090   9.246   4.694
21559W        W89933   6.788  20.041  10.500
21560W        W89934  37.543  11.819   1.803
21561W        W89935  37.058   1.935  12.349
21562W        W89936  19.593  11.707  12.910
21563W        W89937  21.108  38.368   5.262
21564W        W89938  42.834   8.751   0.267
21565W        W89939  40.911  42.311  11.519
21566W        W89940  13.684  12.167   2.213
21567W        W89941   5.691  34.061  13.408
21568W        W89942  19.107  16.242  14.397
21569W        W89943  31.567  24.130   3.147
21570W        W89944  13.835  14.107  11.432
21571W        W89945  18.278   1.737   1.904
21572W        W89946   4.377   3.903  11.927
21573W        W89947  38.983  43.839   3.195
21574W        W89948  27.093  11.704   3.723
21575W        W89949  38.841  42.304  13.955
21576W        W89950  12.302  31.433  14.285
21577W        W89951  36.418  16.252  11.115
21578W        W89952  18.209  16.645   2.296
21579W        W89953  24.188   3.925   2.788
21580W        W89954  38.368   6.316   9.621
21581W        W89955   7.667  44.770  11.944
21582W        W89956  40.429   9.169  10.639
21583W        W89957  40.044   4.936   1.424
21584W        W89958  10.288  23.036   3.768
21585W        W89959  42.950   6.394  13.827
21586W        W89960  11.188  22.703   0.479
21587W        W89961  41.425   2.923  10.538
21588W        W89962  34.470  20.637  14.840
21589W        W89963  27.951  11.678   2.354
21590W        W89964  36.496  25.598   3.824
21591W        W89965  44.392  13.697   3.722
21592W        W89966  19.685  20.233  14.937
21593W        W89967  20.548  23.639   2.749
21594W        W89968  21.702  35.979  12.020
21595W        W89969  23.113  35.579  10.987
21596W        W89970  40.881  22.251  13.827
21597W        W89971  29.481  23.582   3.749
21598W        W89972  43.419  44.929  11.420
21599W        W89973  32.002  38.426  12.487
21600W        W89974  28.639  36.946   1.316
21601W        W89975  14.721  37.852   0.843
21602W        W89976  28.569  34.913  14.877
21603W        W89977   3.881  30.937  14.304
21604W        W89978  22.175   1.755   3.779
21605W        W89979  35.493   5.896  14.487
21606W        W89980   8.249   4.870   3.810
21607W        W89981   6.374  40.019  13.921
21608W        W89982  37.374  22.590  11.007
21609W        W89983  43.428  44.961   3.284
21610W        W89984   5.343  24.148  10.627
21611W        W89985  17.752   1.442   0.389
21612W        W89986   3.372  35.033  10.941
21613W        W89987  33.542   6.908  10.052
21614W        W89988  19.054   0.867   0.937
21615W        W89989  20.591   2.736   3.219
21616W        W89990  19.196  32.963   2.386
21617W        W89991  19.261  22.104  11.911
21618W        W89992   9.383  12.194   1.807
21619W        W89993  32.473  23.552  11.389
21620W        W89994  30.478  34.414  13.997
21621W        W89995  25.515  29.665  11.427
21622W        W89996  10.175  12.213  14.400
21623W        W89997  27.566  24.604  11.017
21624W        W89998  25.609  15.282   2.244
21625W        W89999  32.041  11.766  14.502
21626W        W90000   1.373  20.121   2.737
21627W        W90001  38.013  20.720   3.732
21628W        W90002  16.290  36.489  13.531
21629W        W90003  33.931   6.246   0.887
21630W        W90004   8.847   3.923   1.839
21631W        W90005   3.232   5.240  10.526
21632W        W90006  16.755  20.704   4.154
21633W        W90007  16.746   4.321  10.442
21634W        W90008  18.730   5.229  11.003
21635W        W90009  13.191  44.787   2.393
21636W        W90010  27.023  17.250   2.798
21637W        W90011  34.533  24.626   2.351
21638W        W90012  20.549  24.028   4.761
21639W        W90013  41.379  22.551   2.740
21640W        W90014  27.450  26.568   2.341
21641W        W90015  30.159   9.232  10.522
21642W        W90016  15.694   1.834  12.011
21643W        W90017   9.787   3.430  14.991
21644W        W90018  24.650  28.476   1.331
21645W        W90019   6.411  43.953  13.316
21646W        W90020  19.212  23.032   1.266
21647W        W90021   7.877   0.933   2.754
21648W        W90022  34.583   1.919  11.056
21649W        W90023  20.034  35.887  14.974
21650W        W90024   1.802  36.960  11.469
21651W        W90025  34.487  16.128   2.662
21652W        W90026  20.178  37.843   1.831
21653W        W90027  15.173  15.188   2.363
21654W        W90028   8.393   4.765  10.019
21655W        W90029   6.743  40.539   1.394
21656W        W90030  17.753   2.948   2.304
21657W        W90031  23.505  19.043  14.420
21658W        W90032  26.616   7.783   0.901
21659W        W90033  26.672   4.755   2.232
21660W        W90034  25.648  42.796   3.291
21661W        W90035  18.226  38.833  13.984
21662W        W90036   6.917  34.514   3.652
21663W        W90037  33.489  12.819  12.066
21664W        W90038  15.727  42.298   1.781
21665W        W90039  19.658  22.566  13.393
21666W        W90040  43.332  35.856   4.313
21667W        W90041  44.006  20.755   3.841
21668W        W90042  26.561  30.569   2.828
21669W        W90043  17.124  31.433  13.330
21670W        W90044  40.477  34.386   1.301
21671W        W90045  10.712  10.654   4.607
21672W        W90046  17.103  10.200   1.242
21673W        W90047  40.420  24.694   1.407
21674W        W90048  24.211  26.966  12.551
21675W        W90049   5.710   9.692   3.677
21676W        W90050  20.639  42.971   2.381
21677W        W90051  22.598  28.025  13.998
21678W        W90052   5.738  30.966   1.876
21679W        W90053  34.002  39.388  14.346
21680W        W90054  44.425  39.027   0.738
21681W        W90055  44.343  20.669  10.411
21682W        W90056  32.637  35.958  11.045
21683W        W90057   5.301  22.099  11.494
21684W        W90058  43.319  12.776   3.870
21685W        W90059  39.322  14.746  14.491
21686W        W90060  35.444  41.950  14.459
21687W        W90061  32.503  11.279   1.775
21688W        W90062   3.716  39.888  10.425
21689W        W90063   6.220  22.247  11.447
21690W        W90064  19.204  40.895   0.295
21691W        W90065  33.490  15.208   2.866
21692W        W90066  30.949  36.577  14.469
21693W        W90067  33.532  27.511   3.692
21694W        W90068   9.297  30.067   0.355
21695W        W90069   4.248  27.172  11.610
21696W        W90070  14.754   0.315   1.741
21697W        W90071   7.396  19.216   4.651
21698W        W90072  38.481  19.537   1.297
21699W        W90073  14.158   0.985  12.466
21700W        W90074  19.724  43.467   4.203
21701W        W90075  22.226  43.910  11.514
21702W        W90076   3.303  17.787  11.108
21703W        W90077   7.267  17.732  12.837
21704W        W90078  41.296  34.072  14.447
21705W        W90079  14.144  38.967   2.831
21706W        W90080  35.904  36.470   5.141
21707W        W90081   4.369  41.032  11.989
21708W        W90082   0.376  35.005  12.461
21709W        W90083  18.588   3.389  10.426
21710W        W90084  16.206   7.760  12.548
21711W        W90085  11.665  40.878  12.064
21712W        W90086  17.713   7.172  13.051
21713W        W90087   2.913   4.750   0.913
21714W        W90088   6.756  17.084  12.553
21715W        W90089  32.020   4.834   1.321
21716W        W90090   3.301   3.919   1.897
21717W        W90091  28.521  27.994  11.384
21718W        W90092  22.747  31.581  13.873
21719W        W90093  21.245   3.716   0.837
21720W        W90094  23.986  18.241  13.491
21721W        W90095   5.348  30.651  12.942
21722W        W90096   0.320  15.184   4.753
21723W        W90097  24.571  21.745   3.323
21724W        W90098  21.119   1.837   1.874
21725W        W90099  41.956  12.292  13.813
21726W        W90100  34.389  20.698  12.989
21727W        W90101   3.219  26.026   0.740
21728W        W90102   4.831   9.315   1.325
21729W        W90103  30.583  21.544  10.995
21730W        W90104  19.078  21.536   4.759
21731W        W90105  31.536  30.548  11.899
21732W        W90106   6.403  27.104  14.414
21733W        W90107  39.400  36.930   1.284
21734W        W90108   0.420  11.839  11.922
21735W        W90109  10.791  26.651   4.720
21736W        W90110  39.905  27.178   0.385
21737W        W90111  10.251  35.046   1.786
21738W        W90112  33.059  11.725   3.672
21739W        W90113  38.831  30.116   1.439
21740W        W90114  24.634  20.733   3.856
21741W        W90115  34.110  28.456   3.789
21742W        W90116  42.480  25.572  12.410
21743W        W90117  23.056  36.421  11.072
21744W        W90118  18.148  33.874   4.215
21745W        W90119   1.293  21.031  12.876
21746W        W90120  18.116  29.138   1.733
21747W        W90121  27.599  39.047   3.316
21748W        W90122  31.900   5.235  11.373
21749W        W90123  36.451  21.694   3.287
21750W        W90124  23.612  32.017  11.974
21751W        W90125   4.762  18.717  14.799
21752W        W90126   6.896   6.422   3.232
21753W        W90127  22.603  39.904   1.221
21754W        W90128   4.402  26.489  11.545
21755W        W90129  12.327  18.083  12.065
21756W        W90130   6.299  39.952  12.053
21757W        W90131  35.492   2.731  12.894
21758W        W90132  39.809   5.916   0.280
21759W        W90133  29.597  10.341   0.852
21760W        W90134  28.563  36.937  11.544
21761W        W90135  13.676   2.737   3.642
21762W        W90136  32.071  15.112   2.892
21763W        W90137   2.726   9.661  10.498
21764W        W90138  24.522  17.177   1.913
21765W        W90139  29.580   2.924  10.535
21766W        W90140   1.968  15.736   3.179
21767W        W90141  32.488  42.398  10.894
21768W        W90142  29.170  14.619   1.845
21769W        W90143  36.073  41.417  14.867
21770W        W90144  43.322  12.270   2.736
21771W        W90145  20.256  33.415   1.415
21772W        W90146  11.140   3.821  14.953
21773W        W90147  19.537   2.364  10.407
21774W        W90148  40.022   9.679   0.384
21775W        W90149   1.271   8.783  12.431
21776W        W90150   4.432   2.731  12.398
21777W        W90151  23.492  29.157   1.816
21778W        W90152  16.769  29.544   2.245
21779W        W90153   8.847  39.480   0.384
21780W        W90154  16.659  34.523  10.962
21781W        W90155   8.179   7.831  12.885
21782W        W90156   6.257  34.478  14.368
21783W        W90157  28.090  15.638  13.815
21784W        W90158  38.063  39.318   3.335
21785W        W90159  26.012  18.177   4.197
21786W        W90160   4.848  31.901   4.836
21787W        W90161  14.221  23.016   2.791
21788W        W90162   7.877  11.767  10.521
21789W        W90163  20.092  36.548  14.322
21790W        W90164   4.765   5.746   4.292
21791W        W90165  44.922  15.148   1.856
21792W        W90166  25.999  29.049   2.272
21793W        W90167   4.787  28.641   1.420
21794W        W90168  26.160  31.459  11.020
21795W        W90169  43.424  32.622   4.683
21796W        W90170  10.292  31.581  11.983
21797W        W90171  29.076  38.484  11.570
21798W        W90172  35.071  44.308  11.430
21799W        W90173  14.657   6.854  12.408
21800W        W90174  13.721  39.507  14.988
21801W        W90175  44.362  22.219  12.944
21802W        W90176  11.622  17.203  10.084
21803W        W90177  32.495  27.541   4.654
21804W        W90178   2.359  29.601  10.566
21805W        W90179  28.435  30.123  11.038
21806W        W90180  13.721  30.000  11.866
21807W        W90181  14.803  34.381  13.797
21808W        W90182  18.678  38.001  10.467
21809W        W90183  37.984  38.343   4.612
21810W        W90184  34.078  43.445   0.467
21811W        W90185  44.298  33.626   5.242
21812W        W90186  24.536  37.871   1.732
21813W        W90187  37.483  24.667   2.865
21814W        W90188   3.881   6.880   0.475
21815W        W90189  19.665  35.434   1.905
21816W        W90190  41.801   3.928  12.449
21817W        W90191  40.838  10.798  13.034
21818W        W90192  14.282  17.802  13.414
21819W        W90193  34.872  28.036   3.675
21820W        W90194  21.130  43.415  14.409
21821W        W90195  17.744   7.733  10.624
21822W        W90196  32.615   7.286   0.435
21823W        W90197  26.631   3.329  14.277
21824W        W90198  26.509  37.556   4.597
21825W        W90199   3.955  33.947   4.681
21826W        W90200  22.179  11.369   4.279
21827W        W90201  26.052  43.269   2.308
21828W        W90202   9.688  22.733   4.836
21829W        W90203  13.334   4.835   3.749
21830W        W90204  28.145  10.841   2.845
21831W        W90205   0.336  20.697   2.863
21832W        W90206  18.279  25.579  11.077
21833W        W90207  12.834  35.379   4.718
21834W        W90208  43.892   7.831  13.529
21835W        W90209  10.658   6.425  13.983
21836W        W90210  25.532  30.027   5.316
21837W        W90211   6.698  15.293  14.892
21838W        W90212  30.607  33.414  14.990
21839W        W90213  17.744  15.151  12.991
21840W        W90214  13.243   0.258   2.834
21841W        W90215  28.967   0.310   1.712
21842W        W90216   2.780   4.399   0.342
21843W        W90217  21.691   2.280   0.964
21844W        W90218  37.549  18.550   0.842
21845W        W90219  36.013   2.393   5.284
21846W        W90220  22.519  17.067   4.211
21847W        W90221  20.146  34.880   4.602
21848W        W90222  33.588  30.048   0.792
21849W        W90223  39.866  37.346  13.923
21850W        W90224  12.784  14.750   3.349
21851W        W90225  17.242   7.337  11.858
21852W        W90226  13.811  37.907   4.213
21853W        W90227  31.078  25.534   1.879
21854W        W90228  28.539  37.075  14.456
21855W        W90229  41.984   5.892   4.314
21856W        W90230  26.148  24.576   2.278
21857W        W90231   8.344  43.853   4.699
21858W        W90232   9.737  21.099   3.666
21859W        W90233  34.486  17.589  11.939
21860W        W90234   2.339  17.662  13.325
21861W        W90235  15.278  16.768  12.973
21862W        W90236  22.054  41.492  14.021
21863W        W90237  32.091  31.910  10.440
21864W        W90238  20.751  32.603   3.341
21865W        W90239  17.142  18.223   5.182
21866W        W90240   5.401  33.606   2.695
21867W        W90241  25.655  12.346   4.642
21868W        W90242  31.410  32.032  12.044
21869W        W90243   3.245   8.396   0.813
21870W        W90244  29.045  11.645  13.878
21871W        W90245  10.224  38.984   3.316
21872W        W90246   5.296   5.854  13.801
21873W        W90247   8.658  36.996  12.918
21874W        W90248  44.462  17.650   0.289
21875W        W90249  38.902  26.098  13.463
21876W        W90250  40.526   5.347  13.487
21877W        W90251  24.082   3.888  10.899
21878W        W90252  38.557  16.672  10.888
21879W        W90253  19.194   1.305   4.228
21880W        W90254  30.491  27.501   0.295
21881W        W90255   3.922  35.048  12.027
21882W        W90256   8.403  31.578  10.470
21883W        W90257  13.829   7.230   0.355
21884W        W90258  41.947  37.994  14.979
21885W        W90259   3.269  12.352   2.219
21886W        W90260  11.788   3.279   0.760
21887W        W90261  30.626   3.285  13.920
21888W        W90262  34.569  21.059   2.750
21889W        W90263  35.495  42.303  12.070
21890W        W90264  19.563   7.404   0.479
21891W        W90265  27.658  26.995   4.702
21892W        W90266  41.875  20.661  11.602
21893W        W90267  18.162  33.990   4.701
21894W        W90268  24.580  18.747   4.716
21895W        W90269  31.020   4.397  11.381
21896W        W90270   0.960  15.804  12.481
21897W        W90271  36.558   5.799  14.911
21898W        W90272  36.893   2.763   1.364
21899W        W90273  23.718   5.760  10.924
21900W        W90274  32.537  42.484  12.376
21901W        W90275  21.557  37.009  13.992
21902W        W90276  24.193  44.853  10.937
21903W        W90277   5.821  18.763  12.945
21904W        W90278  22.512  25.117   5.254
21905W        W90279  22.606   2.263  11.901
21906W        W90280   8.402  17.666   2.868
21907W        W90281  16.281  10.244   0.468
21908W        W90282  28.441  18.771   0.451
21909W        W90283  21.119  44.372   0.262
21910W        W90284   4.774  17.255  12.510
21911W        W90285  15.652   6.223  11.087
21912W        W90286  19.091  33.999   4.339
21913W        W90287   5.227  38.979   2.862
21914W        W90288   7.333  14.330   0.853
21915W        W90289   1.425  39.931   1.352
21916W        W90290   5.225  32.455   2.889
21917W        W90291   1.977  20.656  13.309
21918W        W90292  37.526  37.527  12.041
21919W        W90293  13.631  28.989  11.476
21920W        W90294   6.300  14.325  12.047
21921W        W90295   2.875   5.882  13.939
21922W        W90296  36.939  36.996   3.304
21923W        W90297  36.928  30.934  12.440
21924W        W90298  20.223  39.045   2.244
21925W        W90299  42.017  26.486   3.250
21926W        W90300  34.049   2.785  14.774
21927W        W90301  22.613  44.801   2.194
21928W        W90302  24.111   7.847  12.093
21929W        W90303  37.337  17.171   0.403
21930W        W90304  24.141  40.401   2.821
21931W        W90305  34.115  20.707  11.106
21932W        W90306  31.029  29.120  10.075
21933W        W90307  16.095   6.403   1.315
21934W        W90308  23.493  19.222   4.607
21935W        W90309  34.463   5.209   4.166
21936W        W90310  29.444   8.682  14.013
21937W        W90311  10.176  35.459   2.307
21938W        W90312  14.659   3.309   0.398
21939W        W90313  34.420   0.942   4.696
21940W        W90314  20.209  22.034  10.525
21941W        W90315  42.943  37.982  13.034
21942W        W90316  33.458  10.803  14.799
21943W        W90317  40.377  44.337  13.397
21944W        W90318  24.196   0.767   3.206
21945W        W90319  23.688  11.640   1.443
21946W        W90320  17.285  44.904   3.865
21947W        W90321  20.559  35.499   3.660
21948W        W90322  19.120   1.766   2.208
21949W        W90323  31.972  28.476   4.294
21950W        W90324  34.894  28.478   4.233
21951W        W90325  33.041  26.649  13.925
21952W        W90326  10.849  44.950   3.341
21953W        W90327  22.017  31.626   2.795
21954W        W90328  24.624  14.093   1.847
21955W        W90329  40.900  27.058   3.800
21956W        W90330  35.548  44.875   1.845
21957W        W90331  29.511   6.390  13.503
21958W        W90332   3.738  12.715   1.776
21959W        W90333  29.051   3.943  14.790
21960W        W90334   0.925  10.639  13.937
21961W        W90335  34.456   5.889   1.756
21962W        W90336  44.467  11.221   1.902
21963W        W90337  24.622  37.372  11.934
21964W        W90338  43.413  39.375   0.361
21965W        W90339  30.068  23.503   4.644
21966W        W90340   6.214   5.907  11.070
21967W        W90341  35.541  42.833  12.074
21968W        W90342  14.259   4.883   3.254
21969W        W90343  10.267   7.333   4.295
21970W        W90344   9.192   7.726   4.819
21971W        W90345   2.869  39.380   0.413
21972W        W90346  16.231  34.526   1.887
21973W        W90347  43.965  25.648  13.815
21974W        W90348  44.999  36.923  11.953
21975W        W90349   2.227   7.243  10.641
21976W        W90350  26.093  22.214  11.993
21977W        W90351  34.423  43.765   1.722
21978W        W90352  37.017  10.358   1.371
21979W        W90353  40.476   3.830  13.853
21980W        W90354  25.206   2.399   2.248
21981W        W90355   3.384  15.645   2.724
21982W        W90356   5.693  33.074  10.934
21983W        W90357  13.686  37.059  12.550
21984W        W90358  11.301  20.092   1.318
21985W        W90359  31.577  14.707  10.453
21986W        W90360  35.004  36.080  14.973
21987W        W90361  42.829  12.671   0.284
21988W        W90362  26.146  29.495   4.231
21989W        W90363   6.416  40.942   4.625
21990W        W90364  36.879  21.048  11.971
21991W        W90365   2.964  32.105   0.884
21992W        W90366  28.564  25.104   3.838
21993W        W90367  12.619   3.414   0.767
21994W        W90368  38.329  24.686  14.924
21995W        W90369  40.996  31.538  13.810
21996W        W90370   3.725  29.143   3.839
21997W        W90371  31.633  20.612  12.496
21998W        W90372  29.101  18.550   4.184
21999W        W90373  38.472  39.981   4.604
22000W        W90374  35.489  27.651   2.778
22001W        W90375  20.081  14.304  11.489
22002W        W90376  29.425  12.819   3.374
22003W        W90377  34.435  36.358   4.293
22004W        W90378  11.161   2.954   0.755
22005W        W90379   0.395  12.738   3.193
22006W        W90380   9.199  14.748   3.857
22007W        W90381  40.845  22.121   2.385
22008W        W90382  36.499  22.116  12.895
22009W        W90383  27.191  30.414   3.687
22010W        W90384  43.867  19.214   0.774
22011W        W90385  25.172   1.927   3.853
22012W        W90386  24.557  31.026   1.910
22013W        W90387  38.398   8.716  11.517
22014W        W90388  36.367   4.731  12.502
22015W        W90389  12.138  41.482  10.518
22016W        W90390  22.074  21.618  14.469
22017W        W90391   8.380   8.776  12.345
22018W        W90392  38.327  13.323  14.997
22019W        W90393   9.714  41.935  12.520
22020W        W90394  39.542  42.284   2.250
22021W        W90395  28.643   6.721   3.197
22022W        W90396  36.494  23.539   5.178
22023W        W90397  23.005  27.197   1.359
22024W        W90398   4.734  12.358  13.861
22025W        W90399  18.157  10.747  10.901
22026W        W90400  17.576  20.754  12.467
22027W        W90401  32.927  43.840  14.445
22028W        W90402  27.965  39.822  14.798
22029W        W90403  43.295  33.120  14.403
22030W        W90404  11.643  34.879  12.065
22031W        W90405  36.024  16.243   2.872
22032W        W90406  39.519   5.358   4.694
22033W        W90407  10.374  22.674   0.414
22034W        W90408  34.532  11.210   2.854
22035W        W90409  33.503  28.120  14.841
22036W        W90410  26.478  13.275   2.666
22037W        W90411  26.152  21.675   0.860
22038W        W90412  32.465  12.701   3.225
22039W        W90413  28.467  17.752   3.286
22040W        W90414  42.023  14.612   3.298
22041W        W90415  39.441  20.254   0.940
22042W        W90416  44.861  43.778  11.068
22043W        W90417  12.277  16.792   3.670
22044W        W90418  44.814  29.069   3.771
22045W        W90419  23.677  36.492   2.851
22046W        W90420  44.863   2.857   0.952
22047W        W90421  25.499  44.278  10.089
22048W        W90422  14.660  15.805  14.866
22049W        W90423  13.740  33.072   1.265
22050W        W90424  18.106   9.693  12.060
22051W        W90425  32.054  33.911  14.392
22052W        W90426  30.012  44.407  10.563
22053W        W90427  29.997  30.500  13.355
22054W        W90428  31.478  42.384   4.176
22055W        W90429  10.696  16.225   0.771
22056W        W90430  14.212  26.651   5.212
22057W        W90431  25.062  41.466  13.541
22058W        W90432  19.216  33.422   1.746
22059W        W90433   4.754  14.275  11.024
22060W        W90434  41.031  18.115   0.436
22061W        W90435  33.426  28.653   2.780
22062W        W90436  36.890  18.605   0.355
22063W        W90437   7.742  12.274   2.734
22064W        W90438  39.905  10.640  14.960
22065W        W90439  31.131  18.549  10.613
22066W        W90440  39.416  25.577   4.220
22067W        W90441  17.717  29.104  13.925
22068W        W90442  10.259  11.810   2.225
22069W        W90443  10.159  16.109   1.273
22070W        W90444  23.194  40.313  13.012
22071W        W90445  19.610   0.942   2.782
22072W        W90446  38.983  37.914  11.982
22073W        W90447  33.508  10.664  11.029
22074W        W90448  19.130  35.926   3.686
22075W        W90449  20.527  39.922   2.755
22076W        W90450   2.883  26.008  11.530
22077W        W90451  38.449  34.932   2.886
22078W        W90452   0.362  30.626  12.532
22079W        W90453  19.639  44.866  11.575
22080W        W90454  16.233  40.855  14.965
22081W        W90455  36.590  22.701  12.825
22082W        W90456  34.085  44.424   0.743
22083W        W90457   2.243  34.109   1.711
22084W        W90458   6.813  27.121  14.994
22085W        W90459  34.565  29.001   1.821
22086W        W90460  37.935   4.933  11.605
22087W        W90461   3.407  36.470   5.175
22088W        W90462  13.708  14.765   3.354
22089W        W90463  22.561  25.985  13.902
22090W        W90464  22.716   0.917  10.549
22091W        W90465  32.455  12.693  13.796
22092W        W90466   2.902   9.195   2.386
22093W        W90467   5.300   4.405  14.322
22094W        W90468  38.967  23.173  12.528
22095W        W90469  24.674   0.284  10.476
22096W        W90470  33.495  21.679   1.781
22097W        W90471  23.498   8.748   4.678
22098W        W90472  31.153  25.506   0.332
22099W        W90473  20.069  10.813  11.017
22100W        W90474  21.239   9.262   0.756
22101W        W90475  12.186  38.974  11.973
22102W        W90476  36.393  22.543  12.069
22103W        W90477   9.720  43.396   3.849
22104W        W90478   8.686   6.732   2.717
22105W        W90479  30.627  26.656  11.896
22106W        W90480  32.113  22.249   4.643
22107W        W90481  18.074   7.894  14.025
22108W        W90482  38.821  12.282   2.248
22109W        W90483  34.426  25.698  11.115
22110W        W90484  44.314  43.331  11.993
22111W        W90485  21.565  12.247  14.903
22112W        W90486  17.693  13.213  14.510
22113W        W90487   9.292  35.580   2.886
22114W        W90488  29.633  10.355  10.018
22115W        W90489  18.188   1.959  11.924
22116W        W90490   7.752   1.238   2.395
22117W        W90491  22.545  22.197  13.050
22118W        W90492  28.119  38.475   0.882
22119W        W90493  35.931  11.721   0.277
22120W        W90494   1.746  43.945  10.468
22121W        W90495  39.014  24.596  10.433
22122W        W90496  34.902   5.836  13.053
22123W        W90497  17.218  23.186   4.699
22124W        W90498  15.293  11.214   4.260
22125W        W90499  40.839  23.694  11.034
22126W        W90500   1.915   9.341   2.807
22127W        W90501   8.217  43.784   2.382
22128W        W90502  20.127  18.645   4.748
22129W        W90503  43.778  42.462   2.382
22130W        W90504  15.289  31.620   0.459
22131W        W90505  44.339  16.755  14.882
22132W        W90506  42.378  31.598   1.753
22133W        W90507   5.350   7.279  12.031
22134W        W90508  39.547  10.165   1.307
22135W        W90509  11.211  12.338  11.876
22136W        W90510  35.039  25.193   2.875
22137W        W90511  11.698  15.592  10.539
22138W        W90512   4.430  41.000  10.413
22139W        W90513   8.680  40.341  11.410
22140W        W90514  20.178  22.520   0.804
22141W        W90515  43.473  18.689  10.587
22142W        W90516  29.030  33.422   3.209
22143W        W90517  31.646  21.689   4.686
22144W        W90518   9.827   4.316  11.966
22145W        W90519  37.009   0.849  14.466
22146W        W90520  17.090  39.456  14.453
22147W        W90521  26.080  37.839  10.514
22148W        W90522  39.545  34.497   0.745
22149W        W90523  40.948  40.805  12.580
22150W        W90524   0.860  32.069  10.414
22151W        W90525   1.475  21.605  12.556
22152W        W90526  22.097  11.789  10.643
22153W        W90527  36.884  40.479   0.406
22154W        W90528  43.484   4.341  11.863
22155W        W90529  10.792   6.708  12.409
22156W        W90530  42.460   9.312   1.772
22157W        W90531   3.381  22.720   3.807
22158W        W90532  29.942  12.257  11.444
22159W        W90533  37.474   6.416  11.540
22160W        W90534   4.900  18.127   3.705
22161W        W90535  15.101  27.626   2.838
22162W        W90536  34.994  12.344  12.491
22163W        W90537  10.705   1.462  10.637
22164W        W90538  15.204  11.363  12.449
22165W        W90539   2.375   4.214   1.860
22166W        W90540   2.434   6.732   2.296
22167W        W90541  26.088   6.325  12.825
22168W        W90542  40.945  15.806   1.416
22169W        W90543  18.558  22.095  12.570
22170W        W90544   5.835  44.473  13.858
22171W        W90545   7.239  36.859  13.545
22172W        W90546  13.191  12.318   4.767
22173W        W90547  38.366  33.534   0.868
22174W        W90548  30.639  38.052   2.292
22175W        W90549  17.076  32.493   3.739
22176W        W90550  18.105  12.743  11.958
22177W        W90551   4.359   9.834   3.865
22178W        W90552  36.906  13.147  13.339
22179W        W90553  43.828  33.926  13.011
22180W        W90554  37.408  41.303  11.493
22181W        W90555   9.777  35.985   1.344
22182W        W90556   0.899  16.316  10.476
22183W        W90557  29.106   1.265  10.554
22184W        W90558  25.649  24.209   0.805
22185W        W90559  34.444   6.779   2.403
22186W        W90560  28.952  14.183  11.584
22187W        W90561  33.477  27.954   2.203
22188W        W90562  15.619  16.177   2.204
22189W        W90563  20.042   3.259   1.449
22190W        W90564   3.820  41.368   1.266
22191W        W90565  25.152  14.164   3.863
22192W        W90566  20.195  36.848  14.393
22193W        W90567  23.004  14.196  12.015
22194W        W90568  23.238  36.879   0.288
22195W        W90569   3.455  36.365   2.317
22196W        W90570  26.096  19.152   2.178
22197W        W90571  26.646   2.347  13.064
22198W        W90572  26.544   2.870   1.783
22199W        W90573   5.300  25.055  13.812
22200W        W90574  44.773  23.706  13.810
22201W        W90575  44.434   3.926   2.305
22202W        W90576  19.201  18.152   1.369
22203W        W90577   5.377   4.879  10.521
22204W        W90578  26.647  33.063  11.009
22205W        W90579   1.759  38.566   0.797
22206W        W90580  13.171  11.858   3.202
22207W        W90581  36.398  31.603  13.460
22208W        W90582  37.389   5.841  14.420
22209W        W90583  10.192  34.863   5.236
22210W        W90584  41.384  34.409   1.744
22211W        W90585  37.855  35.934  11.054
22212W        W90586   6.755  21.740  11.104
22213W        W90587  21.669  23.630   4.304
22214W        W90588   2.388  26.136   3.339
22215W        W90589  42.402  31.909  12.845
22216W        W90590   8.168   4.904   3.242
22217W        W90591  17.637  41.905  14.428
22218W        W90592  26.655  41.838   5.215
22219W        W90593  35.865  37.959   3.370
22220W        W90594   5.320  14.134   1.777
22221W        W90595  22.178  28.135   3.654
22222W        W90596   5.252   9.689   0.375
22223W        W90597  39.535  30.501  11.601
22224W        W90598   7.736   6.807   3.204
22225W        W90599  34.013   3.253   0.450
22226W        W90600   5.198  25.078   2.894
22227W        W90601  28.986  43.351   5.194
22228W        W90602  40.962  25.483  14.883
22229W        W90603   0.491  11.267   3.871
22230W        W90604   9.728  17.606   1.851
22231W        W90605   6.716  12.120   1.855
22232W        W90606   8.868  38.415   0.884
22233W        W90607  32.906  11.799   1.804
22234W        W90608  44.004  41.495  12.982
22235W        W90609  31.968  40.035   0.873
22236W        W90610  37.916  23.012   3.329
22237W        W90611  44.299  21.645  12.969
22238W        W90612  40.052  12.235  11.906
22239W        W90613   6.414  22.601  10.423
22240W        W90614   2.734  25.686   3.793
22241W        W90615  15.194   7.336   3.860
22242W        W90616  42.844   2.951   4.317
22243W        W90617  35.031   0.750  10.146
22244W        W90618  13.631  13.692  13.328
22245W        W90619  37.858  25.047  10.611
22246W        W90620  42.471  12.122   3.645
22247W        W90621  32.597  22.131   1.858
22248W        W90622  25.622  17.166   3.150
22249W        W90623  36.925  41.879   0.346
22250W        W90624  27.148   2.763   0.948
22251W        W90625  10.308  30.107   1.872
22252W        W90626  29.000  18.743   1.267
22253W        W90627  34.424  15.707   1.411
22254W        W90628  42.776  18.631  13.375
22255W        W90629  31.942  40.981  13.820
22256W        W90630  22.159   2.447   1.705
22257W        W90631  42.473  42.515  11.900
22258W        W90632  19.056  35.072   0.358
22259W        W90633  28.483  35.446  10.964
22260W        W90634  27.062  34.495  14.405
22261W        W90635  20.180  38.336  12.094
22262W        W90636   6.344  35.965  11.942
22263W        W90637  31.089   4.837   4.194
22264W        W90638  30.935   5.771  14.785
22265W        W90639  15.706   9.689   0.435
22266W        W90640  19.649  21.163  13.907
22267W        W90641  16.123  36.577  10.560
22268W        W90642  12.638   5.776   2.409
22269W        W90643  37.582  18.264  12.462
22270W        W90644  12.253   5.712   2.877
22271W        W90645  37.847  18.699  11.393
22272W        W90646  44.428  32.963   2.248
22273W        W90647  12.645  32.611  14.801
22274W        W90648   4.732  14.144   2.878
22275W        W90649   5.389  26.081   3.654
22276W        W90650  26.626  42.910   2.862
22277W        W90651   6.399  11.751  10.124
22278W        W90652  24.623  20.680   0.248
22279W        W90653  13.201  21.670  12.443
22280W        W90654  33.986   2.281   2.313
22281W        W90655  34.999  26.518   4.729
22282W        W90656  40.420  28.998  14.005
22283W        W90657   0.788   6.355   2.672
22284W        W90658  31.636  24.681  14.465
22285W        W90659  20.258   6.814  13.913
22286W        W90660  28.061   2.755  10.914
22287W        W90661  44.264   5.387  10.453
22288W        W90662  26.630  14.661  12.070
22289W        W90663  16.200  33.616   4.177
22290W        W90664  17.080  44.877  12.916
22291W        W90665  20.697  24.651  11.437
22292W        W90666  33.511  25.495   4.621
22293W        W90667  44.471   5.863  12.956
22294W        W90668  25.003   6.256   3.151
22295W        W90669   9.274   8.844   5.295
22296W        W90670  30.970  11.683  14.819
22297W        W90671  41.826  31.585   2.829
22298W        W90672   5.797  36.529  12.532
22299W        W90673  32.491  33.888  11.005
22300W        W90674  25.100   2.915  13.485
22301W        W90675  34.894  10.800   3.739
22302W        W90676  37.862  37.421   2.722
22303W        W90677   4.703  39.399   0.381
22304W        W90678   2.294  11.779   1.367
22305W        W90679  16.272  15.636   5.195
22306W        W90680   2.745  12.624  13.804
22307W        W90681  26.009  32.980  14.895
22308W        W90682  18.207  11.241  14.433
22309W        W90683  17.077  23.052  10.433
22310W        W90684  31.944   2.859  10.458
22311W        W90685  23.594  22.683   0.243
22312W        W90686  14.647   6.910  12.021
22313W        W90687  31.117  41.422  12.461
22314W        W90688  25.042   2.801  10.887
22315W        W90689   6.286  43.394   0.281
22316W        W90690   7.310  42.850   2.270
22317W        W90691  27.531   5.401  11.400
22318W        W90692  33.116  14.132  11.050
22319W        W90693  34.016  14.721   0.861
22320W        W90694  36.975   0.332  10.922
22321W        W90695  19.125  30.638   2.217
22322W        W90696  40.522  19.121  13.919
22323W        W90697   2.861  32.580   3.330
22324W        W90698   6.324  32.015   3.183
22325W        W90699  37.357  18.189   3.699
22326W        W90700  21.170  39.982   0.354
22327W        W90701   9.778  25.029  14.394
22328W        W90702  28.112  36.366  13.522
22329W        W90703  41.403  30.433  13.056
22330W        W90704  18.185  29.166  11.500
22331W        W90705  11.217   0.777  14.389
22332W        W90706  17.214  19.740  11.895
22333W        W90707   2.393  29.493   0.259
22334W        W90708   0.919  27.091   2.714
22335W        W90709  19.581  25.067  12.990
22336W        W90710  20.273  10.833  12.066
22337W        W90711  39.439  23.181   3.248
22338W        W90712  22.008  39.543  12.072
22339W        W90713  23.562  24.510  12.095
22340W        W90714  22.168  20.616  11.387
22341W        W90715  39.490   1.321  11.606
22342W        W90716  18.060  20.603  12.471
22343W        W90717  11.779  20.076   0.868
22344W        W90718  18.743  41.380   2.383
22345W        W90719  37.968  43.394   3.158
22346W        W90720  13.197  29.447  13.893
22347W        W90721  43.486  22.243  10.494
22348W        W90722  18.170  35.547  11.472
22349W        W90723  20.530  18.615   3.151
22350W        W90724  34.597  15.779  11.403
22351W        W90725   1.919  31.642   3.377
22352W        W90726   2.289  38.874  13.548
22353W        W90727  13.250  34.958  11.541
22354W        W90728  39.004  23.543  14.382
22355W        W90729  43.801  36.354  11.873
22356W        W90730  15.237   6.269  13.355
22357W        W90731  10.792  23.093   0.752
22358W        W90732  15.683  23.162  11.952
22359W        W90733   6.293  44.818  11.510
22360W        W90734   9.845  40.951  11.545
22361W        W90735  35.026  16.610   1.338
22362W        W90736  40.798  11.341   4.213
22363W        W90737  44.362   3.909  11.564
22364W        W90738   9.199  38.028  12.451
22365W        W90739  38.436  32.061  11.458
22366W        W90740  20.645  13.761  14.384
22367W        W90741  25.640  12.801  10.020
22368W        W90742  34.555  13.116   1.358
22369W        W90743  25.042  43.470  12.378
22370W        W90744  29.463  42.898  11.467
22371W        W90745  25.569  37.532   2.726
22372W        W90746  42.424  22.997   3.326
22373W        W90747  12.342  37.061  13.958
22374W        W90748  28.480  16.609   2.247
22375W        W90749  15.191  41.472   2.412
22376W        W90750  42.306  34.911  12.479
22377W        W90751   0.350  18.578   3.380
22378W        W90752  15.683  25.681   3.206
22379W        W90753  44.003  21.701   0.860
22380W        W90754  42.527  29.492   0.963
22381W        W90755  40.447  20.146  14.936
22382W        W90756   8.679  42.976   2.885
22383W        W90757  27.586  43.977   5.141
22384W        W90758  38.961  44.294  12.463
22385W        W90759  14.188  43.768  11.583
22386W        W90760  33.567  14.228   0.300
22387W        W90761  11.632   7.724  13.526
22388W        W90762  17.641  25.488   3.726
22389W        W90763  33.986  17.213   4.173
22390W        W90764  39.354   2.961  12.575
22391W        W90765   7.839  22.508   2.299
22392W        W90766  20.525   2.380   3.371
22393W        W90767  19.757  12.227   2.866
22394W        W90768  13.220   8.752  12.349
22395W        W90769  44.864  24.692  11.468
22396W        W90770  23.188  30.038  13.970
22397W        W90771  25.587   6.863  10.889
22398W        W90772  42.896   0.783  11.039
22399W        W90773  16.764  16.716  12.541
22400W        W90774  13.288  38.497  14.445
22401W        W90775  39.346  36.931   2.334
22402W        W90776  35.000  26.951   4.649
22403W        W90777  23.733  29.139   2.699
22404W        W90778  13.762   1.782   3.733
22405W        W90779  41.376  42.343  10.922
22406W        W90780  24.210  34.466  12.879
22407W        W90781   2.890   1.967  10.977
22408W        W90782  29.068  19.182  10.594
22409W        W90783  34.995   3.734   4.344
22410W        W90784   3.428  13.302  13.323
22411W        W90785  24.584  35.101  12.018
22412W        W90786  30.592   5.933  13.949
22413W        W90787   1.754  20.212  13.419
22414W        W90788  26.088   8.776  12.434
22415W        W90789  14.653  14.234  13.994
22416W        W90790  12.780  38.918   4.312
22417W        W90791  36.529  35.565   2.204
22418W        W90792  22.677  12.352  14.942
22419W        W90793  40.921  17.689   2.187
22420W        W90794  19.686  27.095  11.882
22421W        W90795  36.441  25.148   1.695
22422W        W90796  23.105  12.657   4.795
22423W        W90797  18.148  37.536   1.751
22424W        W90798  31.150   0.281  14.489
22425W        W90799   5.336  40.445  11.956
22426W        W90800  43.969   7.739  14.916
22427W        W90801  33.032  15.236   2.848
22428W        W90802  35.584  43.413  11.449
22429W        W90803  28.131  28.479   4.831
22430W        W90804  42.399  27.674  13.861
22431W        W90805  18.776  22.659   1.296
22432W        W90806  15.169  41.394  10.424
22433W        W90807  34.891  28.472  13.030
22434W        W90808  33.976   8.214   1.426
22435W        W90809  15.127  43.857   0.317
22436W        W90810   4.238  43.463   2.744
22437W        W90811   0.480  39.956  12.056
22438W        W90812  41.417   6.681   1.218
22439W        W90813  14.187  35.003   0.955
22440W        W90814  40.009   6.699  13.351
22441W        W90815  20.658  37.935   3.303
22442W        W90816   5.714  22.735  11.512
22443W        W90817   8.706  41.356  13.852
22444W        W90818  25.984   9.681   3.724
22445W        W90819  17.154   0.259   1.755
22446W        W90820  41.866  25.623   0.786
22447W        W90821  27.127  28.126   2.250
22448W        W90822  29.612  21.203  13.815
22449W        W90823  34.084  14.793   3.287
22450W        W90824  19.732  40.866   3.331
22451W        W90825   1.960  22.715  10.533
22452W        W90826  34.917  28.590   3.299
22453W        W90827  28.001  20.218  14.910
22454W        W90828   4.377  41.803   3.164
22455W        W90829  25.029  27.051   3.169
22456W        W90830   0.316  35.519   3.806
22457W        W90831   0.790  26.480  14.378
22458W        W90832  23.232  36.515  14.513
22459W        W90833  38.002  42.398   4.233
22460W        W90834  11.140  26.640  10.026
22461W        W90835  38.547   0.407  14.835
22462W        W90836  41.483  41.403  10.425
22463W        W90837  32.461   0.340  12.939
22464W        W90838   0.334   0.339  12.478
22465W        W90839  12.343  21.665   4.637
22466W        W90840  22.155  21.110  14.898
22467W        W90841  18.749  42.988   0.777
22468W        W90842  19.177  16.138  13.875
22469W        W90843  23.228  33.544  12.009
22470W        W90844   9.195  43.930  13.940
22471W        W90845   6.711  12.793  11.970
22472W        W90846   4.704  38.913  14.945
22473W        W90847  43.847  28.485   3.663
22474W        W90848  40.419  43.340   1.346
22475W        W90849  38.527  42.923  12.003
22476W        W90850  13.283  36.959  11.413
22477W        W90851   6.333   2.346   0.371
22478W        W90852   3.363  41.972  10.987
22479W        W90853  16.168   7.410  13.813
22480W        W90854  21.699  24.068  14.799
22481W        W90855   3.415   0.956   0.383
22482W        W90856   6.921  13.821   1.825
22483W        W90857  12.692  27.493  14.813
22484W        W90858  27.595   8.676   4.699
22485W        W90859  22.670  21.123   1.387
22486W        W90860  20.226  34.934  14.424
22487W        W90861  33.381  13.258  12.484
22488W        W90862  17.725  17.654   4.222
22489W        W90863  21.641  28.558   3.748
22490W        W90864  18.255  34.441  12.568
22491W        W90865  14.602  33.878   1.896
22492W        W90866  19.272  37.062  11.073
22493W        W90867   9.178  39.534   4.672
22494W        W90868  16.276  19.766  11.938
22495W        W90869  44.333  20.211  13.408
22496W        W90870  29.547  21.712  11.947
22497W        W90871  41.007   5.293  12.580
22498W        W90872  43.351  14.241  11.073
22499W        W90873   6.752  19.541   0.936
22500W        W90874  24.182  20.538  14.937
22501W        W90875  18.154  30.469   0.727
22502W        W90876  33.417   9.868   3.732
22503W        W90877   8.252  16.223  10.580
22504W        W90878  28.168  34.501  13.478
22505W        W90879  19.084  16.268  14.790
22506W        W90880   3.311  16.075  13.342
22507W        W90881  33.431  22.113  14.896
22508W        W90882  18.245  41.498  13.496
22509W        W90883  18.137   2.912  11.959
22510W        W90884  26.015  43.905  11.598
22511W        W90885  42.958  13.339  12.564
22512W        W90886  31.506  22.673   2.318
22513W        W90887   4.839   6.304  12.364
22514W        W90888  16.649  26.504   2.400
22515W        W90889  27.143  12.663  14.931
22516W        W90890  44.753  28.646  14.443
22517W        W90891  38.561  37.385   3.382
22518W        W90892   3.841  36.922   2.224
22519W        W90893  29.472  29.986  12.421
22520W        W90894  39.358  25.159   4.239
22521W        W90895  22.061  13.636  12.488
22522W        W90896  34.919  23.499   2.360
22523W        W90897  31.500  13.698   4.336
22524W        W90898   3.256  18.244  11.945
22525W        W90899   3.768  19.672   2.390
22526W        W90900  39.898  31.428  10.558
22527W        W90901  37.086  31.101   1.784
22528W        W90902   6.915  18.644   4.308
22529W        W90903  24.634  28.990   4.288
22530W        W90904  44.907  44.336  12.982
22531W        W90905  31.504  11.290  11.922
22532W        W90906  14.667  17.193  14.832
22533W        W90907  37.929  32.553  14.470
22534W        W90908  30.046  22.557   0.429
22535W        W90909  15.128  33.898   2.734
22536W        W90910  25.505  25.143  14.361
22537W        W90911  34.472  44.990   4.831
22538W        W90912  26.149  14.327   4.664
22539W        W90913   5.238  35.597  12.861
22540W        W90914  24.543  42.860   0.895
22541W        W90915   3.386  39.991  10.965
22542W        W90916  35.897  26.630   4.818
22543W        W90917  30.485  39.493   2.753
22544W        W90918  26.544  11.350   4.648
22545W        W90919  17.672  44.912   0.801
22546W        W90920  29.076  35.459  14.866
22547W        W90921   0.304  17.117  14.992
22548W        W90922  14.799   1.783  14.770
22549W        W90923  10.379  22.022   3.333
22550W        W90924  36.851  36.531  12.492
22551W        W90925  13.148   7.375   4.660
22552W        W90926   2.360  22.102   4.725
22553W        W90927  37.580   7.387  12.984
22554W        W90928  36.483  32.957   4.658
22555W        W90929   2.945  14.147   1.389
22556W        W90930  24.683  15.613   3.178
22557W        W90931  14.726  31.983  11.483
22558W        W90932  42.978  31.016   0.396
22559W        W90933  17.747   3.248  10.565
22560W        W90934  30.545   6.761  12.964
22561W        W90935  42.432   6.417   3.730
22562W        W90936  21.665  34.541  14.351
22563W        W90937  32.485  20.649  14.368
22564W        W90938  23.192   8.795  11.452
22565W        W90939  10.357  19.179   4.158
22566W        W90940  12.732  38.337  13.415
22567W        W90941  38.553  22.067  10.633
22568W        W90942  12.654  32.566   4.118
22569W        W90943  13.144  39.940  14.869
22570W        W90944   4.242   7.757  11.041
22571W        W90945  35.923  16.608   4.178
22572W        W90946  38.829  33.598   4.674
22573W        W90947  14.705  18.732  11.558
22574W        W90948  21.045  23.546  11.390
22575W        W90949  25.970   8.862   2.354
22576W        W90950  38.481  22.670  14.364
22577W        W90951  32.550   6.380   3.230
22578W        W90952  22.630  25.182  14.337
22579W        W90953  16.740  31.143   3.728
22580W        W90954  26.471  26.005   4.636
22581W        W90955   2.227  33.469   2.811
22582W        W90956   4.326  13.774  11.949
22583W        W90957  28.653  29.130   4.320
22584W        W90958  43.459   3.321   2.766
22585W        W90959   4.315   7.807  14.356
22586W        W90960  35.445  32.036   2.745
22587W        W90961  36.971  37.030   2.718
22588W        W90962  12.625   9.322  14.499
22589W        W90963  13.707  34.080   4.821
22590W        W90964  25.503  11.629  13.537
22591W        W90965   8.898  31.081   4.828
22592W        W90966  14.237  41.371  13.939
22593W        W90967   6.836  32.071   4.724
22594W        W90968  11.782  41.419  13.310
22595W        W90969  37.067   9.328   0.312
22596W        W90970  39.972  31.562  13.537
22597W        W90971   4.799  36.856  14.868
22598W        W90972  29.150  19.645   2.728
22599W        W90973  32.600  36.390  12.880
22600W        W90974  29.037  15.231  10.586
22601W        W90975  24.530   0.414   4.235
22602W        W90976   7.238   1.834   5.322
22603W        W90977  16.238  41.977   1.799
22604W        W90978   5.743  18.694  10.475
22605W        W90979   0.970   3.813   2.383
22606W        W90980  15.655  15.211   1.711
22607W        W90981  19.129  20.113   1.696
22608W        W90982  21.171  38.029   1.377
22609W        W90983  21.153  24.978  10.897
22610W        W90984  35.042  19.558  12.522
22611W        W90985   8.301  15.804  10.583
22612W        W90986  41.971   6.690   2.823
22613W        W90987  41.829  10.243  12.395
22614W        W90988   7.231  26.603   3.184
22615W        W90989   1.302  29.523   4.300
22616W        W90990  31.005  11.346  14.299
22617W        W90991   4.275  37.422   3.788
22618W        W90992  30.641  12.203   0.810
22619W        W90993  18.077   9.235  11.549
22620W        W90994  19.119   1.778  13.917
22621W        W90995  39.883  40.395   4.340
22622W        W90996  43.304   3.835   0.459
22623W        W90997  35.105   6.747   3.695
22624W        W90998  24.006  42.879  10.032
22625W        W90999  29.567   6.199  12.938
22626W        W91000  15.699  42.861  13.906
22627W        W91001  14.592  42.423   1.450
22628W        W91002  16.282  26.000  13.900
22629W        W91003  42.931  19.535  11.453
22630W        W91004  10.251  33.623  11.520
22631W        W91005  24.173  24.056   1.355
22632W        W91006  37.482  39.440   4.320
22633W        W91007  21.556   7.738  11.970
22634W        W91008   1.952  33.521  11.562
22635W        W91009   3.439   8.257  10.906
22636W        W91010  25.598  28.641   1.844
22637W        W91011  15.327  26.586  12.050
22638W        W91012  34.913  28.459   3.702
22639W        W91013  28.579  28.930   0.319
22640W        W91014  36.438  41.002  12.872
22641W        W91015  35.560   9.281   2.204
22642W        W91016  26.999  13.606  12.051
22643W        W91017  24.611  41.018  14.029
22644W        W91018   0.447  16.632   4.627
22645W        W91019   0.324   4.396  13.311
22646W        W91020  35.993  27.619  10.496
22647W        W91021  23.543  38.364  12.065
22648W        W91022   1.897  43.018  12.049
22649W        W91023   3.223   1.898  10.495
22650W        W91024  44.373  35.046  12.009
22651W        W91025  30.601  10.691  10.404
22652W        W91026  39.044  32.025  14.987
22653W        W91027  12.261   7.840   1.390
22654W        W91028  16.591   1.287  11.878
22655W        W91029  14.220  34.450   3.685
22656W        W91030  33.096  34.063   1.925
22657W        W91031  26.957  26.156  10.480
22658W        W91032  37.404   1.946  13.402
22659W        W91033  29.002  40.302  11.879
22660W        W91034  10.353  26.517   5.212
22661W        W91035  20.108   0.301   2.247
22662W        W91036  31.079  36.978   4.718
22663W        W91037  44.334   5.370   1.382
22664W        W91038  28.534   2.782  14.371
22665W        W91039  21.564  17.077  14.905
22666W        W91040  39.465  30.137  10.627
22667W        W91041  41.509  17.730   4.247
22668W        W91042  43.473  28.123   4.256
22669W        W91043  13.344  38.820   1.777
22670W        W91044   2.802  19.261   1.224
22671W        W91045   0.429  19.060  10.464
22672W        W91046  14.179  33.048  13.395
22673W        W91047  34.925  39.812   0.951
22674W        W91048  28.948   3.460   4.308
22675W        W91049  42.964  34.057   2.872
22676W        W91050   2.470  35.438   1.836
22677W        W91051  12.640   9.204   1.304
22678W        W91052   6.856   4.407  14.920
22679W        W91053  21.678  27.510   1.835
22680W        W91054  14.107   7.273  11.962
22681W        W91055  20.058  41.358  11.076
22682W        W91056  32.453  32.473   3.702
22683W        W91057  10.797  10.750  12.342
22684W        W91058   4.833   0.984  11.611
22685W        W91059  13.276   5.261  11.468
22686W        W91060   7.770  35.358   1.409
22687W        W91061  36.564  24.985   4.625
22688W        W91062  13.744  28.999  13.063
22689W        W91063  27.640  24.115  10.580
22690W        W91064  19.574   3.402   2.777
22691W        W91065  22.579  40.898   4.268
22692W        W91066  21.631  38.981  13.916
22693W        W91067  39.419   7.776   5.303
22694W        W91068   0.380  42.847  11.512
22695W        W91069   8.168  30.477   0.379
22696W        W91070  36.953  32.471  11.079
22697W        W91071  28.941  30.480   3.360
22698W        W91072  34.602   4.748  10.891
22699W        W91073  43.992   6.814   1.375
22700W        W91074  28.585  41.844  14.912
22701W        W91075  33.527  17.700   2.326
22702W        W91076   5.410  31.103  11.571
22703W        W91077  13.168  36.374   3.669
22704W        W91078  18.611   8.890   3.356
22705W        W91079  25.617  28.639  11.564
22706W        W91080   3.427  39.504   2.282
22707W        W91081  12.350  43.445  14.445
22708W        W91082  41.843  31.963   0.915
22709W        W91083  44.792  11.795   2.754
22710W        W91084  30.107  44.883   1.238
22711W        W91085   1.794  10.796  14.277
22712W        W91086  10.657   1.297  11.383
22713W        W91087  37.909  28.100   4.633
22714W        W91088  31.518  29.159   1.350
22715W        W91089  41.306  20.595  12.036
22716W        W91090   2.940  13.232  14.831
22717W        W91091  42.793  41.004  14.330
22718W        W91092   5.703  12.296   2.379
22719W        W91093  24.618  34.374  12.512
22720W        W91094  31.978  38.954   0.303
22721W        W91095  29.582  23.670  14.794
22722W        W91096  13.138  38.844  11.591
22723W        W91097  12.793  24.192   4.689
22724W        W91098  17.130  14.178  14.310
22725W        W91099  25.157  35.592   0.299
22726W        W91100  44.449  10.249   4.274
22727W        W91101   4.227  27.471  11.389
22728W        W91102  11.368  17.235  14.784
22729W        W91103  36.866   5.371  13.548
22730W        W91104   9.178   4.805  14.277
22731W        W91105  37.846   8.691   4.205
22732W        W91106   4.757  24.973  13.868
22733W        W91107  43.996  38.391   3.175
22734W        W91108  18.767   7.308   4.680
22735W        W91109  28.490  24.155  12.464
22736W        W91110  33.096  40.851   4.192
22737W        W91111  19.214   2.330  11.897
22738W        W91112  14.191  33.935   4.705
22739W        W91113  25.613  24.053   4.671
22740W        W91114  27.125  16.803  13.064
22741W        W91115  27.480  42.892   0.454
22742W        W91116   4.238  34.889  12.862
22743W        W91117  12.190  15.205   4.782
22744W        W91118   4.827  27.957   0.371
22745W        W91119  38.569  14.783  12.088
22746W        W91120  29.610  28.986   0.400
22747W        W91121  12.349  43.013  13.965
22748W        W91122   6.233  12.658   2.887
22749W        W91123  41.817  36.475   2.828
22750W        W91124  38.944   5.300  13.808
22751W        W91125   6.246  11.789   1.868
22752W        W91126  19.163  22.568   4.230
22753W        W91127  37.445   5.214   2.693
22754W        W91128  28.097  14.099   1.835
22755W        W91129  28.091   3.723  14.394
22756W        W91130   5.779  24.153  14.822
22757W        W91131  13.132  21.199   3.726
22758W        W91132  14.596  22.680   0.770
22759W        W91133  20.759   0.433   1.764
22760W        W91134  10.339   0.423   2.346
22761W        W91135  42.908  21.523  11.573
22762W        W91136  35.393  35.435   1.922
22763W        W91137  36.019  10.662  14.896
22764W        W91138  31.980   4.869  12.496
22765W        W91139  14.316   7.908   3.269
22766W        W91140  20.539  38.375  11.877
22767W        W91141  37.352  24.596  12.442
22768W        W91142  44.816   7.752   1.255
22769W        W91143  13.746   2.743  14.976
22770W        W91144  32.117   3.944  13.911
22771W        W91145  20.739  10.639   2.775
22772W        W91146  24.492  26.531  14.448
22773W        W91147  36.530  43.498  14.025
22774W        W91148  38.371  24.712  13.533
22775W        W91149   1.782   6.814   4.729
22776W        W91150  35.602  27.132  12.992
22777W        W91151  35.437  35.590  10.518
22778W        W91152  17.304  10.831   0.328
22779W        W91153  30.481  10.273  12.409
22780W        W91154  15.649  21.127   2.892
22781W        W91155  44.838  40.017  11.536
22782W        W91156  17.679  37.515  14.359
22783W        W91157  33.512  22.636  14.924
22784W        W91158  14.181  34.935  13.835
22785W        W91159  36.584   7.243   1.769
22786W        W91160  24.973  21.582   0.277
22787W        W91161  16.794  19.253   2.308
22788W        W91162  21.155  16.120   0.299
22789W        W91163  18.755   4.346  12.884
22790W        W91164  24.216  17.256  14.513
22791W        W91165  16.223   4.443   3.647
22792W        W91166   7.349  42.779  10.581
22793W        W91167  39.530  42.516   4.674
22794W        W91168   6.856  19.171   1.744
22795W        W91169  31.561  38.335  12.826
22796W        W91170  18.671  28.033   5.148
22797W        W91171  10.196  43.835  14.872
22798W        W91172   2.276  23.997   1.828
22799W        W91173  28.971  18.290   2.834
22800W        W91174  21.076  39.888   3.361
22801W        W91175  14.289  29.134  10.450
22802W        W91176  34.488  35.404   3.176
22803W        W91177  34.939  18.168   5.304
22804W        W91178  12.696  12.263  12.976
22805W        W91179  10.778  32.004   4.731
22806W        W91180   5.278  13.737  12.028
22807W        W91181  23.241  10.740  14.462
22808W        W91182  14.292  41.808  12.364
22809W        W91183   7.796  31.092   0.766
22810W        W91184  18.698  41.501  13.390
22811W        W91185  29.545  25.691  13.044
22812W        W91186  38.927  26.054   1.785
22813W        W91187  12.726  37.567  10.136
22814W        W91188  10.369  41.830  12.560
22815W        W91189   4.330  22.714   4.316
22816W        W91190  35.900  20.531   2.363
22817W        W91191   4.369  44.799  10.907
22818W        W91192   1.287  35.448  11.008
22819W        W91193  20.161   4.890  13.988
22820W        W91194  29.036  31.438   1.897
22821W        W91195  10.756  32.469   4.721
22822W        W91196   6.369   6.312  10.496
22823W        W91197   1.239  22.065  11.054
22824W        W91198  20.109   8.391  13.946
22825W        W91199  30.633  10.799  10.991
22826W        W91200  21.711  19.766   0.416
22827W        W91201   9.757  36.860  12.424
22828W        W91202   0.342  15.782   0.869
22829W        W91203  22.029  35.414  11.985
22830W        W91204   7.846  22.044   1.792
22831W        W91205  31.967   2.757   1.770
22832W        W91206  21.257  11.157  12.546
22833W        W91207  15.718  40.344  12.847
22834W        W91208   6.410  29.017  10.412
22835W        W91209  36.569   9.278   0.843
22836W        W91210  35.508   2.428   0.892
22837W        W91211  22.032   5.774  13.330
22838W        W91212  17.234  23.667  10.480
22839W        W91213   3.387  33.400  13.334
22840W        W91214  11.207  10.223   3.790
22841W        W91215  12.128  34.571  12.823
22842W        W91216  13.653   3.425   1.794
22843W        W91217   9.713  37.470   3.233
22844W        W91218   2.902  40.821   2.829
22845W        W91219  20.704   3.825   2.306
22846W        W91220  41.941   8.817   4.788
22847W        W91221  30.938  33.599  11.916
22848W        W91222  44.928   3.310   3.780
22849W        W91223   9.869  15.703   4.280
22850W        W91224  17.284  39.974   0.318
22851W        W91225  22.579  23.595  10.623
22852W        W91226  24.162  30.948  14.024
22853W        W91227  22.032  19.628  11.546
22854W        W91228   5.375  32.435  11.541
22855W        W91229  20.174   3.421   4.784
22856W        W91230  13.269  25.685  10.569
22857W        W91231  29.923  19.570  14.296
22858W        W91232  37.386  22.177  12.357
22859W        W91233  20.247  33.131  12.410
22860W        W91234   8.250  28.139   1.878
22861W        W91235  27.945  42.413  11.541
22862W        W91236   3.723  35.596   1.780
22863W        W91237  27.524  41.388  10.517
22864W        W91238  44.353   3.770  13.486
22865W        W91239   3.758  30.119  10.582
22866W        W91240  13.640  14.227   3.701
22867W        W91241  24.012  34.923   1.698
22868W        W91242   3.301  14.652  13.983
22869W        W91243   1.372  24.063   2.780
22870W        W91244  39.832  27.972   0.451
22871W        W91245  18.748  41.981  14.466
22872W        W91246  14.188  16.158  13.989
22873W        W91247  15.281  32.498   0.891
22874W        W91248  42.400  22.131  12.850
22875W        W91249  17.115  43.936  10.925
22876W        W91250   6.251  43.795   1.234
22877W        W91251  44.901  26.960  10.899
22878W        W91252  34.920  25.056  14.495
22879W        W91253  32.489  28.484  11.026
22880W        W91254  44.320   3.876  11.033
22881W        W91255  30.544  37.577  11.100
22882W        W91256  31.930  12.168   3.800
22883W        W91257   1.469  33.389   1.372
22884W        W91258  32.947  21.613  14.001
22885W        W91259  38.968  23.503  13.927
22886W        W91260  10.711   0.764  13.998
22887W        W91261   5.782  40.878  14.967
22888W        W91262  21.736  21.529  12.900
22889W        W91263   0.303  40.359   3.370
22890W        W91264  22.558  24.539   2.315
22891W        W91265  10.665  36.449  12.470
22892W        W91266  14.246  38.943   3.832
22893W        W91267  10.730  25.625  12.954
22894W        W91268  39.924  10.817   0.920
22895W        W91269  16.237   4.812   4.756
22896W        W91270  35.597  31.541  12.540
22897W        W91271  12.180  18.726  12.857
22898W        W91272   2.337   7.803  14.799
22899W        W91273  16.764   9.288   4.351
22900W        W91274  35.925   6.354  14.920
22901W        W91275  28.535  36.362  11.379
22902W        W91276  36.376  23.202  14.770
22903W        W91277  31.061  13.752  12.926
22904W        W91278   2.313  43.917   2.773
22905W        W91279  22.580  34.381   0.942
22906W        W91280  15.641  36.936   4.172
22907W        W91281  23.711  16.148  11.518
22908W        W91282  34.083  28.960   4.822
22909W        W91283   8.323  12.692  14.466
22910W        W91284  30.038   6.192  14.006
22911W        W91285  28.627  22.194   3.811
22912W        W91286  14.304   7.869  14.771
22913W        W91287   4.246  15.760   2.319
22914W        W91288  28.616  17.759  11.975
22915W        W91289  13.266  40.366   0.321
22916W        W91290  12.190  43.778  13.894
22917W        W91291  20.268   9.858   4.792
22918W        W91292  29.921   8.791   2.835
22919W        W91293  28.055  44.367  10.433
22920W        W91294  24.718   1.265  11.895
22921W        W91295  33.913  40.489   0.392
22922W        W91296  35.898  32.089   0.773
22923W        W91297  23.168  27.086  11.528
22924W        W91298   0.859   6.783   4.323
22925W        W91299  24.626  15.089   3.380
22926W        W91300  31.917  13.206  10.994
22927W        W91301   4.251  35.857  14.433
22928W        W91302  20.688  20.577  12.893
22929W        W91303   7.722  40.389  12.920
22930W        W91304  26.556  33.000  12.914
22931W        W91305  41.807  27.951  10.050
22932W        W91306  26.026  42.525  14.481
22933W        W91307  12.709   1.468  13.406
22934W        W91308  42.335  39.318   1.349
22935W        W91309  29.542  24.995  14.810
22936W        W91310  35.520  40.930   4.799
22937W        W91311  35.473  38.357   2.210
22938W        W91312  33.011   6.259   4.119
22939W        W91313  26.529  37.073   0.776
22940W        W91314  43.350  20.638  14.315
22941W        W91315  15.142   3.808   4.193
22942W        W91316   5.899   8.250   4.280
22943W        W91317  23.124  20.559  13.495
22944W        W91318  29.516  16.809   0.968
22945W        W91319  25.691   4.740  13.522
22946W        W91320  30.485   3.765   3.661
22947W        W91321  24.723   6.765  11.995
22948W        W91322  14.187  18.611  12.509
22949W        W91323  24.621   2.238  12.032
22950W        W91324  43.881  11.755   2.836
22951W        W91325  14.774  31.418  12.943
22952W        W91326  23.596  40.469  12.509
22953W        W91327  37.064  13.127   0.756
22954W        W91328  16.640  14.811  13.539
22955W        W91329   7.324  29.105   0.308
22956W        W91330  43.445  28.573   4.338
22957W        W91331  32.401  37.424   4.718
22958W        W91332  10.362  41.925  11.024
22959W        W91333  15.280  21.558  12.507
22960W        W91334  14.194  26.581   1.434
22961W        W91335  13.223  32.599   2.769
22962W        W91336  42.825  34.484   3.202
22963W        W91337   6.836  11.778   2.311
22964W        W91338  31.467  31.136   2.313
22965W        W91339  36.560  12.806  14.899
22966W        W91340   4.227   7.868  12.378
22967W        W91341  40.548  21.698  13.393
22968W        W91342  41.518  26.612  12.920
22969W        W91343  39.024  28.060   3.354
22970W        W91344  30.581  44.472   5.278
22971W        W91345   1.424   7.797  12.908
22972W        W91346  14.170   6.420  14.958
22973W        W91347  14.702  41.388   4.235
22974W        W91348  31.606  28.553   3.287
22975W        W91349  19.204  13.680  12.521
22976W        W91350  33.595   9.153   3.845
22977W        W91351  23.197  41.532   2.778
22978W        W91352  21.736  23.703  12.939
22979W        W91353  29.644  19.695  10.143
22980W        W91354  28.629  32.604  10.555
22981W        W91355  12.775  31.592   3.265
22982W        W91356   5.287   1.439  12.419
22983W        W91357   8.810  31.054   0.818
22984W        W91358   7.771  44.759  12.968
22985W        W91359  18.772  19.764   3.788
22986W        W91360  14.131  22.210   1.417
22987W        W91361  35.386  19.258   3.814
22988W        W91362  15.119  36.077  12.955
22989W        W91363   6.307  12.672   4.692
22990W        W91364  41.997  43.477  14.829
22991W        W91365  20.126  14.224   1.378
22992W        W91366  12.764  19.264  14.358
22993W        W91367  18.172   9.796   1.844
22994W        W91368  24.200  39.896  12.574
22995W        W91369   6.305  15.147  14.907
22996W        W91370   6.422  26.472   1.443
22997W        W91371  31.501  13.681  12.962
22998W        W91372  20.595  36.558  11.917
22999W        W91373   9.709  15.768  12.401
23000W        W91374  14.258  35.914   2.370
23001W        W91375  43.783  26.622  13.047
23002W        W91376  10.700  41.914  11.606
23003W        W91377   4.313  36.451  12.868
23004W        W91378  33.623   0.259   3.172
23005W        W91379  13.788  19.701   4.653
23006W        W91380   9.714  38.058  11.569
23007W        W91381  35.041   4.815  12.440
23008W        W91382  36.079  15.661  14.501
23009W        W91383  42.393  17.099   0.810
23010W        W91384  18.225  39.345  11.385
23011W        W91385  15.710  39.883  10.502
23012W        W91386   5.276  11.733  13.914
23013W        W91387  36.862  43.482  14.377
23014W        W91388  38.982  25.649  14.412
23015W        W91389  16.216  11.318  14.888
23016W        W91390   1.835  27.966  13.010
23017W        W91391  34.940   7.792   0.848
23018W        W91392  19.538   5.902   0.747
23019W        W91393  11.177  11.318  13.398
23020W        W91394   7.324  36.913  14.285
23021W        W91395  32.604  15.222   2.772
23022W        W91396   7.893  18.561   1.372
23023W        W91397  28.977  28.438   0.759
23024W        W91398  36.859  27.097   2.766
23025W        W91399  21.193  32.580   1.925
23026W        W91400  22.172  34.391  11.598
23027W        W91401   9.692  24.991  12.074
23028W        W91402  13.131  20.726   2.852
23029W        W91403   0.775   3.372  12.059
23030W        W91404   6.817  40.404  11.476
23031W        W91405  20.269  27.109   2.336
23032W        W91406  17.613  36.048   3.322
23033W        W91407  12.327  27.078  13.507
23034W        W91408  40.486   8.327  12.005
23035W        W91409  31.531  32.039   0.828
23036W        W91410   3.275  12.675   1.732
23037W        W91411  15.720  15.811   3.223
23038W        W91412   3.248   3.356   3.664
23039W        W91413  39.054  36.923   1.355
23040W        W91414  28.983  31.425  13.973
23041W        W91415  41.008  35.963   4.772
23042W        W91416  13.338  44.992  13.976
23043W        W91417  34.010   8.885  10.455
23044W        W91418  38.046  12.792   4.289
23045W        W91419  10.275  27.054   4.234
23046W        W91420   8.858   8.172  12.406
23047W        W91421  25.527  31.424  10.911
23048W        W91422  37.541  40.512   3.668
23049W        W91423  41.916  39.002   2.764
23050W        W91424  37.582  16.183  10.892
23051W        W91425  24.068  10.334  10.113
23052W        W91426  33.522  40.877   4.683
23053W        W91427   4.743  32.939   2.742
23054W        W91428  38.488  31.048   2.281
23055W        W91429  19.086  25.503   2.729
23056W        W91430  18.149   5.860  11.083
23057W        W91431   5.865   1.919  10.406
23058W        W91432  22.234  30.945  11.526
23059W        W91433  26.985  17.612  14.811
23060W        W91434  37.580  26.682  11.566
23061W        W91435  37.375  17.256  13.808
23062W        W91436  42.454  40.525  13.856
23063W        W91437   0.772  30.572   4.240
23064W        W91438   9.879  36.405  12.459
23065W        W91439   9.696  26.028   4.772
23066W        W91440  19.777  33.483  12.915
23067W        W91441  28.620  22.206  10.955
23068W        W91442  33.008  25.556   4.289
23069W        W91443  18.586  43.824  11.883
23070W        W91444  11.211  18.214  12.035
23071W        W91445  38.022  44.856  10.997
23072W        W91446  11.351  31.546   2.354
23073W        W91447  27.985  13.704   0.727
23074W        W91448  36.961  16.253  13.444
23075W        W91449   7.669  31.944  11.895
23076W        W91450  31.152  21.547   3.279
23077W        W91451  14.123  23.146   0.320
23078W        W91452   0.472  41.845   2.823
23079W        W91453  29.997  22.051  14.404
23080W        W91454  27.497  43.863  14.768
23081W        W91455  17.614  38.883   1.357
23082W        W91456  17.204   9.180   2.362
23083W        W91457  25.485  44.884  12.845
23084W        W91458   1.306   5.879   0.303
23085W        W91459  40.407  29.600   2.793
23086W        W91460  17.256  28.120   1.447
23087W        W91461  39.808  37.011  13.964
23088W        W91462   3.255  34.012  13.462
23089W        W91463  38.940  30.505   1.347
23090W        W91464  13.617  22.242  12.467
23091W        W91465  10.170  11.293   1.391
23092W        W91466  43.513   7.869  13.441
23093W        W91467  23.002  42.488   3.840
23094W        W91468  17.668  30.645   4.229
23095W        W91469  19.596  33.504   3.819
23096W        W91470   9.248  17.242  11.491
23097W        W91471  15.262  37.424   3.158
23098W        W91472   6.719  27.513   2.807
23099W        W91473  29.105  14.666   3.165
23100W        W91474  21.743  42.492   0.467
23101W        W91475   7.188  37.930   1.866
23102W        W91476  27.995  10.841  11.411
23103W        W91477  29.131   4.377   2.181
23104W        W91478   3.457  39.928  13.377
23105W        W91479  43.999  39.865   4.290
23106W        W91480  26.087   9.709   3.195
23107W        W91481   9.652  28.160   3.775
23108W        W91482  16.219   6.232   1.816
23109W        W91483  26.195   5.792  11.081
23110W        W91484  41.944  10.747   3.214
23111W        W91485  31.628  28.096  14.759
23112W        W91486  33.007  42.858   2.401
23113W        W91487  22.652  19.188   3.211
23114W        W91488  34.434  12.238   2.846
23115W        W91489  37.068  12.733   1.335
23116W        W91490   8.221  28.643  13.490
23117W        W91491  13.227  16.230  11.559
23118W        W91492   8.882  37.971  14.812
23119W        W91493  33.929  18.258  14.891
23120W        W91494  41.003  42.893  13.911
23121W        W91495  16.576  34.553   4.731
23122W        W91496  29.530   8.388   3.376
23123W        W91497  40.878  20.188  11.423
23124W        W91498  13.106  35.402  11.122
23125W        W91499  19.762  29.012  14.917
23126W        W91500   2.411  21.145   1.336
23127W        W91501  43.991  25.633   0.410
23128W        W91502  10.193  34.491   4.731
23129W        W91503  13.242   0.331   3.161
23130W        W91504  12.319  10.385  12.019
23131W        W91505  35.044  13.106   2.418
23132W        W91506  30.043  29.163   2.418
23133W        W91507  12.706   7.676   1.379
23134W        W91508   3.775  16.262   1.232
23135W        W91509  31.967  41.303  10.627
23136W        W91510   6.326  24.150   1.821
23137W        W91511   5.687  32.898   0.351
23138W        W91512  21.638  37.402   2.383
23139W        W91513  19.638  21.116   1.873
23140W        W91514  33.111  20.121   3.848
23141W        W91515  18.772  27.504   0.745
23142W        W91516  37.866  34.056  13.978
23143W        W91517  44.395  28.616   3.318
23144W        W91518  43.438  36.573   0.923
23145W        W91519  19.547  10.242   2.746
23146W        W91520  21.648  18.699  13.534
23147W        W91521  12.295  12.265   3.217
23148W        W91522  30.620  29.583   4.690
23149W        W91523  36.007  27.568   0.384
23150W        W91524  30.425  44.259  10.921
23151W        W91525   8.314  30.489   5.261
23152W        W91526   7.211  39.447  12.413
23153W        W91527  12.840  32.941  12.016
23154W        W91528  35.042  30.018  12.446
23155W        W91529  35.032  11.792   0.728
23156W        W91530  35.444  17.762   0.425
23157W        W91531  42.931  13.802  10.581
23158W        W91532  26.578  37.992  14.326
23159W        W91533   2.389  39.372   1.757
23160W        W91534   7.894   0.987  11.026
23161W        W91535   7.269  14.314  11.000
23162W        W91536  37.062  14.641   3.663
23163W        W91537  44.302  14.126  12.872
23164W        W91538   9.873   2.241   1.295
23165W        W91539  36.978  13.801   0.373
23166W        W91540  20.524   9.745   0.335
23167W        W91541   7.406   9.257   3.664
23168W        W91542  13.758  12.237  11.453
23169W        W91543  30.076   8.406   1.424
23170W        W91544   0.796  30.086  14.350
23171W        W91545  20.711  16.177  13.459
23172W        W91546   8.692  25.068   1.268
23173W        W91547  25.169  43.785  12.923
23174W        W91548   2.455   7.869  13.953
23175W        W91549  32.473  28.055  11.406
23176W        W91550  29.530  33.489  10.434
23177W        W91551  21.522  43.965  12.492
23178W        W91552   2.870   5.823   1.347
23179W        W91553  15.800   4.230   2.871
23180W        W91554   0.867  42.463   0.753
23181W        W91555  22.068  32.970   0.795
23182W        W91556   2.924   0.812  14.901
23183W        W91557   7.182  38.503   0.850
23184W        W91558  21.025  36.917   1.293
23185W        W91559   6.842  19.185  11.928
23186W        W91560  15.115   1.743  10.891
23187W        W91561  32.538  34.956   1.305
23188W        W91562  34.013  25.048  12.349
23189W        W91563  43.346   1.789  12.053
23190W        W91564  15.227   9.363  13.363
23191W        W91565   3.928  16.586   0.484
23192W        W91566  29.553  18.287   4.225
23193W        W91567  36.562   8.244  11.872
23194W        W91568   2.437  43.764  10.524
23195W        W91569  18.672  11.822  12.382
23196W        W91570   8.347   6.758  13.809
23197W        W91571  21.129  12.691   2.810
23198W        W91572  19.622  33.887   4.711
23199W        W91573  11.739  11.729  11.991
23200W        W91574   0.434  38.476   3.342
23201W        W91575  22.075  35.873  10.502
23202W        W91576  28.463  26.560  14.343
23203W        W91577  27.094  14.334  11.953
23204W        W91578  41.343   2.877   0.265
23205W        W91579   5.859  30.973   3.809
23206W        W91580  25.665  26.525  14.760
23207W        W91581  19.653  38.844   3.825
23208W        W91582  16.124  43.512  10.589
23209W        W91583  40.317  35.501   2.354
23210W        W91584  17.798  19.056   2.665
23211W        W91585  35.560   2.462  12.508
23212W        W91586  33.891   0.366   2.357
23213W        W91587  14.114  24.609  12.523
23214W        W91588  33.942  32.420  10.915
23215W        W91589  30.483  32.109  12.889
23216W        W91590  24.628  22.049   0.772
23217W        W91591   3.946  25.085  10.635
23218W        W91592  40.370   0.324   3.161
23219W        W91593  12.215  16.214  11.006
23220W        W91594  31.646  10.312   2.841
23221W        W91595  16.646  21.637  11.113
23222W        W91596  37.832  26.623   0.353
23223W        W91597   9.155   5.801  12.351
23224W        W91598  35.381  24.573  10.613
23225W        W91599   6.798   3.746   4.217
23226W        W91600  33.395  13.762   0.451
23227W        W91601  31.983  11.181  12.000
23228W        W91602  11.748  14.287  12.838
23229W        W91603  27.025  10.819   4.657
23230W        W91604  37.481  38.379   3.386
23231W        W91605  22.232  16.290  11.505
23232W        W91606  38.897  19.688   3.833
23233W        W91607  20.117  31.130  13.358
23234W        W91608  24.078  25.999   3.769
23235W        W91609   6.678   9.790  14.847
23236W        W91610  44.920  17.731   3.831
23237W        W91611  29.113  25.169  14.026
23238W        W91612  14.278  25.085  13.441
23239W        W91613  36.959  41.023   2.898
23240W        W91614  27.513  34.865   4.691
23241W        W91615  42.361  41.471   3.846
23242W        W91616  27.590   0.834   4.340
23243W        W91617   7.698  23.994  12.421
23244W        W91618  23.510  18.545   4.172
23245W        W91619  20.163  18.601  11.564
23246W        W91620   7.312  25.685   1.363
23247W        W91621  35.947  39.343   1.825
23248W        W91622  32.132  30.622   4.147
23249W        W91623  27.967  24.715   3.663
23250W        W91624  29.614   0.917  11.937
23251W        W91625  13.784  42.283  11.417
23252W        W91626  39.050  14.195  12.837
23253W        W91627  31.574   5.358   1.913
23254W        W91628  42.355  20.237   1.269
23255W        W91629   1.798  24.540   4.286
23256W        W91630  32.110  30.417   0.921
23257W        W91631   6.364  29.983   1.271
23258W        W91632  23.606  37.355  11.068
23259W        W91633  38.862   9.312   4.651
23260W        W91634  27.657  29.100   2.288
23261W        W91635  26.481   2.939  14.440
23262W        W91636  17.579  10.320   0.934
23263W        W91637   9.785  40.822   1.772
23264W        W91638   5.346   1.815  13.029
23265W        W91639  34.973  19.137  10.450
23266W        W91640  26.078  41.386  10.965
23267W        W91641   2.435  15.764   4.806
23268W        W91642  10.173  15.702   1.425
23269W        W91643   3.916  28.550   2.362
23270W        W91644   2.876   8.195   1.350
23271W        W91645  32.030  39.032  12.841
23272W        W91646  38.509   4.401   4.299
23273W        W91647  21.683  40.030   2.392
23274W        W91648  22.735  17.213  14.817
23275W        W91649  32.032  11.832   3.227
23276W        W91650  40.968  17.080  11.123
23277W        W91651  16.776  20.666  10.595
23278W        W91652  38.482  39.049   2.365
23279W        W91653  36.986  35.996  14.503
23280W        W91654  19.201  21.234  13.943
23281W        W91655  35.560  23.192  11.900
23282W        W91656   0.337  43.359  10.438
23283W        W91657  24.514  42.447  10.551
23284W        W91658  42.782  10.283  11.921
23285W        W91659  37.951  17.135   4.683
23286W        W91660  17.630  22.086  10.560
23287W        W91661  30.500  14.807   2.249
23288W        W91662  42.992  28.008   2.774
23289W        W91663  22.648   4.728  10.447
23290W        W91664  41.868  18.696  14.296
23291W        W91665  37.409   9.852  10.514
23292W        W91666   0.369   5.425  12.024
23293W        W91667  22.179   3.380  11.386
23294W        W91668  26.091  22.153  11.450
23295W        W91669  19.764   6.828  12.867
23296W        W91670   9.708  40.512   2.790
23297W        W91671  28.073  41.888  10.961
23298W        W91672  15.586  12.642  11.380
23299W        W91673  31.488  13.160  13.919
23300W        W91674  33.573  29.167  13.949
23301W        W91675   7.256  33.430  14.510
23302W        W91676  37.839  16.746   0.740
23303W        W91677   9.295   1.409   3.174
23304W        W91678  43.784  16.120  14.454
23305W        W91679   4.815  42.927  11.921
23306W        W91680  38.339  11.671  13.483
23307W        W91681  20.083  12.727  13.481
23308W        W91682   3.334   3.774   0.951
23309W        W91683  17.669  20.712  12.830
23310W        W91684  11.369  18.079  14.956
23311W        W91685   4.906  25.042   0.787
23312W        W91686  37.513  20.664   0.299
23313W        W91687  24.978  13.199   3.863
23314W        W91688   7.213  10.706  13.811
23315W        W91689  20.610  29.972  11.430
23316W        W91690   0.940  21.708  14.875
23317W        W91691  30.437  18.756  13.498
23318W        W91692  24.001  21.725  14.803
23319W        W91693  33.080   9.707   3.722
23320W        W91694  28.176   5.252  14.877
23321W        W91695   8.896  38.875   5.242
23322W        W91696  11.688   7.202  12.344
23323W        W91697   9.230  43.396  10.567
23324W        W91698  21.538  36.843   4.182
23325W        W91699  35.024  39.935   3.195
23326W        W91700   2.720  10.358   3.190
23327W        W91701  28.164   2.920  14.379
23328W        W91702  27.455  22.581  12.917
23329W        W91703  20.528  13.634   3.158
23330W        W91704   2.239   9.307   0.875
23331W        W91705  22.540   1.426   0.395
23332W        W91706   7.200  29.092   1.727
23333W        W91707  30.909  11.303   2.243
23334W        W91708   5.766  29.167   3.852
23335W        W91709   2.263  37.019  14.868
23336W        W91710   8.892  37.946   0.483
23337W        W91711  30.946  13.287  10.524
23338W        W91712   3.893  21.619   4.153
23339W        W91713  21.043  44.307  11.505
23340W        W91714  15.653  40.905   1.878
23341W        W91715  36.936  38.825  12.014
23342W        W91716  12.347  10.658  14.915
23343W        W91717  11.651   7.223  14.863
23344W        W91718  27.657   4.236   1.793
23345W        W91719  31.098  44.786  13.350
23346W        W91720  22.210  20.274  11.989
23347W        W91721  25.639   3.274   0.913
23348W        W91722  35.491  33.084   0.394
23349W        W91723  15.665  31.403  14.955
23350W        W91724  16.294   8.869   4.279
23351W        W91725  25.073  22.536   1.772
23352W        W91726  10.649  14.639  11.432
23353W        W91727  41.789  36.032   5.152
23354W        W91728  17.123  29.166   1.221
23355W        W91729  43.322  27.677   4.829
23356W        W91730  43.469  14.265  10.498
23357W        W91731   0.889   8.163   1.285
23358W        W91732  34.016  28.077   4.306
23359W        W91733  34.967  23.135  11.481
23360W        W91734  31.955  40.399   1.921
23361W        W91735  38.944  36.507   4.234
23362W        W91736  10.218  17.614   2.188
23363W        W91737  23.584  38.419  13.044
23364W        W91738  25.145  22.218   4.804
23365W        W91739  42.295  21.747  10.511
23366W        W91740   8.820  25.481   1.812
23367W        W91741  23.083  28.014   4.325
23368W        W91742  32.422  31.488   0.931
23369W        W91743  34.606  16.230   0.810
23370W        W91744   3.936  35.502  13.412
23371W        W91745  43.444   5.771   4.749
23372W        W91746   9.261   5.820   1.214
23373W        W91747  15.084  44.970  14.915
23374W        W91748  41.795   1.746   3.650
23375W        W91749  43.912  16.745   4.249
23376W        W91750  19.578   5.932   3.295
23377W        W91751   9.351  13.664   0.927
23378W        W91752   2.769   7.258  14.797
23379W        W91753  25.514   9.746   0.790
23380W        W91754  40.869  21.241  12.923
23381W        W91755  41.900  37.968   3.755
23382W        W91756  23.164  20.186  14.503
23383W        W91757  14.286  20.203  10.421
23384W        W91758  13.318  39.526  12.559
23385W        W91759   1.751  33.495  12.555
23386W        W91760   4.380   5.726  12.408
23387W        W91761  37.050  36.933   0.287
23388W        W91762  30.048  34.070   0.954
23389W        W91763   3.270  14.182   1.211
23390W        W91764   2.274   7.804  12.898
23391W        W91765  44.274  17.288  14.027
23392W        W91766  37.014  11.155  14.900
23393W        W91767  31.002  33.479  14.993
23394W        W91768   4.912  37.338  12.420
23395W        W91769  44.408  31.583  13.855
23396W        W91770   9.352  32.552  13.050
23397W        W91771   9.258  17.095  14.411
23398W        W91772  35.463   8.845   3.818
23399W        W91773  23.145   7.760   0.819
23400W        W91774  44.954  11.202  12.034
23401W        W91775  11.846   6.787   0.372
23402W        W91776  31.524  35.525  12.421
23403W        W91777  12.638   3.321   2.255
23404W        W91778   0.339  11.738  13.797
23405W        W91779  40.306  30.075  10.643
23406W        W91780  12.234  32.907   1.335
23407W        W91781  23.242  31.118   5.197
23408W        W91782  12.739  42.365  11.081
23409W        W91783  16.734  17.184   1.750
23410W        W91784  29.944  35.856   3.235
23411W        W91785  22.514  16.718   3.868
23412W        W91786   5.395  24.538   2.884
23413W        W91787  39.518  32.537  10.943
23414W        W91788  17.212  33.598   0.419
23415W        W91789   3.259  38.425  13.493
23416W        W91790  23.066  31.095  14.955
23417W        W91791   5.218  37.048   1.218
23418W        W91792  37.848  15.163   3.717
23419W        W91793   9.323   8.321   4.258
23420W        W91794  35.426  36.843  11.067
23421W        W91795  11.210   1.376  14.950
23422W        W91796   8.717  43.898  10.987
23423W        W91797  21.661  31.916  12.885
23424W        W91798  12.180  31.110   4.667
23425W        W91799  32.070  24.134   3.363
23426W        W91800   7.752  20.724   4.788
23427W        W91801  20.235  31.553  12.019
23428W        W91802  17.706   7.199  11.471
23429W        W91803   6.260  41.302   3.303
23430W        W91804  23.220  16.597   4.766
23431W        W91805  20.741  37.500  13.033
23432W        W91806  10.666   0.946   4.766
23433W        W91807  20.149  11.277   1.413
23434W        W91808  27.673  19.674   3.697
23435W        W91809  39.535  38.486  11.440
23436W        W91810  31.565   8.854  10.417
23437W        W91811  25.667   0.463   3.870
23438W        W91812   0.257  41.847  13.349
23439W        W91813  28.506  40.028   3.370
23440W        W91814  15.782  33.040   3.778
23441W        W91815  24.162   3.239   3.730
23442W        W91816   9.230  38.018  14.398
23443W        W91817  17.149  12.249  10.453
23444W        W91818   8.780   9.282  10.981
23445W        W91819  15.092  18.679  12.040
23446W        W91820  22.561  33.995  14.826
23447W        W91821  19.184  40.512   0.953
23448W        W91822  28.546  12.153  12.577
23449W        W91823  10.689  22.549  11.061
23450W        W91824  33.619  42.911  12.887
23451W        W91825  26.143  28.036   0.733
23452W        W91826   0.346  42.526   0.452
23453W        W91827  25.662  31.620   0.941
23454W        W91828   0.848  18.259   3.354
23455W        W91829   1.851  22.034   2.821
23456W        W91830  18.576  35.385  10.948
23457W        W91831  42.866   7.382   3.830
23458W        W91832  30.984  25.175  14.316
23459W        W91833  21.653  43.358  11.400
23460W        W91834  40.963  33.080  10.942
23461W        W91835  40.453   6.284   1.216
23462W        W91836   4.723  30.042  12.931
23463W        W91837  30.567  27.127   3.232
23464W        W91838   7.892  25.629   9.597
23465W        W91839  35.897  38.373  10.624
23466W        W91840   1.822   0.894  13.532
23467W        W91841  41.795  32.408   0.373
23468W        W91842  24.124  17.251   4.270
23469W        W91843  26.003  17.302  10.552
23470W        W91844  37.830  10.752  11.082
23471W        W91845  30.929  27.492  11.565
23472W        W91846  14.188   1.358   2.902
23473W        W91847  23.072   1.766   3.308
23474W        W91848  27.170  39.551   4.779
23475W        W91849  33.387  22.130   0.279
23476W        W91850  29.556  28.120   4.189
23477W        W91851  34.032  36.446  12.874
23478W        W91852  32.900   3.795   2.737
23479W        W91853   8.885  42.303  11.459
23480W        W91854  28.006  15.608   4.625
23481W        W91855  11.153  31.038   4.224
23482W        W91856  16.210  24.723  12.389
23483W        W91857  17.728   5.417   1.222
23484W        W91858  15.130  13.164   0.378
23485W        W91859  18.232  38.026  12.475
23486W        W91860  33.885  14.187  11.447
23487W        W91861  32.072  41.985   2.860
23488W        W91862  40.952  29.548  12.870
23489W        W91863  24.170  13.845   0.245
23490W        W91864  26.586  16.678  11.464
23491W        W91865  13.776  20.732  12.981
23492W        W91866  42.287  26.668   2.775
23493W        W91867  26.663   7.283  10.986
23494W        W91868  15.707  13.309  10.618
23495W        W91869   1.460  16.732  12.457
23496W        W91870  21.632  41.313   1.312
23497W        W91871  14.170  38.565   4.769
23498W        W91872  26.174   4.295   0.447
23499W        W91873  36.478  39.385   4.167
23500W        W91874  31.560  44.292   1.262
23501W        W91875  41.497  17.774  11.526
23502W        W91876  31.632  16.164   4.746
23503W        W91877  44.991  26.589   1.292
23504W        W91878  37.349  30.050   0.936
23505W        W91879  41.885   6.196   9.980
23506W        W91880  12.190  31.465   0.832
23507W        W91881  35.909   2.300   3.346
23508W        W91882  43.482  16.659  14.879
23509W        W91883  44.970  27.101   2.366
23510W        W91884  42.845  10.193   3.150
23511W        W91885   7.696  24.192  12.892
23512W        W91886  30.612   1.780   1.770
23513W        W91887  35.528  12.773   3.241
23514W        W91888  21.111  38.413  13.341
23515W        W91889  22.193   0.791   3.841
23516W        W91890  37.422  13.766   1.901
23517W        W91891  37.347  21.534   0.958
23518W        W91892  18.221  20.709   3.867
23519W        W91893   0.451  11.827  13.457
23520W        W91894   7.360  44.369   1.870
23521W        W91895   6.715  29.631  12.544
23522W        W91896  42.814  36.996  14.352
23523W        W91897  34.926  18.692  12.933
23524W        W91898  32.943  38.934  11.586
23525W        W91899   3.873  42.935  12.971
23526W        W91900  19.697  23.510  10.527
23527W        W91901  38.947  24.208   2.671
23528W        W91902   7.222  25.083   4.208
23529W        W91903   4.214  17.117   0.731
23530W        W91904  42.907  37.999  10.545
23531W        W91905   5.929   5.239  13.988
23532W        W91906  38.862  10.721   0.442
23533W        W91907   3.825   0.983   1.399
23534W        W91908  32.140  37.941   4.809
23535W        W91909  30.513  35.393  12.984
23536W        W91910  42.515  43.347   4.293
23537W        W91911  28.626  11.341  11.522
23538W        W91912   9.393  32.582   4.701
23539W        W91913  25.560  16.196   5.200
23540W        W91914  43.940  43.947   4.152
23541W        W91915  18.076   8.221   1.258
23542W        W91916   7.412  16.595  13.441
23543W        W91917  42.895   1.924   1.395
23544W        W91918   8.368  42.805  13.420
23545W        W91919  24.086  28.971   0.859
23546W        W91920  43.898  44.910   2.677
23547W        W91921  10.199  11.316   5.224
23548W        W91922   2.423  34.586   5.082
23549W        W91923  10.254   5.264   0.811
23550W        W91924  32.637  43.427  10.506
23551W        W91925  25.480   9.258   4.723
23552W        W91926  15.307  19.609  14.892
23553W        W91927   7.822  31.417   3.670
23554W        W91928  11.829  31.081   3.354
23555W        W91929  22.524  17.153  13.378
23556W        W91930  34.416  31.554   4.277
23557W        W91931  42.995  25.996  14.506
23558W        W91932   9.762  24.632  12.503
23559W        W91933  17.112  33.885   0.277
23560W        W91934  43.929   5.834  11.434
23561W        W91935  41.363  43.845   0.856
23562W        W91936  23.683   1.745  10.509
23563W        W91937   4.841  37.580   0.446
23564W        W91938   0.947  43.438   3.289
23565W        W91939  40.045  17.290   4.177
23566W        W91940  34.072  14.219  10.563
23567W        W91941  30.969  43.313   4.300
23568W        W91942   6.917  31.054  10.634
23569W        W91943   7.740  33.585  11.935
23570W        W91944  31.132   7.256  12.570
23571W        W91945  26.664  37.863   0.380
23572W        W91946   6.688  30.991   4.646
23573W        W91947  19.592  20.119  10.929
23574W        W91948  26.499  26.086   1.358
23575W        W91949   2.746   8.748   2.671
23576W        W91950  15.605   3.773   1.749
23577W        W91951  41.942  29.990   1.934
23578W        W91952  26.479   4.757  11.464
23579W        W91953  34.904  44.775  12.917
23580W        W91954  18.582  14.735   2.666
23581W        W91955  26.099  28.136  11.991
23582W        W91956  21.658   1.931  13.329
23583W        W91957   6.212  43.992  14.987
23584W        W91958  15.611  30.130  13.420
23585W        W91959   2.729  36.932  12.409
23586W        W91960  28.935   2.332   1.896
23587W        W91961   1.414   3.765  13.380
23588W        W91962   5.248  31.981   5.322
23589W        W91963  24.665  15.239   1.865
23590W        W91964  34.916  21.527  13.793
23591W        W91965  34.448  27.660   0.425
23592W        W91966  40.481  32.126  13.034
23593W        W91967  27.197  12.228  13.383
23594W        W91968  40.346  36.513   3.640
23595W        W91969   8.798  44.409  10.429
23596W        W91970  13.774  42.347  11.965
23597W        W91971   1.422  40.050   4.647
23598W        W91972  23.686  24.135  10.944
23599W        W91973  15.287   8.276  13.857
23600W        W91974   8.355  43.411   2.866
23601W        W91975  18.720   8.802  10.928
23602W        W91976   7.743  35.856   3.150
23603W        W91977  37.440  36.920  14.938
23604W        W91978  32.619  12.699  10.445
23605W        W91979  27.036  11.266  11.463
23606W        W91980  29.547  15.664  13.395
23607W        W91981  39.934  22.636   1.826
23608W        W91982  23.628  24.978  14.417
23609W        W91983   9.195   8.172  13.950
23610W        W91984  17.300   4.754  12.366
23611W        W91985  29.056  10.181   0.314
23612W        W91986  10.366  21.107  12.539
23613W        W91987  12.238   7.903  11.083
23614W        W91988  36.510  27.052  10.932
23615W        W91989  18.081  36.436   4.631
23616W        W91990   8.362  21.574   0.900
23617W        W91991  10.768  21.085   1.929
23618W        W91992  22.603   8.394  10.070
23619W        W91993  23.708   2.384   1.702
23620W        W91994   8.226  25.658   2.387
23621W        W91995  16.625  41.871  11.125
23622W        W91996  18.289  25.999  13.316
23623W        W91997  34.988  10.796   1.322
23624W        W91998  37.355  25.127  11.961
23625W        W91999  33.924  28.132  11.439
23626W        W92000  44.390  17.704  11.438
23627W        W92001  44.886  12.248   0.836
23628W        W92002  42.981  14.670   2.240
23629W        W92003  33.923   7.815  12.026
23630W        W92004  31.411   5.708   4.163
23631W        W92005  11.715   2.932  11.502
23632W        W92006  27.985  21.103  12.091
23633W        W92007   7.312  23.238   1.432
23634W        W92008  34.393   8.361  14.390
23635W        W92009  35.092  41.457  12.541
23636W        W92010  22.105  12.222   4.123
23637W        W92011  15.168  25.974  11.502
23638W        W92012  21.084  35.406   0.269
23639W        W92013  15.600  36.524  13.513
23640W        W92014  15.307  34.386  11.056
23641W        W92015  19.762  41.455  13.035
23642W        W92016  19.738   6.863   1.287
23643W        W92017  15.176  23.578  11.107
23644W        W92018  17.730  33.547  13.488
23645W        W92019  16.619  16.167   0.337
23646W        W92020  30.922  22.240  10.602
23647W        W92021  25.538  23.607   0.768
23648W        W92022   7.805  17.614  14.499
23649W        W92023  39.899  20.180  13.409
23650W        W92024  31.617  18.577   0.451
23651W        W92025  29.938  41.886  10.931
23652W        W92026   4.743  14.261  11.544
23653W        W92027   4.383   0.470   4.815
23654W        W92028   4.359   3.914   1.448
23655W        W92029  42.314  43.934  12.440
23656W        W92030   3.219  44.792  14.996
23657W        W92031  42.343  33.109  12.487
23658W        W92032   1.757  10.177   1.731
23659W        W92033  24.718  34.067   3.672
23660W        W92034  41.022   4.761   1.861
23661W        W92035  19.728   4.863  14.358
23662W        W92036  25.558  10.670  12.036
23663W        W92037  26.607  22.192  14.454
23664W        W92038  34.603  10.697  11.560
23665W        W92039  29.615  13.192   1.224
23666W        W92040  27.588  24.021   4.284
23667W        W92041  25.628  25.671   2.734
23668W        W92042  26.076  20.044   3.333
23669W        W92043  16.801  14.216   0.426
23670W        W92044  17.302  21.695   2.734
23671W        W92045  38.998  21.644  13.328
23672W        W92046  15.221  44.283  13.004
23673W        W92047  35.366  19.095   1.224
23674W        W92048   6.912  14.128  11.942
23675W        W92049   2.249  32.112   0.375
23676W        W92050  22.097  44.813   4.780
23677W        W92051  11.864  29.027   4.652
23678W        W92052   5.695  35.103   1.797
23679W        W92053  24.611  15.133   9.622
23680W        W92054  31.120   1.930   3.221
23681W        W92055  35.948  12.174   4.702
23682W        W92056  14.185   7.192   2.269
23683W        W92057   5.705  19.594  10.457
23684W        W92058  20.700  14.725  11.122
23685W        W92059  10.335  39.034  12.015
23686W        W92060  22.061  37.907   4.157
23687W        W92061  19.729  26.984   0.950
23688W        W92062  22.573  17.118   0.424
23689W        W92063  18.784  21.191   1.733
23690W        W92064  29.040  40.933  12.055
23691W        W92065  27.073  37.859  14.459
23692W        W92066  27.669   3.242  10.505
23693W        W92067  31.524  13.212   3.700
23694W        W92068  20.713   2.822  13.356
23695W        W92069   5.752   0.373   3.286
23696W        W92070  22.036  26.154   0.761
23697W        W92071   3.342  40.485  11.926
23698W        W92072  42.787   2.733   3.159
23699W        W92073  26.075  30.934   1.403
23700W        W92074  30.010  41.943  12.013
23701W        W92075  38.070   5.759   0.796
23702W        W92076  42.421   1.906   1.380
23703W        W92077  11.183   0.456   0.448
23704W        W92078  18.789   6.425  10.536
23705W        W92079  31.120  35.984  13.043
23706W        W92080   9.801   6.692  12.565
23707W        W92081  29.090   7.790   3.717
23708W        W92082   9.387  42.358   2.261
23709W        W92083  33.604  20.231   1.345
23710W        W92084   9.361  27.597  10.597
23711W        W92085  22.602  18.106  10.486
23712W        W92086   8.712   1.907   3.683
23713W        W92087  25.974   3.924   0.875
23714W        W92088   4.792  25.562  11.049
23715W        W92089  40.820   7.689   1.850
23716W        W92090  29.464  43.862   1.219
23717W        W92091  43.006  40.933  14.947
23718W        W92092  24.689  13.189  14.789
23719W        W92093  23.996  34.891   3.332
23720W        W92094  26.643   2.792  13.455
23721W        W92095   3.911  30.462  10.626
23722W        W92096  13.755  26.575  14.515
23723W        W92097   5.900  34.987   4.176
23724W        W92098  41.887  42.467   2.363
23725W        W92099  29.999  33.083   4.125
23726W        W92100   1.377  15.723   5.136
23727W        W92101   2.396   0.782  13.051
23728W        W92102  26.169  12.616   4.353
23729W        W92103  24.490   4.787  13.980
23730W        W92104  31.522  31.933   3.835
23731W        W92105  24.620  14.610   3.748
23732W        W92106  27.048  33.030  14.988
23733W        W92107  40.520   6.774   5.267
23734W        W92108  22.068   8.824   2.838
23735W        W92109  30.117  29.603  12.578
23736W        W92110  32.015  22.101   2.825
23737W        W92111  12.799  11.648  14.480
23738W        W92112   3.789  42.400  13.510
23739W        W92113   7.711  25.577   1.342
23740W        W92114   8.201  32.606   2.885
23741W        W92115  37.451   1.759   4.190
23742W        W92116  36.965  22.016   4.626
23743W        W92117  30.523  11.670   4.666
23744W        W92118   8.399   0.859  14.865
23745W        W92119  15.658  40.482  11.941
23746W        W92120  15.657  12.117   3.781
23747W        W92121  18.208  16.205   4.351
23748W        W92122   5.847   8.770   0.307
23749W        W92123   2.344  29.578  12.485
23750W        W92124  44.931  26.140   4.700
23751W        W92125  21.696  41.875   3.247
23752W        W92126  28.111  39.508  12.405
23753W        W92127   9.174   1.743   3.766
23754W        W92128  10.864  26.511  12.567
23755W        W92129  39.531   3.294   4.170
23756W        W92130  37.993  27.085   3.289
23757W        W92131  33.061   2.249  10.492
23758W        W92132  40.445  14.260  12.539
23759W        W92133  32.002  34.470   3.833
23760W        W92134  17.301   2.925   4.767
23761W        W92135   2.765  20.550   2.784
23762W        W92136  15.315  15.625   1.242
23763W        W92137  21.032  40.417  14.445
23764W        W92138  35.357  24.135   1.853
23765W        W92139  32.582  42.986  14.495
23766W        W92140  12.626   6.690   0.825
23767W        W92141  44.866  32.944   0.778
23768W        W92142  35.887   5.281   1.731
23769W        W92143  45.000   3.325   0.889
23770W        W92144  22.688  18.620   0.271
23771W        W92145  21.585  13.127  10.623
23772W        W92146  10.233   6.852  12.520
23773W        W92147  28.980  15.192  13.356
23774W        W92148  10.153   0.790  10.496
23775W        W92149   2.741  10.804   1.797
23776W        W92150   4.323  23.138   2.744
23777W        W92151  22.218  10.702   4.677
23778W        W92152  24.554  17.066   4.805
23779W        W92153  20.252  34.495   0.418
23780W        W92154  19.180  30.536  13.979
23781W        W92155   4.427  11.805  13.869
23782W        W92156  10.842  10.239   0.819
23783W        W92157   5.279  41.903  11.053
23784W        W92158  23.191  16.669  13.422
23785W        W92159   2.345   9.690  12.434
23786W        W92160  27.052   9.214   3.867
23787W        W92161  12.765   0.379  11.937
23788W        W92162  15.667  31.512   0.816
23789W        W92163   0.264  30.996   0.800
23790W        W92164   9.221  39.918  11.537
23791W        W92165  19.570  27.531  12.928
23792W        W92166  21.077  19.196   4.210
23793W        W92167   1.850  34.515  11.035
23794W        W92168  35.099  24.004   3.685
23795W        W92169  33.482   9.871   4.829
23796W        W92170  15.649  40.972  13.424
23797W        W92171   5.800  37.557  11.041
23798W        W92172  29.565  10.214   1.265
23799W        W92173  25.693   4.837  11.927
23800W        W92174  25.479  35.388  13.063
23801W        W92175  28.663  31.041  12.042
23802W        W92176  34.081  22.610  13.526
23803W        W92177  27.639   2.843   1.421
23804W        W92178  13.603   5.246  13.421
23805W        W92179   8.753  17.637   4.608
23806W        W92180  42.930  17.290   1.300
23807W        W92181  32.422  28.081   4.281
23808W        W92182   6.259   4.727   4.350
23809W        W92183  18.060  14.602  12.979
23810W        W92184  11.329  17.300   3.342
23811W        W92185  39.490  44.347  11.907
23812W        W92186  27.043  43.421  12.843
23813W        W92187  40.511  24.703  13.821
23814W        W92188  21.630   4.442  12.043
23815W        W92189  39.400  35.492   1.416
23816W        W92190  19.081  21.617   2.720
23817W        W92191  44.409   9.280  14.861
23818W        W92192  17.756  37.413   4.223
23819W        W92193  19.262   0.879  12.553
23820W        W92194  24.644  32.915   3.234
23821W        W92195  30.650  29.154  14.434
23822W        W92196  23.041  41.417  13.467
23823W        W92197  13.633  43.892   3.312
23824W        W92198  41.370   5.924   2.830
23825W        W92199  19.655  27.171   0.370
23826W        W92200  27.145  34.595  12.577
23827W        W92201   2.878   1.736   1.784
23828W        W92202  39.382  39.996   4.322
23829W        W92203  22.578  14.117   5.317
23830W        W92204  32.571  32.437  10.546
23831W        W92205  25.067  43.990   3.260
23832W        W92206  31.462  20.088  11.431
23833W        W92207  30.509  15.317  14.031
23834W        W92208  25.482   5.360  11.585
23835W        W92209   5.225  36.418   0.404
23836W        W92210  17.149  42.789  14.316
23837W        W92211  42.790  17.757   3.760
23838W        W92212   2.379  40.047  12.355
23839W        W92213  23.047  39.523  11.981
23840W        W92214  35.059   5.325   4.675
23841W        W92215  17.181  24.991  11.446
23842W        W92216  35.960  16.764  10.613
23843W        W92217  11.150   6.875   2.251
23844W        W92218  16.225  22.595   3.739
23845W        W92219  24.572  25.531   3.772
23846W        W92220   1.295  38.454   3.329
23847W        W92221  17.801  23.028  11.902
23848W        W92222   3.739   0.283  13.007
23849W        W92223   2.274  24.523   0.894
23850W        W92224  27.994  12.278   2.330
23851W        W92225  25.486  16.586  11.126
23852W        W92226  24.155  41.999   3.804
23853W        W92227  43.954  11.700   3.865
23854W        W92228  10.681  36.923   1.433
23855W        W92229  35.897  32.520   3.661
23856W        W92230  27.142  17.139  14.483
23857W        W92231  11.141  37.536  12.506
23858W        W92232  27.559  15.232  12.951
23859W        W92233  37.475   8.684  11.875
23860W        W92234  34.416  20.133  11.956
23861W        W92235   0.880  24.149   3.727
23862W        W92236  22.136  29.467  10.133
23863W        W92237   2.792  34.474   3.194
23864W        W92238   5.730  32.606  13.875
23865W        W92239  16.257  16.775  14.873
23866W        W92240  23.518   9.385   0.332
23867W        W92241  36.067  16.591  14.490
23868W        W92242  44.469  36.360  13.307
23869W        W92243  38.039  43.421  12.080
23870W        W92244  35.443   1.383  12.895
23871W        W92245   5.415  41.300   3.849
23872W        W92246  41.381   0.380   0.872
23873W        W92247  28.008   3.838   2.314
23874W        W92248  21.032   3.317   4.809
23875W        W92249  36.453  32.566   0.738
23876W        W92250  16.728  34.543  13.907
23877W        W92251  43.899  37.496  11.432
23878W        W92252  11.222  43.387  14.457
23879W        W92253   1.752   2.291  12.073
23880W        W92254  43.399  12.205   1.855
23881W        W92255  37.416   6.394  11.961
23882W        W92256  19.060  44.278   4.600
23883W        W92257   6.895  12.307   3.806
23884W        W92258   1.276   3.400   4.812
23885W        W92259   7.387  42.316  11.002
23886W        W92260  30.001   0.980   4.175
23887W        W92261   0.401  28.632   3.838
23888W        W92262  30.925  23.235   3.634
23889W        W92263  26.006  41.035  10.629
23890W        W92264  35.100  30.480  14.772
23891W        W92265  16.239  40.422   2.416
23892W        W92266   5.919  17.721  10.456
23893W        W92267   1.353  22.630   4.227
23894W        W92268  24.100   3.297   1.706
23895W        W92269   7.716  37.503  10.593
23896W        W92270  23.578  35.057   0.435
23897W        W92271   4.881  15.134   3.173
23898W        W92272   6.381  12.345   2.854
23899W        W92273  32.921  24.542   4.271
23900W        W92274  31.477  20.760  13.989
23901W        W92275   3.370  11.852  10.445
23902W        W92276  20.562  38.352   4.289
23903W        W92277  41.299  35.364  13.478
23904W        W92278  36.924  31.045   0.332
23905W        W92279  25.153  38.366   0.247
23906W        W92280  42.910  20.140  14.459
23907W        W92281  36.351  34.512   0.448
23908W        W92282   2.432  22.687  14.512
23909W        W92283  15.207   0.964  11.603
23910W        W92284  24.668  19.168   4.779
23911W        W92285  31.485  18.661  13.349
23912W        W92286  36.489  39.946   0.745
23913W        W92287  13.844  11.288  10.973
23914W        W92288   1.473   6.748   0.481
23915W        W92289  30.569  42.911   2.798
23916W        W92290  38.460  22.533   4.811
23917W        W92291  32.088  10.797  12.891
23918W        W92292  31.086  24.194   0.351
23919W        W92293  44.314  27.081  12.852
23920W        W92294  38.475   6.423   2.179
23921W        W92295   2.238  44.781   0.359
23922W        W92296  36.376   5.851   4.144
23923W        W92297  33.599   9.699  12.076
23924W        W92298  33.453   3.769   0.477
23925W        W92299  24.677  23.032  12.347
23926W        W92300  28.454   6.745   2.663
23927W        W92301  11.364  40.513  14.402
23928W        W92302  12.281  25.605  14.917
23929W        W92303  28.087  17.702  12.346
23930W        W92304   4.744   7.410  13.486
23931W        W92305  42.516   2.786  10.634
23932W        W92306  40.014  35.551  11.992
23933W        W92307  43.411  16.747  13.404
23934W        W92308  13.143  13.758  11.515
23935W        W92309  16.106  24.997  10.475
23936W        W92310  27.681  28.535  11.518
23937W        W92311   2.454  19.046  12.868
23938W        W92312   0.483  12.293   4.710
23939W        W92313   1.287  10.806  12.069
23940W        W92314   0.461  21.582   4.650
23941W        W92315   4.284  40.432  12.477
23942W        W92316  28.107  43.410   4.782
23943W        W92317   8.220  27.168   4.838
23944W        W92318  17.169  24.488  14.300
23945W        W92319  23.636   4.309   3.299
23946W        W92320  42.974   2.285  12.498
23947W        W92321   4.938  39.007  10.489
23948W        W92322   0.826   6.865   0.795
23949W        W92323   7.822  17.719   4.295
23950W        W92324  17.306  25.649  10.434
23951W        W92325   8.166  13.255  10.442
23952W        W92326   9.390  17.613   3.858
23953W        W92327   9.324  29.003   1.844
23954W        W92328  27.111  32.489  12.526
23955W        W92329  15.674  31.070  12.403
23956W        W92330  31.055   4.924   0.359
23957W        W92331  16.700  21.657   4.689
23958W        W92332  43.958  17.618  10.614
23959W        W92333  10.316  17.734   3.844
23960W        W92334  19.768  17.242   5.178
23961W        W92335  22.551  37.539  11.565
23962W        W92336  36.554  10.872   4.128
23963W        W92337  12.289   8.741   4.324
23964W        W92338  11.225   9.323   2.791
23965W        W92339   0.925  27.609   0.815
23966W        W92340  21.590  12.170  13.950
23967W        W92341   0.840  34.094  14.283
23968W        W92342  15.297   2.243  13.995
23969W        W92343  18.787  29.108   2.767
23970W        W92344  38.358   5.288  14.866
23971W        W92345  18.738  12.663  12.017
23972W        W92346  10.366  42.941  11.120
23973W        W92347  13.714  25.554  13.521
23974W        W92348  24.607   5.335  10.894
23975W        W92349  26.097  14.635  11.477
23976W        W92350  11.254   3.307  14.466
23977W        W92351  42.875   2.311  10.417
23978W        W92352   8.332  32.028   1.934
23979W        W92353  31.097  41.357  10.915
23980W        W92354  32.055  20.166   3.769
23981W        W92355  42.886  43.435   3.149
23982W        W92356  19.728   2.338   4.690
23983W        W92357  23.494  26.458  11.065
23984W        W92358  35.372   8.662  13.868
23985W        W92359   6.916  29.476   2.261
23986W        W92360  20.558  33.427   0.915
23987W        W92361  40.035  41.470  12.504
23988W        W92362  31.471  42.399  14.422
23989W        W92363  28.625  25.977   2.405
23990W        W92364  15.327  43.463   4.297
23991W        W92365  18.608   0.413  11.880
23992W        W92366  17.154  40.863   1.300
23993W        W92367  13.303  42.327   3.151
23994W        W92368  44.933  18.613   3.854
23995W        W92369  22.097   2.844  10.510
23996W        W92370  27.096  19.610   2.323
23997W        W92371  25.468  42.404   2.860
23998W        W92372  39.533  15.310  13.986
23999W        W92373  32.949  15.637   2.337
24000W        W92374  40.431  41.531  12.057
24001W        W92375  24.571  18.095  12.005
24002W        W92376  26.162  21.685  12.090
24003W        W92377   7.255  29.645  11.583
24004W        W92378  35.388   3.939  13.459
24005W        W92379  20.750   3.785  12.463
24006W        W92380  15.089  18.142  10.926
24007W        W92381  24.658  31.096   4.607
24008W        W92382   7.756  24.580  13.866
24009W        W92383  40.371  14.115  13.389
24010W        W92384  28.955  21.593   2.886
24011W        W92385  11.733  30.489   4.811
24012W        W92386  18.605   1.895  14.303
24013W        W92387  30.496  25.022   4.335
24014W        W92388  20.181  31.573  10.631
24015W        W92389  30.973   0.485  10.469
24016W        W92390  16.234  39.543   4.313
24017W        W92391  15.261   5.418  14.966
24018W        W92392   8.299  40.484  14.942
24019W        W92393  13.713   3.454   0.340
24020W        W92394  22.651   0.440   0.333
24021W        W92395  13.686  27.532  11.496
24022W        W92396  15.675  23.235   3.244
24023W        W92397  35.422  18.612  14.968
24024W        W92398  35.104  25.709  14.374
24025W        W92399  20.625  11.134   0.290
24026W        W92400  27.036  32.523  10.556
24027W        W92401  40.307  33.932  11.094
24028W        W92402   7.220  33.046  12.478
24029W        W92403  17.201  21.743  14.302
24030W        W92404  32.514  23.988  14.467
24031W        W92405  14.720  38.845  11.455
24032W        W92406  34.546  30.413   4.323
24033W        W92407  26.083  35.560   3.349
24034W        W92408  28.575  43.464  14.967
24035W        W92409   3.919  42.385   3.304
24036W        W92410  22.160  17.303   2.805
24037W        W92411  21.237  31.981   0.771
24038W        W92412  14.702  15.314   3.752
24039W        W92413  38.047  14.766   3.319
24040W        W92414  31.441  14.136  12.540
24041W        W92415  19.545   6.319  10.597
24042W        W92416   9.802   9.312   0.455
24043W        W92417  15.130  28.640  12.384
24044W        W92418  32.422   3.919   1.361
24045W        W92419  34.474  18.143  12.527
24046W        W92420   4.799  20.094   3.791
24047W        W92421  40.462  10.167  10.113
24048W        W92422  11.269  24.217  12.855
24049W        W92423  25.125  31.421   0.956
24050W        W92424  17.779  16.802  13.954
24051W        W92425  18.216  40.953  12.961
24052W        W92426  17.758  30.559   2.814
24053W        W92427   2.324  11.811   3.847
24054W        W92428   0.462   4.727  10.420
24055W        W92429  18.177  10.860  14.383
24056W        W92430  26.580   1.809   3.373
24057W        W92431  16.268  30.492  12.568
24058W        W92432   4.720  33.471   2.313
24059W        W92433  34.030  16.706   0.268
24060W        W92434   5.918   0.274   1.840
24061W        W92435  32.985  16.153  13.982
24062W        W92436   5.905  38.395   2.794
24063W        W92437  20.620   8.664  11.564
24064W        W92438  27.126  28.084  10.948
24065W        W92439  21.690  44.418  14.940
24066W        W92440  12.719  36.951   2.821
24067W        W92441  43.925  39.047   4.790
24068W        W92442  31.055  28.451   2.207
24069W        W92443  40.035  24.666   1.314
24070W        W92444  22.136  20.740   0.785
24071W        W92445  31.953   3.837   2.696
24072W        W92446  24.091   6.706   0.424
24073W        W92447  41.012  18.746  11.911
24074W        W92448   8.246   7.769   0.280
24075W        W92449   3.416  41.362   2.840
24076W        W92450   3.830  10.165   1.408
24077W        W92451  41.901  43.951   2.360
24078W        W92452   1.938  32.437   3.862
24079W        W92453   7.824  11.744  12.854
24080W        W92454  24.528   6.766  14.804
24081W        W92455  20.759  13.627  12.546
24082W        W92456  28.059  40.820   2.745
24083W        W92457   9.774   2.453  13.525
24084W        W92458  35.937  27.645   4.275
24085W        W92459  31.926  39.018  11.907
24086W        W92460  22.668  40.435  10.444
24087W        W92461  35.393  43.860  13.512
24088W        W92462  42.301  37.436  11.518
24089W        W92463  23.027   8.792  14.946
24090W        W92464   2.342  41.895  11.068
24091W        W92465  15.096  25.690  12.893
24092W        W92466  41.298  42.816  12.935
24093W        W92467  20.186  12.323  14.459
24094W        W92468  17.251  37.954  13.513
24095W        W92469  43.997  35.465   1.305
24096W        W92470  29.102  10.766  14.991
24097W        W92471  39.335  24.570  14.415
24098W        W92472  10.643   2.878  11.548
24099W        W92473  23.630  31.072  11.574
24100W        W92474  24.630   8.269  10.934
24101W        W92475   8.336  31.119  12.365
24102W        W92476  30.582  32.468  13.020
24103W        W92477  41.492  37.870   1.799
24104W        W92478  30.031  44.979  13.458
24105W        W92479  23.660  10.349   1.442
24106W        W92480  31.072   1.884   0.352
24107W        W92481  41.832  18.245  13.937
24108W        W92482  40.343  34.922  10.459
24109W        W92483  13.241  14.214   0.342
24110W        W92484  43.938  40.345  14.029
24111W        W92485  32.612  27.454   4.162
24112W        W92486  37.039  12.820   0.948
24113W        W92487  11.316  22.701   3.775
24114W        W92488  30.005  24.504   2.815
24115W        W92489  16.182   6.854  14.995
24116W        W92490  38.924  34.058  13.486
24117W        W92491   9.167  19.773   1.417
24118W        W92492  37.442   0.366  12.838
24119W        W92493  12.778  22.151   0.889
24120W        W92494  29.490  25.109  12.431
24121W        W92495   5.198  30.907   1.275
24122W        W92496  22.192   1.885  13.364
24123W        W92497   7.349  17.745   2.265
24124W        W92498  37.868  19.263   3.188
24125W        W92499  13.170  43.920  11.511
24126W        W92500  23.157  23.053  13.044
24127W        W92501  39.489  25.688   0.764
24128W        W92502  42.289  27.450  14.935
24129W        W92503  37.857  42.843  11.859
24130W        W92504  39.808  25.138  13.027
24131W        W92505   1.957  13.698   0.786
24132W        W92506  15.673  30.634   2.394
24133W        W92507   4.872  29.459   1.430
24134W        W92508  17.729   0.852  11.394
24135W        W92509   4.790  36.371   0.289
24136W        W92510  40.488  38.528   2.870
24137W        W92511  24.068  31.020   3.213
24138W        W92512  13.834   4.725   3.372
24139W        W92513  24.154  39.430  13.486
24140W        W92514  40.468  26.595  10.111
24141W        W92515  31.530  42.933  10.450
24142W        W92516  42.282  34.055   0.380
24143W        W92517  20.753   1.431  12.853
24144W        W92518  32.045  18.261   0.388
24145W        W92519  23.637  41.016   0.358
24146W        W92520   2.842  38.021   0.836
24147W        W92521  35.429   2.823   2.385
24148W        W92522  29.923  41.416  14.882
24149W        W92523  24.974   8.836   2.251
24150W        W92524  15.322  25.574  11.050
24151W        W92525  32.028  15.715   1.410
24152W        W92526   1.771   3.416   0.442
24153W        W92527  11.259   8.373  13.325
24154W        W92528  37.880  32.423   1.749
24155W        W92529   2.795  33.922   0.759
24156W        W92530  43.506  21.537   0.910
24157W        W92531  35.896  31.538  11.111
24158W        W92532  44.335   1.418  13.348
24159W        W92533   2.337  40.838  14.979
24160W        W92534  30.998  27.125  13.064
24161W        W92535  43.965  20.248   4.722
24162W        W92536  33.418  42.447   4.662
24163W        W92537  24.032  43.868  11.542
24164W        W92538  19.240  42.457   4.698
24165W        W92539  34.094   8.657   3.302
24166W        W92540   7.346   5.906  12.063
24167W        W92541  28.593  29.018  14.906
24168W        W92542  31.572  11.272  10.443
24169W        W92543  42.835  21.156  14.806
24170W        W92544  31.425  13.300  12.444
24171W        W92545  14.666   8.879   4.151
24172W        W92546   8.718  11.166   3.767
24173W        W92547   9.212  36.388  10.969
24174W        W92548  20.094  41.945   4.787
24175W        W92549  17.565   7.735   1.306
24176W        W92550  42.408   2.399   1.317
24177W        W92551   7.372  15.690   4.832
24178W        W92552  37.870  22.573  14.320
24179W        W92553  12.657  16.133  11.385
24180W        W92554  21.029  37.427   1.230
24181W        W92555  19.616   8.269   1.796
24182W        W92556  38.847  29.016   4.210
24183W        W92557   3.789  42.327  11.864
24184W        W92558  18.562   3.226   1.278
24185W        W92559   0.855  29.080  12.578
24186W        W92560   3.916  18.687   3.153
24187W        W92561  36.538   1.884   0.366
24188W        W92562  11.837  29.036  10.084
24189W        W92563  43.937  38.893   0.763
24190W        W92564   3.280  31.948   4.707
24191W        W92565  23.598  43.336  13.359
24192W        W92566  42.899  12.795   3.771
24193W        W92567  38.474  29.581   3.196
24194W        W92568  25.016  28.657  10.923
24195W        W92569  27.668  21.684   3.237
24196W        W92570   5.285  37.364  12.898
24197W        W92571  44.376  23.583   4.332
24198W        W92572  12.678  15.115   1.215
24199W        W92573   6.201  35.971  10.944
24200W        W92574  16.306  10.673  12.077
24201W        W92575  39.351  26.664   4.187
24202W        W92576  23.151  20.687   4.208
24203W        W92577  21.256  37.052   2.338
24204W        W92578  33.114  16.125   3.196
24205W        W92579   0.798  16.301  11.087
24206W        W92580  11.712  11.292  12.946
24207W        W92581  15.723   8.192   9.546
24208W        W92582  23.159  21.241   1.229
24209W        W92583  25.646  43.500   4.185
24210W        W92584   4.350  20.240  13.866
24211W        W92585  25.134   1.834  13.894
24212W        W92586  29.498  33.078  14.868
24213W        W92587   4.711  26.028  10.630
24214W        W92588   2.334   2.854   4.817
24215W        W92589  17.163   1.829   3.779
24216W        W92590  33.597   1.865   1.753
24217W        W92591   8.304  10.745  12.980
24218W        W92592  37.533  42.024   1.404
24219W        W92593  13.783  39.465  11.934
24220W        W92594  16.712   6.337   3.838
24221W        W92595  29.149   0.921   4.838
24222W        W92596  17.284  41.406  14.973
24223W        W92597  42.894  32.060   3.205
24224W        W92598  26.971  25.651  13.890
24225W        W92599   6.678  40.013   3.358
24226W        W92600  28.978  28.471  12.026
24227W        W92601  36.539  34.951   4.252
24228W        W92602   8.791  22.031   3.699
24229W        W92603  34.475  28.097   1.299
24230W        W92604   6.703   3.303  12.056
24231W        W92605  15.767  27.657  13.504
24232W        W92606  25.081  28.534  12.400
24233W        W92607   8.392  27.085   3.757
24234W        W92608  22.996  35.419   2.814
24235W        W92609  23.147  15.697   9.631
24236W        W92610  37.378  12.712   3.780
24237W        W92611  14.249  39.319  13.312
24238W        W92612  19.113  14.191  13.989
24239W        W92613  14.149  15.287  12.825
24240W        W92614  29.479  21.747   4.671
24241W        W92615  41.427  14.805  10.966
24242W        W92616  18.095  30.072  14.372
24243W        W92617   2.936  35.425  13.029
24244W        W92618  43.321  15.785  14.968
24245W        W92619   7.343  15.255   2.892
24246W        W92620  33.038  10.301   4.305
24247W        W92621   0.337  33.606   1.308
24248W        W92622  14.133  27.448   1.762
24249W        W92623  32.038  15.771  14.973
24250W        W92624   6.852  35.486  13.049
24251W        W92625  37.564  32.070  13.427
24252W        W92626  37.468  10.318   2.348
24253W        W92627  15.147  26.682   2.707
24254W        W92628  13.292   7.748   0.263
24255W        W92629  41.341  44.000  13.439
24256W        W92630  18.602  11.271  12.993
24257W        W92631   2.326   2.261   3.760
24258W        W92632  17.671  34.508  13.329
24259W        W92633  40.863  32.517   3.352
24260W        W92634  39.906  10.343  12.484
24261W        W92635  35.598   8.247  14.516
24262W        W92636   4.767  12.850  14.992
24263W        W92637  30.060  15.260   3.193
24264W        W92638  19.055  40.454  11.486
24265W        W92639  23.087  33.467   1.832
24266W        W92640  23.076  21.248   3.657
24267W        W92641  13.673  44.377   4.179
24268W        W92642  13.297  15.328   2.673
24269W        W92643  43.440  37.439  10.573
24270W        W92644  11.789   8.865  11.029
24271W        W92645  24.633   9.808   0.962
24272W        W92646   6.231  40.839  14.512
24273W        W92647  24.646  44.959  10.922
24274W        W92648  43.854   9.211   1.754
24275W        W92649  36.843   8.853  10.921
24276W        W92650  37.423   4.365   0.343
24277W        W92651  44.824  28.177   2.406
24278W        W92652  42.939  30.938  14.291
24279W        W92653   0.269   4.770   1.375
24280W        W92654  10.143   1.843   0.855
24281W        W92655  35.545   4.450  13.040
24282W        W92656   6.308  21.042   9.963
24283W        W92657  28.135  26.514   4.192
24284W        W92658  22.063  10.185   3.367
24285W        W92659   2.341  33.606  14.967
24286W        W92660   4.753  12.220  14.905
24287W        W92661  27.659   7.766  12.829
24288W        W92662   1.387   1.851  10.477
24289W        W92663  33.385  29.654  13.943
24290W        W92664  40.384  38.474  12.370
24291W        W92665  33.487  28.482   1.376
24292W        W92666  38.543  27.112  13.410
24293W        W92667  25.635  25.601   4.189
24294W        W92668   3.736   2.945  13.460
24295W        W92669  18.189  39.480  10.953
24296W        W92670  28.169   7.870  10.575
24297W        W92671  19.765  22.690  10.951
24298W        W92672  33.072  23.050   2.280
24299W        W92673  16.153  42.507   3.172
24300W        W92674   0.248  37.848  14.001
24301W        W92675  14.761  44.010  11.484
24302W        W92676  33.890   1.274  14.424
24303W        W92677  41.029  32.560   1.746
24304W        W92678  35.980  30.423  11.068
24305W        W92679  20.646  34.460  11.075
24306W        W92680   3.444  38.362  14.398
24307W        W92681  16.306  19.671  11.082
24308W        W92682  43.943  12.224   1.249
24309W        W92683   1.323  24.196  11.014
24310W        W92684  36.370  19.553  12.523
24311W        W92685  17.193  34.395  12.948
24312W        W92686  37.075  19.681   2.677
24313W        W92687  24.070  35.862   1.800
24314W        W92688   4.231   2.939   2.316
24315W        W92689   6.868  35.596   2.731
24316W        W92690  24.223  21.561   1.373
24317W        W92691  14.334  26.180  11.867
24318W        W92692  26.492   7.312   9.936
24319W        W92693  12.724  38.836  14.447
24320W        W92694  29.501  24.218   2.273
24321W        W92695  27.679  22.191   2.409
24322W        W92696  24.687  32.471   1.749
24323W        W92697  23.151  24.018   3.817
24324W        W92698   9.762   1.432   0.831
24325W        W92699  41.963   8.324  12.443
24326W        W92700  22.149  36.376  11.101
24327W        W92701  28.046  19.039   1.352
24328W        W92702  12.236   0.966   4.795
24329W        W92703  20.232  38.470   1.236
24330W        W92704  21.060   9.215   0.337
24331W        W92705  22.249  44.273   4.128
24332W        W92706   6.735  29.574  10.953
24333W        W92707  41.903   6.876  11.536
24334W        W92708  32.597  15.754   3.638
24335W        W92709   4.205  15.601   4.764
24336W        W92710   2.324  25.109   3.664
24337W        W92711   4.746  30.117  11.402
24338W        W92712  13.110  18.622   0.800
24339W        W92713  25.020  17.303  12.951
24340W        W92714  11.783  21.224  12.826
24341W        W92715  35.417  41.299  14.275
24342W        W92716  30.436  11.826  13.964
24343W        W92717   5.725  22.537  12.380
24344W        W92718  41.980  12.721   3.713
24345W        W92719  16.225  28.173   9.964
24346W        W92720  19.210  26.192  12.860
24347W        W92721  29.550  19.711  14.925
24348W        W92722   9.694  24.660   4.293
24349W        W92723   5.420  35.863   4.196
24350W        W92724   5.815  42.990   1.420
24351W        W92725  34.514   5.293   3.723
24352W        W92726  28.997  15.796   2.198
24353W        W92727  22.231  22.066   1.907
24354W        W92728  43.351  32.574   4.338
24355W        W92729   4.294  39.811  14.995
24356W        W92730  34.008  38.988  11.903
24357W        W92731  21.724  44.331  10.071
24358W        W92732  18.188   2.735  13.363
24359W        W92733  22.250  42.408  12.914
24360W        W92734  44.345   1.793   3.653
24361W        W92735  44.280  16.073  14.776
24362W        W92736  35.019  12.802   4.317
24363W        W92737  11.277   6.756  11.011
24364W        W92738  41.028  22.234   0.727
24365W        W92739  12.715  41.474   4.737
24366W        W92740  11.271   6.307  13.851
24367W        W92741  31.140  40.320  13.977
24368W        W92742  36.957  24.135  10.978
24369W        W92743   8.387   8.165  14.392
24370W        W92744  19.061  25.140   0.463
24371W        W92745  13.349  18.544   3.155
24372W        W92746  16.732   2.748  12.476
24373W        W92747  38.844  22.243  14.837
24374W        W92748  39.902  20.703   4.232
24375W        W92749   7.289  30.419  13.436
24376W        W92750  44.785  28.465  11.486
24377W        W92751  15.229   1.403   4.180
24378W        W92752  32.504  41.339   1.905
24379W        W92753  10.335  41.974   3.211
24380W        W92754   9.388  26.465   0.857
24381W        W92755  35.455  44.371   2.181
24382W        W92756  27.564  37.552  10.407
24383W        W92757  28.033  33.410   4.242
24384W        W92758  31.119  42.855   2.732
24385W        W92759  33.405  36.030   0.362
24386W        W92760  42.840  27.963  11.890
24387W        W92761  34.963  21.105  13.797
24388W        W92762  24.491  42.864  12.546
24389W        W92763  21.734  34.871  13.038
24390W        W92764  31.553   9.264  14.800
24391W        W92765  10.338  19.581   0.942
24392W        W92766  28.515  21.021   1.279
24393W        W92767  12.214  30.584  12.833
24394W        W92768  41.378  39.054   2.398
24395W        W92769  20.567  40.380   4.753
24396W        W92770  27.592  44.450   1.809
24397W        W92771   2.452  34.601  14.833
24398W        W92772  35.914  40.438   0.255
24399W        W92773   3.901  14.264   4.729
24400W        W92774  10.164  32.402  10.454
24401W        W92775  34.930  12.206   3.720
24402W        W92776   7.184  40.008   3.247
24403W        W92777  37.433  20.030   3.248
24404W        W92778  16.698   2.965  10.444
24405W        W92779  13.639  27.663  13.542
24406W        W92780  38.854  22.640   0.924
24407W        W92781   9.308  30.037   2.365
24408W        W92782  23.532  23.031   3.800
24409W        W92783  32.449   7.261  13.407
24410W        W92784  23.117  38.460   1.421
24411W        W92785   9.394  14.204   1.781
24412W        W92786  28.611   5.821   1.736
24413W        W92787   6.339  21.138   1.914
24414W        W92788  38.952  29.059  13.845
24415W        W92789  25.659  30.073   1.438
24416W        W92790  34.089  31.983  13.854
24417W        W92791  12.225   8.713   3.231
24418W        W92792  40.373  14.177  10.923
24419W        W92793   2.857  14.234  14.029
24420W        W92794   4.405  32.483  10.916
24421W        W92795  44.784  32.532   0.871
24422W        W92796  12.303  40.046  10.440
24423W        W92797   8.884   9.391   2.255
24424W        W92798  38.857  37.989   1.708
24425W        W92799  24.082  38.917  14.922
24426W        W92800   7.342  28.095  12.421
24427W        W92801  41.977  10.366   2.202
24428W        W92802  36.455  11.288   9.982
24429W        W92803  23.005  26.107   1.400
24430W        W92804  33.036  35.991   4.723
24431W        W92805  26.142  36.034   2.767
24432W        W92806  22.102   0.884  10.524
24433W        W92807  41.298  25.557   3.151
24434W        W92808  15.286  13.769   2.765
24435W        W92809  44.834  21.527   3.286
24436W        W92810  14.796  37.441   0.289
24437W        W92811  19.766   5.290  11.876
24438W        W92812   9.266  44.357   0.357
24439W        W92813  40.966  18.146  11.388
24440W        W92814  40.494  13.350   4.609
24441W        W92815  28.083  21.737   0.787
24442W        W92816  32.523  37.915   2.336
24443W        W92817   6.187  44.487   1.250
24444W        W92818  23.221  24.071  10.492
24445W        W92819  36.503  20.068  10.903
24446W        W92820  19.106  13.222   1.913
24447W        W92821  34.580  14.709  12.507
24448W        W92822  27.549   4.792  12.866
24449W        W92823   7.729  23.714   0.823
24450W        W92824  11.706  42.363  10.488
24451W        W92825   5.203  10.285   2.202
24452W        W92826  11.643  41.452  10.107
24453W        W92827  41.516  15.200  11.399
24454W        W92828   7.197  16.606  11.876
24455W        W92829   9.704  33.945  10.953
24456W        W92830   8.312   5.234  12.996
24457W        W92831  33.101   5.857   1.722
24458W        W92832  41.955  26.646   4.289
24459W        W92833  23.057   6.342   0.876
24460W        W92834  22.195   1.830   4.287
24461W        W92835  24.053   7.802   4.281
24462W        W92836  34.428   2.370   3.279
24463W        W92837  24.688  13.288  11.586
24464W        W92838   9.809   5.423  14.387
24465W        W92839  33.048  24.682  10.470
24466W        W92840  22.193   8.686  12.928
24467W        W92841   8.226  27.456  10.089
24468W        W92842  17.221  15.630   5.136
24469W        W92843  16.144  43.943   2.677
24470W        W92844   1.753  41.317   0.818
24471W        W92845   5.290  24.189   4.819
24472W        W92846  25.027  42.969   1.211
24473W        W92847  36.418   7.868   1.320
24474W        W92848   7.276  44.364   4.274
24475W        W92849  43.452  18.204  11.378
24476W        W92850  24.043  41.457   3.170
24477W        W92851   9.701  35.031   4.755
24478W        W92852  38.556  37.454   2.671
24479W        W92853  26.614  35.008   1.855
24480W        W92854  10.175  25.075   1.342
24481W        W92855  28.502  12.247   1.448
24482W        W92856  19.079  32.993   4.253
24483W        W92857  42.338  39.545   4.338
24484W        W92858  20.572  42.795  10.427
24485W        W92859   4.274   3.339   1.265
24486W        W92860   0.485  11.206  11.455
24487W        W92861  43.516   2.795   3.288
24488W        W92862  28.626  43.855  13.342
24489W        W92863  32.076  15.754  11.969
24490W        W92864  21.623  33.386  14.422
24491W        W92865  39.063   2.471   0.405
24492W        W92866   2.339  30.071   4.689
24493W        W92867  35.901   9.672  13.886
24494W        W92868  32.033   0.888  10.437
24495W        W92869  27.000  31.404  13.545
24496W        W92870  17.783  33.020   0.777
24497W        W92871  37.927  43.294   0.314
24498W        W92872  30.598   3.286   4.743
24499W        W92873  16.625  33.477   1.921
24500W        W92874  43.897  27.153  10.512
24501W        W92875  38.506  13.749   4.218
24502W        W92876  37.456  26.065   4.812
24503W        W92877   7.178  10.234  11.891
24504W        W92878  11.798  44.896   4.601
24505W        W92879  22.670   1.240   2.294
24506W        W92880  17.655  16.232  11.031
24507W        W92881   9.651  16.755  12.539
24508W        W92882   0.432  28.509  13.508
24509W        W92883  43.991  17.271   4.825
24510W        W92884  40.516  38.558  11.938
24511W        W92885   2.371   9.386   4.279
24512W        W92886  17.125  28.443  13.962
24513W        W92887  33.015  23.734   1.828
24514W        W92888  14.339  30.077   2.856
24515W        W92889   3.288  22.706   5.203
24516W        W92890  31.577  25.673  13.342
24517W        W92891  17.241   9.649   4.685
24518W        W92892  26.471  14.173  14.420
24519W        W92893  38.072  23.677   3.231
24520W        W92894  23.068   8.404  11.538
24521W        W92895   6.271  22.222  13.997
24522W        W92896   2.379  23.129   3.771
24523W        W92897  38.387   4.339  11.039
24524W        W92898  12.314  21.743  10.545
24525W        W92899  39.361   8.834   9.991
24526W        W92900  37.845   2.362   2.798
24527W        W92901  36.862  11.205   4.300
24528W        W92902  14.747  38.887  12.563
24529W        W92903   8.802  44.935  11.554
24530W        W92904  12.216  15.185   1.230
24531W        W92905  14.833  38.073  12.546
24532W        W92906  15.106   4.275   3.288
24533W        W92907  25.554   3.926   1.439
24534W        W92908  32.475  37.542  13.478
24535W        W92909  32.117  34.081  12.482
24536W        W92910   3.784  24.157  13.986
24537W        W92911  44.486  33.956  14.839
24538W        W92912  38.013  28.064   1.322
24539W        W92913  43.987   3.911  13.408
24540W        W92914   4.234  34.048  11.017
24541W        W92915   5.813   3.283  14.495
24542W        W92916  39.520  32.091   2.759
24543W        W92917  37.931  27.194  12.359
24544W        W92918  18.718   8.312  12.346
24545W        W92919  35.377  31.113  12.545
24546W        W92920  13.780  10.634   3.757
24547W        W92921  22.081  31.415   1.800
24548W        W92922   9.311  43.984  11.500
24549W        W92923  43.485  29.136   1.291
24550W        W92924  18.614  41.460  12.345
24551W        W92925  20.181  21.637   0.943
24552W        W92926  38.349  19.605   4.226
24553W        W92927   4.734   2.394  11.082
24554W        W92928  29.995  29.506  14.771
24555W        W92929  43.874  17.600  12.975
24556W        W92930  41.393   3.404   1.299
24557W        W92931  16.258  29.670  13.471
24558W        W92932  20.649   2.307   3.816
24559W        W92933  12.632   9.720  12.003
24560W        W92934  24.589  38.405  13.317
24561W        W92935  30.416   1.774   2.761
24562W        W92936  16.580  38.546  14.773
24563W        W92937  37.875  20.030   3.812
24564W        W92938  40.405  30.157  11.009
24565W        W92939  21.560   6.846  10.910
24566W        W92940  19.638   7.801  10.551
24567W        W92941  34.018  19.570   3.315
24568W        W92942  41.884  42.782  11.879
24569W        W92943   1.399  14.702  14.856
24570W        W92944  20.723  40.546   4.253
24571W        W92945  33.542  16.586   4.216
24572W        W92946  11.861  34.036   4.611
24573W        W92947  36.935  31.632   1.337
24574W        W92948  44.976  13.229   1.326
24575W        W92949  11.158  29.478  11.510
24576W        W92950  37.540  34.462   1.342
24577W        W92951   3.369   8.336  14.446
24578W        W92952  11.653  13.150   2.340
24579W        W92953  17.239  10.777   2.205
24580W        W92954  14.608  33.893  12.987
24581W        W92955   6.237   4.891  14.022
24582W        W92956   1.754  15.779  12.444
24583W        W92957  11.708  29.025  13.470
24584W        W92958  32.469  39.546  12.039
24585W        W92959  19.230  14.651   4.331
24586W        W92960  26.022  25.207   3.146
24587W        W92961  27.658  15.204  11.110
24588W        W92962  39.828  35.063   0.480
24589W        W92963  18.706  27.181   4.240
24590W        W92964  31.900  40.405  12.951
24591W        W92965  23.577  33.044   1.782
24592W        W92966  41.002  32.586   0.781
24593W        W92967  30.054  33.089   1.801
24594W        W92968  22.571   5.758   2.830
24595W        W92969  15.592   8.171  14.444
24596W        W92970  25.480  29.622   3.866
24597W        W92971  41.361  44.474   1.694
24598W        W92972  26.067  21.732  10.469
24599W        W92973  22.164  16.199   3.354
24600W        W92974  17.085  30.994   0.306
24601W        W92975  35.951   0.883   4.346
24602W        W92976  17.734  41.413  11.105
24603W        W92977  12.286  17.273   3.166
24604W        W92978  30.422  13.286   4.801
24605W        W92979  24.191  18.074  11.872
24606W        W92980   0.288  41.294  11.074
24607W        W92981   1.359  28.434  13.026
24608W        W92982   8.655  19.736   0.454
24609W        W92983  21.705  35.102  10.988
24610W        W92984  41.438  19.576  12.938
24611W        W92985  31.555  21.218   0.919
24612W        W92986  30.567  21.231   1.776
24613W        W92987  34.938  26.985   2.353
24614W        W92988   0.876  28.153   4.212
24615W        W92989   5.253  17.236  13.033
24616W        W92990  22.618   3.920   4.314
24617W        W92991   9.314  18.231  13.914
24618W        W92992  40.485   7.224   2.801
24619W        W92993  20.144  16.274  13.547
24620W        W92994  12.251  18.719   2.858
24621W        W92995  38.066  16.812  10.483
24622W        W92996  17.128  34.968  10.154
24623W        W92997  33.943  30.580  12.838
24624W        W92998  20.711  23.678   3.783
24625W        W92999  21.727   5.264  12.849
24626W        W93000  36.065  36.088  12.391
24627W        W93001  27.111  16.122   4.813
24628W        W93002  10.283  41.476  11.394
24629W        W93003  23.539  43.881  14.388
24630W        W93004  33.901  37.068  12.963
24631W        W93005  17.633  44.978   3.204
24632W        W93006  27.453  34.489   2.886
24633W        W93007  32.507  34.554   4.715
24634W        W93008  37.837   5.909  13.512
24635W        W93009   9.643  28.035  10.506
24636W        W93010  37.364  18.191   2.413
24637W        W93011  25.655  29.089   3.245
24638W        W93012  14.302  15.178   1.853
24639W        W93013  23.493  21.074  10.988
24640W        W93014  42.982  27.446  10.938
24641W        W93015  35.859  23.146  13.352
24642W        W93016   5.803  22.704   3.316
24643W        W93017  29.475  15.757   1.731
24644W        W93018  21.728   4.822   2.782
24645W        W93019  22.713  13.313  13.338
24646W        W93020  42.807  10.724   4.609
24647W        W93021   8.714  40.348   2.845
24648W        W93022  42.790  25.120   2.871
24649W        W93023  30.936  43.516  12.382
24650W        W93024  28.625   7.210  10.928
24651W        W93025  11.822  27.994   9.936
24652W        W93026  41.950  17.671   3.204
24653W        W93027   4.884  39.387   2.184
24654W        W93028  40.410  27.950  12.346
24655W        W93029  19.664   9.277  13.919
24656W        W93030  13.840  43.951  12.535
24657W        W93031  26.073   3.717   1.376
24658W        W93032   6.831  42.881  13.453
24659W        W93033  11.635  33.955  14.391
24660W        W93034  18.094   7.746   1.734
24661W        W93035  34.039   3.238   1.755
24662W        W93036  12.123  10.756   0.868
24663W        W93037  35.485  31.524  10.499
24664W        W93038  31.624   4.272   2.848
24665W        W93039  33.981  17.152   1.840
24666W        W93040  13.191  28.943   0.875
24667W        W93041   3.390  26.509  11.068
24668W        W93042   0.370  17.655   3.666
24669W        W93043  36.362  34.040  12.473
24670W        W93044  37.020  26.480  13.350
24671W        W93045  14.299  10.803   2.182
24672W        W93046  42.781  31.899  11.887
24673W        W93047   7.682  32.019   1.400
24674W        W93048  26.521   9.832  14.921
24675W        W93049  34.564  33.389   2.695
24676W        W93050  23.609  31.612   3.285
24677W        W93051  35.093  11.226   2.203
24678W        W93052   3.223   5.743  14.371
24679W        W93053  35.954  19.538   2.178
24680W        W93054  21.125   7.387   0.775
24681W        W93055  38.368  22.692  13.367
24682W        W93056  17.156  24.485   4.638
24683W        W93057   0.446  15.654   4.223
24684W        W93058  25.617  20.580   2.350
24685W        W93059  25.624   8.773  11.577
24686W        W93060  35.029  33.920   3.863
24687W        W93061  44.384  40.350   1.899
24688W        W93062  18.684  23.062   4.336
24689W        W93063  20.210  35.883   2.369
24690W        W93064  19.654   0.939   4.774
24691W        W93065   0.832  14.751   1.836
24692W        W93066  30.494  26.065  10.571
24693W        W93067  29.584   5.923   3.383
24694W        W93068  21.119  15.283   0.869
24695W        W93069  32.138   9.763  14.920
24696W        W93070  17.107  30.049   1.444
24697W        W93071  37.363  20.708  14.798
24698W        W93072  39.831  37.864   3.302
24699W        W93073  10.320  42.424  14.505
24700W        W93074  34.922  38.397   3.863
24701W        W93075  20.590  31.501   2.278
24702W        W93076  15.767  20.181  14.992
24703W        W93077  35.573  24.108   2.718
24704W        W93078   0.254  17.110   1.424
24705W        W93079  13.779  38.960   1.324
24706W        W93080  37.002   2.792  14.900
24707W        W93081  19.722  29.977  13.858
24708W        W93082  13.693  41.293   3.261
24709W        W93083   0.901  37.352   1.391
24710W        W93084  14.192   1.875   4.679
24711W        W93085  43.316  14.141  13.923
24712W        W93086   8.860   2.914   9.929
24713W        W93087  30.970  11.357  10.979
24714W        W93088  39.045  23.110   1.423
24715W        W93089  14.666   8.718  14.998
24716W        W93090  21.661  14.646  10.611
24717W        W93091  41.875  36.883   1.876
24718W        W93092  35.530  10.382  10.521
24719W        W93093   7.809  34.962  12.883
24720W        W93094  42.025  13.255  12.041
24721W        W93095  38.029  41.446  12.416
24722W        W93096  29.537   0.755  12.523
24723W        W93097  16.640   8.764   9.985
24724W        W93098  43.452  36.510  11.939
24725W        W93099   3.362  40.468   1.768
24726W        W93100  22.634  42.921  12.372
24727W        W93101  21.659  41.311   4.687
24728W        W93102  42.476  36.999  12.535
24729W        W93103  32.035  39.354  13.359
24730W        W93104  26.481  33.616  14.914
24731W        W93105   1.367  14.183   0.934
24732W        W93106   6.263  32.533  13.859
24733W        W93107  14.249  30.913   4.762
24734W        W93108   0.450   3.286   3.646
24735W        W93109  11.163   7.332   0.380
24736W        W93110  11.752  31.560  13.985
24737W        W93111  44.392  42.985  14.854
24738W        W93112   0.303   7.197   4.670
24739W        W93113  26.131  42.362  10.624
24740W        W93114  42.381   4.721   0.460
24741W        W93115  10.317   4.743  11.896
24742W        W93116  32.996  10.708   3.787
24743W        W93117  38.980   2.285   2.696
24744W        W93118   7.380  29.141   3.668
24745W        W93119   1.445  44.403   4.756
24746W        W93120  30.566   8.684  13.915
24747W        W93121  18.071  33.013   4.692
24748W        W93122  29.453  43.779  10.540
24749W        W93123  17.196  28.611  12.008
24750W        W93124  32.024  36.085  12.092
24751W        W93125  12.282  21.161  11.945
24752W        W93126  33.533   9.282   1.293
24753W        W93127   3.832  12.198   0.244
24754W        W93128   7.177  24.156  10.438
24755W        W93129  31.931  29.492  12.543
24756W        W93130   7.264  39.028  13.813
24757W        W93131  36.927   6.301  10.923
24758W        W93132  15.766  34.543   4.139
24759W        W93133   6.796  33.977   1.221
24760W        W93134   3.879  29.594   1.824
24761W        W93135  35.398  27.151   3.742
24762W        W93136  30.058  15.589  14.941
24763W        W93137  34.977  20.222  12.915
24764W        W93138  44.332  23.987   4.836
24765W        W93139  14.745  43.330   2.186
24766W        W93140   7.245  40.394  12.352
24767W        W93141   4.289  16.215   0.333
24768W        W93142  13.621  10.741  13.490
24769W        W93143  31.007  37.576  10.140
24770W        W93144  11.708   9.387  14.023
24771W        W93145   6.722  41.506   2.694
24772W        W93146  35.580   5.286   2.418
24773W        W93147  38.537  35.867   2.879
24774W        W93148  12.140   6.390  13.510
24775W        W93149  10.841  35.511   1.869
24776W        W93150   2.291  16.596  13.412
24777W        W93151  28.047  10.376  14.803
24778W        W93152   2.926  40.870  13.901
24779W        W93153  20.574   8.872  13.984
24780W        W93154  16.567  23.008  13.482
24781W        W93155  32.991  36.898  11.533
24782W        W93156  11.724  37.859   3.152
24783W        W93157  42.886  23.110   4.140
24784W        W93158  11.716  11.308   4.740
24785W        W93159  44.323  40.349   4.782
24786W        W93160  17.741  26.624  12.996
24787W        W93161   6.315  42.799  12.839
24788W        W93162   5.875   6.877  13.393
24789W        W93163   1.278  34.428  12.023
24790W        W93164  28.938   2.824   1.437
24791W        W93165  44.293  34.107   2.278
24792W        W93166  10.222   8.829   0.810
24793W        W93167  13.657  39.399   3.823
24794W        W93168   8.897  32.905  12.530
24795W        W93169  33.537   6.839   4.315
24796W        W93170  40.370  38.442   4.180
24797W        W93171   9.296  24.697  13.405
24798W        W93172  41.331  27.545  12.443
24799W        W93173  33.445   9.809  13.437
24800W        W93174  34.464  33.985  10.519
24801W        W93175  19.547  30.434   0.797
24802W        W93176  33.525  29.635   2.241
24803W        W93177  20.547  44.438   1.897
24804W        W93178  32.394  14.649   4.759
24805W        W93179   3.930  17.616  10.994
24806W        W93180  15.142   6.355  14.477
24807W        W93181  36.371  40.346   1.273
24808W        W93182  42.006  35.925   0.811
24809W        W93183  10.849  34.459  10.612
24810W        W93184  42.429   1.351   0.834
24811W        W93185  24.060  10.372   1.775
24812W        W93186  39.385  41.413  10.437
24813W        W93187  10.779  38.975   4.136
24814W        W93188   6.728  29.521  13.925
24815W        W93189   3.844  29.528   0.869
24816W        W93190   9.308  16.230   4.284
24817W        W93191   9.302  19.742   3.199
24818W        W93192  41.803   6.388  12.057
24819W        W93193   6.871  37.506   0.300
24820W        W93194   2.426   2.737   1.390
24821W        W93195  19.690   4.874   1.379
24822W        W93196  24.071  31.604  14.815
24823W        W93197  29.971   6.864   4.318
24824W        W93198  29.607  29.485   4.291
24825W        W93199  28.669  23.583  14.407
24826W        W93200  28.459  30.430   2.837
24827W        W93201  44.394  40.836   0.269
24828W        W93202  33.068  21.115  14.939
24829W        W93203  41.335   0.911   1.712
24830W        W93204  37.057   9.729   0.341
24831W        W93205   7.806  41.299   1.806
24832W        W93206  37.520  37.427   0.857
24833W        W93207   5.806  25.034   9.972
24834W        W93208  11.726  10.678   3.362
24835W        W93209  27.186  37.501  12.389
24836W        W93210   4.437  37.021  13.810
24837W        W93211  36.872  12.268   2.834
24838W        W93212   9.781   2.779   4.256
24839W        W93213  13.744  34.896   1.215
24840W        W93214  25.039  31.475  12.446
24841W        W93215  13.651  20.062   3.288
24842W        W93216  26.047  37.380   4.158
24843W        W93217  13.657  36.974  11.418
24844W        W93218   9.772  29.009   1.721
24845W        W93219   9.228  30.978  14.492
24846W        W93220  32.509  13.823   0.891
24847W        W93221  15.607  41.805   4.680
24848W        W93222  41.926   6.412  13.427
24849W        W93223  21.647  31.405   9.948
24850W        W93224   4.338  15.149  14.843
24851W        W93225  24.184   0.965   5.107
24852W        W93226   3.229  25.600  12.376
24853W        W93227  20.531  12.161  10.414
24854W        W93228  36.592  36.435  14.325
24855W        W93229  27.543  24.197   3.275
24856W        W93230   6.848  32.018  12.055
24857W        W93231  18.144  17.124   1.249
24858W        W93232  27.101  15.674   4.184
24859W        W93233   3.831  32.948  11.027
24860W        W93234  25.028  23.120   2.796
24861W        W93235  30.082  34.890  14.006
24862W        W93236   3.818  24.713  13.519
24863W        W93237   0.420  43.806  13.937
24864W        W93238   3.406  26.100   3.692
24865W        W93239  24.038  15.603   2.274
24866W        W93240  18.230   2.402  10.454
24867W        W93241   2.281  15.146  11.438
24868W        W93242  24.991  19.156   4.227
24869W        W93243  27.188   9.879  14.452
24870W        W93244  30.912  26.461  13.945
24871W        W93245  16.233   8.686  14.834
24872W        W93246   5.303   0.854  11.008
24873W        W93247  34.062  25.700  10.619
24874W        W93248  38.465   3.356  12.484
24875W        W93249  19.566  13.119   3.816
24876W        W93250  10.184   5.197   0.350
24877W        W93251  18.055  42.385  13.546
24878W        W93252   0.808   4.841   0.916
24879W        W93253  31.917  17.570   1.370
24880W        W93254  34.969  26.179   1.809
24881W        W93255  38.551  29.992   0.292
24882W        W93256  18.245   9.199  12.496
24883W        W93257  18.112  13.646  14.849
24884W        W93258  18.225  28.587   1.342
24885W        W93259   9.390  18.121   0.819
24886W        W93260   5.412  12.297  11.023
24887W        W93261  33.949  29.101  12.920
24888W        W93262  30.102  10.782   2.820
24889W        W93263  42.834  37.428   0.868
24890W        W93264  19.206  43.017   2.189
24891W        W93265  30.469  41.800   0.454
24892W        W93266   6.399  19.200  10.511
24893W        W93267   3.864  17.272  12.438
24894W        W93268  15.630  11.724   3.706
24895W        W93269  13.233  28.451  10.998
24896W        W93270  42.405   7.234  10.532
24897W        W93271  12.620   9.733  12.972
24898W        W93272  43.360  28.479   3.363
24899W        W93273  27.673  30.050  11.973
24900W        W93274   1.966   6.393   3.237
24901W        W93275  39.855  36.496   1.215
24902W        W93276  44.935  23.534   3.655
24903W        W93277  43.973  31.415  11.868
24904W        W93278  36.096  19.082   0.474
24905W        W93279  42.457   7.213  12.025
24906W        W93280   6.372   7.832  11.482
24907W        W93281  10.333  14.656   5.250
24908W        W93282  15.602  38.883   4.292
24909W        W93283  34.077  16.074   4.622
24910W        W93284  11.646   1.753  14.417
24911W        W93285  29.518  17.071   4.266
24912W        W93286  20.248  28.441   0.872
24913W        W93287  34.494  41.322  14.277
24914W        W93288  25.675  33.382  12.403
24915W        W93289  19.166  14.206  13.043
24916W        W93290  43.879   7.224   4.223
24917W        W93291  41.987  44.939   4.259
24918W        W93292  31.585  38.395   1.848
24919W        W93293  35.391   8.289   3.183
24920W        W93294  23.129  28.125  12.450
24921W        W93295  38.893   3.432   1.929
24922W        W93296  29.928  21.642   3.174
24923W        W93297  23.219   6.209  12.851
24924W        W93298   1.415   2.345   1.900
24925W        W93299   2.763  22.020   4.721
24926W        W93300  24.074  27.541   4.827
24927W        W93301  31.504  24.049  10.524
24928W        W93302  44.330  18.557  13.511
24929W        W93303  21.072  14.730   0.380
24930W        W93304  38.426  38.966  13.422
24931W        W93305  44.862   3.846  10.493
24932W        W93306   6.728   6.320  10.487
24933W        W93307  41.301   8.169  12.845
24934W        W93308  42.525   2.804  13.343
24935W        W93309  18.149  28.089  11.114
24936W        W93310   0.916  41.912  12.834
24937W        W93311   1.406  44.267  10.487
24938W        W93312  23.554   6.318   2.387
24939W        W93313   7.173  34.048   1.373
24940W        W93314  16.753  35.474   2.266
24941W        W93315  42.954  14.803  10.572
24942W        W93316  41.456  21.669  13.942
24943W        W93317   0.831  12.326  13.979
24944W        W93318  37.043  30.047   1.773
24945W        W93319  15.648  25.977  11.058
24946W        W93320  11.182  43.002  11.933
24947W        W93321  34.063   7.256  11.945
24948W        W93322  29.661  19.634   3.341
24949W        W93323  37.086  22.150  10.501
24950W        W93324  14.274  33.565   4.204
24951W        W93325  42.426  36.360  14.859
24952W        W93326  40.340   1.876  13.027
24953W        W93327  28.587  21.747  14.798
24954W        W93328  11.729   1.371  13.518
24955W        W93329  21.514  38.865   1.861
24956W        W93330  39.824  42.923  13.819
24957W        W93331  24.177  21.201  12.993
24958W        W93332   4.699  41.302  11.094
24959W        W93333  11.310  29.652   4.744
24960W        W93334  32.394  15.668   5.144
24961W        W93335  38.336  34.448  11.528
24962W        W93336  14.783  20.755  12.052
24963W        W93337  17.589   2.284   0.791
24964W        W93338   5.849  10.145  11.550
24965W        W93339  42.828  11.634  13.456
24966W        W93340   3.279  14.787  10.577
24967W        W93341  19.589   7.710  12.949
24968W        W93342  23.092  16.273  11.922
24969W        W93343   6.339   9.789   4.133
24970W        W93344  15.299  31.068   0.935
24971W        W93345  39.539   2.787   1.904
24972W        W93346  14.096   0.911   4.597
24973W        W93347  40.371  38.972  10.464
24974W        W93348  29.072   4.839  14.324
24975W        W93349  39.814  18.122  13.856
24976W        W93350  31.561   9.309  12.537
24977W        W93351  26.206  42.464   1.268
24978W        W93352   5.428  10.737   3.373
24979W        W93353  23.084  41.989  13.907
24980W        W93354  42.927  17.095   0.817
24981W        W93355  25.611  35.971   1.328
24982W        W93356  10.251   9.277   2.280
24983W        W93357  29.060  28.115   3.812
24984W        W93358  21.079  40.861  11.026
24985W        W93359  17.619  41.334   0.965
24986W        W93360   3.848   2.838  14.381
24987W        W93361  18.692   0.791  13.920
24988W        W93362   8.760  33.475  13.970
24989W        W93363   0.339   0.941   1.279
24990W        W93364   8.860  32.599   0.251
24991W        W93365  10.835  33.615  12.870
24992W        W93366  11.339  43.976   3.863
24993W        W93367  36.535  39.417   0.273
24994W        W93368  34.879  25.524   4.716
24995W        W93369  36.021  39.504  12.935
24996W        W93370  39.884  30.017   4.767
24997W        W93371  33.994  43.791  13.389
24998W        W93372  36.467  42.800  13.485
24999W        W93373  28.589  10.212  12.349
25000W        W93374   2.863  17.236   2.252
25001W        W93375   9.316   9.752  11.857
25002W        W93376   7.831  30.950   3.842
25003W        W93377  39.997  32.592  13.928
25004W        W93378  34.048  12.331   0.423
25005W        W93379   2.314  13.263   1.418
25006W        W93380   4.408  44.966   1.783
25007W        W93381  34.427   8.288   3.652
25008W        W93382  42.951  40.479  14.504
25009W        W93383   7.229  13.698  14.003
25010W        W93384   0.938  21.096  10.969
25011W        W93385  31.137  30.974  14.900
25012W        W93386  15.782  36.068   5.173
25013W        W93387  38.983   2.343  10.589
25014W        W93388  29.949  30.473   0.469
25015W        W93389  11.663  20.675   0.393
25016W        W93390  17.202  40.415   2.902
25017W        W93391   8.280  16.704  13.995
25018W        W93392  41.908  42.875  12.860
25019W        W93393   4.363   0.268   1.448
25020W        W93394  37.442  29.006   3.366
25021W        W93395  21.550  33.048  13.873
25022W        W93396  16.724  37.429  12.065
25023W        W93397  16.716   0.371  10.571
25024W        W93398  41.472  13.249   5.191
25025W        W93399  38.982  26.084  11.419
25026W        W93400   1.473   9.693   2.862
25027W        W93401  30.949  16.590   0.440
25028W        W93402  43.357  28.163   0.291
25029W        W93403   6.787   7.195  10.893
25030W        W93404   7.240  18.657   3.149
25031W        W93405  23.117   5.376   4.197
25032W        W93406   3.222   4.909   4.749
25033W        W93407   9.784   4.415   1.443
25034W        W93408   0.386  41.371   2.882
25035W        W93409  26.138   9.324  14.326
25036W        W93410  14.808  38.365  13.837
25037W        W93411  19.116  44.462  12.901
25038W        W93412  15.097  29.064   3.194
25039W        W93413  27.042  25.027   1.345
25040W        W93414   0.391  15.102   1.861
25041W        W93415  26.144   7.715  14.855
25042W        W93416   6.308  12.814   0.293
25043W        W93417  25.512   4.880   0.808
25044W        W93418  26.120  31.426   4.207
25045W        W93419  27.446   6.769   4.272
25046W        W93420  43.515  29.660  13.830
25047W        W93421  20.250  31.523  13.010
25048W        W93422   9.700  35.365   4.824
25049W        W93423  32.598   2.874   2.664
25050W        W93424  39.916  39.052   2.388
25051W        W93425  34.478  40.512   0.420
25052W        W93426  28.518   2.932   1.870
25053W        W93427  28.936  29.978  11.594
25054W        W93428  30.917   2.727  12.430
25055W        W93429  27.978  14.633   3.797
25056W        W93430  16.248   3.258   0.918
25057W        W93431   7.272   6.899   2.360
25058W        W93432  30.910  29.640  14.989
25059W        W93433  20.721  16.571   3.312
25060W        W93434  19.266  12.264   1.767
25061W        W93435  36.000  10.374  12.001
25062W        W93436  40.878  32.948  13.404
25063W        W93437  10.150  29.450  11.929
25064W        W93438  22.094  33.016   4.751
25065W        W93439  34.877  18.705   2.862
25066W        W93440   1.965   8.180   3.764
25067W        W93441  42.885  16.619  14.861
25068W        W93442  31.133   7.296  13.502
25069W        W93443   1.296  36.080   0.943
25070W        W93444  13.737  13.693   4.727
25071W        W93445  37.469  11.244  10.520
25072W        W93446  36.559  44.975   4.689
25073W        W93447  25.711   1.959   1.229
25074W        W93448  17.589  44.979  11.086
25075W        W93449  12.324  31.467   3.233
25076W        W93450   1.822   6.699  14.022
25077W        W93451  26.674  28.509   1.410
25078W        W93452  20.181   8.883   3.312
25079W        W93453  40.529   2.455   0.339
25080W        W93454  31.536  17.556  10.968
25081W        W93455   0.750  28.938   4.179
25082W        W93456   8.713  36.884  12.495
25083W        W93457  18.067   0.321   0.394
25084W        W93458   8.806  42.436  13.477
25085W        W93459  12.358  25.077   2.376
25086W        W93460  20.126  22.081  13.828
25087W        W93461  26.969  44.787  13.943
25088W        W93462  13.706  38.507  12.905
25089W        W93463  29.423   0.855   3.838
25090W        W93464  26.092   7.311  12.929
25091W        W93465  30.994  22.514   3.842
25092W        W93466  33.407  12.238  14.796
25093W        W93467  40.801  42.821  10.968
25094W        W93468   9.698  40.838  11.042
25095W        W93469  31.614   3.951  13.359
25096W        W93470  43.484  42.410   1.331
25097W        W93471   4.825  24.523   5.205
25098W        W93472  40.399  39.361   2.370
25099W        W93473  20.179  32.560   1.356
25100W        W93474   8.211  21.119  12.465
25101W        W93475  20.169  43.385   3.857
25102W        W93476  28.505  39.526  13.907
25103W        W93477   3.873  30.158   2.840
25104W        W93478   3.740  43.920   0.902
25105W        W93479  29.050   1.387   4.245
25106W        W93480  12.308  37.933  11.592
25107W        W93481  34.017  36.379   0.951
25108W        W93482   9.243   9.346  13.385
25109W        W93483  41.814  32.921   2.203
25110W        W93484  28.060  35.520   2.411
25111W        W93485   2.310   2.823  10.546
25112W        W93486   2.354  29.542   1.922
25113W        W93487  35.558   3.295  10.639
25114W        W93488  29.495  37.909  11.497
25115W        W93489   2.233   3.339  13.987
25116W        W93490  31.549   3.280   4.246
25117W        W93491  38.989  30.432   1.762
25118W        W93492  35.003   3.739   0.732
25119W        W93493  24.510  25.690   1.364
25120W        W93494   7.409   9.239   0.442
25121W        W93495  33.068  36.437  14.357
25122W        W93496  43.951  44.383  10.559
25123W        W93497  25.644  21.580   1.279
25124W        W93498   2.420  26.617  11.103
25125W        W93499  37.923  10.632  13.989
25126W        W93500  10.327  27.949  13.865
25127W        W93501  16.807  39.455  11.413
25128W        W93502  20.265   0.839   1.448
25129W        W93503  26.030  17.683   0.755
25130W        W93504   9.805  28.133  13.861
25131W        W93505   9.278  18.613  14.956
25132W        W93506   6.733   8.276  12.910
25133W        W93507  43.006  44.481  12.934
25134W        W93508  43.813  23.668   3.851
25135W        W93509  34.103  37.045   1.377
25136W        W93510   8.750   4.877   5.613
25137W        W93511  33.029  25.606   2.767
25138W        W93512  13.218  38.330   3.348
25139W        W93513  34.449  36.051   0.747
25140W        W93514  35.029  44.822   1.246
25141W        W93515  35.511  29.559   3.227
25142W        W93516  17.594  24.179   2.203
25143W        W93517  11.218   6.192   3.385
25144W        W93518   9.744  11.180   2.261
25145W        W93519  42.997  23.186   3.782
25146W        W93520  38.011  21.638  12.445
25147W        W93521  27.006  31.129   3.348
25148W        W93522  29.500  34.929  14.350
25149W        W93523  21.161   0.466  10.438
25150W        W93524  20.175   1.793  10.906
25151W        W93525  31.597   0.888  11.526
25152W        W93526  43.374  21.042  14.962
25153W        W93527   1.418   3.717   1.428
25154W        W93528   3.233   7.865   2.183
25155W        W93529  19.559  36.416   1.336
25156W        W93530  36.404  23.117  11.578
25157W        W93531   2.299  14.619  14.508
25158W        W93532  26.112  17.273  13.400
25159W        W93533  23.533  15.617  11.051
25160W        W93534  35.485  24.656   4.804
25161W        W93535  42.797  21.575  12.517
25162W        W93536  29.099  11.143   2.809
25163W        W93537  31.911  26.096   3.209
25164W        W93538  35.947  25.213  10.981
25165W        W93539  35.104  42.013   1.759
25166W        W93540  13.627  26.177  12.089
25167W        W93541  10.730  43.338  14.940
25168W        W93542  34.932   4.785   5.125
25169W        W93543   2.898  12.720  14.833
25170W        W93544   4.322   1.771   3.200
25171W        W93545   7.751   2.402   9.555
25172W        W93546  17.682   4.782  11.475
25173W        W93547   5.869  33.070   4.749
25174W        W93548  28.091  18.152   1.444
25175W        W93549  29.994  13.213  11.487
25176W        W93550   2.297  33.005   3.378
25177W        W93551  24.217  21.590   3.243
25178W        W93552  27.964  31.960  12.345
25179W        W93553  30.060  19.590   2.671
25180W        W93554  31.993  29.037   0.837
25181W        W93555  38.865  39.876  13.940
25182W        W93556   2.307  41.394   4.336
25183W        W93557  20.584  40.879   4.644
25184W        W93558  37.050  14.156  11.600
25185W        W93559  23.077  28.559   3.160
25186W        W93560  23.521  33.932   0.924
25187W        W93561  18.566  10.802   4.242
25188W        W93562  14.598  18.723   1.413
25189W        W93563  16.078  17.142   3.717
25190W        W93564   8.399   1.863   3.809
25191W        W93565   8.291  21.652   3.709
25192W        W93566  32.951  44.393   1.802
25193W        W93567  31.956  36.026  12.379
25194W        W93568   5.397   6.686  14.865
25195W        W93569  21.723  32.981   2.259
25196W        W93570  31.600  30.119  10.919
25197W        W93571  37.990  19.046  11.027
25198W        W93572  27.637  42.354   0.956
25199W        W93573  30.500   0.850   3.210
25200W        W93574  14.117  41.494  12.826
25201W        W93575   4.413  20.259  14.488
25202W        W93576  17.063  36.877  12.944
25203W        W93577  41.007  18.634  11.517
25204W        W93578  41.816  30.529  11.595
25205W        W93579  23.644   3.440  11.553
25206W        W93580  40.801  35.974  14.405
25207W        W93581   0.744  18.592   0.435
25208W        W93582  21.689  16.712   4.829
25209W        W93583  26.505  38.960   3.741
25210W        W93584  23.235  24.157  11.555
25211W        W93585   9.831  36.904   0.859
25212W        W93586   7.245  24.697   3.826
25213W        W93587  43.909  21.127   1.830
25214W        W93588  25.157   6.748   4.175
25215W        W93589  28.127  37.578   1.328
25216W        W93590  39.030  29.668   5.281
25217W        W93591   7.803  10.311   1.362
25218W        W93592   7.180  21.189  10.472
25219W        W93593   3.828   8.703   3.824
25220W        W93594  39.318  21.087   3.372
25221W        W93595  15.784  34.942   4.115
25222W        W93596   5.290  15.153  12.046
25223W        W93597  24.718  27.014  14.990
25224W        W93598  18.283  13.763  12.366
25225W        W93599  19.160   2.858  11.967
25226W        W93600   1.369  27.005  12.087
25227W        W93601  38.055  19.573  14.010
25228W        W93602  23.227  10.794  12.934
25229W        W93603   8.362   6.390  12.897
25230W        W93604  26.549  22.093   0.420
25231W        W93605  17.162  20.085  14.399
25232W        W93606   6.744  10.241   4.209
25233W        W93607   0.877  40.410  11.556
25234W        W93608  27.054  12.257  14.428
25235W        W93609  40.934  19.225  13.824
25236W        W93610  19.591  33.595   4.277
25237W        W93611  31.090  26.994  11.544
25238W        W93612  30.141  18.244  11.119
25239W        W93613  25.622  13.634   1.745
25240W        W93614   2.945  12.211  14.297
25241W        W93615  14.712   6.771   1.339
25242W        W93616  20.150  24.037  13.470
25243W        W93617  21.516  12.702   3.230
25244W        W93618   8.198   1.911  13.442
25245W        W93619  39.014   9.386   2.753
25246W        W93620  14.244  28.153   1.901
25247W        W93621  30.149  40.802   4.684
25248W        W93622  17.555  18.572   0.780
25249W        W93623  39.820  32.615  14.772
25250W        W93624  30.071   3.447   4.225
25251W        W93625   9.182  14.200  13.325
25252W        W93626  28.524  35.100   0.817
25253W        W93627   3.458  38.914  11.528
25254W        W93628  22.063  29.502  11.966
25255W        W93629   2.260  19.049   1.854
25256W        W93630  29.528  24.572  10.544
25257W        W93631  10.217  42.470   4.313
25258W        W93632  26.118  44.788   2.747
25259W        W93633  37.934  22.744  13.063
25260W        W93634  33.068   6.204   4.711
25261W        W93635   2.321   0.380  11.516
25262W        W93636   0.345  39.379  14.767
25263W        W93637   0.339  28.461  12.924
25264W        W93638  34.369  26.175   4.634
25265W        W93639   1.460  39.433   1.302
25266W        W93640  38.838  37.973  11.024
25267W        W93641  26.517   3.277  14.834
25268W        W93642  13.833   3.419  11.565
25269W        W93643  41.374  36.435  11.127
25270W        W93644  24.052  10.183  14.821
25271W        W93645  23.167   8.861   0.801
25272W        W93646  12.651  23.086   3.360
25273W        W93647   4.852   7.909  13.357
25274W        W93648  33.897  16.801  14.426
25275W        W93649  33.989  37.854   1.833
25276W        W93650  16.716  21.084  12.986
25277W        W93651  10.367  32.058   3.243
25278W        W93652  39.455  14.595  12.860
25279W        W93653  22.167  20.677   0.443
25280W        W93654  20.261   2.785  14.349
25281W        W93655  10.769   5.277   3.671
25282W        W93656  18.296  37.080   4.341
25283W        W93657  38.325   3.318  11.481
25284W        W93658  38.935  19.636   0.907
25285W        W93659  10.293  26.509  11.954
25286W        W93660  15.209   5.337  13.435
25287W        W93661  36.403   2.385   4.165
25288W        W93662  22.562  32.436   0.850
25289W        W93663  32.075  44.383   0.730
25290W        W93664  13.767   0.305  13.486
25291W        W93665  16.297  17.563  10.539
25292W        W93666  30.069   3.879  14.840
25293W        W93667  19.278   3.445  13.918
25294W        W93668  25.627  22.611   3.654
25295W        W93669  25.126   7.825  13.796
25296W        W93670  42.392  31.412  11.936
25297W        W93671  37.407  29.057   1.873
25298W        W93672   8.243  20.622  11.050
25299W        W93673  28.648  17.302   3.819
25300W        W93674  11.623  34.006   1.881
25301W        W93675  21.652  22.027  14.811
25302W        W93676  32.020  29.532   4.815
25303W        W93677   0.917  10.834  13.001
25304W        W93678   6.212  30.935  11.043
25305W        W93679   7.263  33.406  11.942
25306W        W93680  19.679   5.749   0.301
25307W        W93681  29.585  10.861  13.482
25308W        W93682  22.504   9.718  12.382
25309W        W93683  36.002  40.999   3.844
25310W        W93684   1.886  17.694  12.391
25311W        W93685   6.327  26.621  12.912
25312W        W93686  41.346  39.049  12.058
25313W        W93687  44.973  14.615   3.348
25314W        W93688  20.668  26.127   2.368
25315W        W93689  26.652  22.143   4.178
25316W        W93690  15.193   7.171   0.904
25317W        W93691  29.541   2.431   2.234
25318W        W93692   0.752  12.188   3.686
25319W        W93693  31.432  10.730  11.500
25320W        W93694   4.387  39.342  11.881
25321W        W93695  34.379  17.138   4.299
25322W        W93696  37.469   0.464   2.668
25323W        W93697  27.158   3.885   0.938
25324W        W93698  16.248   8.190   5.700
25325W        W93699  15.098  26.958   4.631
25326W        W93700  21.109  31.063  12.519
25327W        W93701  33.073  25.476  13.040
25328W        W93702   4.293  16.197   4.788
25329W        W93703  13.727  30.627   1.361
25330W        W93704  33.481  36.929   0.316
25331W        W93705   1.887  40.914  12.977
25332W        W93706  28.610  11.355  11.027
25333W        W93707  29.970  27.008   3.652
25334W        W93708  10.302  34.455   0.890
25335W        W93709   3.846  42.816   2.839
25336W        W93710  41.000  29.160  10.590
25337W        W93711   8.291  27.616  11.107
25338W        W93712   2.841  28.624  13.314
25339W        W93713  10.775  16.239   2.755
25340W        W93714  25.006  31.010   5.615
25341W        W93715  42.372   8.162   1.807
25342W        W93716  43.314  38.329  14.973
25343W        W93717  27.038  34.070  13.385
25344W        W93718   6.289  18.203   5.242
25345W        W93719   3.302   1.391   3.301
25346W        W93720  17.661  23.591  12.094
25347W        W93721  21.144  12.736  11.376
25348W        W93722  29.657  42.394  12.457
25349W        W93723  14.195  22.073  14.926
25350W        W93724  33.612  44.910   4.174
25351W        W93725  23.649   0.379   1.797
25352W        W93726   4.408  33.548  10.608
25353W        W93727  22.744  30.048   4.768
25354W        W93728   4.295  27.661   0.755
25355W        W93729   8.356  44.472   1.746
25356W        W93730  43.283  27.061   4.781
25357W        W93731  31.493  43.451   0.858
25358W        W93732   6.187   2.896   5.306
25359W        W93733  28.182  13.727   4.745
25360W        W93734  39.900  22.687  14.842
25361W        W93735  34.609   0.338  14.957
25362W        W93736  42.366  36.350   1.266
25363W        W93737   5.718  34.454   2.690
25364W        W93738  33.543  30.658   5.104
25365W        W93739  19.593  44.373  11.589
25366W        W93740  11.822   5.226   0.302
25367W        W93741  13.716  11.355  10.583
25368W        W93742  17.220  11.335  10.642
25369W        W93743   1.303  20.713  14.874
25370W        W93744  43.845  30.157   0.361
25371W        W93745  14.119  27.649  11.461
25372W        W93746  30.474  33.071   2.297
25373W        W93747  31.005  44.311   1.439
25374W        W93748  16.678  10.226   2.758
25375W        W93749  26.060   1.415  10.590
25376W        W93750  44.354   5.789  12.044
25377W        W93751  39.050   4.382   3.302
25378W        W93752  42.888  24.627   4.799
25379W        W93753   2.436  28.503   4.630
25380W        W93754   5.286  43.907  12.966
25381W        W93755  16.250  11.167  10.976
25382W        W93756   6.335   3.904   0.326
25383W        W93757  22.739   0.761  14.791
25384W        W93758  39.517  25.080   2.716
25385W        W93759   9.752  13.688  13.053
25386W        W93760  34.508  41.805  11.106
25387W        W93761  37.840  14.147   4.263
25388W        W93762  21.607  14.184   5.136
25389W        W93763   2.278  38.383   4.316
25390W        W93764   9.754  34.444  14.395
25391W        W93765  32.991  33.520  12.960
25392W        W93766   8.223  42.868   4.834
25393W        W93767  32.984   7.811  14.853
25394W        W93768  19.591  38.942   1.834
25395W        W93769   6.356  32.613  10.607
25396W        W93770  35.887   0.939   0.324
25397W        W93771  33.493  13.607  12.982
25398W        W93772   4.795   6.270   1.932
25399W        W93773  34.535  38.036  11.900
25400W        W93774  34.967  35.023   5.273
25401W        W93775  21.033  11.645   1.250
25402W        W93776   3.360   5.877   3.296
25403W        W93777   8.742  39.409  10.452
25404W        W93778  44.440  27.493   1.731
25405W        W93779  23.083  42.520   1.330
25406W        W93780   2.447  15.252   3.360
25407W        W93781  15.581  18.148   1.348
25408W        W93782  19.575  13.666   4.800
25409W        W93783   1.853  29.153   3.667
25410W        W93784  10.147  39.475  10.584
25411W        W93785   5.794  25.065   2.876
25412W        W93786  25.146  34.039   0.842
25413W        W93787   2.904   8.298  14.786
25414W        W93788  11.318  43.917   4.617
25415W        W93789  10.371  23.152  13.499
25416W        W93790  41.983  31.130  12.060
25417W        W93791  19.242  18.737  13.969
25418W        W93792   1.471  29.019  10.644
25419W        W93793  38.331  26.973  14.407
25420W        W93794  34.894  17.239  14.366
25421W        W93795   5.194   3.954   1.826
25422W        W93796  33.484  14.646  10.932
25423W        W93797  19.541  20.600  12.952
25424W        W93798  42.397  24.144  10.633
25425W        W93799   8.267  18.146  10.006
25426W        W93800  23.509  13.693  11.922
25427W        W93801  18.070  12.145   1.258
25428W        W93802  31.480   5.896  12.426
25429W        W93803  18.163  11.765  10.411
25430W        W93804  20.596  19.153  11.884
25431W        W93805  41.350  31.561   2.379
25432W        W93806  29.967  21.717   1.854
25433W        W93807  40.897  21.623  13.969
25434W        W93808  41.415  26.496  11.425
25435W        W93809  26.137  43.477  10.621
25436W        W93810   6.390  23.665   4.677
25437W        W93811  27.568  34.941  10.472
25438W        W93812  31.637   1.408   1.248
25439W        W93813  11.285  35.889  13.926
25440W        W93814  37.529  22.081   2.341
25441W        W93815  25.493  42.986   4.321
25442W        W93816   6.792   4.823   2.419
25443W        W93817  40.498  25.709  12.374
25444W        W93818  28.442  41.843  11.413
25445W        W93819  22.529   9.683   2.703
25446W        W93820   4.892  31.095  14.497
25447W        W93821  23.199   1.901   4.820
25448W        W93822  28.611   7.191   4.816
25449W        W93823  34.563  15.156  14.967
25450W        W93824  29.014  32.459   4.725
25451W        W93825  31.000  25.597  10.517
25452W        W93826  25.674   1.372   2.248
25453W        W93827   2.883  31.984   4.354
25454W        W93828  19.056   9.673   3.230
25455W        W93829  35.455  31.503   3.861
25456W        W93830  29.426   1.419   3.160
25457W        W93831  28.564  41.021   2.224
25458W        W93832  23.658  30.551   3.821
25459W        W93833  29.014   4.770   3.690
25460W        W93834   2.235   6.774  13.450
25461W        W93835  26.477  40.412  12.968
25462W        W93836  13.115  38.439  11.019
25463W        W93837  34.956  14.191   2.276
25464W        W93838  32.994   1.946   3.165
25465W        W93839  18.685  27.020   3.737
25466W        W93840  13.623   7.173   1.694
25467W        W93841  36.981  30.514  10.889
25468W        W93842  43.887  41.811  14.305
25469W        W93843  40.936  28.530   4.289
25470W        W93844  22.151  32.024  11.598
25471W        W93845  37.444  23.540   2.726
25472W        W93846  31.992  34.551   0.821
25473W        W93847  16.286  34.894  10.894
25474W        W93848   7.668  37.557   0.287
25475W        W93849  35.427  35.532  14.908
25476W        W93850  43.459   3.879  12.849
25477W        W93851  10.816  33.549  11.990
25478W        W93852  24.126   6.855  13.442
25479W        W93853  27.603  32.424  13.439
25480W        W93854  40.000  37.017   3.238
25481W        W93855   7.729  29.635  11.965
25482W        W93856  29.574  32.551  10.938
25483W        W93857  27.074   3.389  12.978
25484W        W93858  39.004  17.228   3.738
25485W        W93859  37.560  19.160  13.932
25486W        W93860   3.421  31.149   0.367
25487W        W93861  11.759  39.998  10.590
25488W        W93862  35.066   2.834  10.441
25489W        W93863  34.114  20.065  10.561
25490W        W93864  38.061   8.799  11.125
25491W        W93865   2.836  18.141   2.784
25492W        W93866  29.636  18.629  12.494
25493W        W93867   6.328  27.165   1.927
25494W        W93868   4.407  37.554   4.637
25495W        W93869  34.074  13.319  14.423
25496W        W93870  36.440   1.365  12.019
25497W        W93871  28.622   2.319  12.869
25498W        W93872  33.088  13.661   2.804
25499W        W93873  16.114  11.644  13.445
25500W        W93874  15.148  16.686   0.379
25501W        W93875   3.731  16.105  12.019
25502W        W93876  26.644   8.680  11.963
25503W        W93877  10.647  32.438   3.785
25504W        W93878  12.350   0.418   0.851
25505W        W93879  30.588  15.822   0.469
25506W        W93880  10.207  32.030   4.251
25507W        W93881  15.217  13.220  14.504
25508W        W93882  41.459  23.122  14.856
25509W        W93883  35.369  41.987   4.290
25510W        W93884  38.864  16.292   2.880
25511W        W93885   6.919   4.351  13.422
25512W        W93886  16.294   7.745  11.078
25513W        W93887  32.129   6.369   3.831
25514W        W93888  22.736  12.170  13.524
25515W        W93889   9.366   2.764  12.558
25516W        W93890   0.265  24.674  10.909
25517W        W93891   8.769  17.117   2.362
25518W        W93892  14.601  37.935  12.835
25519W        W93893   4.904  44.872   1.820
25520W        W93894  10.317  22.179   0.793
25521W        W93895  42.820  41.441   0.735
25522W        W93896  36.897   1.463  10.960
25523W        W93897  23.192  27.001   4.222
25524W        W93898  11.691  24.078   4.774
25525W        W93899   0.881  32.914   4.616
25526W        W93900  41.793  39.373   3.315
25527W        W93901   0.331  28.445  14.411
25528W        W93902  26.144  22.076   3.647
25529W        W93903   0.867  11.244  14.370
25530W        W93904  19.216  27.659   4.796
25531W        W93905  29.589  37.018   0.876
25532W        W93906  33.430  41.343  14.009
25533W        W93907   3.722  15.286  11.438
25534W        W93908  37.393  28.147   4.677
25535W        W93909   0.891   0.251   1.409
25536W        W93910   0.792  11.861   0.854
25537W        W93911  17.754  39.995  11.439
25538W        W93912  30.110   8.844   3.219
25539W        W93913  15.723  39.412  12.004
25540W        W93914  16.751  32.432   1.284
25541W        W93915  27.674  43.816  14.316
25542W        W93916   5.428  15.730  13.915
25543W        W93917  18.170  36.349  10.580
25544W        W93918   8.802  36.998   0.395
25545W        W93919   1.237  42.407  14.804
25546W        W93920  11.307  13.265  14.378
25547W        W93921  38.429  26.673   2.774
25548W        W93922  12.761  31.521   4.125
25549W        W93923  39.056  41.351   0.894
25550W        W93924  38.530  21.615   4.598
25551W        W93925  10.725  28.568  13.038
25552W        W93926  25.482   5.912  11.068
25553W        W93927  41.500  35.067   2.231
25554W        W93928  20.117  12.715   4.350
25555W        W93929  14.606   0.913  10.153
25556W        W93930  16.644  22.185   2.280
25557W        W93931  20.084   9.241  11.582
25558W        W93932   9.853  10.332  11.421
25559W        W93933   0.867  42.307   1.822
25560W        W93934  30.582  16.694  11.913
25561W        W93935  18.164  19.102   4.729
25562W        W93936  25.485  18.686   3.856
25563W        W93937  40.330   3.726  11.109
25564W        W93938  34.057  14.707  11.595
25565W        W93939  30.604   7.368   3.842
25566W        W93940  18.191   3.878   0.460
25567W        W93941   5.353   6.341   4.286
25568W        W93942  14.094   0.927  12.831
25569W        W93943  24.581  13.607  14.917
25570W        W93944  22.126  22.055  13.390
25571W        W93945   6.766  10.871   4.615
25572W        W93946  21.571  25.109   5.291
25573W        W93947  18.152   7.171  13.036
25574W        W93948  32.623  20.710  10.520
25575W        W93949  31.530  42.390   1.705
25576W        W93950  39.490   5.751   2.896
25577W        W93951  19.243  32.010  11.512
25578W        W93952  18.582  33.522  11.453
25579W        W93953  43.933  16.640   3.791
25580W        W93954  27.163   0.900   3.380
25581W        W93955  10.644  26.630  11.531
25582W        W93956  37.009   2.432  10.564
25583W        W93957  16.729   4.710   4.804
25584W        W93958  37.860  16.106   0.348
25585W        W93959  31.529  14.168   4.264
25586W        W93960  31.145  26.006   2.740
25587W        W93961  23.606  33.601   1.212
25588W        W93962  35.543   4.261  11.462
25589W        W93963  29.659  36.929  14.878
25590W        W93964   4.395  26.590  14.316
25591W        W93965  39.985  38.882  11.890
25592W        W93966  17.142   6.368   5.174
25593W        W93967  26.516   9.336   5.230
25594W        W93968   5.767  27.454  12.410
25595W        W93969  28.549  23.594  12.912
25596W        W93970  22.578   9.687  11.925
25597W        W93971   9.347  42.444   3.839
25598W        W93972  44.333  15.312   3.288
25599W        W93973  24.996  15.228  11.960
25600W        W93974  42.824  24.152  11.405
25601W        W93975  12.181  15.697   5.207
25602W        W93976   6.265  26.022  13.011
25603W        W93977  23.066   0.802  12.542
25604W        W93978  14.305  36.930   3.192
25605W        W93979  40.003   1.781  13.414
25606W        W93980  12.688  12.825   2.235
25607W        W93981  28.147  40.342  10.610
25608W        W93982  32.060  12.797   2.686
25609W        W93983  30.143  44.942  11.105
25610W        W93984   4.369  36.559  10.895
25611W        W93985  34.460   1.431   3.384
25612W        W93986  37.545   2.408  14.374
25613W        W93987   5.331  34.900   3.760
25614W        W93988  22.067  16.126   1.393
25615W        W93989   2.430   1.312  14.004
25616W        W93990   3.275  31.918   4.284
25617W        W93991  24.634  42.849  12.008
25618W        W93992  19.115   7.394   3.852
25619W        W93993  43.937   3.866   1.216
25620W        W93994  30.107  18.081   0.936
25621W        W93995  24.666   4.839   0.409
25622W        W93996   2.363  35.511  14.891
25623W        W93997  14.125   7.416   3.833
25624W        W93998  41.791   0.804   1.846
25625W        W93999  35.374  35.928   2.203
25626W        W94000   7.689  23.229  11.896
25627W        W94001  38.932   9.736   3.277
25628W        W94002  22.174  43.839   2.885
25629W        W94003  32.542  15.811  11.426
25630W        W94004  27.496  29.962  12.958
25631W        W94005  10.746  27.601   0.331
25632W        W94006   0.855   0.433   2.871
25633W        W94007  20.731  24.592  12.040
25634W        W94008  23.209  12.652  10.888
25635W        W94009   9.696  26.629   4.678
25636W        W94010   1.329  26.981  14.986
25637W        W94011  36.548   3.275  11.579
25638W        W94012  16.077  14.167  10.635
25639W        W94013  37.869   6.380  14.910
25640W        W94014  35.036  12.748   3.859
25641W        W94015  10.682  31.462  11.014
25642W        W94016   3.295  20.728  12.973
25643W        W94017  34.961   9.770   1.715
25644W        W94018  32.919   5.796   3.294
25645W        W94019  16.717  10.725   0.344
25646W        W94020  11.754  32.075  11.482
25647W        W94021  29.439  35.069  10.498
25648W        W94022  22.699   1.432   1.927
25649W        W94023   5.887  11.162   1.905
25650W        W94024   6.269  13.788  10.515
25651W        W94025  12.351  22.067  12.943
25652W        W94026  35.415  22.173  12.944
25653W        W94027  27.451  16.752  11.403
25654W        W94028  25.984  31.076   2.286
25655W        W94029  44.946  14.143   0.275
25656W        W94030  20.524  36.093  11.914
25657W        W94031  15.721  40.474   4.833
25658W        W94032  40.918   0.486   4.157
25659W        W94033  21.162  39.875   0.965
25660W        W94034  34.110  24.585  11.114
25661W        W94035  15.285  25.648  13.321
25662W        W94036  40.317  42.963   2.864
25663W        W94037  34.377  43.326  14.957
25664W        W94038   1.354   6.277  10.965
25665W        W94039  23.644  21.196   3.296
25666W        W94040  23.145  16.595  12.953
25667W        W94041  28.596   0.867  11.868
25668W        W94042   6.195  40.803   1.365
25669W        W94043   1.732  10.639  10.416
25670W        W94044  21.237  11.246  12.096
25671W        W94045  11.307  10.189   0.315
25672W        W94046  40.974   7.293   4.281
25673W        W94047   5.826  30.066   0.892
25674W        W94048   0.965  27.152  12.424
25675W        W94049  10.208  29.120  10.126
25676W        W94050  30.511  39.982   0.918
25677W        W94051  30.631  28.083   3.282
25678W        W94052  28.008  40.860  11.887
25679W        W94053  36.865  44.861   0.395
25680W        W94054  10.793  33.114  10.550
25681W        W94055   2.439  12.824  12.993
25682W        W94056  13.818  43.020  11.599
25683W        W94057  26.124  24.161  11.383
25684W        W94058  35.014  43.806  11.971
25685W        W94059  38.373  25.168  14.976
25686W        W94060   0.773  28.544  13.018
25687W        W94061  21.120  22.522   4.285
25688W        W94062  43.910  16.746  12.481
25689W        W94063  32.136   7.776   3.835
25690W        W94064   6.726  27.957  12.843
25691W        W94065  30.129  28.457   4.779
25692W        W94066  28.645  29.567  10.609
25693W        W94067  39.053  11.365  13.021
25694W        W94068  20.176  40.393   4.834
25695W        W94069  14.743  13.163   1.792
25696W        W94070  28.091  10.854  12.902
25697W        W94071  19.056   7.745  14.415
25698W        W94072   4.856  42.782   0.452
25699W        W94073  10.878   7.344  12.493
25700W        W94074  26.061  26.062  13.978
25701W        W94075  32.574  19.244  12.378
25702W        W94076  21.696  15.219  11.055
25703W        W94077  27.663  10.868  13.023
25704W        W94078   2.426  24.624   3.690
25705W        W94079  40.929  26.116  14.902
25706W        W94080  42.450  44.820   2.269
25707W        W94081   9.196  43.914   1.447
25708W        W94082  40.932  33.032   2.844
25709W        W94083   4.751  37.488   5.189
25710W        W94084  11.338   5.317   3.379
25711W        W94085  17.753  42.322  12.525
25712W        W94086  11.818  18.758  14.922
25713W        W94087  14.821   5.699   3.279
25714W        W94088   9.295  41.009   3.802
25715W        W94089   7.776  12.233  13.321
25716W        W94090  12.640  12.279  12.353
25717W        W94091   9.781  43.814   2.713
25718W        W94092  21.247  18.161  14.497
25719W        W94093  22.182  17.238   1.761
25720W        W94094  26.171  15.224   1.215
25721W        W94095  44.956  35.068  12.511
25722W        W94096  35.399  44.845  11.480
25723W        W94097  41.419  25.035   2.749
25724W        W94098   1.809   7.805   0.392
25725W        W94099  37.561  13.766   4.692
25726W        W94100  10.674  38.471  13.330
25727W        W94101   2.434  39.377   4.342
25728W        W94102  21.247   0.926  11.575
25729W        W94103  24.049  15.281   1.825
25730W        W94104   2.367  33.075  13.999
25731W        W94105  39.889  27.146   3.630
25732W        W94106  27.999   3.918   0.874
25733W        W94107  43.337  20.243   1.748
25734W        W94108   2.954   7.691   4.286
25735W        W94109  23.560  21.257   2.353
25736W        W94110   1.258  35.504  13.345
25737W        W94111  30.026   0.967   3.176
25738W        W94112  34.113  30.060   4.670
25739W        W94113  22.117   2.738  13.962
25740W        W94114   4.419  31.962   3.295
25741W        W94115  34.017   0.927   1.921
25742W        W94116  32.499  19.672  12.540
25743W        W94117  17.071   3.415   2.748
25744W        W94118  41.475  44.766   0.343
25745W        W94119  18.276  24.993   1.241
25746W        W94120   3.913   2.804  14.013
25747W        W94121   1.935  35.527  14.504
25748W        W94122  32.923  42.909   4.665
25749W        W94123  23.984   6.396  10.585
25750W        W94124  40.351  19.606  13.355
25751W        W94125  34.410  24.192  13.822
25752W        W94126  27.163  25.516   1.746
25753W        W94127  40.432  27.040   4.136
25754W        W94128  20.063   3.393  11.535
25755W        W94129  13.318   1.364  11.035
25756W        W94130  42.443  41.910   1.317
25757W        W94131   4.842  44.989  14.476
25758W        W94132  32.948   4.886   3.322
25759W        W94133  40.341   3.458  14.029
25760W        W94134   5.855  24.000   9.949
25761W        W94135  17.112  32.981   0.294
25762W        W94136  10.836  10.831   1.376
25763W        W94137   2.232  44.369  10.940
25764W        W94138   5.758   9.743   1.752
25765W        W94139  11.772  20.201   9.930
25766W        W94140  24.173  25.517   0.944
25767W        W94141  14.286   6.343   3.362
25768W        W94142  15.273  44.318   3.237
25769W        W94143  27.963   5.713  14.962
25770W        W94144  19.219   5.218   0.404
25771W        W94145  34.550  26.976   0.826
25772W        W94146   4.698  39.923  11.380
25773W        W94147  17.250   1.911   0.750
25774W        W94148   9.391   7.396   1.696
25775W        W94149  21.720   7.684   3.752
25776W        W94150  19.275  19.590   3.834
25777W        W94151  15.748  30.915   4.724
25778W        W94152  31.454   0.850   2.709
25779W        W94153  14.669  21.083   2.414
25780W        W94154  11.664  32.088  14.380
25781W        W94155  42.504   7.366   2.314
25782W        W94156  25.640  31.523  11.609
25783W        W94157  33.613  21.738  14.403
25784W        W94158   9.261  44.813  11.437
25785W        W94159  44.793  24.012   0.381
25786W        W94160  17.561  43.947  11.867
25787W        W94161  12.619  15.181   3.771
25788W        W94162  33.409  25.210  11.567
25789W        W94163   1.962   4.702   4.274
25790W        W94164  40.444  18.081  11.900
25791W        W94165   6.680  11.148   0.346
25792W        W94166  29.932   9.762  14.818
25793W        W94167  23.177   6.845   0.370
25794W        W94168  41.332   0.437  10.984
25795W        W94169  40.352   6.765   4.152
25796W        W94170  42.372  10.640   4.710
25797W        W94171  29.098  44.503   2.863
25798W        W94172   0.790  26.662  13.042
25799W        W94173  32.434  26.148  13.349
25800W        W94174  13.829  25.985  10.428
25801W        W94175  28.000  33.397   0.327
25802W        W94176  27.576   0.745   0.438
25803W        W94177  17.062  21.215  13.013
25804W        W94178  34.489  34.984   0.289
25805W        W94179  17.296  21.105   4.823
25806W        W94180  17.131  27.669  11.116
25807W        W94181  35.590  21.726   2.843
25808W        W94182  35.973  21.080  11.507
25809W        W94183  21.726  22.208   2.816
25810W        W94184  30.971  42.032  13.422
25811W        W94185  11.139   0.876   1.441
25812W        W94186  11.213   1.853  13.329
25813W        W94187  42.403  20.655  11.543
25814W        W94188  38.038  31.907   1.744
25815W        W94189   5.376  27.972  12.479
25816W        W94190  31.587  18.179  11.376
25817W        W94191  16.795  15.767  11.530
25818W        W94192  10.876   6.870  14.450
25819W        W94193  35.547  22.120  10.592
25820W        W94194   6.849   2.255   3.826
25821W        W94195   3.732  41.512  10.602
25822W        W94196  25.217  14.618  13.411
25823W        W94197   1.438  27.481   0.340
25824W        W94198  41.405  10.375   2.711
25825W        W94199  13.207  39.949   3.321
25826W        W94200  42.823   5.791   1.291
25827W        W94201  15.234  14.232  11.533
25828W        W94202  35.394  16.135  14.505
25829W        W94203  39.477  12.724  12.417
25830W        W94204  24.579  27.141  11.491
25831W        W94205  44.422  25.574  13.348
25832W        W94206  42.488  15.318  13.966
25833W        W94207  23.187   6.285  10.544
25834W        W94208  44.501  33.997  11.481
25835W        W94209  41.402  36.536  14.823
25836W        W94210  38.370  22.706   2.883
25837W        W94211   4.291   6.296   0.903
25838W        W94212   3.323   8.285   2.307
25839W        W94213  43.270  18.766   4.764
25840W        W94214  24.705  13.162   1.836
25841W        W94215  11.309  28.984  14.956
25842W        W94216   5.720   6.894  12.339
25843W        W94217  10.333   8.866  10.911
25844W        W94218  18.283   4.313  14.491
25845W        W94219   0.325  30.120   1.825
25846W        W94220  29.638  16.741   2.808
25847W        W94221  39.314   6.770   0.441
25848W        W94222   5.343  19.215   2.845
25849W        W94223  19.240  16.115  12.535
25850W        W94224  30.961  28.039  10.126
25851W        W94225  35.045  20.728   0.270
25852W        W94226  40.377  19.643   2.187
25853W        W94227  39.372  41.917  11.612
25854W        W94228  43.943  14.299  13.347
25855W        W94229  21.169  13.788  11.913
25856W        W94230  23.130  41.516   0.352
25857W        W94231  27.476  32.975   2.831
25858W        W94232  33.483  12.334  12.408
25859W        W94233  36.514  38.041   0.366
25860W        W94234   6.710  41.864  14.827
25861W        W94235  33.105  40.372  10.920
25862W        W94236   5.872  42.485  10.950
25863W        W94237   9.239   9.663   2.836
25864W        W94238  41.294  35.098   0.383
25865W        W94239  44.466  25.627  11.052
25866W        W94240  39.328  38.071  13.062
25867W        W94241  26.663  32.978  11.513
25868W        W94242  34.932  42.836   1.252
25869W        W94243   4.925  41.333  12.512
25870W        W94244  15.247  38.341  12.917
25871W        W94245  41.369  18.668  13.487
25872W        W94246   0.309  18.755  10.585
25873W        W94247  44.484   3.250  14.005
25874W        W94248   0.902  18.273  14.952
25875W        W94249  20.138  24.673  12.343
25876W        W94250   3.715  15.104  12.045
25877W        W94251  33.384  36.071   2.335
25878W        W94252  43.441  30.921   0.923
25879W        W94253  22.577   0.288  12.085
25880W        W94254   2.737   8.230  14.352
25881W        W94255  25.554  39.399  14.800
25882W        W94256   2.256  10.213   4.196
25883W        W94257  17.648  34.892  14.952
25884W        W94258  35.036  13.277   2.760
25885W        W94259  43.466  10.693   0.353
25886W        W94260  14.263  32.513  13.805
25887W        W94261  32.412  16.637   2.883
25888W        W94262  28.482  39.497   1.338
25889W        W94263   4.866  19.647   0.801
25890W        W94264  17.691  36.551   3.251
25891W        W94265  14.673  29.095   4.291
25892W        W94266  31.442  29.627  14.482
25893W        W94267   7.191  29.501   4.266
25894W        W94268  10.791  36.866  13.854
25895W        W94269   2.279  16.165  13.398
25896W        W94270  16.161  15.602   0.878
25897W        W94271  14.192  30.108  14.887
25898W        W94272   7.797  11.845  11.915
25899W        W94273  12.277  32.128  11.110
25900W        W94274  39.870  26.647  11.599
25901W        W94275  13.803  44.860   2.695
25902W        W94276  16.642   1.318   2.797
25903W        W94277  20.697  27.042   0.795
25904W        W94278  35.929   9.351  11.937
25905W        W94279  24.678  38.870  11.537
25906W        W94280  36.936  44.902  12.486
25907W        W94281  24.217  38.349   1.866
25908W        W94282  31.105  20.232   1.301
25909W        W94283  39.420  29.667   0.282
25910W        W94284  44.368  37.474   3.831
25911W        W94285  12.204  38.974   3.643
25912W        W94286  39.879   9.301   1.419
25913W        W94287   2.320   1.432  14.487
25914W        W94288   0.380  11.182   3.274
25915W        W94289  42.964   7.815  14.368
25916W        W94290   3.272   4.823  10.073
25917W        W94291  36.383  28.187   0.381
25918W        W94292  16.600   3.918  12.949
25919W        W94293   8.196  40.918  11.986
25920W        W94294  26.644   2.942  13.998
25921W        W94295   6.776  32.987   0.865
25922W        W94296   4.229  27.692   4.114
25923W        W94297  10.754   3.340   3.356
25924W        W94298   8.312  29.096  12.910
25925W        W94299  25.171  21.067   4.676
25926W        W94300  35.043  10.781  12.002
25927W        W94301   5.776  40.397  13.440
25928W        W94302  23.615  39.944   3.387
25929W        W94303  32.963  29.592  12.053
25930W        W94304  37.088  11.678  14.477
25931W        W94305   1.338  14.621   3.779
25932W        W94306   7.840  37.902  13.420
25933W        W94307  36.920  13.712  13.847
25934W        W94308  36.063  17.761   3.855
25935W        W94309   8.879  34.068  11.424
25936W        W94310  23.551  39.407   1.448
25937W        W94311  31.973   6.843   2.349
25938W        W94312  29.954  36.451   4.732
25939W        W94313  16.109  43.289   1.319
25940W        W94314  43.936  12.178  13.489
25941W        W94315  41.836  44.894   2.271
25942W        W94316  17.778   0.943  12.445
25943W        W94317  35.864  35.102   2.839
25944W        W94318  18.618  23.181   0.937
25945W        W94319  15.693  34.371  10.158
25946W        W94320  33.573   8.291   5.309
25947W        W94321   4.255  12.273  11.510
25948W        W94322  11.645  17.154  12.398
25949W        W94323  19.630  15.717  11.522
25950W        W94324  27.589  37.881  14.890
25951W        W94325  13.731  17.724   3.255
25952W        W94326  38.981   2.732   4.673
25953W        W94327  44.793  10.173   3.380
25954W        W94328  12.713  35.102   1.876
25955W        W94329  43.363  42.426  13.520
25956W        W94330  20.642  18.650   1.439
25957W        W94331  22.704  43.416  12.539
25958W        W94332   5.259  38.923  14.427
25959W        W94333  39.039   2.795   0.911
25960W        W94334  10.324  42.363   2.262
25961W        W94335  34.080  31.445  14.470
25962W        W94336  36.847  32.133   2.716
25963W        W94337  12.270  41.968  14.479
25964W        W94338  43.388  39.969  14.461
25965W        W94339  15.187  35.994  14.934
25966W        W94340  43.481   1.319   4.118
25967W        W94341  29.562   7.210   1.247
25968W        W94342  10.665   6.373  11.505
25969W        W94343  15.823  28.122  11.899
25970W        W94344  24.198  19.227   2.342
25971W        W94345   1.891  33.397  11.019
25972W        W94346  20.587   8.173  14.434
25973W        W94347  17.220  35.579  14.826
25974W        W94348  23.135   1.448  12.515
25975W        W94349  17.734  32.069  11.441
25976W        W94350  35.410  44.813  12.456
25977W        W94351  10.247   6.278  13.526
25978W        W94352  29.631  38.400  13.477
25979W        W94353  38.890  22.654  11.990
25980W        W94354  17.711  23.500   0.921
25981W        W94355  41.395  16.574  14.880
25982W        W94356  30.462  32.449  11.467
25983W        W94357  25.113  34.487  11.050
25984W        W94358  12.318  26.597   1.309
25985W        W94359  12.733  25.563  11.385
25986W        W94360  35.866  26.966   0.909
25987W        W94361  40.836  41.457  11.093
25988W        W94362  19.680  27.090  12.864
25989W        W94363  21.721  43.937  10.546
25990W        W94364  28.027  11.146   2.411
25991W        W94365  14.231  28.582  11.593
25992W        W94366  14.202  17.670  12.826
25993W        W94367  34.451   3.824  10.629
25994W        W94368  19.046  37.934  14.275
25995W        W94369  31.035  11.214  11.921
25996W        W94370  20.682   2.428  13.807
25997W        W94371  20.759  18.066   3.229
25998W        W94372   3.379  40.539  10.410
25999W        W94373   2.297  36.346   3.239
26000W        W94374  23.234  42.891   4.157
26001W        W94375  32.008  33.566  13.372
26002W        W94376  23.082   9.748   2.307
26003W        W94377  27.135  23.203  12.435
26004W        W94378  43.785  31.429  14.463
26005W        W94379  15.084  14.616  12.955
26006W        W94380  10.297  31.402   1.709
26007W        W94381  27.469   5.881   4.719
26008W        W94382   4.710   6.312  10.583
26009W        W94383  44.427  24.616   3.701
26010W        W94384   0.285   9.364   4.241
26011W        W94385  35.866  30.115  14.883
26012W        W94386  26.027  39.048  14.379
26013W        W94387  14.591  16.168   3.305
26014W        W94388   5.206  19.626   0.955
26015W        W94389  18.771  25.986   1.694
26016W        W94390  41.866  38.880   3.797
26017W        W94391  18.228  27.032   0.943
26018W        W94392   7.723  24.210  13.471
26019W        W94393  20.219  41.521  10.524
26020W        W94394  19.270  34.531   0.303
26021W        W94395  23.228  36.010   1.240
26022W        W94396  17.296  11.312  12.092
26023W        W94397  34.873  23.116  11.125
26024W        W94398  11.827  42.908  10.612
26025W        W94399  37.847  10.690  10.536
26026W        W94400   8.355  31.008  14.846
26027W        W94401  20.585  22.746   3.294
26028W        W94402   7.882  24.133  12.044
26029W        W94403  39.475  10.218  13.374
26030W        W94404   2.393  26.681   0.414
26031W        W94405   3.374  32.077   3.753
26032W        W94406  15.264  36.850  12.870
26033W        W94407  26.078  23.717   4.208
26034W        W94408   6.216  44.478   0.850
26035W        W94409   7.296  23.548   4.182
26036W        W94410  15.223  31.434   3.358
26037W        W94411  24.684  44.780   4.634
26038W        W94412  25.653  17.582  11.518
26039W        W94413  31.090  24.163  14.816
26040W        W94414  42.314  44.948   0.915
26041W        W94415  20.585  10.656   0.951
26042W        W94416  13.209   0.373  12.005
26043W        W94417  28.546  29.135  11.500
26044W        W94418  24.006  31.462   4.137
26045W        W94419  24.142   0.276  12.899
26046W        W94420  35.952  42.392  11.961
26047W        W94421   8.325   3.909   1.768
26048W        W94422  43.842  17.139   3.765
26049W        W94423  28.679  29.639   1.919
26050W        W94424  16.628  17.747  11.608
26051W        W94425  28.149  13.819  13.825
26052W        W94426  37.444  37.440  11.038
26053W        W94427  18.075  17.063   0.346
26054W        W94428  14.697  41.927   0.890
26055W        W94429  17.734  39.936   3.789
26056W        W94430  22.501  33.032   3.813
26057W        W94431   7.828  36.973   4.210
26058W        W94432   4.846  19.133  13.031
26059W        W94433  26.670  15.777  11.459
26060W        W94434  11.723  21.535  11.912
26061W        W94435  25.133  26.064   1.305
26062W        W94436  41.423  40.869   1.242
26063W        W94437  40.501  18.726   4.160
26064W        W94438   9.750  20.094   4.641
26065W        W94439  32.588   8.162   3.168
26066W        W94440  15.229   1.770   0.360
26067W        W94441   4.898  21.725   4.814
26068W        W94442  43.510  24.002   3.173
26069W        W94443   5.875   1.337   2.672
26070W        W94444   7.378  27.585  13.530
26071W        W94445   5.204  35.883   1.890
26072W        W94446  31.406  15.738  12.470
26073W        W94447  22.562  13.330  10.069
26074W        W94448  44.928  18.137   1.425
26075W        W94449  25.125  44.999   3.647
26076W        W94450   6.731   3.797   1.759
26077W        W94451  43.321  31.622  14.874
26078W        W94452  14.782  17.244   2.372
26079W        W94453  38.826  25.694   0.256
26080W        W94454  21.681  36.575  10.448
26081W        W94455  15.199   6.334  10.553
26082W        W94456  26.165  38.021   4.654
26083W        W94457  30.614   8.896   4.725
26084W        W94458  43.996  18.106   2.415
26085W        W94459  13.123  24.663   3.708
26086W        W94460  29.514  25.040  13.950
26087W        W94461  39.878  40.952  13.001
26088W        W94462   6.732  17.252  13.378
26089W        W94463  41.937   6.878  14.322
26090W        W94464  34.515  42.979  14.802
26091W        W94465  22.059   2.440  11.968
26092W        W94466   9.809  18.264  12.392
26093W        W94467  29.507  16.762   4.715
26094W        W94468  43.825  42.382   0.271
26095W        W94469  26.592  15.739  12.897
26096W        W94470  15.745  33.578   4.249
26097W        W94471  31.430  16.607  14.836
26098W        W94472  35.103  21.729   2.851
26099W        W94473   1.305  12.660  13.059
26100W        W94474  11.267  40.919   1.366
26101W        W94475  25.577  38.487  10.903
26102W        W94476  44.456  30.164   1.888
26103W        W94477   9.347  29.439   2.392
26104W        W94478  42.440  39.330   1.823
26105W        W94479  29.099  30.493  14.920
26106W        W94480   8.807  24.712   2.707
26107W        W94481   5.265  13.262  10.976
26108W        W94482  19.277  41.406  10.632
26109W        W94483  41.824  43.765   0.887
26110W        W94484  15.734  10.698  13.477
26111W        W94485  23.013  26.457  10.955
26112W        W94486   4.902  11.697   2.756
26113W        W94487  34.095  16.766  12.548
26114W        W94488  26.471  42.883  10.070
26115W        W94489   5.215  23.689   4.781
26116W        W94490  35.436  32.472  12.488
26117W        W94491   2.379  22.714  10.940
26118W        W94492  30.431   1.259  10.582
26119W        W94493  36.948   0.918  13.886
26120W        W94494  20.161  33.890   2.276
26121W        W94495  29.490   1.918  10.147
26122W        W94496  37.034  23.575  14.327
26123W        W94497  10.328  38.424   0.421
26124W        W94498  37.515   4.700   0.344
26125W        W94499   6.392  20.162   2.700
26126W        W94500   0.822  22.626   2.335
26127W        W94501  40.927  35.454   0.279
26128W        W94502  36.461  17.177   3.359
26129W        W94503  24.656  31.605  13.802
26130W        W94504   6.242  31.898  12.861
26131W        W94505   5.242   6.795   3.703
26132W        W94506  32.021  12.206  12.976
26133W        W94507  23.055  22.664   3.649
26134W        W94508  40.052  29.477  11.406
26135W        W94509   5.704   0.381   0.956
26136W        W94510  24.515  32.561  11.965
26137W        W94511  16.693  26.000   0.936
26138W        W94512   1.254  19.573  12.976
26139W        W94513  31.965  37.536   3.683
26140W        W94514   1.887  29.542   4.264
26141W        W94515   3.266  25.097  14.867
26142W        W94516  21.536   3.727  13.988
26143W        W94517  10.358  14.206  11.537
26144W        W94518  11.641  33.879   0.278
26145W        W94519   9.649  20.153   9.924
26146W        W94520  12.302   8.245   0.462
26147W        W94521  20.678  44.930  11.408
26148W        W94522   6.720  22.075   1.708
26149W        W94523   8.390  37.859   2.359
26150W        W94524  32.512  15.321  13.010
26151W        W94525  24.112  18.749   3.745
26152W        W94526  32.925   0.471   2.281
26153W        W94527  31.975   9.682  13.314
26154W        W94528  15.705   7.250   2.319
26155W        W94529  31.591  37.071   1.365
26156W        W94530   0.752  38.850  11.945
26157W        W94531   1.257  27.153  13.477
26158W        W94532   5.295  28.460   1.236
26159W        W94533  16.118  37.021   1.331
26160W        W94534  35.572  41.901   3.241
26161W        W94535   6.714  29.014   3.706
26162W        W94536   1.308   2.886   0.445
26163W        W94537  35.887  40.446   0.772
26164W        W94538  13.208  31.971   0.361
26165W        W94539  19.102  43.320   0.874
26166W        W94540   7.343  12.335   2.846
26167W        W94541  31.921  39.055   1.219
26168W        W94542   5.805   1.438  10.955
26169W        W94543  20.183  26.189   2.882
26170W        W94544  36.391   3.353  12.532
26171W        W94545  39.547  17.657  10.531
26172W        W94546  44.450  16.239  12.567
26173W        W94547  33.430  30.925   3.249
26174W        W94548   4.422  27.152  13.814
26175W        W94549  37.427  22.068   9.963
26176W        W94550  31.024  37.848  11.403
26177W        W94551  27.114  25.686   3.779
26178W        W94552  10.366  20.551  12.365
26179W        W94553  40.013  42.318   0.939
26180W        W94554  13.141  43.280  10.951
26181W        W94555  35.093  31.912   2.715
26182W        W94556   3.249  27.999   0.473
26183W        W94557  44.459  38.416   2.757
26184W        W94558  41.860  10.314   3.224
26185W        W94559   6.206   1.243   4.600
26186W        W94560  16.296  40.393  11.606
26187W        W94561  32.900  15.206  13.882
26188W        W94562  39.993  32.406  13.496
26189W        W94563  38.865  34.042   1.695
26190W        W94564  32.923  41.939  13.350
26191W        W94565   6.327  24.129  12.952
26192W        W94566   1.469  39.328  13.840
26193W        W94567  34.914  28.578   2.264
26194W        W94568  33.878  12.283  12.986
26195W        W94569  44.776  32.110   1.706
26196W        W94570  31.620   0.359  10.981
26197W        W94571  33.999  37.881   2.238
26198W        W94572  29.619  41.430   4.276
26199W        W94573  28.587  30.060   2.291
26200W        W94574  33.037  27.677  12.855
26201W        W94575  26.971  10.186  14.433
26202W        W94576  20.664  16.267   1.277
26203W        W94577  24.224  42.489   1.437
26204W        W94578  20.072  33.529  11.061
26205W        W94579  34.941  16.239  12.353
26206W        W94580  13.306  20.662  12.364
26207W        W94581  14.798  41.421  11.891
26208W        W94582   2.372   5.872  10.134
26209W        W94583   5.778  11.865  13.429
26210W        W94584  22.134  18.247   2.768
26211W        W94585  33.009   0.293  12.947
26212W        W94586  39.406  44.883  13.441
26213W        W94587  31.999  27.980  10.985
26214W        W94588  39.993  37.976   0.775
26215W        W94589   9.684  43.823  11.931
26216W        W94590  37.544  23.504   3.322
26217W        W94591  44.941  20.172   4.293
26218W        W94592  14.236  36.876  10.935
26219W        W94593  22.218   3.884  11.024
26220W        W94594   5.244  17.710   2.870
26221W        W94595  13.724  21.543  10.929
26222W        W94596  37.577  10.873   2.705
26223W        W94597  32.482  31.581   0.443
26224W        W94598   1.370  37.941   0.343
26225W        W94599  15.751  21.031   2.357
26226W        W94600  12.130  31.943   2.850
26227W        W94601  36.396  30.540   1.351
26228W        W94602  18.765  32.547   1.400
26229W        W94603   2.906   4.445   2.765
26230W        W94604  27.096   0.773  13.907
26231W        W94605  20.544  32.633   1.409
26232W        W94606  20.586  16.268   4.269
26233W        W94607  19.688   4.359   3.730
26234W        W94608  28.521  42.957  14.772
26235W        W94609  39.946  15.114  14.404
26236W        W94610  44.440  12.150   3.236
26237W        W94611  30.052   8.772   2.345
26238W        W94612   7.751  36.498  13.410
26239W        W94613  19.111  12.238   4.308
26240W        W94614  41.435  14.611   3.761
26241W        W94615  24.097  38.870   5.194
26242W        W94616   0.784   4.898  10.906
26243W        W94617  43.456  11.761  12.508
26244W        W94618  35.098  19.597   0.903
26245W        W94619  42.527   8.773   4.651
26246W        W94620  10.699   4.277  13.943
26247W        W94621  17.197  25.963   1.284
26248W        W94622  11.246  13.694   2.892
26249W        W94623  26.513  17.182  14.796
26250W        W94624  42.793  24.536  14.980
26251W        W94625  41.419  31.463   4.344
26252W        W94626   7.267   6.726  13.380
26253W        W94627   8.848  41.353   1.732
26254W        W94628  22.743   2.908   1.212
26255W        W94629  12.795  16.683   0.348
26256W        W94630   2.401  41.390   3.752
26257W        W94631   3.902   2.896  10.449
26258W        W94632   2.900  32.464  11.600
26259W        W94633  22.732  30.642   0.435
26260W        W94634  16.216   6.274   3.677
26261W        W94635  34.067   2.787  13.977
26262W        W94636  22.176  30.533  12.405
26263W        W94637  25.527  31.989  10.490
26264W        W94638   6.370  31.646   3.815
26265W        W94639  38.548  11.774  11.436
26266W        W94640  24.116   2.841   3.205
26267W        W94641  12.272  26.549  10.149
26268W        W94642  16.282  16.228  14.764
26269W        W94643   9.726  32.964   1.803
26270W        W94644   9.776  29.976  14.811
26271W        W94645  41.871  11.856  13.519
26272W        W94646  44.814  43.464   1.740
26273W        W94647  44.768  42.420   1.414
26274W        W94648   6.214  38.376  14.948
26275W        W94649  27.023  37.847   4.128
26276W        W94650  22.651   5.412  12.878
26277W        W94651  28.032  31.508  14.443
26278W        W94652   3.757  25.512   0.837
26279W        W94653  21.078  37.936   3.799
26280W        W94654  33.880   5.336   4.200
26281W        W94655  12.130  13.719   1.899
26282W        W94656  20.077  40.819  13.044
26283W        W94657  17.577   9.360  14.912
26284W        W94658  43.298  35.379  12.437
26285W        W94659  17.098  22.685  10.075
26286W        W94660   4.908  12.355   3.175
26287W        W94661   0.271  12.804  12.025
26288W        W94662  24.074  22.532   4.146
26289W        W94663  41.958   0.958  12.053
26290W        W94664   8.173  29.102   0.802
26291W        W94665  15.654  15.305  12.083
26292W        W94666  32.466  35.454  10.556
26293W        W94667  23.054  22.156  12.892
26294W        W94668  43.359  23.706   0.936
26295W        W94669  42.799  16.761   2.242
26296W        W94670  33.907  34.929  10.460
26297W        W94671  22.512  39.050   4.243
26298W        W94672  22.086   0.891   3.181
26299W        W94673  27.678  30.634   4.785
26300W        W94674  31.111  42.307   2.884
26301W        W94675   1.303   4.896  14.348
26302W        W94676  24.619  29.993  13.960
26303W        W94677   7.692  33.043   0.844
26304W        W94678   9.774  23.664  11.867
26305W        W94679  31.596  22.585  14.496
26306W        W94680  23.195   5.351   1.374
26307W        W94681  14.680  18.592   1.861
26308W        W94682  42.351  32.117  10.989
26309W        W94683  28.013  13.638   4.278
26310W        W94684  21.687  39.064  12.383
26311W        W94685  23.107   5.405  12.357
26312W        W94686  33.482   9.822   0.250
26313W        W94687  27.461  32.440   2.730
26314W        W94688   0.368  25.654   1.261
26315W        W94689  11.370   7.218   2.187
26316W        W94690  31.574  44.873  12.437
26317W        W94691  30.477   3.874  13.865
26318W        W94692  19.217  33.108   4.674
26319W        W94693  41.923   3.735  13.390
26320W        W94694  25.645  10.345   0.841
26321W        W94695  25.534  14.750   1.880
26322W        W94696  12.750  19.606  12.864
26323W        W94697  14.611  15.246  14.336
26324W        W94698   4.277  11.163  13.397
26325W        W94699  18.585  10.866  10.440
26326W        W94700  32.923   0.872  11.105
26327W        W94701  22.653  29.048   4.694
26328W        W94702  44.809  26.102  14.294
26329W        W94703  41.537  42.391   3.234
26330W        W94704   0.263  44.863  13.491
26331W        W94705   4.864  40.459  14.918
26332W        W94706  36.350  19.767   2.351
26333W        W94707   7.861  31.932   2.358
26334W        W94708  39.837  42.784   3.644
26335W        W94709  15.317   0.335  10.539
26336W        W94710  33.014  24.216   1.695
26337W        W94711  13.287  24.186   0.727
26338W        W94712  32.985  38.063  10.562
26339W        W94713  24.576  38.874  10.575
26340W        W94714  12.198  34.022   4.238
26341W        W94715  35.576   9.390  10.941
26342W        W94716   5.202  30.503   4.330
26343W        W94717   8.703  33.108   1.262
26344W        W94718  44.489  23.071  14.802
26345W        W94719   1.326  14.260   4.618
26346W        W94720   0.925   9.761  12.978
26347W        W94721  20.738   7.255  11.005
26348W        W94722  22.621  33.118  13.900
26349W        W94723  40.828  43.421  14.906
26350W        W94724  27.531  15.116   2.413
26351W        W94725  29.039  43.834  12.362
26352W        W94726  42.494  11.291   3.377
26353W        W94727  34.498  33.969   1.427
26354W        W94728  26.590   9.326   2.824
26355W        W94729  15.185  25.137  10.555
26356W        W94730   8.767   3.354   1.368
26357W        W94731  14.144  37.378   0.299
26358W        W94732  10.836   3.919  13.814
26359W        W94733  35.085   0.327   4.729
26360W        W94734  33.906  44.406   3.266
26361W        W94735   7.369  40.002  12.551
26362W        W94736  44.261  30.504  14.914
26363W        W94737  35.897  28.470  14.499
26364W        W94738   5.871   3.435   3.681
26365W        W94739  22.528  13.632  11.918
26366W        W94740   2.741  43.382   2.759
26367W        W94741   6.354   1.375  10.964
26368W        W94742  28.166  31.600  12.079
26369W        W94743  15.635  31.590   4.789
26370W        W94744  24.601  29.564  14.356
26371W        W94745  31.899   6.325   1.244
26372W        W94746  41.458  10.204   0.829
26373W        W94747  38.005  24.617  11.122
26374W        W94748  14.684  39.056   1.249
26375W        W94749  20.619   5.422   3.201
26376W        W94750  29.467   0.931   4.180
26377W        W94751  26.090  44.374   5.160
26378W        W94752  39.357  37.491  11.574
26379W        W94753  12.787   4.351   2.798
26380W        W94754   2.404   9.845  10.953
26381W        W94755  23.512   2.825   2.251
26382W        W94756  33.015  15.280  13.343
26383W        W94757  34.014   2.261  13.896
26384W        W94758   2.295   4.794  11.100
26385W        W94759   4.850   0.820  13.844
26386W        W94760   0.838   7.892  14.994
26387W        W94761  10.845  27.627   2.405
26388W        W94762  28.933   6.794   3.209
26389W        W94763  18.064   5.924   2.783
26390W        W94764  22.244  42.003  11.473
26391W        W94765  40.361  42.025   3.681
26392W        W94766  21.581  35.568  12.894
26393W        W94767  41.843  17.764   1.775
26394W        W94768  18.109   0.478   2.304
26395W        W94769  38.570  20.247  12.480
26396W        W94770  10.814  21.513  13.389
26397W        W94771  39.058  13.154   2.781
26398W        W94772  31.490  29.931   4.617
26399W        W94773  35.006   7.232  14.901
26400W        W94774   5.846  14.714   2.378
26401W        W94775  35.993   7.742   1.255
26402W        W94776  21.119  42.411   4.769
26403W        W94777  12.855  10.253   1.394
26404W        W94778   1.307  38.384  12.015
26405W        W94779  31.648  11.743   3.307
26406W        W94780  19.097  10.374  10.605
26407W        W94781   6.915  12.146   2.887
26408W        W94782   5.794  29.946   5.579
26409W        W94783  20.063  40.999   3.797
26410W        W94784   0.455  36.534   1.744
26411W        W94785  23.637  23.241   0.899
26412W        W94786  10.171  40.348   4.614
26413W        W94787  44.852   4.747   2.683
26414W        W94788   4.815  39.478  11.954
26415W        W94789  35.590  25.547  12.829
26416W        W94790  36.853  17.658  10.898
26417W        W94791  29.634  16.712  11.045
26418W        W94792  42.280  39.938  10.900
26419W        W94793  28.568  35.502   2.690
26420W        W94794  32.897  39.817   2.368
26421W        W94795  17.659  25.034   0.790
26422W        W94796   8.298  14.626  13.986
26423W        W94797  20.267  44.264  14.760
26424W        W94798  30.490  31.060  13.328
26425W        W94799  16.236  33.401   3.226
26426W        W94800   3.232  33.596   4.819
26427W        W94801  23.712  11.828   1.786
26428W        W94802   4.371  33.915   3.382
26429W        W94803   0.927  42.817  11.496
26430W        W94804   7.674  21.514  14.455
26431W        W94805  36.505  21.131  12.828
26432W        W94806  19.285  17.244   3.186
26433W        W94807  40.524  25.054   1.215
26434W        W94808  23.722  13.686  13.525
26435W        W94809  31.051  24.138  14.020
26436W        W94810  39.065  17.754  14.987
26437W        W94811  15.172   1.429   1.316
26438W        W94812  41.346  10.744   2.678
26439W        W94813   2.959   9.270   2.845
26440W        W94814  28.017  34.596   2.221
26441W        W94815  16.764  25.050  11.541
26442W        W94816   5.325   2.452   0.866
26443W        W94817  13.316  14.326   3.756
26444W        W94818  13.761   8.790   5.780
26445W        W94819  35.451  11.234   4.256
26446W        W94820  13.646  19.159  10.990
26447W        W94821  27.513  19.090  11.076
26448W        W94822  19.110  24.169   0.770
26449W        W94823  27.531   1.459  14.298
26450W        W94824  13.294  27.519  14.785
26451W        W94825  11.243  37.580   3.695
26452W        W94826  24.601  41.473  14.926
26453W        W94827  17.682  42.948   1.317
26454W        W94828   6.407   1.385   2.796
26455W        W94829  43.983  37.916  11.441
26456W        W94830  15.101  14.124   2.233
26457W        W94831  22.123   7.748   3.344
26458W        W94832  25.047  42.455  12.914
26459W        W94833  16.780  26.090   0.246
26460W        W94834  28.478  22.245   0.748
26461W        W94835   0.880  30.468   2.198
26462W        W94836  43.485  34.489  14.930
26463W        W94837  12.358  31.514  10.968
26464W        W94838  38.910  12.804   4.694
26465W        W94839  18.293  29.550  14.981
26466W        W94840  23.088  29.493  14.806
26467W        W94841  27.193  29.499  12.920
26468W        W94842  17.734  38.481  12.426
26469W        W94843  42.397   7.217   4.774
26470W        W94844   7.406  44.900   4.769
26471W        W94845  10.200  41.793   1.817
26472W        W94846   2.327  23.564  10.027
26473W        W94847   2.723  30.572  11.119
26474W        W94848  17.162  34.071   1.741
26475W        W94849  23.194   3.406  11.067
26476W        W94850  10.716  23.599   0.866
26477W        W94851  17.278  34.108   3.382
26478W        W94852  12.753   0.955   3.868
26479W        W94853  17.162  35.956  11.930
26480W        W94854  32.022  40.477   0.305
26481W        W94855  10.674  41.529   2.685
26482W        W94856  15.180  43.780   4.152
26483W        W94857   1.427  16.700  12.976
26484W        W94858  26.614   9.791   1.367
26485W        W94859  31.475   1.461   1.829
26486W        W94860  17.192  25.531   0.317
26487W        W94861   3.939  11.788  10.915
26488W        W94862  39.400  22.139  11.876
26489W        W94863  22.169  22.711   3.837
26490W        W94864  22.034  44.500   1.274
26491W        W94865  20.749  38.434  13.972
26492W        W94866  32.050  15.640   3.214
26493W        W94867  20.642  19.567  12.567
26494W        W94868  43.766  40.053  13.484
26495W        W94869  21.166  23.601   0.787
26496W        W94870  14.133   3.261  10.619
26497W        W94871  28.957  41.039  12.452
26498W        W94872  22.672   9.878  14.959
26499W        W94873  16.256  10.660  14.447
26500W        W94874  28.485  15.723   1.383
26501W        W94875  39.948  15.615  13.390
26502W        W94876  35.093  33.486   3.355
26503W        W94877  28.070  34.114   2.835
26504W        W94878   3.330  22.733  12.918
26505W        W94879  26.020  10.313   0.282
26506W        W94880   1.816  14.277  13.952
26507W        W94881  35.454   2.875  14.448
26508W        W94882  20.607  19.708  11.486
26509W        W94883  19.557  17.651   0.821
26510W        W94884   5.428  40.416   2.850
26511W        W94885  17.298   3.950   3.672
26512W        W94886  19.715   3.447  13.478
26513W        W94887  38.011   7.813   0.284
26514W        W94888   1.346  20.678  12.568
26515W        W94889  35.434   8.705  14.356
26516W        W94890   7.244  23.687   5.149
26517W        W94891  37.023  38.863  13.416
26518W        W94892   1.838  34.533  13.894
26519W        W94893  33.459  22.141   4.253
26520W        W94894  23.026  34.966  11.540
26521W        W94895  33.069   8.809   0.963
26522W        W94896  16.650  40.846  14.397
26523W        W94897  35.427  40.460  10.483
26524W        W94898  10.337  28.647   2.664
26525W        W94899  18.657   9.646   2.410
26526W        W94900  27.029  28.648   3.284
26527W        W94901  38.054  42.424  12.540
26528W        W94902  22.135  34.501  12.380
26529W        W94903  17.202  16.162  13.516
26530W        W94904  16.078  32.905   3.309
26531W        W94905  44.903  39.022  14.361
26532W        W94906   5.203  35.862  10.915
26533W        W94907  11.633   8.833  13.962
26534W        W94908  22.615   9.241  11.460
26535W        W94909   6.805   6.871   4.127
26536W        W94910  28.598   6.728   0.780
26537W        W94911  12.299  20.662   1.842
26538W        W94912  18.260   0.402   1.935
26539W        W94913  20.658   7.755  11.940
26540W        W94914  43.286   7.869  14.999
26541W        W94915   1.789  27.452   2.777
26542W        W94916  16.179  42.985   4.620
26543W        W94917  11.868  41.019  12.869
26544W        W94918  11.326  21.165  13.993
26545W        W94919  15.762  18.633  13.893
26546W        W94920  12.764   5.718  10.901
26547W        W94921  36.398  37.433  14.854
26548W        W94922  11.255  36.954   1.346
26549W        W94923  15.809  42.370   1.392
26550W        W94924  43.427   7.201  13.990
26551W        W94925  27.516  26.678  13.828
26552W        W94926  25.526  31.090  11.013
26553W        W94927   4.879  34.388   4.820
26554W        W94928  14.260  34.502  12.952
26555W        W94929   1.872  20.209   0.337
26556W        W94930  35.578  35.373  10.939
26557W        W94931   8.258  12.286  11.456
26558W        W94932  40.940  36.399   1.880
26559W        W94933  29.575   6.837  12.078
26560W        W94934  44.783  27.113  12.442
26561W        W94935  16.140  12.315  12.092
26562W        W94936  12.612  41.812   2.354
26563W        W94937  14.159  32.450  11.999
26564W        W94938  33.104  33.934  11.926
26565W        W94939   8.777  34.539  10.013
26566W        W94940   6.767  26.145  12.087
26567W        W94941   6.888  17.064   1.789
26568W        W94942  34.561   7.307   3.655
26569W        W94943  32.472  36.527   1.853
26570W        W94944  27.508  42.311  11.967
26571W        W94945  21.725  21.709   4.202
26572W        W94946  24.034  28.487   1.758
26573W        W94947  22.566  20.225  12.413
26574W        W94948  32.068  32.510  11.879
26575W        W94949  40.853  13.317   4.630
26576W        W94950  31.470  15.219  10.924
26577W        W94951  34.009  11.790   1.811
26578W        W94952   6.372  26.601  13.921
26579W        W94953  13.325  24.545  14.796
26580W        W94954  14.667   0.754  13.942
26581W        W94955   5.910   4.358   1.352
26582W        W94956  40.913  40.411   4.671
26583W        W94957  25.523  40.876  13.852
26584W        W94958  11.181  34.090   1.914
26585W        W94959  37.032  22.620   0.370
26586W        W94960  27.530  36.409  11.536
26587W        W94961  28.488  31.437  13.795
26588W        W94962  11.202  11.669   1.309
26589W        W94963   2.289  23.569  13.031
26590W        W94964  43.855  34.606  13.521
26591W        W94965  14.630  11.373  13.451
26592W        W94966  29.489  33.450  14.425
26593W        W94967   5.890  30.098   9.437
26594W        W94968  29.087   7.909  11.014
26595W        W94969  42.366  16.119  10.986
26596W        W94970  26.591   7.862   5.169
26597W        W94971  17.192  36.054  10.994
26598W        W94972  11.765   7.707   3.343
26599W        W94973   5.926   6.391  13.530
26600W        W94974  41.443  38.518   1.372
26601W        W94975  37.852  12.758   4.736
26602W        W94976   7.675  19.063  12.025
26603W        W94977  39.900  43.985   4.289
26604W        W94978  14.830  20.269   2.779
26605W        W94979  15.303  25.106   3.807
26606W        W94980  44.470  18.189  12.391
26607W        W94981   4.407  36.007  11.476
26608W        W94982  29.957  32.466   2.769
26609W        W94983  15.100  40.956  12.832
26610W        W94984  44.492   7.405   0.447
26611W        W94985  44.951  36.972  14.483
26612W        W94986  10.229  11.223  14.420
26613W        W94987  16.229  38.048  11.945
26614W        W94988  41.432  35.954   0.380
26615W        W94989   6.239  34.531   1.385
26616W        W94990  28.605  40.994   4.822
26617W        W94991  21.670  26.699   3.824
26618W        W94992  39.836  42.287  11.512
26619W        W94993  18.622  19.594  12.847
26620W        W94994  17.710   7.194  14.864
26621W        W94995  11.209  38.341   1.268
26622W        W94996  10.273  25.508  13.917
26623W        W94997  31.031  29.427  10.600
26624W        W94998  36.349  30.650   4.603
26625W        W94999  28.012  40.026   0.783
26626W        W95000  17.555  10.310  14.921
26627W        W95001  18.548  18.553   2.790
26628W        W95002  13.321  15.607  11.528
26629W        W95003  43.457   5.438  13.369
26630W        W95004  11.806   6.865  12.068
26631W        W95005  15.275  20.556   0.415
26632W        W95006  38.973  30.554   2.375
26633W        W95007  10.709  36.378   2.683
26634W        W95008  21.523  25.582  12.877
26635W        W95009  33.607  30.115  14.966
26636W        W95010   2.401   0.316   3.649
26637W        W95011  36.043  14.166  10.965
26638W        W95012   7.760  11.836   1.254
26639W        W95013  19.105  23.583  13.335
26640W        W95014  26.557   5.924  10.930
26641W        W95015  28.557  18.065  12.368
26642W        W95016  30.016  19.077   1.384
26643W        W95017  24.179  29.578  13.907
26644W        W95018  30.434  15.142  12.913
26645W        W95019  30.995  13.140   4.675
26646W        W95020  38.960  30.079   0.827
26647W        W95021   9.218   9.309  14.777
26648W        W95022  43.795   8.323  10.439
26649W        W95023   9.680   2.820  11.576
26650W        W95024  32.548  31.146  11.573
26651W        W95025  24.691   0.913   1.315
26652W        W95026  23.096  19.128   3.772
26653W        W95027  35.058   8.811  14.380
26654W        W95028   4.433  36.471  14.867
26655W        W95029  20.677  31.014   1.373
26656W        W95030  37.392  36.431   2.193
26657W        W95031   2.794  11.366   4.344
26658W        W95032  31.452  44.391  13.943
26659W        W95033  29.631  30.996  10.524
26660W        W95034  11.841  27.160  13.005
26661W        W95035   9.695  44.503   2.693
26662W        W95036  28.129   0.341   1.416
26663W        W95037  37.527  17.262   0.784
26664W        W95038   7.809   2.355   1.360
26665W        W95039   1.826  27.984   1.281
26666W        W95040  44.305  14.274   3.215
26667W        W95041  36.402  32.044   2.800
26668W        W95042  29.929   8.675  12.410
26669W        W95043  15.165  42.392  13.460
26670W        W95044   1.791  42.008  11.947
26671W        W95045  33.430   7.751  11.441
26672W        W95046   0.420   4.382   2.347
26673W        W95047  38.827  44.886   3.213
26674W        W95048  44.458  18.278  10.902
26675W        W95049  23.230   9.721   3.711
26676W        W95050  22.687  14.620   3.679
26677W        W95051  21.053  28.673  11.585
26678W        W95052  38.985  38.045  14.890
26679W        W95053  43.348  33.962   2.720
26680W        W95054   3.899  24.028   4.210
26681W        W95055  12.304  38.348  12.903
26682W        W95056  44.764  34.985  13.813
26683W        W95057  27.130  25.711  12.867
26684W        W95058  26.061  41.926   3.180
26685W        W95059  27.500  25.165   4.600
26686W        W95060  29.573   6.320   0.914
26687W        W95061   1.776  26.688  11.931
26688W        W95062  22.545  34.895   1.925
26689W        W95063  29.585  22.109  11.864
26690W        W95064  24.113   7.286  11.578
26691W        W95065   1.786   5.688  11.460
26692W        W95066  39.458  30.948  12.013
26693W        W95067  18.135  13.291   3.318
26694W        W95068  38.972  44.439   4.240
26695W        W95069  28.043  30.925  11.553
26696W        W95070  12.241   7.739  10.482
26697W        W95071  15.169  20.193  14.944
26698W        W95072   6.889   0.857   3.336
26699W        W95073  33.429  36.914  13.436
26700W        W95074   9.296   1.401   4.353
26701W        W95075  18.124  21.150   4.674
26702W        W95076  44.293  39.539   2.311
26703W        W95077  41.795  35.409  10.583
26704W        W95078  44.421  17.235  10.080
26705W        W95079  29.970  29.598   2.181
26706W        W95080  30.156  26.132  12.395
26707W        W95081  37.892  37.580  11.991
26708W        W95082  44.827  41.951   3.704
26709W        W95083   0.478  15.126  14.444
26710W        W95084  26.170  43.810  10.973
26711W        W95085  32.500  22.742   2.767
26712W        W95086   5.925  29.082   5.648
26713W        W95087  22.522   6.873  11.385
26714W        W95088  16.123  38.543  11.908
26715W        W95089  17.206  12.809   0.735
26716W        W95090  28.106  13.286   0.320
26717W        W95091  12.743  19.152  10.418
26718W        W95092  32.544  33.110  12.853
26719W        W95093  22.720  18.235  12.913
26720W        W95094  43.351   2.726  14.919
26721W        W95095   6.186   7.801  10.459
26722W        W95096  26.579  42.954  14.459
26723W        W95097  42.955  26.163  14.864
26724W        W95098  22.047   7.351  11.978
26725W        W95099   9.858  32.112   4.758
26726W        W95100  39.543  18.602   1.724
26727W        W95101  13.254  35.021   4.239
26728W        W95102  32.963  30.017   3.233
26729W        W95103  30.006   9.335  13.408
26730W        W95104   3.771  25.103   4.282
26731W        W95105  41.373  10.145   0.348
26732W        W95106  24.665  26.567   2.699
26733W        W95107  22.119  11.632  13.918
26734W        W95108  37.462  22.177  14.813
26735W        W95109  13.340  12.751  14.298
26736W        W95110   8.860  31.107  10.087
26737W        W95111  10.215  38.330  14.784
26738W        W95112  21.126   2.813  13.419
26739W        W95113   8.308  16.090  11.953
26740W        W95114  33.995  33.583  14.799
26741W        W95115   2.294  38.351   0.963
26742W        W95116   4.887   6.842  14.493
26743W        W95117   4.259  14.693   1.393
26744W        W95118  12.175  11.290  13.999
26745W        W95119  25.501  29.580   1.407
26746W        W95120  12.852  31.648  11.544
26747W        W95121  38.003  18.588  14.478
26748W        W95122  14.120  19.088   3.295
26749W        W95123  37.962  13.630   0.478
26750W        W95124   4.781  29.153   4.290
26751W        W95125  19.618  26.542   0.274
26752W        W95126  35.928  24.099  11.398
26753W        W95127  36.462  24.547  12.842
26754W        W95128  31.128  13.730  12.434
26755W        W95129   6.386  37.347  12.910
26756W        W95130  42.865  32.393   4.327
26757W        W95131   1.735   3.394  13.413
26758W        W95132  15.680  21.572   4.150
26759W        W95133   5.432  23.036  12.917
26760W        W95134   4.398  13.732  12.510
26761W        W95135   6.812  14.747   4.621
26762W        W95136  20.236  33.566   0.444
26763W        W95137  33.575   8.752  13.372
26764W        W95138  13.149  31.036  14.359
26765W        W95139  43.940  41.819  11.035
26766W        W95140   3.348   0.468  14.936
26767W        W95141  16.773  20.091  13.794
26768W        W95142  27.461   2.751  14.827
26769W        W95143   8.891   7.796   1.725
26770W        W95144  33.436  11.233  12.353
26771W        W95145  21.062  23.683   1.269
26772W        W95146  21.573  27.097  11.530
26773W        W95147  14.252  21.145  13.875
26774W        W95148  14.742  32.443  10.537
26775W        W95149  23.548  25.495   4.165
26776W        W95150  43.930  24.549   0.766
26777W        W95151  34.113  19.630  12.401
26778W        W95152  18.112  41.791  14.391
26779W        W95153  30.595  21.717  13.490
26780W        W95154  20.228  18.185   3.155
26781W        W95155  23.590  38.416  11.535
26782W        W95156  36.377   1.369   4.810
26783W        W95157  25.010   4.927  11.084
26784W        W95158   8.318  14.275   1.376
26785W        W95159  20.610  16.107   0.300
26786W        W95160  26.016   3.895   0.463
26787W        W95161  27.167  24.514   0.394
26788W        W95162  16.192   0.843  12.915
26789W        W95163  10.346  39.496  13.958
26790W        W95164  41.852   0.250   9.949
26791W        W95165  33.083  42.835  13.413
26792W        W95166  10.349  38.330  13.393
26793W        W95167   2.872  38.486   0.847
26794W        W95168  11.786  27.494  12.862
26795W        W95169  21.146   8.799  14.442
26796W        W95170  22.747  18.631  13.968
26797W        W95171   0.404  15.702  12.012
26798W        W95172  22.121  33.395  11.062
26799W        W95173  33.527  34.931  12.899
26800W        W95174  20.073  26.112  14.786
26801W        W95175  18.087  43.826   3.762
26802W        W95176  11.225   2.338   4.602
26803W        W95177  18.258   8.860  13.495
26804W        W95178  27.448  15.651   0.452
26805W        W95179  36.024  37.891  14.878
26806W        W95180  22.023   6.835   2.840
26807W        W95181   5.742  10.696   1.326
26808W        W95182   2.944  25.157  14.861
26809W        W95183  28.681  18.588   3.864
26810W        W95184  40.023  10.376   1.728
26811W        W95185   7.668   9.317   1.405
26812W        W95186  44.008   7.703  10.610
26813W        W95187   2.453  24.675  11.031
26814W        W95188  43.383  23.552  13.392
26815W        W95189  38.962   5.883   9.990
26816W        W95190  12.335  20.266  10.591
26817W        W95191  41.854  21.220   3.802
26818W        W95192  23.034   9.863   1.248
26819W        W95193  21.612  35.026   1.879
26820W        W95194  37.050  11.359   1.235
26821W        W95195  42.986  20.595  14.942
26822W        W95196  32.394   5.382   4.290
26823W        W95197  42.490  32.433  12.899
26824W        W95198  14.187  21.544  12.826
26825W        W95199  17.596  13.827  14.892
26826W        W95200  37.362  37.568   2.849
26827W        W95201  22.150  24.622   3.257
26828W        W95202  41.807   3.900  13.869
26829W        W95203   1.304  28.140  14.805
26830W        W95204  25.140  12.240  11.083
26831W        W95205  19.099  40.364   3.863
26832W        W95206  14.743  14.718   1.840
26833W        W95207  39.879  19.152   3.217
26834W        W95208  37.911  24.073   2.242
26835W        W95209  25.194  16.147   0.870
26836W        W95210  37.385  43.803   9.997
26837W        W95211  19.757   7.304   1.702
26838W        W95212   9.171  40.977  14.791
26839W        W95213  38.015  22.615   9.941
26840W        W95214  37.841  36.354  12.861
26841W        W95215  19.091  29.559   0.763
26842W        W95216   9.771  38.050   2.817
26843W        W95217  17.767   2.845  11.606
26844W        W95218  43.985  24.701  12.941
26845W        W95219   4.709   4.367  14.330
26846W        W95220   9.202  39.446  10.410
26847W        W95221  36.480  38.982   0.285
26848W        W95222  19.565  32.068   2.220
26849W        W95223  41.424   2.435   3.188
26850W        W95224  24.080  25.220  10.505
26851W        W95225  25.133  12.361   3.836
26852W        W95226  44.384  39.934  12.831
26853W        W95227  24.973  10.689  12.051
26854W        W95228  13.802  30.015  12.444
26855W        W95229   4.872  17.296  14.785
26856W        W95230   4.738  39.833  13.492
26857W        W95231  17.239  11.243   4.243
26858W        W95232  34.575  42.919  14.029
26859W        W95233  24.004  19.575   3.370
26860W        W95234  10.878   6.721  10.964
26861W        W95235   6.787  19.039   0.796
26862W        W95236  12.853   4.329  11.015
26863W        W95237   6.362  39.399   4.659
26864W        W95238  32.428  21.230  11.464
26865W        W95239  13.828  36.574  14.794
26866W        W95240  44.867  39.389   1.803
26867W        W95241  31.093  37.039  14.371
26868W        W95242  44.829   1.971   3.746
26869W        W95243  30.944  15.601  12.914
26870W        W95244  31.921  12.728  10.420
26871W        W95245   8.761   1.274   0.332
26872W        W95246  34.033  19.078  11.490
26873W        W95247  41.303  14.756   2.791
26874W        W95248  13.307  18.067  11.901
26875W        W95249   4.774  29.531   2.295
26876W        W95250  12.236  25.515   0.262
26877W        W95251  14.306  20.663   3.813
26878W        W95252  15.675  26.971   2.776
26879W        W95253  41.990  16.140  11.941
26880W        W95254  21.726  17.193  10.598
26881W        W95255  40.407  23.184  10.543
26882W        W95256  16.277  38.549  12.982
26883W        W95257   5.694  14.329  14.032
26884W        W95258  26.033  23.214  13.402
26885W        W95259   5.845  31.897   2.741
26886W        W95260  34.872  15.619  11.493
26887W        W95261   3.855  39.040  12.356
26888W        W95262  28.506  38.965  10.518
26889W        W95263  31.059  18.261   4.294
26890W        W95264  41.363   6.268  14.476
26891W        W95265   3.363  18.078  12.925
26892W        W95266  33.048  33.026  10.492
26893W        W95267  42.912  40.814  12.938
26894W        W95268  27.178  21.156  14.871
26895W        W95269  18.085  15.138  11.601
26896W        W95270   9.689  27.114  11.562
26897W        W95271  11.292  23.124  11.580
26898W        W95272  20.746  18.231  12.363
26899W        W95273  41.923  13.159  11.484
26900W        W95274  44.378  27.555   4.752
26901W        W95275  32.560  36.917   3.319
26902W        W95276  38.969  42.993  10.065
26903W        W95277   2.740  19.108   3.645
26904W        W95278  23.638  19.240   1.239
26905W        W95279  43.516  17.252   2.888
26906W        W95280  36.483   5.722  13.493
26907W        W95281   5.349  10.250   4.144
26908W        W95282   6.376  40.443  11.492
26909W        W95283  38.339   7.755  12.527
26910W        W95284  17.741  13.204   2.375
26911W        W95285  38.363  26.966   2.771
26912W        W95286   1.773  15.086  11.523
26913W        W95287  21.564   6.226   1.751
26914W        W95288  13.249  21.215   5.145
26915W        W95289  22.142  36.495  11.602
26916W        W95290  39.809  40.384  12.900
26917W        W95291  22.248   9.698  12.461
26918W        W95292  30.522  35.913   4.779
26919W        W95293  12.633  13.324  10.490
26920W        W95294  27.028  31.993  12.094
26921W        W95295  17.770  41.814   1.302
26922W        W95296  38.865   1.400  10.098
26923W        W95297  38.861  16.569   0.884
26924W        W95298  42.838   2.878   1.787
26925W        W95299  38.450  19.251  11.012
26926W        W95300  15.677  15.083  13.391
26927W        W95301  42.968  30.639  10.956
26928W        W95302  15.190  17.213   4.114
26929W        W95303  39.334  31.946  11.037
26930W        W95304  26.106   8.700  13.336
26931W        W95305  29.619  19.055  12.027
26932W        W95306   8.744  15.792   1.818
26933W        W95307  32.420  25.123  14.468
26934W        W95308   3.893  41.031  14.302
26935W        W95309  21.631  20.128  11.477
26936W        W95310  37.479  20.757   4.705
26937W        W95311   9.385  32.959   1.766
26938W        W95312  38.980  27.477   1.744
26939W        W95313  38.033  42.017   1.831
26940W        W95314  22.117  12.794   2.357
26941W        W95315  22.996   0.351  11.932
26942W        W95316  35.994  13.172   2.302
26943W        W95317  13.335   0.365  13.917
26944W        W95318  26.000  10.298   2.236
26945W        W95319  11.316  24.045  10.923
26946W        W95320   1.887  11.681   1.888
26947W        W95321  32.414  19.683   4.190
26948W        W95322  28.518  21.252  11.558
26949W        W95323   2.232  32.113   1.226
26950W        W95324  19.763  37.078   1.382
26951W        W95325  17.695  14.315   2.765
26952W        W95326  31.136   3.814   2.760
26953W        W95327  27.114   2.924   1.318
26954W        W95328  14.277  25.150  11.947
26955W        W95329   9.273  19.246   0.946
26956W        W95330   6.228  22.624  13.995
26957W        W95331  43.365   1.868  14.013
26958W        W95332  29.643  38.066   1.314
26959W        W95333  37.987  38.412   0.910
26960W        W95334  23.673  17.195  12.347
26961W        W95335  29.926   0.906  12.985
26962W        W95336  40.018  37.404   4.340
26963W        W95337   7.330   1.807  10.038
26964W        W95338  13.350   6.897  11.920
26965W        W95339  11.180   8.698   2.682
26966W        W95340  42.943  30.112   0.928
26967W        W95341  10.210  17.187   3.741
26968W        W95342  24.555  22.605   2.801
26969W        W95343  10.250  21.748  11.428
26970W        W95344  33.908  33.596  11.033
26971W        W95345  25.091  18.625   2.248
26972W        W95346  36.053  39.363   4.131
26973W        W95347  16.200  11.820  10.462
26974W        W95348  14.644  25.685   4.297
26975W        W95349  43.992   7.265  10.530
26976W        W95350  30.935  42.352   3.155
26977W        W95351  43.471  26.633  10.157
26978W        W95352  14.752  32.564   4.613
26979W        W95353  32.086  34.406   9.941
26980W        W95354  26.037  15.767  12.455
26981W        W95355  40.010  15.324   0.885
26982W        W95356  24.543  21.106   4.166
26983W        W95357   8.386   3.946  10.526
26984W        W95358  37.518  19.698  11.910
26985W        W95359   8.738  43.303   0.403
26986W        W95360  26.175  23.022   4.784
26987W        W95361  30.912  44.437   3.250
26988W        W95362  14.213  41.803   1.885
26989W        W95363  32.128   2.258   5.198
26990W        W95364  42.991   4.718  14.471
26991W        W95365  26.498  11.739  13.796
26992W        W95366  19.278  22.734   1.321
26993W        W95367  28.046  10.839  14.470
26994W        W95368  31.447  26.521   2.869
26995W        W95369  16.778   4.889   2.785
26996W        W95370  43.817  38.902   4.352
26997W        W95371  13.286  29.629   0.932
26998W        W95372  16.792  24.039   4.644
26999W        W95373  16.266  44.347   0.839
27000W        W95374   8.194  34.444   4.696
27001W        W95375  37.077  19.770   0.820
27002W        W95376  27.045   5.897  11.461
27003W        W95377  34.029  21.249   3.320
27004W        W95378  23.627  30.488   2.265
27005W        W95379  40.430  15.290  10.957
27006W        W95380  21.560  32.612  14.473
27007W        W95381   0.437  15.215   2.298
27008W        W95382  34.418  35.058   2.717
27009W        W95383  21.248  25.562  10.478
27010W        W95384  26.202  18.747   0.370
27011W        W95385   4.812  27.055   2.825
27012W        W95386  27.560  43.888   2.370
27013W        W95387  14.214  26.969   3.276
27014W        W95388   8.875  26.188   4.650
27015W        W95389  43.274  26.494  12.481
27016W        W95390   6.296  13.212   1.286
27017W        W95391   5.279  37.851   4.140
27018W        W95392  36.077  17.663  10.450
27019W        W95393  30.022   1.473   4.238
27020W        W95394  42.469  29.175   3.286
27021W        W95395  25.060  17.569   4.811
27022W        W95396   1.461  42.510  14.400
27023W        W95397  31.086  17.117   0.389
27024W        W95398   0.399  29.638   2.370
27025W        W95399  18.753  43.406  10.595
27026W        W95400  11.849  13.672   3.632
27027W        W95401  33.084   1.256  11.938
27028W        W95402  33.441  40.011   5.102
27029W        W95403  20.729  39.836  10.144
27030W        W95404  16.245   8.334  14.936
27031W        W95405  12.140  34.404  11.089
27032W        W95406  31.408  27.131  12.905
27033W        W95407  23.730   2.251  10.957
27034W        W95408   0.336  23.161  11.007
27035W        W95409   5.782  38.073   2.246
27036W        W95410  16.143   3.727  11.583
27037W        W95411  13.617  12.746  12.853
27038W        W95412  19.162  31.011  11.106
27039W        W95413  39.810  37.074   2.381
27040W        W95414  18.069  33.964  11.115
27041W        W95415  40.048   2.899   1.914
27042W        W95416   1.965  19.559   4.114
27043W        W95417  43.384  17.692   0.303
27044W        W95418  36.494  23.108  10.942
27045W        W95419  37.945  42.827   3.351
27046W        W95420  13.329   1.418  14.835
27047W        W95421  37.379  21.223   4.353
27048W        W95422  42.520  17.120   4.725
27049W        W95423   1.959  29.610  11.069
27050W        W95424  21.637  13.141  14.819
27051W        W95425  26.953  19.095  13.331
27052W        W95426  44.913  16.782   1.794
27053W        W95427  43.299  44.404  12.982
27054W        W95428  28.614  25.698  14.366
27055W        W95429  42.350  23.196   1.362
27056W        W95430   0.351   3.411  10.481
27057W        W95431  19.617   0.261  14.464
27058W        W95432  30.623  42.321  13.813
27059W        W95433  41.533  16.668   4.255
27060W        W95434  42.854  17.795  11.906
27061W        W95435  30.001  11.662  12.544
27062W        W95436  17.574  11.347  13.514
27063W        W95437   3.426  25.584   3.753
27064W        W95438  42.417  37.906  10.473
27065W        W95439   3.903  42.888  10.422
27066W        W95440  15.149  22.638  13.504
27067W        W95441   4.281  34.613   4.744
27068W        W95442  27.535  27.159  14.351
27069W        W95443   6.196  36.847   4.248
27070W        W95444  35.025  37.528   2.764
27071W        W95445   1.805  30.016  14.368
27072W        W95446  12.343  41.495   0.289
27073W        W95447  32.424   4.841  14.295
27074W        W95448  25.528  11.230   1.288
27075W        W95449   5.764  17.580   0.444
27076W        W95450  36.416  37.368   1.826
27077W        W95451   0.831   5.335  12.041
27078W        W95452  22.016  40.022  11.509
27079W        W95453   0.780  22.657  11.530
27080W        W95454   0.392  15.182  10.609
27081W        W95455  16.588  41.341   3.313
27082W        W95456  42.808   7.390  10.949
27083W        W95457  35.879  30.164   4.814
27084W        W95458  37.869  10.786   3.686
27085W        W95459  43.488  35.925  13.831
27086W        W95460  14.206  13.218   0.736
27087W        W95461  18.154  15.144  11.879
27088W        W95462  23.225   8.750  13.386
27089W        W95463  24.616  10.199   2.806
27090W        W95464  21.178  41.798   0.765
27091W        W95465   2.827  23.089  14.486
27092W        W95466  18.622  41.987   4.789
27093W        W95467  24.190  30.060   3.807
27094W        W95468  16.587  25.518   0.396
27095W        W95469   0.745  28.608   1.793
27096W        W95470  14.251  18.242  11.930
27097W        W95471  42.417  10.367   0.249
27098W        W95472  12.252  19.079  11.036
27099W        W95473  35.566  42.935  13.538
27100W        W95474   5.911   5.317  14.329
27101W        W95475  40.325  35.074  11.521
27102W        W95476  21.125  28.666  11.085
27103W        W95477  32.491  20.109   0.266
27104W        W95478   5.879  38.527  12.354
27105W        W95479  37.000  38.345  12.374
27106W        W95480  43.886   3.362   3.227
27107W        W95481  22.142  26.568   1.383
27108W        W95482   3.882  34.926   0.836
27109W        W95483   5.209  11.166   0.737
27110W        W95484  32.446   5.815  12.536
27111W        W95485  23.015   3.856  14.307
27112W        W95486  27.082  23.004  11.878
27113W        W95487  31.412  29.011   1.776
27114W        W95488  22.634   3.390  10.958
27115W        W95489  20.653  16.115   3.240
27116W        W95490  17.241  29.550   3.731
27117W        W95491  21.667  40.486  10.148
27118W        W95492  32.633  43.790  10.509
27119W        W95493  42.936  21.152  13.945
27120W        W95494   5.266  38.900   1.908
27121W        W95495   5.307   3.757  12.058
27122W        W95496  38.007   8.791   0.427
27123W        W95497   4.797  19.618  10.423
27124W        W95498  21.133  42.438  12.549
27125W        W95499  22.584  29.638  12.973
27126W        W95500  39.816   8.403  14.891
27127W        W95501   1.945  41.379  11.871
27128W        W95502  12.147  11.268  13.022
27129W        W95503   2.731  24.106  12.957
27130W        W95504  25.145  15.323   0.297
27131W        W95505  20.217  42.343   3.650
27132W        W95506   6.186  41.926  11.437
27133W        W95507  23.131  42.815   1.242
27134W        W95508  29.972  34.374   1.852
27135W        W95509  14.627  17.699   0.465
27136W        W95510   7.791  40.389   3.153
27137W        W95511  31.082   5.431   4.625
27138W        W95512  41.377   5.327   4.345
27139W        W95513   7.727   9.658   2.882
27140W        W95514  43.456  42.313   3.206
27141W        W95515  18.090   9.382   3.157
27142W        W95516  13.155  10.851  10.989
27143W        W95517   4.862  10.336  10.532
27144W        W95518  27.589  14.684   4.149
27145W        W95519   3.269  17.755   2.408
27146W        W95520  15.104  12.322   3.854
27147W        W95521  29.919  23.730   0.462
27148W        W95522  17.276  20.183   2.407
27149W        W95523  44.276  32.571   0.393
27150W        W95524  30.164  11.839   4.137
27151W        W95525  39.334  26.070   1.391
27152W        W95526  36.898  34.382   2.395
27153W        W95527  38.909  40.964   2.324
27154W        W95528  42.815   9.267   1.347
27155W        W95529  36.055   1.367   2.367
27156W        W95530  38.503  39.832  14.346
27157W        W95531  20.536  21.050   3.802
27158W        W95532  22.521  28.987  14.936
27159W        W95533   6.793  29.139  14.327
27160W        W95534   0.917  32.901  12.081
27161W        W95535   2.244  19.149  11.122
27162W        W95536   1.922  18.237  11.604
27163W        W95537   3.738  44.918   4.691
27164W        W95538  35.931  13.697  13.047
27165W        W95539  22.707  22.078  14.862
27166W        W95540  33.522   8.748   0.445
27167W        W95541  33.484  13.764   2.217
27168W        W95542   0.899   0.248   0.332
27169W        W95543  13.606  26.498  13.879
27170W        W95544  38.070  27.000   0.893
27171W        W95545   3.742   6.183  10.988
27172W        W95546  18.247  44.942   4.343
27173W        W95547   1.287  24.129  13.025
27174W        W95548   7.358  14.610   0.828
27175W        W95549  21.050   0.756   0.290
27176W        W95550  42.965   1.887  12.974
27177W        W95551  41.382  20.712   4.292
27178W        W95552   6.817  34.434   0.820
27179W        W95553  16.191   8.167   2.400
27180W        W95554  40.429  40.821   2.297
27181W        W95555  24.098   5.819   0.256
27182W        W95556  33.554  25.057   4.122
27183W        W95557  31.082  40.969   3.173
27184W        W95558   9.707  37.012   3.202
27185W        W95559  29.957  40.437   2.806
27186W        W95560   7.666  44.911   2.220
27187W        W95561  20.133   1.776  13.813
27188W        W95562  13.757   3.298  14.847
27189W        W95563  33.977  20.614   0.455
27190W        W95564  34.988   9.767   4.727
27191W        W95565  18.189   4.410  14.959
27192W        W95566  29.427   8.660  12.409
27193W        W95567  14.707  33.955  13.923
27194W        W95568   4.762  39.008  13.845
27195W        W95569  27.518   3.770   4.199
27196W        W95570   3.936  11.804   0.823
27197W        W95571  30.143  36.427  14.849
27198W        W95572  10.726  10.864   2.732
27199W        W95573  18.559  33.385  14.984
27200W        W95574   5.847  39.492   2.696
27201W        W95575  16.723   1.295  12.474
27202W        W95576  26.981   5.879  12.001
27203W        W95577  11.676  15.095   3.708
27204W        W95578  10.272  21.611  13.469
27205W        W95579   5.261  27.159   3.700
27206W        W95580  27.084   1.395  14.867
27207W        W95581  11.750  28.435  11.007
27208W        W95582  15.264   1.362  12.531
27209W        W95583  26.657  31.608  14.320
27210W        W95584   0.773   2.326   1.801
27211W        W95585  21.734  25.543  14.847
27212W        W95586  27.656  41.848   3.772
27213W        W95587  13.739  21.184  11.087
27214W        W95588  29.127  35.513   2.342
27215W        W95589   4.834  25.536  12.063
27216W        W95590   1.805  38.926  14.368
27217W        W95591  44.773  38.073   1.763
27218W        W95592  17.242  14.662   3.673
27219W        W95593  43.284  30.981  11.109
27220W        W95594  10.286  41.409   2.194
27221W        W95595  13.288  42.940  10.951
27222W        W95596   0.346  36.925  13.987
27223W        W95597  33.877   5.767   2.859
27224W        W95598  18.173  22.517  14.989
27225W        W95599  38.337  23.623   1.400
27226W        W95600  32.082   3.807   4.329
27227W        W95601  43.830   6.903  13.061
27228W        W95602  26.555   9.836  13.921
27229W        W95603  19.063  12.786   1.216
27230W        W95604  13.616  15.609  14.873
27231W        W95605  33.128  21.615  12.900
27232W        W95606  23.523  26.551   1.875
27233W        W95607  14.830  15.791   1.329
27234W        W95608  10.307  42.973   1.437
27235W        W95609  36.431  24.709   3.731
27236W        W95610  33.490   7.743   4.253
27237W        W95611  32.922   9.253   4.217
27238W        W95612  21.116  21.526  12.564
27239W        W95613   7.862  17.746   3.386
27240W        W95614  44.905  41.495   4.682
27241W        W95615  37.573  10.257   1.279
27242W        W95616  27.106  32.905   1.344
27243W        W95617  37.572  20.668   1.926
27244W        W95618   9.718   8.206  14.304
27245W        W95619  28.119  10.701   0.796
27246W        W95620  16.607  33.086  12.872
27247W        W95621  36.436   7.172  12.964
27248W        W95622  43.286  30.027  14.818
27249W        W95623  12.792   2.242   0.247
27250W        W95624  38.562  34.467   2.899
27251W        W95625   9.271  36.895  13.912
27252W        W95626  43.462  25.535  14.973
27253W        W95627  13.675  29.600  12.062
27254W        W95628  34.486  15.167  11.470
27255W        W95629  44.408  18.213  13.919
27256W        W95630  10.662   2.885   1.715
27257W        W95631  34.566  38.819   0.902
27258W        W95632  12.747  18.254   4.222
27259W        W95633  18.545   5.824   0.266
27260W        W95634  38.426  23.184  14.863
27261W        W95635  40.050  18.680   2.839
27262W        W95636  22.684  41.845   0.322
27263W        W95637  31.500   3.785  11.070
27264W        W95638   0.846  14.157   1.262
27265W        W95639  29.983  42.392   4.689
27266W        W95640  42.795   1.908  10.048
27267W        W95641  16.771   3.937   3.657
27268W        W95642  39.331  33.054   3.372
27269W        W95643  40.311  13.108   3.240
27270W        W95644   4.927  31.137  12.433
27271W        W95645  35.467  31.988   1.749
27272W        W95646  44.760  31.463  12.960
27273W        W95647  41.299  11.803   3.700
27274W        W95648  16.143  21.523   2.195
27275W        W95649   9.337  11.688   3.232
27276W        W95650  22.054  15.796   1.429
27277W        W95651  42.443  18.061   3.248
27278W        W95652   7.409  43.959  12.341
27279W        W95653   4.871  11.269  13.977
27280W        W95654   5.773  36.847  13.931
27281W        W95655  34.563  33.527  11.413
27282W        W95656   5.278  22.558   2.671
27283W        W95657  15.083   0.940   4.181
27284W        W95658  11.305  36.527  13.415
27285W        W95659   6.677   4.419   3.255
27286W        W95660  41.844  43.877   1.256
27287W        W95661  18.070  16.575   1.356
27288W        W95662  33.484   2.788   4.765
27289W        W95663  39.471  24.678  11.501
27290W        W95664  21.193   1.751   2.700
27291W        W95665  11.661  16.199  14.012
27292W        W95666   1.361   9.388  14.369
27293W        W95667   5.818   5.284  13.040
27294W        W95668  18.576  19.221   2.836
27295W        W95669  16.655   7.905  13.389
27296W        W95670  22.060  33.492   1.420
27297W        W95671  10.792  20.565  14.913
27298W        W95672   8.865  42.333   3.716
27299W        W95673   2.280   2.297   3.345
27300W        W95674  23.644   4.704   1.740
27301W        W95675  36.574  32.458  14.771
27302W        W95676  14.138  31.434  11.373
27303W        W95677  25.177  30.948  10.003
27304W        W95678  34.992  44.963  11.568
27305W        W95679  12.276  42.288   3.168
27306W        W95680   0.260   4.331   1.279
27307W        W95681  25.590  18.218   5.789
27308W        W95682  33.986  32.397  13.455
27309W        W95683  20.189  25.032   4.347
27310W        W95684   7.228  43.881  11.885
27311W        W95685  28.596  14.219  12.403
27312W        W95686  13.748  41.968   1.265
27313W        W95687   8.209  43.766  14.965
27314W        W95688  21.171  44.768  12.986
27315W        W95689  28.457  32.576  10.909
27316W        W95690   4.919  20.177  13.487
27317W        W95691  18.114  26.559  14.881
27318W        W95692  23.008  44.872   1.926
27319W        W95693  20.727  19.049   0.315
27320W        W95694   0.801  28.157   0.419
27321W        W95695  44.487  41.329   1.403
27322W        W95696  26.630  17.192   1.699
27323W        W95697   6.428  21.534   1.227
27324W        W95698  28.675  18.211   0.261
27325W        W95699  34.411  19.708  12.035
27326W        W95700  44.402  29.016   3.188
27327W        W95701  40.797   6.739   2.192
27328W        W95702   4.902  10.227  11.106
27329W        W95703  28.506   6.397   4.201
27330W        W95704  16.228  38.350  14.954
27331W        W95705  22.518  42.340  12.843
27332W        W95706  22.557  28.069   0.340
27333W        W95707  24.629  16.297  10.533
27334W        W95708  30.914   2.894   4.333
27335W        W95709  33.394   8.345  11.451
27336W        W95710   7.381  23.706   2.314
27337W        W95711   9.764   3.456   0.926
27338W        W95712  28.004  12.277   4.141
27339W        W95713  20.171  38.440   9.535
27340W        W95714  38.051  27.168  12.862
27341W        W95715  25.143   7.342   0.823
27342W        W95716  22.612   7.358  10.089
27343W        W95717   2.811   2.951  12.080
27344W        W95718  37.851  23.030   3.676
27345W        W95719  38.007  33.540   1.694
27346W        W95720  41.316  42.930   4.701
27347W        W95721   4.824   9.714   3.786
27348W        W95722  26.157  41.455  10.413
27349W        W95723  43.438   6.827  11.018
27350W        W95724  31.102  27.510  14.796
27351W        W95725  17.236   5.802   1.223
27352W        W95726   3.461  30.913  11.891
27353W        W95727  15.115  37.020   4.115
27354W        W95728   2.861  32.012  13.402
27355W        W95729  12.827  32.407   0.254
27356W        W95730  28.126  12.724  12.906
27357W        W95731  39.547  37.860   2.323
27358W        W95732  34.013  44.977  14.373
27359W        W95733  30.947  13.796   1.798
27360W        W95734  14.238  19.056  13.538
27361W        W95735  36.943   1.860  11.969
27362W        W95736  35.101   7.173  11.516
27363W        W95737  33.081  31.943   1.772
27364W        W95738  41.905  19.184  13.954
27365W        W95739  10.155  10.202  12.887
27366W        W95740   0.326  12.166  12.899
27367W        W95741  15.227  21.749   2.691
27368W        W95742   7.416  22.512   2.797
27369W        W95743  29.044  24.131   4.310
27370W        W95744  36.995  30.135   3.211
27371W        W95745   5.842  43.305  11.981
27372W        W95746  15.250  15.314   0.395
27373W        W95747  23.605  26.606   2.272
27374W        W95748  40.902   9.349   4.139
27375W        W95749  13.261  12.845   3.660
27376W        W95750  11.245  30.473  12.847
27377W        W95751   1.432  25.592   4.213
27378W        W95752   8.336  28.025   4.263
27379W        W95753  26.149   4.927  10.056
27380W        W95754  29.082  30.091  12.071
27381W        W95755   6.335  24.696  11.420
27382W        W95756  30.029  42.013  13.882
27383W        W95757   2.285  23.512   3.755
27384W        W95758  31.043  23.719   1.935
27385W        W95759   8.192  36.370  14.818
27386W        W95760  41.821  38.066  12.513
27387W        W95761   3.755  24.605   2.703
27388W        W95762  12.155  39.351  12.082
27389W        W95763  22.998   6.385  13.528
27390W        W95764  14.757  24.115  10.644
27391W        W95765  26.484  42.430  14.814
27392W        W95766  39.334   4.943  13.938
27393W        W95767   8.257  17.246   0.460
27394W        W95768  35.492  36.918  12.085
27395W        W95769  19.062  20.198   0.829
27396W        W95770  35.889  27.158  13.903
27397W        W95771  22.109  30.946  14.996
27398W        W95772  44.381  12.342   0.309
27399W        W95773  16.293  22.571   2.740
27400W        W95774  13.293   4.770   0.812
27401W        W95775  35.044  12.648   2.794
27402W        W95776  31.109  28.969  13.459
27403W        W95777  32.622  40.936   2.858
27404W        W95778  10.154  10.832   4.113
27405W        W95779  29.000  29.092  11.975
27406W        W95780  13.344   1.977   0.752
27407W        W95781  19.239  20.267   0.258
27408W        W95782   7.890  16.739   4.316
27409W        W95783   3.278  39.997  12.068
27410W        W95784  28.541   5.913   4.140
27411W        W95785   9.811  21.126  13.412
27412W        W95786  28.962  27.505  14.505
27413W        W95787  24.508   3.827   3.757
27414W        W95788  43.800  28.662   2.337
27415W        W95789  38.969  34.061   0.265
27416W        W95790  35.019  13.171   0.452
27417W        W95791   1.406  11.751  12.873
27418W        W95792  14.103  43.392   3.177
27419W        W95793  17.307  32.095  11.063
27420W        W95794  27.562  10.377   0.918
27421W        W95795  41.306  11.739   0.778
27422W        W95796  29.996  18.696  11.012
27423W        W95797  11.218  39.356  13.390
27424W        W95798  20.060   0.852   5.304
27425W        W95799  40.347  39.350  12.542
27426W        W95800   3.709  23.732  11.565
27427W        W95801   0.785   3.313  12.996
27428W        W95802  34.004  14.795   0.399
27429W        W95803  12.324   5.864   4.801
27430W        W95804  21.538  14.266  11.008
27431W        W95805  19.590  39.841   0.295
27432W        W95806   0.911  40.849  10.915
27433W        W95807  11.853  14.192   4.319
27434W        W95808  31.033   6.243  14.437
27435W        W95809  28.958  31.475  12.023
27436W        W95810  43.332  38.011  12.907
27437W        W95811  32.937   3.242   0.921
27438W        W95812  20.708  15.592  12.548
27439W        W95813  34.394  37.347  12.076
27440W        W95814  36.354  20.540   0.387
27441W        W95815  27.078  39.497  14.963
27442W        W95816  35.902  15.824   3.250
27443W        W95817  32.039  43.314  10.449
27444W        W95818  37.533  10.685  10.956
27445W        W95819  14.129   7.178   1.256
27446W        W95820   0.457   2.743  14.385
27447W        W95821  14.716  16.112  14.332
27448W        W95822  14.236   7.837   0.444
27449W        W95823  40.418  16.312  14.439
27450W        W95824  42.457   1.929   3.752
27451W        W95825  11.728  15.305   3.270
27452W        W95826  10.151  35.894  12.381
27453W        W95827  38.978  16.134  12.409
27454W        W95828   0.285  33.954   3.808
27455W        W95829  33.534   8.882  10.604
27456W        W95830  23.603  26.987  11.611
27457W        W95831   9.174  10.747  11.518
27458W        W95832  39.963  14.716   0.260
27459W        W95833  13.784  35.572  10.578
27460W        W95834   1.822  27.545  13.508
27461W        W95835   1.871  20.172   1.897
27462W        W95836   2.742   5.895   0.931
27463W        W95837  30.510  13.818  12.014
27464W        W95838  16.623  20.223  14.451
27465W        W95839   8.232  35.880   3.325
27466W        W95840  35.898  26.979   1.394
27467W        W95841  30.078  17.645   4.600
27468W        W95842   0.465  13.198   4.750
27469W        W95843   1.960  30.065  12.391
27470W        W95844  16.639  29.555  10.890
27471W        W95845  42.525  22.579  11.943
27472W        W95846   8.235  37.039  12.910
27473W        W95847  42.400  12.330   1.868
27474W        W95848  25.043  23.626  12.450
27475W        W95849  31.455   7.214  13.436
27476W        W95850  10.198   4.337  12.552
27477W        W95851  44.864  23.561   0.351
27478W        W95852  38.515  43.827   1.401
27479W        W95853  23.016  34.536   4.598
27480W        W95854  43.306   4.373   2.681
27481W        W95855   0.427   2.964  11.053
27482W        W95856  40.324  35.883  14.826
27483W        W95857  19.757   5.427  13.877
27484W        W95858  38.479  39.471  12.866
27485W        W95859   2.249  18.279   5.150
27486W        W95860   5.905   5.299  11.869
27487W        W95861  37.449  10.786   0.919
27488W        W95862  40.987  12.321   2.685
27489W        W95863  35.892  10.276   1.433
27490W        W95864  39.053  35.936  10.895
27491W        W95865   8.697  35.408   2.774
27492W        W95866   9.671   6.416  12.915
27493W        W95867   1.970   6.710  11.887
27494W        W95868  35.089  11.298  13.405
27495W        W95869  17.148   3.243  13.476
27496W        W95870  19.545  43.380  11.032
27497W        W95871   3.732   5.929   4.646
27498W        W95872  18.234  37.916   4.670
27499W        W95873  18.158  16.108  14.975
27500W        W95874  23.675   1.458  12.948
27501W        W95875  36.433  18.116  12.404
27502W        W95876   3.260  15.584  12.577
27503W        W95877  33.391  17.742  12.460
27504W        W95878  24.557  20.057  13.343
27505W        W95879  21.058   5.702  14.963
27506W        W95880  23.154  43.811  10.463
27507W        W95881  36.890  36.022   4.233
27508W        W95882  40.832  33.989   0.317
27509W        W95883  24.630  21.066  10.985
27510W        W95884  44.466  23.690  13.364
27511W        W95885  44.394  14.314   0.780
27512W        W95886  31.619  33.556  11.093
27513W        W95887  28.492  43.389  13.815
27514W        W95888  39.546  30.627   2.235
27515W        W95889   7.832  25.608  13.892
27516W        W95890  43.456  13.336   3.706
27517W        W95891  35.445  36.914   4.250
27518W        W95892  28.602  30.443   2.269
27519W        W95893   6.794  29.010   5.768
27520W        W95894   2.778  24.126   3.780
27521W        W95895   7.733  24.592  12.472
27522W        W95896  16.165  18.178   1.279
27523W        W95897   8.342  28.956   4.257
27524W        W95898   9.247  18.097   3.266
27525W        W95899  30.428  24.657   1.814
27526W        W95900   8.886  16.754  12.058
27527W        W95901  27.493  41.306   3.733
27528W        W95902   8.790  30.523   3.654
27529W        W95903  16.662  42.501   4.790
27530W        W95904  34.538   1.469  12.461
27531W        W95905  24.044  35.995   0.832
27532W        W95906  27.475  38.040   0.847
27533W        W95907  25.670  40.902   3.250
27534W        W95908  33.425  38.070   1.327
27535W        W95909  13.662   3.832   1.383
27536W        W95910  39.454  39.022  13.484
27537W        W95911  20.250   5.261  13.424
27538W        W95912  41.832  40.847  13.333
27539W        W95913  44.301  18.159   1.292
27540W        W95914  36.403  36.997  13.444
27541W        W95915   4.403  43.980  14.832
27542W        W95916  24.031  17.161  10.513
27543W        W95917  33.978  17.754  12.530
27544W        W95918  39.528  33.578  11.017
27545W        W95919  43.328  41.411   2.346
27546W        W95920  27.070  19.043  14.985
27547W        W95921  23.099   6.329   1.916
27548W        W95922  10.315  11.330   4.724
27549W        W95923   2.350   4.704  14.007
27550W        W95924  27.962   5.929  10.597
27551W        W95925  38.410  13.834   3.711
27552W        W95926  43.000  26.571   1.906
27553W        W95927  15.146  35.409  12.991
27554W        W95928  35.979  42.908  12.371
27555W        W95929  12.137  19.762   5.287
27556W        W95930  19.693  37.487  14.814
27557W        W95931  14.608  41.035  12.921
27558W        W95932  38.499   5.403   3.633
27559W        W95933  21.583  25.105  13.415
27560W        W95934  41.979  44.890   3.841
27561W        W95935  22.197   0.866  11.926
27562W        W95936  21.575  40.974   2.290
27563W        W95937  42.352  39.965  11.976
27564W        W95938  29.002  21.151   2.349
27565W        W95939  34.079   4.761   0.257
27566W        W95940  40.548  26.021   1.850
27567W        W95941   1.268  42.948   3.369
27568W        W95942  17.164  18.231  12.518
27569W        W95943   8.847   4.900  10.985
27570W        W95944  19.140  27.947   3.354
27571W        W95945   4.811  39.871   0.452
27572W        W95946  33.545  31.425   3.353
27573W        W95947  31.499  37.415   5.133
27574W        W95948   4.829  23.020  13.859
27575W        W95949  30.588  26.518  10.997
27576W        W95950   3.339   5.878   3.658
27577W        W95951  31.945   7.709  13.857
27578W        W95952   5.869  25.695  10.460
27579W        W95953  30.102   7.360   3.768
27580W        W95954   2.408  33.469   1.269
27581W        W95955  43.815   7.342   2.900
27582W        W95956  25.190  35.932   0.364
27583W        W95957   7.202  28.123  13.397
27584W        W95958  18.159  14.166  13.357
27585W        W95959  34.114  21.670   0.952
27586W        W95960  39.057  36.999   3.813
27587W        W95961  11.776  31.642   3.353
27588W        W95962  11.187  39.550   2.684
27589W        W95963  15.216  28.151   3.696
27590W        W95964   7.375  37.440  11.435
27591W        W95965   4.350  14.097   0.771
27592W        W95966   0.864  38.548  14.493
27593W        W95967  17.727   5.749  12.045
27594W        W95968  34.926  19.059   4.321
27595W        W95969   3.870  39.481  11.005
27596W        W95970  43.882  17.685   1.214
27597W        W95971  31.644   2.759   4.684
27598W        W95972   7.851  44.498  10.014
27599W        W95973   4.856  22.997   3.200
27600W        W95974  18.229  25.491   1.347
27601W        W95975  42.783  13.332  10.433
27602W        W95976  27.569  44.977  13.801
27603W        W95977  15.599  26.540   0.389
27604W        W95978  44.937  14.811   4.636
27605W        W95979  24.990  18.213  12.984
27606W        W95980  26.979  17.761  11.549
27607W        W95981  12.154  38.515   1.913
27608W        W95982  11.765  25.067   3.277
27609W        W95983  33.071   6.778  11.403
27610W        W95984  20.154  43.303  12.453
27611W        W95985  44.907   7.357   4.340
27612W        W95986   8.672  40.954   3.835
27613W        W95987  19.765   3.262  10.936
27614W        W95988  19.578  28.452   4.261
27615W        W95989  40.314  19.263   3.765
27616W        W95990  34.040  27.597  14.354
27617W        W95991  40.871   4.257   1.771
27618W        W95992   2.325   7.270  12.906
27619W        W95993  43.779  36.096  11.129
27620W        W95994  24.689   2.868  12.963
27621W        W95995  21.051  35.040   2.898
27622W        W95996  10.640  23.551  10.418
27623W        W95997  11.645  36.889  14.787
27624W        W95998  44.348  28.131  12.495
27625W        W95999  13.286  16.688   3.192
27626W        W96000  25.469  16.798   4.688
27627W        W96001  41.876  35.420  13.805
27628W        W96002  20.060  33.619   3.803
27629W        W96003  43.842   5.914  10.550
27630W        W96004   5.309  11.132  12.348
27631W        W96005  18.129  24.611   4.178
27632W        W96006  25.011  16.201   3.695
27633W        W96007   0.489  10.306   2.397
27634W        W96008  22.619   6.680  14.970
27635W        W96009  44.783   5.849  10.452
27636W        W96010  13.830  14.648  10.943
27637W        W96011   5.338   3.830   1.328
27638W        W96012  42.330   0.312  11.494
27639W        W96013   3.867   0.494  10.935
27640W        W96014   2.447   7.705   2.291
27641W        W96015  21.517  11.822  13.825
27642W        W96016  28.445   1.407   1.221
27643W        W96017   2.262  13.637   1.853
27644W        W96018  25.113   5.371   4.135
27645W        W96019   9.222  27.112   4.140
27646W        W96020  31.896  24.000  14.915
27647W        W96021  19.098  25.061   2.787
27648W        W96022  30.938  41.908   1.810
27649W        W96023   5.311  14.287   0.454
27650W        W96024  43.796   7.698  14.388
27651W        W96025  19.281  21.577   3.199
27652W        W96026  19.586  43.949   0.369
27653W        W96027   0.748  29.061  14.893
27654W        W96028  15.297  12.833  13.524
27655W        W96029   6.398  28.602   2.269
27656W        W96030  40.938  38.946  12.372
27657W        W96031  27.999  17.575  14.325
27658W        W96032  34.902  35.106   3.663
27659W        W96033   6.755  36.093  12.484
27660W        W96034  27.139  24.526   1.313
27661W        W96035  36.543  18.293   0.274
27662W        W96036  17.153  24.991   4.191
27663W        W96037  32.994  24.985  12.537
27664W        W96038  20.544   8.401   1.220
27665W        W96039  38.886  43.490  14.455
27666W        W96040  18.217   6.321   0.443
27667W        W96041  18.250  43.286   1.319
27668W        W96042  25.473   0.971  12.507
27669W        W96043  16.259  27.190   2.392
27670W        W96044  19.225   6.344  13.041
27671W        W96045  16.219  32.422   1.251
27672W        W96046  24.591   8.354  14.280
27673W        W96047  22.593  15.109  11.942
27674W        W96048   3.939  25.111  10.895
27675W        W96049  39.060   9.672   4.206
27676W        W96050  15.087   7.225  12.952
27677W        W96051  32.112  41.506   1.913
27678W        W96052   4.928  27.121   0.403
27679W        W96053   8.825  30.597  13.492
27680W        W96054  44.872  38.040  13.501
27681W        W96055  12.236  14.652  14.445
27682W        W96056  12.633   2.863  14.330
27683W        W96057  32.527  23.006  13.547
27684W        W96058  38.501   7.408  12.871
27685W        W96059  11.173  32.530   0.338
27686W        W96060  11.705  37.048   0.946
27687W        W96061  15.226  37.848  13.896
27688W        W96062  39.422  42.520  14.763
27689W        W96063   9.209  20.204   3.337
27690W        W96064  41.324  32.997   4.144
27691W        W96065  33.970   8.313   4.303
27692W        W96066  22.687  29.922  14.001
27693W        W96067   9.682   7.757  10.439
27694W        W96068  10.813  19.730  13.059
27695W        W96069  17.629  12.766   0.352
27696W        W96070  41.982  15.605  10.641
27697W        W96071  29.996  17.105   1.798
27698W        W96072  40.888  21.550  14.987
27699W        W96073  25.567   5.854  11.926
27700W        W96074  41.910  28.678   0.483
27701W        W96075  24.033  17.277  14.835
27702W        W96076  32.028   5.210  13.855
27703W        W96077   3.813   2.931  13.041
27704W        W96078   7.681  18.072  10.514
27705W        W96079  26.045   9.268   2.712
27706W        W96080   6.241   8.207  12.910
27707W        W96081  30.085   5.702   4.767
27708W        W96082  22.202  40.832   9.616
27709W        W96083   4.323  22.017   1.291
27710W        W96084  38.942  22.661  14.449
27711W        W96085  20.527  26.107   3.265
27712W        W96086   1.461  40.811  12.514
27713W        W96087  14.817  23.064   1.390
27714W        W96088  11.867  29.005   1.308
27715W        W96089  42.860  12.328  14.495
27716W        W96090  16.766  27.178   2.872
27717W        W96091  42.341   3.752  13.010
27718W        W96092   8.325  44.269   2.365
27719W        W96093   3.813  19.705  13.881
27720W        W96094  36.937   1.741   4.244
27721W        W96095  29.601  21.143   3.180
27722W        W96096  21.151   3.440  14.011
27723W        W96097  38.381   6.863  11.426
27724W        W96098  19.072  42.394  11.520
27725W        W96099   5.827   9.170   3.653
27726W        W96100  20.126  16.241   2.865
27727W        W96101  15.645  25.534   5.158
27728W        W96102   1.874   7.884   4.140
27729W        W96103  27.068   2.460  12.395
27730W        W96104  33.514   0.779   0.279
27731W        W96105  38.988  33.446   3.683
27732W        W96106  27.026  13.624   3.381
27733W        W96107   0.358   8.312   4.634
27734W        W96108  33.437  12.351  10.511
27735W        W96109  27.110   7.912   3.155
27736W        W96110  39.840  21.040   0.255
27737W        W96111  38.358  37.518   1.225
27738W        W96112  16.137  17.251  12.349
27739W        W96113   9.804  22.695   0.922
27740W        W96114  11.710   1.477   1.749
27741W        W96115  15.152   7.843   3.264
27742W        W96116  20.685  38.371   4.691
27743W        W96117  35.852  17.606   4.729
27744W        W96118  35.080   4.354  11.396
27745W        W96119  20.157  44.902   2.894
27746W        W96120  28.075  17.671  10.635
27747W        W96121  10.758  44.315  13.329
27748W        W96122  26.109  30.988  13.918
27749W        W96123   9.273  23.025  10.564
27750W        W96124  39.851  35.450   2.850
27751W        W96125  20.723  32.433   2.688
27752W        W96126  39.469   6.917  14.368
27753W        W96127  43.399  27.969   2.685
27754W        W96128  18.660   4.316  13.995
27755W        W96129  21.234  18.751  11.512
27756W        W96130  27.991  31.932   4.317
27757W        W96131  20.230  10.180  11.045
27758W        W96132  25.696   6.423   1.377
27759W        W96133  27.662  19.210   1.879
27760W        W96134   2.315  25.203   4.203
27761W        W96135  33.611  12.776  12.903
27762W        W96136  29.666  34.120   3.849
27763W        W96137  44.932  21.247   0.953
27764W        W96138  42.387  15.814  12.344
27765W        W96139  13.777  14.749   2.367
27766W        W96140  13.288  24.546   2.184
27767W        W96141   4.886  17.707   2.270
27768W        W96142   5.378  31.919   4.256
27769W        W96143   4.360  24.580   4.601
27770W        W96144  13.180  17.217  12.996
27771W        W96145  34.083   2.417   3.645
27772W        W96146   7.384   3.798   2.730
27773W        W96147  28.123  34.456   0.764
27774W        W96148  21.599  35.446   2.234
27775W        W96149  28.625  39.542   2.261
27776W        W96150  32.088  11.185   1.746
27777W        W96151  14.647  25.584  14.846
27778W        W96152  29.447   0.482   0.351
27779W        W96153   4.410  11.736  12.924
27780W        W96154  34.927  16.772   4.689
27781W        W96155  22.740   4.792  14.954
27782W        W96156   8.658  11.351   0.801
27783W        W96157  16.584  20.608   3.299
27784W        W96158  17.067  30.459  13.421
27785W        W96159   8.282  17.283  12.518
27786W        W96160  16.089  34.395  13.868
27787W        W96161   6.699  28.055  14.823
27788W        W96162  17.135  39.892  13.920
27789W        W96163  39.897  40.848   2.823
27790W        W96164  43.859  34.863   2.335
27791W        W96165  14.311  38.034  11.066
27792W        W96166  11.742  22.546   1.819
27793W        W96167  40.411   7.188   3.829
27794W        W96168  27.148  14.192  13.810
27795W        W96169  33.969  33.100  11.392
27796W        W96170  24.189  17.605   1.723
27797W        W96171  44.448  15.312   0.923
27798W        W96172  34.592  25.548   2.765
27799W        W96173  18.656  21.725   0.255
27800W        W96174  44.842  34.891   4.199
27801W        W96175  36.054  14.809  10.475
27802W        W96176  28.071  26.151   1.262
27803W        W96177  43.807   5.873  12.896
27804W        W96178  44.934  22.140  14.873
27805W        W96179  38.955  40.912  14.928
27806W        W96180  19.088  38.388   3.655
27807W        W96181  41.847  39.436   2.199
27808W        W96182  41.479  13.298   2.386
27809W        W96183  13.757  26.520   4.318
27810W        W96184  12.722  33.573  11.414
27811W        W96185   1.747  35.360  11.386
27812W        W96186   8.364  16.166   4.116
27813W        W96187  17.231  18.568   1.824
27814W        W96188  18.103  24.117   4.748
27815W        W96189  31.409  12.837  12.962
27816W        W96190  12.177  11.749  10.496
27817W        W96191  44.261   1.437   1.369
27818W        W96192  24.674  32.457  10.593
27819W        W96193  26.181  18.651  12.529
27820W        W96194  24.572  34.477   0.800
27821W        W96195  15.284  19.704   3.791
27822W        W96196  11.296  33.441   4.726
27823W        W96197  41.011  40.906  10.955
27824W        W96198  38.885  16.663  12.079
27825W        W96199  38.844  11.819   3.202
27826W        W96200  16.754  21.570   1.858
27827W        W96201  17.690  11.784   3.748
27828W        W96202  18.054   1.428   4.120
27829W        W96203  36.876  18.196   1.394
27830W        W96204  16.764  11.662  12.508
27831W        W96205  43.978  18.675   0.370
27832W        W96206  30.113  26.066  14.944
27833W        W96207  20.543  11.761   2.780
27834W        W96208   7.730  17.584  13.006
27835W        W96209  36.410  17.688  10.998
27836W        W96210  18.667   0.254  12.949
27837W        W96211  23.681  10.653  11.031
27838W        W96212  30.522   6.221  11.857
27839W        W96213  39.040  33.523  12.404
27840W        W96214  35.976  10.739   0.244
27841W        W96215  36.441  18.634   2.290
27842W        W96216  25.203  33.559  12.548
27843W        W96217  31.492  26.701  10.479
27844W        W96218  34.563  33.966   2.688
27845W        W96219  43.952  25.584   0.906
27846W        W96220  37.521  13.188   1.699
27847W        W96221  32.431   5.839   4.343
27848W        W96222  27.575  33.580   3.676
27849W        W96223  33.523  40.000   0.299
27850W        W96224  41.404  41.998   4.280
27851W        W96225   5.725   0.488   4.231
27852W        W96226  12.183  30.435   0.872
27853W        W96227  30.115  30.565   3.715
27854W        W96228  26.632   0.760   1.292
27855W        W96229  16.621   5.834   2.670
27856W        W96230   6.922  16.628  14.403
27857W        W96231  43.496  16.684  14.343
27858W        W96232  24.993   6.836   1.403
27859W        W96233  16.630  10.150   9.576
27860W        W96234  10.780  37.570   0.893
27861W        W96235  27.149  15.119  10.588
27862W        W96236  14.686  13.793   1.920
27863W        W96237  24.666  15.268  12.966
27864W        W96238   7.703  44.356   1.218
27865W        W96239  26.151  41.309   3.752
27866W        W96240   1.273  31.037   0.263
27867W        W96241  34.606  12.165  10.626
27868W        W96242  20.258  18.596  13.804
27869W        W96243  37.965   8.664   3.197
27870W        W96244   2.241  19.617   3.311
27871W        W96245  12.185  44.993  11.377
27872W        W96246   4.771   3.941  13.361
27873W        W96247  17.259  42.329  13.924
27874W        W96248   4.933   4.421   1.727
27875W        W96249   9.694  31.435   1.223
27876W        W96250   7.261   2.298  13.401
27877W        W96251  30.006  34.018  14.913
27878W        W96252  33.414  18.610   3.214
27879W        W96253   2.234  43.298   4.294
27880W        W96254  40.844  33.515  13.966
27881W        W96255  31.027  23.066   0.454
27882W        W96256  16.651   0.257  12.897
27883W        W96257  11.351   3.857  13.413
27884W        W96258  32.441   9.795  11.116
27885W        W96259  17.766  20.057   4.207
27886W        W96260  42.314  10.717   0.902
27887W        W96261  27.450  29.467   2.876
27888W        W96262  39.453  39.857   2.292
27889W        W96263   6.275  15.799   4.270
27890W        W96264  41.912  44.290  10.028
27891W        W96265  23.599   1.306  10.927
27892W        W96266   9.777  10.253   2.265
27893W        W96267  32.606  33.080  12.075
27894W        W96268  20.067  43.010   4.794
27895W        W96269  16.743  20.251   2.669
27896W        W96270  10.180   9.739  13.503
27897W        W96271  28.522   4.907  13.418
27898W        W96272  29.491  11.233  12.929
27899W        W96273  16.117  31.078   1.376
27900W        W96274  43.484  32.064   3.817
27901W        W96275  43.838  43.357  10.958
27902W        W96276  22.509  36.058  13.852
27903W        W96277  19.744  14.321  13.056
27904W        W96278   1.384   5.410  11.117
27905W        W96279   6.405   3.930  14.871
27906W        W96280  38.859  26.625   2.867
27907W        W96281  27.456  43.341  12.473
27908W        W96282   4.409  24.033  12.948
27909W        W96283   3.433  15.183   0.838
27910W        W96284  27.197  43.865  13.985
27911W        W96285  10.351   2.373   1.311
27912W        W96286  11.199  24.651   4.831
27913W        W96287  12.313  20.077  13.371
27914W        W96288  22.074  16.664   4.285
27915W        W96289  32.974  10.328   2.783
27916W        W96290  10.636  14.652   4.818
27917W        W96291  11.359  20.153   3.199
27918W        W96292  10.838  37.373  10.619
27919W        W96293  25.486  31.442   4.209
27920W        W96294  19.246  18.684  11.858
27921W        W96295  28.505  25.040  11.122
27922W        W96296  10.214  21.048  10.585
27923W        W96297  36.511  26.007   3.314
27924W        W96298   7.271  27.455   4.352
27925W        W96299  28.491  24.118  14.431
27926W        W96300   1.927  33.950   2.830
27927W        W96301  37.537   9.157   9.991
27928W        W96302   0.248  37.838  10.482
27929W        W96303  26.970  26.011   0.743
27930W        W96304  13.278  22.232   2.764
27931W        W96305   0.291  27.658   3.805
27932W        W96306  22.199  23.041   4.213
27933W        W96307  10.635  39.833   1.367
27934W        W96308  30.494   3.291  10.930
27935W        W96309  14.231   4.245  13.860
27936W        W96310   6.195   9.287   3.305
27937W        W96311  21.609  44.338   4.785
27938W        W96312  35.497  38.363   0.466
27939W        W96313  28.026   2.803   0.378
27940W        W96314  10.379  34.516   0.435
27941W        W96315  33.955  25.558   1.807
27942W        W96316  21.576  27.970  14.291
27943W        W96317  13.153  33.907  11.475
27944W        W96318  34.470  10.833   3.663
27945W        W96319   1.468  43.303   3.687
27946W        W96320  11.247  17.751  11.591
27947W        W96321  17.612  21.637   3.753
27948W        W96322   4.308  10.740   4.212
27949W        W96323  13.260  29.505  11.590
27950W        W96324   8.765  38.447  14.281
27951W        W96325  40.441  39.837   1.337
27952W        W96326  14.703  34.961  11.953
27953W        W96327   5.365   9.365   1.285
27954W        W96328  12.329  31.928  11.585
27955W        W96329  13.297  19.070  14.344
27956W        W96330  26.534  22.032  13.436
27957W        W96331   7.288  39.977   0.752
27958W        W96332  27.681  29.556   0.371
27959W        W96333  17.786   3.868  11.102
27960W        W96334   6.767   5.753  12.997
27961W        W96335  16.780  40.955   3.215
27962W        W96336  28.089  18.189   1.836
27963W        W96337  10.254  43.916   3.286
27964W        W96338  24.990  17.283  13.992
27965W        W96339  30.496  21.588  14.814
27966W        W96340   7.183   4.438   4.196
27967W        W96341  36.956   3.419   2.309
27968W        W96342  12.625  36.567   1.382
27969W        W96343   5.824  21.658  10.931
27970W        W96344  40.530  34.017  12.053
27971W        W96345  18.068  10.178   0.274
27972W        W96346  42.293  19.575  14.420
27973W        W96347  19.135  15.720   0.852
27974W        W96348  41.414  34.000  11.449
27975W        W96349  38.057  29.034   4.325
27976W        W96350   2.842  29.997  10.448
27977W        W96351   6.778  10.161  12.443
27978W        W96352  12.304  34.978   3.744
27979W        W96353  12.196  40.021  11.973
27980W        W96354  25.205  38.009   0.332
27981W        W96355  39.849  12.268   4.140
27982W        W96356  13.728  15.190  12.931
27983W        W96357  13.246  40.986   3.260
27984W        W96358  19.666  12.181  11.582
27985W        W96359  23.241  44.840  14.464
27986W        W96360  42.997  10.784  11.529
27987W        W96361   3.835   7.725   1.425
27988W        W96362  34.077  21.237  10.553
27989W        W96363  34.970  40.402   2.219
27990W        W96364  12.342   1.350   2.801
27991W        W96365  17.664  19.643  14.950
27992W        W96366  10.256  20.118  14.001
27993W        W96367  11.854  13.615   2.302
27994W        W96368  15.727  18.724   3.335
27995W        W96369  21.157   9.838   4.313
27996W        W96370  23.145  25.206  14.304
27997W        W96371  22.137  16.699   2.283
27998W        W96372  19.679  19.090   2.285
27999W        W96373  37.528  32.470  13.046
28000W        W96374   3.767   1.897   0.735
28001W        W96375  26.180  13.122  11.068
28002W        W96376  28.458   4.435  10.610
28003W        W96377  21.024  17.577  12.396
28004W        W96378  43.394  24.058  12.470
28005W        W96379  28.934   5.269  14.922
28006W        W96380   5.391  25.644   2.761
28007W        W96381  21.704  30.553  11.127
28008W        W96382  33.387  21.113  13.907
28009W        W96383  22.628  23.028  12.042
28010W        W96384  21.588   1.893   0.397
28011W        W96385  15.255  10.340  13.834
28012W        W96386   0.457  42.954   0.405
28013W        W96387   2.458  30.909   1.386
28014W        W96388  27.959  41.367  11.598
28015W        W96389   1.786  40.422  10.612
28016W        W96390  13.115  28.575   3.330
28017W        W96391  38.833  37.449   2.866
28018W        W96392  13.175  39.393  14.999
28019W        W96393   1.266  19.212   0.351
28020W        W96394  19.629  36.526   0.465
28021W        W96395   3.843  14.636  11.612
28022W        W96396  18.223  41.031  11.418
28023W        W96397  34.400  11.320  14.949
28024W        W96398  21.076  24.050  12.962
28025W        W96399   0.392  15.687  14.283
28026W        W96400  20.669  33.585  14.339
28027W        W96401  32.481   1.873   1.246
28028W        W96402  43.314  24.573  14.395
28029W        W96403  29.666   5.377   2.407
28030W        W96404   7.848  21.117  11.571
28031W        W96405  26.042  14.653  11.107
28032W        W96406  22.557  32.064  14.930
28033W        W96407  11.807  26.959   1.740
28034W        W96408   2.424  39.445   4.779
28035W        W96409   8.297  22.047   0.449
28036W        W96410  14.763  34.602   2.299
28037W        W96411   8.743  42.512   0.468
28038W        W96412  16.709  25.514   2.786
28039W        W96413  41.396  23.573   0.772
28040W        W96414  21.536  19.615  14.516
28041W        W96415  16.097  14.209  14.511
28042W        W96416  11.366  15.179   3.382
28043W        W96417  28.506  19.234  14.319
28044W        W96418  31.009  20.242  11.918
28045W        W96419  16.234  29.042  14.341
28046W        W96420  44.372   3.799   3.295
28047W        W96421  44.903  43.372  10.601
28048W        W96422  23.141  33.489   2.786
28049W        W96423  36.555  24.014   2.863
28050W        W96424  36.979   9.165   5.195
28051W        W96425  30.650  16.137   3.865
28052W        W96426   7.189  42.507  13.523
28053W        W96427  37.961  33.562  12.381
28054W        W96428  30.459  29.969  12.952
28055W        W96429   4.784  24.640   3.776
28056W        W96430  36.071  16.593   1.718
28057W        W96431   8.864  37.082  11.102
28058W        W96432   7.317  12.256   2.382
28059W        W96433  18.071  44.327  10.421
28060W        W96434  31.139  30.492  11.440
28061W        W96435  14.284  17.279   1.292
28062W        W96436  44.966  16.631   3.179
28063W        W96437  25.608  15.220  12.892
28064W        W96438  26.082   8.717   0.756
28065W        W96439  14.175  32.511   2.409
28066W        W96440  31.956  44.446  10.554
28067W        W96441   2.464  10.861   2.254
28068W        W96442  39.482  26.652  14.468
28069W        W96443  29.606  10.235  10.418
28070W        W96444  13.696  10.854   0.292
28071W        W96445  12.187  28.162   2.698
28072W        W96446  36.414  10.367   0.785
28073W        W96447  31.421  41.998   2.269
28074W        W96448  27.590  39.314   1.889
28075W        W96449   5.776   9.817   0.887
28076W        W96450  44.461  30.945   4.123
28077W        W96451  34.081  29.538   2.244
28078W        W96452  14.292  19.715  10.941
28079W        W96453   0.986  43.835  10.993
28080W        W96454  32.008  41.348  12.016
28081W        W96455  12.143  25.522   0.869
28082W        W96456  22.009  44.991  14.990
28083W        W96457   4.861  43.935  10.092
28084W        W96458   7.320  38.555  11.561
28085W        W96459  16.651  28.176  10.556
28086W        W96460  34.443  17.063   1.824
28087W        W96461   9.200  42.525  10.445
28088W        W96462  23.030  16.795  11.886
28089W        W96463  29.044  43.279   2.787
28090W        W96464  42.776  42.855  12.400
28091W        W96465  21.661  31.923  10.592
28092W        W96466  25.072  15.233   5.599
28093W        W96467   7.824  14.231   2.680
28094W        W96468   3.440  44.501  12.353
28095W        W96469  42.016  34.035  12.022
28096W        W96470  38.999   1.732  12.379
28097W        W96471  13.325  44.432   4.771
28098W        W96472  39.431  43.867  14.980
28099W        W96473  43.979  25.670   3.818
28100W        W96474   5.725  30.993  13.512
28101W        W96475  29.126  42.003   2.371
28102W        W96476  14.201  41.472  13.487
28103W        W96477   1.749   5.351  11.374
28104W        W96478   5.759  43.962  12.960
28105W        W96479   0.763  18.750  10.432
28106W        W96480  17.599  17.092   0.248
28107W        W96481  41.459   5.902   3.215
28108W        W96482   9.224  24.103   2.408
28109W        W96483   4.217  11.370   3.268
28110W        W96484  15.665  10.174   5.311
28111W        W96485  10.376   4.429   4.681
28112W        W96486  35.883  17.564   1.442
28113W        W96487  31.640  35.502  13.388
28114W        W96488   3.936  11.163  12.923
28115W        W96489  41.019   6.896  13.350
28116W        W96490   5.270  20.753   3.182
28117W        W96491   5.763  15.655  14.339
28118W        W96492  39.467  41.951   3.639
28119W        W96493   0.254  36.038   4.605
28120W        W96494  16.635  41.020   1.401
28121W        W96495  26.622  23.724   2.733
28122W        W96496  13.721  37.493  10.960
28123W        W96497   7.378  21.022  11.887
28124W        W96498   3.352  17.677   3.691
28125W        W96499  16.621  21.601   1.306
28126W        W96500  28.987  10.823  12.079
28127W        W96501  20.231  35.014  10.614
28128W        W96502  27.597  21.593  12.889
28129W        W96503  39.810  26.148  12.079
28130W        W96504  17.085  43.839   2.243
28131W        W96505  40.373  42.387  10.515
28132W        W96506   5.923  37.028   0.839
28133W        W96507   0.751  11.142   3.163
28134W        W96508  21.667  17.684   4.613
28135W        W96509  36.587  28.151  13.025
28136W        W96510   7.790  22.066  10.472
28137W        W96511   9.277  34.402  13.901
28138W        W96512   6.825  30.115  13.942
28139W        W96513  29.083  32.912   1.779
28140W        W96514   9.774  31.608  11.874
28141W        W96515  19.615  36.446   2.310
28142W        W96516  19.067  24.606  10.888
28143W        W96517  33.897   9.171  12.383
28144W        W96518   8.285  40.019  13.949
28145W        W96519  15.662  40.963   4.688
28146W        W96520  19.706  29.447   1.778
28147W        W96521  28.047   9.168   4.303
28148W        W96522   2.864  19.061  13.360
28149W        W96523  30.437  25.056   2.183
28150W        W96524  15.093  43.362  10.537
28151W        W96525  12.150  14.162   0.263
28152W        W96526  10.348  19.050  14.949
28153W        W96527  35.514  39.848   4.183
28154W        W96528   0.456  11.830   2.409
28155W        W96529  34.103   1.471   0.964
28156W        W96530  36.455  13.325   3.161
28157W        W96531  23.239  10.655  12.069
28158W        W96532  39.973  36.011  14.481
28159W        W96533  30.929  31.473  14.325
28160W        W96534   7.666   8.335   3.826
28161W        W96535  13.248  20.188   4.257
28162W        W96536  44.470  14.293   4.203
28163W        W96537  20.136  27.101   2.785
28164W        W96538  24.687  26.588  10.094
28165W        W96539   7.390  21.680   2.179
28166W        W96540   9.654  44.930   3.274
28167W        W96541   2.434  41.874  11.863
28168W        W96542  41.002   8.255   0.895
28169W        W96543  24.618   1.398  12.520
28170W        W96544  21.124  12.829   1.735
28171W        W96545  30.962  15.823   2.866
28172W        W96546  26.623  20.701  13.915
28173W        W96547  42.373  29.937  14.328
28174W        W96548  14.184  12.739  10.988
28175W        W96549   0.429  35.860  12.919
28176W        W96550  29.974  15.783  11.997
28177W        W96551  28.539  30.110   3.853
28178W        W96552  35.392   5.707   2.373
28179W        W96553  36.017   2.428   3.736
28180W        W96554  10.325  18.128  13.510
28181W        W96555  10.759  31.045   0.352
28182W        W96556  44.504  27.645   2.845
28183W        W96557   2.229   0.345  13.441
28184W        W96558  29.476  42.829   4.300
28185W        W96559   7.238  12.710  13.350
28186W        W96560  28.518  40.869  13.496
28187W        W96561  32.082   0.880   3.742
28188W        W96562  14.759  44.787   2.698
28189W        W96563  21.064  19.277  11.975
28190W        W96564  11.857  42.885  10.956
28191W        W96565  22.573  34.600  14.296
28192W        W96566  40.970  39.034  14.445
28193W        W96567   9.850  38.412   2.324
28194W        W96568  42.866  29.636   5.095
28195W        W96569  22.627   1.237   0.903
28196W        W96570  38.065  29.948   3.291
28197W        W96571  19.713  13.153   4.338
28198W        W96572  27.025  24.108   4.351
28199W        W96573  23.681  29.509  12.533
28200W        W96574  34.922  38.423   0.963
28201W        W96575  31.044   7.193   1.388
28202W        W96576  19.047  14.800  13.862
28203W        W96577  43.809   7.733  11.023
28204W        W96578  44.978  42.470   2.790
28205W        W96579  29.928  20.102  13.517
28206W        W96580  29.984  16.181  14.984
28207W        W96581  15.752  14.807   2.330
28208W        W96582  29.021  38.932   0.762
28209W        W96583  33.002  17.589  14.403
28210W        W96584  33.414  41.321  11.911
28211W        W96585  26.205  43.919  12.089
28212W        W96586   1.824   1.415  10.476
28213W        W96587  33.418  38.403  10.114
28214W        W96588   1.883  16.170   4.342
28215W        W96589  26.990  42.950  10.052
28216W        W96590  17.260  42.493  11.929
28217W        W96591  11.837  14.106  12.442
28218W        W96592  18.243  15.777   2.708
28219W        W96593  37.837  34.019   0.453
28220W        W96594   8.166   2.723  13.894
28221W        W96595  43.809  22.121   0.747
28222W        W96596  12.664  39.818  10.434
28223W        W96597  16.668   9.390  13.909
28224W        W96598  32.976  13.787  11.447
28225W        W96599  27.478  13.320  13.825
28226W        W96600  12.766  37.014  11.400
28227W        W96601  42.006  43.779   4.749
28228W        W96602  42.370  25.583  10.910
28229W        W96603  21.151  39.843  10.909
28230W        W96604  34.987  25.120   3.662
28231W        W96605  20.539  23.626  14.325
28232W        W96606   0.463  23.098   2.370
28233W        W96607  10.763   6.862   0.456
28234W        W96608  20.757  32.933   4.229
28235W        W96609   0.468  27.580   1.930
28236W        W96610  10.688   0.866  13.337
28237W        W96611  40.920  16.590  14.477
28238W        W96612   5.237  39.031   3.631
28239W        W96613  33.128  31.908  10.472
28240W        W96614  28.580  23.020  12.986
28241W        W96615  12.703  25.591  10.636
28242W        W96616  11.818  20.698   0.799
28243W        W96617   2.325  20.712   2.731
28244W        W96618  38.934   4.705   0.484
28245W        W96619  24.066   5.261   2.793
28246W        W96620  32.893   6.683   1.827
28247W        W96621  37.039  16.143  14.911
28248W        W96622  18.262   4.291   3.242
28249W        W96623  36.060   4.842   4.597
28250W        W96624   3.818  14.334   9.925
28251W        W96625  30.086   4.811  12.490
28252W        W96626  31.619  16.306  12.889
28253W        W96627   6.686  19.100   2.860
28254W        W96628  36.443   0.343  13.999
28255W        W96629  30.098  21.245  13.402
28256W        W96630  23.195  20.134  11.386
28257W        W96631  15.221   7.303  11.087
28258W        W96632  36.857  42.995   2.662
28259W        W96633  12.165   6.729  10.955
28260W        W96634  39.968  41.417  14.435
28261W        W96635  35.408  39.457  13.900
28262W        W96636  10.321  21.255   2.793
28263W        W96637  30.986  28.468  13.538
28264W        W96638  44.830  10.638  10.589
28265W        W96639   0.295  44.917   3.379
28266W        W96640  10.143   7.259  10.618
28267W        W96641  26.684  10.790  10.625
28268W        W96642   8.842  16.767  13.371
28269W        W96643  33.425  40.047   0.811
28270W        W96644  14.833   9.322  12.941
28271W        W96645  34.923  26.589   2.351
28272W        W96646  43.368   8.730   0.774
28273W        W96647  34.035  17.725  13.993
28274W        W96648  19.548  39.998  12.008
28275W        W96649  18.290  11.704  12.851
28276W        W96650  34.954  16.202  11.378
28277W        W96651  35.538  35.101   0.344
28278W        W96652  38.821  43.307   3.862
28279W        W96653  43.002  16.255   2.201
28280W        W96654  17.559  19.132  13.328
28281W        W96655  33.962  21.044  13.358
28282W        W96656  37.920  10.778   0.304
28283W        W96657  20.631  17.295   1.729
28284W        W96658  21.552  36.900  10.096
28285W        W96659  22.602  12.188   4.342
28286W        W96660   7.245  19.702  12.011
28287W        W96661  25.572  32.523   0.397
28288W        W96662  25.050  44.395  13.799
28289W        W96663  27.691  28.105   1.290
28290W        W96664  10.828  31.580   4.719
28291W        W96665  10.266  41.387  10.098
28292W        W96666  29.477  19.734   1.707
28293W        W96667   3.837  36.926  10.453
28294W        W96668  14.213  42.412   1.386
28295W        W96669   5.210  21.026   0.439
28296W        W96670   5.738  44.815  11.382
28297W        W96671   4.850  20.181   4.765
28298W        W96672  43.456  25.196  12.518
28299W        W96673  44.787   1.337   0.434
28300W        W96674   1.357  18.122   0.823
28301W        W96675  38.571   9.794  12.576
28302W        W96676   6.708   6.343  12.468
28303W        W96677   6.794   3.795  14.465
28304W        W96678  18.202  40.898   2.832
28305W        W96679   8.284   0.398  13.896
28306W        W96680  35.857  22.674  12.477
28307W        W96681  43.501  11.664   3.837
28308W        W96682   1.474  26.962   0.789
28309W        W96683   0.895   9.825   0.750
28310W        W96684   5.299  12.219  10.415
28311W        W96685   8.692  10.258   3.294
28312W        W96686   2.771  36.549  11.455
28313W        W96687   3.424  37.402   1.778
28314W        W96688  20.212  25.636  14.320
28315W        W96689  25.561  29.602   4.136
28316W        W96690  33.471  27.051   3.826
28317W        W96691  25.217  11.168   1.875
28318W        W96692  12.252  11.211   2.185
28319W        W96693  24.095   2.929   3.870
28320W        W96694  22.998  14.282  13.479
28321W        W96695  26.564  26.654  13.475
28322W        W96696  35.501  28.655   3.232
28323W        W96697  39.913  25.697  13.031
28324W        W96698  38.042  34.953   0.746
28325W        W96699  37.059  40.345   2.202
28326W        W96700  39.505  26.525   1.910
28327W        W96701  28.499  13.114  13.910
28328W        W96702   8.216  11.711  11.475
28329W        W96703  22.699  27.550   3.821
28330W        W96704   1.797  43.380  14.903
28331W        W96705  20.671  24.142  13.062
28332W        W96706  20.152  32.112   2.223
28333W        W96707   1.959   2.906   4.602
28334W        W96708  38.483  13.326  10.634
28335W        W96709  10.877   8.228  13.024
28336W        W96710  19.052  27.105  12.535
28337W        W96711  20.135  32.489   3.662
28338W        W96712   4.254  21.610  13.876
28339W        W96713  27.474  42.996  12.436
28340W        W96714  31.571   6.353  14.448
28341W        W96715  30.948   7.322  11.883
28342W        W96716  25.149   2.248   3.256
28343W        W96717   3.410  25.659   5.304
28344W        W96718   2.239  23.655   3.377
28345W        W96719  14.747   3.711  10.469
28346W        W96720   0.443  23.214   0.427
28347W        W96721   2.463  11.228   3.323
28348W        W96722  37.403  17.275  14.510
28349W        W96723  20.745  21.551   0.265
28350W        W96724  28.530  37.566  13.334
28351W        W96725  14.271   1.466  10.411
28352W        W96726   5.730   2.892   5.717
28353W        W96727  24.216  15.260  14.812
28354W        W96728  22.130  17.701  11.452
28355W        W96729  21.252  18.629   2.831
28356W        W96730   0.882  41.025  11.965
28357W        W96731  11.244  13.258   0.751
28358W        W96732  32.538  17.081   2.332
28359W        W96733   9.315  10.212   3.702
28360W        W96734  34.903  11.371  10.543
28361W        W96735  19.728  28.547  14.353
28362W        W96736  28.070  15.784   2.359
28363W        W96737  39.975  22.727   4.613
28364W        W96738  30.101  38.517  10.633
28365W        W96739  14.703  14.636  14.937
28366W        W96740  14.244   3.825   1.226
28367W        W96741  18.768  30.969   4.752
28368W        W96742  22.029  42.979   0.274
28369W        W96743  40.846   2.912   4.191
28370W        W96744  16.693  44.366   1.879
28371W        W96745  23.644  37.506   4.177
28372W        W96746  22.081  25.545  11.582
28373W        W96747   2.372  11.779   0.272
28374W        W96748  21.689  15.107   2.263
28375W        W96749  12.144  29.091  11.916
28376W        W96750  17.190  20.209  12.565
28377W        W96751   6.733  36.924  12.501
28378W        W96752  20.039  39.359   4.735
28379W        W96753  10.634  19.631   3.763
28380W        W96754   9.884  25.141   3.187
28381W        W96755  26.031   5.429   1.418
28382W        W96756  24.206  22.167  13.943
28383W        W96757  11.720   0.980  14.915
28384W        W96758  44.891  41.333   2.868
28385W        W96759  21.591  18.619   2.275
28386W        W96760   8.698  35.899   3.259
28387W        W96761  28.961  28.010  13.861
28388W        W96762  32.606  32.564   0.455
28389W        W96763  32.573   1.967  14.836
28390W        W96764  42.890  42.353  12.413
28391W        W96765   5.343  17.216   0.476
28392W        W96766  27.135   1.417   1.893
28393W        W96767  12.160  28.467   0.252
28394W        W96768  21.517   3.218   2.842
28395W        W96769  11.323  32.009  12.829
28396W        W96770  36.993   7.307  11.104
28397W        W96771   9.330   2.954  10.155
28398W        W96772  17.268  40.848  12.357
28399W        W96773  12.334   5.790  12.015
28400W        W96774  42.449  43.335   1.817
28401W        W96775   0.390  12.640  14.780
28402W        W96776   9.196  15.782   3.213
28403W        W96777  15.153  26.622  13.019
28404W        W96778   2.238   0.776   0.401
28405W        W96779   5.802  31.525   1.380
28406W        W96780  34.429  40.811  11.074
28407W        W96781  39.354  28.572   0.358
28408W        W96782  12.775  20.070  12.908
28409W        W96783   1.964  39.555   1.847
28410W        W96784   6.792  10.188  11.021
28411W        W96785  29.481  28.570   2.766
28412W        W96786  13.714   6.726  12.988
28413W        W96787  11.300   7.340   3.793
28414W        W96788  29.547  12.827   5.252
28415W        W96789  37.571  40.009  12.863
28416W        W96790  35.908  18.724   0.765
28417W        W96791  22.683  30.941  11.982
28418W        W96792  44.005  21.044  12.443
28419W        W96793  13.211  44.326  12.391
28420W        W96794  27.161  43.893   2.255
28421W        W96795   5.720  22.534  10.548
28422W        W96796  40.431  13.728   1.292
28423W        W96797  23.069  16.078   4.317
28424W        W96798  21.641  18.078  11.032
28425W        W96799  33.614  14.192  12.417
28426W        W96800  39.537  39.013  12.580
28427W        W96801  24.021  37.349  10.943
28428W        W96802  31.953  14.820   3.817
28429W        W96803  34.986   9.244  11.957
28430W        W96804  15.156  18.114  12.478
28431W        W96805   6.911  17.786  13.799
28432W        W96806  12.129  20.197  14.276
28433W        W96807  19.603  11.855   0.866
28434W        W96808  28.176  29.116   0.282
28435W        W96809  29.116  35.564  13.399
28436W        W96810  40.533  13.316  11.914
28437W        W96811  41.991   8.741  14.423
28438W        W96812   3.847   0.979   0.729
28439W        W96813  41.413  39.540  11.095
28440W        W96814  13.830  25.481   2.386
28441W        W96815   1.830  10.251  12.507
28442W        W96816  16.620  19.042  14.767
28443W        W96817   6.404  18.234   2.760
28444W        W96818  40.466   5.717  14.405
28445W        W96819   3.281  20.753  11.403
28446W        W96820  10.736   4.448   2.706
28447W        W96821  38.819  37.520  13.913
28448W        W96822  24.629  14.336   4.327
28449W        W96823  27.476  18.695   1.283
28450W        W96824  12.332  24.626  14.908
28451W        W96825  23.138  17.565   4.332
28452W        W96826  36.881   6.777   1.376
28453W        W96827  18.191   0.941   4.156
28454W        W96828  17.748   6.784   3.344
28455W        W96829  27.126  21.721   0.922
28456W        W96830  35.573  22.555   0.394
28457W        W96831  33.972  15.153  10.552
28458W        W96832  42.441  33.051  11.117
28459W        W96833   2.388  30.927  12.030
28460W        W96834  36.885  24.510   4.606
28461W        W96835  18.211   2.357   4.351
28462W        W96836  21.230  40.025  10.053
28463W        W96837  21.739  35.881   3.658
28464W        W96838   8.826  11.305   2.772
28465W        W96839  11.216   8.383   2.291
28466W        W96840   1.464  44.329  12.567
28467W        W96841  24.201  30.971  10.427
28468W        W96842  23.111  18.051   3.805
28469W        W96843  24.153  11.803  10.011
28470W        W96844  16.167   9.655   2.338
28471W        W96845  36.483  24.510  11.946
28472W        W96846  29.664  29.486  12.995
28473W        W96847   8.206   6.799   0.898
28474W        W96848  23.499  33.908  11.928
28475W        W96849  37.000  33.064   1.418
28476W        W96850   9.197   3.343   3.195
28477W        W96851  36.919  43.481   0.968
28478W        W96852  25.047  17.563   2.245
28479W        W96853  20.100  29.522  11.938
28480W        W96854   4.433  37.548   2.385
28481W        W96855  35.360  36.356  13.962
28482W        W96856   6.252  18.092   1.245
28483W        W96857  40.937  36.920   4.252
28484W        W96858  27.667  16.758  10.627
28485W        W96859  21.136  44.328  12.472
28486W        W96860  28.443  16.126  11.927
28487W        W96861  10.811  39.866  14.860
28488W        W96862  36.070   5.229  14.492
28489W        W96863   7.193  27.589  11.483
28490W        W96864   5.880  29.035  13.841
28491W        W96865   2.869  39.936  11.011
28492W        W96866  13.826   8.743   3.858
28493W        W96867  38.511  35.026  10.429
28494W        W96868   8.342   5.707  14.430
28495W        W96869  29.666  22.054  13.464
28496W        W96870  36.483  35.867  11.862
28497W        W96871  21.716  26.163   4.599
28498W        W96872  26.045  31.604   2.770
28499W        W96873   0.263  13.222   3.749
28500W        W96874   0.438  44.312  14.762
28501W        W96875  14.814  14.203  11.507
28502W        W96876  16.800  34.015  11.416
28503W        W96877  11.729  27.129   4.802
28504W        W96878  21.095  31.418  11.377
28505W        W96879   0.844  37.938   1.715
28506W        W96880   7.754  10.158   2.896
28507W        W96881  39.932  29.114   0.793
28508W        W96882  38.452  37.543  12.079
28509W        W96883  24.573  26.118  14.024
28510W        W96884  23.174  14.725  11.383
28511W        W96885   8.284  31.602   5.148
28512W        W96886   8.171  32.612   2.340
28513W        W96887  30.083  11.665  13.512
28514W        W96888  31.119   8.208   2.283
28515W        W96889  22.080  21.067  13.869
28516W        W96890  27.083  24.139  14.838
28517W        W96891  26.621   1.773   3.782
28518W        W96892   8.791  24.720   1.293
28519W        W96893  41.409  20.198   1.909
28520W        W96894  23.043   2.398   2.187
28521W        W96895   2.857   6.731   3.231
28522W        W96896  27.680   8.773  13.879
28523W        W96897  15.580  12.127  12.857
28524W        W96898  29.574   9.713  12.383
28525W        W96899  36.477  36.884   4.815
28526W        W96900   6.732  23.189   9.479
28527W        W96901  23.513  41.886   0.354
28528W        W96902  28.161  11.656  11.949
28529W        W96903  24.066  33.088  12.992
28530W        W96904  14.182  34.577  10.600
28531W        W96905  39.314  28.560   1.450
28532W        W96906  21.674  15.767  10.007
28533W        W96907   9.828  22.675  14.021
28534W        W96908   9.845   5.929   0.479
28535W        W96909  12.814  24.650   3.754
28536W        W96910   8.807  42.456  13.981
28537W        W96911  43.998   8.366   3.747
28538W        W96912  33.476   5.375  13.492
28539W        W96913  33.574  18.774  11.930
28540W        W96914  44.441  13.172  11.901
28541W        W96915   6.266  10.789   0.748
28542W        W96916   9.712  12.759  11.127
28543W        W96917  25.697  16.296   1.924
28544W        W96918  15.673  14.701   0.915
28545W        W96919   8.381  16.674  14.324
28546W        W96920  39.463  41.433   5.229
28547W        W96921  21.208  36.041  14.811
28548W        W96922  37.524  32.963   0.263
28549W        W96923  39.552  31.589   0.403
28550W        W96924   6.336  37.421  13.365
28551W        W96925  41.450   9.234   3.724
28552W        W96926  30.586  36.488   5.125
28553W        W96927  16.314  32.416  13.479
28554W        W96928  23.096  20.604  12.061
28555W        W96929   4.262  42.799   3.218
28556W        W96930  40.314  22.554  11.551
28557W        W96931  30.427  41.853  12.515
28558W        W96932  42.859  42.527   1.727
28559W        W96933  32.561  41.959   2.243
28560W        W96934  22.052   6.812  10.920
28561W        W96935  15.194  31.057  13.816
28562W        W96936  11.711  23.078  11.379
28563W        W96937  30.150   6.262  11.053
28564W        W96938   2.760   7.259  13.963
28565W        W96939  19.285  43.386  10.912
28566W        W96940   8.672  32.986   1.815
28567W        W96941  36.468  39.018  13.424
28568W        W96942  18.723   4.822  12.837
28569W        W96943  34.984  23.027   1.285
28570W        W96944   4.904  24.587  13.379
28571W        W96945  34.929  25.471   0.432
28572W        W96946  37.830   9.272   3.660
28573W        W96947   8.370   7.191  14.470
28574W        W96948  42.797  13.110   1.265
28575W        W96949  11.155  13.154   4.686
28576W        W96950  23.628  12.763  12.080
28577W        W96951  12.661  16.782   4.211
28578W        W96952  11.806  39.539   2.390
28579W        W96953  35.970   8.253   0.415
28580W        W96954   1.406  36.993  12.492
28581W        W96955   2.734  14.237   3.375
28582W        W96956  14.169  12.833  11.579
28583W        W96957  44.944  25.590  11.544
28584W        W96958  36.452  37.084   2.830
28585W        W96959  41.893  34.109  12.485
28586W        W96960  40.415  34.909   4.835
28587W        W96961  21.231  24.038  10.496
28588W        W96962  43.936  14.229   3.169
28589W        W96963   3.414  16.668  11.898
28590W        W96964  27.053   5.805  10.618
28591W        W96965  12.653  37.953  11.997
28592W        W96966  43.450  19.075  14.482
28593W        W96967  40.536   9.741  11.474
28594W        W96968   5.388  44.813  11.073
28595W        W96969  11.760  20.727  14.395
28596W        W96970  10.794  34.489   2.868
28597W        W96971  27.972  35.501   4.238
28598W        W96972  21.138  27.470   3.777
28599W        W96973   5.869  23.719  10.533
28600W        W96974  20.112   2.892   2.693
28601W        W96975  26.149  37.341  14.372
28602W        W96976  13.209  26.473   1.337
28603W        W96977  37.431  22.015  11.537
28604W        W96978   4.903  18.751  11.863
28605W        W96979  34.614  23.523   3.268
28606W        W96980  41.983  17.568   2.829
28607W        W96981  33.092  20.180  13.024
28608W        W96982   2.740  22.208   3.224
28609W        W96983  39.841   7.217  13.350
28610W        W96984  13.211  12.352   3.176
28611W        W96985  12.764  26.200   1.389
28612W        W96986  31.129  44.777   1.880
28613W        W96987   3.822  20.534  11.498
28614W        W96988  29.948  38.436   4.151
28615W        W96989  36.962  31.073  14.291
28616W        W96990  41.797   9.651   2.798
28617W        W96991  20.730   8.823   2.821
28618W        W96992  43.438  22.562   2.666
28619W        W96993  41.934  37.485  14.483
28620W        W96994  28.045  12.162  14.966
28621W        W96995  31.125  18.737  11.937
28622W        W96996  37.074   1.299  10.557
28623W        W96997  10.373  14.773  12.521
28624W        W96998  11.296  41.505   2.192
28625W        W96999  33.444  34.946   4.153
28626W        W97000  31.145  16.255   4.603
28627W        W97001  39.817  44.266  10.994
28628W        W97002  23.101  19.711   1.233
28629W        W97003  25.040   6.194  11.572
28630W        W97004  25.966  13.744  11.452
28631W        W97005  36.051  20.686   0.756
28632W        W97006  38.922   7.902   0.371
28633W        W97007  36.488  12.272  13.318
28634W        W97008   5.767  18.195  12.839
28635W        W97009  10.842  25.538  12.504
28636W        W97010   6.795  13.686   2.815
28637W        W97011   2.431  10.826   1.266
28638W        W97012  10.799  42.411   1.843
28639W        W97013  11.215  24.619   1.257
28640W        W97014  30.424  25.680  11.110
28641W        W97015  21.254  34.435  12.908
28642W        W97016  26.116  30.123  12.455
28643W        W97017  17.690  27.673   2.335
28644W        W97018   1.929  31.061   4.774
28645W        W97019  40.353  20.529   4.290
28646W        W97020   1.789  43.477  12.535
28647W        W97021  24.562  32.579   2.376
28648W        W97022  13.252  27.021  12.083
28649W        W97023  18.743  16.249   3.641
28650W        W97024  36.401  15.141   1.277
28651W        W97025   5.881  17.303   0.439
28652W        W97026  11.163  38.459  12.897
28653W        W97027  20.563  13.211  14.350
28654W        W97028  29.050   8.272  14.512
28655W        W97029   3.792   3.856   0.740
28656W        W97030  42.005   0.266   2.387
28657W        W97031  23.503  29.476   9.966
28658W        W97032  43.991  18.255  10.958
28659W        W97033   7.284   5.193   3.817
28660W        W97034  21.743   0.474  12.927
28661W        W97035  41.853  35.512   3.253
28662W        W97036  44.005  30.036   3.686
28663W        W97037  25.969  44.956  10.019
28664W        W97038  14.241  44.332  12.824
28665W        W97039  40.951  22.186   1.818
28666W        W97040   9.388  27.542  13.879
28667W        W97041  29.135  13.127   1.922
28668W        W97042  33.055  31.450   3.381
28669W        W97043  17.768   9.760  13.844
28670W        W97044  16.651  39.376   4.342
28671W        W97045   8.862  27.487  14.799
28672W        W97046   5.409   6.680  10.605
28673W        W97047   8.838  23.705   0.917
28674W        W97048  13.767  27.449   4.330
28675W        W97049   0.904  16.766  10.953
28676W        W97050   8.659  32.583   4.230
28677W        W97051  11.184  11.251  10.978
28678W        W97052  44.418  16.658   0.918
28679W        W97053  20.036  19.074  11.486
28680W        W97054  28.578  11.655   0.940
28681W        W97055  25.155  12.675  11.531
28682W        W97056  38.976  13.252   3.821
28683W        W97057  11.235  40.906   2.902
28684W        W97058  36.584  29.166   0.377
28685W        W97059  41.307  44.963  13.308
28686W        W97060  14.822  35.975   2.393
28687W        W97061  20.139   6.401  14.002
28688W        W97062   8.381  25.211  10.897
28689W        W97063  44.803  33.423   3.313
28690W        W97064  41.442  35.009   4.225
28691W        W97065  27.112  34.869  13.877
28692W        W97066  31.541  41.392   4.287
28693W        W97067   8.754  38.892   1.446
28694W        W97068  41.292   7.717  11.120
28695W        W97069  35.857  30.921   4.671
28696W        W97070  24.715  15.327   2.768
28697W        W97071  38.439  38.359  13.024
28698W        W97072   1.287  26.013   3.340
28699W        W97073  17.224  13.302  14.340
28700W        W97074  25.511  39.476  12.025
28701W        W97075  29.443  41.840  13.940
28702W        W97076  32.950  13.338  13.012
28703W        W97077  15.640  13.217   5.295
28704W        W97078   6.380  42.303   1.430
28705W        W97079  10.341   0.304  12.980
28706W        W97080  15.225  33.512   3.840
28707W        W97081  42.971  26.611  14.868
28708W        W97082  37.563  12.358  11.442
28709W        W97083  22.011  26.574  10.926
28710W        W97084  25.702  31.410   3.154
28711W        W97085  28.027   3.287  11.874
28712W        W97086  25.006   4.917   4.766
28713W        W97087   9.809   9.335  13.326
28714W        W97088   6.733  30.441   2.875
28715W        W97089   1.781  19.766   0.817
28716W        W97090  39.026  25.186  14.023
28717W        W97091  36.912  12.774   3.840
28718W        W97092  28.109  29.931   2.715
28719W        W97093  20.627  41.811   2.801
28720W        W97094  26.185  39.403   2.410
28721W        W97095  31.513  28.635  13.460
28722W        W97096  21.581  43.333  10.497
28723W        W97097  16.083   8.754   5.199
28724W        W97098  29.464  21.218   9.930
28725W        W97099  30.440  15.713  10.938
28726W        W97100  10.745   8.850   2.846
28727W        W97101  43.903   9.388   3.358
28728W        W97102  10.822  42.839   2.873
28729W        W97103  27.498  33.091  14.298
28730W        W97104  30.440  29.082   3.163
28731W        W97105   8.666  34.872  12.545
28732W        W97106  30.529  43.341  11.077
28733W        W97107  17.712  34.396   3.655
28734W        W97108  22.536  34.972  14.809
28735W        W97109  33.401  19.762  11.870
28736W        W97110  23.171  27.984   3.759
28737W        W97111  29.918  29.086   2.897
28738W        W97112  15.819  39.355  12.377
28739W        W97113  25.108  43.398   4.712
28740W        W97114  30.981  34.917   0.479
28741W        W97115  37.053  26.197   2.354
28742W        W97116  22.689  35.476   4.703
28743W        W97117  31.612   9.283  10.407
28744W        W97118  32.926  23.138   1.740
28745W        W97119  20.106   9.385   1.397
28746W        W97120  17.170   0.936   2.855
28747W        W97121  10.227  38.021   1.699
28748W        W97122   2.384  14.303  10.013
28749W        W97123  20.742  29.516  11.044
28750W        W97124  41.830  38.482   0.939
28751W        W97125   6.389  12.153   4.706
28752W        W97126  10.744  32.065   3.642
28753W        W97127  39.349  33.935  10.431
28754W        W97128  21.112  10.674  11.876
28755W        W97129  39.815  44.470  11.469
28756W        W97130  13.607  14.823  10.488
28757W        W97131  32.606  34.113   4.131
28758W        W97132  20.143  35.570  11.863
28759W        W97133  24.993  43.925  12.462
28760W        W97134  28.638   3.925  14.823
28761W        W97135   6.307  28.996   1.927
28762W        W97136  27.675  13.106  12.393
28763W        W97137  38.543  26.111  13.003
28764W        W97138  33.559  25.096  10.403
28765W        W97139  31.582  25.652   3.841
28766W        W97140   0.285  12.717  12.898
28767W        W97141   2.404   1.359   0.854
28768W        W97142  42.944  10.155  11.459
28769W        W97143  17.211  26.633  12.542
28770W        W97144  21.546   0.280  12.003
28771W        W97145  22.708  32.982  14.813
28772W        W97146   1.812   9.859  12.071
28773W        W97147  32.894  37.035   1.333
28774W        W97148  20.652  38.488  10.567
28775W        W97149  20.637   0.792   0.372
28776W        W97150  12.617  44.330  14.321
28777W        W97151  21.131   6.258   4.215
28778W        W97152   8.265  42.333   0.956
28779W        W97153  11.163   8.177  10.595
28780W        W97154  30.632  37.369   2.861
28781W        W97155  33.929  36.358   4.716
28782W        W97156  35.413  11.782   4.160
28783W        W97157   9.350  23.639   1.884
28784W        W97158   2.231  21.698   4.722
28785W        W97159  17.760   2.391   4.283
28786W        W97160  25.577  34.473  14.847
28787W        W97161  20.135  21.256   4.169
28788W        W97162  15.624  44.885   2.363
28789W        W97163  25.628  21.520   1.753
28790W        W97164  20.658  10.176  10.405
28791W        W97165  13.289  10.380   4.179
28792W        W97166  21.605  37.425   1.742
28793W        W97167  19.685   9.797  10.585
28794W        W97168  41.513  34.883   0.923
28795W        W97169  35.371   1.877   2.236
28796W        W97170  34.921  13.811   2.320
28797W        W97171  10.281   9.704   3.831
28798W        W97172  26.577  15.130  13.398
28799W        W97173  43.325   0.479   1.414
28800W        W97174   8.250  37.431   0.937
28801W        W97175   9.265   6.224   2.397
28802W        W97176   7.248  37.910   3.828
28803W        W97177  26.700  23.008   4.232
28804W        W97178  36.454  25.172  12.547
28805W        W97179  42.875  16.144   0.445
28806W        W97180  36.579  11.750  14.393
28807W        W97181   8.343  11.837  14.356
28808W        W97182  26.521  44.885  12.540
28809W        W97183  13.149  37.972   0.744
28810W        W97184  28.454  24.052   4.253
28811W        W97185  25.634  41.876   0.847
28812W        W97186  39.909  37.389   1.378
28813W        W97187  38.500   3.714  12.917
28814W        W97188  36.483  23.028  13.474
28815W        W97189   5.928  15.792  11.899
28816W        W97190   6.727  33.456  10.901
28817W        W97191  10.867  31.982   4.237
28818W        W97192   9.383   1.360   0.352
28819W        W97193  44.421   5.887  13.983
28820W        W97194  27.659  39.913   4.747
28821W        W97195  21.199  26.141   0.947
28822W        W97196   0.782   5.244  14.793
28823W        W97197   4.444  16.686   0.729
28824W        W97198  20.711  30.069   2.830
28825W        W97199  16.654  22.689  11.494
28826W        W97200  14.194  32.391   0.349
28827W        W97201  32.915  21.566  14.440
28828W        W97202  23.728  35.426   2.726
28829W        W97203  16.773   5.369  14.315
28830W        W97204  11.653  19.753  13.930
28831W        W97205  43.378  42.458   0.364
28832W        W97206  23.125  35.601  13.028
28833W        W97207  10.786  17.738   2.706
28834W        W97208  22.570   0.786   0.850
28835W        W97209   1.810  19.209   4.781
28836W        W97210   9.196  35.549   3.869
28837W        W97211  24.565   5.817   4.243
28838W        W97212  28.186  30.134  14.467
28839W        W97213  31.114  28.970  14.311
28840W        W97214  32.457   6.352  10.552
28841W        W97215  25.176  24.567  14.989
28842W        W97216   4.291  42.030  12.993
28843W        W97217  16.131  23.204  14.027
28844W        W97218  41.363  23.174   4.765
28845W        W97219  17.647  38.453  12.021
28846W        W97220   4.898  36.390  14.888
28847W        W97221  42.432  27.064   1.878
28848W        W97222  39.454  24.070   3.210
28849W        W97223  27.456   0.771   4.613
28850W        W97224  14.227  39.510   0.911
28851W        W97225  10.376  11.290  11.504
28852W        W97226  18.132  10.662  14.920
28853W        W97227  30.002  43.469  10.975
28854W        W97228  19.272  30.097   1.210
28855W        W97229  29.512  42.388   3.761
28856W        W97230  33.113  10.331  12.954
28857W        W97231  29.018  41.916   0.337
28858W        W97232   0.769  27.503   4.707
28859W        W97233  43.970   9.265  10.892
28860W        W97234  18.656   1.935  11.906
28861W        W97235  39.935  34.534  13.449
28862W        W97236  40.845  42.392   3.705
28863W        W97237   4.748  13.139  13.433
28864W        W97238   1.419   6.268   0.850
28865W        W97239   1.416  16.154  14.462
28866W        W97240  22.618   4.702  11.579
28867W        W97241  33.066  18.610  14.986
28868W        W97242   8.313  18.637  11.592
28869W        W97243  18.076   1.306   1.771
28870W        W97244  16.221   4.860  14.811
28871W        W97245  29.472  34.966   2.895
28872W        W97246  39.370  34.993  13.876
28873W        W97247   1.371   0.411  10.458
28874W        W97248  35.527  42.465  13.853
28875W        W97249   6.420  20.589  13.880
28876W        W97250  35.033   1.762  14.935
28877W        W97251  22.190  38.904  10.069
28878W        W97252  41.352  44.892  11.512
28879W        W97253  33.099  33.538  14.850
28880W        W97254  40.502  25.083  12.871
28881W        W97255   4.850  40.854  14.940
28882W        W97256  39.904  44.293   3.665
28883W        W97257  43.831  32.925   1.216
28884W        W97258   6.848   1.971  12.481
28885W        W97259  30.447   5.754  14.372
28886W        W97260  10.821  35.099  12.007
28887W        W97261  39.047  20.035  11.056
28888W        W97262  33.512   8.332  11.865
28889W        W97263   5.396  24.152   5.099
28890W        W97264  32.992  23.990  10.544
28891W        W97265  42.987  42.888   2.751
28892W        W97266  13.331  22.144  14.935
28893W        W97267  15.596   4.316   4.292
28894W        W97268  10.231  37.993   2.399
28895W        W97269  37.084  42.023   3.870
28896W        W97270  17.266  17.288  14.792
28897W        W97271  24.501  28.524  11.397
28898W        W97272  41.487   0.363  10.641
28899W        W97273  31.963  26.139  10.430
28900W        W97274  35.376  38.069   2.250
28901W        W97275  41.314  42.866  12.088
28902W        W97276  27.080   1.824  10.612
28903W        W97277  41.483  28.530   2.762
28904W        W97278   4.831  27.077   4.706
28905W        W97279  44.364  30.596  11.932
28906W        W97280   1.344  31.401   2.218
28907W        W97281   3.722  16.767  14.279
28908W        W97282   1.272  28.667   1.375
28909W        W97283  23.199  22.638   3.345
28910W        W97284  14.266  11.161  14.926
28911W        W97285   6.692   0.277  13.374
28912W        W97286   0.844  26.685  12.495
28913W        W97287  40.848  38.345  11.563
28914W        W97288   7.371  43.804  14.452
28915W        W97289  26.975   3.354   2.690
28916W        W97290  18.682  25.696   4.312
28917W        W97291  12.292  24.065  13.970
28918W        W97292   6.362  25.490  12.016
28919W        W97293  18.078  33.419  12.974
28920W        W97294  36.519   6.827   3.279
28921W        W97295  42.808   6.722  11.394
28922W        W97296  27.127  38.458   3.234
28923W        W97297  26.525  26.954  10.595
28924W        W97298   8.680  15.138   0.855
28925W        W97299  24.209  23.570  11.400
28926W        W97300  12.684   7.877  14.492
28927W        W97301   2.856  42.974   3.274
28928W        W97302   6.909  12.719   1.848
28929W        W97303  26.042   6.859  13.448
28930W        W97304   8.684  14.606  12.944
28931W        W97305  22.635  27.191   3.682
28932W        W97306  24.565  35.493   4.239
28933W        W97307  43.411  39.472  12.441
28934W        W97308   2.311  10.827   4.339
28935W        W97309  32.004   7.227  10.966
28936W        W97310  30.078  23.211   2.252
28937W        W97311  16.148  17.255  12.859
28938W        W97312   8.689  27.960  14.850
28939W        W97313  43.866  21.606  14.866
28940W        W97314   7.840  20.762  10.951
28941W        W97315  30.420  29.075  13.431
28942W        W97316  16.073  13.228  10.636
28943W        W97317  10.767  26.628   1.702
28944W        W97318  35.369   2.332  10.472
28945W        W97319  30.927  10.232   1.303
28946W        W97320  23.161  35.928   0.815
28947W        W97321  36.061  22.056  14.461
28948W        W97322  37.934  34.568   1.821
28949W        W97323  41.944  33.034   2.853
28950W        W97324  23.052  37.341   2.370
28951W        W97325  44.357  17.673   1.811
28952W        W97326   7.888  18.196   5.082
28953W        W97327  26.088  23.078  14.032
28954W        W97328  30.499  43.378  12.450
28955W        W97329  38.830  34.424  14.900
28956W        W97330  16.579   6.800   3.644
28957W        W97331   6.387  29.090  11.443
28958W        W97332  19.708  34.510  12.866
28959W        W97333  37.392  30.583   2.674
28960W        W97334  42.933  18.595   1.817
28961W        W97335  16.771  31.132  10.902
28962W        W97336  27.089  10.177   0.327
28963W        W97337  34.512  24.536  12.867
28964W        W97338  10.783  40.829  13.941
28965W        W97339   0.972  44.393  14.370
28966W        W97340  40.386  16.283   4.276
28967W        W97341   9.817  10.817  12.030
28968W        W97342  41.461  17.764  12.843
28969W        W97343   6.797  10.167  12.049
28970W        W97344   7.713  30.150   0.913
28971W        W97345  24.710   4.219   0.931
28972W        W97346  44.820  11.628   4.233
28973W        W97347  26.504  30.435  14.895
28974W        W97348  29.945  44.295  13.469
28975W        W97349  23.114  33.534   0.927
28976W        W97350  13.270  28.007  12.355
28977W        W97351  17.616  20.184  12.501
28978W        W97352  21.131  16.310  14.411
28979W        W97353  22.036  23.604   1.389
28980W        W97354  17.290  27.499  10.530
28981W        W97355  34.566  12.124   3.712
28982W        W97356  22.713  37.846   3.183
28983W        W97357  41.374   6.225  12.020
28984W        W97358   5.303   2.734   2.764
28985W        W97359  20.673  33.953   1.221
28986W        W97360  13.834  12.729   2.760
28987W        W97361  36.536   5.720   3.657
28988W        W97362  41.481  26.073  14.422
28989W        W97363  25.984  19.136  11.057
28990W        W97364  21.740  20.583  13.024
28991W        W97365  40.494   3.340   1.338
28992W        W97366   7.897  35.918  12.090
28993W        W97367  27.558   9.824   2.734
28994W        W97368  11.778   7.188   1.363
28995W        W97369  18.235   7.882   0.302
28996W        W97370   9.677   8.675   1.932
28997W        W97371   4.298  41.476  12.405
28998W        W97372  34.553   8.836  10.917
28999W        W97373  39.927   0.281   0.784
29000W        W97374  12.278  42.851   3.766
29001W        W97375  29.075  21.701  14.445
29002W        W97376  15.823  28.065  12.361
29003W        W97377  35.055  25.049   3.153
29004W        W97378  32.985  23.040   0.288
29005W        W97379   9.178  29.582   4.354
29006W        W97380  24.699  13.772   2.417
29007W        W97381  11.225   0.756   4.814
29008W        W97382  11.658  37.856   2.788
29009W        W97383  40.948  16.611  12.941
29010W        W97384   5.775   2.839   1.761
29011W        W97385  22.668  15.273  11.086
29012W        W97386  10.768  18.157   1.873
29013W        W97387  31.900  17.150   4.624
29014W        W97388  38.986  15.778   1.210
29015W        W97389  14.199   9.183   2.694
29016W        W97390   3.821  17.074   4.799
29017W        W97391  38.001   7.268   4.182
29018W        W97392  17.163  44.431   2.781
29019W        W97393   2.415  16.753   2.869
29020W        W97394  44.834  31.952  11.464
29021W        W97395  24.212  25.187  12.996
29022W        W97396   1.238  11.647   0.251
29023W        W97397  34.442  37.019   1.311
29024W        W97398   9.375  34.513   4.212
29025W        W97399  43.981   3.807   0.749
29026W        W97400   1.259  25.573  10.535
29027W        W97401  38.451  21.521  14.421
29028W        W97402  40.002  43.495   4.613
29029W        W97403   5.862  19.223   4.699
29030W        W97404   6.737  16.203   3.786
29031W        W97405  25.002  25.706  14.868
29032W        W97406  37.012  25.481   2.357
29033W        W97407  38.067  44.458  13.456
29034W        W97408  40.831  40.428  13.485
29035W        W97409  27.453  13.734   3.690
29036W        W97410   2.733   3.378  11.610
29037W        W97411  28.028  19.729  13.885
29038W        W97412  18.564  24.171   0.829
29039W        W97413   3.724   6.813  13.459
29040W        W97414  19.554  39.822   9.985
29041W        W97415  10.160  31.948  10.996
29042W        W97416  21.041  40.988   2.837
29043W        W97417  13.697  19.107  14.468
29044W        W97418  23.638  21.073   4.269
29045W        W97419  35.458  14.152   2.346
29046W        W97420  41.805  23.148  14.810
29047W        W97421   5.301  26.532   2.266
29048W        W97422  28.514  20.050  11.543
29049W        W97423   3.259  18.773   2.704
29050W        W97424  24.499  35.577  13.435
29051W        W97425  37.470  35.409  12.562
29052W        W97426  13.775  41.939   3.348
29053W        W97427  13.769  34.995   0.343
29054W        W97428   5.790  28.494  10.952
29055W        W97429  10.176  34.089   2.300
29056W        W97430  34.437  43.991   4.744
29057W        W97431  43.297   4.763   1.300
29058W        W97432   4.413  39.379   0.744
29059W        W97433  36.880  34.101  10.555
29060W        W97434  25.186  10.712   4.142
29061W        W97435   1.350   7.308   3.677
29062W        W97436   3.833  15.279   3.865
29063W        W97437   5.204  26.024   4.751
29064W        W97438  31.131  26.963   4.276
29065W        W97439   4.399  35.079   3.238
29066W        W97440  42.387   5.892  10.408
29067W        W97441  43.303   2.298   2.265
29068W        W97442  29.475  44.468   3.358
29069W        W97443  23.543  25.200   2.417
29070W        W97444  13.641  12.350  10.428
29071W        W97445  21.082  38.510   4.331
29072W        W97446  27.486  17.301   4.267
29073W        W97447  40.506  13.800  14.929
29074W        W97448  37.537  40.049  13.806
29075W        W97449  34.062  31.630   1.352
29076W        W97450   8.235  16.790   3.698
29077W        W97451  16.673  18.587  12.075
29078W        W97452  32.587  22.747   3.209
29079W        W97453  25.547  24.606   3.197
29080W        W97454  24.668  24.697   2.716
29081W        W97455  15.210   4.345   0.465
29082W        W97456  36.890  21.092  14.917
29083W        W97457   5.308  33.551   3.352
29084W        W97458  26.609   1.773   2.740
29085W        W97459  38.375  11.653   4.671
29086W        W97460  14.812   7.307   1.338
29087W        W97461  26.151   7.852   4.641
29088W        W97462  13.764  29.604   3.745
29089W        W97463  44.444  28.072  11.010
29090W        W97464  39.342  31.089  14.887
29091W        W97465  35.972  40.306   2.739
29092W        W97466  27.963  41.507   3.821
29093W        W97467   1.934  42.502   3.320
29094W        W97468  31.496  41.965  14.340
29095W        W97469  33.531  41.419   1.767
29096W        W97470  18.778  33.412   0.460
29097W        W97471  37.481  21.741  13.306
29098W        W97472  33.438  41.838   5.235
29099W        W97473   3.400   6.427   2.801
29100W        W97474  11.856  35.902   2.256
29101W        W97475  24.170   4.901  11.114
29102W        W97476  42.989  13.607  13.831
29103W        W97477  12.128   3.229  14.969
29104W        W97478  11.176  34.060   3.865
29105W        W97479  14.324  13.803   3.814
29106W        W97480  19.597  27.099   4.684
29107W        W97481  27.195  30.153   0.963
29108W        W97482   7.825  42.427  14.761
29109W        W97483  14.629  42.812   2.771
29110W        W97484   0.476   8.774   4.747
29111W        W97485  41.410  37.532  11.574
29112W        W97486  19.644  40.402   2.860
29113W        W97487  36.561  29.634  12.993
29114W        W97488   5.758  26.470   1.851
29115W        W97489   2.428   3.343   1.376
29116W        W97490  13.317  19.647   4.628
29117W        W97491  40.001  14.816  10.956
29118W        W97492  17.729  26.652   4.609
29119W        W97493  29.026  10.182  13.361
29120W        W97494  12.788  15.115  13.383
29121W        W97495  17.711  24.586   0.750
29122W        W97496  16.741   1.477  10.499
29123W        W97497  14.693  33.572   4.119
29124W        W97498  38.944  26.111  10.992
29125W        W97499  18.267  28.647   1.784
29126W        W97500  24.613  15.177   2.308
29127W        W97501  20.575  16.803   2.340
29128W        W97502  41.903  38.477   0.322
29129W        W97503   8.200   2.824  14.946
29130W        W97504   9.200  21.520   1.826
29131W        W97505  15.606  38.540   4.678
29132W        W97506   3.837  26.166   4.306
29133W        W97507  19.536  39.489   1.795
29134W        W97508  15.246  27.146  14.326
29135W        W97509  21.108  11.623  12.471
29136W        W97510  38.012  14.666   1.715
29137W        W97511  21.148   5.792  12.518
29138W        W97512  16.812  21.018   3.295
29139W        W97513  26.642  43.781  14.024
29140W        W97514  43.423  16.588   2.859
29141W        W97515   7.907  30.108   3.183
29142W        W97516  39.552  26.969  14.461
29143W        W97517  27.620  10.744  10.535
29144W        W97518  36.590  35.990  12.829
29145W        W97519  10.212  16.751  11.389
29146W        W97520  29.548  13.343  11.906
29147W        W97521  22.636  31.967  12.014
29148W        W97522   8.388  11.801  11.097
29149W        W97523   6.748   8.858  13.860
29150W        W97524  37.949  40.356  14.789
29151W        W97525  26.988  10.342   4.645
29152W        W97526  13.739  14.275   2.233
29153W        W97527   3.741  13.330   1.872
29154W        W97528  28.971   0.310  14.336
29155W        W97529  31.041  36.464  13.001
29156W        W97530  32.404   6.241  13.458
29157W        W97531  11.829  30.121  11.044
29158W        W97532  34.507   9.870  14.816
29159W        W97533  24.629  28.110   0.264
29160W        W97534  21.198  28.589  11.876
29161W        W97535  42.814  27.065   0.405
29162W        W97536  15.792  24.991   1.335
29163W        W97537  40.920  33.591   4.821
29164W        W97538  17.236  23.025   2.218
29165W        W97539  37.409  42.522  14.436
29166W        W97540   8.392  22.102   2.178
29167W        W97541  19.585  10.744  10.931
29168W        W97542  36.884   8.174  13.405
29169W        W97543  13.143   7.678   1.265
29170W        W97544  16.098  40.402  13.978
29171W        W97545  38.517  33.064  11.426
29172W        W97546  25.654  12.175   4.118
29173W        W97547  10.163  22.546  13.516
29174W        W97548   3.314   6.189   3.845
29175W        W97549  11.130  33.024  11.874
29176W        W97550  37.526  44.428   4.263
29177W        W97551  26.553   6.251   5.197
29178W        W97552  27.448  11.372   0.745
29179W        W97553  25.531  26.148   4.669
29180W        W97554  23.573  31.491   3.844
29181W        W97555   9.172  17.636   0.425
29182W        W97556  25.035  28.661   1.817
29183W        W97557  40.858  23.583   4.626
29184W        W97558  38.535  43.991  11.573
29185W        W97559  30.616   8.694  14.937
29186W        W97560  27.518  42.457   1.829
29187W        W97561   2.328   5.274  14.864
29188W        W97562  11.280  17.686  10.462
29189W        W97563  37.949  16.658   1.884
29190W        W97564   9.197   7.721   3.757
29191W        W97565  37.952  40.315  12.954
29192W        W97566  42.843  42.437  11.518
29193W        W97567  38.428  44.278  12.987
29194W        W97568   5.294  28.549  13.312
29195W        W97569  31.563  18.651  10.968
29196W        W97570  24.166  12.653   0.325
29197W        W97571  29.129  24.149  10.979
29198W        W97572  20.032  13.824   3.653
29199W        W97573  25.059  15.618  11.903
29200W        W97574   1.766  17.085   1.301
29201W        W97575   3.786  18.787   2.669
29202W        W97576  25.047   7.234  12.962
29203W        W97577  12.169  38.880   2.884
29204W        W97578  22.111  41.897   3.186
29205W        W97579  37.427   1.967   3.335
29206W        W97580   3.933  27.131  13.974
29207W        W97581   7.269  26.635  12.028
29208W        W97582  30.136  18.738   2.671
29209W        W97583  25.034  21.224  13.352
29210W        W97584  34.600  16.314   4.350
29211W        W97585  16.243  36.431   1.892
29212W        W97586   1.969  21.653  14.327
29213W        W97587  11.722  31.640   1.420
29214W        W97588  17.710   0.312  10.960
29215W        W97589  20.033   2.927  10.461
29216W        W97590  36.917  18.185   1.805
29217W        W97591  36.060  18.723  14.327
29218W        W97592  31.556  40.321   3.793
29219W        W97593  16.696  15.759  11.870
29220W        W97594   7.673  37.853  13.971
29221W        W97595  42.453  37.926  14.357
29222W        W97596  41.353   7.242  14.954
29223W        W97597   2.903  10.301  11.125
29224W        W97598   3.912  42.415   2.183
29225W        W97599  32.920   1.914  12.980
29226W        W97600  20.240  15.732   3.748
29227W        W97601  41.292  14.738   0.412
29228W        W97602  18.209   9.728   2.206
29229W        W97603  41.947  44.799  10.494
29230W        W97604  29.434   4.208  11.896
29231W        W97605  39.986  29.516   2.714
29232W        W97606  17.197  44.922  11.893
29233W        W97607  36.470  36.565  11.537
29234W        W97608  16.121  20.034  12.499
29235W        W97609  41.015  26.007   2.408
29236W        W97610   2.329  29.566  12.862
29237W        W97611  16.213   7.829   3.696
29238W        W97612  40.439  15.168   1.759
29239W        W97613  23.174  38.889  12.841
29240W        W97614  18.263  34.903  13.812
29241W        W97615   9.844  23.093   2.248
29242W        W97616  33.465  38.464   0.319
29243W        W97617  19.067  15.608  14.863
29244W        W97618  23.048  17.282   4.134
29245W        W97619  21.701  10.223   3.192
29246W        W97620  10.329  42.480  12.525
29247W        W97621  31.922   4.334  11.975
29248W        W97622  35.943  30.412  12.894
29249W        W97623  42.870  30.561  10.628
29250W        W97624  22.053  15.787  13.037
29251W        W97625  22.656  39.018   1.384
29252W        W97626  18.251  10.347  14.470
29253W        W97627  44.893  41.316   4.225
29254W        W97628  44.927   2.763   1.270
29255W        W97629  12.839   0.884  13.826
29256W        W97630  25.010  20.690  12.346
29257W        W97631   2.898   8.704  11.006
29258W        W97632  32.550  27.570  14.345
29259W        W97633  42.978   5.314   0.925
29260W        W97634   8.315  42.956  12.090
29261W        W97635  11.857   7.297  10.020
29262W        W97636  41.461  22.667   0.418
29263W        W97637  23.596   9.221  11.412
29264W        W97638  22.612  13.621   4.723
29265W        W97639  44.456   0.784   1.321
29266W        W97640  29.645  28.152   1.280
29267W        W97641  22.023  37.002  13.970
29268W        W97642  28.518  28.161  10.464
29269W        W97643   9.805  20.194  10.942
29270W        W97644  12.144  21.565  13.928
29271W        W97645  26.087  40.918  12.926
29272W        W97646  35.501  20.543  12.450
29273W        W97647   0.388   0.882   2.339
29274W        W97648  29.924  37.919   3.676
29275W        W97649  38.466  31.092  13.374
29276W        W97650  19.671  20.755   2.220
29277W        W97651   4.299   5.289   4.193
29278W        W97652  38.996  26.097   3.700
29279W        W97653   7.355  20.697  10.523
29280W        W97654  29.633  28.560   1.395
29281W        W97655  32.982  39.034   1.388
29282W        W97656   9.684  23.053  14.902
29283W        W97657  24.541  21.644  10.565
29284W        W97658  14.731  16.113   3.754
29285W        W97659  42.964  42.978  12.854
29286W        W97660  22.673  15.682  10.504
29287W        W97661   4.784   4.795   2.240
29288W        W97662  21.756  41.319  14.014
29289W        W97663   4.808   0.827   4.654
29290W        W97664  11.766  18.284   0.950
29291W        W97665  21.605  16.270   0.778
29292W        W97666   7.843   7.220   2.239
29293W        W97667  13.287  31.598  14.985
29294W        W97668  41.435   7.386  10.545
29295W        W97669  20.556  14.673  14.508
29296W        W97670  36.046  39.439   2.677
29297W        W97671   2.845   9.250  14.795
29298W        W97672  34.518   9.768  11.998
29299W        W97673   8.838  20.679   0.422
29300W        W97674   9.319  18.055   1.337
29301W        W97675  37.477  33.596  13.349
29302W        W97676  28.114   7.315   0.909
29303W        W97677  33.104  10.737  14.022
29304W        W97678  19.672  11.174   1.390
29305W        W97679  40.949   4.703   4.626
29306W        W97680   2.746  13.104  11.559
29307W        W97681  18.224  30.915   4.169
29308W        W97682  36.363   1.255  13.863
29309W        W97683   7.186  43.976   0.455
29310W        W97684   7.373  30.093   0.419
29311W        W97685  43.402  33.977  10.589
29312W        W97686  35.037  23.240  14.360
29313W        W97687  21.684  33.900   2.873
29314W        W97688  37.448  31.536  12.061
29315W        W97689  28.957  40.371   1.839
29316W        W97690  35.438  16.212  14.989
29317W        W97691  44.413  10.716   2.310
29318W        W97692   6.292   2.782  14.942
29319W        W97693  14.198  43.470   1.800
29320W        W97694  21.183  12.781   4.815
29321W        W97695  41.834   4.773   2.745
29322W        W97696   0.893   7.353  11.067
29323W        W97697  28.453  37.368  14.931
29324W        W97698  10.689  24.189  13.029
29325W        W97699  12.306   8.260  12.346
29326W        W97700  21.090  31.571  12.065
29327W        W97701  24.206  25.030  12.473
29328W        W97702   2.449  34.390   2.813
29329W        W97703  42.348   3.304  13.451
29330W        W97704  36.955  36.566   3.780
29331W        W97705  14.324  29.027   2.893
29332W        W97706  34.440  13.659  14.355
29333W        W97707  35.515  34.078  13.041
29334W        W97708  26.076  10.316  11.503
29335W        W97709   7.685  17.134  10.014
29336W        W97710  31.621  38.882  11.001
29337W        W97711  13.638  33.567  13.358
29338W        W97712  41.795  38.983  12.922
29339W        W97713  42.927  42.911   0.255
29340W        W97714  11.131   1.861  14.845
29341W        W97715  41.966  10.291   4.649
29342W        W97716  30.477  22.732  10.562
29343W        W97717  29.984  23.556  11.491
29344W        W97718  10.226  13.792  13.891
29345W        W97719  31.994  31.562  14.376
29346W        W97720   4.446   8.805  13.010
29347W        W97721  44.770  24.170  14.966
29348W        W97722  16.768  31.460   1.921
29349W        W97723  12.361  43.792  10.440
29350W        W97724   4.882  12.284   2.189
29351W        W97725  26.665  27.960  13.449
29352W        W97726  33.600  39.827  13.832
29353W        W97727   2.726   6.376  14.488
29354W        W97728   6.908  16.144   0.936
29355W        W97729  25.978  37.056  12.091
29356W        W97730  39.019  23.538   0.249
29357W        W97731  43.387   3.824   4.320
29358W        W97732  40.360  25.997   4.152
29359W        W97733  42.392   9.251  11.439
29360W        W97734  36.492  13.824   2.379
29361W        W97735  27.145  14.801   2.791
29362W        W97736  18.177   7.864   4.615
29363W        W97737  43.968  22.611   1.335
29364W        W97738  25.994  36.465  11.571
29365W        W97739  41.944  30.540  14.955
29366W        W97740  31.536  37.967   2.686
29367W        W97741   6.348   8.230   4.801
29368W        W97742  35.480  15.627  12.860
29369W        W97743  14.676  44.911   3.708
29370W        W97744   0.793   5.329   3.273
29371W        W97745  44.953  41.533  14.319
29372W        W97746  37.515  18.643   2.297
29373W        W97747   8.866  31.536   3.845
29374W        W97748  27.051  36.352   4.706
29375W        W97749   2.818  21.178  12.409
29376W        W97750  12.732  21.675  11.393
29377W        W97751  12.810   0.970  13.021
29378W        W97752  34.415  21.755   3.758
29379W        W97753  13.118   0.837  14.291
29380W        W97754  38.329   0.767   4.260
29381W        W97755  43.372  39.484   2.708
29382W        W97756  31.140  29.487  12.074
29383W        W97757  41.947  10.634   2.891
29384W        W97758  40.354  14.624   0.417
29385W        W97759   8.729  27.447   1.858
29386W        W97760  13.738   7.678   3.716
29387W        W97761  31.026  42.289  12.361
29388W        W97762  23.060  23.627   3.805
29389W        W97763  18.639  23.237   3.869
29390W        W97764  27.066  43.437   3.309
29391W        W97765  21.580  25.044  11.541
29392W        W97766   2.460  37.976   4.632
29393W        W97767  19.277  32.632  12.393
29394W        W97768  23.194   3.379   0.846
29395W        W97769  22.559  22.097  10.643
29396W        W97770  36.371  35.392   1.701
29397W        W97771   9.163  30.640  11.408
29398W        W97772  25.543  11.253  13.966
29399W        W97773  12.682  16.795   3.714
29400W        W97774   9.646   3.319  11.487
29401W        W97775  16.236  39.835  14.828
29402W        W97776  26.082   2.243   3.358
29403W        W97777  41.312  19.580  11.573
29404W        W97778  12.763   3.952   1.385
29405W        W97779  18.587  20.558   4.317
29406W        W97780  28.658   5.361   4.666
29407W        W97781   0.365   5.770   4.625
29408W        W97782  25.970  22.190  10.902
29409W        W97783  44.392  29.954   4.257
29410W        W97784  16.263   6.809   2.775
29411W        W97785   2.297  22.252  13.025
29412W        W97786  14.315   4.896   1.278
29413W        W97787  37.396   7.730  14.929
29414W        W97788  10.279   2.341   2.798
29415W        W97789  31.464  21.197  11.483
29416W        W97790  42.439  28.002  12.494
29417W        W97791  10.690   0.443   3.692
29418W        W97792  32.464  42.291   1.781
29419W        W97793  43.493  23.153   3.851
29420W        W97794  20.544  38.348   5.219
29421W        W97795  34.426   8.358   2.257
29422W        W97796  23.229  42.778   2.770
29423W        W97797  10.873   3.436  13.459
29424W        W97798   1.801  10.226  14.935
29425W        W97799   8.257  44.420  11.038
29426W        W97800  19.580  20.211   1.844
29427W        W97801  35.019  40.000   4.327
29428W        W97802  20.168  41.516   1.425
29429W        W97803   3.299  37.398  13.863
29430W        W97804  26.975   5.878   2.407
29431W        W97805  20.243  26.094  13.886
29432W        W97806  26.573  43.284   0.483
29433W        W97807  25.554  39.457   2.804
29434W        W97808  15.248  32.115  11.974
29435W        W97809   5.386  22.570   3.860
29436W        W97810  17.787  14.256   2.257
29437W        W97811  10.636  38.391   0.865
29438W        W97812  26.026  35.406   2.242
29439W        W97813  39.063  19.677  13.519
29440W        W97814  44.898  12.703  10.897
29441W        W97815  25.176  15.106   1.363
29442W        W97816  41.332   6.247   4.260
29443W        W97817   8.664  40.023  14.432
29444W        W97818  29.953  14.658  12.406
29445W        W97819  44.783  44.415   0.319
29446W        W97820   7.710  35.105  13.413
29447W        W97821  16.266   8.716  12.431
29448W        W97822  24.646   1.841  11.951
29449W        W97823  20.224   0.840   2.672
29450W        W97824  11.218  11.246   0.951
29451W        W97825  29.094   6.765  12.956
29452W        W97826  28.681   3.785  11.876
29453W        W97827  22.580  12.188   1.364
29454W        W97828  41.314  43.809   3.291
29455W        W97829  39.362  40.854  13.355
29456W        W97830  41.420  37.905  14.988
29457W        W97831  20.648  24.228  10.503
29458W        W97832  31.011   8.790  14.894
29459W        W97833   1.789   7.186  12.349
29460W        W97834   8.777   9.678   1.361
29461W        W97835   3.281   9.241   3.303
29462W        W97836  38.840  26.145  12.827
29463W        W97837   8.372  25.201  10.148
29464W        W97838  10.151  12.610  13.804
29465W        W97839  30.146  43.275   3.345
29466W        W97840  13.293  11.866  14.346
29467W        W97841   9.781   1.889   2.831
29468W        W97842   2.751  25.033  14.402
29469W        W97843  34.900  10.295  14.362
29470W        W97844   5.349  21.551   4.318
29471W        W97845  30.655  21.757   2.760
29472W        W97846  22.238  30.558  10.641
29473W        W97847  30.631  28.059  14.364
29474W        W97848  13.215  30.484  12.067
29475W        W97849   8.711  44.886   4.209
29476W        W97850  37.375  34.915  14.409
29477W        W97851  24.177  17.083  10.135
29478W        W97852   9.349  14.835  13.061
29479W        W97853  37.523  31.959   0.884
29480W        W97854  19.591  14.593   2.402
29481W        W97855   0.419  10.763   2.379
29482W        W97856  39.937  16.775   4.804
29483W        W97857  24.635  11.849   1.294
29484W        W97858  17.073  27.487   1.214
29485W        W97859   4.404  34.598  13.844
29486W        W97860  14.170  33.539   1.277
29487W        W97861  44.960  37.996   1.312
29488W        W97862  42.946  36.593  11.102
29489W        W97863  44.455  35.467  11.509
29490W        W97864  29.441  41.018   3.866
29491W        W97865  26.186   6.849   0.468
29492W        W97866  24.617  35.054   1.777
29493W        W97867   0.387   5.343  12.575
29494W        W97868  13.831  13.315  11.592
29495W        W97869  19.275   0.254   0.474
29496W        W97870  17.088   9.316   0.468
29497W        W97871  28.008  41.375  13.459
29498W        W97872  28.991  35.995  14.380
29499W        W97873  17.271  33.976  14.418
29500W        W97874  33.467  44.265  12.453
29501W        W97875  36.387  22.534   3.665
29502W        W97876  37.367  35.854  14.859
29503W        W97877  26.667  27.185   4.246
29504W        W97878  22.012   5.422  10.642
29505W        W97879   3.390   0.328   4.156
29506W        W97880   4.911  32.891  11.489
29507W        W97881  40.354  20.554  13.868
29508W        W97882  36.940   8.814  13.341
29509W        W97883  34.111   4.288   2.190
29510W        W97884  34.547   3.287   2.780
29511W        W97885  11.635  20.684   4.770
29512W        W97886  10.829  24.607   4.131
29513W        W97887  42.390   3.287   2.837
29514W        W97888   8.674  41.820  14.804
29515W        W97889  33.399   9.223   2.796
29516W        W97890  28.076  42.297  14.480
29517W        W97891  18.747  21.692  14.758
29518W        W97892   7.186  43.366   1.430
29519W        W97893  21.731  38.569   3.693
29520W        W97894  22.591   8.203   2.892
29521W        W97895  23.179  39.416  14.300
29522W        W97896  19.121  16.728   1.842
29523W        W97897  16.755  22.199  11.012
29524W        W97898  33.110  18.266  13.532
29525W        W97899   4.701  27.504  11.887
29526W        W97900  25.098  16.745   2.305
29527W        W97901  31.038  20.676   4.297
29528W        W97902  22.238  35.019   2.299
29529W        W97903   3.300   8.350   1.334
29530W        W97904  13.715  37.485   1.278
29531W        W97905   5.328   2.749  14.286
29532W        W97906  24.631  24.138  14.340
29533W        W97907  24.515   2.931  14.784
29534W        W97908  40.483  12.221  10.595
29535W        W97909  37.338  21.520  10.915
29536W        W97910  41.535  42.924   3.771
29537W        W97911   2.401  14.689  11.380
29538W        W97912  44.444   6.206   1.229
29539W        W97913  20.243  12.731  14.816
29540W        W97914  22.207  37.512   3.725
29541W        W97915   2.762  33.111  11.880
29542W        W97916   0.257  33.057   1.698
29543W        W97917  16.753  25.485  14.488
29544W        W97918   8.730  16.687  13.953
29545W        W97919   2.739  33.421   3.217
29546W        W97920   1.287  21.579  10.970
29547W        W97921   0.861  38.054  11.428
29548W        W97922   3.252  18.635  14.798
29549W        W97923   9.255  24.991  10.072
29550W        W97924  30.152  27.616   4.117
29551W        W97925  31.001  30.565  10.545
29552W        W97926  39.969   6.806   0.960
29553W        W97927  31.621  37.394  12.086
29554W        W97928  19.116  19.733  14.469
29555W        W97929   2.822  30.010   0.337
29556W        W97930   3.889  34.981   1.406
29557W        W97931  10.828   6.710   0.838
29558W        W97932  32.033  22.173   2.218
29559W        W97933  24.648   1.357   1.931
29560W        W97934  40.519  11.745   1.404
29561W        W97935  40.340  39.017  12.489
29562W        W97936  43.791   0.413   0.841
29563W        W97937  16.592  32.479   4.196
29564W        W97938   6.310   5.344  13.314
29565W        W97939  13.791  32.991  12.965
29566W        W97940  13.720  21.699   0.326
29567W        W97941  41.965  27.996   3.246
29568W        W97942  42.968  37.399  11.053
29569W        W97943  36.393  22.747   3.320
29570W        W97944  10.645  29.166  12.408
29571W        W97945  35.972   0.858  12.484
29572W        W97946  37.473  40.965  11.889
29573W        W97947  18.214   5.857   3.841
29574W        W97948  35.923  29.105   3.338
29575W        W97949  36.347  37.423   0.748
29576W        W97950  35.065  34.970  12.516
29577W        W97951  32.942   9.806   1.890
29578W        W97952  14.595  18.141   3.258
29579W        W97953  17.197  30.439  11.949
29580W        W97954  32.607  23.517   4.325
29581W        W97955  13.129  39.960   4.344
29582W        W97956   7.741   3.803   1.287
29583W        W97957  12.225  38.979  13.317
29584W        W97958  12.322  30.020   3.150
29585W        W97959   0.336  10.656  12.882
29586W        W97960  37.041   3.223   1.772
29587W        W97961  43.286  42.487  11.050
29588W        W97962  27.021  11.194   4.252
29589W        W97963  42.381  28.468   3.834
29590W        W97964  28.935   5.894   4.600
29591W        W97965  29.494  12.241   4.821
29592W        W97966   3.890  17.194  14.938
29593W        W97967  41.983   3.323   3.653
29594W        W97968  25.636  24.494  14.294
29595W        W97969  25.204   9.264   0.785
29596W        W97970  18.058  23.520   0.276
29597W        W97971  42.419  31.466   3.664
29598W        W97972  13.675  32.426   4.300
29599W        W97973  35.534  22.600   3.861
29600W        W97974  24.979  40.435   1.344
29601W        W97975  36.451  44.283  11.875
29602W        W97976  39.484  28.164   1.726
29603W        W97977  18.240  38.045   1.365
29604W        W97978  12.650  30.005  12.092
29605W        W97979  33.454   6.858  11.587
29606W        W97980  11.290  33.963   2.665
29607W        W97981  37.439  22.615  14.973
29608W        W97982   9.279  10.873   0.785
29609W        W97983  16.617   9.771   2.364
29610W        W97984  42.370  38.856  10.921
29611W        W97985   5.259   2.237   1.219
29612W        W97986  20.635  12.834   1.343
29613W        W97987  11.838  32.592  12.574
29614W        W97988   0.888   2.872   2.320
29615W        W97989  19.706   2.841  11.106
29616W        W97990  27.159   5.409  14.760
29617W        W97991  23.532  42.421   4.833
29618W        W97992  13.309   5.335   1.391
29619W        W97993   9.739   1.877  10.962
29620W        W97994  20.747  30.057   1.382
29621W        W97995  24.033   3.954   1.294
29622W        W97996  40.938   8.840   1.281
29623W        W97997  31.132   6.332   4.736
29624W        W97998   9.807  15.714  11.443
29625W        W97999  39.901  28.000  14.018
29626W        W98000   7.726  18.685   4.714
29627W        W98001  28.956  41.845   4.201
29628W        W98002  12.689  29.465  12.042
29629W        W98003  14.160  18.555   4.211
29630W        W98004  28.676  23.145  13.959
29631W        W98005  18.169  18.592   2.280
29632W        W98006  16.121  17.737  14.945
29633W        W98007  29.159  14.111  13.309
29634W        W98008  31.406  32.619   0.839
29635W        W98009  10.721   2.278   2.808
29636W        W98010   3.412  42.482   1.738
29637W        W98011  19.074   9.672   3.681
29638W        W98012  18.098   9.794   4.165
29639W        W98013   0.947  41.926   0.246
29640W        W98014  14.282   7.188   1.909
29641W        W98015  12.178  34.455   1.818
29642W        W98016   0.878  28.436   0.783
29643W        W98017  18.661  43.448   2.743
29644W        W98018  41.866  11.763   2.280
29645W        W98019  27.560  28.555  12.476
29646W        W98020  17.160   9.319  12.039
29647W        W98021   4.811  20.044   1.272
29648W        W98022  30.094   5.833   0.393
29649W        W98023   8.775   3.732  13.354
29650W        W98024  22.601  44.463  13.516
29651W        W98025  29.583  28.630  10.903
29652W        W98026  37.570   5.344   0.298
29653W        W98027  36.846   8.714  11.898
29654W        W98028   8.217  31.466   1.822
29655W        W98029  14.254   3.903   5.231
29656W        W98030  11.207  34.016   4.799
29657W        W98031  37.869  18.134   3.736
29658W        W98032  41.860   5.210  10.495
29659W        W98033   4.867  24.617  11.604
29660W        W98034  27.610  25.976   4.272
29661W        W98035  22.728  12.677   0.886
29662W        W98036  15.757  13.224   1.300
29663W        W98037  20.626  34.597   1.920
29664W        W98038  29.941   0.957   5.311
29665W        W98039  13.739   2.356  12.889
29666W        W98040  18.109   5.201  13.792
29667W        W98041  37.996  29.151   9.969
29668W        W98042  39.458   7.751  12.083
29669W        W98043  30.127  42.853  13.811
29670W        W98044  43.421  34.987  10.958
29671W        W98045  18.061  36.857   1.250
29672W        W98046  34.421   7.306   4.690
29673W        W98047  25.118  39.065   0.447
29674W        W98048  28.516   2.424   2.685
29675W        W98049   8.275  19.674   2.354
29676W        W98050  17.197  32.082   2.395
29677W        W98051  35.862  29.437   0.966
29678W        W98052  41.837  13.635  10.556
29679W        W98053  21.534   7.231   4.276
29680W        W98054   5.346  37.564   1.421
29681W        W98055  36.981  29.589  11.994
29682W        W98056  41.839   5.286   1.918
29683W        W98057   7.829  33.478   4.606
29684W        W98058  14.729   7.790  14.849
29685W        W98059  44.401  14.703   3.222
29686W        W98060  24.016  26.161  14.807
29687W        W98061  31.085   5.303   3.224
29688W        W98062  11.194  21.730   3.771
29689W        W98063   9.833  23.989  13.398
29690W        W98064   4.731  17.300  10.477
29691W        W98065  42.992   4.291   2.290
29692W        W98066  19.249  15.314   4.187
29693W        W98067   9.149  23.206   4.659
29694W        W98068  44.859   7.899  14.374
29695W        W98069   0.440   9.671   3.333
29696W        W98070  43.961  32.906   3.188
29697W        W98071  22.239   2.745   4.768
29698W        W98072   6.184  15.801  14.909
29699W        W98073  40.439  10.357  12.341
29700W        W98074   4.781   9.788   2.384
29701W        W98075  32.047  11.771  10.888
29702W        W98076  13.225  19.222   0.287
29703W        W98077  43.348  10.655  13.794
29704W        W98078   3.302  26.644  12.557
29705W        W98079   2.271  35.937   1.341
29706W        W98080  44.343   2.904   1.758
29707W        W98081  28.095  15.707  12.444
29708W        W98082  28.977   9.363  11.945
29709W        W98083  22.125  34.076  10.558
29710W        W98084  27.064   8.227   3.689
29711W        W98085  15.759  13.658  10.005
29712W        W98086  15.753  12.215  11.553
29713W        W98087  12.611  42.482  13.924
29714W        W98088  26.541  22.081   3.180
29715W        W98089  11.315  43.412   1.407
29716W        W98090  21.239  17.623  10.561
29717W        W98091   3.411  40.004  12.457
29718W        W98092  22.688  20.053  14.920
29719W        W98093   1.408  32.483  10.609
29720W        W98094   7.217  16.125  14.788
29721W        W98095  29.947  32.557   1.254
29722W        W98096  17.173   8.236  12.452
29723W        W98097  38.967  20.119  12.394
29724W        W98098   4.357  29.662   1.236
29725W        W98099   3.264   2.902   2.401
29726W        W98100  34.119  30.060  13.406
29727W        W98101  11.363  41.842  12.380
29728W        W98102  15.805  24.132  11.975
29729W        W98103  39.057  30.120   0.415
29730W        W98104  37.938  21.149   0.429
29731W        W98105   2.940  27.454  13.840
29732W        W98106  16.696   1.745  12.075
29733W        W98107  21.171   8.391   1.776
29734W        W98108   6.787  38.960  14.417
29735W        W98109   2.959  24.560   1.745
29736W        W98110  30.465  32.628   0.298
29737W        W98111  14.213  13.292   3.631
29738W        W98112  17.225  12.656   2.721
29739W        W98113  39.456   8.738   5.216
29740W        W98114  20.061  19.122   3.641
29741W        W98115   0.383   2.316   0.264
29742W        W98116  37.394   9.239   0.317
29743W        W98117  26.581  38.029   3.365
29744W        W98118  12.652  33.946  10.524
29745W        W98119  40.418  44.329   9.978
29746W        W98120  40.963  23.674  11.892
29747W        W98121   3.935  34.983   3.368
29748W        W98122  38.067   1.396  14.924
29749W        W98123   7.865  26.505  12.446
29750W        W98124  18.280  23.708   3.830
29751W        W98125   5.847  17.166   2.863
29752W        W98126  16.226  24.574   3.781
29753W        W98127  26.594  24.139  11.513
29754W        W98128  30.585   4.249   2.802
29755W        W98129  14.783   9.795  12.992
29756W        W98130   6.849   6.784   3.827
29757W        W98131  18.556  29.428  11.075
29758W        W98132  21.624  41.853   3.815
29759W        W98133  11.623  19.566  11.060
29760W        W98134  12.284   8.683  11.908
29761W        W98135  34.369   0.815   3.788
29762W        W98136  33.943  15.629   1.393
29763W        W98137   5.398  24.485  11.126
29764W        W98138  14.638  30.499  13.998
29765W        W98139  19.170  33.053   0.337
29766W        W98140  25.004   5.360  11.497
29767W        W98141   2.427   1.889  12.930
29768W        W98142   1.900   4.926  13.375
29769W        W98143  24.036  18.585   4.163
29770W        W98144  31.131  12.801   3.830
29771W        W98145  31.152   7.830   3.722
29772W        W98146   1.903  43.394  12.871
29773W        W98147   5.860  41.947  11.595
29774W        W98148  37.965  22.601  12.448
29775W        W98149  33.017  42.881   4.161
29776W        W98150   7.912  10.373   0.297
29777W        W98151  18.725  42.402  14.419
29778W        W98152  21.674   6.835  14.825
29779W        W98153   7.678  21.024   3.328
29780W        W98154  23.219  31.549  10.592
29781W        W98155  13.683   2.371  10.429
29782W        W98156  38.974  32.091  12.931
29783W        W98157  30.629  23.990   1.259
29784W        W98158  42.518  13.704  10.619
29785W        W98159  13.137  10.661   1.792
29786W        W98160  10.140   8.181   2.826
29787W        W98161  33.491  38.993   5.098
29788W        W98162   3.325  34.087   1.807
29789W        W98163   7.389  39.536   0.448
29790W        W98164  23.693  14.803   5.293
29791W        W98165   4.407  44.935  12.999
29792W        W98166  28.594  24.595  11.862
29793W        W98167  42.390  36.916   4.837
29794W        W98168  10.820  37.559   3.373
29795W        W98169  24.684  26.203   0.381
29796W        W98170  42.825  14.157   2.858
29797W        W98171   5.262  35.094  11.900
29798W        W98172  36.438  24.038   1.830
29799W        W98173  14.273  29.641  10.626
29800W        W98174  17.120  37.984  10.456
29801W        W98175  36.460   5.288   2.790
29802W        W98176  17.126  40.492  11.576
29803W        W98177  32.404   8.349   0.772
29804W        W98178  43.439  33.966  13.378
29805W        W98179  41.486  28.055  14.362
29806W        W98180  22.659  28.157   3.314
29807W        W98181  20.651   6.206   3.188
29808W        W98182  29.532  15.101   0.960
29809W        W98183  33.002  29.139   2.747
29810W        W98184  27.501   8.663  10.953
29811W        W98185  33.089   6.923  10.469
29812W        W98186  22.729  30.998   1.777
29813W        W98187  37.415  38.385   2.312
29814W        W98188  43.481  13.751   1.931
29815W        W98189  34.870  30.142   1.765
29816W        W98190  26.512  38.825   0.407
29817W        W98191  27.975  24.140  11.996
29818W        W98192  43.974  24.003  12.516
29819W        W98193  38.072  16.098  14.996
29820W        W98194  42.352  18.216   0.470
29821W        W98195  19.211  26.988   3.222
29822W        W98196  36.384  36.480   3.714
29823W        W98197  31.109  34.437  13.425
29824W        W98198   3.434   7.282   0.310
29825W        W98199  19.072  14.829  11.559
29826W        W98200   3.427  13.278   4.286
29827W        W98201  12.343  28.024  10.978
29828W        W98202   8.372  38.382  11.585
29829W        W98203  10.296  33.430  12.913
29830W        W98204  35.953   3.270  10.496
29831W        W98205  25.023  41.487  11.000
29832W        W98206  32.609  23.639   3.672
29833W        W98207  10.210  16.573  12.446
29834W        W98208  16.309  18.742  11.611
29835W        W98209  25.183   2.273   5.289
29836W        W98210   2.798   0.319   3.745
29837W        W98211  32.947  29.160   3.268
29838W        W98212  14.652  29.536   3.262
29839W        W98213  16.213  31.606   0.886
29840W        W98214  28.442  44.284  14.026
29841W        W98215  19.215  42.784   4.299
29842W        W98216  12.151  15.715   4.134
29843W        W98217  34.459  10.264   4.265
29844W        W98218   7.722  10.733  14.833
29845W        W98219  35.099   7.255  10.066
29846W        W98220  24.099  33.939  12.432
29847W        W98221  28.115  18.125   3.377
29848W        W98222  43.012  44.842   4.729
29849W        W98223  15.088  12.260  13.833
29850W        W98224  18.696  42.965   1.418
29851W        W98225  20.739  18.132  14.788
29852W        W98226  43.319  11.269  14.999
29853W        W98227  27.551   0.420  14.766
29854W        W98228  33.010  34.373   0.248
29855W        W98229  35.563  38.428   3.763
29856W        W98230  22.674  13.137   3.151
29857W        W98231   0.494  22.208   1.827
29858W        W98232   8.379   4.727  11.565
29859W        W98233  19.066  36.473   0.876
29860W        W98234   6.377  42.851   2.412
29861W        W98235  44.307   0.967  13.055
29862W        W98236  31.457   7.334  14.830
29863W        W98237  27.469  15.734  14.295
29864W        W98238  43.421   6.865   3.748
29865W        W98239  33.060  44.927   4.235
29866W        W98240  20.118  21.027   0.873
29867W        W98241  21.231  21.165   0.936
29868W        W98242  19.619  30.590   1.286
29869W        W98243   8.368  21.207   4.267
29870W        W98244   2.783  44.376  14.861
29871W        W98245  42.500   6.292   3.316
29872W        W98246   4.313  24.042   0.921
29873W        W98247  39.402   6.376   4.785
29874W        W98248  25.991  11.648   2.280
29875W        W98249  24.015  25.643  14.378
29876W        W98250  16.590  10.829  11.880
29877W        W98251  14.297  41.998  12.824
29878W        W98252  24.157  11.180   0.250
29879W        W98253   1.978  43.850   2.262
29880W        W98254  10.151  30.003  12.469
29881W        W98255   2.467   9.744  13.931
29882W        W98256  44.460   1.322   3.365
29883W        W98257  33.420  40.933  12.384
29884W        W98258  44.954   2.868  11.064
29885W        W98259   1.326   4.699  13.405
29886W        W98260  29.972  27.590  14.917
29887W        W98261  17.272  17.736   1.761
29888W        W98262  41.380   2.871  11.050
29889W        W98263  33.506  27.511   1.834
29890W        W98264  20.045  27.140   3.183
29891W        W98265   1.776  16.613  10.599
29892W        W98266  27.126  36.072  14.388
29893W        W98267   1.827   5.785   4.205
29894W        W98268  38.481  26.475   1.305
29895W        W98269  22.511  39.858  13.877
29896W        W98270  12.823   1.932   1.926
29897W        W98271  44.295  20.531   4.787
29898W        W98272  32.962  12.132   3.721
29899W        W98273   4.776  11.234  10.115
29900W        W98274  40.430   5.703   3.850
29901W        W98275  38.949  34.466  12.998
29902W        W98276  21.710  33.420  11.008
29903W        W98277  19.714  27.499  11.416
29904W        W98278  44.498  14.598  14.493
29905W        W98279  38.461   9.228   3.350
29906W        W98280  44.404   6.332  10.409
29907W        W98281  22.006   8.298  10.554
29908W        W98282  20.619  19.718   1.238
29909W        W98283  37.547  11.658  11.444
29910W        W98284  35.941   6.256   5.195
29911W        W98285  18.053  44.785  14.963
29912W        W98286  39.430  24.072  12.874
29913W        W98287  24.171  18.266  11.534
29914W        W98288   5.873   7.277   1.416
29915W        W98289  12.762   8.171  10.946
29916W        W98290   7.284  41.934  11.946
29917W        W98291  36.870  39.932   1.858
29918W        W98292  30.056  14.232  11.923
29919W        W98293  31.633   8.709  11.912
29920W        W98294   6.885  39.988   3.851
29921W        W98295  37.338  17.668   3.165
29922W        W98296  28.502   3.266   0.921
29923W        W98297  13.845  31.556   3.160
29924W        W98298  33.081   6.247  14.806
29925W        W98299  16.312  43.912   1.710
29926W        W98300  13.308  20.067   4.628
29927W        W98301  30.910  19.552   3.638
29928W        W98302  27.962   7.313   2.314
29929W        W98303  32.419   6.696   3.317
29930W        W98304  21.168   2.391   1.333
29931W        W98305  27.017  38.565  14.954
29932W        W98306  15.305  15.142  11.495
29933W        W98307   7.688  26.607  10.518
29934W        W98308  20.540  17.753   3.275
29935W        W98309  24.223  21.137   0.449
29936W        W98310  24.648  14.805   0.807
29937W        W98311   8.282  30.154   3.672
29938W        W98312  25.586  30.055   0.273
29939W        W98313  29.980  37.023  14.806
29940W        W98314  43.973  15.703  13.313
29941W        W98315   9.250  31.425  12.522
29942W        W98316  30.132  43.327  10.408
29943W        W98317  14.236  35.043  13.022
29944W        W98318  19.727  21.171   4.673
29945W        W98319  18.751   1.398  14.446
29946W        W98320  14.166   4.874   5.314
29947W        W98321  20.646  32.457  11.938
29948W        W98322  34.571  34.119  12.085
29949W        W98323   0.784   1.408  11.437
29950W        W98324  29.986  26.702  14.417
29951W        W98325  18.227   0.807   4.617
29952W        W98326  23.582  36.426   4.180
29953W        W98327  22.218   8.755  11.575
29954W        W98328  42.791  11.840   3.661
29955W        W98329  37.876  37.024  13.060
29956W        W98330   3.344   1.930  12.086
29957W        W98331  25.161   4.351   4.217
29958W        W98332  28.971  42.783   5.187
29959W        W98333  41.367   9.864  11.926
29960W        W98334  25.563  43.393  11.860
29961W        W98335   5.264  43.485  13.929
29962W        W98336  24.027  41.393  12.339
29963W        W98337   4.338   6.371   3.675
29964W        W98338  36.942  29.061  13.014
29965W        W98339  44.492  31.077  13.381
29966W        W98340   4.837  35.027   1.400
29967W        W98341  32.430   1.867   1.893
29968W        W98342  43.486   5.301   4.603
29969W        W98343   4.339  39.323   2.343
29970W        W98344  39.385   4.324   2.178
29971W        W98345  35.511  19.039   4.229
29972W        W98346  21.670  22.511   2.273
29973W        W98347  36.490   6.864  13.805
29974W        W98348  36.041  37.461  11.476
29975W        W98349   0.951  20.718  12.548
29976W        W98350  16.713  24.990  13.370
29977W        W98351  44.366  32.443   5.282
29978W        W98352   3.365  19.659   3.687
29979W        W98353  37.847  31.142   4.672
29980W        W98354  17.784  23.531   2.275
29981W        W98355   9.777  10.856  13.469
29982W        W98356  44.984   8.801  10.466
29983W        W98357  23.033  38.455  12.462
29984W        W98358   0.833  10.143   4.333
29985W        W98359  38.827   4.321  11.890
29986W        W98360  11.778  23.514  13.846
29987W        W98361  32.025  32.925  11.038
29988W        W98362  20.537  28.078  14.409
29989W        W98363  16.725  15.753   2.757
29990W        W98364  16.789   5.246   4.115
29991W        W98365  44.418  12.708   3.204
29992W        W98366  43.899  25.962  14.817
29993W        W98367  44.432  39.986   3.331
29994W        W98368  39.999   9.334  11.427
29995W        W98369  25.515  30.996  10.034
29996W        W98370  34.447  25.966  14.858
29997W        W98371  39.431  10.861  14.846
29998W        W98372  16.608  38.483  11.861
29999W        W98373   2.771  11.317   0.437
30000W        W98374  30.548  41.804   2.397
30001W        W98375  22.214  37.957   5.190
30002W        W98376   4.226   8.205  12.471
30003W        W98377  18.703  18.617  10.903
30004W        W98378  11.171  42.344   4.742
30005W        W98379  34.951  37.529  12.946
30006W        W98380   7.265  24.632   0.354
30007W        W98381  25.022  34.573   2.803
30008W        W98382  41.804  44.754  11.945
30009W        W98383  15.606  11.784  12.388
30010W        W98384   6.866   6.710  10.970
30011W        W98385   7.313  25.475  13.056
30012W        W98386   9.853   0.798  14.280
30013W        W98387  40.457   3.290   0.341
30014W        W98388   4.308  38.862  14.354
30015W        W98389  13.752  31.062  13.997
30016W        W98390  14.228  38.991   4.238
30017W        W98391  39.353  21.622  10.414
30018W        W98392  28.060  44.284   1.215
30019W        W98393  20.268  11.818   1.341
30020W        W98394  31.501   0.313   1.838
30021W        W98395   5.717  12.714   0.459
30022W        W98396  22.571  14.189  10.150
30023W        W98397  10.231   3.917   2.329
30024W        W98398  24.715  10.348   3.753
30025W        W98399  24.151  29.540  11.994
30026W        W98400  38.418  37.388  11.064
30027W        W98401   4.893  37.971  13.315
30028W        W98402  18.219  11.786  14.006
30029W        W98403   8.291  16.236   1.355
30030W        W98404   8.239  28.098   9.661
30031W        W98405  30.984  17.600  13.895
30032W        W98406  14.793  36.970   4.834
30033W        W98407  13.655  10.257  12.992
30034W        W98408  24.153  34.583   4.690
30035W        W98409  40.414  36.092   3.803
30036W        W98410  21.096  38.980   4.185
30037W        W98411  43.916  34.574   2.297
30038W        W98412  40.817  20.625  12.515
30039W        W98413  25.116  38.989   2.849
30040W        W98414   4.840  43.509  13.359
30041W        W98415  34.413  37.972   4.649
30042W        W98416  44.391  35.421  14.928
30043W        W98417  15.105  35.043  13.948
30044W        W98418  14.278  20.722  10.907
30045W        W98419  34.556  18.777  10.524
30046W        W98420  24.045  21.174   1.705
30047W        W98421   9.216  28.536   1.423
30048W        W98422   9.655  31.595   3.316
30049W        W98423  23.224  44.891  11.065
30050W        W98424  23.067  24.214   0.310
30051W        W98425  37.010  29.994  11.471
30052W        W98426  27.597  15.143  11.940
30053W        W98427   1.875  30.020   4.679
30054W        W98428  23.031   6.356  12.017
30055W        W98429  27.093  11.313  12.005
30056W        W98430  11.145  13.750   4.202
30057W        W98431  41.788  18.652   4.205
30058W        W98432   0.928  35.063   5.197
30059W        W98433  28.124  41.901   1.395
30060W        W98434  21.610  40.990   4.786
30061W        W98435   7.744  42.811  12.462
30062W        W98436  23.717  33.564  10.562
30063W        W98437   9.673  27.642  14.886
30064W        W98438  22.729  24.200   9.997
30065W        W98439   2.361  34.493  13.883
30066W        W98440  16.121  12.762  14.979
30067W        W98441  14.122   9.749   1.318
30068W        W98442  35.557   4.352   3.723
30069W        W98443  33.532  19.673  12.403
30070W        W98444   0.414  19.549  13.964
30071W        W98445   4.267  41.002   2.341
30072W        W98446   6.838  27.144  13.462
30073W        W98447  42.311  29.573  13.051
30074W        W98448  42.458  15.697  11.443
30075W        W98449  25.494  27.117  14.972
30076W        W98450  20.060  41.838  11.948
30077W        W98451  36.500   5.931  14.400
30078W        W98452  31.115   4.356   3.827
30079W        W98453  15.301  13.638  11.913
30080W        W98454  28.998  24.014   3.778
30081W        W98455   6.919  36.394  13.483
30082W        W98456  23.548  12.729   3.201
30083W        W98457  10.677  28.674  14.903
30084W        W98458   1.966  22.040   2.316
30085W        W98459  36.994  10.875   0.391
30086W        W98460  40.423  14.334  10.543
30087W        W98461  27.982  44.962  10.522
30088W        W98462   0.464   6.775  13.909
30089W        W98463   4.442  13.240  12.033
30090W        W98464  29.049  15.287   4.267
30091W        W98465  33.992  30.611   4.217
30092W        W98466  40.541  15.780   1.311
30093W        W98467  33.043   0.363  13.362
30094W        W98468   4.441  28.101   0.880
30095W        W98469  43.812  42.419   3.651
30096W        W98470  12.124   0.915   3.650
30097W        W98471   0.775  33.525   4.215
30098W        W98472   3.255  32.068   1.764
30099W        W98473  24.674  41.902   0.783
30100W        W98474  40.423  21.694  14.820
30101W        W98475   9.677  16.137   1.272
30102W        W98476  28.561  20.763  12.864
30103W        W98477  27.189  32.107   1.363
30104W        W98478   7.328  28.988  13.999
30105W        W98479   6.277  18.731   2.326
30106W        W98480  37.516   0.281   4.157
30107W        W98481  32.110   3.862   3.164
30108W        W98482  37.968  39.000  10.500
30109W        W98483  43.286  41.042   0.740
30110W        W98484  27.677  14.189  10.428
30111W        W98485  26.523  29.614  11.525
30112W        W98486  26.508   7.746  12.020
30113W        W98487  20.113  41.919  12.959
30114W        W98488  16.201  15.146  10.596
30115W        W98489  14.121  13.321   3.246
30116W        W98490  38.986  36.448  14.280
30117W        W98491  21.648  44.465  12.516
30118W        W98492  22.175  36.391  12.072
30119W        W98493  17.143  29.617  11.573
30120W        W98494  11.227  44.389   1.907
30121W        W98495  22.191  40.913   3.787
30122W        W98496  28.071  10.744   2.354
30123W        W98497  43.936  38.397  11.424
30124W        W98498  37.019  10.669   2.232
30125W        W98499   4.729  37.513   1.306
30126W        W98500  23.159   2.960  12.824
30127W        W98501  43.472  43.368  11.055
30128W        W98502  18.787  34.935  12.983
30129W        W98503  27.144  40.302   3.835
30130W        W98504   4.898  22.102  10.969
30131W        W98505  30.094   2.235  11.375
30132W        W98506  10.749  44.422   3.170
30133W        W98507  36.004  35.034  13.886
30134W        W98508  41.005  42.493  12.555
30135W        W98509   1.789  23.522   4.597
30136W        W98510  38.915  19.077  12.357
30137W        W98511  14.161  33.118  11.559
30138W        W98512   4.258   6.800   4.789
30139W        W98513  43.916  32.140   4.755
30140W        W98514  34.550  44.350  14.408
30141W        W98515  13.329  16.126  11.083
30142W        W98516  30.064  23.696  14.772
30143W        W98517  19.076  11.161   3.653
30144W        W98518  13.828   6.829  10.936
30145W        W98519  20.118  23.207  14.792
30146W        W98520  10.222  24.175  10.551
30147W        W98521  33.569  11.147   4.831
30148W        W98522   7.331  15.648  13.377
30149W        W98523   4.716   4.364  12.843
30150W        W98524  34.396  34.998   2.350
30151W        W98525   2.876   0.764  11.493
30152W        W98526  10.697  28.081   1.730
30153W        W98527   5.401  24.064   4.233
30154W        W98528   8.689  26.553  10.497
30155W        W98529   5.919   4.350   4.353
30156W        W98530  43.783  27.686  12.850
30157W        W98531  32.433  10.648  11.417
30158W        W98532   8.881  30.157   2.878
30159W        W98533  21.639  42.952   0.748
30160W        W98534  40.006  31.426  12.551
30161W        W98535  29.628  30.165  11.073
30162W        W98536  11.824  36.097   4.628
30163W        W98537  18.054  29.987   4.753
30164W        W98538  40.531  29.473  14.409
30165W        W98539  33.958  10.225  11.421
30166W        W98540   9.219   5.915   0.890
30167W        W98541  32.563  14.154   4.304
30168W        W98542  37.389  43.370  14.350
30169W        W98543  13.657  24.668  11.942
30170W        W98544   9.842  16.254  13.849
30171W        W98545  12.243   7.180  11.578
30172W        W98546  42.822   5.736   0.764
30173W        W98547  29.565  11.856   5.300
30174W        W98548  19.712  31.533   1.837
30175W        W98549  16.757   4.289  12.971
30176W        W98550   1.351   7.875   3.324
30177W        W98551  15.273  39.940   1.306
30178W        W98552  20.269   5.317   3.189
30179W        W98553   7.795  18.626  10.603
30180W        W98554  18.738  39.396  14.925
30181W        W98555  19.553   3.377  13.977
30182W        W98556  37.043  38.871  10.962
30183W        W98557  20.191  12.333  10.566
30184W        W98558   9.205  20.714  11.426
30185W        W98559  20.211  32.926   2.741
30186W        W98560  42.870   5.377  10.556
30187W        W98561  22.089  31.104  11.057
30188W        W98562  36.032  14.302   4.141
30189W        W98563  23.197   7.367  14.461
30190W        W98564  36.403  10.754  10.495
30191W        W98565  18.124  23.009   3.385
30192W        W98566  38.432  17.702   4.608
30193W        W98567  42.979  24.122  14.449
30194W        W98568  38.328  27.511  10.951
30195W        W98569  10.301   9.248   5.159
30196W        W98570  19.736  10.817  11.567
30197W        W98571  44.787   4.814   1.403
30198W        W98572   1.858  37.578  12.926
30199W        W98573   2.938  42.508   1.772
30200W        W98574  43.488  37.922   1.924
30201W        W98575  30.449  12.217  13.501
30202W        W98576  37.376   2.735  14.298
30203W        W98577   8.211  11.627   4.780
30204W        W98578  11.867   6.365   9.966
30205W        W98579  22.641  28.080  10.988
30206W        W98580  21.083  32.987   4.334
30207W        W98581  34.470  36.545  13.011
30208W        W98582   8.176  29.577   2.792
30209W        W98583  41.401  23.146  10.977
30210W        W98584  37.060  29.623   4.783
30211W        W98585  41.007  24.520  10.465
30212W        W98586   3.301  43.936  10.503
30213W        W98587   4.397   4.380   1.879
30214W        W98588  41.918  33.028   1.908
30215W        W98589  42.864  43.481   0.365
30216W        W98590  31.536  22.040   4.749
30217W        W98591  42.934  14.705  14.842
30218W        W98592  18.294   1.418   3.779
30219W        W98593   8.335  30.573  14.902
30220W        W98594   4.788   2.731  10.495
30221W        W98595   2.758   0.774   0.889
30222W        W98596  36.374  20.145  13.924
30223W        W98597  27.058   1.444   0.923
30224W        W98598  40.327   5.229   4.342
30225W        W98599   1.424  44.773   0.959
30226W        W98600  25.492   6.218  14.969
30227W        W98601   5.797  38.915   1.391
30228W        W98602  32.563  14.220   5.173
30229W        W98603   1.947  41.538   2.742
30230W        W98604  26.470  19.611   0.454
30231W        W98605   5.933   2.444   2.896
30232W        W98606  11.756   2.384  11.054
30233W        W98607  17.654  44.441   1.344
30234W        W98608  35.092  30.441  13.798
30235W        W98609  43.287  37.491   3.290
30236W        W98610   5.765  12.197  10.499
30237W        W98611  17.788  15.222   0.874
30238W        W98612   8.699  34.483   2.732
30239W        W98613   3.738  39.868   9.963
30240W        W98614   4.725  29.035  14.983
30241W        W98615  13.155  21.078  11.039
30242W        W98616  38.385  42.496  13.373
30243W        W98617  40.953  41.365   3.755
30244W        W98618  29.945  10.846   4.340
30245W        W98619  39.963   9.794  13.399
30246W        W98620  30.124  24.565   4.115
30247W        W98621  15.815   1.452   1.299
30248W        W98622  14.105  15.181   3.831
30249W        W98623  33.581   8.881  12.092
30250W        W98624  33.562  44.367   1.441
30251W        W98625  42.461   0.305   4.796
30252W        W98626   4.375  18.724  11.426
30253W        W98627  33.402  39.468   2.200
30254W        W98628   1.278  37.339   2.235
30255W        W98629  10.364  42.976  12.938
30256W        W98630  13.643  10.833   4.764
30257W        W98631   6.280   7.890  14.021
30258W        W98632  30.518  27.015   1.832
30259W        W98633   8.319  16.260  12.512
30260W        W98634  24.521  11.736  11.576
30261W        W98635  28.448  26.113   3.258
30262W        W98636  25.624  32.988   1.304
30263W        W98637   8.217  31.055   0.825
30264W        W98638  13.813  30.032  13.474
30265W        W98639  15.786  36.051   9.938
30266W        W98640  30.145  33.129   1.240
30267W        W98641  31.955  29.151  14.445
30268W        W98642  18.756  19.733  12.041
30269W        W98643  11.723  17.253  14.415
30270W        W98644  40.859   8.194  11.068
30271W        W98645  10.856   0.412  12.526
30272W        W98646  17.179  32.999   2.848
30273W        W98647  16.114   3.772  14.982
30274W        W98648   6.225  16.102  13.910
30275W        W98649   2.928   7.887  13.944
30276W        W98650  12.769  15.152  10.634
30277W        W98651  41.334   9.756  14.469
30278W        W98652  13.792  27.125  12.882
30279W        W98653  35.884  15.818  10.071
30280W        W98654   2.964  34.099   2.331
30281W        W98655  41.371  38.402  10.454
30282W        W98656  44.305  19.103   4.285
30283W        W98657   3.292  17.745   0.871
30284W        W98658  30.112   2.904   2.716
30285W        W98659  19.184   2.750  13.908
30286W        W98660   5.693  19.186  13.051
30287W        W98661  18.787  37.434  10.591
30288W        W98662  20.215  43.485   0.730
30289W        W98663   1.316   9.196  10.512
30290W        W98664  17.078  36.580  12.998
30291W        W98665  28.505  23.736   4.181
30292W        W98666  24.167   1.733   5.185
30293W        W98667  28.442  10.234  10.972
30294W        W98668  11.836   7.404   0.460
30295W        W98669  28.154   9.746  13.036
30296W        W98670  23.698  38.904  11.408
30297W        W98671  25.653  26.688  14.346
30298W        W98672  34.488  37.449   0.480
30299W        W98673  10.207  22.572   2.285
30300W        W98674  21.639  23.617   2.407
30301W        W98675   2.285  11.351  13.514
30302W        W98676  19.241  11.862  14.972
30303W        W98677  23.595  34.968  14.306
30304W        W98678   1.786   6.344  11.100
30305W        W98679  44.873  11.653  12.507
30306W        W98680   8.283  22.077  13.358
30307W        W98681  10.160  18.576  12.033
30308W        W98682  17.738   8.182   0.435
30309W        W98683  33.416  32.999   0.744
30310W        W98684  27.078  28.591  13.498
30311W        W98685  40.889  10.218  14.913
30312W        W98686   8.199   2.306  11.897
30313W        W98687  44.887  13.795   3.188
30314W        W98688  27.123  11.286  10.464
30315W        W98689  31.998  25.980  12.493
30316W        W98690   0.863  17.192  13.833
30317W        W98691  32.428  31.028   1.441
30318W        W98692  34.078  16.074  12.498
30319W        W98693  31.462   3.395  10.975
30320W        W98694  29.062   4.710   3.280
30321W        W98695  40.948  43.869  10.992
30322W        W98696   2.231   3.827   4.330
30323W        W98697  13.815  32.109  13.967
30324W        W98698  42.958  12.784  10.639
30325W        W98699   4.809   6.812  12.557
30326W        W98700  27.592  44.988  10.968
30327W        W98701  27.562   2.356  13.430
30328W        W98702  11.316   4.914  12.349
30329W        W98703   2.744  43.898   2.305
30330W        W98704   9.710  13.128   0.844
30331W        W98705  12.745  25.999  10.543
30332W        W98706  29.509   1.868   5.152
30333W        W98707   3.781  25.175   3.648
30334W        W98708  13.139   8.304   4.616
30335W        W98709  19.106  30.528  10.412
30336W        W98710  18.633   5.728  11.013
30337W        W98711  30.085  17.295   4.206
30338W        W98712  34.092  20.560  11.508
30339W        W98713  24.612   2.769   2.770
30340W        W98714  11.664  16.179  12.493
30341W        W98715  30.609   3.428  13.333
30342W        W98716   2.853  35.896  14.826
30343W        W98717  26.203  35.925  11.053
30344W        W98718  15.586  19.773  11.900
30345W        W98719   5.427  34.893   0.333
30346W        W98720  12.333   4.896   0.854
30347W        W98721  24.190  14.174   1.335
30348W        W98722  27.627  10.145  13.902
30349W        W98723   9.716  19.670  12.928
30350W        W98724  40.872  21.521  11.097
30351W        W98725  36.893   3.411   2.800
30352W        W98726  41.320  10.730  12.569
30353W        W98727  28.159   7.383  12.366
30354W        W98728  17.275  41.387   1.445
30355W        W98729  19.772  39.504  13.830
30356W        W98730   6.855  28.542   2.719
30357W        W98731  17.203  21.188   4.252
30358W        W98732   6.361  14.112  14.361
30359W        W98733   1.762  15.726   3.845
30360W        W98734   9.701  22.122   0.892
30361W        W98735  21.246  32.579  12.499
30362W        W98736  33.566  28.075   4.711
30363W        W98737  34.533  39.996   4.815
30364W        W98738   9.777  25.053   2.802
30365W        W98739  20.040  38.964  12.426
30366W        W98740  12.799  15.121   4.760
30367W        W98741   9.862  20.071   1.740
30368W        W98742  36.422   3.329  10.101
30369W        W98743  23.691   0.859  11.523
30370W        W98744  36.492  11.710   1.814
30371W        W98745  11.295   6.281   0.402
30372W        W98746  40.417  43.395  14.382
30373W        W98747  34.918  27.504  13.939
30374W        W98748  41.995  40.404  12.044
30375W        W98749   9.670  13.654   3.293
30376W        W98750  13.723   7.340   4.279
30377W        W98751  38.048   9.233   5.245
30378W        W98752   3.886  11.359  14.991
30379W        W98753  18.626  36.087   3.301
30380W        W98754  22.648  10.872   3.339
30381W        W98755  32.142  21.117   2.769
30382W        W98756   7.356  41.958   1.714
30383W        W98757   3.331  27.053  13.059
30384W        W98758   7.300  20.695   2.382
30385W        W98759  37.853  36.086   2.827
30386W        W98760  42.867  22.672   4.765
30387W        W98761   8.898  32.523  12.515
30388W        W98762  36.047  28.531  11.094
30389W        W98763  19.186  36.493   2.759
30390W        W98764  40.537  13.297  12.351
30391W        W98765  32.120  17.597  13.924
30392W        W98766  40.362  24.673   4.296
30393W        W98767  17.662  15.580   0.966
30394W        W98768  30.534  42.855   1.837
30395W        W98769  33.528   2.454   5.124
30396W        W98770   8.236  14.329  11.855
30397W        W98771  35.106  35.471  11.992
30398W        W98772   2.893  10.288   3.687
30399W        W98773  28.049   8.767   3.774
30400W        W98774  40.869   5.808  12.921
30401W        W98775  43.965  43.808  12.372
30402W        W98776  23.543  35.386   4.813
30403W        W98777  43.817  27.550   4.239
30404W        W98778  34.038  18.267  13.806
30405W        W98779  37.969  20.073  14.862
30406W        W98780   8.872  37.878  12.858
30407W        W98781  41.482  23.646  10.535
30408W        W98782  18.552  29.490  14.902
30409W        W98783  11.665  34.561   2.895
30410W        W98784   3.308   3.813  13.918
30411W        W98785  41.507  25.709  11.886
30412W        W98786   7.405  44.869   0.870
30413W        W98787  44.501  16.073  13.002
30414W        W98788  13.615  18.712  14.435
30415W        W98789  40.372  24.521   2.196
30416W        W98790  22.508  23.702   4.699
30417W        W98791   4.351  33.450   0.480
30418W        W98792  20.631  30.128  10.576
30419W        W98793  25.507  38.507   0.963
30420W        W98794  13.134  25.181  10.919
30421W        W98795  38.825  39.479  12.436
30422W        W98796  23.592  29.512  13.908
30423W        W98797   5.255   4.284   2.266
30424W        W98798   1.371  10.379   2.231
30425W        W98799  44.777  22.236   1.718
30426W        W98800  33.934  15.757  12.865
30427W        W98801  10.309   4.298   0.780
30428W        W98802  10.236  44.801  12.514
30429W        W98803   7.211  18.693  12.536
30430W        W98804  10.378  16.079  10.554
30431W        W98805  35.465  35.936  12.581
30432W        W98806  16.161  30.508   5.124
30433W        W98807  20.575  20.273   3.276
30434W        W98808  17.743  11.212   2.204
30435W        W98809  10.831  25.140  11.582
30436W        W98810  23.056   1.361  13.897
30437W        W98811   9.155  36.393  12.933
30438W        W98812  16.201  42.311   4.740
30439W        W98813  42.469  33.383   2.233
30440W        W98814  28.148  37.487   3.344
30441W        W98815  34.900  32.400  11.402
30442W        W98816  32.112   8.362   1.747
30443W        W98817   7.706  30.421  14.426
30444W        W98818  33.583  43.828   1.333
30445W        W98819  14.736  34.116   4.727
30446W        W98820  39.489  20.614  11.476
30447W        W98821   0.958  20.115   4.716
30448W        W98822   6.774  33.987   3.640
30449W        W98823  19.666   8.664  13.439
30450W        W98824  23.504  43.304   0.347
30451W        W98825   7.824  38.527  14.958
30452W        W98826  33.533   4.289  12.339
30453W        W98827  24.581  27.069  10.621
30454W        W98828  27.187  23.720  14.928
30455W        W98829  26.008  23.687   0.920
30456W        W98830  44.971  24.046  13.342
30457W        W98831  30.588  33.898  10.937
30458W        W98832  37.546  19.131   3.145
30459W        W98833  27.100  33.561  12.867
30460W        W98834  30.513  40.522  14.905
30461W        W98835   3.329  35.036   1.698
30462W        W98836   1.257  20.187   4.743
30463W        W98837  13.208   8.769  10.493
30464W        W98838  33.537  41.857  11.031
30465W        W98839  22.657  17.758   4.616
30466W        W98840  10.279  25.135  11.947
30467W        W98841  22.711   0.313  13.853
30468W        W98842   5.369  24.973   3.718
30469W        W98843  31.462  39.417   2.887
30470W        W98844  36.529   5.409   4.287
30471W        W98845  12.299  28.630  11.975
30472W        W98846  31.055  14.653   4.667
30473W        W98847   4.332  11.676   0.286
30474W        W98848  32.893  13.159  11.882
30475W        W98849  29.481  35.461  11.418
30476W        W98850  29.137  43.512   9.981
30477W        W98851   0.767  19.534  13.475
30478W        W98852   5.313  33.521  11.942
30479W        W98853  31.631  32.056  14.816
30480W        W98854   1.902  35.448   1.831
30481W        W98855   4.270   7.856   2.693
30482W        W98856  27.546  39.001  10.956
30483W        W98857  24.161  43.018  10.580
30484W        W98858  34.425  27.675   3.722
30485W        W98859  17.622  40.348   3.275
30486W        W98860   1.769  41.824   2.272
30487W        W98861  22.682  29.466  10.103
30488W        W98862   1.828   1.243   2.188
30489W        W98863  10.807  28.102   0.460
30490W        W98864   4.944  19.756  11.480
30491W        W98865  41.009  35.041  14.015
30492W        W98866  29.002   4.219   4.663
30493W        W98867  23.155  39.933  14.459
30494W        W98868  13.605   1.332   0.727
30495W        W98869  14.830   9.365   0.375
30496W        W98870  14.605   8.668   1.703
30497W        W98871  41.859  39.038  13.899
30498W        W98872  19.650  39.864  11.479
30499W        W98873  17.246   4.323   4.776
30500W        W98874  11.139   6.863  12.423
30501W        W98875   9.647  44.971  13.841
30502W        W98876  21.724  30.587   0.396
30503W        W98877   5.859  27.046   1.218
30504W        W98878  35.994  32.033  14.293
30505W        W98879  30.980  22.093   3.783
30506W        W98880  32.509   8.174   3.729
30507W        W98881  39.418   5.821  11.485
30508W        W98882   7.314  11.772   1.232
30509W        W98883  30.530  34.546  13.358
30510W        W98884  30.457  36.533   4.197
30511W        W98885   5.808  14.791  13.036
30512W        W98886  26.587  41.908   3.212
30513W        W98887  43.880   4.229   0.924
30514W        W98888  11.265  20.755  14.321
30515W        W98889  11.727  28.617   2.676
30516W        W98890  11.643  18.293   2.810
30517W        W98891  35.013  21.723   4.660
30518W        W98892  30.538  26.582  14.293
30519W        W98893  24.037   4.786   3.858
30520W        W98894   9.232   0.454   1.298
30521W        W98895   9.265  11.795   2.693
30522W        W98896  30.969  12.128   4.689
30523W        W98897  16.713  15.795  12.882
30524W        W98898  44.493  31.142  12.462
30525W        W98899  38.879  44.384   0.949
30526W        W98900  37.970  18.723  11.101
30527W        W98901   7.342   0.296   2.729
30528W        W98902  14.705   0.786   2.835
30529W        W98903   1.931  26.607   0.456
30530W        W98904  21.552   5.761   3.207
30531W        W98905  24.494   3.417   4.830
30532W        W98906   1.340  38.497   2.303
30533W        W98907   6.721  15.704   3.379
30534W        W98908  22.217  23.661  13.952
30535W        W98909   0.258   5.834   3.749
30536W        W98910  37.917  37.478   1.250
30537W        W98911  41.030   9.881  11.018
30538W        W98912  26.627  13.842   1.349
30539W        W98913  16.693  29.110  12.940
30540W        W98914  31.037   4.253  13.361
30541W        W98915  22.593  21.637   1.879
30542W        W98916   4.410  32.052   0.462
30543W        W98917  17.161  40.505  12.542
30544W        W98918  33.501   1.283  12.565
30545W        W98919  14.666   7.230  12.047
30546W        W98920  14.640   4.729  11.530
30547W        W98921  43.917  10.364  13.975
30548W        W98922  12.219  12.727  11.983
30549W        W98923  24.587  35.555   3.381
30550W        W98924   4.293  31.532   0.287
30551W        W98925  15.624  40.934  12.960
30552W        W98926  43.354   4.334  10.928
30553W        W98927  36.409  34.567  11.603
30554W        W98928  41.335   9.742   3.756
30555W        W98929   9.347  44.832  11.922
30556W        W98930   7.385   4.348   3.237
30557W        W98931  29.048  38.525   0.295
30558W        W98932  14.783  41.986   4.236
30559W        W98933  34.009  15.154  12.417
30560W        W98934   0.316  10.366  14.897
30561W        W98935  24.584  43.360  13.329
30562W        W98936   6.723   5.322   0.843
30563W        W98937  24.175  31.603  10.416
30564W        W98938  14.794  41.922  13.867
30565W        W98939   8.334   0.909   1.753
30566W        W98940  13.745   1.891   4.793
30567W        W98941  17.685  15.644  14.457
30568W        W98942  32.931  39.459  12.523
30569W        W98943   0.347  36.943  14.842
30570W        W98944  34.490  28.508   3.194
30571W        W98945  33.593  28.953  13.478
30572W        W98946  26.978  42.876   4.706
30573W        W98947  40.306   3.350   9.990
30574W        W98948   0.287  39.869   1.798
30575W        W98949  20.032  23.708   0.401
30576W        W98950  28.578   4.284  13.471
30577W        W98951  21.547  37.944  13.396
30578W        W98952  32.563   4.229   4.329
30579W        W98953  10.263   0.773   3.305
30580W        W98954  37.404   5.841   9.933
30581W        W98955   8.182  29.536  11.487
30582W        W98956  20.135  30.495  10.019
30583W        W98957  23.680  35.999   3.650
30584W        W98958  31.619  18.236   4.829
30585W        W98959  17.266  25.117   2.357
30586W        W98960  26.627  10.797   0.798
30587W        W98961  32.596  33.107   0.744
30588W        W98962   4.865  30.936   4.667
30589W        W98963  12.741  18.610   3.334
30590W        W98964  31.077  28.609  12.983
30591W        W98965  19.074  21.588  14.468
30592W        W98966  15.704  33.395   0.885
30593W        W98967  30.520   1.373   0.404
30594W        W98968   1.254  10.674   1.734
30595W        W98969  17.174   0.923   1.447
30596W        W98970  39.839  35.577  12.873
30597W        W98971  36.460  27.003   2.402
30598W        W98972   7.668   0.374  14.463
30599W        W98973  43.931  34.369   2.851
30600W        W98974  13.147  30.090   4.686
30601W        W98975  31.976  13.218   0.751
30602W        W98976   2.238  27.647  14.977
30603W        W98977  17.096  24.505   0.469
30604W        W98978   5.887   8.827  12.550
30605W        W98979  24.662   8.872   0.391
30606W        W98980  29.073  19.612   4.796
30607W        W98981  39.503  34.502  14.950
30608W        W98982  44.891   3.322  11.448
30609W        W98983  17.699  35.855  13.898
30610W        W98984  14.589  20.111   3.854
30611W        W98985  23.109  30.958   3.659
30612W        W98986  25.067  10.246   3.672
30613W        W98987  17.696  31.622   2.305
30614W        W98988   4.943  33.008   5.311
30615W        W98989   4.446   9.265   0.864
30616W        W98990   0.861  42.395   2.888
30617W        W98991  13.816  42.984   5.252
30618W        W98992  18.136  35.093   0.463
30619W        W98993  24.176  15.168  12.562
30620W        W98994   8.345  27.168  12.537
30621W        W98995  28.532   5.837   2.266
30622W        W98996  37.858  42.835   2.207
30623W        W98997  20.746  17.065  10.962
30624W        W98998   4.829  16.172  14.986
30625W        W98999  43.335   8.868   4.285
30626W        W99000  43.773   1.787  14.506
30627W        W99001  36.851   8.784  10.614
30628W        W99002  15.660  38.936   1.839
30629W        W99003   5.354  33.009   3.845
30630W        W99004  27.985  18.168   0.729
30631W        W99005  16.622  19.619  13.445
30632W        W99006  44.434  32.046  10.606
30633W        W99007   7.802  40.026   4.230
30634W        W99008  12.137  10.850   3.150
30635W        W99009  27.457  41.791   2.214
30636W        W99010   9.323  41.904  13.431
30637W        W99011  32.602  38.432  10.499
30638W        W99012   8.327  43.516   2.188
30639W        W99013  25.554  33.022   1.869
30640W        W99014  44.899  21.585   4.625
30641W        W99015  12.740  24.177   3.146
30642W        W99016  36.932   7.791  14.762
30643W        W99017  34.963   6.309   2.336
30644W        W99018  37.989  17.561  12.424
30645W        W99019  32.516  10.814   3.294
30646W        W99020  43.388  15.664  12.834
30647W        W99021   3.266  16.810   4.339
30648W        W99022  32.031  16.221   4.248
30649W        W99023  12.235  10.640  10.497
30650W        W99024  39.063   5.702  11.456
30651W        W99025   4.307  32.102   3.708
30652W        W99026  12.352  22.059  14.481
30653W        W99027  18.788  40.956  13.337
30654W        W99028  28.957  24.548   2.185
30655W        W99029  34.555  13.823  10.481
30656W        W99030  40.918  21.073   2.294
30657W        W99031  24.615  27.006  13.418
30658W        W99032  22.088  16.309  14.403
30659W        W99033  18.097  12.658  10.952
30660W        W99034  15.662  33.472  14.989
30661W        W99035   9.218   7.676   3.374
30662W        W99036  33.503   9.355  10.593
30663W        W99037  19.223  44.776   0.867
30664W        W99038  22.211  27.941   2.697
30665W        W99039  21.218  31.629  14.508
30666W        W99040  29.101   9.819  12.524
30667W        W99041   8.179   2.955   4.604
30668W        W99042  20.262  40.049   9.555
30669W        W99043  35.881  18.757  12.402
30670W        W99044  39.952   4.384   1.336
30671W        W99045  39.314  41.813  14.014
30672W        W99046  11.129  12.661   4.239
30673W        W99047   0.865   5.716   1.338
30674W        W99048  30.118  44.931   2.779
30675W        W99049  11.640   5.863  10.470
30676W        W99050   5.200  22.133  12.420
30677W        W99051   3.900  33.601  13.010
30678W        W99052  28.506  24.701   2.180
30679W        W99053  40.543  32.527  12.481
30680W        W99054  28.043  28.522  11.433
30681W        W99055  34.021  13.614  13.879
30682W        W99056   2.404   5.207   4.224
30683W        W99057   7.831  23.156  13.945
30684W        W99058   3.764  43.863  12.828
30685W        W99059  11.158  38.409   4.241
30686W        W99060  18.295  34.882   2.677
30687W        W99061  26.021  42.791   2.214
30688W        W99062  17.621   5.843   3.708
30689W        W99063  41.371  39.874   3.816
30690W        W99064  43.351  32.625   2.832
30691W        W99065  10.346  38.401   2.705
30692W        W99066  36.003  21.706   2.760
30693W        W99067  21.108  37.381   2.200
30694W        W99068  15.655  11.137  12.016
30695W        W99069  23.717  15.815  14.870
30696W        W99070   5.802  15.730  11.612
30697W        W99071  35.405  23.235   3.178
30698W        W99072  19.253  20.571   3.283
30699W        W99073  26.186   3.864  12.041
30700W        W99074  43.854  16.209   4.821
30701W        W99075  13.771  12.643  12.084
30702W        W99076   3.438  25.058   2.345
30703W        W99077  31.532  41.892   2.866
30704W        W99078   5.893  31.922  14.030
30705W        W99079  38.977   5.727   3.234
30706W        W99080  16.174  43.954  14.821
30707W        W99081  41.305  44.898   3.165
30708W        W99082  11.229  24.531   2.900
30709W        W99083  22.159  19.686  14.289
30710W        W99084  37.890  36.535   1.900
30711W        W99085  15.597   0.349   4.711
30712W        W99086  41.870  16.610   4.263
30713W        W99087  34.370  32.104   4.217
30714W        W99088  41.523  16.073  11.917
30715W        W99089   9.665  30.430   0.810
30716W        W99090  26.169   0.261  12.970
30717W        W99091  27.188  22.545   4.636
30718W        W99092  17.681  10.337  10.021
30719W        W99093  41.970  19.592   4.344
30720W        W99094  27.997  19.622  14.473
30721W        W99095   3.866  28.949  14.393
30722W        W99096  29.023  44.789  14.784
30723W        W99097  11.225  34.080   4.251
30724W        W99098  18.659  19.249  11.536
30725W        W99099   1.416  10.171  14.862
30726W        W99100  15.215   4.853  10.549
30727W        W99101  42.333  27.469   3.282
30728W        W99102  36.530  12.193  10.601
30729W        W99103  29.432  23.017  12.823
30730W        W99104   8.694  31.002   2.746
30731W        W99105  30.638  25.613   0.243
30732W        W99106  22.021  29.004   3.666
30733W        W99107  11.346   8.193   0.949
30734W        W99108  24.520  31.592   5.284
30735W        W99109  19.109  38.530   1.773
30736W        W99110   6.731  11.719  13.907
30737W        W99111   4.346  32.966   4.758
30738W        W99112  34.371  16.187  12.021
30739W        W99113  17.766  20.077  10.477
30740W        W99114  30.648  10.241  11.442
30741W        W99115   3.856  13.607   1.308
30742W        W99116  14.595  26.584   1.866
30743W        W99117   3.863  26.679   3.817
30744W        W99118  39.035  12.215   0.730
30745W        W99119  19.647  13.127  12.402
30746W        W99120  22.540  15.702  12.570
30747W        W99121   9.382  23.990   4.236
30748W        W99122  38.551  44.435  10.407
30749W        W99123  42.459  17.650   2.885
30750W        W99124  16.743  17.219   0.802
30751W        W99125  26.041   1.816  10.988
30752W        W99126  41.853   2.845   0.813
30753W        W99127  11.856  15.590   1.241
30754W        W99128  41.354  14.780   1.328
30755W        W99129  27.564   4.935  13.811
30756W        W99130  39.326   6.874  10.470
30757W        W99131  33.001  16.184   1.901
30758W        W99132  44.368   7.390   2.813
30759W        W99133  41.393   8.405   0.848
30760W        W99134  22.586  12.630   2.786
30761W        W99135  10.375  31.570   0.844
30762W        W99136  17.657  40.879  12.988
30763W        W99137   3.744  19.127   3.157
30764W        W99138  39.057   1.394  13.034
30765W        W99139   1.756   6.330   0.342
30766W        W99140  23.546  20.062  11.487
30767W        W99141  24.519  12.270  11.373
30768W        W99142  36.359  16.688   3.764
30769W        W99143  11.629   0.926  13.418
30770W        W99144   0.308  37.399   3.676
30771W        W99145  40.885  30.572   1.922
30772W        W99146  20.163   5.243  11.950
30773W        W99147  31.475  31.616   3.215
30774W        W99148  18.272  15.616  13.322
30775W        W99149  28.964   0.772   1.290
30776W        W99150  23.658   3.402  10.516
30777W        W99151  18.237  13.823  13.064
30778W        W99152  36.506  29.047   1.345
30779W        W99153  36.912  21.614   3.653
30780W        W99154  23.542  17.560   9.935
30781W        W99155   5.330   1.363   3.245
30782W        W99156  13.258  25.518  13.857
30783W        W99157  42.943  34.110  11.456
30784W        W99158  40.027  38.537  14.411
30785W        W99159  40.400  23.207   0.882
30786W        W99160  20.618   8.388  11.599
30787W        W99161   9.778  28.495   5.144
30788W        W99162   2.378   0.390   0.355
30789W        W99163  37.545  28.050   2.345
30790W        W99164   2.836  36.936  12.850
30791W        W99165  28.933   5.264  11.582
30792W        W99166  14.816  44.881   1.293
30793W        W99167  34.935  33.068   3.216
30794W        W99168  39.472  15.163  14.913
30795W        W99169  32.634   9.851   1.358
30796W        W99170   0.279  16.157  14.512
30797W        W99171  20.264  43.404   1.730
30798W        W99172  13.270  37.949  14.286
30799W        W99173  31.963  34.954   4.309
30800W        W99174  26.057  27.659  10.903
30801W        W99175  16.073   6.303   0.481
30802W        W99176  39.847  21.564  10.516
30803W        W99177   4.441   9.155  12.416
30804W        W99178  30.547  22.138   0.361
30805W        W99179   9.169   8.755   4.333
30806W        W99180   5.700  38.966  14.299
30807W        W99181  31.639  19.050   3.726
30808W        W99182  32.472  27.111   4.602
30809W        W99183  25.218   4.272   2.344
30810W        W99184  35.926   4.776  12.502
30811W        W99185  23.635  21.199   2.668
30812W        W99186   4.863   3.901   0.837
30813W        W99187  10.676  37.981  12.081
30814W        W99188  29.973  31.899   2.252
30815W        W99189  19.614  33.527   4.789
30816W        W99190   9.766  29.142   3.187
30817W        W99191   1.295  30.117   0.452
30818W        W99192   3.347  35.523  13.484
30819W        W99193  44.849   9.390  14.432
30820W        W99194  34.398  25.200  11.115
30821W        W99195  29.554   6.291  12.535
30822W        W99196  23.569  12.197   3.386
30823W        W99197  17.613  24.226   0.836
30824W        W99198  14.783  15.745   0.872
30825W        W99199  32.454  24.579   3.318
30826W        W99200  35.086   3.889  13.850
30827W        W99201   9.376  36.961   1.724
30828W        W99202  31.464  31.107   0.949
30829W        W99203  26.484  18.710   3.334
30830W        W99204  31.044   7.871  12.851
30831W        W99205  29.546  45.000  10.989
30832W        W99206  41.889  12.637  11.576
30833W        W99207  35.044  19.119   0.481
30834W        W99208  39.050  25.989   1.311
30835W        W99209  36.023   9.741  11.595
30836W        W99210  13.184  13.234   3.683
30837W        W99211  38.870  14.212  13.806
30838W        W99212  17.295  31.971  13.837
30839W        W99213  28.012  23.706   4.344
30840W        W99214  44.353   1.927  12.403
30841W        W99215  39.948   3.425  11.930
30842W        W99216   4.865   4.832  12.869
30843W        W99217  19.772   7.274   0.861
30844W        W99218  17.146   6.404   0.348
30845W        W99219  25.565  19.541   0.273
30846W        W99220  35.543  40.511   4.251
30847W        W99221  12.685   4.924   3.793
30848W        W99222  22.114  11.227   3.716
30849W        W99223  38.444   9.150   3.869
30850W        W99224  26.185  41.513  11.878
30851W        W99225  19.667  33.397   0.799
30852W        W99226  11.674  26.018   1.812
30853W        W99227  13.344  31.598  14.350
30854W        W99228  15.710   4.709  11.544
30855W        W99229  13.150  32.457   0.816
30856W        W99230  18.052  24.993  13.360
30857W        W99231  29.668  19.692   2.278
30858W        W99232  12.129   7.197  11.020
30859W        W99233  42.847   8.269   2.239
30860W        W99234  27.109  12.717   3.847
30861W        W99235  28.970  44.466   3.335
30862W        W99236  34.907  44.761   3.187
30863W        W99237   3.312  13.760   2.204
30864W        W99238  43.479  29.162  10.923
30865W        W99239  32.486  12.610   1.264
30866W        W99240  43.768  10.313   1.331
30867W        W99241  20.687  20.192  12.512
30868W        W99242  28.554  38.063  12.892
30869W        W99243  17.566  36.897   0.325
30870W        W99244  26.690   0.957  14.848
30871W        W99245  20.664  43.349   0.765
30872W        W99246   8.331  26.497  14.773
30873W        W99247  16.686  40.365  12.905
30874W        W99248  22.134  20.594  12.917
30875W        W99249  17.161  42.979   5.237
30876W        W99250   0.365  28.614  11.007
30877W        W99251  39.028   0.379  14.290
30878W        W99252   0.457  14.122  12.057
30879W        W99253   2.760  32.598   0.963
30880W        W99254  13.122  42.021   2.383
30881W        W99255  44.492  34.953   2.673
30882W        W99256   4.872  41.436   3.858
30883W        W99257  16.634  30.623   3.176
30884W        W99258  15.303  21.756  12.833
30885W        W99259  12.180   6.332  12.451
30886W        W99260  18.687  24.656  14.913
30887W        W99261  15.702   9.737   4.146
30888W        W99262  27.103   0.337   2.366
30889W        W99263  17.729   5.795   0.839
30890W        W99264  22.029  30.457   2.794
30891W        W99265  16.765  10.292   2.269
30892W        W99266   1.239  43.456  13.447
30893W        W99267  24.602  28.954  11.430
30894W        W99268  40.837   2.393   1.412
30895W        W99269  43.954  25.506  13.372
30896W        W99270  12.321  22.196   2.231
30897W        W99271   5.210  14.113  14.279
30898W        W99272  27.449  40.391  10.528
30899W        W99273   3.732  13.836  11.959
30900W        W99274  22.225  21.080   3.826
30901W        W99275  42.411   0.371  11.039
30902W        W99276   1.753  11.158  10.905
30903W        W99277  17.185  17.624   4.273
30904W        W99278  42.979  32.591  12.366
30905W        W99279   4.438  25.529   1.407
30906W        W99280   8.187   1.856  12.360
30907W        W99281   6.779   9.704   0.377
30908W        W99282   7.174   5.317  11.946
30909W        W99283   8.310   8.345   0.769
30910W        W99284  23.203  34.080   0.242
30911W        W99285  26.519   0.403   5.747
30912W        W99286  27.955   4.402  14.370
30913W        W99287  12.707  40.828   2.878
30914W        W99288  33.113  39.436   1.695
30915W        W99289  27.969  42.982   4.800
30916W        W99290   1.311   8.861   3.707
30917W        W99291  20.162  25.557  13.376
30918W        W99292  34.892  44.975  14.419
30919W        W99293  22.634  41.439  12.448
30920W        W99294  35.893   6.866   2.836
30921W        W99295   0.847   5.856   1.842
30922W        W99296  14.718  23.205   0.737
30923W        W99297  13.233  19.727  14.324
30924W        W99298  16.766  17.670   2.689
30925W        W99299  36.488  42.328  12.844
30926W        W99300  40.436   2.381  13.510
30927W        W99301  30.014  16.769   3.685
30928W        W99302  27.642   8.192  13.037
30929W        W99303  32.617  13.268  13.050
30930W        W99304  26.486  34.508  12.341
30931W        W99305   3.246  39.905   3.176
30932W        W99306  10.351  14.728  14.513
30933W        W99307  18.150   2.411  11.988
30934W        W99308  22.140  13.741  14.389
30935W        W99309  31.044   5.756  11.901
30936W        W99310  33.028  12.287   0.312
30937W        W99311  27.689  11.166   2.863
30938W        W99312  12.348  37.457  13.356
30939W        W99313  12.763  17.074  12.389
30940W        W99314  41.892  42.860  12.551
30941W        W99315  27.110  10.774  11.605
30942W        W99316   3.951   6.302   3.185
30943W        W99317  20.588  41.466   3.270
30944W        W99318  27.661  25.971  12.550
30945W        W99319  29.647  10.801  11.086
30946W        W99320  32.079  41.313  11.597
30947W        W99321   6.371  25.645  14.308
30948W        W99322   1.789   4.436   4.293
30949W        W99323  26.503  26.091  10.929
30950W        W99324   3.324  18.784   3.188
30951W        W99325  24.506  21.673  11.974
30952W        W99326  22.082  30.049  11.419
30953W        W99327   7.180  37.940  10.960
30954W        W99328   2.793  17.799  13.957
30955W        W99329  13.125  23.586  12.061
30956W        W99330  38.012  36.562   0.925
30957W        W99331  21.536  35.510   4.225
30958W        W99332  17.185   1.962  14.395
30959W        W99333  31.977   2.966  14.928
30960W        W99334  16.274  23.213  11.056
30961W        W99335   6.836  11.371  12.927
30962W        W99336   8.289   9.847  13.462
30963W        W99337  32.391  41.836   2.792
30964W        W99338  36.462   8.363   1.305
30965W        W99339   6.184  39.462   0.253
30966W        W99340  35.582  42.938  14.384
30967W        W99341   6.908  33.480   3.736
30968W        W99342  28.080  11.752   2.832
30969W        W99343  13.310  13.119   4.355
30970W        W99344   8.757  12.258  14.382
30971W        W99345  40.919   3.342  13.497
30972W        W99346  38.466  28.936  12.979
30973W        W99347   1.898  19.648  12.560
30974W        W99348   7.383  35.027   3.702
30975W        W99349  28.598  15.316  14.393
30976W        W99350  44.434   2.884  11.915
30977W        W99351  12.249  18.669   1.316
30978W        W99352  26.573  41.009  11.095
30979W        W99353  14.183  12.303   4.769
30980W        W99354  33.923  16.666   3.195
30981W        W99355  15.262   4.363   1.822
30982W        W99356  24.580  26.639  13.342
30983W        W99357  41.841  37.976  13.381
30984W        W99358  19.103  37.887  14.837
30985W        W99359  29.073  35.448   3.200
30986W        W99360  29.157  19.257  11.577
30987W        W99361  17.256   9.859   5.308
30988W        W99362  40.419  37.903   3.858
30989W        W99363  39.475  44.499  11.045
30990W        W99364  31.988   3.268  10.937
30991W        W99365   9.157   3.913  10.997
30992W        W99366  20.711   7.217  13.053
30993W        W99367  36.067   3.848  14.873
30994W        W99368   6.727  19.605   4.733
30995W        W99369  15.178  32.529  13.538
30996W        W99370  39.927   1.733  12.408
30997W        W99371  43.320  32.563  13.427
30998W        W99372  12.322  31.982   0.796
30999W        W99373  15.301  33.570   4.769
31000W        W99374   3.309  35.862   1.874
31001W        W99375  13.813   1.887   1.840
31002W        W99376  18.197  40.312   1.710
31003W        W99377   5.799   9.302  12.933
31004W        W99378  29.600   7.883  14.808
31005W        W99379  32.047  33.896  10.892
31006W        W99380  41.919  23.686   1.832
31007W        W99381  33.559   8.701  13.958
31008W        W99382  16.810  36.502   3.235
31009W        W99383  34.000  42.316   3.270
31010W        W99384  36.912  10.343  11.122
31011W        W99385  30.466  33.925   3.694
31012W        W99386  35.861  27.552   2.770
31013W        W99387  10.273   8.301  11.079
31014W        W99388  37.966  43.933   1.420
31015W        W99389   3.768   4.345  11.049
31016W        W99390  39.018  29.457  12.435
31017W        W99391  16.787  37.064   0.483
31018W        W99392   2.952  25.693  10.553
31019W        W99393  33.587  35.547   0.888
31020W        W99394  18.623   3.736   1.409
31021W        W99395   7.803   4.803  12.580
31022W        W99396  22.164  23.088  10.617
31023W        W99397   8.184  19.245  12.854
31024W        W99398   4.841  37.967   0.916
31025W        W99399  25.968  24.586   3.328
31026W        W99400  10.256  10.765  14.972
31027W        W99401  30.122  40.393  13.875
31028W        W99402   5.327  27.471  10.627
31029W        W99403  19.732  13.807  14.823
31030W        W99404  21.079  37.339   4.223
31031W        W99405  26.034  37.440  11.104
31032W        W99406  11.818  21.619  13.033
31033W        W99407  39.500  40.477  14.491
31034W        W99408   5.303  21.227  11.579
31035W        W99409  38.362  17.225  14.284
31036W        W99410  19.718  22.639   3.852
31037W        W99411  39.392  23.063  13.343
31038W        W99412  41.949   0.927   1.309
31039W        W99413  33.008  43.490   3.714
31040W        W99414  29.063  16.736  11.425
31041W        W99415  30.521  15.778   2.693
31042W        W99416   5.294  17.154   4.297
31043W        W99417  17.567  29.941  13.923
31044W        W99418  12.833  14.118  14.395
31045W        W99419  11.194  32.953   2.808
31046W        W99420   4.915  25.145  10.466
31047W        W99421  23.559  19.696   4.769
31048W        W99422  23.554  18.285   3.819
31049W        W99423   9.743   6.687   4.220
31050W        W99424  42.801  11.367  12.382
31051W        W99425  17.120  19.204  14.358
31052W        W99426  22.094  28.039  10.942
31053W        W99427  18.168   9.200   0.775
31054W        W99428   9.740  13.187   2.417
31055W        W99429  43.501  43.466   0.870
31056W        W99430  41.989  16.302   3.158
31057W        W99431  20.255   9.170   0.764
31058W        W99432  42.524  19.203   3.244
31059W        W99433  14.176  25.079   0.429
31060W        W99434   5.413  10.194  11.018
31061W        W99435   8.770   0.798  12.043
31062W        W99436  16.699  42.842   3.726
31063W        W99437  37.030  13.217   2.404
31064W        W99438  32.511  29.438  14.388
31065W        W99439  42.787  12.723  13.961
31066W        W99440  41.463   7.809  13.876
31067W        W99441   3.738  22.510   0.940
31068W        W99442  39.357  22.152   1.230
31069W        W99443   0.899  12.362  12.095
31070W        W99444  39.954  25.468  11.453
31071W        W99445   9.253  24.593  12.392
31072W        W99446  39.319  16.669   2.850
31073W        W99447  22.021  25.978   2.838
31074W        W99448  34.033  44.443   1.227
31075W        W99449   9.334  35.441  13.326
31076W        W99450  26.610  41.497  10.532
31077W        W99451   4.855  20.684  14.896
31078W        W99452  13.772  29.442  13.897
31079W        W99453  41.978  36.055  10.096
31080W        W99454  13.841  31.903  13.415
31081W        W99455  36.475  34.590   9.978
31082W        W99456  14.108   5.908  10.454
31083W        W99457  26.984  42.412   2.735
31084W        W99458   7.320  32.511   2.887
31085W        W99459  17.215  22.050  13.464
31086W        W99460  20.252  11.203   4.225
31087W        W99461  16.134  20.709   0.301
31088W        W99462   2.722  17.138   4.780
31089W        W99463  20.749   6.203  11.882
31090W        W99464  36.463  32.423   3.754
31091W        W99465  11.286  20.107  11.387
31092W        W99466   1.257  24.051   0.871
31093W        W99467  35.437  13.649   3.787
31094W        W99468   3.266  40.040   3.641
31095W        W99469  11.230   2.954  11.595
31096W        W99470   0.344  39.327  12.838
31097W        W99471  10.273  17.298   2.185
31098W        W99472  35.598  14.661   1.392
31099W        W99473  33.122  44.407   0.300
31100W        W99474  11.289  42.481   0.339
31101W        W99475   8.806  20.272   2.288
31102W        W99476  40.869  25.600  11.586
31103W        W99477  19.773  20.707  13.490
31104W        W99478  27.479  24.140  12.983
31105W        W99479  26.018   5.758   2.286
31106W        W99480  24.228  24.178  14.026
31107W        W99481  23.640  31.632   0.354
31108W        W99482  37.969  31.139   2.765
31109W        W99483  14.280  43.416   0.409
31110W        W99484   6.817  35.057  12.468
31111W        W99485  30.527  43.834  10.943
31112W        W99486   0.394  27.179   3.314
31113W        W99487  31.929   8.203  14.372
31114W        W99488  29.962  31.921   5.108
31115W        W99489   2.369  31.014   0.962
31116W        W99490  41.857   2.896  10.460
31117W        W99491  44.398  34.112  11.033
31118W        W99492  14.612  41.433   1.349
31119W        W99493   8.275  20.718  10.430
31120W        W99494  26.529  13.611   1.831
31121W        W99495   6.425  19.671   0.448
31122W        W99496  36.426  23.638   0.791
31123W        W99497  29.444  13.300   2.234
31124W        W99498  25.117  29.028  13.940
31125W        W99499  30.054  41.448   2.673
31126W        W99500  35.903  15.610   2.760
31127W        W99501  13.263  28.971  14.892
31128W        W99502  11.681  35.980   0.842
31129W        W99503  31.585  38.330  10.970
31130W        W99504   9.210  17.184  10.554
31131W        W99505  22.146  32.984   3.816
31132W        W99506  41.907  10.256  11.967
31133W        W99507   0.474  40.812   0.313
31134W        W99508  34.534  39.441  13.858
31135W        W99509   5.242  37.460   4.214
31136W        W99510  22.210   4.348   2.772
31137W        W99511  42.469  33.446   3.858
31138W        W99512  12.262  12.122  14.928
31139W        W99513  44.379  38.389  11.437
31140W        W99514   6.350  44.459  10.644
31141W        W99515  32.899  44.903   3.696
31142W        W99516   2.298  33.535  13.505
31143W        W99517  34.605  26.524  13.360
31144W        W99518   8.791   8.262  11.945
31145W        W99519  38.361   2.928  11.047
31146W        W99520  15.262  33.482  11.478
31147W        W99521  31.914  22.601  10.915
31148W        W99522  33.887  35.042  13.988
31149W        W99523  35.076   0.438   0.915
31150W        W99524  36.984  24.537   3.640
31151W        W99525  36.476  14.800  10.566
31152W        W99526   7.323   5.750   1.387
31153W        W99527  21.257  24.157   2.288
31154W        W99528   6.343  37.383   3.864
31155W        W99529   3.303  13.756   1.282
31156W        W99530  24.665   9.326   1.441
31157W        W99531  17.659  28.579  12.579
31158W        W99532  26.694  37.471   1.224
31159W        W99533  20.699  34.866   0.931
31160W        W99534  28.942  17.288  14.013
31161W        W99535   1.294  16.117  13.330
31162W        W99536  41.858  38.457   3.749
31163W        W99537  43.445   7.775  11.982
31164W        W99538   3.875  20.042  14.933
31165W        W99539  33.440  38.973  14.017
31166W        W99540   5.328  32.903  13.530
31167W        W99541  26.642  21.571   2.374
31168W        W99542  10.852  34.052  10.461
31169W        W99543   0.289   9.275  11.400
31170W        W99544   6.724  40.423   1.728
31171W        W99545   8.710  27.516  14.415
31172W        W99546  17.260  29.562   4.206
31173W        W99547  17.219   8.288  11.453
31174W        W99548  25.063  14.095  11.489
31175W        W99549  29.537  15.232   3.206
31176W        W99550  17.704  30.118  14.485
31177W        W99551  34.497  39.423   3.279
31178W        W99552  17.792   1.255   1.745
31179W        W99553  32.095  12.214   4.340
31180W        W99554  15.785  31.582  13.364
31181W        W99555  22.171  27.084  11.492
31182W        W99556  15.606  13.671   3.811
31183W        W99557   2.739   9.299  12.557
31184W        W99558  32.107   0.961  14.835
31185W        W99559  19.723   2.392  11.873
31186W        W99560  19.207  42.857  13.949
31187W        W99561  27.177  28.572   4.321
31188W        W99562  25.572   7.699  12.051
31189W        W99563   8.660  26.077  13.402
31190W        W99564  11.339  28.133   4.741
31191W        W99565  42.977  43.339  13.929
31192W        W99566  32.617  43.015   5.236
31193W        W99567  37.988   8.252   1.270
31194W        W99568   7.218   4.742  13.959
31195W        W99569  17.649   4.761  14.868
31196W        W99570   2.435  35.557   4.143
31197W        W99571   6.730  10.736   0.455
31198W        W99572  31.514  38.407   0.363
31199W        W99573  29.439  44.867   1.269
31200W        W99574  40.871  29.106  14.768
31201W        W99575  33.456   1.326   2.311
31202W        W99576   9.831  32.590  14.925
31203W        W99577   4.251  31.420  10.416
31204W        W99578  17.654  12.254   0.790
31205W        W99579  11.824  19.231   4.725
31206W        W99580   6.283   1.468   4.345
31207W        W99581  41.505  25.018  14.964
31208W        W99582   8.250   2.462   2.253
31209W        W99583   5.781  23.685   4.598
31210W        W99584  42.986  16.735  13.839
31211W        W99585  42.307  22.741  12.461
31212W        W99586  34.931  25.099  12.523
31213W        W99587  38.857  10.740  11.877
31214W        W99588  44.862  25.081   0.391
31215W        W99589  16.294  33.405  12.536
31216W        W99590   4.337   4.275   0.775
31217W        W99591  12.681  13.778  10.615
31218W        W99592  32.623   5.887  14.838
31219W        W99593  38.042  35.891   3.781
31220W        W99594  24.562  33.598  11.966
31221W        W99595  19.773  32.585  14.308
31222W        W99596  30.415  23.173  14.418
31223W        W99597  41.028  28.187  14.783
31224W        W99598  39.480   9.865  12.888
31225W        W99599   2.248  20.169   2.899
31226W        W99600  20.110   4.334   1.438
31227W        W99601  15.116  41.004  11.516
31228W        W99602  36.894   8.315  14.422
31229W        W99603  28.008  29.589  10.975
31230W        W99604  17.740   0.979  14.313
31231W        W99605   8.851   8.764  12.339
31232W        W99606   3.757  40.994   1.778
31233W        W99607  17.647   8.342  12.890
31234W        W99608  42.010  41.793  14.928
31235W        W99609  11.683   2.274  12.453
31236W        W99610  34.437  34.489   4.642
31237W        W99611  38.957  41.911  14.342
31238W        W99612  19.178  42.317  13.394
31239W        W99613   8.254  13.125   0.860
31240W        W99614  19.148  20.051  10.569
31241W        W99615  25.541  10.829  14.827
31242W        W99616   1.243   3.711   2.890
31243W        W99617  27.601  22.056   0.770
31244W        W99618  23.128   0.459  12.448
31245W        W99619  20.188  15.790  11.882
31246W        W99620   7.383  29.008   2.406
31247W        W99621  30.146  43.317  13.048
31248W        W99622  28.117  43.281   5.317
31249W        W99623  17.719  26.470   2.791
31250W        W99624  34.599  24.093   1.730
31251W        W99625  32.116  14.158   2.234
31252W        W99626   3.369  34.435   0.307
31253W        W99627  24.637  39.011  13.853
31254W        W99628  35.919   8.735   4.667
31255W        W99629  22.620  41.007  14.770
31256W        W99630   8.855  43.349   1.274
31257W        W99631  32.583  41.396   4.675
31258W        W99632  27.191   3.252  11.066
31259W        W99633  17.765  32.887   4.184
31260W        W99634  30.478  19.579  13.967
31261W        W99635  43.366  12.272   3.327
31262W        W99636  34.382  18.230  14.390
31263W        W99637  23.729   4.300   0.900
31264W        W99638  43.420  16.138   0.924
31265W        W99639  20.593  36.975  13.398
31266W        W99640  16.267  44.932  13.850
31267W        W99641  44.873  13.721   3.658
31268W        W99642   4.914  27.657   1.273
31269W        W99643   6.890  43.392  14.778
31270W        W99644  21.103  22.198   2.864
31271W        W99645  23.676  44.828  14.889
31272W        W99646  20.602  27.185  13.338
31273W        W99647  30.464  22.056  14.318
31274W        W99648  21.572   9.818  11.083
31275W        W99649  43.317  25.975   4.301
31276W        W99650  38.008  30.145   4.299
31277W        W99651  25.987  40.034  12.368
31278W        W99652   5.779  42.816  11.539
31279W        W99653  32.120   8.867   9.994
31280W        W99654   1.962  25.597  12.920
31281W        W99655   7.375  18.577   0.464
31282W        W99656   1.818  11.799  13.313
31283W        W99657  16.231  29.106  12.072
31284W        W99658  25.972  21.127   2.809
31285W        W99659  30.114  18.187   3.221
31286W        W99660  42.352  39.837  11.459
31287W        W99661  12.626  34.929   4.717
31288W        W99662  41.469  30.014  14.779
31289W        W99663  34.569  21.125  12.072
31290W        W99664   7.817  12.246  12.930
31291W        W99665  35.478  18.165  12.903
31292W        W99666   9.814  34.077   4.822
31293W        W99667   0.956  23.590   4.343
31294W        W99668  40.837   1.418   3.261
31295W        W99669  24.128  26.074  13.520
31296W        W99670  14.335   2.369   4.178
31297W        W99671  31.118  42.466  14.852
31298W        W99672  15.710  23.211  12.988
31299W        W99673   8.330  34.442   4.159
31300W        W99674  13.203  33.597  13.375
31301W        W99675  20.623  17.237   4.599
31302W        W99676  30.514  34.936   3.825
31303W        W99677   1.899  38.506   2.376
31304W        W99678  38.431  28.663  13.493
31305W        W99679  29.993  14.769  11.605
31306W        W99680  34.943  24.673   3.789
31307W        W99681   5.210  37.016  13.022
31308W        W99682  10.222  28.458   1.926
31309W        W99683  19.179  15.792   0.387
31310W        W99684  22.713  14.832  11.923
31311W        W99685  24.490  24.524   3.737
31312W        W99686  43.004   1.408   1.384
31313W        W99687  28.648   7.688   0.482
31314W        W99688  11.828  32.516  14.324
31315W        W99689  39.962  41.502   2.352
31316W        W99690  29.578  29.082  10.913
31317W        W99691   7.775  36.982   1.405
31318W        W99692  27.643  25.056   2.769
31319W        W99693  25.549  41.865   1.317
31320W        W99694  29.069   1.733   2.725
31321W        W99695  32.589  39.828   4.200
31322W        W99696  27.053  34.514  10.581
31323W        W99697  17.103  15.602  14.878
31324W        W99698  43.783  34.522   4.130
31325W        W99699  21.063  44.480  14.017
31326W        W99700   5.817  31.438   0.844
31327W        W99701  25.194   7.717  11.444
31328W        W99702  12.175   3.746   3.167
31329W        W99703  27.009  25.646   0.448
31330W        W99704  12.707  37.371  14.419
31331W        W99705   1.298  43.352   2.231
31332W        W99706   6.220   1.400  12.906
31333W        W99707  18.643  43.929   0.830
31334W        W99708  17.224   0.946   0.920
31335W        W99709  36.402  27.943   2.224
31336W        W99710  30.933  43.984   2.233
31337W        W99711   5.232  32.481  13.064
31338W        W99712   4.265  18.113  10.500
31339W        W99713  42.345  32.608  11.452
31340W        W99714   0.283  17.696  13.956
31341W        W99715  27.567   8.655   1.808
31342W        W99716  15.596  28.951  14.018
31343W        W99717  35.997  12.293   1.399
31344W        W99718  39.513   2.249   2.288
31345W        W99719  22.019  37.000  10.623
31346W        W99720  42.407  23.127  14.884
31347W        W99721  36.077  33.075  14.516
31348W        W99722  31.642   3.760   2.736
31349W        W99723   5.200  41.989  11.863
31350W        W99724   0.839  43.951   0.859
31351W        W99725  40.874  32.614  12.952
31352W        W99726  29.098  38.481   3.774
31353W        W99727  12.172  30.439  14.827
31354W        W99728  11.162  43.766   2.779
31355W        W99729  24.601  36.084  11.430
31356W        W99730  19.040  25.041  14.872
31357W        W99731  37.565  37.570  14.787
31358W        W99732  41.823   2.429  14.955
31359W        W99733  27.170   0.822  13.545
31360W        W99734  43.501   9.882   3.297
31361W        W99735   9.237  31.403  11.514
31362W        W99736  28.506  13.196   0.910
31363W        W99737  12.686  27.064   0.416
31364W        W99738   6.680  28.108   2.779
31365W        W99739   6.257   0.881   1.934
31366W        W99740  36.505  10.871   2.764
31367W        W99741   4.206  27.470  13.951
31368W        W99742  33.992  15.194   0.399
31369W        W99743   4.378  12.783   4.344
31370W        W99744  14.231  16.646  14.765
31371W        W99745  38.906  15.261  10.505
31372W        W99746  20.073  35.604   0.477
31373W        W99747   7.241  38.943   3.657
31374W        W99748  27.521  23.584  13.875
31375W        W99749  22.226  30.632   5.112
31376W        W99750  38.044  22.063  10.552
31377W        W99751   6.407  22.699   2.418
31378W        W99752  11.661  28.011   3.338
31379W        W99753   1.300  43.832   1.931
31380W        W99754   4.259   3.320   3.850
31381W        W99755  27.961   5.800   2.196
31382W        W99756  32.068   2.742   5.131
31383W        W99757  11.739  39.054   2.305
31384W        W99758   3.450  10.763  11.595
31385W        W99759  31.603  44.955   3.806
31386W        W99760  22.686  23.495  11.934
31387W        W99761   4.416  40.549   2.377
31388W        W99762   9.212  44.335   0.882
31389W        W99763  22.998   4.385  11.999
31390W        W99764  24.690  14.209  11.917
31391W        W99765   4.311   2.303   2.891
31392W        W99766  26.661  23.206   1.337
31393W        W99767   0.364  12.265  11.974
31394W        W99768  18.767  17.295  12.971
31395W        W99769  43.826   5.367   4.153
31396W        W99770  44.409  29.521   5.315
31397W        W99771   7.189  35.511  11.513
31398W        W99772  33.117  23.104  14.356
31399W        W99773  27.942  12.331  12.965
31400W        W99774  25.969  18.294   2.352
31401W        W99775  25.132  22.182  10.473
31402W        W99776   0.933  33.514   9.978
31403W        W99777  16.115   3.871  13.004
31404W        W99778  12.350  18.607   4.820
31405W        W99779  33.875  20.254   1.814
31406W        W99780   8.849   0.449   3.864
31407W        W99781  23.006   8.675   5.262
31408W        W99782  33.064  19.773  14.861
31409W        W99783   2.906  35.549  11.380
31410W        W99784   6.788   3.785  11.956
31411W        W99785  25.146  20.230  12.839
31412W        W99786  35.893  28.097   4.320
31413W        W99787  16.124  30.529   0.952
31414W        W99788  37.965   2.263   0.360
31415W        W99789  34.886  23.715  12.491
31416W        W99790  43.792  30.452   4.291
31417W        W99791  20.589  18.710   2.871
31418W        W99792  32.416  26.970  14.437
31419W        W99793  33.453  35.906  12.361
31420W        W99794  20.695  36.014   4.213
31421W        W99795  20.634  16.280  12.501
31422W        W99796  21.026   1.289  12.371
31423W        W99797  23.584  37.452   2.784
31424W        W99798  36.867  30.152  12.531
31425W        W99799   5.362  43.362   3.168
31426W        W99800  13.171  26.169  11.006
31427W        W99801  34.406  42.936   1.727
31428W        W99802  43.358  26.091  11.990
31429W        W99803  18.707  37.897   2.306
31430W        W99804  38.862  18.579  10.141
31431W        W99805  19.151  41.308   0.291
31432W        W99806   5.193  17.307   2.698
31433W        W99807  20.031  42.375  11.941
31434W        W99808  13.679  42.322   1.310
31435W        W99809  16.648   8.203  14.449
31436W        W99810  27.511  31.563  10.529
31437W        W99811  21.051  31.986  14.896
31438W        W99812  13.222  19.171   2.386
31439W        W99813  35.051  24.496  13.793
31440W        W99814  19.701  17.680   3.778
31441W        W99815  37.872   0.267   3.154
31442W        W99816  23.228   4.345  14.324
31443W        W99817   2.847  16.082  12.041
31444W        W99818   1.253   4.884  13.806
31445W        W99819  43.272  38.898   4.149
31446W        W99820  11.133  44.451   2.323
31447W        W99821  22.037   1.799  11.036
31448W        W99822  39.429  16.264   3.326
31449W        W99823  37.892  20.107   2.715
31450W        W99824  11.735  10.651  10.997
31451W        W99825  27.147  18.623  14.411
31452W        W99826  23.580  39.045   0.933
31453W        W99827  42.887  44.998   2.323
31454W        W99828  17.743  21.629   1.234
31455W        W99829  41.378  26.467   0.783
31456W        W99830  27.192  26.590   2.738
31457W        W99831  32.023  11.198  12.917
31458W        W99832   9.829  27.994   1.800
31459W        W99833   8.770  33.603   5.284
31460W        W99834  16.187  30.127  11.473
31461W        W99835  22.603  42.472   2.265
31462W        W99836  43.325   7.268  14.786
31463W        W99837  33.451  32.428  11.897
31464W        W99838  10.791  41.414  14.914
31465W        W99839  32.891  10.757   3.322
31466W        W99840  19.252  39.898   0.746
31467W        W99841   0.347  18.055   2.242
31468W        W99842  11.643   2.396   0.253
31469W        W99843  13.709  12.334  12.363
31470W        W99844  41.902   0.930   3.818
31471W        W99845   9.818  24.569   1.414
31472W        W99846  25.126  30.625  13.364
31473W        W99847  33.432  20.702  12.531
31474W        W99848   9.798  16.712  12.999
31475W        W99849  37.408  42.291   1.798
31476W        W99850  21.159  14.813   3.336
31477W        W99851  18.237   2.790  14.902
31478W        W99852  15.760  10.369   2.410
31479W        W99853  15.726  32.071  13.890
31480W        W99854   7.804  42.484   2.793
31481W        W99855  27.108  10.708  10.485
31482W        W99856  39.386  17.670  11.871
31483W        W99857  27.166   5.305   1.734
31484W        W99858  25.621  13.233   4.229
31485W        W99859  12.263  18.672  11.109
31486W        W99860  37.419  40.422  14.837
31487W        W99861  30.152   1.918  10.487
31488W        W99862   2.946  16.176   1.907
31489W        W99863  36.964  12.351  14.325
31490W        W99864  16.248  23.502  14.778
31491W        W99865   9.198  34.900   3.285
31492W        W99866  38.444  28.581  11.436
31493W        W99867  22.742   1.864  14.445
31494W        W99868  34.114   7.801   4.803
31495W        W99869  37.025  17.595  14.430
31496W        W99870  14.817  38.030  13.441
31497W        W99871  11.150  39.987   2.804
31498W        W99872  14.766   6.362  13.860
31499W        W99873  18.289  39.543  14.362
31500W        W99874   1.818  35.604  14.791
31501W        W99875   1.778  44.503   4.339
31502W        W99876  15.731   5.888  11.981
31503W        W99877  35.501   4.444   2.799
31504W        W99878  34.398  12.159   1.832
31505W        W99879  43.359  43.867   0.863
31506W        W99880  22.598  38.070  11.037
31507W        W99881  37.410  32.597  14.507
31508W        W99882  14.779  27.503  11.098
31509W        W99883  36.842  33.445  10.622
31510W        W99884   5.747  24.141  14.437
31511W        W99885  27.187  16.637   4.185
31512W        W99886  39.062  41.455  12.038
31513W        W99887  31.905  14.636   2.781
31514W        W99888   7.246   7.271   1.438
31515W        W99889  27.616  29.134  14.959
31516W        W99890  16.207  37.458   4.158
31517W        W99891  26.988   9.846  11.521
31518W        W99892  40.459   9.260  12.073
31519W        W99893  13.253   8.809   1.353
31520W        W99894   5.883   4.704  13.878
31521W        W99895  18.712  22.178  13.040
31522W        W99896  17.195  18.599   2.373
31523W        W99897  35.961  34.592   2.681
31524W        W99898   8.211   8.896   3.148
31525W        W99899  25.141  35.856   4.665
31526W        W99900  33.542  35.428   3.197
31527W        W99901   1.302  11.143  10.415
31528W        W99902   0.762  43.816   9.977
31529W        W99903  22.666   3.726   1.239
31530W        W99904  23.135  31.572   4.728
31531W        W99905  14.744  16.270  12.384
31532W        W99906   5.296  10.637  14.902
31533W        W99907  30.994  22.062  11.537
31534W        W99908  26.498  16.582  12.058
31535W        W99909  21.668  12.701  12.037
31536W        W99910  30.041  30.525   5.286
31537W        W99911   3.818  26.645  13.851
31538W        W99912  42.516  36.544  12.415
31539W        W99913  29.424  16.091  14.788
31540W        W99914  39.863  19.638  13.385
31541W        W99915  31.915  28.461  11.391
31542W        W99916  27.076  15.625   3.190
31543W        W99917   8.779  32.573   1.321
31544W        W99918   6.822  39.927  12.394
31545W        W99919  16.649   3.453   4.650
31546W        W99920  15.282  15.121   1.703
31547W        W99921  33.969  35.501   2.860
31548W        W99922  37.973  42.440   2.692
31549W        W99923  10.660  29.146  13.915
31550W        W99924  34.369  36.589  11.551
31551W        W99925  34.008   4.390   3.375
31552W        W99926   5.419   8.292   0.414
31553W        W99927  43.830  19.610   0.315
31554W        W99928  18.666  44.502  12.013
31555W        W99929  43.509  43.846   3.717
31556W        W99930  31.112  23.625   1.372
31557W        W99931  34.468  40.329  14.794
31558W        W99932  34.442  42.497  14.886
31559W        W99933  37.010  28.599  11.544
31560W        W99934  24.090  11.627   1.766
31561W        W99935  17.593   2.263  13.980
31562W        W99936  44.787  20.661   0.291
31563W        W99937  31.102  40.509  10.985
31564W        W99938  17.107  28.081   4.740
31565W        W99939   7.256   7.769  14.455
31566W        W99940  26.188  30.629   2.294
31567W        W99941  38.364  22.688  13.842
31568W        W99942  29.936  11.172   2.376
31569W        W99943  39.418   8.869   0.267
31570W        W99944   5.730   8.239   1.737
31571W        W99945  19.611  18.117   4.202
31572W        W99946  20.628  43.787   4.194
31573W        W99947  12.707  16.236  14.291
31574W        W99948   2.229  26.560  10.626
31575W        W99949  31.606  17.746   2.742
31576W        W99950  38.356  42.350  14.781
31577W        W99951   8.788   5.849   3.163
31578W        W99952  18.559   5.299  13.986
31579W        W99953  21.673  35.411   3.860
31580W        W99954  14.729  37.513   3.866
31581W        W99955  23.144  17.628  13.035
31582W        W99956  43.487  35.017   1.934
31583W        W99957  37.835  25.626  12.553
31584W        W99958  43.471  22.557   3.779
31585W        W99959  25.017  35.415  11.406
31586W        W99960   3.732  33.897  10.451
31587W        W99961  14.153  28.061   0.728
31588W        W99962  11.357  32.036  12.421
31589W        W99963  44.861  22.686   0.787
31590W        W99964   1.783  23.715  11.907
31591W        W99965  26.597  31.022   1.264
31592W        W99966  15.768   0.340   2.267
31593W        W99967  20.702   7.362   3.735
31594W        W99968   9.660  16.190   4.144
31595W        W99969   6.825  14.631   4.135
31596W        W99970  23.170  25.629  12.344
31597W        W99971  31.620  34.031   4.766
31598W        W99972  44.789  25.523   0.816
31599W        W99973   3.894   0.819   4.183
31600W        W99974  16.096  14.280  11.112
31601W        W99975  31.588  25.531   1.758
31602W        W99976  37.847  33.482   3.230
31603W        W99977  19.065  42.934   2.831
31604W        W99978  15.109  23.712   0.460
31605W        W99979  34.603  28.149  13.883
31606W        W99980  44.437   8.748   4.774
31607W        W99981   5.380  25.188   3.317
31608W        W99982  36.583  32.110   0.747
31609W        W99983  31.914  35.536   1.337
31610W        W99984  30.532  36.570  11.979
31611W        W99985  30.121  40.375   3.832
31612W        W99986  15.244  41.882  13.507
31613W        W99987  43.368  25.656  12.404
31614W        W99988  28.109  18.210   0.298
31615W        W99989  14.191  41.357   3.767
31616W        W99990  14.113   8.166  11.987
31617W        W99991  32.629  37.931  14.873
31618W        W99992   4.710  30.059  14.429
31619W        W99993   1.899   7.389   2.726
31620W        W99994  15.258   7.298  10.014
31621W        W99995  27.952  21.580   1.882
31622W        W99996  35.408  38.571  14.299
31623W        W99997  11.648  14.334   0.345
31624W        W99998  34.970  28.557   1.754
31625W        W99999  30.013  40.013   4.762
31626W        W    0  22.191   2.777   2.784
31627W        W    1  16.198  38.043  12.404
31628W        W    2  30.935  34.559   3.629
31629W        W    3   4.410   3.830  14.396
31630W        W    4  27.950  32.597  13.327
31631W        W    5  37.896  21.140  10.907
31632W        W    6  24.013   5.798  14.330
31633W        W    7  15.237  31.113  11.555
31634W        W    8  16.100   3.883   2.710
31635W        W    9  12.629  28.036  11.479
31636W        W   10  10.722  38.869  12.380
31637W        W   11  14.715  40.476  10.914
31638W        W   12  43.415  42.951   0.314
31639W        W   13  39.018   0.338  11.064
31640W        W   14  15.293  42.436  11.912
31641W        W   15  39.422  39.367   1.766
31642W        W   16   4.304  35.931   2.283
31643W        W   17   5.393  15.665  13.483
31644W        W   18   1.364   7.245   0.412
31645W        W   19  24.221  31.487  12.046
31646W        W   20  34.090  21.074   1.782
31647W        W   21  31.455   1.442  11.104
31648W        W   22  14.605  40.359  14.479
31649W        W   23  38.338  44.851   0.273
31650W        W   24  32.043  41.371  14.991
31651W        W   25  20.623  41.971   1.912
31652W        W   26   1.263  33.999   0.462
31653W        W   27  42.414  20.206  12.368
31654W        W   28  12.666   4.798  13.532
31655W        W   29  22.242   9.284  13.364
31656W        W   30  40.419  41.806  12.909
31657W        W   31  43.872  43.403  13.315
31658W        W   32  37.928  16.283  11.936
31659W        W   33  22.638  37.351   1.420
31660W        W   34  40.488  16.796  11.423
31661W        W   35  29.980  24.541  13.928
31662W        W   36  15.800  24.212  13.062
31663W        W   37   8.788  42.012  11.565
31664W        W   38  30.466  41.428   3.659
31665W        W   39  15.322  19.039   3.735
31666W        W   40  35.458   2.761  10.423
31667W        W   41  41.881  20.125   0.761
31668W        W   42   5.302   7.375  10.906
31669W        W   43  44.368  40.503   0.247
31670W        W   44  44.357  26.488  13.346
31671W        W   45  39.488   6.733  11.958
31672W        W   46   1.418  19.180  14.940
31673W        W   47   1.414  42.801  10.117
31674W        W   48  20.548  28.495  11.027
31675W        W   49  37.490  29.664   2.408
31676W        W   50  29.492  12.710  14.491
31677W        W   51  17.621   5.802   1.820
31678W        W   52  10.745  24.180   1.886
31679W        W   53  43.022  35.419   2.239
31680W        W   54  17.689  34.394   0.396
31681W        W   55  26.457  43.372  11.481
31682W        W   56  35.079  33.022   1.355
31683W        W   57  22.246  12.641  13.454
31684W        W   58  39.331   1.384  14.339
31685W        W   59   1.732   2.322   3.221
31686W        W   60  16.285  21.169   3.810
31687W        W   61  21.130  19.145   0.243
31688W        W   62  14.152  40.882   0.425
31689W        W   63  23.565  34.453  12.087
31690W        W   64   6.798   2.754   5.751
31691W        W   65  37.423   3.892   1.708
31692W        W   66  33.496  19.603   1.879
31693W        W   67  12.271  36.399   4.740
31694W        W   68  18.166  33.965  12.924
31695W        W   69  16.206  23.162   0.469
31696W        W   70  24.565  34.562   4.696
31697W        W   71  44.998  15.612   1.765
31698W        W   72  35.956  44.809  12.471
31699W        W   73  41.882  39.376  10.444
31700W        W   74  21.758   3.439  14.371
31701W        W   75  19.172  12.136   3.822
31702W        W   76  12.178  13.813  11.606
31703W        W   77   8.831  29.636  10.635
31704W        W   78  31.998  15.817  11.120
31705W        W   79  11.853  25.104   0.460
31706W        W   80  36.981  24.716  14.810
31707W        W   81  10.708  25.695  14.331
31708W        W   82  34.460  42.439  12.912
31709W        W   83  18.685   9.678  13.419
31710W        W   84  26.079  23.154  13.019
31711W        W   85  21.653   1.855  13.963
31712W        W   86  16.686   4.295   3.237
31713W        W   87  37.553  42.031  12.980
31714W        W   88  26.161  44.765   3.319
31715W        W   89  21.137  11.367   0.921
31716W        W   90  34.478   0.289   1.325
31717W        W   91  16.663  32.129  11.987
31718W        W   92  41.305   9.207   2.223
31719W        W   93  44.937  33.410   0.323
31720W        W   94  13.663   5.291   0.818
31721W        W   95   3.383  23.108   1.344
31722W        W   96  38.532  18.643  13.401
31723W        W   97  41.444  29.633   0.922
31724W        W   98   6.419  24.685  12.556
31725W        W   99   8.344  18.777   2.383
31726W        W  100  31.407  28.144  10.956
31727W        W  101  43.954  12.307  10.539
31728W        W  102  18.098   0.881  13.064
31729W        W  103  10.655  12.218  14.760
31730W        W  104   8.334  34.966  13.329
31731W        W  105  28.489  44.814   0.742
31732W        W  106   3.346  31.943   2.280
31733W        W  107   7.672  41.505   0.296
31734W        W  108  35.082  34.382  10.985
31735W        W  109  21.037  17.167  14.350
31736W        W  110  40.906  24.982  10.582
31737W        W  111  42.855   3.363   1.373
31738W        W  112   9.684  27.556   2.399
31739W        W  113  34.089  40.359  12.866
31740W        W  114  42.819  28.628  11.929
31741W        W  115  23.541  28.511   4.691
31742W        W  116   6.188  22.566  11.896
31743W        W  117  12.339  38.505  13.801
31744W        W  118   0.869  12.617  11.562
31745W        W  119  33.520  31.410   2.261
31746W        W  120  44.875  44.443  10.516
31747W        W  121  25.078   1.798   0.430
31748W        W  122  43.487  10.873  13.509
31749W        W  123  37.429  26.471   3.202
31750W        W  124  10.236  20.098   1.245
31751W        W  125  28.078  34.414   1.417
31752W        W  126  39.486   8.787  14.915
31753W        W  127  42.986  22.555   0.453
31754W        W  128   5.920  10.820   4.611
31755W        W  129   7.210  15.255  12.472
31756W        W  130  14.152  12.286  14.496
31757W        W  131   5.891  30.512   3.299
31758W        W  132  23.497  16.295  13.960
31759W        W  133  35.062  40.344  10.607
31760W        W  134  23.506   5.716  14.336
31761W        W  135   5.331  18.146   3.363
31762W        W  136  17.144  30.600   1.353
31763W        W  137  40.391   8.751   1.879
31764W        W  138  18.178   4.920  14.922
31765W        W  139   9.386  37.416   4.137
31766W        W  140  25.471  41.523   2.215
31767W        W  141   9.268  34.591  14.771
31768W        W  142  23.060  11.134  13.024
31769W        W  143   2.920  31.060  14.487
31770W        W  144  15.136  10.872  10.404
31771W        W  145  27.177  12.154  11.412
31772W        W  146  26.033   9.238   1.350
31773W        W  147  42.921  16.154  11.428
31774W        W  148  39.036  44.280   1.714
31775W        W  149  32.630  40.042  13.359
31776W        W  150  17.107  13.780  11.427
31777W        W  151  29.632  36.582   4.763
31778W        W  152  36.412   3.765  12.460
31779W        W  153  20.073  25.638   4.655
31780W        W  154  16.794   8.757   2.374
31781W        W  155  14.257  14.168   4.209
31782W        W  156   6.365  37.405  10.433
31783W        W  157  24.587  31.993  11.950
31784W        W  158  38.982  13.110  12.009
31785W        W  159  33.900  42.006   0.277
31786W        W  160  24.977  36.570  10.983
31787W        W  161  35.947  10.363   0.419
31788W        W  162  11.308  44.497   0.732
31789W        W  163  11.703  42.848   0.326
31790W        W  164  34.422  42.790  14.304
31791W        W  165  26.596  38.433   1.362
31792W        W  166  36.879   9.689   4.179
31793W        W  167  23.205  43.826   1.362
31794W        W  168  29.654  26.576   4.793
31795W        W  169   2.956  25.216   2.192
31796W        W  170  39.363   4.833   0.346
31797W        W  171  33.877  27.064  11.957
31798W        W  172  44.786  38.360   4.205
31799W        W  173  30.159  44.372   9.969
31800W        W  174   1.450  10.202   1.715
31801W        W  175  30.132  16.102   2.266
31802W        W  176  38.868   8.185   2.224
31803W        W  177  24.579   7.412   1.824
31804W        W  178  30.159  31.461  12.974
31805W        W  179  26.530  25.988  12.845
31806W        W  180  33.573  40.040   4.686
31807W        W  181  38.476  21.755  11.470
31808W        W  182  29.057  37.865  13.883
31809W        W  183   6.195  13.128   0.936
31810W        W  184  41.521  42.823  14.772
31811W        W  185  24.695  20.531  12.368
31812W        W  186  28.968  37.413   2.749
31813W        W  187   6.840  41.415   0.951
31814W        W  188  11.287  24.157   0.294
31815W        W  189   8.222  31.100   9.486
31816W        W  190  19.248  33.392   2.367
31817W        W  191  27.968  28.026  10.438
31818W        W  192  16.763  24.700   2.785
31819W        W  193  40.925  20.047  11.889
31820W        W  194  31.906   2.851  11.037
31821W        W  195  33.047  16.573   1.784
31822W        W  196   6.726  17.102   0.960
31823W        W  197  16.134  37.526  10.971
31824W        W  198   9.804  44.983  11.968
31825W        W  199   8.874  20.229  13.908
31826W        W  200  31.509   3.779   2.179
31827W        W  201  37.860   9.708   4.831
31828W        W  202  13.171  42.523   2.837
31829W        W  203   1.800   3.861  13.952
31830W        W  204  21.756  10.203  10.530
31831W        W  205  14.612   2.902   0.930
31832W        W  206  43.999  25.213  10.631
31833W        W  207  20.252  34.915  12.557
31834W        W  208  33.447  36.465  13.542
31835W        W  209  11.352  12.340  12.893
31836W        W  210   9.260  24.567  13.795
31837W        W  211  33.057  42.340  12.450
31838W        W  212   1.458   9.682   4.309
31839W        W  213  16.149  40.040   3.705
31840W        W  214  10.150  30.041   4.718
31841W        W  215  38.483  36.954   2.842
31842W        W  216  26.145  31.021   4.614
31843W        W  217   9.767  43.782  13.469
31844W        W  218  17.228  42.296  14.815
31845W        W  219  44.789  13.697  14.337
31846W        W  220  33.554  26.984  10.911
31847W        W  221  13.170  35.032   5.234
31848W        W  222  26.467   0.431  12.457
31849W        W  223  29.561  13.694   3.197
31850W        W  224  17.767   5.908  13.331
31851W        W  225  10.859   1.792   1.259
31852W        W  226  11.773   7.702  12.531
31853W        W  227  36.886  44.276   1.357
31854W        W  228  39.858  24.605   1.852
31855W        W  229  11.690  40.308   3.351
31856W        W  230  26.484  24.107   3.868
31857W        W  231  33.956   9.828  14.882
31858W        W  232   5.699  32.453  10.506
31859W        W  233  34.989   0.744  13.793
31860W        W  234  42.872   6.421  12.092
31861W        W  235  41.788   4.724  12.954
31862W        W  236   3.775   5.316  11.092
31863W        W  237  16.098  16.276   0.832
31864W        W  238  34.512   7.181  10.627
31865W        W  239  13.311  22.639  14.412
31866W        W  240  41.504   7.714  13.054
31867W        W  241  13.325  32.899   1.327
31868W        W  242  40.529   5.437   2.299
31869W        W  243  32.136  11.337  13.968
31870W        W  244   3.710  37.402   1.351
31871W        W  245  33.586  10.198  13.059
31872W        W  246  11.844  23.672   4.600
31873W        W  247  34.052  11.222  13.050
31874W        W  248  19.585  30.962   3.262
31875W        W  249  31.901  15.123   3.775
31876W        W  250  15.241  20.562   3.294
31877W        W  251   6.362  11.146   4.823
31878W        W  252  19.600  12.218  10.487
31879W        W  253  14.307  15.626   0.423
31880W        W  254  29.658  29.493   1.438
31881W        W  255  44.992  42.942  13.349
31882W        W  256  31.592  40.888  11.022
31883W        W  257   7.718  30.641  13.469
31884W        W  258  17.158  10.815  14.296
31885W        W  259  10.849  31.079   2.260
31886W        W  260  41.009  35.562  11.916
31887W        W  261   4.913  44.389  10.559
31888W        W  262  22.084  29.571  14.515
31889W        W  263  42.398  10.748   3.646
31890W        W  264  33.003  27.985  10.543
31891W        W  265   3.735  17.063   3.323
31892W        W  266  24.010  13.317  14.024
31893W        W  267  20.769  35.381  13.362
31894W        W  268  11.651  15.177   2.664
31895W        W  269  40.442  11.838   3.260
31896W        W  270  41.330  30.918   0.738
31897W        W  271  34.033  22.737  11.482
31898W        W  272  19.246  19.149   4.187
31899W        W  273  18.637  21.181   2.362
31900W        W  274   1.293  39.006  10.619
31901W        W  275   1.399  36.559  14.338
31902W        W  276  34.503   9.343   3.667
31903W        W  277  27.043  32.072   4.171
31904W        W  278  18.248  26.146   2.291
31905W        W  279  18.704  13.301   0.381
31906W        W  280  32.005  40.309  14.951
31907W        W  281  16.647  33.901   0.400
31908W        W  282   7.225  12.197  14.492
31909W        W  283  44.296  43.814  11.010
31910W        W  284  24.139  28.500   4.263
31911W        W  285   9.773  39.455   3.263
31912W        W  286  21.260  41.863  11.525
31913W        W  287  11.339  38.863  13.404
31914W        W  288  18.610  13.121  10.537
31915W        W  289  14.326  10.222  12.501
31916W        W  290   0.886  44.312  12.562
31917W        W  291  17.748   0.750  14.974
31918W        W  292  25.076  30.069  13.057
31919W        W  293   6.235  16.665   4.672
31920W        W  294  16.679  19.159  12.453
31921W        W  295  42.286  25.184   1.403
31922W        W  296   8.829  33.909  12.476
31923W        W  297  31.639  18.174  10.422
31924W        W  298   6.302   0.899   2.741
31925W        W  299  26.697  11.783   5.274
31926W        W  300  39.360  29.507   1.216
31927W        W  301   5.360  25.517  14.867
31928W        W  302  22.080   8.233  12.467
31929W        W  303   4.889   7.815   4.671
31930W        W  304  35.465   2.465   3.298
31931W        W  305  32.475   7.306   2.751
31932W        W  306  44.804  35.971  14.480
31933W        W  307  40.375  41.804  10.957
31934W        W  308  39.034   5.354  12.401
31935W        W  309   0.828  44.848   2.725
31936W        W  310  33.557  29.003   3.146
31937W        W  311  23.139  29.015  10.452
31938W        W  312  16.244  14.096   0.474
31939W        W  313  34.106   4.901   3.644
31940W        W  314  33.969  24.992   3.713
31941W        W  315   3.854  32.582   2.240
31942W        W  316  26.109  24.608   1.439
31943W        W  317  39.947  12.811   1.844
31944W        W  318  32.445  37.029  13.336
31945W        W  319   0.481   9.158   3.775
31946W        W  320  35.993  16.596   3.695
31947W        W  321   0.969  41.436  13.030
31948W        W  322  33.431  13.648   4.808
31949W        W  323  22.060  26.166  13.858
31950W        W  324   5.817  32.477  14.879
31951W        W  325  43.829   2.449   3.685
31952W        W  326  29.519  14.735   4.174
31953W        W  327  18.698  15.669  14.362
31954W        W  328  20.703  32.946   3.844
31955W        W  329   9.878  37.934  12.044
31956W        W  330  30.541  42.829  11.939
31957W        W  331  21.604  26.591  13.317
31958W        W  332  10.649  17.072  10.479
31959W        W  333   6.271  42.319   3.794
31960W        W  334  17.093  27.541   1.821
31961W        W  335  44.827  36.940  11.411
31962W        W  336  28.982  23.101   1.783
31963W        W  337   9.383   3.763   4.329
31964W        W  338   2.341  42.882  10.925
31965W        W  339  40.539  20.151   0.396
31966W        W  340  17.112  18.778   2.869
31967W        W  341  41.880  32.402   3.800
31968W        W  342  20.045  28.539  11.076
31969W        W  343  11.304  41.435   3.817
31970W        W  344  17.115   6.198  13.023
31971W        W  345  34.969  24.218  11.503
31972W        W  346  15.205  18.663  11.561
31973W        W  347  44.980  43.314  13.855
31974W        W  348  44.334  44.486   2.748
31975W        W  349  13.771   3.803  11.955
31976W        W  350  32.029  13.769   2.714
31977W        W  351  32.954  18.113   2.813
31978W        W  352  22.249  43.460  11.438
31979W        W  353  16.769  22.059   1.905
31980W        W  354   8.883  25.484   4.670
31981W        W  355  34.469  10.320  13.912
31982W        W  356  18.090  33.037   2.255
31983W        W  357  16.628  31.588   1.337
31984W        W  358  37.841  22.673   3.363
31985W        W  359  38.946  15.613   3.689
31986W        W  360  40.896  37.565  10.405
31987W        W  361  26.079  24.624   4.132
31988W        W  362  32.068  43.408   0.373
31989W        W  363   7.684  40.866  14.812
31990W        W  364  27.449  39.906  11.989
31991W        W  365   0.803  16.761   4.808
31992W        W  366   8.804  33.401   1.320
31993W        W  367  31.513  42.961  13.360
31994W        W  368  44.422   5.280  14.820
31995W        W  369  29.024  38.901  13.815
31996W        W  370  16.616  30.137   1.334
31997W        W  371  21.055   0.758   2.217
31998W        W  372  14.711   2.817   2.295
31999W        W  373   8.885  23.553  12.913
32000W        W  374  20.048  11.372  11.987
32001W        W  375  23.500   2.331   2.374
32002W        W  376  26.647  31.995  10.935
32003W        W  377   6.890  36.515  12.013
32004W        W  378  41.492   1.977  13.933
32005W        W  379  21.735   4.362   2.367
32006W        W  380  22.541   4.389  10.405
32007W        W  381   2.831   9.184   0.365
32008W        W  382  12.782  20.536  13.374
32009W        W  383  39.378  37.373   4.146
32010W        W  384  40.430  33.071   2.669
32011W        W  385  43.975  42.391  10.930
32012W        W  386  15.282  42.337  11.559
32013W        W  387  36.588  38.550   4.816
32014W        W  388  23.195  43.937   2.901
32015W        W  389  30.023   3.317   2.716
32016W        W  390  20.220  31.939   1.793
32017W        W  391  25.487  13.641   0.295
32018W        W  392   5.706  15.713  13.507
32019W        W  393  33.906   0.958  11.416
32020W        W  394  32.026   8.309   0.467
32021W        W  395   5.370  42.476  11.876
32022W        W  396  14.717   3.401  13.854
32023W        W  397  40.493   8.359  14.510
32024W        W  398  38.397  20.565   4.618
32025W        W  399  16.602  24.032   2.786
32026W        W  400  42.825   2.290   0.309
32027W        W  401  34.927   2.830   1.325
32028W        W  402  34.496  40.401   1.352
32029W        W  403  38.457   7.842   3.241
32030W        W  404   6.273  23.016  10.640
32031W        W  405  40.464  15.752  14.009
32032W        W  406  15.098   5.388  13.944
32033W        W  407  17.188  36.407   3.194
32034W        W  408  38.538  26.026  14.761
32035W        W  409  25.189   4.899   2.781
32036W        W  410  33.553  44.294  12.096
32037W        W  411  11.836  25.548   0.751
32038W        W  412  16.712  33.956  10.618
32039W        W  413  36.354  35.964   4.182
32040W        W  414  37.563  30.656   1.240
32041W        W  415  36.378  17.630  11.488
32042W        W  416   1.837   8.401   0.365
32043W        W  417  25.068   5.741   1.359
32044W        W  418  27.627  40.491   2.675
32045W        W  419  31.132  12.846   1.296
32046W        W  420   8.892  42.418   4.299
32047W        W  421  21.529  20.125   1.739
32048W        W  422  13.738  33.437  12.462
32049W        W  423  41.423  25.197   4.714
32050W        W  424  22.221  18.680   2.273
32051W        W  425  16.275  32.941  13.509
32052W        W  426  31.920   8.840  10.538
32053W        W  427  11.782   5.213  12.962
32054W        W  428  10.716   2.248   3.207
32055W        W  429  30.935  39.973  13.496
32056W        W  430   8.236  40.860   3.863
32057W        W  431  40.854  11.861  13.995
32058W        W  432  41.382  29.935   2.387
32059W        W  433   8.667   3.832   3.807
32060W        W  434  19.634  20.753   0.321
32061W        W  435  37.859  35.962   2.240
32062W        W  436  40.943  36.944   3.269
32063W        W  437  34.462   3.321  10.972
32064W        W  438  20.097  10.235   0.962
32065W        W  439   1.978  31.501   1.400
32066W        W  440  41.898  34.923  14.887
32067W        W  441  30.106   5.791   2.207
32068W        W  442  15.184  20.229  14.291
32069W        W  443  26.954  22.741  13.446
32070W        W  444   4.368   2.335  13.398
32071W        W  445  42.002   4.226  11.440
32072W        W  446  25.582  19.661  12.553
32073W        W  447   6.197  41.484   4.748
32074W        W  448  19.271  18.262  13.828
32075W        W  449   7.315  42.346   1.262
32076W        W  450  42.331  20.666   4.273
32077W        W  451  18.745  24.107   0.344
32078W        W  452  38.421  35.466  10.531
32079W        W  453  27.048  37.931  13.336
32080W        W  454  10.243  31.570  13.432
32081W        W  455  43.310  31.437  14.505
32082W        W  456  35.026  36.480   4.174
32083W        W  457   7.766  32.413   1.847
32084W        W  458  43.500  30.031  11.034
32085W        W  459  29.027  22.537   0.800
32086W        W  460  21.628  27.987  12.542
32087W        W  461  43.442  33.124   1.211
32088W        W  462   8.277  17.570  11.976
32089W        W  463  17.228  21.636   3.385
32090W        W  464  29.145  42.393  12.914
32091W        W  465   4.245  41.347  14.509
32092W        W  466  35.026  13.232  13.345
32093W        W  467  42.796   2.307   4.737
32094W        W  468  24.087  35.452   3.337
32095W        W  469  23.511  12.736   0.904
32096W        W  470   2.310  27.675   4.352
32097W        W  471   7.354   4.792  11.127
32098W        W  472  41.986  17.298  12.418
32099W        W  473   8.790  22.540   0.888
32100W        W  474   5.313  22.732  13.500
32101W        W  475  16.617  32.582   3.731
32102W        W  476   2.388   1.392  12.540
32103W        W  477  27.981  34.553   4.670
32104W        W  478  13.287  34.933  14.489
32105W        W  479  30.147   9.857  11.079
32106W        W  480   1.237  33.521   0.418
32107W        W  481  29.449  41.789   2.818
32108W        W  482   6.246  13.745   3.207
32109W        W  483   9.677  11.703   0.309
32110W        W  484   4.769  29.966  14.851
32111W        W  485   9.242  38.039  13.334
32112W        W  486  44.928  43.977   4.228
32113W        W  487  15.201  15.757   2.877
32114W        W  488  18.673  33.573   2.309
32115W        W  489  40.952  31.418   1.367
32116W        W  490  17.154  30.062   1.747
32117W        W  491  41.878  18.669  10.161
32118W        W  492  35.903   3.306  13.027
32119W        W  493   6.830   2.776  13.890
32120W        W  494  11.686   8.845   3.361
32121W        W  495  29.161  43.297   1.313
32122W        W  496  13.186  39.477   4.268
32123W        W  497   8.228   1.332  14.834
32124W        W  498  18.745   4.279  12.091
32125W        W  499   1.401  34.093   2.278
32126W        W  500  33.985  28.138  12.855
32127W        W  501  40.804   1.760   3.330
32128W        W  502   8.725  39.869   2.721
32129W        W  503  21.638  12.802  13.524
32130W        W  504  20.568   2.917   2.751
32131W        W  505  38.328   6.199  13.020
32132W        W  506   4.216   5.225  13.499
32133W        W  507  28.486  10.689   3.195
32134W        W  508  44.793  31.131  13.837
32135W        W  509  16.703  39.414  14.339
32136W        W  510  23.620   9.733  14.809
32137W        W  511  21.130  30.051   4.309
32138W        W  512   0.264  19.655  11.573
32139W        W  513  21.716  13.612   4.762
32140W        W  514  24.481  44.399  14.329
32141W        W  515  15.257   9.177   4.167
32142W        W  516   5.767  26.106   2.710
32143W        W  517  20.721  18.607   2.311
32144W        W  518  12.165  30.918  13.330
32145W        W  519  13.315  37.377  13.907
32146W        W  520  25.992  20.031  10.641
32147W        W  521  13.681   1.921  12.085
32148W        W  522  41.452  44.320   2.745
32149W        W  523  30.945   4.362   1.261
32150W        W  524   8.324  28.168  14.420
32151W        W  525  12.654  37.044  13.891
32152W        W  526  15.806  40.828  10.550
32153W        W  527   7.906  29.462   0.784
32154W        W  528   8.850   5.221   0.784
32155W        W  529  40.951   3.945   4.683
32156W        W  530  16.664  37.385   1.712
32157W        W  531  28.122  31.111  12.827
32158W        W  532  11.827  32.404   1.742
32159W        W  533  32.602  13.817  10.935
32160W        W  534  34.963  14.765   3.243
32161W        W  535  30.559  22.228  10.450
32162W        W  536  37.479  31.438   2.836
32163W        W  537  21.049  11.821  11.556
32164W        W  538  41.530  36.528   3.261
32165W        W  539  41.837  32.479   2.710
32166W        W  540   8.335  44.412  11.874
32167W        W  541  34.930  29.089  12.024
32168W        W  542  21.025  12.243  11.035
32169W        W  543  27.977  12.797   3.674
32170W        W  544  11.709  21.589  14.300
32171W        W  545  11.285  19.163  11.470
32172W        W  546  44.315   8.225   4.229
32173W        W  547  35.919  37.411  12.385
32174W        W  548  16.663  15.822  14.485
32175W        W  549  38.879  43.302  14.982
32176W        W  550   4.218  33.399   3.683
32177W        W  551  41.352  40.507   3.755
32178W        W  552  34.079  43.937  11.529
32179W        W  553  21.741   7.211  14.447
32180W        W  554  24.066  43.320   3.853
32181W        W  555  23.600  38.494  13.547
32182W        W  556  28.490   2.964   4.151
32183W        W  557  31.084  33.104   3.662
32184W        W  558  30.509  34.042  12.834
32185W        W  559   8.315  25.081   5.605
32186W        W  560   3.409  24.048  14.023
32187W        W  561  36.499  14.825   0.385
32188W        W  562  37.479   9.152  11.609
32189W        W  563  30.449   2.827  11.415
32190W        W  564   6.264  28.461  13.797
32191W        W  565  44.371  37.419  13.951
32192W        W  566  19.699  43.456   4.819
32193W        W  567  22.624  15.749  13.349
32194W        W  568  38.371  40.480  11.069
32195W        W  569  35.905  35.552   1.827
32196W        W  570  22.526   5.689  11.978
32197W        W  571   2.269   0.471   2.377
32198W        W  572  12.213  40.842   2.756
32199W        W  573   8.886  12.138   4.261
32200W        W  574  19.103   3.254   2.332
32201W        W  575   2.291  17.699  11.954
32202W        W  576  16.757  10.232   1.737
32203W        W  577  35.362   8.697   3.196
32204W        W  578  12.640   0.806   0.281
32205W        W  579  26.686  33.060  13.879
32206W        W  580  18.673   7.387   1.737
32207W        W  581  32.973  41.819   1.429
32208W        W  582  35.517  28.524  10.428
32209W        W  583  12.737  27.546   4.132
32210W        W  584  44.992  21.544   2.182
32211W        W  585   5.304  28.985  14.378
32212W        W  586  37.086  14.140  14.775
32213W        W  587   6.841  25.175  10.444
32214W        W  588   7.185  13.231  12.405
32215W        W  589  13.173  42.385  12.920
32216W        W  590  28.494  17.136  10.479
32217W        W  591  13.233  41.842   1.436
32218W        W  592  39.530  38.498   4.269
32219W        W  593  12.741  31.021   3.818
32220W        W  594  22.048  11.147  10.983
32221W        W  595  32.492  19.617  11.588
32222W        W  596  33.583  44.259  11.012
32223W        W  597  39.467  21.665   0.450
32224W        W  598  10.326  13.172   1.420
32225W        W  599  14.642   3.444   3.671
32226W        W  600  28.038  23.221  14.964
32227W        W  601   7.743  23.023   0.822
32228W        W  602   0.339  23.640  14.940
32229W        W  603  14.236  11.141  13.453
32230W        W  604  16.658  33.444   1.325
32231W        W  605  34.879  41.438   4.704
32232W        W  606   4.444   9.235  11.549
32233W        W  607   6.390  31.139   4.718
32234W        W  608  36.556  38.534   2.296
32235W        W  609  14.308  36.513   4.127
32236W        W  610  35.519  42.979   2.679
32237W        W  611  11.283   2.259  14.864
32238W        W  612  26.564  39.351  14.988
32239W        W  613  23.571  24.059  13.397
32240W        W  614  16.806   9.209   2.846
32241W        W  615  10.752  41.518   4.672
32242W        W  616  43.843  35.066  14.880
32243W        W  617  31.077  14.097  13.535
32244W        W  618   0.273  18.712   0.408
32245W        W  619  26.085  31.926   2.864
32246W        W  620  26.029  15.113   0.753
32247W        W  621  16.658   9.382  12.496
32248W        W  622  25.633  18.238  13.450
32249W        W  623   1.875  20.234   2.860
32250W        W  624  17.134  22.083  11.506
32251W        W  625  44.442  21.182  12.998
32252W        W  626  13.778  31.106   1.210
32253W        W  627  16.717  15.684  13.817
32254W        W  628  43.006  44.270   1.901
32255W        W  629  14.196  33.932   0.937
32256W        W  630  38.341   2.772   1.331
32257W        W  631  43.864  14.659   4.746
32258W        W  632  23.618  14.607  14.468
32259W        W  633  11.199  44.870   0.771
32260W        W  634  40.381  32.100  11.116
32261W        W  635  35.511  35.556   3.171
32262W        W  636  25.995  16.292   3.276
32263W        W  637  34.871  25.218   4.787
32264W        W  638  28.997  21.162   4.317
32265W        W  639   1.810  31.906  13.908
32266W        W  640  16.679  19.171   2.705
32267W        W  641   4.345   5.845   0.291
32268W        W  642   3.318  24.571   0.779
32269W        W  643  35.383  43.497  13.322
32270W        W  644  34.522  31.029   0.739
32271W        W  645  26.199  19.127  12.082
32272W        W  646   6.277   1.265   3.732
32273W        W  647  37.081  24.528  13.352
32274W        W  648  23.147  43.874   4.768
32275W        W  649  15.697  10.677  14.283
32276W        W  650  13.310   5.837  14.917
32277W        W  651   5.778  28.087  11.090
32278W        W  652  17.642  15.589   3.697
32279W        W  653  32.885  44.279   3.700
32280W        W  654  36.408   4.413  11.389
32281W        W  655  33.528   4.248  11.548
32282W        W  656   6.310  40.951   2.787
32283W        W  657  10.267   8.813  11.898
32284W        W  658   2.358  10.273   3.688
32285W        W  659  38.844  42.332  11.888
32286W        W  660  12.673  29.016  13.430
32287W        W  661   5.773  16.207   2.831
32288W        W  662  19.255  43.483   2.352
32289W        W  663  15.088   9.213   2.842
32290W        W  664   4.776   4.320   0.866
32291W        W  665  28.456  21.590  10.456
32292W        W  666  14.099  13.648   0.913
32293W        W  667   7.720  17.296   4.195
32294W        W  668  26.193  39.336   1.384
32295W        W  669  39.457   9.221  13.383
32296W        W  670  34.381  39.996  10.433
32297W        W  671  24.533  20.609  10.406
32298W        W  672  37.567   2.921   2.328
32299W        W  673  15.613  23.522  13.022
32300W        W  674  20.264  10.674  10.515
32301W        W  675  29.087  22.150   3.284
32302W        W  676  29.086   8.394   4.739
32303W        W  677  30.492  11.280   1.349
32304W        W  678   9.787   0.941  11.455
32305W        W  679   7.305  10.847   3.355
32306W        W  680  32.504  22.688  13.916
32307W        W  681  22.672  29.155  12.447
32308W        W  682  31.523   7.408  10.460
32309W        W  683  34.994  16.254  10.586
32310W        W  684  27.552   4.854   0.317
32311W        W  685  10.329   5.812  14.803
32312W        W  686  24.136   3.889  13.889
32313W        W  687  29.625  37.003  10.912
32314W        W  688  25.159   7.896   2.300
32315W        W  689  20.133  18.687   0.258
32316W        W  690  11.196  14.731  14.409
32317W        W  691  14.188  13.631  10.926
32318W        W  692   8.725  15.777  12.386
32319W        W  693  14.688  43.483   3.153
32320W        W  694   9.348  26.700   2.864
32321W        W  695  35.964  10.375   2.236
32322W        W  696  30.447  10.716   0.402
32323W        W  697  31.417  20.662   0.274
32324W        W  698   3.880  44.394  11.946
32325W        W  699  33.046  35.912  13.515
32326W        W  700  21.054  38.484  11.022
32327W        W  701  29.643  16.637  13.844
32328W        W  702   3.271  21.576   2.673
32329W        W  703  34.395  14.232  14.016
32330W        W  704   5.352   0.908   0.747
32331W        W  705  11.258   5.328  11.491
32332W        W  706  16.196   1.800   0.389
32333W        W  707  11.162  22.252   3.743
32334W        W  708  23.044  24.646   3.271
32335W        W  709  23.687  32.893   2.313
32336W        W  710   8.246  20.578  13.423
32337W        W  711  28.495  27.065  13.425
32338W        W  712  21.624  18.097   2.811
32339W        W  713  41.005   7.744   4.251
32340W        W  714  24.670  19.637   3.650
32341W        W  715  18.783   7.745   1.222
32342W        W  716  30.110  25.544  11.952
32343W        W  717   6.422  22.018   3.184
32344W        W  718   3.928  38.481   0.823
32345W        W  719  13.167  42.899  12.888
32346W        W  720   7.792  18.562   1.734
32347W        W  721  25.560  36.544   0.877
32348W        W  722  28.008   0.784   9.641
32349W        W  723  41.788  34.984  12.045
32350W        W  724  38.431  38.540   0.256
32351W        W  725  29.159  31.522  11.520
32352W        W  726  40.417   4.319   2.829
32353W        W  727  29.592   8.197   0.242
32354W        W  728  29.173  25.166  11.070
32355W        W  729  29.104  30.047   3.742
32356W        W  730  40.476   4.833   3.190
32357W        W  731  24.034  21.190   2.701
32358W        W  732   2.781  22.074   0.482
32359W        W  733  29.667  23.149  12.414
32360W        W  734  40.004   9.879  13.840
32361W        W  735  26.183  35.506  13.015
32362W        W  736  35.568  37.535  11.117
32363W        W  737  16.591  22.582  13.973
32364W        W  738   6.264   8.330  14.906
32365W        W  739  16.810   3.881  14.476
32366W        W  740  42.441  18.073  12.487
32367W        W  741   1.308   7.405  11.559
32368W        W  742   8.342  39.358  10.432
32369W        W  743   5.420  42.003  13.308
32370W        W  744  40.832  15.640  13.895
32371W        W  745  14.321  33.911  12.958
32372W        W  746  22.623   5.707   2.411
32373W        W  747  36.508  23.228  10.477
32374W        W  748  29.553  10.667   3.797
32375W        W  749  33.549  29.981   4.296
32376W        W  750   2.237  15.227  13.411
32377W        W  751  16.202  21.747  11.455
32378W        W  752  25.063  21.143  10.095
32379W        W  753  31.485   7.275  13.995
32380W        W  754  17.071  41.405   5.134
32381W        W  755  22.026   3.761   2.201
32382W        W  756  27.089  22.686  14.027
32383W        W  757  36.091  34.975   1.763
32384W        W  758  40.546  20.579   4.607
32385W        W  759  30.121  23.596  12.506
32386W        W  760   1.475   1.928  11.966
32387W        W  761  29.501  35.075   0.811
32388W        W  762  36.870   1.847   1.383
32389W        W  763  23.138  23.996  11.909
32390W        W  764  26.597  19.103  12.958
32391W        W  765  31.031  15.262   1.387
32392W        W  766  44.284  37.457  10.033
32393W        W  767  24.588  15.642  11.408
32394W        W  768  43.020  16.164   4.818
32395W        W  769  36.498  37.454  10.575
32396W        W  770  30.655  21.677   0.332
32397W        W  771  18.636  27.022   4.611
32398W        W  772  44.351  11.816  13.014
32399W        W  773  19.748  32.494  13.429
32400W        W  774  15.120  33.422   4.153
32401W        W  775   9.162   9.740  11.460
32402W        W  776  27.651  44.363  14.369
32403W        W  777  42.950  18.749  11.900
32404W        W  778  14.331  42.986  14.946
32405W        W  779   6.770  44.355   4.756
32406W        W  780   6.323  42.418   0.800
32407W        W  781  13.682  33.913  13.062
32408W        W  782  36.471  36.897  11.429
32409W        W  783   4.762   8.774  13.424
32410W        W  784  36.914  10.374  12.509
32411W        W  785  15.193  40.901  14.761
32412W        W  786  30.918  24.080   4.774
32413W        W  787  23.073  21.564   3.238
32414W        W  788  22.615  32.588   2.245
32415W        W  789  23.669   8.830  10.404
32416W        W  790  12.676  35.548  13.878
32417W        W  791  13.658  10.232  11.506
32418W        W  792   9.874  42.947  13.822
32419W        W  793  39.524  18.680   0.805
32420W        W  794  34.465   5.365   0.814
32421W        W  795  29.165  24.701  13.806
32422W        W  796   6.788  38.934   2.771
32423W        W  797  14.120  10.374  13.011
32424W        W  798   0.311  34.024  13.804
32425W        W  799  22.220  36.359   1.743
32426W        W  800  14.698  16.127  11.091
32427W        W  801   9.208  10.205   1.772
32428W        W  802   4.744  31.976  14.512
32429W        W  803  44.328  14.675   3.650
32430W        W  804  26.472  28.664  13.967
32431W        W  805   9.729  10.638  10.447
32432W        W  806  12.232  33.973   3.846
32433W        W  807  30.642  19.766   3.641
32434W        W  808  19.151   8.835  14.963
32435W        W  809  16.263  39.447  13.537
32436W        W  810  32.424  10.156   4.289
32437W        W  811  35.002   9.796  14.403
32438W        W  812  25.003  20.101  13.436
32439W        W  813  26.573  21.710  11.902
32440W        W  814  20.255  22.649  12.450
32441W        W  815  17.094  15.761   4.281
32442W        W  816  38.372  40.445   4.272
32443W        W  817  19.677   8.701  10.910
32444W        W  818  42.990  41.315  10.621
32445W        W  819   0.367  29.065   4.752
32446W        W  820  36.025   8.250  11.460
32447W        W  821   5.794   9.838   3.162
32448W        W  822  39.055   9.169  13.512
32449W        W  823  24.054  40.916  12.021
32450W        W  824  40.898  11.312  11.424
32451W        W  825   2.869  35.891   4.312
32452W        W  826  26.653  37.868   0.900
32453W        W  827   8.352  10.810   4.239
32454W        W  828  38.038  14.276  13.864
32455W        W  829  40.001  43.508   2.705
32456W        W  830  25.123  40.472  13.482
32457W        W  831  32.581  11.678   1.743
32458W        W  832  43.465  43.991   2.753
32459W        W  833   7.387  16.250   0.838
32460W        W  834   9.154   7.397  14.902
32461W        W  835  25.067  37.014  13.928
32462W        W  836  28.602  13.163   3.749
32463W        W  837  21.081  37.534  13.948
32464W        W  838  21.204  19.047  14.839
32465W        W  839  11.865  25.217  14.513
32466W        W  840  19.547  30.428  12.051
32467W        W  841  17.680   6.834   4.670
32468W        W  842   8.193   8.737   2.271
32469W        W  843  14.803  33.031   1.317
32470W        W  844  32.995   7.795   1.812
32471W        W  845  30.424  33.949   0.865
32472W        W  846  14.245  11.702   3.255
32473W        W  847   1.749  29.436   2.332
32474W        W  848  42.784  41.367   0.278
32475W        W  849  33.532  37.028   1.829
32476W        W  850   5.403  26.566  13.472
32477W        W  851   5.903  35.469  10.940
32478W        W  852   4.933  25.696  10.548
32479W        W  853  31.017  26.459  13.402
32480W        W  854   7.893   2.373   0.433
32481W        W  855  33.036   3.433  13.491
32482W        W  856  19.251   3.318   4.643
32483W        W  857  30.424  13.834  13.824
32484W        W  858   3.229  21.673  12.345
32485W        W  859  23.534  17.659   0.354
32486W        W  860  19.698  14.624   1.329
32487W        W  861  44.767  25.535   3.206
32488W        W  862   5.863  19.743   1.740
32489W        W  863  29.004   5.307   0.383
32490W        W  864  30.956   7.807  11.378
32491W        W  865  22.746  34.915  12.412
32492W        W  866  26.608   3.361   3.809
32493W        W  867  22.544  40.942  10.616
32494W        W  868  41.298   9.855  10.644
32495W        W  869   6.338  28.132  13.319
32496W        W  870  10.230  39.356   0.439
32497W        W  871  14.284  24.199   2.355
32498W        W  872   1.282   2.289  12.038
32499W        W  873  23.080  18.181   4.817
32500W        W  874  11.286  21.129   1.264
32501W        W  875  43.315  14.678   0.279
32502W        W  876  12.630  36.951   3.632
32503W        W  877   8.360  44.265   1.333
32504W        W  878  14.663  33.468   3.197
32505W        W  879  35.868  44.897   0.792
32506W        W  880   6.297  17.119   0.259
32507W        W  881  42.479  39.918  13.424
32508W        W  882  18.266  16.291   3.649
32509W        W  883  12.150  38.441  14.513
32510W        W  884  26.589  35.398   0.780
32511W        W  885  30.490  17.223  13.997
32512W        W  886   6.742   1.305   4.696
32513W        W  887   0.861  22.641  14.983
32514W        W  888  14.653  14.172  14.488
32515W        W  889   5.272   3.445  12.440
32516W        W  890  26.970  28.101  10.024
32517W        W  891  33.114  28.555   3.208
32518W        W  892  39.047   8.805   5.271
32519W        W  893  36.549   1.238  12.427
32520W        W  894  30.632  13.779  11.466
32521W        W  895  42.962  29.466   3.869
32522W        W  896  41.295  12.330   0.845
32523W        W  897   6.757  27.156   4.702
32524W        W  898  38.473   5.889  11.874
32525W        W  899  28.075  12.647   4.299
32526W        W  900   0.490  19.273  12.890
32527W        W  901  19.256  16.165   2.268
32528W        W  902   2.759   3.324   3.648
32529W        W  903  13.136  42.896  14.859
32530W        W  904  17.156   7.245  10.004
32531W        W  905  38.487   8.748  14.495
32532W        W  906   5.825  32.897  12.441
32533W        W  907  17.626  14.259   3.793
32534W        W  908  35.980  25.086   3.816
32535W        W  909  19.097  22.738  10.424
32536W        W  910   2.930  18.578   4.826
32537W        W  911  17.064  44.005   4.293
32538W        W  912  37.019  20.230  11.984
32539W        W  913  26.537  19.627   1.764
32540W        W  914   0.281   1.831   0.836
32541W        W  915  26.207   9.239   0.257
32542W        W  916  26.092  32.566   3.337
32543W        W  917  14.252  12.196  11.959
32544W        W  918  33.558  19.061   0.298
32545W        W  919   6.813  44.858  13.429
32546W        W  920  29.486  36.504  11.376
32547W        W  921  22.172   1.310   0.370
32548W        W  922  22.690   1.423  13.002
32549W        W  923  12.681   1.256   2.684
32550W        W  924  36.449  24.706  13.464
32551W        W  925  41.959  21.670  11.408
32552W        W  926   1.303  31.419  12.430
32553W        W  927  11.775   4.216  10.616
32554W        W  928  18.284  36.945   0.926
32555W        W  929   0.347  23.193  13.008
32556W        W  930   4.813  33.979  12.486
32557W        W  931  21.665  16.692   3.633
32558W        W  932  42.895  22.697   5.151
32559W        W  933  32.487  27.625   3.360
32560W        W  934  43.919  17.173   0.864
32561W        W  935  21.514  37.950  11.062
32562W        W  936   4.820  28.943   3.269
32563W        W  937  23.181  21.239   0.853
32564W        W  938   4.300  17.601   0.437
32565W        W  939  21.739  34.473  11.585
32566W        W  940  18.195  19.686   2.381
32567W        W  941  36.504  28.659  13.012
32568W        W  942   9.866  42.493  13.468
32569W        W  943  42.491  22.530  13.309
32570W        W  944   1.314  32.547  10.972
32571W        W  945  39.416   3.805  10.593
32572W        W  946   3.276  26.690   1.304
32573W        W  947  38.991  11.175   1.270
32574W        W  948  28.569  14.630   4.768
32575W        W  949  39.352  20.197  11.508
32576W        W  950   7.797  42.003   1.840
32577W        W  951   7.799   7.382  13.818
32578W        W  952  44.942   6.204  11.115
32579W        W  953   2.335  19.673   0.948
32580W        W  954  25.977  28.152   1.744
32581W        W  955  34.912   5.915  14.486
32582W        W  956  26.674  12.208  13.447
32583W        W  957  35.454  34.389  10.996
32584W        W  958  14.151  23.545  12.853
32585W        W  959  37.035  15.242  10.600
32586W        W  960  40.463  22.650   2.186
32587W        W  961  34.607   5.889  10.625
32588W        W  962  33.022  11.256  14.454
32589W        W  963  26.575   6.785  14.900
32590W        W  964  19.709   3.892  11.502
32591W        W  965   8.688  19.055   5.145
32592W        W  966  15.595  43.302  12.405
32593W        W  967   4.390   5.406   0.907
32594W        W  968   7.761  35.361   2.204
32595W        W  969   7.827  15.688  14.884
32596W        W  970  32.063  34.540   2.856
32597W        W  971  31.417  27.168   3.231
32598W        W  972  30.564  24.156   2.727
32599W        W  973  42.006  27.149  12.857
32600W        W  974  37.047  28.560  10.569
32601W        W  975  38.345  17.777   1.901
32602W        W  976  30.154  23.125  13.935
32603W        W  977  29.063  29.573   0.397
32604W        W  978  20.549   6.752  12.522
32605W        W  979   7.208   4.705   4.671
32606W        W  980   3.440  39.475  14.430
32607W        W  981  21.201  35.515   1.312
32608W        W  982   1.850  13.190   1.237
32609W        W  983  38.439  36.464  13.470
32610W        W  984  19.566   1.841   4.763
32611W        W  985   1.823  39.970   2.255
32612W        W  986  18.189  23.517   2.821
32613W        W  987  30.016  19.706  14.883
32614W        W  988  15.756  25.038   0.251
32615W        W  989   0.773  30.006  12.041
32616W        W  990  21.719  39.331  14.291
32617W        W  991   9.825  21.756   0.939
32618W        W  992  44.312  28.481  12.077
32619W        W  993  28.179  25.202  10.475
32620W        W  994  19.173   5.258  13.462
32621W        W  995  17.581  10.858   1.870
32622W        W  996  42.408   8.233  14.787
32623W        W  997  33.475  23.133   3.300
32624W        W  998   2.895  26.475  12.079
32625W        W  999  35.086  25.992  14.982
32626W        W 1000  28.445   8.206   3.320
32627W        W 1001  29.483  18.577   1.776
32628W        W 1002  38.350   9.738   0.898
32629W        W 1003  14.306  34.882  14.847
32630W        W 1004  42.916  42.795   1.365
32631W        W 1005  24.224  20.167  10.973
32632W        W 1006  27.155  22.106  14.990
32633W        W 1007  33.910  10.156   3.795
32634W        W 1008  33.464  18.730  12.915
32635W        W 1009  12.818   8.877   4.774
32636W        W 1010  34.881  19.590  11.512
32637W        W 1011   7.760   3.410   4.316
32638W        W 1012   1.426   5.815  14.285
32639W        W 1013   4.820  44.851  11.860
32640W        W 1014  37.492  43.788   0.298
32641W        W 1015  12.784   5.905  13.001
32642W        W 1016   5.340  39.042  12.967
32643W        W 1017   0.844  34.434   2.794
32644W        W 1018  42.388  40.404  13.458
32645W        W 1019  23.692  38.824   0.479
32646W        W 1020  15.104   7.804  11.872
32647W        W 1021  44.365  28.523   4.158
32648W        W 1022  23.712  35.888  12.922
32649W        W 1023  22.713  17.620  12.577
32650W        W 1024   6.894  28.988  14.813
32651W        W 1025  13.253  22.616   0.323
32652W        W 1026  10.679  32.107  10.607
32653W        W 1027  31.517   6.746  14.822
32654W        W 1028  38.878  29.620  11.488
32655W        W 1029  26.619   8.313   2.292
32656W        W 1030  19.169  24.670   0.882
32657W        W 1031   0.296  14.277   0.780
32658W        W 1032   1.238  31.906   1.829
32659W        W 1033  10.283  16.599   3.330
32660W        W 1034  40.485  11.292   3.764
32661W        W 1035  20.691  31.071  13.963
32662W        W 1036  39.938  32.557  12.969
32663W        W 1037   2.349  22.046  11.543
32664W        W 1038  25.199   7.820   3.148
32665W        W 1039   8.217  33.448  11.396
32666W        W 1040  28.496  31.601   4.280
32667W        W 1041   7.289   7.366  14.481
32668W        W 1042  44.464  28.980   9.957
32669W        W 1043  15.663  23.688  14.792
32670W        W 1044  31.608  18.278  13.539
32671W        W 1045  26.175  25.700  12.091
32672W        W 1046  15.740  38.028  10.628
32673W        W 1047   5.334  12.119  13.837
32674W        W 1048  22.563  33.892   2.349
32675W        W 1049  35.942  18.120   1.361
32676W        W 1050  12.145   4.326  12.512
32677W        W 1051  26.496  35.080  10.643
32678W        W 1052  13.120   3.364  12.927
32679W        W 1053  31.539  20.639  12.930
32680W        W 1054  17.751   6.774   2.776
32681W        W 1055  43.340  24.668   2.841
32682W        W 1056  36.442  17.584   1.338
32683W        W 1057  12.185  32.964  14.885
32684W        W 1058  29.037  12.326  13.942
32685W        W 1059   0.293  34.008  12.077
32686W        W 1060   4.261   1.874   4.750
32687W        W 1061   6.392  19.759   5.103
32688W        W 1062  17.630  17.569   1.716
32689W        W 1063  26.539  41.365  12.060
32690W        W 1064   7.821  25.197  14.777
32691W        W 1065  33.951  25.965   3.332
32692W        W 1066   1.848  15.750   0.436
32693W        W 1067   5.820  17.225  12.360
32694W        W 1068  18.067  38.329   1.243
32695W        W 1069  33.877  42.011  12.843
32696W        W 1070  31.974  41.483  13.000
32697W        W 1071  17.090  38.475  12.571
32698W        W 1072  29.000  36.578  12.360
32699W        W 1073  37.522  12.833  14.301
32700W        W 1074   5.286   9.297   0.366
32701W        W 1075  31.521  19.620   3.766
32702W        W 1076  16.636  13.251  13.434
32703W        W 1077  21.050  42.508  14.488
32704W        W 1078  37.373   9.861   4.353
32705W        W 1079   1.460  25.088  11.434
32706W        W 1080  21.105  31.013  14.294
32707W        W 1081   3.273   3.301   2.257
32708W        W 1082  16.165  35.969   2.816
32709W        W 1083   6.313  20.628   2.849
32710W        W 1084  22.542  22.579  12.875
32711W        W 1085  20.103  37.028  14.990
32712W        W 1086  22.694   8.292   4.774
32713W        W 1087   4.788  36.585  10.110
32714W        W 1088  42.952   3.374  10.945
32715W        W 1089  37.948  32.949  13.357
32716W        W 1090  30.010  24.144   3.686
32717W        W 1091  23.103  16.581  11.026
32718W        W 1092  40.449  37.957  13.536
32719W        W 1093  33.581   2.375   2.293
32720W        W 1094  14.688  14.275   1.740
32721W        W 1095  31.997  32.935   3.214
32722W        W 1096  16.654  33.550   0.761
32723W        W 1097  31.586  16.751  12.553
32724W        W 1098  10.656   2.333   2.243
32725W        W 1099   8.343  25.468  12.851
32726W        W 1100   1.322  10.253   1.391
32727W        W 1101  20.603  17.283   3.370
32728W        W 1102  22.621  15.153  11.508
32729W        W 1103   4.325  20.689  12.886
32730W        W 1104  19.152   9.718  10.439
32731W        W 1105   0.935  31.970  14.395
32732W        W 1106  13.802  37.535   2.856
32733W        W 1107  21.255   3.717   3.272
32734W        W 1108  13.682  28.930  10.998
32735W        W 1109  10.859  21.103  10.975
32736W        W 1110  16.637   8.307   1.307
32737W        W 1111  19.160   9.259   2.815
32738W        W 1112  16.268  40.954   0.901
32739W        W 1113  24.635  29.428  11.874
32740W        W 1114  16.586   9.832  14.369
32741W        W 1115  41.934   6.699   0.951
32742W        W 1116  19.710  22.513  11.433
32743W        W 1117  35.089   6.811   1.235
32744W        W 1118  38.421   6.900  13.364
32745W        W 1119   2.447  43.940  11.948
32746W        W 1120  11.208   3.336   4.785
32747W        W 1121  11.852  27.684  11.949
32748W        W 1122  26.124  10.245   3.148
32749W        W 1123   8.679  15.274  12.462
32750W        W 1124   5.833  15.795  10.561
32751W        W 1125  13.167  10.229   0.442
32752W        W 1126  32.408  24.480   4.353
32753W        W 1127  16.665  12.242  13.968
32754W        W 1128  18.240  35.568   3.333
32755W        W 1129  22.582  35.984  10.906
32756W        W 1130  30.466  19.156   2.694
32757W        W 1131  22.059  34.921   0.749
32758W        W 1132  24.496  26.610   3.343
32759W        W 1133   2.273  43.337   1.342
32760W        W 1134  30.653  23.542  12.043
32761W        W 1135  24.048  25.543   4.687
32762W        W 1136  21.250  40.496  12.831
32763W        W 1137  11.298  18.700  13.017
32764W        W 1138   5.794  35.934   3.303
32765W        W 1139  23.561  18.560  11.418
32766W        W 1140  12.157  38.995   1.849
32767W        W 1141  27.945  28.091  10.970
32768W        W 1142   1.336   5.864   0.955
32769W        W 1143  11.847  24.129  11.528
32770W        W 1144  13.622   3.792  10.642
32771W        W 1145  28.104  15.773   5.271
32772W        W 1146  21.646  25.158   4.683
32773W        W 1147  16.247  30.922   2.185
32774W        W 1148  43.955  34.913   3.778
32775W        W 1149  22.097  11.315   4.677
32776W        W 1150  17.768  30.441  14.383
32777W        W 1151  26.139   4.913  10.938
32778W        W 1152   5.775  38.870   3.845
32779W        W 1153  14.669   5.831  14.809
32780W        W 1154   9.332  30.962   1.258
32781W        W 1155   1.391  25.586  11.879
32782W        W 1156  13.821   9.332   3.357
32783W        W 1157  41.371   1.782   0.747
32784W        W 1158  14.147  35.084   2.772
32785W        W 1159  22.012  21.067  12.573
32786W        W 1160  41.304  21.197   4.646
32787W        W 1161   5.791  17.652  13.975
32788W        W 1162  18.277  28.561  13.316
32789W        W 1163  24.057  44.292   1.739
32790W        W 1164  18.292  22.136  13.341
32791W        W 1165  31.139  35.109   1.445
32792W        W 1166  21.128   0.987  14.282
32793W        W 1167  21.629  23.042   0.294
32794W        W 1168  37.042  39.927  13.357
32795W        W 1169  14.165  44.295   3.278
32796W        W 1170   4.711  16.288   0.439
32797W        W 1171  43.917  35.598   4.827
32798W        W 1172  32.904  21.065  10.455
32799W        W 1173  27.514  38.897  11.582
32800W        W 1174  29.990   2.830   2.258
32801W        W 1175  10.177  14.713   4.730
32802W        W 1176  27.964  41.997   2.303
32803W        W 1177  33.473   6.770   2.270
32804W        W 1178  18.659  31.930  14.414
32805W        W 1179  31.583  36.844   2.695
32806W        W 1180  29.434  23.101   2.336
32807W        W 1181   5.914   6.788   1.741
32808W        W 1182   4.431  44.921   3.306
32809W        W 1183   0.789  23.991  14.437
32810W        W 1184  32.055  18.648  10.549
32811W        W 1185  11.199  43.021  13.003
32812W        W 1186  44.317   0.782  11.487
32813W        W 1187  23.142  38.537   9.533
32814W        W 1188  29.072  14.664  10.581
32815W        W 1189  34.551  13.340   4.255
32816W        W 1190  28.934  41.410  14.285
32817W        W 1191  35.457   6.793  11.966
32818W        W 1192  16.642   7.225   4.708
32819W        W 1193  11.244  33.622   1.218
32820W        W 1194  17.734  18.145  11.908
32821W        W 1195  38.845   6.712   2.894
32822W        W 1196  17.181  17.666  14.912
32823W        W 1197  31.595  40.045  13.338
32824W        W 1198  34.462  17.133  12.935
32825W        W 1199  20.702  26.488   1.905
32826W        W 1200  21.588  34.038   4.634
32827W        W 1201  22.633  21.584   2.747
32828W        W 1202  25.179  24.978   1.295
32829W        W 1203  26.485  12.338   2.867
32830W        W 1204  17.690  24.118   3.808
32831W        W 1205  35.436  42.935   4.810
32832W        W 1206  40.808  34.467   4.673
32833W        W 1207  37.982   0.852   0.845
32834W        W 1208  25.976  31.463  11.879
32835W        W 1209   6.882  38.368  14.427
32836W        W 1210   3.366  43.002  13.540
32837W        W 1211  28.142  38.377  10.017
32838W        W 1212  27.481   0.895  14.893
32839W        W 1213  26.692  19.578   4.670
32840W        W 1214  41.879  37.578  10.417
32841W        W 1215   5.919  18.741  13.985
32842W        W 1216  42.365  32.946  11.607
32843W        W 1217   8.207  22.166   0.938
32844W        W 1218  19.136  41.946   0.866
32845W        W 1219  41.319  40.804  13.847
32846W        W 1220  19.570  35.977  10.967
32847W        W 1221  32.028  30.543   1.788
32848W        W 1222  33.617  24.054   4.264
32849W        W 1223  28.633  41.468  12.921
32850W        W 1224   5.922   6.852   1.245
32851W        W 1225   7.798   1.846  13.947
32852W        W 1226  13.123   7.773  13.532
32853W        W 1227  30.452  17.122  14.782
32854W        W 1228  43.995   1.861   1.234
32855W        W 1229  39.031   6.332  12.096
32856W        W 1230  36.504  21.751  11.126
32857W        W 1231   9.208   7.283   4.609
32858W        W 1232  31.594  17.709  13.841
32859W        W 1233  40.523  18.150   4.113
32860W        W 1234  34.553  20.168  13.437
32861W        W 1235  13.610  36.466  12.548
32862W        W 1236   4.210   4.273  12.087
32863W        W 1237  40.851  13.605   4.176
32864W        W 1238   1.428  10.381  10.969
32865W        W 1239  19.776   7.305   4.351
32866W        W 1240  17.589  21.099  11.500
32867W        W 1241   8.657  20.674  12.480
32868W        W 1242  37.010  17.117   2.771
32869W        W 1243   4.208   5.421   0.354
32870W        W 1244  30.010   6.421  12.511
32871W        W 1245  19.039  34.384   1.773
32872W        W 1246  32.486  15.113  11.496
32873W        W 1247  31.108  10.749   1.702
32874W        W 1248  12.121  13.343   0.856
32875W        W 1249  41.502  24.062  11.523
32876W        W 1250  30.929  33.388   4.636
32877W        W 1251  41.945  29.601   1.243
32878W        W 1252  34.978  43.495  14.961
32879W        W 1253  36.917   0.310  12.061
32880W        W 1254   2.962  37.864   3.324
32881W        W 1255  28.613  33.088  13.841
32882W        W 1256  31.500  32.395  13.058
32883W        W 1257  31.010  33.911   1.370
32884W        W 1258   5.896   5.700   4.605
32885W        W 1259   3.247  29.506   1.768
32886W        W 1260  20.073  24.697   0.413
32887W        W 1261  39.467  13.760   4.817
32888W        W 1262  31.421  22.514   4.678
32889W        W 1263  38.018  16.275  11.467
32890W        W 1264  19.201  28.573   1.828
32891W        W 1265  36.844  15.156  14.007
32892W        W 1266  19.773  16.307  11.482
32893W        W 1267  38.463  44.357   3.173
32894W        W 1268  26.176  22.212   0.811
32895W        W 1269  29.929  16.097  10.611
32896W        W 1270  32.016   2.877   0.900
32897W        W 1271   4.449  13.197   1.238
32898W        W 1272  34.408  29.626  12.058
32899W        W 1273  40.308  33.540  10.145
32900W        W 1274  43.507  36.027   2.690
32901W        W 1275  11.149  26.674   3.336
32902W        W 1276  18.129  11.310  12.399
32903W        W 1277   0.907  14.739   2.379
32904W        W 1278  41.362  21.032   0.738
32905W        W 1279  15.589  23.200   2.665
32906W        W 1280   7.401  43.339  10.628
32907W        W 1281  33.604  37.442   5.250
32908W        W 1282  11.323   2.874   1.923
32909W        W 1283  12.319  13.336   0.399
32910W        W 1284  24.516  18.252   3.309
32911W        W 1285  21.533  40.859   0.852
32912W        W 1286  11.759   7.766   0.478
32913W        W 1287   0.924   3.946   4.253
32914W        W 1288  19.146  25.178  10.990
32915W        W 1289  34.060  23.670   4.236
32916W        W 1290   4.828  11.324  10.976
32917W        W 1291  26.504  12.637   3.322
32918W        W 1292  32.445  31.998   2.703
32919W        W 1293   6.774  21.717   4.306
32920W        W 1294  42.396  33.624  11.610
32921W        W 1295  19.644  29.483   2.324
32922W        W 1296  28.596   4.247   2.679
32923W        W 1297  13.809  23.491  14.949
32924W        W 1298   5.822  18.085  11.003
32925W        W 1299   3.878  41.878   2.757
32926W        W 1300  16.668  22.698   3.723
32927W        W 1301  39.963  25.210  13.454
32928W        W 1302  18.067   5.437  12.420
32929W        W 1303  14.107   0.312  13.996
32930W        W 1304  32.462  28.007  11.899
32931W        W 1305  31.114  12.797  13.348
32932W        W 1306  39.993  11.625  14.860
32933W        W 1307   6.788  37.432  10.626
32934W        W 1308  37.395  17.732  11.910
32935W        W 1309   9.332   4.354  10.889
32936W        W 1310  11.361  35.902  13.023
32937W        W 1311  42.430  14.664   2.726
32938W        W 1312  26.107  25.548   0.254
32939W        W 1313  35.899   2.965  14.454
32940W        W 1314  18.622  35.403   0.813
32941W        W 1315   7.227  34.474  11.015
32942W        W 1316  35.961  36.058   4.299
32943W        W 1317  18.768  26.162  11.932
32944W        W 1318   0.388   7.795  13.398
32945W        W 1319  19.168  27.677  11.379
32946W        W 1320  29.593  41.528  11.481
32947W        W 1321   8.706  15.717  14.366
32948W        W 1322  44.983  42.876   4.252
32949W        W 1323  19.220  19.592  11.580
32950W        W 1324  19.771  29.476   4.301
32951W        W 1325  39.430  26.689  13.982
32952W        W 1326  36.038  34.032  10.452
32953W        W 1327  37.502  40.034   3.675
32954W        W 1328  12.857  39.953   4.216
32955W        W 1329  16.194  25.486  12.373
32956W        W 1330  31.638   1.320  12.414
32957W        W 1331  41.875  12.161  14.297
32958W        W 1332  40.458  21.216  12.878
32959W        W 1333  30.495  34.875  11.053
32960W        W 1334  35.558   0.357  12.921
32961W        W 1335  19.173   3.378   3.745
32962W        W 1336  39.949  32.590  10.941
32963W        W 1337   8.881  27.968   0.879
32964W        W 1338  25.068  42.817   0.782
32965W        W 1339   7.907  26.181   3.719
32966W        W 1340  30.438  40.921   2.705
32967W        W 1341  43.927  32.469   1.699
32968W        W 1342  21.549  26.479   4.744
32969W        W 1343  13.824  27.147   1.291
32970W        W 1344  18.177  24.224  14.914
32971W        W 1345  36.949  15.579  12.042
32972W        W 1346  35.098  40.943  10.537
32973W        W 1347   4.758  11.753  14.479
32974W        W 1348  19.042  38.860  11.052
32975W        W 1349   9.721  41.950   1.429
32976W        W 1350  41.888  24.557   1.830
32977W        W 1351  42.435  30.940  12.368
32978W        W 1352  23.545   6.741  11.536
32979W        W 1353  26.124  25.486   0.964
32980W        W 1354  14.794  29.080   1.426
32981W        W 1355  32.590  36.903  12.393
32982W        W 1356   9.237  27.952  10.034
32983W        W 1357  12.162  32.030  10.442
32984W        W 1358   1.844  24.118   1.728
32985W        W 1359   4.344  38.993   0.743
32986W        W 1360  27.641  41.880   0.897
32987W        W 1361  40.312  24.015  11.556
32988W        W 1362   1.759  31.896   1.363
32989W        W 1363  25.497  32.958  12.983
32990W        W 1364  30.515  22.620  14.393
32991W        W 1365   9.271  34.111  11.613
32992W        W 1366  34.093  33.463   3.174
32993W        W 1367   0.373   3.721   0.476
32994W        W 1368  16.093  12.797   4.711
32995W        W 1369  20.271  21.668   1.347
32996W        W 1370   5.864  37.973   3.723
32997W        W 1371  11.186  40.877  11.882
32998W        W 1372  20.677  25.672   2.370
32999W        W 1373   4.744  22.009   2.384
33000W        W 1374  36.924  40.499  13.824
33001W        W 1375  26.480   4.370   1.447
33002W        W 1376  38.951  12.662   2.349
33003W        W 1377  20.168  10.865   4.162
33004W        W 1378  35.484   4.403   3.326
33005W        W 1379  26.196  17.589   5.185
33006W        W 1380   0.384   6.408  12.344
33007W        W 1381  32.897  27.574  14.847
33008W        W 1382   6.402  28.061   3.335
33009W        W 1383  44.430  22.588   4.241
33010W        W 1384  30.615  12.852  12.569
33011W        W 1385  29.057  17.185   2.884
33012W        W 1386  25.522   7.194   0.844
33013W        W 1387  43.983  37.877   4.716
33014W        W 1388  35.063  27.688   0.440
33015W        W 1389  31.454   7.322  11.904
33016W        W 1390  36.998   8.191   3.722
33017W        W 1391  36.005  23.057  13.950
33018W        W 1392  12.171   7.376  14.358
33019W        W 1393  39.859   1.761   4.684
33020W        W 1394  16.692  18.162   4.712
33021W        W 1395  33.068   0.296  10.621
33022W        W 1396   4.940  23.707  14.916
33023W        W 1397  32.964  21.072  14.009
33024W        W 1398   9.851   9.381  11.963
33025W        W 1399  42.921  34.067   2.266
33026W        W 1400   9.767  28.607   1.717
33027W        W 1401   2.933  13.734   3.842
33028W        W 1402  25.495  30.564  11.020
33029W        W 1403  42.906  32.078  13.546
33030W        W 1404   3.910  20.103   2.364
33031W        W 1405   8.367   1.425  12.064
33032W        W 1406  23.674  25.481  12.085
33033W        W 1407  40.303  33.970  12.932
33034W        W 1408  28.977  10.220  14.391
33035W        W 1409  10.268  35.915   3.146
33036W        W 1410   4.878   5.852  11.068
33037W        W 1411  24.624  22.020  11.395
33038W        W 1412  33.071  12.168  14.330
33039W        W 1413  33.578  19.166   3.837
33040W        W 1414  29.981  12.198  13.854
33041W        W 1415  39.447  21.719  13.508
33042W        W 1416   2.323  27.057  13.838
33043W        W 1417  13.711  19.057   4.794
33044W        W 1418  32.450  24.623  10.556
33045W        W 1419  28.160   8.844  11.544
33046W        W 1420  18.762  23.051  14.790
33047W        W 1421  17.749   7.761   0.319
33048W        W 1422  34.589   1.806  10.636
33049W        W 1423   3.905  35.470   0.365
33050W        W 1424   7.857  38.345   3.325
33051W        W 1425  13.335  15.282   3.715
33052W        W 1426  19.179  33.060  12.053
33053W        W 1427  38.826  11.165   3.767
33054W        W 1428  18.261  17.719   2.747
33055W        W 1429   7.753   5.432  14.318
33056W        W 1430  30.458  31.995  12.489
33057W        W 1431  13.814   4.893  12.573
33058W        W 1432  34.412   2.292  12.547
33059W        W 1433   3.718   8.238   4.607
33060W        W 1434  30.431  32.520   3.820
33061W        W 1435  22.008  40.886  12.436
33062W        W 1436  12.359  13.642  10.958
33063W        W 1437  15.634  35.421  13.536
33064W        W 1438  31.410  25.132   4.825
33065W        W 1439  10.806  28.157  12.848
33066W        W 1440  15.138  31.466  12.829
33067W        W 1441   0.936  38.948  12.526
33068W        W 1442   1.961  35.446  13.907
33069W        W 1443  30.460  23.227   4.254
33070W        W 1444  20.647   4.344   0.360
33071W        W 1445  19.550  20.100  14.031
33072W        W 1446  27.978  14.809   1.788
33073W        W 1447  34.983  31.409   3.318
33074W        W 1448  41.394  41.855   4.628
33075W        W 1449  15.231   7.190  10.429
33076W        W 1450  22.013  41.432   3.708
33077W        W 1451  33.528   7.347   4.197
33078W        W 1452  41.400  13.249  11.880
33079W        W 1453  31.497  30.914  10.441
33080W        W 1454  16.302  36.408  12.906
33081W        W 1455   1.307  20.615  12.888
33082W        W 1456  14.217  39.061   3.318
33083W        W 1457  35.934  22.570   2.293
33084W        W 1458   6.182   4.311   5.204
33085W        W 1459   8.804   6.913   0.293
33086W        W 1460   9.696  21.751  10.524
33087W        W 1461  43.991  35.995   1.848
33088W        W 1462  36.534  33.941  12.906
33089W        W 1463  23.092  34.875   4.828
33090W        W 1464  28.635  19.617   1.923
33091W        W 1465  12.684  37.890   4.178
33092W        W 1466   1.896   7.292   0.318
33093W        W 1467  42.421  42.300  12.552
33094W        W 1468  24.610  12.196   1.393
33095W        W 1469   9.334  20.134   0.407
33096W        W 1470  30.078   9.709   3.375
33097W        W 1471   8.804  26.593  11.518
33098W        W 1472  43.372  22.204  12.954
33099W        W 1473   2.843  39.011   3.240
33100W        W 1474  19.555   0.927   3.718
33101W        W 1475  36.410  22.636  13.470
33102W        W 1476  31.960  27.162   1.895
33103W        W 1477  14.710  31.434   0.886
33104W        W 1478  14.113  44.754  14.873
33105W        W 1479   3.310   1.856   2.349
33106W        W 1480  40.019  28.041   1.779
33107W        W 1481   4.386  38.427   1.390
33108W        W 1482  29.059  36.929   3.744
33109W        W 1483   8.247  16.727  11.557
33110W        W 1484  12.638   7.265   3.653
33111W        W 1485   5.863   0.814   3.364
33112W        W 1486  31.566  36.539   4.752
33113W        W 1487  23.035  22.538   0.871
33114W        W 1488   6.287  17.132   2.299
33115W        W 1489  32.906  26.663  11.970
33116W        W 1490  15.694  34.599   1.862
33117W        W 1491  26.663  21.248   1.217
33118W        W 1492  23.644  30.608   5.101
33119W        W 1493  26.101  28.485   3.645
33120W        W 1494  20.044  28.650  11.489
33121W        W 1495   2.779  30.551   1.832
33122W        W 1496  17.727  39.966   1.842
33123W        W 1497   0.268   4.878  12.872
33124W        W 1498   7.247  22.032  14.364
33125W        W 1499   6.377  15.588   0.349
33126W        W 1500  14.606  30.618   4.141
33127W        W 1501  44.355  25.581  14.322
33128W        W 1502  13.144  36.912  13.976
33129W        W 1503  28.653   3.340  11.958
33130W        W 1504   3.815  16.316   3.725
33131W        W 1505  13.798  37.894   2.884
33132W        W 1506  35.543  41.314   3.248
33133W        W 1507  43.986  16.172  10.592
33134W        W 1508  17.600  27.966  13.426
33135W        W 1509  29.095  27.113   2.755
33136W        W 1510  27.678  10.731   1.407
33137W        W 1511  26.656  14.131  11.428
33138W        W 1512  43.892  36.440   0.411
33139W        W 1513  30.579  28.515  14.796
33140W        W 1514   3.364  21.611   4.809
33141W        W 1515  38.978  25.568  13.056
33142W        W 1516  14.285   2.742   1.406
33143W        W 1517   5.331  14.759   3.200
33144W        W 1518  43.780  35.997  12.940
33145W        W 1519  26.697  11.276   1.825
33146W        W 1520  10.805  16.785   4.837
33147W        W 1521  24.047  42.820  11.961
33148W        W 1522  38.452  34.461   2.279
33149W        W 1523   7.175  21.595   0.958
33150W        W 1524   4.805   0.755   3.704
33151W        W 1525  14.755  19.230  11.428
33152W        W 1526  40.845  44.890   3.348
33153W        W 1527  38.374  44.861  13.393
33154W        W 1528   4.907  43.995   2.706
33155W        W 1529  12.256  21.587  11.398
33156W        W 1530  22.597  31.402   5.282
33157W        W 1531  41.862   8.170   1.775
33158W        W 1532   0.410  21.543   0.263
33159W        W 1533  10.770  14.793  14.836
33160W        W 1534  18.637   2.910  11.882
33161W        W 1535  21.236   5.335   2.357
33162W        W 1536   3.270  31.477  14.337
33163W        W 1537  44.439  40.380  12.044
33164W        W 1538  14.594  27.680  11.965
33165W        W 1539  19.674  33.987   2.385
33166W        W 1540  34.405  42.488   2.720
33167W        W 1541   2.420  13.699   0.926
33168W        W 1542  18.208  17.731   4.672
33169W        W 1543  22.141  30.580  12.938
33170W        W 1544  26.673  29.013  10.481
33171W        W 1545  17.713   4.248  13.846
33172W        W 1546   1.261  40.996   2.270
33173W        W 1547  15.277  37.907   3.728
33174W        W 1548  14.800  28.626  10.461
33175W        W 1549  40.878  26.044   1.889
33176W        W 1550   8.199  28.443   5.649
33177W        W 1551  34.500  22.163   1.328
33178W        W 1552   0.488  19.165   1.294
33179W        W 1553   2.326  41.452   0.289
33180W        W 1554   8.177   7.255   1.249
33181W        W 1555  34.369  41.519  11.990
33182W        W 1556   6.908  37.347   4.263
33183W        W 1557  14.327  22.644   4.239
33184W        W 1558  26.163  44.771  13.398
33185W        W 1559  11.713   8.865  11.404
33186W        W 1560   2.395  37.558  13.342
33187W        W 1561  43.933   8.390   2.410
33188W        W 1562  39.858  15.744   4.764
33189W        W 1563   9.389  33.474  11.874
33190W        W 1564  25.017  18.184  12.377
33191W        W 1565  25.601  27.483   0.875
33192W        W 1566  42.304   8.296  12.083
33193W        W 1567   4.735  14.821   1.379
33194W        W 1568  21.165  37.831   0.443
33195W        W 1569  36.036  35.959  14.873
33196W        W 1570  27.183  37.007  11.962
33197W        W 1571  12.808  40.804   3.314
33198W        W 1572  28.131  43.939  13.544
33199W        W 1573  38.935  40.866   1.801
33200W        W 1574  44.003  10.232  12.407
33201W        W 1575  25.678  39.557  12.544
33202W        W 1576  19.094   7.892  10.910
33203W        W 1577  33.030  31.059  11.461
33204W        W 1578  33.405  37.575  12.936
33205W        W 1579  44.941  32.907   3.249
33206W        W 1580  37.421  35.478   2.744
33207W        W 1581  27.133   5.307  12.845
33208W        W 1582  34.115  11.675  10.636
33209W        W 1583  14.326   6.895  13.847
33210W        W 1584  20.767  13.230   0.299
33211W        W 1585  43.393  30.432   4.650
33212W        W 1586   7.319  15.613   2.395
33213W        W 1587  31.923  40.982   0.834
33214W        W 1588  10.139   4.327  10.912
33215W        W 1589  17.103  27.148  10.515
33216W        W 1590  38.458  17.093  12.075
33217W        W 1591   1.899  42.921  10.059
33218W        W 1592   8.832  13.768   1.743
33219W        W 1593  41.012  29.988   0.913
33220W        W 1594  23.144  33.453   3.172
33221W        W 1595   5.321  12.732  13.009
33222W        W 1596  37.856  23.720   2.292
33223W        W 1597  20.153  21.137   3.713
33224W        W 1598  34.970  41.508  13.448
33225W        W 1599  20.264  15.326  11.497
33226W        W 1600  36.057   2.361  14.376
33227W        W 1601  28.094   3.808  14.807
33228W        W 1602   7.343   3.374   0.468
33229W        W 1603  24.640  22.627  11.967
33230W        W 1604  16.077   5.839   4.197
33231W        W 1605  18.109  19.586  14.280
33232W        W 1606  13.140  11.763   2.711
33233W        W 1607  44.940  39.942  10.926
33234W        W 1608   6.812  31.037   9.955
33235W        W 1609  24.599  28.495  14.326
33236W        W 1610  42.427  43.292  14.778
33237W        W 1611  27.519  35.013  13.985
33238W        W 1612  41.446  29.000   0.310
33239W        W 1613  43.473  25.582   2.243
33240W        W 1614  22.233  18.250   0.334
33241W        W 1615  15.730  12.803  10.944
33242W        W 1616  28.984   9.384   0.942
33243W        W 1617  24.017   1.411  11.080
33244W        W 1618  20.116   7.848  10.596
33245W        W 1619  10.698  38.463   3.814
33246W        W 1620  10.384  39.938   3.216
33247W        W 1621  38.953  24.068  12.470
33248W        W 1622  42.018  29.532  11.045
33249W        W 1623   4.736   4.821  14.832
33250W        W 1624  32.000  29.173   3.783
33251W        W 1625  27.664  10.196  10.500
33252W        W 1626  30.479  26.550   4.645
33253W        W 1627   9.745  39.368   2.735
33254W        W 1628  41.832  21.116   2.353
33255W        W 1629  28.060  24.708   1.261
33256W        W 1630   9.853  17.275  11.031
33257W        W 1631  13.764  37.410  11.999
33258W        W 1632  28.087  42.991  12.881
33259W        W 1633  19.079  17.064  10.996
33260W        W 1634   9.228  14.196  12.406
33261W        W 1635  36.528  13.791  11.072
33262W        W 1636   1.410  14.168  14.864
33263W        W 1637  35.401   5.823   3.834
33264W        W 1638  39.402  40.458   2.302
33265W        W 1639  26.677  40.496  10.491
33266W        W 1640   5.415   0.255  13.032
33267W        W 1641  15.647  22.014  10.110
33268W        W 1642  11.710  36.405  12.029
33269W        W 1643  36.885  15.753  14.987
33270W        W 1644   9.831  43.880   1.434
33271W        W 1645  42.506  44.975  14.976
33272W        W 1646   6.412  38.961   0.406
33273W        W 1647  38.442   7.402   2.706
33274W        W 1648  11.292  23.675   0.762
33275W        W 1649   9.167  18.160   4.294
33276W        W 1650  16.139  12.178   4.789
33277W        W 1651  36.436  11.297  11.527
33278W        W 1652  34.004   2.317   1.379
33279W        W 1653  31.107   4.762   1.898
33280W        W 1654  34.408  33.876  12.360
33281W        W 1655  28.579  27.177   4.828
33282W        W 1656  12.310  17.626  14.980
33283W        W 1657  41.872  34.551   1.410
33284W        W 1658   3.326   5.403  13.976
33285W        W 1659  22.046  28.438  12.550
33286W        W 1660  15.224  11.230  12.055
33287W        W 1661  28.931  34.540  14.396
33288W        W 1662   4.800  28.952   0.902
33289W        W 1663  42.445  12.820   1.330
33290W        W 1664  34.523  29.929  11.466
33291W        W 1665  22.129   5.932   0.310
33292W        W 1666  27.042  14.178   0.850
33293W        W 1667  17.166  11.631  13.036
33294W        W 1668  39.483  15.790  11.385
33295W        W 1669   6.729  10.347   2.229
33296W        W 1670   8.204   2.766   3.340
33297W        W 1671  30.134  20.631   2.784
33298W        W 1672  24.089   2.233  11.000
33299W        W 1673  19.218  43.885   2.901
33300W        W 1674  23.587  40.487  12.836
33301W        W 1675  13.238  33.065  10.466
33302W        W 1676  13.717  44.961   3.283
33303W        W 1677  13.135  35.583   0.904
33304W        W 1678  28.584  44.871   2.294
33305W        W 1679  19.716  20.142   0.949
33306W        W 1680  16.286   9.257  14.275
33307W        W 1681  21.252  43.859   3.807
33308W        W 1682  34.554  44.769  12.574
33309W        W 1683  22.615  29.570   5.674
33310W        W 1684  38.536  20.086   4.163
33311W        W 1685  38.846  25.195  14.456
33312W        W 1686  20.743  15.252   3.280
33313W        W 1687  11.329  26.607  10.586
33314W        W 1688  32.902  15.148  12.401
33315W        W 1689  14.813  37.078   0.771
33316W        W 1690  40.969  38.876  13.030
33317W        W 1691  39.326  42.396   4.193
33318W        W 1692   7.410  38.567   3.376
33319W        W 1693  32.604  25.514   4.221
33320W        W 1694  25.500   7.234  13.964
33321W        W 1695   5.864  40.818  12.017
33322W        W 1696  17.796  28.513  11.497
33323W        W 1697  39.020  41.522  10.581
33324W        W 1698  18.785  18.726  12.353
33325W        W 1699  13.692  30.446  14.811
33326W        W 1700  12.762  34.054  13.003
33327W        W 1701   3.758  29.941  13.468
33328W        W 1702  20.634  26.027  14.905
33329W        W 1703  35.993   9.393  13.398
33330W        W 1704  17.701  34.401   1.380
33331W        W 1705   6.397  42.488  12.409
33332W        W 1706  21.089  42.013   2.767
33333W        W 1707  32.052  18.575   3.758
33334W        W 1708  40.011  26.678  13.877
33335W        W 1709  44.988   0.794   3.673
33336W        W 1710  16.314  25.146  13.834
33337W        W 1711  38.969  42.001  10.157
33338W        W 1712  23.031  10.869  13.348
33339W        W 1713  14.835  39.957  12.559
33340W        W 1714  27.172  43.325  12.087
33341W        W 1715  41.941  26.137  13.820
33342W        W 1716   1.759  25.024   2.402
33343W        W 1717  35.935  27.059   3.352
33344W        W 1718  39.336  41.808   2.230
33345W        W 1719  23.134   8.224   2.840
33346W        W 1720   0.758  15.673  11.377
33347W        W 1721  38.899  22.686  10.499
33348W        W 1722  17.585  17.083  12.045
33349W        W 1723  44.358  11.210   0.429
33350W        W 1724   3.362  20.652   2.874
33351W        W 1725  32.513  16.235   2.667
33352W        W 1726   3.406  15.719  14.421
33353W        W 1727  14.142   6.377   0.252
33354W        W 1728  14.749  15.088   4.791
33355W        W 1729   9.177  43.801   4.341
33356W        W 1730   0.335  42.916  10.944
33357W        W 1731   3.228  42.814   4.345
33358W        W 1732  16.761  12.204   1.241
33359W        W 1733  38.967  30.108  14.516
33360W        W 1734  34.060  20.099  14.392
33361W        W 1735  24.062  31.414  13.916
33362W        W 1736  18.621  20.714  11.498
33363W        W 1737  28.125  32.409   0.311
33364W        W 1738  36.575  34.509  12.534
33365W        W 1739  30.010  42.865   2.387
33366W        W 1740  36.966  27.953  13.024
33367W        W 1741   9.394  33.438  10.996
33368W        W 1742  18.285   2.297  14.826
33369W        W 1743  30.435  33.488   2.889
33370W        W 1744  29.466  27.451   2.218
33371W        W 1745  38.489  21.252   4.199
33372W        W 1746   4.333   6.752  14.953
33373W        W 1747   9.320  25.103   0.469
33374W        W 1748  26.092  41.004   1.800
33375W        W 1749  20.691  23.015   1.385
33376W        W 1750  12.745  28.628  11.415
33377W        W 1751  27.621  18.591   2.727
33378W        W 1752   7.892  26.490  13.966
33379W        W 1753  32.108  40.993  13.401
33380W        W 1754  11.867   1.296  12.090
33381W        W 1755  24.138   7.671   1.765
33382W        W 1756  43.989  26.992  12.012
33383W        W 1757  42.779  19.681   2.723
33384W        W 1758  25.032  10.378  12.366
33385W        W 1759  30.909  14.773  13.493
33386W        W 1760  17.664  33.537  11.508
33387W        W 1761  31.003   0.369  11.438
33388W        W 1762  24.716  10.776  12.902
33389W        W 1763   9.157  39.334   2.294
33390W        W 1764  36.939   3.344  13.323
33391W        W 1765   3.248  30.113  12.416
33392W        W 1766  35.097  27.527   1.847
33393W        W 1767  18.163  43.981  12.935
33394W        W 1768  23.108  21.044   3.188
33395W        W 1769  29.105   3.231  14.437
33396W        W 1770  21.211   2.248   3.723
33397W        W 1771  23.628  17.664  13.826
33398W        W 1772  27.691   2.842   2.209
33399W        W 1773  21.171  31.079   3.170
33400W        W 1774   8.756  33.959  13.953
33401W        W 1775  30.987  12.712  12.493
33402W        W 1776  16.163  15.731   1.813
33403W        W 1777  32.489  41.475  10.622
33404W        W 1778  14.163   5.818  11.026
33405W        W 1779  32.586  10.243  10.109
33406W        W 1780  17.112  19.089   3.250
33407W        W 1781  40.011  26.039   0.254
33408W        W 1782   4.428  40.318   1.778
33409W        W 1783  29.025  36.029   1.736
33410W        W 1784  41.302  43.480  11.014
33411W        W 1785  11.752  16.168   0.407
33412W        W 1786   1.920   8.287  11.519
33413W        W 1787   5.797  10.291   1.807
33414W        W 1788  39.908  36.434   0.848
33415W        W 1789  31.626  12.633   4.316
33416W        W 1790  29.478   4.801   1.821
33417W        W 1791  17.559  16.803   3.666
33418W        W 1792   6.214  32.940   3.334
33419W        W 1793   1.801  26.002  10.485
33420W        W 1794  37.580  10.875   3.269
33421W        W 1795  37.370  44.360  12.979
33422W        W 1796  33.560  30.487  14.883
33423W        W 1797  32.941   9.267  11.080
33424W        W 1798   1.853  26.107  12.869
33425W        W 1799  12.253  35.104  12.534
33426W        W 1800   9.237  35.555  14.482
33427W        W 1801  35.099  37.426  12.036
33428W        W 1802  43.338  12.125  13.880
33429W        W 1803   1.889  35.527  10.551
33430W        W 1804  13.800  24.156   0.875
33431W        W 1805  25.092  24.063   2.734
33432W        W 1806   7.308  35.919  10.473
33433W        W 1807  10.212  39.050   2.854
33434W        W 1808  10.700  39.316  12.554
33435W        W 1809   6.287  15.153  14.312
33436W        W 1810   2.871   0.417  11.581
33437W        W 1811  25.974  32.970   2.403
33438W        W 1812   8.195  22.609  14.412
33439W        W 1813   5.284  24.611  10.450
33440W        W 1814   0.905  30.046  10.407
33441W        W 1815  18.153  17.252  13.377
33442W        W 1816  15.119  10.777   1.888
33443W        W 1817   8.892  36.091   0.914
33444W        W 1818  26.069   8.403   2.715
33445W        W 1819  22.249  23.559   3.839
33446W        W 1820  10.305  38.849  14.431
33447W        W 1821   2.416  15.313  12.092
33448W        W 1822   4.861  43.968   0.833
33449W        W 1823  27.609   6.237   4.255
33450W        W 1824  24.119  27.115  11.938
33451W        W 1825  28.960  14.193  14.924
33452W        W 1826  33.547  36.074  13.435
33453W        W 1827  25.488  42.288  14.486
33454W        W 1828  15.682  24.112  13.480
33455W        W 1829  43.858  41.297  13.546
33456W        W 1830   2.319  42.462   2.181
33457W        W 1831  20.229  20.722   2.293
33458W        W 1832  29.480  34.507   2.680
33459W        W 1833  12.795  20.064  10.573
33460W        W 1834  37.504  34.877  14.899
33461W        W 1835  10.283  44.786   2.701
33462W        W 1836  43.372   8.330   3.345
33463W        W 1837  38.414  38.488   4.118
33464W        W 1838  28.104  42.333   0.926
33465W        W 1839  24.594  12.152   0.729
33466W        W 1840  15.810  27.031  12.083
33467W        W 1841   1.451   0.868  13.354
33468W        W 1842   3.834   4.343   3.695
33469W        W 1843  22.614  11.778   3.817
33470W        W 1844  40.535   0.894  13.516
33471W        W 1845  20.184  14.787  14.919
33472W        W 1846   1.338  15.729  14.027
33473W        W 1847  20.275  11.341  10.990
33474W        W 1848  29.601   3.415  11.462
33475W        W 1849  36.386  36.480   4.679
33476W        W 1850   2.855  34.468  12.450
33477W        W 1851  29.076  20.240   3.651
33478W        W 1852  31.122   8.748   4.767
33479W        W 1853   5.273   1.452   4.208
33480W        W 1854  32.524  24.045   2.187
33481W        W 1855  44.990  41.020  10.475
33482W        W 1856  43.868  32.051  10.487
33483W        W 1857  28.572  20.754   0.351
33484W        W 1858  26.178  18.613  13.481
33485W        W 1859  30.485  36.850   0.949
33486W        W 1860   4.445  32.553  10.534
33487W        W 1861   5.783  44.503   9.947
33488W        W 1862   5.833   9.376   4.674
33489W        W 1863  36.588  30.156   4.793
33490W        W 1864  42.815  41.380  13.943
33491W        W 1865  16.637   4.257  11.483
33492W        W 1866  44.476  43.388   0.282
33493W        W 1867  25.645   7.794  10.445
33494W        W 1868   3.764  23.548   1.889
33495W        W 1869  11.231  14.812   1.321
33496W        W 1870  21.128   1.451  12.823
33497W        W 1871  35.926  31.495  13.341
33498W        W 1872   1.479  39.918  11.417
33499W        W 1873  23.168   4.808   1.721
33500W        W 1874  26.969   1.352   3.315
33501W        W 1875   4.294  40.052  14.335
33502W        W 1876  19.276  19.190   0.884
33503W        W 1877  40.540   4.927  14.766
33504W        W 1878  26.600  13.351   3.757
33505W        W 1879   7.687  28.051  12.475
33506W        W 1880  21.627  23.065   4.193
33507W        W 1881  38.834  31.120  12.884
33508W        W 1882  26.962   6.265  13.822
33509W        W 1883  29.633   3.433  12.851
33510W        W 1884  39.826   3.220   1.372
33511W        W 1885  16.674   4.849   0.425
33512W        W 1886  42.334   6.714   1.279
33513W        W 1887   4.930  41.996   4.783
33514W        W 1888  41.836  21.617   4.232
33515W        W 1889  25.060  38.864  14.441
33516W        W 1890  16.663  43.284  11.113
33517W        W 1891  22.727  22.209  13.973
33518W        W 1892   3.832  23.199  10.511
33519W        W 1893  10.261   7.394   4.836
33520W        W 1894   6.906   7.828  12.456
33521W        W 1895  16.649   1.829   1.926
33522W        W 1896  16.790   0.446  11.406
33523W        W 1897  35.957  17.772   0.448
33524W        W 1898  44.423  19.244  14.282
33525W        W 1899  11.300  25.637  14.017
33526W        W 1900  26.172  10.752   3.842
33527W        W 1901  44.491  44.502  11.110
33528W        W 1902  16.738   7.851   3.754
33529W        W 1903  24.706  11.181  13.401
33530W        W 1904  37.362  16.687   4.158
33531W        W 1905  42.930  19.232  14.866
33532W        W 1906  11.797  35.487   0.425
33533W        W 1907   7.214   2.311  11.998
33534W        W 1908   1.266  23.672  13.011
33535W        W 1909   3.384   9.197   4.599
33536W        W 1910  33.961  16.109   4.232
33537W        W 1911   5.687  41.486   4.761
33538W        W 1912  11.724  14.787  11.455
33539W        W 1913  41.404  37.566   4.724
33540W        W 1914  10.837  14.693  13.352
33541W        W 1915  17.658  13.652   4.235
33542W        W 1916   8.745   9.353   3.711
33543W        W 1917  39.493   3.440  14.277
33544W        W 1918  25.998  40.853   2.833
33545W        W 1919  34.952  39.898   1.781
33546W        W 1920  41.967   8.354  12.875
33547W        W 1921  17.675  10.878  11.439
33548W        W 1922  12.291  33.549   3.750
33549W        W 1923  43.371  18.114   0.854
33550W        W 1924  28.576  27.141  12.346
33551W        W 1925  26.475   5.435  12.823
33552W        W 1926  21.252  31.436   0.426
33553W        W 1927  43.381  10.854   4.230
33554W        W 1928   7.286  37.395  14.360
33555W        W 1929   2.420  12.768  10.474
33556W        W 1930  25.997  31.529  13.020
33557W        W 1931  19.266  10.240   1.772
33558W        W 1932  33.038  22.510   1.930
33559W        W 1933  24.583  23.191   3.264
33560W        W 1934  16.287  42.328  12.095
33561W        W 1935  32.011  42.500  10.476
33562W        W 1936  17.266  27.124   2.774
33563W        W 1937   9.791  31.531  14.435
33564W        W 1938  36.070  43.976   0.279
33565W        W 1939  10.184  25.639  11.500
33566W        W 1940  10.325  35.019  12.092
33567W        W 1941  42.423  18.216  11.456
33568W        W 1942  34.397  40.811   4.609
33569W        W 1943  41.877  35.449   1.404
33570W        W 1944   0.896  33.070   0.304
33571W        W 1945   9.268  43.457   0.793
33572W        W 1946  17.795  13.770   2.227
33573W        W 1947  43.886   9.195  14.303
33574W        W 1948   5.702   4.727  12.832
33575W        W 1949  16.086   2.828   1.815
33576W        W 1950   1.472  20.158  13.480
33577W        W 1951  13.773  21.610   4.121
33578W        W 1952  14.653  35.867   4.183
33579W        W 1953  20.759  37.395   4.687
33580W        W 1954  41.030  31.606   3.773
33581W        W 1955  17.725  32.912  11.114
33582W        W 1956  31.948   6.310  14.855
33583W        W 1957  39.869   2.860   0.810
33584W        W 1958   2.464  40.472  14.021
33585W        W 1959  15.619  22.564  11.083
33586W        W 1960   9.249  10.657   2.696
33587W        W 1961  41.438  23.607   2.320
33588W        W 1962  19.158  22.566   1.726
33589W        W 1963  25.067  23.071   4.166
33590W        W 1964  35.995  21.071  14.298
33591W        W 1965   7.881  29.602  14.977
33592W        W 1966  25.571  27.538  10.513
33593W        W 1967   9.877  23.625   0.788
33594W        W 1968  44.289  25.670  11.382
33595W        W 1969  32.601  25.014  13.545
33596W        W 1970   9.738   5.365   0.251
33597W        W 1971  39.461  24.181  11.861
33598W        W 1972   5.334  27.989   1.372
33599W        W 1973  27.105   8.278   0.779
33600W        W 1974  36.574  14.316   3.782
33601W        W 1975  17.195   1.332  13.432
33602W        W 1976   3.787  24.164   0.935
33603W        W 1977  12.654  33.389  12.082
33604W        W 1978  18.636  31.593   2.760
33605W        W 1979  13.608  44.893   0.872
33606W        W 1980  21.571   7.840   1.757
33607W        W 1981  13.725  27.610  12.369
33608W        W 1982  37.859  15.102  14.920
33609W        W 1983  13.600  14.704  12.043
33610W        W 1984  25.651   6.311  12.901
33611W        W 1985  10.850  14.284   1.368
33612W        W 1986  36.562  23.092   3.377
33613W        W 1987  12.150  20.761  12.004
33614W        W 1988  24.700  40.521   3.335
33615W        W 1989  39.916  42.299   2.797
33616W        W 1990  15.212  26.467  13.958
33617W        W 1991  21.254  23.136   2.227
33618W        W 1992  32.618   2.916   1.883
33619W        W 1993   4.429  39.318   3.283
33620W        W 1994  40.402  34.923  14.989
33621W        W 1995  31.596  11.794  11.598
33622W        W 1996   8.368  41.450  11.944
33623W        W 1997  13.741  16.176   4.807
33624W        W 1998  28.647  17.234  12.532
33625W        W 1999  17.283  24.009   5.123
33626W        W 2000   1.775  16.179  14.919
33627W        W 2001   4.396  28.454  12.401
33628W        W 2002   9.255  23.628   4.212
33629W        W 2003  37.017  27.023  14.477
33630W        W 2004  14.738  21.137  13.985
33631W        W 2005   3.409   1.834  14.822
33632W        W 2006  16.117  38.945   0.258
33633W        W 2007   1.928  36.073  12.825
33634W        W 2008  14.775  32.961   3.634
33635W        W 2009  15.766   0.399   1.372
33636W        W 2010  28.646  22.702   3.648
33637W        W 2011  26.998   4.725  14.973
33638W        W 2012  16.307   2.833  14.764
33639W        W 2013  33.011  31.102   0.752
33640W        W 2014  28.493  39.831   1.697
33641W        W 2015   4.370   9.175   1.717
33642W        W 2016   6.424   2.856  10.961
33643W        W 2017   9.709  39.011   2.283
33644W        W 2018  14.809  28.169   2.412
33645W        W 2019  14.287  13.311  12.886
33646W        W 2020   9.250  28.062  11.067
33647W        W 2021  42.347  18.549  14.501
33648W        W 2022  27.155   5.775   3.798
33649W        W 2023  39.529  14.592  13.448
33650W        W 2024   1.803  22.660   0.766
33651W        W 2025  27.480  11.372  12.555
33652W        W 2026  28.960  15.107  13.926
33653W        W 2027  32.971   6.424  10.483
33654W        W 2028  13.236  17.608  13.524
33655W        W 2029  12.778  30.430  13.919
33656W        W 2030  19.642   3.779   4.606
33657W        W 2031  12.354  35.430   2.806
33658W        W 2032   0.932  21.125   3.807
33659W        W 2033   1.239  28.952   2.897
33660W        W 2034  17.643  10.788  12.498
33661W        W 2035  26.108  36.473   1.329
33662W        W 2036  12.189  26.058  12.578
33663W        W 2037  17.214  27.175   3.195
33664W        W 2038  30.912  20.573   2.199
33665W        W 2039   1.254   9.761   0.382
33666W        W 2040  43.307  36.843  10.526
33667W        W 2041  34.929  11.298  13.947
33668W        W 2042   5.811  17.194   3.868
33669W        W 2043  32.980   2.839   3.241
33670W        W 2044   7.379   7.797   1.905
33671W        W 2045   3.906   1.941  11.978
33672W        W 2046  35.526   9.224   0.891
33673W        W 2047   1.760   8.266   2.404
33674W        W 2048  42.297  37.071  11.374
33675W        W 2049  19.091  40.860  11.929
33676W        W 2050  33.955  19.108  13.005
33677W        W 2051  18.154  12.257  12.483
33678W        W 2052  29.009  37.575  12.440
33679W        W 2053  42.344  35.899   0.955
33680W        W 2054  20.065  19.144  12.056
33681W        W 2055  13.810  40.439   4.799
33682W        W 2056  10.788  44.953  14.452
33683W        W 2057  25.199  40.045   4.297
33684W        W 2058  11.276   7.274  14.906
33685W        W 2059  34.555  24.595  13.492
33686W        W 2060   5.844  34.944   4.641
33687W        W 2061   6.318  31.462   9.996
33688W        W 2062  36.962  36.869  14.451
33689W        W 2063  40.476   4.874   4.742
33690W        W 2064  23.627  38.884  13.837
33691W        W 2065  21.597  35.579   4.667
33692W        W 2066  44.462  43.358   0.827
33693W        W 2067  13.214  27.989  10.440
33694W        W 2068  14.806  27.471   3.369
33695W        W 2069  22.591  44.340   3.854
33696W        W 2070   9.673   5.255  13.469
33697W        W 2071   2.340  26.048  13.055
33698W        W 2072  36.528  38.566   1.711
33699W        W 2073  15.784  12.693  14.843
33700W        W 2074  17.243  35.511   0.360
33701W        W 2075   6.803   3.386   1.278
33702W        W 2076  19.124  27.517  12.534
33703W        W 2077  39.929  33.053   2.239
33704W        W 2078  41.969  38.980  10.091
33705W        W 2079  39.438  32.076   0.288
33706W        W 2080   1.737  30.616  12.895
33707W        W 2081  18.201  31.036  14.377
33708W        W 2082   4.754  25.986  14.989
33709W        W 2083  42.501  40.341  11.055
33710W        W 2084  16.607  20.152   3.776
33711W        W 2085  37.865   8.324  14.957
33712W        W 2086  19.103   0.969   2.901
33713W        W 2087  29.533  28.062  14.990
33714W        W 2088  17.115  32.464  14.496
33715W        W 2089  42.484  28.653  14.909
33716W        W 2090  37.574  25.076   1.912
33717W        W 2091  29.175  15.169   4.599
33718W        W 2092  23.692   2.407   0.912
33719W        W 2093  38.489  18.107   3.247
33720W        W 2094   7.183   0.871   2.829
33721W        W 2095  30.157  10.878  10.433
33722W        W 2096  43.792  23.635  12.930
33723W        W 2097   1.281  38.498   0.839
33724W        W 2098   7.862  40.355   0.964
33725W        W 2099  41.799   0.966   3.259
33726W        W 2100  12.800  26.661  14.878
33727W        W 2101   3.943  26.693   1.215
33728W        W 2102  34.557  33.944   0.460
33729W        W 2103  41.500  43.439  12.823
33730W        W 2104  19.590   8.735   0.449
33731W        W 2105  10.856   8.713   3.310
33732W        W 2106  15.203  14.615  10.414
33733W        W 2107   2.462  19.586  13.308
33734W        W 2108  18.786  14.332  14.014
33735W        W 2109  38.484  24.650   0.911
33736W        W 2110  32.436  37.383  14.455
33737W        W 2111  35.966   8.730  13.521
33738W        W 2112  36.375  35.502  11.007
33739W        W 2113   2.770  28.652  14.435
33740W        W 2114  17.724  17.749  12.033
33741W        W 2115   0.440  35.958  13.470
33742W        W 2116  17.707  17.660  14.370
33743W        W 2117  43.835  15.767   2.290
33744W        W 2118  13.227  23.129  14.312
33745W        W 2119  29.037  42.509  11.082
33746W        W 2120  21.615  33.401   4.236
33747W        W 2121  25.685  40.023   3.311
33748W        W 2122  27.512  41.789   1.259
33749W        W 2123  43.000  35.930  12.469
33750W        W 2124   4.278  29.983   3.847
33751W        W 2125  44.390  29.045   4.632
33752W        W 2126  35.585   6.382   0.310
33753W        W 2127   1.737  39.911   3.235
33754W        W 2128  12.188  15.130  13.938
33755W        W 2129  17.715  29.029  14.809
33756W        W 2130  33.542  29.939   3.753
33757W        W 2131  36.396  13.698  13.886
33758W        W 2132   5.234  19.711  10.448
33759W        W 2133  15.199  19.624   0.389
33760W        W 2134  42.295   3.282  14.900
33761W        W 2135  40.885  40.005  13.963
33762W        W 2136  37.907  21.580  14.499
33763W        W 2137  38.929  18.578   3.697
33764W        W 2138   6.918  41.461   3.205
33765W        W 2139  14.647   9.783  13.457
33766W        W 2140  27.529  25.051   1.794
33767W        W 2141  27.987  14.340   1.337
33768W        W 2142  43.018  27.048  14.849
33769W        W 2143  27.998  34.076   0.421
33770W        W 2144  41.308  26.645  12.439
33771W        W 2145  31.143  43.946  11.080
33772W        W 2146  19.594  21.059  11.459
33773W        W 2147  23.655   8.862  12.081
33774W        W 2148  37.530  43.495  13.908
33775W        W 2149  28.001   1.958   0.897
33776W        W 2150  28.082  30.030  11.480
33777W        W 2151   4.274  12.288  14.780
33778W        W 2152  24.719  41.805   4.735
33779W        W 2153  20.683  41.328  14.444
33780W        W 2154  37.507  38.383   4.645
33781W        W 2155  44.292  41.932   2.338
33782W        W 2156  14.727  11.856   4.631
33783W        W 2157  17.646  37.495   1.345
33784W        W 2158  16.606   8.359  14.951
33785W        W 2159  19.714  20.216   2.891
33786W        W 2160  20.560  37.560  14.330
33787W        W 2161   7.174  28.069   0.461
33788W        W 2162   8.216  17.623  14.390
33789W        W 2163   2.761   6.909   1.716
33790W        W 2164  36.464  15.778   2.291
33791W        W 2165  19.640  19.545   4.666
33792W        W 2166  39.488  20.693  14.964
33793W        W 2167  23.109  33.126  13.500
33794W        W 2168  39.346  21.519   1.419
33795W        W 2169   6.764  19.770  14.383
33796W        W 2170  23.155  16.303   1.248
33797W        W 2171  15.749  34.482  13.849
33798W        W 2172   6.870  34.875   1.290
33799W        W 2173  41.308  34.014   2.333
33800W        W 2174   8.397  31.432   1.420
33801W        W 2175   9.656   0.401   2.351
33802W        W 2176  14.683   4.845  14.426
33803W        W 2177  41.824  13.660  12.535
33804W        W 2178  41.865   6.356   2.745
33805W        W 2179  21.681  25.180   0.746
33806W        W 2180  13.746  17.064  11.968
33807W        W 2181  27.985  23.225   4.635
33808W        W 2182  16.146  22.707  13.889
33809W        W 2183   3.778  37.423   0.309
33810W        W 2184  25.641   7.890  10.931
33811W        W 2185  40.314  35.927  11.856
33812W        W 2186  10.754  27.101   2.203
33813W        W 2187  10.664   9.795  11.446
33814W        W 2188  27.123  24.166  14.020
33815W        W 2189  42.281  40.031   4.671
33816W        W 2190   7.191  21.572   4.216
33817W        W 2191  10.264  26.125  14.961
33818W        W 2192  26.105   2.262   3.704
33819W        W 2193  15.145  24.181   4.301
33820W        W 2194   8.192  37.467   4.323
33821W        W 2195  35.019  11.320   0.762
33822W        W 2196  20.193  19.578  11.558
33823W        W 2197  15.321   4.740   2.795
33824W        W 2198   1.897   0.781  11.106
33825W        W 2199  37.950   5.881   9.449
33826W        W 2200  39.495   3.368  11.526
33827W        W 2201  29.053  19.109   1.752
33828W        W 2202   9.852  40.508   4.742
33829W        W 2203  12.711   4.800   2.393
33830W        W 2204  10.789  14.664   0.323
33831W        W 2205   8.184  28.556  12.845
33832W        W 2206  31.036  22.183   4.299
33833W        W 2207  25.610  42.907   4.599
33834W        W 2208  31.976   3.913   1.217
33835W        W 2209   5.870  15.200   3.821
33836W        W 2210  38.426   0.746  14.024
33837W        W 2211   3.742  30.522  12.002
33838W        W 2212  41.452  27.069   0.352
33839W        W 2213  27.549  34.558   0.254
33840W        W 2214   6.841  33.057  11.998
33841W        W 2215  42.023  23.492   1.392
33842W        W 2216  35.993  38.051   1.221
33843W        W 2217  40.893  30.997  13.040
33844W        W 2218  34.080  41.371   1.929
33845W        W 2219  40.429  33.588  14.431
33846W        W 2220  39.030  34.503  11.958
33847W        W 2221   0.423  28.954   3.708
33848W        W 2222  37.452  29.519   0.308
33849W        W 2223  17.107  18.069  10.634
33850W        W 2224  30.012   9.821  11.518
33851W        W 2225  33.956   8.877   3.747
33852W        W 2226   4.241   8.694   3.848
33853W        W 2227   3.299   7.243  13.880
33854W        W 2228  33.566  13.295   3.677
33855W        W 2229   2.831  14.792  11.582
33856W        W 2230   3.822  34.066  13.970
33857W        W 2231  23.217  14.764  13.378
33858W        W 2232  35.500  31.998   0.474
33859W        W 2233  30.460  42.978  10.451
33860W        W 2234   7.186   6.416   1.734
33861W        W 2235  11.166  38.893  14.329
33862W        W 2236  17.083   3.323   3.292
33863W        W 2237  32.087   2.398  11.598
33864W        W 2238  26.604  12.199  14.429
33865W        W 2239   5.916  13.710  12.406
33866W        W 2240  41.381   5.695  12.471
33867W        W 2241  42.454  42.872   4.344
33868W        W 2242  22.192  27.184   2.197
33869W        W 2243  26.617  24.152   2.669
33870W        W 2244  15.227  40.373   2.873
33871W        W 2245  13.635  12.144  13.893
33872W        W 2246  32.562  15.658   1.708
33873W        W 2247  15.688   4.313  11.116
33874W        W 2248   4.871  39.950  10.138
33875W        W 2249  11.669  35.858   9.947
33876W        W 2250  33.055  21.080   4.254
33877W        W 2251  14.685  36.097  12.453
33878W        W 2252  13.193  17.271  12.462
33879W        W 2253  35.447  26.070  12.345
33880W        W 2254  14.764  37.997  14.940
33881W        W 2255  35.541   6.300   2.365
33882W        W 2256   7.883  32.986   2.288
33883W        W 2257   9.278  12.751   3.152
33884W        W 2258  19.674  34.943   3.839
33885W        W 2259  20.599  33.096   3.285
33886W        W 2260  27.607  38.380   1.842
33887W        W 2261  20.041  27.170  11.470
33888W        W 2262  19.732  21.517   4.602
33889W        W 2263  22.063   9.278  10.912
33890W        W 2264  41.795  21.068   1.286
33891W        W 2265  32.929   0.758   0.733
33892W        W 2266  17.565  25.976  12.087
33893W        W 2267  21.554  32.954   2.671
33894W        W 2268  25.669  42.504   1.827
33895W        W 2269   7.678  21.675   2.754
33896W        W 2270  27.658  39.337  10.521
33897W        W 2271  22.089  25.625   1.289
33898W        W 2272  39.484  31.922  10.446
33899W        W 2273  27.625  27.590   4.807
33900W        W 2274  15.670  43.375   1.880
33901W        W 2275  35.862   2.445   4.606
33902W        W 2276   5.376  43.352   0.897
33903W        W 2277  13.744  44.821   4.721
33904W        W 2278  40.492  19.101  10.935
33905W        W 2279   9.359   3.243  11.409
33906W        W 2280  16.731  42.414   3.292
33907W        W 2281  41.004   4.256   2.756
33908W        W 2282  25.511  25.205   1.832
33909W        W 2283  13.815  41.023  10.934
33910W        W 2284   1.368  41.817  14.369
33911W        W 2285  27.668  17.797  11.371
33912W        W 2286  28.068  26.683  13.484
33913W        W 2287  15.781   1.246  11.548
33914W        W 2288   1.814   6.230  11.557
33915W        W 2289  25.563  20.701   0.277
33916W        W 2290  14.759  41.495   0.890
33917W        W 2291  32.124  21.261   4.806
33918W        W 2292  17.765  23.602  14.894
33919W        W 2293  37.527  23.647   1.872
33920W        W 2294  17.131  40.026   1.270
33921W        W 2295   0.368  25.530   3.687
33922W        W 2296  15.123  30.518  10.898
33923W        W 2297   9.310  21.695   2.205
33924W        W 2298  10.215  37.962   3.321
33925W        W 2299  28.017  18.667   3.227
33926W        W 2300  25.018  26.658   2.712
33927W        W 2301  28.567  34.863  13.973
33928W        W 2302  16.794   8.872  11.091
33929W        W 2303   0.817   2.832   0.481
33930W        W 2304  42.456  43.421  10.440
33931W        W 2305  34.944  29.108   3.286
33932W        W 2306  32.051  19.647  13.884
33933W        W 2307  16.199  33.015   2.788
33934W        W 2308   2.773  38.054   4.190
33935W        W 2309   4.769  37.082   2.721
33936W        W 2310  41.877  10.154  13.422
33937W        W 2311   5.431  16.585   4.607
33938W        W 2312  16.128  12.754   2.179
33939W        W 2313  27.073   9.340   4.342
33940W        W 2314  35.374  13.659   0.294
33941W        W 2315   7.195   2.853   4.604
33942W        W 2316  44.906  32.502  10.491
33943W        W 2317   2.426  15.620   2.746
33944W        W 2318   8.866  43.300  11.076
33945W        W 2319   5.299   3.378  11.005
33946W        W 2320  44.339  15.208  11.017
33947W        W 2321  16.235  31.459  10.619
33948W        W 2322  36.000  11.710   3.697
33949W        W 2323  28.053  23.168   3.165
33950W        W 2324  44.984   6.767   4.643
33951W        W 2325  20.617  16.097  12.925
33952W        W 2326  11.827  31.595   2.732
33953W        W 2327  40.844  26.063  14.297
33954W        W 2328   9.174  25.592  10.969
33955W        W 2329  27.147  22.080  10.491
33956W        W 2330   8.204   2.430  14.903
33957W        W 2331  27.150   1.439   0.435
33958W        W 2332   2.756  44.279  10.505
33959W        W 2333  34.005  27.521   1.401
33960W        W 2334   1.380  24.508  13.520
33961W        W 2335   7.813  42.457  14.303
33962W        W 2336  32.905  33.486  12.513
33963W        W 2337  11.144  38.355   2.374
33964W        W 2338  32.528  23.126  10.574
33965W        W 2339  38.045  21.178   0.758
33966W        W 2340  29.166  25.701  12.491
33967W        W 2341  44.407  12.237   3.751
33968W        W 2342  27.974  29.081   4.316
33969W        W 2343  29.088   9.789   4.629
33970W        W 2344  20.680  43.270   1.883
33971W        W 2345  35.449  35.481  13.463
33972W        W 2346   5.697   0.841  14.850
33973W        W 2347  11.177  36.979  14.891
33974W        W 2348  13.622   2.386  13.398
33975W        W 2349  21.017  43.977  13.994
33976W        W 2350   0.940  21.125  11.952
33977W        W 2351  16.121  38.461   1.394
33978W        W 2352   1.278  38.506   4.172
33979W        W 2353  27.573  12.741  14.289
33980W        W 2354  31.562  32.529   4.283
33981W        W 2355   8.768   2.912   3.219
33982W        W 2356  43.284  16.591   0.938
33983W        W 2357   4.418  42.865  12.386
33984W        W 2358  37.536  21.751   4.832
33985W        W 2359  28.436  28.122   4.808
33986W        W 2360  22.039  16.630   1.931
33987W        W 2361  36.545   0.324  11.887
33988W        W 2362   6.269  14.203  10.456
33989W        W 2363  36.028  10.341  14.393
33990W        W 2364  24.583   7.207   0.914
33991W        W 2365  10.871  18.603   3.664
33992W        W 2366  15.203  22.175  14.512
33993W        W 2367   3.799  32.900  12.899
33994W        W 2368  21.690  28.128  13.347
33995W        W 2369  42.810  40.000   4.729
33996W        W 2370  44.840   0.257   2.267
33997W        W 2371  44.341  13.600   1.727
33998W        W 2372   6.866  25.593   4.664
33999W        W 2373  17.569  21.029   0.786
34000W        W 2374  30.922  29.476  10.952
34001W        W 2375  42.956  43.016  10.501
34002W        W 2376   9.731   3.385   3.214
34003W        W 2377   7.213  28.449  12.869
34004W        W 2378  14.623  44.281  13.000
34005W        W 2379  20.177  25.581   3.184
34006W        W 2380  13.345  23.513   1.438
34007W        W 2381  18.289  22.738   1.215
34008W        W 2382   2.915   9.737  12.559
34009W        W 2383  32.460   6.243  11.108
34010W        W 2384   6.856  25.576  13.025
34011W        W 2385  17.630  39.554   0.955
34012W        W 2386  21.044  20.633  14.275
34013W        W 2387  30.436   5.900  10.566
34014W        W 2388  17.213   0.469  10.145
34015W        W 2389   5.835  41.507   0.901
34016W        W 2390  28.185  38.458   3.329
34017W        W 2391  41.888   1.408  14.002
34018W        W 2392  11.792   6.786   0.787
34019W        W 2393  11.340  32.543  13.036
34020W        W 2394  25.162  17.796  14.948
34021W        W 2395  17.616  42.285  14.946
34022W        W 2396   8.268   7.280  14.786
34023W        W 2397   8.325  33.618  14.763
34024W        W 2398  13.258  30.517  14.298
34025W        W 2399   2.768  26.617   0.771
34026W        W 2400   2.962  41.457  14.877
34027W        W 2401  41.790  21.123  11.001
34028W        W 2402   8.728  44.380  13.467
34029W        W 2403  40.997  26.130  12.442
34030W        W 2404  16.680   5.836   0.251
34031W        W 2405   7.186  26.159  12.036
34032W        W 2406  27.524  42.439  14.823
34033W        W 2407  11.815  38.423  10.574
34034W        W 2408  33.460  44.501   3.304
34035W        W 2409  28.180  36.014   3.363
34036W        W 2410  31.014   6.748   4.689
34037W        W 2411  32.951   4.859  13.470
34038W        W 2412  25.658  35.949  13.844
34039W        W 2413   3.347  25.046   4.287
34040W        W 2414   2.931  37.846  10.575
34041W        W 2415  30.430  39.456  11.421
34042W        W 2416  28.605  22.726   2.248
34043W        W 2417   4.830  26.150  11.505
34044W        W 2418  13.268   6.782  11.082
34045W        W 2419  11.862  37.377   3.856
34046W        W 2420  44.961  16.272   2.824
34047W        W 2421  34.511  32.893  11.579
34048W        W 2422   4.867  37.876  12.448
34049W        W 2423  14.119   9.713   3.212
34050W        W 2424  27.519  38.416   4.695
34051W        W 2425  17.153  24.505  14.808
34052W        W 2426  23.992  34.374  11.899
34053W        W 2427  32.023   6.680   3.327
34054W        W 2428   8.341   9.860   4.787
34055W        W 2429  22.702  28.442  11.487
34056W        W 2430  35.866  16.254  14.027
34057W        W 2431  29.985   2.853   1.317
34058W        W 2432  22.592  33.045  10.085
34059W        W 2433   6.701  37.064   0.444
34060W        W 2434  37.475   3.842   4.613
34061W        W 2435   2.816  27.600  14.345
34062W        W 2436  16.778  43.374  12.069
34063W        W 2437  42.425  21.618   4.810
34064W        W 2438   8.307  42.803   2.290
34065W        W 2439   0.813  20.544  14.459
34066W        W 2440  35.485   4.740   1.337
34067W        W 2441  41.787  36.438  12.081
34068W        W 2442  22.712  15.293  14.975
34069W        W 2443  17.598  17.756   0.726
34070W        W 2444  24.157  16.230  14.030
34071W        W 2445  36.428  26.964   4.619
34072W        W 2446   7.901  33.568   3.176
34073W        W 2447  18.159  13.752   4.134
34074W        W 2448   3.310  44.949   0.344
34075W        W 2449  17.781  25.208  10.933
34076W        W 2450  35.926  11.625  14.901
34077W        W 2451  39.559   4.316   1.343
34078W        W 2452  11.255   6.739   0.474
34079W        W 2453  24.006   1.864  10.966
34080W        W 2454  25.706  41.946   1.762
34081W        W 2455   9.761  42.990   2.186
34082W        W 2456   7.707  13.659  13.426
34083W        W 2457  18.696  35.858  13.378
34084W        W 2458  15.745   1.390  10.965
34085W        W 2459  32.026   4.261   4.763
34086W        W 2460   5.763   3.404   0.475
34087W        W 2461  38.367  32.540  13.546
34088W        W 2462  21.153   9.160   4.297
34089W        W 2463  24.650  18.762  11.508
34090W        W 2464  20.651   0.322  14.011
34091W        W 2465  44.488  27.164  14.417
34092W        W 2466   2.300   8.656  13.936
34093W        W 2467   1.316   7.784   0.791
34094W        W 2468   5.827   4.314  13.852
34095W        W 2469   5.245   0.472   2.717
34096W        W 2470  23.711  15.085  14.409
34097W        W 2471  24.066  23.125  10.927
34098W        W 2472  26.456  16.798   2.351
34099W        W 2473  44.795  16.800  12.579
34100W        W 2474   1.860   8.737  10.919
34101W        W 2475   7.282  37.352  11.000
34102W        W 2476  34.054  18.239   2.257
34103W        W 2477  27.691  15.607  12.485
34104W        W 2478  43.776  20.197  12.981
34105W        W 2479  42.313   1.425   4.116
34106W        W 2480   0.949  25.108  12.034
34107W        W 2481  15.700  44.372  11.460
34108W        W 2482  39.445  11.256   3.714
34109W        W 2483  29.479  39.907  12.847
34110W        W 2484   4.795   0.948  13.476
34111W        W 2485  29.426  42.340  10.609
34112W        W 2486   1.923  13.655  12.963
34113W        W 2487  19.701  19.242   4.150
34114W        W 2488  23.559   5.379   0.739
34115W        W 2489  28.995  33.095   4.195
34116W        W 2490  14.213  40.821  13.416
34117W        W 2491  42.338  20.613   0.817
34118W        W 2492  43.326  19.223  12.907
34119W        W 2493   1.376   9.263  12.394
34120W        W 2494  44.319  39.491  10.984
34121W        W 2495  11.301  16.311   4.643
34122W        W 2496  24.677   0.365   4.687
34123W        W 2497   5.746   0.794  13.546
34124W        W 2498  42.778  36.448  12.886
34125W        W 2499   6.870  21.576   1.325
34126W        W 2500  16.111  44.296   2.185
34127W        W 2501  29.150  19.140   0.409
34128W        W 2502  16.089   5.405  11.992
34129W        W 2503   9.346  27.657  12.933
34130W        W 2504  27.186   4.353  14.422
34131W        W 2505  29.976   6.341   2.823
34132W        W 2506   9.179  22.113   0.337
34133W        W 2507  39.512  11.739   1.232
34134W        W 2508  43.469  32.940  11.421
34135W        W 2509  36.400  13.120  13.360
34136W        W 2510  41.412   7.386   2.822
34137W        W 2511  44.917  12.755  13.859
34138W        W 2512  27.158   3.724   0.249
34139W        W 2513  37.497   0.946   3.290
34140W        W 2514   0.417  43.299  10.951
34141W        W 2515  38.051  14.802  12.091
34142W        W 2516  38.502  34.005   4.275
34143W        W 2517   4.204  43.979  13.532
34144W        W 2518  24.987  37.863  13.800
34145W        W 2519  41.354  29.975  13.894
34146W        W 2520   4.852  11.634   0.823
34147W        W 2521   8.246  23.582  13.503
34148W        W 2522  22.124  26.508  13.475
34149W        W 2523  15.642  30.972  13.912
34150W        W 2524  29.113  12.622   3.633
34151W        W 2525  29.526  14.211  12.531
34152W        W 2526  39.505  27.990  12.882
34153W        W 2527  29.140  24.977  12.077
34154W        W 2528  40.006   3.340   0.803
34155W        W 2529  28.979  32.599  14.435
34156W        W 2530   8.776  24.210   4.135
34157W        W 2531  29.645   4.398   4.162
34158W        W 2532  34.563  31.587   0.256
34159W        W 2533  13.649  22.085   0.251
34160W        W 2534  27.191  37.920   2.351
34161W        W 2535  37.991  14.100   0.266
34162W        W 2536   1.406  31.092  13.387
34163W        W 2537  41.312  24.129  10.627
34164W        W 2538  10.217  25.601  12.570
34165W        W 2539  12.705  19.535   1.801
34166W        W 2540  27.001  31.505  10.535
34167W        W 2541  26.566  25.118  12.879
34168W        W 2542  38.943  29.049   3.377
34169W        W 2543   5.897  38.925  11.910
34170W        W 2544   1.318  32.565  12.056
34171W        W 2545  12.684  41.307   3.757
34172W        W 2546  39.529  41.331  14.499
34173W        W 2547  37.072  13.818  13.334
34174W        W 2548  30.504  26.668  10.587
34175W        W 2549  33.524   3.226  11.922
34176W        W 2550   7.675  14.230  14.994
34177W        W 2551   2.465  34.874  10.089
34178W        W 2552  41.854  13.203   3.345
34179W        W 2553   1.775  37.916  12.527
34180W        W 2554  28.645   6.331   2.320
34181W        W 2555  32.556  23.592   1.893
34182W        W 2556  17.260   7.319   4.170
34183W        W 2557  33.423  28.439   2.339
34184W        W 2558  38.905  36.392  11.565
34185W        W 2559  10.339  25.187  11.087
34186W        W 2560   2.407  30.602  11.454
34187W        W 2561  12.272   6.386   0.459
34188W        W 2562  10.737   6.320  12.082
34189W        W 2563   2.449  37.081   0.798
34190W        W 2564  14.678  20.567  12.443
34191W        W 2565  28.184  38.507   3.779
34192W        W 2566  27.951  43.503   1.727
34193W        W 2567  32.974  19.257  11.588
34194W        W 2568  28.002  42.850  13.962
34195W        W 2569   6.692   1.757   4.812
34196W        W 2570  38.075  40.802  12.535
34197W        W 2571  34.959  31.430   2.875
34198W        W 2572  24.083  26.602  14.389
34199W        W 2573  12.717   4.775  11.987
34200W        W 2574  31.981  17.742   4.708
34201W        W 2575  10.704  27.130   1.272
34202W        W 2576  29.122  29.523  11.403
34203W        W 2577  19.073  23.735  12.894
34204W        W 2578  34.015  28.661  12.031
34205W        W 2579  11.646  17.577  12.460
34206W        W 2580  34.092  16.239  10.503
34207W        W 2581  42.021  33.504   4.190
34208W        W 2582   8.365   3.392  14.442
34209W        W 2583  39.031  34.953   0.797
34210W        W 2584  16.659   5.923  10.590
34211W        W 2585   9.342  37.529  11.098
34212W        W 2586  32.578  10.859   2.713
34213W        W 2587  43.269  19.664   1.335
34214W        W 2588  23.618   8.769   3.803
34215W        W 2589  14.809  42.872  13.539
34216W        W 2590  19.263  34.459   1.395
34217W        W 2591  29.095  21.548   0.333
34218W        W 2592  37.398   2.909   1.379
34219W        W 2593  14.262   6.880  11.896
34220W        W 2594  27.177  33.591  14.344
34221W        W 2595  17.103  21.736  13.522
34222W        W 2596  18.184  20.764   3.161
34223W        W 2597  22.724  29.635  10.453
34224W        W 2598  14.268  17.067   1.902
34225W        W 2599   4.295  21.205  13.020
34226W        W 2600  35.040  16.716  14.875
34227W        W 2601  38.871   9.225  11.458
34228W        W 2602  17.703  20.204   4.752
34229W        W 2603  10.840  42.794   2.212
34230W        W 2604  21.597  37.979   1.867
34231W        W 2605   9.861  16.174   3.367
34232W        W 2606  36.375  13.846  12.548
34233W        W 2607  32.453  17.073  12.457
34234W        W 2608  20.069  12.157  12.417
34235W        W 2609  22.614  34.064   0.377
34236W        W 2610  15.586  40.438   0.314
34237W        W 2611  37.875  19.237   1.768
34238W        W 2612  31.069  35.459   4.789
34239W        W 2613  30.090   2.305  13.884
34240W        W 2614  35.026  22.710   3.825
34241W        W 2615  17.714  36.483   4.646
34242W        W 2616  44.972   7.726  10.915
34243W        W 2617  37.998  21.573   4.282
34244W        W 2618  44.985  41.484  12.543
34245W        W 2619  40.014   1.768   2.284
34246W        W 2620   8.728  31.549  13.809
34247W        W 2621  31.530   4.780   1.801
34248W        W 2622  36.992  30.565   2.887
34249W        W 2623   8.841  36.477   2.233
34250W        W 2624  31.922  15.782   5.227
34251W        W 2625  39.851   7.358   1.771
34252W        W 2626  25.683  11.791   0.925
34253W        W 2627  31.949  23.539   3.262
34254W        W 2628  12.118  38.039   2.674
34255W        W 2629  39.880  16.273   1.901
34256W        W 2630  33.522  30.441  14.000
34257W        W 2631   4.736  25.474   3.199
34258W        W 2632  39.822   7.740   4.665
34259W        W 2633  14.198  24.090   4.769
34260W        W 2634  14.178  17.286   4.598
34261W        W 2635  10.285   7.806   5.216
34262W        W 2636  44.384  24.510  12.478
34263W        W 2637  25.088   8.311   1.307
34264W        W 2638   2.466  22.647  12.490
34265W        W 2639  25.070  40.504  12.959
34266W        W 2640  22.165  10.139  13.466
34267W        W 2641  10.836   4.232  14.918
34268W        W 2642  10.235   3.408  13.950
34269W        W 2643  24.985   0.273   0.870
34270W        W 2644  22.670  23.223  10.580
34271W        W 2645  29.009  35.963   0.747
34272W        W 2646   9.296  30.979   2.213
34273W        W 2647  10.316  12.235   2.315
34274W        W 2648  30.159  32.125   1.709
34275W        W 2649  21.176  10.787  11.515
34276W        W 2650   0.887  23.538   3.722
34277W        W 2651  16.299   3.262  14.342
34278W        W 2652  40.813  30.476   4.288
34279W        W 2653  37.869  34.407   1.437
34280W        W 2654  25.100   9.343  11.451
34281W        W 2655  32.420  15.221   0.313
34282W        W 2656   9.295  12.711  12.490
34283W        W 2657  43.846   3.424  12.031
34284W        W 2658  33.387  33.936   2.337
34285W        W 2659  12.834  37.012  13.368
34286W        W 2660  31.931  24.211   1.763
34287W        W 2661  42.393   8.246   2.316
34288W        W 2662   3.762  22.037   3.318
34289W        W 2663   5.343  26.602   5.317
34290W        W 2664  13.783  29.592  12.524
34291W        W 2665  41.366  20.158  12.363
34292W        W 2666  10.836   4.423  12.830
34293W        W 2667  11.846   8.222   4.181
34294W        W 2668  44.264  35.096   4.291
34295W        W 2669  25.185   5.868  10.938
34296W        W 2670  11.693  42.394  11.395
34297W        W 2671  12.291  27.600   1.882
34298W        W 2672   5.297   1.292  10.523
34299W        W 2673  43.442  21.676   0.262
34300W        W 2674  14.705  37.964   3.852
34301W        W 2675  18.094   4.893  12.922
34302W        W 2676  25.478  36.498  10.423
34303W        W 2677  33.438  31.047  14.398
34304W        W 2678  37.398   3.273  13.445
34305W        W 2679  39.555  20.239   3.270
34306W        W 2680   3.839  22.049  13.514
34307W        W 2681   3.340  25.691  13.878
34308W        W 2682  44.354  44.276   3.631
34309W        W 2683  36.576  21.222  13.326
34310W        W 2684  25.473  19.567  12.060
34311W        W 2685  35.929  17.166  11.910
34312W        W 2686  11.326  33.567  10.496
34313W        W 2687  18.289  10.700  13.434
34314W        W 2688  34.903   1.885   1.780
34315W        W 2689  13.779  21.174   4.353
34316W        W 2690   0.761  24.601  11.575
34317W        W 2691  25.581  12.363  13.007
34318W        W 2692   1.935  29.428  13.464
34319W        W 2693  44.815   0.840   0.250
34320W        W 2694   2.347  40.859  14.344
34321W        W 2695   4.897  40.432   0.281
34322W        W 2696  13.807  28.565  14.374
34323W        W 2697  22.550  11.628   1.764
34324W        W 2698  25.498  29.139   0.790
34325W        W 2699   0.800  43.007  10.602
34326W        W 2700  44.763  37.502  12.576
34327W        W 2701  25.565  44.787  12.086
34328W        W 2702  29.529  20.174  14.277
34329W        W 2703  37.342  35.098  12.447
34330W        W 2704  39.331  43.890   3.865
34331W        W 2705  44.902  10.664   4.802
34332W        W 2706  30.005  21.140   2.290
34333W        W 2707   7.823  18.665   0.859
34334W        W 2708   4.871  13.783   3.659
34335W        W 2709  37.083  17.558   2.809
34336W        W 2710  24.611   4.737   1.372
34337W        W 2711   1.326  38.980   0.736
34338W        W 2712  42.898   3.782   5.173
34339W        W 2713  21.750  38.918  14.955
34340W        W 2714  16.140  25.472   4.679
34341W        W 2715  18.231  43.976  11.582
34342W        W 2716  20.588  17.097   2.710
34343W        W 2717   5.388  38.451  12.920
34344W        W 2718  44.417  21.731  13.400
34345W        W 2719  24.562   1.781  13.508
34346W        W 2720  40.857  29.606  12.510
34347W        W 2721  13.722  15.251   4.809
34348W        W 2722   1.298   2.395  13.342
34349W        W 2723  44.380  39.949  13.916
34350W        W 2724   1.453  25.179  14.279
34351W        W 2725   4.422  13.664   1.276
34352W        W 2726   7.326  19.619  10.564
34353W        W 2727  24.013  13.643   1.899
34354W        W 2728  33.397   7.198  12.092
34355W        W 2729   9.888  35.044   2.265
34356W        W 2730   6.186  13.698  11.524
34357W        W 2731  29.630  44.896   2.680
34358W        W 2732  44.267   3.330  11.966
34359W        W 2733  25.149  23.709   2.389
34360W        W 2734  10.157  13.341   2.346
34361W        W 2735  43.792  41.798   4.658
34362W        W 2736  42.945  43.935   1.750
34363W        W 2737   2.789  21.144   2.901
34364W        W 2738  10.205  37.921  14.880
34365W        W 2739  11.286   0.421  11.612
34366W        W 2740   0.494   9.314   0.469
34367W        W 2741   9.665  17.786   4.701
34368W        W 2742  26.458  15.098  13.886
34369W        W 2743   2.387  30.421   2.321
34370W        W 2744  37.501  36.902   3.272
34371W        W 2745   3.731  11.267   1.332
34372W        W 2746  24.686  37.438   0.749
34373W        W 2747  21.103  19.273   1.917
34374W        W 2748  18.683  28.950  13.006
34375W        W 2749  17.166  17.602  14.011
34376W        W 2750   2.264  44.486  13.842
34377W        W 2751  40.423  11.867  14.812
34378W        W 2752  22.539  28.476  11.059
34379W        W 2753  32.423  41.936  14.379
34380W        W 2754  22.715  31.422  10.112
34381W        W 2755  20.705  15.776   1.441
34382W        W 2756   0.450  41.838   1.769
34383W        W 2757  28.532  41.878  12.405
34384W        W 2758  42.293  23.158  10.956
34385W        W 2759  12.677  12.626  13.509
34386W        W 2760  24.219  10.345   5.308
34387W        W 2761   2.852  17.064  13.439
34388W        W 2762   4.268  20.106  11.442
34389W        W 2763  31.004  31.584  12.977
34390W        W 2764  13.645  22.502  11.595
34391W        W 2765  24.530  32.465  11.467
34392W        W 2766   4.930   8.198   3.766
34393W        W 2767  42.401  16.293  12.021
34394W        W 2768  37.869  41.887   3.630
34395W        W 2769  20.269  18.131   3.698
34396W        W 2770  35.561  43.788  12.964
34397W        W 2771  35.976  38.471  10.993
34398W        W 2772   9.685  22.693   2.876
34399W        W 2773   8.667  44.434  14.489
34400W        W 2774  15.677  34.045  12.978
34401W        W 2775   9.246  30.057  14.375
34402W        W 2776  18.235  35.036  10.894
34403W        W 2777  43.997  19.673   4.745
34404W        W 2778   5.237   1.464   4.765
34405W        W 2779  40.485  33.031  11.068
34406W        W 2780  13.320  22.058  10.578
34407W        W 2781  23.998  31.473  12.849
34408W        W 2782   8.749  27.588  13.488
34409W        W 2783  13.672  42.294  13.445
34410W        W 2784  27.661  41.043   4.231
34411W        W 2785  11.197  31.435   1.276
34412W        W 2786  38.006   3.224   4.670
34413W        W 2787  28.133  26.693  14.924
34414W        W 2788  23.077  10.646   3.863
34415W        W 2789   3.287  10.144   0.252
34416W        W 2790  33.923   3.317  13.515
34417W        W 2791   8.363  26.074   4.729
34418W        W 2792   1.893  12.843  11.418
34419W        W 2793   7.291  20.554  13.926
34420W        W 2794  34.438  36.841  14.378
34421W        W 2795  35.604  30.159   3.226
34422W        W 2796  17.227  25.630   2.881
34423W        W 2797  42.452  44.801  10.428
34424W        W 2798  36.376  26.517   2.810
34425W        W 2799  29.005  18.114  11.432
34426W        W 2800   4.939   2.272  12.060
34427W        W 2801   5.233  13.822   1.931
34428W        W 2802  37.965   0.872   3.171
34429W        W 2803  24.105  20.265   3.377
34430W        W 2804  25.475  22.516  10.901
34431W        W 2805  33.925  42.907  12.539
34432W        W 2806  42.978   6.834  13.794
34433W        W 2807  41.517   2.890  13.015
34434W        W 2808  31.592  42.462  11.994
34435W        W 2809  29.166  29.618  12.577
34436W        W 2810   7.276  18.572   2.784
34437W        W 2811  29.464  38.532   4.189
34438W        W 2812  31.099  34.087  10.564
34439W        W 2813   8.886  14.728   0.460
34440W        W 2814  21.746  20.214  13.341
34441W        W 2815  12.648  16.102  11.074
34442W        W 2816  35.561  29.486  14.841
34443W        W 2817  27.051  33.018  11.915
34444W        W 2818  35.043  16.657  13.894
34445W        W 2819  16.651  30.111   4.338
34446W        W 2820  15.279  20.698   2.351
34447W        W 2821  29.121  25.140  10.502
34448W        W 2822  24.702   2.852  10.511
34449W        W 2823  20.768   4.772  10.893
34450W        W 2824  42.815   2.822  11.101
34451W        W 2825  27.541  35.579   1.283
34452W        W 2826  23.700  12.798   3.686
34453W        W 2827  23.716  35.367  12.058
34454W        W 2828  40.844   5.792  13.537
34455W        W 2829  21.127   8.817  11.048
34456W        W 2830   5.300  40.317   0.328
34457W        W 2831  15.102  25.636   4.762
34458W        W 2832  16.738  13.196   1.902
34459W        W 2833   8.404  27.165   1.394
34460W        W 2834  10.791   2.763  10.586
34461W        W 2835   9.337  44.342  10.515
34462W        W 2836   2.420  27.578  13.490
34463W        W 2837   3.763  37.900   0.260
34464W        W 2838  33.435  11.271   1.795
34465W        W 2839   9.341  34.034  14.992
34466W        W 2840  33.107  16.248  12.567
34467W        W 2841  32.968  35.447   2.711
34468W        W 2842  33.455   5.886   2.315
34469W        W 2843  28.550  15.317   3.192
34470W        W 2844  15.604  34.061   2.185
34471W        W 2845  15.176  30.944   3.657
34472W        W 2846   5.237  17.610   0.291
34473W        W 2847  32.450  28.154   0.304
34474W        W 2848  23.726  11.295  11.487
34475W        W 2849  12.172  39.820   2.343
34476W        W 2850   7.819  10.854   2.850
34477W        W 2851  13.657  22.646   4.692
34478W        W 2852  36.531  30.533  12.508
34479W        W 2853   3.324  21.246   3.316
34480W        W 2854  24.515  36.036   4.125
34481W        W 2855  41.295  41.814   3.300
34482W        W 2856  28.546  34.978   4.736
34483W        W 2857  38.973   4.727  10.076
34484W        W 2858  44.478  17.632   0.864
34485W        W 2859  16.637   9.690   9.633
34486W        W 2860   8.196  34.515   0.785
34487W        W 2861   7.794  12.815   4.656
34488W        W 2862  36.508  43.974   1.375
34489W        W 2863   7.868  41.536   2.357
34490W        W 2864  17.714   9.267   4.738
34491W        W 2865  36.924  43.926  13.031
34492W        W 2866  25.713  15.109  13.929
34493W        W 2867  28.530   7.798  13.833
34494W        W 2868  30.567  32.050   3.193
34495W        W 2869  41.040  38.047  14.446
34496W        W 2870  36.543  34.037  10.467
34497W        W 2871  36.908  15.799   3.692
34498W        W 2872   9.243   9.176  11.459
34499W        W 2873  32.505  30.529   4.291
34500W        W 2874  37.386  14.335   2.671
34501W        W 2875  10.240  18.093   3.191
34502W        W 2876  17.596  25.595   0.474
34503W        W 2877   4.819  10.681  14.855
34504W        W 2878  38.876  38.375  13.343
34505W        W 2879  31.950   9.745   4.229
34506W        W 2880   5.429  28.055   2.752
34507W        W 2881  29.119  28.523   2.357
34508W        W 2882  34.582  39.819   1.888
34509W        W 2883  16.225  40.379   0.314
34510W        W 2884   0.469   1.951  13.061
34511W        W 2885  25.692   1.336   3.860
34512W        W 2886   9.853  20.659  14.505
34513W        W 2887   9.273  34.591  11.016
34514W        W 2888  24.188   3.834  11.591
34515W        W 2889   7.367  40.335   2.837
34516W        W 2890   8.896  18.189  10.113
34517W        W 2891   1.926  43.317   2.876
34518W        W 2892  33.489  42.913   2.679
34519W        W 2893   0.784  38.515   1.797
34520W        W 2894  27.528   7.819   0.823
34521W        W 2895  33.473  30.052   2.663
34522W        W 2896  13.149  17.663   4.793
34523W        W 2897   9.645   3.782   3.380
34524W        W 2898   4.393  35.033   2.771
34525W        W 2899  19.610  39.820   5.128
34526W        W 2900   6.360  39.467   2.720
34527W        W 2901   6.741  34.977   1.734
34528W        W 2902  34.613  14.835   2.341
34529W        W 2903  36.003  44.967  11.908
34530W        W 2904  34.068  17.270  11.972
34531W        W 2905  34.026  10.753  10.947
34532W        W 2906  22.146   2.405  14.492
34533W        W 2907   9.209  31.947  12.842
34534W        W 2908  30.566  22.043  13.903
34535W        W 2909   8.356  11.776  10.626
34536W        W 2910  42.502  20.715  12.084
34537W        W 2911  32.524  19.083  14.325
34538W        W 2912  33.579  22.598   3.798
34539W        W 2913   7.351  12.727   1.835
34540W        W 2914  27.125  23.166   1.294
34541W        W 2915  27.645   4.925   2.235
34542W        W 2916   3.460  38.348   0.867
34543W        W 2917  31.548  26.656   4.332
34544W        W 2918  33.534  29.977   5.282
34545W        W 2919  39.401  21.093  13.469
34546W        W 2920  11.319  20.756  12.520
34547W        W 2921  43.344  11.153  14.323
34548W        W 2922  12.317  18.689  13.340
34549W        W 2923  19.273  42.824   0.463
34550W        W 2924  18.756   7.213  12.015
34551W        W 2925  21.628  14.314   1.325
34552W        W 2926  35.395  26.494  13.515
34553W        W 2927  26.202  39.320   2.842
34554W        W 2928  27.124   6.815   4.335
34555W        W 2929  29.119  26.999  14.813
34556W        W 2930  32.548  26.615  10.905
34557W        W 2931  31.019  37.539   4.327
34558W        W 2932  36.974  24.109  14.003
34559W        W 2933  37.377  25.614   1.304
34560W        W 2934   6.394   6.719  14.847
34561W        W 2935  11.759  16.154   1.362
34562W        W 2936  35.031  13.109   1.262
34563W        W 2937  11.137  15.175   4.154
34564W        W 2938  24.221   8.664   1.279
34565W        W 2939  19.089  16.678  10.462
34566W        W 2940  32.550   3.273   0.832
34567W        W 2941  31.637  10.165   4.173
34568W        W 2942  32.476   2.327   4.622
34569W        W 2943  19.247   4.870   1.421
34570W        W 2944   1.862  16.741   2.822
34571W        W 2945  36.363   5.928   0.883
34572W        W 2946  31.948  17.291   3.769
34573W        W 2947  23.681  18.074   2.315
34574W        W 2948  16.163  43.408   0.307
34575W        W 2949  34.539  38.361   4.718
34576W        W 2950  16.622  33.588   3.719
34577W        W 2951   4.215  40.366   3.803
34578W        W 2952   4.413  39.998   2.199
34579W        W 2953  20.154   6.913  11.391
34580W        W 2954  21.253   8.691   1.238
34581W        W 2955  36.928  43.269  14.836
34582W        W 2956  41.970  17.649  13.496
34583W        W 2957  18.766  21.734  11.926
34584W        W 2958  13.261   3.759   1.845
34585W        W 2959   0.405   6.912  10.981
34586W        W 2960  41.427   0.838  10.424
34587W        W 2961  12.758  25.671   4.264
34588W        W 2962  24.671  29.061  14.969
34589W        W 2963  26.000  36.954   3.629
34590W        W 2964   7.234  37.498   2.664
34591W        W 2965  12.766  10.667   1.912
34592W        W 2966  18.281  42.373  10.576
34593W        W 2967  33.578  32.078  11.596
34594W        W 2968  25.541  33.395  14.313
34595W        W 2969  44.459   7.729  11.532
34596W        W 2970  30.972  33.585  10.550
34597W        W 2971  21.061  14.786   4.213
34598W        W 2972   1.314  19.614   3.812
34599W        W 2973   0.311  30.641   1.912
34600W        W 2974  38.008  41.386   2.413
34601W        W 2975  16.170  41.517   2.728
34602W        W 2976   7.751  32.552  12.922
34603W        W 2977  27.526  26.075   1.355
34604W        W 2978  44.370  31.463  12.826
34605W        W 2979  42.033  32.426  14.892
34606W        W 2980  25.014  18.565  13.012
34607W        W 2981  27.469  17.651   0.770
34608W        W 2982  18.072  30.635  10.573
34609W        W 2983  18.630  10.805   0.476
34610W        W 2984   2.376  13.781  12.422
34611W        W 2985  37.412  22.643   4.830
34612W        W 2986  32.421  41.382  12.372
34613W        W 2987   0.789  36.088   0.383
34614W        W 2988  14.789  32.973  11.374
34615W        W 2989  24.505  36.462   2.322
34616W        W 2990  20.049  27.445  13.342
34617W        W 2991  12.764  37.524   2.381
34618W        W 2992  41.502  19.048  11.537
34619W        W 2993  11.686  34.589  12.486
34620W        W 2994  26.606   5.347   4.740
34621W        W 2995  10.222  26.572   4.248
34622W        W 2996  38.828   6.790   0.442
34623W        W 2997  34.566   5.789   3.199
34624W        W 2998  30.919   3.828   4.145
34625W        W 2999  30.971  40.481  11.580
34626W        W 3000  25.066  41.345  14.455
34627W        W 3001  38.037  42.286  11.909
34628W        W 3002  19.734  42.006  11.976
34629W        W 3003  10.811  17.649  10.940
34630W        W 3004  30.934  29.538   2.703
34631W        W 3005   5.236  42.374   3.815
34632W        W 3006  26.672  37.455   0.481
34633W        W 3007   8.399  42.990  14.802
34634W        W 3008  34.893  21.631  10.625
34635W        W 3009  29.032  29.616   2.297
34636W        W 3010  20.692  36.010   3.813
34637W        W 3011  31.619  40.501  14.021
34638W        W 3012  12.174  39.050  12.957
34639W        W 3013  40.844  33.458   1.835
34640W        W 3014  29.541   8.324  14.790
34641W        W 3015  27.118  18.639  14.842
34642W        W 3016  40.897   9.218  14.008
34643W        W 3017  26.993   0.424   0.435
34644W        W 3018  44.924  17.567  10.601
34645W        W 3019  13.145   3.424  14.975
34646W        W 3020   8.354  31.540  11.463
34647W        W 3021  10.352  22.708  11.071
34648W        W 3022  25.059  27.128   4.746
34649W        W 3023  20.539  21.181   0.272
34650W        W 3024  43.842  42.954   1.934
34651W        W 3025   8.709  11.676   3.664
34652W        W 3026  10.268   9.221   3.733
34653W        W 3027  14.265  38.335  11.963
34654W        W 3028  20.603  40.944   4.230
34655W        W 3029  31.984  21.560   1.850
34656W        W 3030   3.308  20.527   1.716
34657W        W 3031  25.708   4.888  11.386
34658W        W 3032   5.857  10.716   4.227
34659W        W 3033   5.221   6.766  13.976
34660W        W 3034  28.113  42.499  12.074
34661W        W 3035  16.256   2.845   0.755
34662W        W 3036  30.028  25.684  10.993
34663W        W 3037  12.235   6.882   0.455
34664W        W 3038   7.827  17.112  11.042
34665W        W 3039   8.310  36.576   2.685
34666W        W 3040  43.340  34.433   3.735
34667W        W 3041  21.523   6.698   0.340
34668W        W 3042   0.910  29.607   3.711
34669W        W 3043  27.057   8.372  12.030
34670W        W 3044   4.710   3.319  14.471
34671W        W 3045  35.991  10.798  13.434
34672W        W 3046  27.492  30.525  11.089
34673W        W 3047  44.433   1.780  14.030
34674W        W 3048   7.229  32.528   4.651
34675W        W 3049  22.178  12.261  14.938
34676W        W 3050  10.840   5.244  10.482
34677W        W 3051  40.976  36.936   2.379
34678W        W 3052   8.204  42.006  10.893
34679W        W 3053  40.366  10.763   2.385
34680W        W 3054  42.399  39.861  12.387
34681W        W 3055  36.497  34.104   2.864
34682W        W 3056  18.271  44.818  11.495
34683W        W 3057   7.311  31.496  10.928
34684W        W 3058  37.052  16.746  14.902
34685W        W 3059  16.807  36.532   3.771
34686W        W 3060   5.274   9.692   1.779
34687W        W 3061  31.082  30.101  14.510
34688W        W 3062  34.980   9.316   1.923
34689W        W 3063   3.418  25.197  14.399
34690W        W 3064  27.652  32.461   0.296
34691W        W 3065  17.558  39.390  13.354
34692W        W 3066  17.801   0.926   2.252
34693W        W 3067   1.263  29.941  11.581
34694W        W 3068  22.996  15.204  12.402
34695W        W 3069  41.024   6.344  10.512
34696W        W 3070  14.286   4.359  10.967
34697W        W 3071   2.309   9.747  11.546
34698W        W 3072  39.945   2.859   4.127
34699W        W 3073  11.368  16.791  11.913
34700W        W 3074  24.520  14.698   4.238
34701W        W 3075  39.519   0.433   2.848
34702W        W 3076   7.256  13.768   3.212
34703W        W 3077   3.267  37.418   2.867
34704W        W 3078  36.015  39.349  13.924
34705W        W 3079  43.864  37.496  13.903
34706W        W 3080  32.442  33.420   3.383
34707W        W 3081  29.122  44.373   0.264
34708W        W 3082  10.761   3.394   0.962
34709W        W 3083  30.551  41.878  14.980
34710W        W 3084  21.749  33.068   3.342
34711W        W 3085   5.256  23.580   3.851
34712W        W 3086   9.179   0.874   1.297
34713W        W 3087   3.260   5.769   0.775
34714W        W 3088   5.352   8.201   4.829
34715W        W 3089  15.207   7.793   4.757
34716W        W 3090   5.253  39.984  11.532
34717W        W 3091  34.369  43.336   2.767
34718W        W 3092  28.066  10.310  10.941
34719W        W 3093  44.493  20.646   2.719
34720W        W 3094  34.997   9.359   3.792
34721W        W 3095   8.730  34.093   1.373
34722W        W 3096  39.494  32.042   3.374
34723W        W 3097  16.261   5.813  14.312
34724W        W 3098  24.121  14.765  11.394
34725W        W 3099  11.180  19.636   3.673
34726W        W 3100  44.432   9.371   2.245
34727W        W 3101  35.039   0.424  11.445
34728W        W 3102  19.581  28.992  14.373
34729W        W 3103   1.762   4.300   0.842
34730W        W 3104  13.278  21.127   3.366
34731W        W 3105  18.089  40.542  14.500
34732W        W 3106   3.814  35.958   0.394
34733W        W 3107  40.041  23.082   0.397
34734W        W 3108   7.843  28.505  10.148
34735W        W 3109  20.621  34.034   2.254
34736W        W 3110  24.492  25.530   0.273
34737W        W 3111  36.082  26.980   3.793
34738W        W 3112  11.157   1.958   2.376
34739W        W 3113  40.433  38.915  11.118
34740W        W 3114  42.815  28.470  12.913
34741W        W 3115  41.360  22.174  10.614
34742W        W 3116  14.775   9.355   3.718
34743W        W 3117  28.149  16.074   3.182
34744W        W 3118  27.137  27.547   3.189
34745W        W 3119  36.848   8.269  12.824
34746W        W 3120   7.762  20.240  14.292
34747W        W 3121  32.529   5.305   0.898
34748W        W 3122  27.454  30.571  14.774
34749W        W 3123  31.551  13.263  10.970
34750W        W 3124  43.862   0.786   0.319
34751W        W 3125  38.444  37.956  14.876
34752W        W 3126  32.537  24.680  12.498
34753W        W 3127  43.994  14.807  13.420
34754W        W 3128   9.312  38.328   3.216
34755W        W 3129  28.107  40.376   4.345
34756W        W 3130  22.625  30.923  13.913
34757W        W 3131   3.864  18.785  13.429
34758W        W 3132   3.949  30.106  14.906
34759W        W 3133  23.010  38.047  11.939
34760W        W 3134  15.640  15.707  11.063
34761W        W 3135  21.708  33.888  14.958
34762W        W 3136  28.538  16.077   4.832
34763W        W 3137  21.210  14.668  11.048
34764W        W 3138  14.725  17.716   2.756
34765W        W 3139   3.865  31.606  11.892
34766W        W 3140  19.776   9.687   1.929
34767W        W 3141  30.454  36.985   1.766
34768W        W 3142   4.818  24.669   1.706
34769W        W 3143  11.774  27.150   0.245
34770W        W 3144  14.122   1.471   2.261
34771W        W 3145  18.749  40.008  11.496
34772W        W 3146  22.067  44.943   1.902
34773W        W 3147  29.096   5.691   3.803
34774W        W 3148  42.912   2.228  11.472
34775W        W 3149  13.719  32.139  11.943
34776W        W 3150  13.680  22.103  13.528
34777W        W 3151  14.593  10.748   5.694
34778W        W 3152  21.555  29.970   1.799
34779W        W 3153   3.867  11.262   3.777
34780W        W 3154  12.840  27.050  10.965
34781W        W 3155  43.325  41.498   5.249
34782W        W 3156  24.002  37.835  10.640
34783W        W 3157  24.082  13.149   0.946
34784W        W 3158  14.116  19.068  14.780
34785W        W 3159  23.080  43.363   3.647
34786W        W 3160  38.012   6.233   2.854
34787W        W 3161   0.909  44.935  14.022
34788W        W 3162  43.911  15.120   1.877
34789W        W 3163  13.205  11.675   4.830
34790W        W 3164  34.577  23.578  13.924
34791W        W 3165  15.207  12.701  14.975
34792W        W 3166  12.348   6.890  13.872
34793W        W 3167   5.295  31.535  12.399
34794W        W 3168  16.750   6.187  11.580
34795W        W 3169  14.676  19.256  14.961
34796W        W 3170  15.579   9.223   0.878
34797W        W 3171   1.829  19.226  10.431
34798W        W 3172  31.483  33.057  14.923
34799W        W 3173  13.351  19.589   5.321
34800W        W 3174   8.391  29.488  13.811
34801W        W 3175  40.944  37.568   0.258
34802W        W 3176  33.888   6.413  13.512
34803W        W 3177  43.952   0.312  13.940
34804W        W 3178  34.015  11.687   4.681
34805W        W 3179  21.739  24.645  11.598
34806W        W 3180  22.625  30.510  12.456
34807W        W 3181  25.609  37.953   2.252
34808W        W 3182  41.919   8.707  10.015
34809W        W 3183  33.541  12.224  13.346
34810W        W 3184   5.350  25.651   1.847
34811W        W 3185   7.860  31.552  12.405
34812W        W 3186   0.464  31.569   2.859
34813W        W 3187  41.832  22.233   4.749
34814W        W 3188  30.592  38.957   2.333
34815W        W 3189  14.266   9.311   4.749
34816W        W 3190  14.725  35.925  11.373
34817W        W 3191  19.261  12.856  12.925
34818W        W 3192   5.795  17.197   1.887
34819W        W 3193  20.561   2.284   2.893
34820W        W 3194  11.830  30.566   0.729
34821W        W 3195  19.643  15.288   4.276
34822W        W 3196  26.987   7.296   2.792
34823W        W 3197  26.635  26.137  13.950
34824W        W 3198  27.461   1.473  10.406
34825W        W 3199  39.483   6.687   5.178
34826W        W 3200  29.666  25.571   1.292
34827W        W 3201   7.335  40.893  11.391
34828W        W 3202  26.147  44.424   0.849
34829W        W 3203   0.327  27.159  14.990
34830W        W 3204  11.767  35.414   4.624
34831W        W 3205  34.974  36.031   3.217
34832W        W 3206   7.854  26.583   1.811
34833W        W 3207  31.023  42.885  11.048
34834W        W 3208  42.828  36.939   1.899
34835W        W 3209  17.173  25.125  11.977
34836W        W 3210   5.904  16.226  13.973
34837W        W 3211  42.373   4.876   1.356
34838W        W 3212  35.907  43.411   3.701
34839W        W 3213  43.847  10.819  13.936
34840W        W 3214  31.554  42.943   4.213
34841W        W 3215  22.700  28.070   2.356
34842W        W 3216  17.219  31.415   3.819
34843W        W 3217  40.437  36.527  13.050
34844W        W 3218  27.611  13.609  13.050
34845W        W 3219   7.848   9.191  14.801
34846W        W 3220  17.729   6.703  12.994
34847W        W 3221   4.240  19.073  14.017
34848W        W 3222  10.802  18.739   2.840
34849W        W 3223  28.541  19.560  12.496
34850W        W 3224  28.169  19.097  13.995
34851W        W 3225  26.537  17.205   5.100
34852W        W 3226  23.563   2.864   0.403
34853W        W 3227  41.311   3.816   0.955
34854W        W 3228  18.284  28.013  12.017
34855W        W 3229  41.508   3.461   4.772
34856W        W 3230  24.569  36.508   1.713
34857W        W 3231  30.514  10.817  13.453
34858W        W 3232   4.814   7.184  10.089
34859W        W 3233   0.408  18.717   3.732
34860W        W 3234  22.070  20.269   1.867
34861W        W 3235  32.971  43.782   2.318
34862W        W 3236   9.277  18.764  12.868
34863W        W 3237  17.695   1.279  14.832
34864W        W 3238  11.356  26.560   1.762
34865W        W 3239  27.138   4.384   3.645
34866W        W 3240  38.491   7.240   0.871
34867W        W 3241  11.813  21.650   1.430
34868W        W 3242  17.166  40.360  14.367
34869W        W 3243  43.398   1.290   3.737
34870W        W 3244  15.200   0.760  10.601
34871W        W 3245  10.139  15.692   2.320
34872W        W 3246   8.690  14.805   3.708
34873W        W 3247   7.797  16.304  12.006
34874W        W 3248  39.854  10.188   4.763
34875W        W 3249  36.530   7.834  12.350
34876W        W 3250  13.335  35.596   3.664
34877W        W 3251  37.379  29.040  11.941
34878W        W 3252  32.575  43.793   4.219
34879W        W 3253  41.510  43.895  14.395
34880W        W 3254  35.369  40.311   1.340
34881W        W 3255  30.528   3.268   1.771
34882W        W 3256  12.646  14.154   3.288
34883W        W 3257  26.058  31.442  11.611
34884W        W 3258  38.971  32.935   2.260
34885W        W 3259  30.064  41.811   4.329
34886W        W 3260  11.858  36.572   0.912
34887W        W 3261  28.178   0.871   0.450
34888W        W 3262  22.076  37.010   3.331
34889W        W 3263  31.903  44.296  14.793
34890W        W 3264   6.755  37.345   1.271
34891W        W 3265   2.320  21.547  12.361
34892W        W 3266  12.698  13.637  14.817
34893W        W 3267  16.638  37.010  14.438
34894W        W 3268  42.023   1.790  14.917
34895W        W 3269  33.429  25.547  12.075
34896W        W 3270  26.136   3.863  10.591
34897W        W 3271   3.282  28.131   2.186
34898W        W 3272   8.749  13.168  13.875
34899W        W 3273   3.766  31.614  13.923
34900W        W 3274  20.173  42.420   2.319
34901W        W 3275   9.792  24.076   3.820
34902W        W 3276  42.944  23.185   2.200
34903W        W 3277   2.966  34.371   2.701
34904W        W 3278  42.925   0.299  12.951
34905W        W 3279  22.738   7.270  13.969
34906W        W 3280  36.098  27.086   0.409
34907W        W 3281  42.901  28.555   0.864
34908W        W 3282  14.824  14.618  12.389
34909W        W 3283   4.927   8.724   4.190
34910W        W 3284   5.234  18.275   3.834
34911W        W 3285  15.300  20.242   2.812
34912W        W 3286  19.638  43.977   1.383
34913W        W 3287  19.191  26.481   2.289
34914W        W 3288   4.386   3.896  13.801
34915W        W 3289   8.324  41.918   2.186
34916W        W 3290  32.426  33.486  13.884
34917W        W 3291  23.083  31.972   1.880
34918W        W 3292  21.115  10.301  13.914
34919W        W 3293  36.980   1.247  13.308
34920W        W 3294  16.260  41.797   4.625
34921W        W 3295  42.281  41.995   2.771
34922W        W 3296  31.006  20.180  14.338
34923W        W 3297  38.883  28.565  10.622
34924W        W 3298  20.740   4.333  13.814
34925W        W 3299  16.280   3.222  11.452
34926W        W 3300   9.726   0.813  10.963
34927W        W 3301  13.214  10.767  13.955
34928W        W 3302  15.771   8.214   2.273
34929W        W 3303   9.272   6.302  12.460
34930W        W 3304   1.342  24.541  12.438
34931W        W 3305   1.376  20.704  11.076
34932W        W 3306  12.748  15.183  12.030
34933W        W 3307  32.093  41.383   4.626
34934W        W 3308  22.214  41.367   1.849
34935W        W 3309  41.962  16.635  11.399
34936W        W 3310  31.457  14.705   4.811
34937W        W 3311  35.433  41.916  11.124
34938W        W 3312   8.388   1.885  11.922
34939W        W 3313  22.527  32.500   1.750
34940W        W 3314   6.868  13.630  13.891
34941W        W 3315  43.341  40.444   0.382
34942W        W 3316  19.666  30.017   1.757
34943W        W 3317  39.885  28.108  12.938
34944W        W 3318  23.237  26.595   3.203
34945W        W 3319   4.251  31.949   1.882
34946W        W 3320  40.424  31.409  13.446
34947W        W 3321  23.098  38.862   2.312
34948W        W 3322   4.886  43.918  13.057
34949W        W 3323  27.536  28.080   0.788
34950W        W 3324  32.070   1.317   1.733
34951W        W 3325  23.519   1.362   4.641
34952W        W 3326  44.943  22.518  14.388
34953W        W 3327  33.410   7.391   0.392
34954W        W 3328  35.063  37.374  14.995
34955W        W 3329  28.135  18.549   1.410
34956W        W 3330  18.590   3.802  10.525
34957W        W 3331  26.193  16.570   9.551
34958W        W 3332  16.656  20.560  13.499
34959W        W 3333  25.605  21.164   0.789
34960W        W 3334   5.792  11.163  12.902
34961W        W 3335  44.996  33.880  14.912
34962W        W 3336  32.399  23.545  13.821
34963W        W 3337  37.925  12.181   3.675
34964W        W 3338  42.447  10.285  12.848
34965W        W 3339  18.255  35.575   2.314
34966W        W 3340  19.164  26.065   4.696
34967W        W 3341   7.313  14.174  12.482
34968W        W 3342  19.070  11.695  10.616
34969W        W 3343   1.743  25.711  13.501
34970W        W 3344  39.505  26.513  11.082
34971W        W 3345  17.276  17.612   9.926
34972W        W 3346  34.502  32.547   3.273
34973W        W 3347  32.944   4.805  12.492
34974W        W 3348  27.184  37.918   3.183
34975W        W 3349  20.060  43.777  14.337
34976W        W 3350  15.148  20.111  12.563
34977W        W 3351   5.746  44.774   0.785
34978W        W 3352   7.198  37.350   4.638
34979W        W 3353   8.776  33.460  14.421
34980W        W 3354  30.587   9.161   1.828
34981W        W 3355   3.378   2.873   4.351
34982W        W 3356  37.031  12.721   1.843
34983W        W 3357  16.630  18.617   2.269
34984W        W 3358   9.330   6.271  13.871
34985W        W 3359  18.639  34.074  14.906
34986W        W 3360  11.364  31.597  12.949
34987W        W 3361  27.574   0.321  13.026
34988W        W 3362   3.849  30.556   3.697
34989W        W 3363  39.048  44.372   2.815
34990W        W 3364   8.666   2.236  10.925
34991W        W 3365  29.599  33.477   0.882
34992W        W 3366   6.808  27.071   3.386
34993W        W 3367  31.151  40.374  10.522
34994W        W 3368  15.209  24.208   1.404
34995W        W 3369  16.084  33.975  14.496
34996W        W 3370  30.581  28.485  13.908
34997W        W 3371  36.389  34.066   2.411
34998W        W 3372   0.419   0.863   4.137
34999W        W 3373  27.471  39.554   2.383
35000W        W 3374  25.003   1.753   2.665
35001W        W 3375  22.111  33.893   2.799
35002W        W 3376  34.067   6.710  12.450
35003W        W 3377  38.984   6.379   2.211
35004W        W 3378  29.554  15.283  11.443
35005W        W 3379   5.388   5.787   4.218
35006W        W 3380  21.024   1.418   0.269
35007W        W 3381  34.473  13.283   3.750
35008W        W 3382  44.847  36.462  13.491
35009W        W 3383  29.995  22.512   2.869
35010W        W 3384   9.235  35.985   3.745
35011W        W 3385  14.160  34.452  14.363
35012W        W 3386  38.960  14.249  11.554
35013W        W 3387  11.339  17.268   0.876
35014W        W 3388  43.399  29.606   0.784
35015W        W 3389  44.839  42.014   3.218
35016W        W 3390  44.772  41.501  11.002
35017W        W 3391  44.775  11.693   1.777
35018W        W 3392  39.844  39.052  14.997
35019W        W 3393   6.326   5.873   0.906
35020W        W 3394  43.452  17.164   4.275
35021W        W 3395  15.652  11.632  14.812
35022W        W 3396  28.645  16.107  14.462
35023W        W 3397   2.851   6.725  10.890
35024W        W 3398  16.607  26.030  14.295
35025W        W 3399  39.450  32.421  11.946
35026W        W 3400   0.437  25.128  14.279
35027W        W 3401  12.235  25.542  11.410
35028W        W 3402   4.933  13.292  13.892
35029W        W 3403  39.413  41.990   1.272
35030W        W 3404  22.728  21.227   0.743
35031W        W 3405   5.824   7.345   4.329
35032W        W 3406   7.403  24.546   4.337
35033W        W 3407  26.010   3.379   1.866
35034W        W 3408  42.383  18.630  10.892
35035W        W 3409  38.950  28.021   0.926
35036W        W 3410  18.686  26.620  12.864
35037W        W 3411  21.620   4.725   2.235
35038W        W 3412   3.870  22.516   3.211
35039W        W 3413  43.965  10.148   4.136
35040W        W 3414  12.249   5.853   3.658
35041W        W 3415  23.698  13.152   0.753
35042W        W 3416  25.145  27.187  13.049
35043W        W 3417  29.065   2.771   2.236
35044W        W 3418  31.517   4.259  14.507
35045W        W 3419  40.961  28.108   3.190
35046W        W 3420   7.334   1.291   0.916
35047W        W 3421  43.985  44.836   1.367
35048W        W 3422  29.536  17.581   4.276
35049W        W 3423  36.569  44.921   3.711
35050W        W 3424  13.599  34.409   0.908
35051W        W 3425  24.130   1.868  11.436
35052W        W 3426  40.001  31.054  13.921
35053W        W 3427   5.346   0.383   1.771
35054W        W 3428  40.461  36.551   3.277
35055W        W 3429  43.328  23.138   2.362
35056W        W 3430  21.719  32.895   4.337
35057W        W 3431  16.305  35.068  13.849
35058W        W 3432  29.143  40.871   2.750
35059W        W 3433  35.037  27.130   3.644
35060W        W 3434   9.207   4.917  10.888
35061W        W 3435  14.784  18.282  14.935
35062W        W 3436  12.149   3.903   1.340
35063W        W 3437  33.982  21.576   1.283
35064W        W 3438   7.327  22.141   1.323
35065W        W 3439  44.756   6.701  10.960
35066W        W 3440   2.800  20.699  14.388
35067W        W 3441   4.721  36.998  11.557
35068W        W 3442  42.404  27.612   1.376
35069W        W 3443  31.543  32.947   1.933
35070W        W 3444   4.414   7.285   0.445
35071W        W 3445   7.724  35.429   4.285
35072W        W 3446  29.448   6.371   5.270
35073W        W 3447   5.293  21.196  10.447
35074W        W 3448  32.589  16.131  14.406
35075W        W 3449  36.491   4.305   2.279
35076W        W 3450   0.274  38.375   0.899
35077W        W 3451  35.579  32.487   2.343
35078W        W 3452  43.873  29.009   4.291
35079W        W 3453  16.795  10.742   0.865
35080W        W 3454  22.686  32.036   1.792
35081W        W 3455  25.507  35.858   2.750
35082W        W 3456  20.237   4.422  14.467
35083W        W 3457  31.081  17.231  10.410
35084W        W 3458  37.087  20.654   4.603
35085W        W 3459  21.674   2.862   2.208
35086W        W 3460  26.686  18.115  11.002
35087W        W 3461  33.897   2.299  14.399
35088W        W 3462  20.763  23.516   0.877
35089W        W 3463   6.762  13.718  10.970
35090W        W 3464  19.602  21.665  14.769
35091W        W 3465  17.220  43.792   1.800
35092W        W 3466   3.804   8.796  11.539
35093W        W 3467  20.173  19.177   2.258
35094W        W 3468  43.453  12.304  11.123
35095W        W 3469   9.235  15.761   1.743
35096W        W 3470  15.729  41.465   4.672
35097W        W 3471  30.914  25.046   0.832
35098W        W 3472  37.356  38.919  14.786
35099W        W 3473  13.319  21.167   4.126
35100W        W 3474  10.213  17.789   4.142
35101W        W 3475  17.759  42.910  14.451
35102W        W 3476   6.357  25.151   3.843
35103W        W 3477  42.506   4.705   1.786
35104W        W 3478  42.852  40.951   1.805
35105W        W 3479  24.177  17.082  12.355
35106W        W 3480   9.283  30.570  10.907
35107W        W 3481  37.851   1.383   1.819
35108W        W 3482  14.642   4.922   1.871
35109W        W 3483   9.279  25.532  12.041
35110W        W 3484  25.103   4.410   1.299
35111W        W 3485  13.680  11.349  13.411
35112W        W 3486  18.678  24.558  12.967
35113W        W 3487  13.293  29.452   3.715
35114W        W 3488  27.021  40.473  13.854
35115W        W 3489   8.762  22.223  14.978
35116W        W 3490  18.714  12.297  13.937
35117W        W 3491   0.447  28.584   1.416
35118W        W 3492  43.358  11.746  12.837
35119W        W 3493  22.661   0.755  10.906
35120W        W 3494   0.412  33.111  12.043
35121W        W 3495  41.934  40.448  12.962
35122W        W 3496  26.171  12.229   2.262
35123W        W 3497  18.597  12.188   0.250
35124W        W 3498  32.573  27.124  13.356
35125W        W 3499  42.901  35.101   1.737
35126W        W 3500  21.204  42.789   1.354
35127W        W 3501  34.024  44.768  12.085
35128W        W 3502  32.411  14.231   0.475
35129W        W 3503  29.920  41.332   4.736
35130W        W 3504  23.694  24.510  14.388
35131W        W 3505  28.538  17.609  11.055
35132W        W 3506  41.881  34.447   4.168
35133W        W 3507  44.382  32.930  11.995
35134W        W 3508   7.736   6.840  13.949
35135W        W 3509   9.861  27.006  11.956
35136W        W 3510  13.266  30.466   2.407
35137W        W 3511   7.377  22.732  11.401
35138W        W 3512   7.358  31.009  13.031
35139W        W 3513  34.947  35.552   2.798
35140W        W 3514  24.635   3.367  14.868
35141W        W 3515  41.369   6.918  14.837
35142W        W 3516  44.466  41.398   2.272
35143W        W 3517  12.132  20.707   3.258
35144W        W 3518  30.439  25.049  14.909
35145W        W 3519  20.131   1.747   5.303
35146W        W 3520  44.374  27.534   0.771
35147W        W 3521  36.591   0.929   3.705
35148W        W 3522  10.685   6.306  10.989
35149W        W 3523   0.788   0.906  13.308
35150W        W 3524  24.006  44.875  11.994
35151W        W 3525   9.196  33.416   2.802
35152W        W 3526   1.481  25.670   3.245
35153W        W 3527  17.576  19.661   4.734
35154W        W 3528  28.495   2.289  12.493
35155W        W 3529  10.218  19.715  10.506
35156W        W 3530  12.161   2.338   1.411
35157W        W 3531  18.289  23.690   4.710
35158W        W 3532   4.851  22.235   3.174
35159W        W 3533  42.881  29.654  14.319
35160W        W 3534  24.225  36.375  14.864
35161W        W 3535   5.342  38.907  10.960
35162W        W 3536   2.323  14.792  13.395
35163W        W 3537  28.984   5.263   4.328
35164W        W 3538  33.446  17.183   4.308
35165W        W 3539  22.508   9.302  13.421
35166W        W 3540   7.284  22.180   4.276
35167W        W 3541  41.508  36.968  11.953
35168W        W 3542  19.281   8.763  14.289
35169W        W 3543  14.674  42.408  11.018
35170W        W 3544  43.389   3.270  13.355
35171W        W 3545  37.494  41.346   2.417
35172W        W 3546  28.003   1.361  11.393
35173W        W 3547  22.708  23.686  14.920
35174W        W 3548  11.741  36.893   3.665
35175W        W 3549  40.407  39.977  13.421
35176W        W 3550  20.219  24.528  13.415
35177W        W 3551   2.783  42.782  14.403
35178W        W 3552  10.172   2.334   0.481
35179W        W 3553  10.237   9.769   0.736
35180W        W 3554   5.428  24.629   1.881
35181W        W 3555  19.261  41.339  12.058
35182W        W 3556  36.067  23.085   1.412
35183W        W 3557   4.711  23.546   1.811
35184W        W 3558  23.210  19.233   0.863
35185W        W 3559   2.397   6.255   1.838
35186W        W 3560  36.003   7.744  14.950
35187W        W 3561   6.259  20.073  12.021
35188W        W 3562   2.296  31.036   4.220
35189W        W 3563  22.247   1.793   3.261
35190W        W 3564  44.829  11.364   2.708
35191W        W 3565  40.896  32.626  11.469
35192W        W 3566  33.519  40.402  10.891
35193W        W 3567  36.487  18.196   3.327
35194W        W 3568  30.064   4.847   3.156
35195W        W 3569   7.393  29.591   3.357
35196W        W 3570  40.331  11.352  14.802
35197W        W 3571  21.021   8.795  13.880
35198W        W 3572  43.805  21.064   3.848
35199W        W 3573  40.947  43.437  13.318
35200W        W 3574  17.087  16.712   3.278
35201W        W 3575  42.439  44.416  13.869
35202W        W 3576  22.228  26.456  14.400
35203W        W 3577  20.561  10.362   3.663
35204W        W 3578   6.740  20.755   1.333
35205W        W 3579   0.822  16.685  13.024
35206W        W 3580  34.476  12.637   4.806
35207W        W 3581  33.950  40.394  12.030
35208W        W 3582  39.530  16.640   3.178
35209W        W 3583  12.224  15.246  12.989
35210W        W 3584   0.394   3.375  13.398
35211W        W 3585  19.247  25.605  12.828
35212W        W 3586   0.949  36.892  14.502
35213W        W 3587  17.286  19.600  14.306
35214W        W 3588  18.137  22.227   0.468
35215W        W 3589  40.884  37.558  14.436
35216W        W 3590  34.098  17.127  14.800
35217W        W 3591   6.203   0.345  13.857
35218W        W 3592  32.899  38.843   1.768
35219W        W 3593   0.957  20.170  12.986
35220W        W 3594  19.219  39.373  11.585
35221W        W 3595  19.264   6.334   4.609
35222W        W 3596  34.042  25.076  13.446
35223W        W 3597  33.907  26.703  11.031
35224W        W 3598  37.398  15.306  13.905
35225W        W 3599  41.918  11.787   4.684
35226W        W 3600   7.703  27.548   5.683
35227W        W 3601  15.268  38.475  12.533
35228W        W 3602  30.113  10.863   4.618
35229W        W 3603  19.043  44.756  12.878
35230W        W 3604  44.333  31.515   3.733
35231W        W 3605   7.680   8.329  14.939
35232W        W 3606  32.531  27.674  10.575
35233W        W 3607  14.763  27.458   0.786
35234W        W 3608   6.379  28.049   3.861
35235W        W 3609  17.695  10.839  13.923
35236W        W 3610  42.412  39.374   2.869
35237W        W 3611  16.162  31.079   3.851
35238W        W 3612  20.720  30.937   0.362
35239W        W 3613  21.746  39.892   5.616
35240W        W 3614  24.577  31.504   3.368
35241W        W 3615   1.745  21.713  13.834
35242W        W 3616   1.462   7.838   3.700
35243W        W 3617  41.360  38.445  13.338
35244W        W 3618  33.933   1.876   1.446
35245W        W 3619  32.607  20.629  12.466
35246W        W 3620  14.097  32.497   4.225
35247W        W 3621  35.534  10.775   4.194
35248W        W 3622   6.702  28.663  14.375
35249W        W 3623  17.687  31.509  13.915
35250W        W 3624   1.945  13.679  10.581
35251W        W 3625  26.066  32.067  11.591
35252W        W 3626   2.355  42.290   3.239
35253W        W 3627  39.035   9.742  11.479
35254W        W 3628  42.859  41.940  12.913
35255W        W 3629  42.881  19.585  14.382
35256W        W 3630  37.036  21.617   2.694
35257W        W 3631  40.469  37.531  14.424
35258W        W 3632  13.809  39.383   2.211
35259W        W 3633  26.182   1.255  14.460
35260W        W 3634  43.414   9.692  14.866
35261W        W 3635  29.547  19.544  12.376
35262W        W 3636  40.852  17.297  13.034
35263W        W 3637  11.235  41.318  11.593
35264W        W 3638  34.885  14.598   4.599
35265W        W 3639  27.519   6.914  14.286
35266W        W 3640  24.132  38.426  10.137
35267W        W 3641  18.054  28.991   4.190
35268W        W 3642   8.864   1.411   0.736
35269W        W 3643  35.424  33.991   0.780
35270W        W 3644   4.730  36.476  11.401
35271W        W 3645  15.235   9.214  14.768
35272W        W 3646  21.629  30.556   1.800
35273W        W 3647  28.181  21.544  13.325
35274W        W 3648  21.201   0.912  13.024
35275W        W 3649  13.824  39.916  12.566
35276W        W 3650   6.912  15.325   0.268
35277W        W 3651  40.019   5.860  14.314
35278W        W 3652   1.275   6.737   0.774
35279W        W 3653  21.543  34.485   4.831
35280W        W 3654  21.705   8.186   4.684
35281W        W 3655  36.951   8.896  12.406
35282W        W 3656   1.741   1.265  11.127
35283W        W 3657  41.826   1.397  14.417
35284W        W 3658  36.956  17.183  10.961
35285W        W 3659  34.497  15.231   2.218
35286W        W 3660   3.758   7.200   4.642
35287W        W 3661  15.195   6.218   1.905
35288W        W 3662  40.305  33.928  13.904
35289W        W 3663  30.046  33.464   2.288
35290W        W 3664  43.282   4.871  13.823
35291W        W 3665  36.871  25.002   4.301
35292W        W 3666  24.174  10.705  12.379
35293W        W 3667  31.638  14.678   1.264
35294W        W 3668  17.578  34.969  11.088
35295W        W 3669  20.625  12.770   2.831
35296W        W 3670  21.646   4.738   3.267
35297W        W 3671  44.868  37.967  11.588
35298W        W 3672  29.092   9.207   2.280
35299W        W 3673  35.398  18.572   4.299
35300W        W 3674  37.544  27.673  11.119
35301W        W 3675   5.423  44.366   3.868
35302W        W 3676  36.095  11.635  13.441
35303W        W 3677   3.948  39.359  14.446
35304W        W 3678  16.643  10.669   5.735
35305W        W 3679   4.795  30.489  12.553
35306W        W 3680  19.075  31.610  11.042
35307W        W 3681  12.694  41.343  14.992
35308W        W 3682   8.400   0.960   0.785
35309W        W 3683  42.949  17.633   2.179
35310W        W 3684  13.186  20.661  14.000
35311W        W 3685  26.034  41.429  12.441
35312W        W 3686  44.324   9.214   1.313
35313W        W 3687  29.156  38.397   3.359
35314W        W 3688   1.974  17.655   1.835
35315W        W 3689  29.050  36.557   4.661
35316W        W 3690  17.705  19.647  10.594
35317W        W 3691   8.767   2.756  13.910
35318W        W 3692   9.307  10.298   0.394
35319W        W 3693  44.364  43.784  14.872
35320W        W 3694  13.119  42.863   2.419
35321W        W 3695  15.586  39.471   1.296
35322W        W 3696  37.849  19.125   1.392
35323W        W 3697  39.336  27.022  11.908
35324W        W 3698  35.937  12.838   3.347
35325W        W 3699   7.897  14.302  11.507
35326W        W 3700  14.315   5.209  10.932
35327W        W 3701  14.196  43.293   2.882
35328W        W 3702  33.927  26.077   4.677
35329W        W 3703  32.079  36.998  14.764
35330W        W 3704  39.334   4.270   3.742
35331W        W 3705   6.426  20.091  10.933
35332W        W 3706  10.309   2.766  14.424
35333W        W 3707  17.306  40.329   0.955
35334W        W 3708  35.490  17.116   1.707
35335W        W 3709  39.502  34.372   4.321
35336W        W 3710  11.788  28.450   1.374
35337W        W 3711  16.267  39.325  11.414
35338W        W 3712  10.210  44.372   1.432
35339W        W 3713  40.506   2.760  12.457
35340W        W 3714  27.563  35.406  12.018
35341W        W 3715   2.434  36.939   1.743
35342W        W 3716  30.918  26.090  14.442
35343W        W 3717  33.422  28.054   5.322
35344W        W 3718   2.751  31.625  11.536
35345W        W 3719  43.412   6.188  10.424
35346W        W 3720  15.681  37.065  11.004
35347W        W 3721  16.089  22.034  11.526
35348W        W 3722  35.093   3.850  13.336
35349W        W 3723  21.093   0.832   0.824
35350W        W 3724   8.785   4.803  14.490
35351W        W 3725  34.046  21.183   3.832
35352W        W 3726  18.635  36.499   1.884
35353W        W 3727  26.167  17.299   1.244
35354W        W 3728  38.978   0.882  10.921
35355W        W 3729  37.396  36.921  11.929
35356W        W 3730   3.237   4.288  13.025
35357W        W 3731  31.038  38.507   2.709
35358W        W 3732   3.439  21.720  10.944
35359W        W 3733  25.173  33.905  14.853
35360W        W 3734  33.545  36.404   1.248
35361W        W 3735   9.270   2.404  13.983
35362W        W 3736  40.410  26.101   4.636
35363W        W 3737  15.664  35.601  11.495
35364W        W 3738  18.576  24.608  13.456
35365W        W 3739  41.439  42.493   3.738
35366W        W 3740  39.012  24.596  14.886
35367W        W 3741  42.453   8.696  11.062
35368W        W 3742  44.916   4.280   0.323
35369W        W 3743  27.117   5.854  14.870
35370W        W 3744  17.230  37.862   1.294
35371W        W 3745   0.479  24.116  13.345
35372W        W 3746  37.836  16.637  14.437
35373W        W 3747  41.961  33.450  12.057
35374W        W 3748   9.164   0.865   2.822
35375W        W 3749  13.803  12.245   3.634
35376W        W 3750  38.044  18.751   4.236
35377W        W 3751  19.274  31.425  14.891
35378W        W 3752  23.098  37.370   2.662
35379W        W 3753  31.109  15.748  13.972
35380W        W 3754   9.374   2.856  13.362
35381W        W 3755  37.979  20.191   4.317
35382W        W 3756   5.813  35.047  14.980
35383W        W 3757  19.132  42.444   4.188
35384W        W 3758  31.941   6.362   1.855
35385W        W 3759  11.675  33.117   3.381
35386W        W 3760   6.347  11.695   0.782
35387W        W 3761  14.634  22.109  12.391
35388W        W 3762   7.277  30.000   2.361
35389W        W 3763  39.029  39.881  11.042
35390W        W 3764  33.075  25.474   3.332
35391W        W 3765  19.602  41.950   0.429
35392W        W 3766   9.370  44.283  11.960
35393W        W 3767  10.751  24.046   2.859
35394W        W 3768  35.993  25.116  12.015
35395W        W 3769  23.142   1.337   3.739
35396W        W 3770  38.355  41.499  12.015
35397W        W 3771  15.214  32.526  11.527
35398W        W 3772  11.220   4.708   1.264
35399W        W 3773   9.792  33.916   2.692
35400W        W 3774  12.218   8.872   0.271
35401W        W 3775   3.445   4.893  13.867
35402W        W 3776  21.752  15.610  11.096
35403W        W 3777  43.803  18.770  14.928
35404W        W 3778  19.058   8.322   3.335
35405W        W 3779  14.671  19.743   2.241
35406W        W 3780  29.037  21.712   2.320
35407W        W 3781  11.337  42.461   2.231
35408W        W 3782  21.733  29.000   2.309
35409W        W 3783  15.099  30.118  12.508
35410W        W 3784   3.276  35.971  12.047
35411W        W 3785  25.638  12.121   0.382
35412W        W 3786  24.716  31.574   4.223
35413W        W 3787   5.838  43.937   1.935
35414W        W 3788  21.669  18.612   4.212
35415W        W 3789   2.247  15.096   0.349
35416W        W 3790  25.962  33.070  10.904
35417W        W 3791  14.833  11.732  11.946
35418W        W 3792  41.455   6.375   0.853
35419W        W 3793  17.758  21.064   2.861
35420W        W 3794  19.556  28.939   3.336
35421W        W 3795  26.008   7.668  13.047
35422W        W 3796  44.938   4.824   2.342
35423W        W 3797   9.755   4.886  14.995
35424W        W 3798   1.933  27.582  14.464
35425W        W 3799  30.925  17.166  13.313
35426W        W 3800  10.677  27.095  10.475
35427W        W 3801  40.400  43.379   3.846
35428W        W 3802  25.545  16.593  12.533
35429W        W 3803   9.668   2.796  14.501
35430W        W 3804  40.911  18.554   2.233
35431W        W 3805  34.970  36.996   3.744
35432W        W 3806  21.153  14.643   2.899
35433W        W 3807  11.266  26.989  14.987
35434W        W 3808  21.659   5.228   4.310
35435W        W 3809   2.329  11.241   2.252
35436W        W 3810   3.279   8.738   2.275
35437W        W 3811  32.049  15.192  13.819
35438W        W 3812  19.689  11.841  11.517
35439W        W 3813  11.145  26.118  14.380
35440W        W 3814  26.088  20.712  14.893
35441W        W 3815  18.685   7.206  11.034
35442W        W 3816  19.280  43.981  11.910
35443W        W 3817  11.688  41.901   3.264
35444W        W 3818  37.889  43.815  13.523
35445W        W 3819  16.144   6.877   1.327
35446W        W 3820  28.056  37.981   4.183
35447W        W 3821  27.154  33.881   3.646
35448W        W 3822  23.559  26.515  11.558
35449W        W 3823  25.045  19.657  10.451
35450W        W 3824  25.158  19.118  14.918
35451W        W 3825  25.087  32.397  13.037
35452W        W 3826  13.801  31.973   1.902
35453W        W 3827   3.833   7.676   3.304
35454W        W 3828  15.245  38.052   2.781
35455W        W 3829   5.222  14.697  14.017
35456W        W 3830  12.754  27.535  13.476
35457W        W 3831  24.550  41.868  12.915
35458W        W 3832  34.017   1.748  13.834
35459W        W 3833  28.079   3.851  13.964
35460W        W 3834  42.317  17.125  13.026
35461W        W 3835  22.107  27.164  13.006
35462W        W 3836   1.940  24.539   0.271
35463W        W 3837   5.704  34.108  11.382
35464W        W 3838  11.672  29.432   4.812
35465W        W 3839   1.395  18.710  12.478
35466W        W 3840   5.231   4.842  12.514
35467W        W 3841  19.675  24.129   1.764
35468W        W 3842   6.847   0.468  14.906
35469W        W 3843  37.570  10.248  13.041
35470W        W 3844  16.636  38.845  13.350
35471W        W 3845  39.477  23.042   3.763
35472W        W 3846  35.972  43.877  10.587
35473W        W 3847  41.426  29.136   2.302
35474W        W 3848  40.525  36.991   2.839
35475W        W 3849  38.512   3.370  10.590
35476W        W 3850  35.852  22.673  10.487
35477W        W 3851  42.987  19.173  10.935
35478W        W 3852   4.850  43.426   2.749
35479W        W 3853  39.543  37.849  11.042
35480W        W 3854   9.812  18.570  10.504
35481W        W 3855  20.115  39.333  13.381
35482W        W 3856  42.435  26.143   3.207
35483W        W 3857  41.512  11.155  11.009
35484W        W 3858   9.161  43.448  11.028
35485W        W 3859  43.801   2.871  11.020
35486W        W 3860  30.428  26.570  14.830
35487W        W 3861   8.793  16.119  11.876
35488W        W 3862  39.000  23.190  11.081
35489W        W 3863  24.501  17.573   1.224
35490W        W 3864  24.659   8.811  10.988
35491W        W 3865  39.362  30.420   3.737
35492W        W 3866  19.279  21.131  13.402
35493W        W 3867   5.321  40.943  14.340
35494W        W 3868  36.915  42.522   1.779
35495W        W 3869  14.739  24.205   2.720
35496W        W 3870  14.124   2.255  12.434
35497W        W 3871  31.098   3.433   2.265
35498W        W 3872   1.751  28.026   0.385
35499W        W 3873  22.050  13.241   2.415
35500W        W 3874  41.912   0.491   2.876
35501W        W 3875  39.340  13.744  12.880
35502W        W 3876  22.566  12.633   4.641
35503W        W 3877  36.933  25.551   3.248
35504W        W 3878  34.434  27.060  14.865
35505W        W 3879  19.663  13.116  13.028
35506W        W 3880  24.113  32.052  14.900
35507W        W 3881  40.354   8.746  10.590
35508W        W 3882  20.618  21.040   3.207
35509W        W 3883  13.185  16.713  11.484
35510W        W 3884  27.680  32.501   4.614
35511W        W 3885  39.941  31.153  10.592
35512W        W 3886   0.825   8.216  14.977
35513W        W 3887  37.508  40.473   1.334
35514W        W 3888  36.068  27.595   3.243
35515W        W 3889  21.237  44.939   1.415
35516W        W 3890   4.922  13.688  13.915
35517W        W 3891  14.179  24.571   0.416
35518W        W 3892   8.309  25.700  13.468
35519W        W 3893  19.052  29.146   2.289
35520W        W 3894   8.366  17.571  10.072
35521W        W 3895  20.757  11.354  13.312
35522W        W 3896  43.336  21.590  12.918
35523W        W 3897  23.043  36.446  14.948
35524W        W 3898  21.038  21.046   5.131
35525W        W 3899  35.588  42.385   3.362
35526W        W 3900  25.478  21.169  11.456
35527W        W 3901  26.594  32.979   2.404
35528W        W 3902  21.535  41.498  10.933
35529W        W 3903  40.546  41.826  13.539
35530W        W 3904  35.992   3.400   9.960
35531W        W 3905  24.560  29.978   3.252
35532W        W 3906  43.350  24.170  13.980
35533W        W 3907  32.115   7.903   2.282
35534W        W 3908  14.242  10.304   5.270
35535W        W 3909   1.943  37.507  13.353
35536W        W 3910  10.705  30.107  11.954
35537W        W 3911  24.039  44.982   4.317
35538W        W 3912  17.200  21.066   1.858
35539W        W 3913  41.492  12.278   4.323
35540W        W 3914  30.117  34.499   4.778
35541W        W 3915  15.704  39.466   0.793
35542W        W 3916  44.273  36.969  11.516
35543W        W 3917  34.594   2.738  14.303
35544W        W 3918  25.140  14.769   4.749
35545W        W 3919  31.590  38.453   2.356
35546W        W 3920  18.625  43.465  12.902
35547W        W 3921   1.343  42.927  11.477
35548W        W 3922  31.617  27.630   4.662
35549W        W 3923   0.453  35.947   0.922
35550W        W 3924  27.512  42.017   2.769
35551W        W 3925  38.853   1.251  10.909
35552W        W 3926  39.320  44.405  12.421
35553W        W 3927  21.540  43.287  11.055
35554W        W 3928  18.617  19.735   0.790
35555W        W 3929  29.501   0.803   0.774
35556W        W 3930  34.012   6.914   2.831
35557W        W 3931  22.611  17.783   0.401
35558W        W 3932  21.719  25.620  13.313
35559W        W 3933  11.658  41.029  11.573
35560W        W 3934   4.226   2.428  11.051
35561W        W 3935  12.782  34.043  13.830
35562W        W 3936  16.168  43.488   2.710
35563W        W 3937  32.885   9.772   2.670
35564W        W 3938  12.340  20.110   0.401
35565W        W 3939  40.891   5.846   3.220
35566W        W 3940  15.119  37.059   3.649
35567W        W 3941   9.320  21.560   3.302
35568W        W 3942  16.700  40.317   4.183
35569W        W 3943   4.245   5.886   1.349
35570W        W 3944  20.163  39.352  12.053
35571W        W 3945  20.209  41.892   2.255
35572W        W 3946   9.669  44.769   1.759
35573W        W 3947  43.314  31.624  11.466
35574W        W 3948   5.705   8.356  14.959
35575W        W 3949  11.335  14.125   5.242
35576W        W 3950  14.829   0.793   4.354
35577W        W 3951   1.480  38.513   0.474
35578W        W 3952  41.391   3.296  12.517
35579W        W 3953  15.316  38.452  13.490
35580W        W 3954  35.526  32.893  12.919
35581W        W 3955  40.987  13.792   0.803
35582W        W 3956  38.410  37.075   1.696
35583W        W 3957   8.399  42.331  12.992
35584W        W 3958  15.820   1.401  12.897
35585W        W 3959  14.672  42.982   4.161
35586W        W 3960  26.512  22.043   9.998
35587W        W 3961  20.110  29.931  14.387
35588W        W 3962   2.884  20.089   1.404
35589W        W 3963  29.540  11.373  14.396
35590W        W 3964  23.706   4.369   0.375
35591W        W 3965  26.670  31.544   1.368
35592W        W 3966   2.945  44.917   0.847
35593W        W 3967  44.466  27.573  10.044
35594W        W 3968  38.928  18.789   0.303
35595W        W 3969   6.247   2.801  12.527
35596W        W 3970  44.358  35.491   0.378
35597W        W 3971  44.818  19.536  14.790
35598W        W 3972   1.826   5.889  10.901
35599W        W 3973  41.418  31.962   3.218
35600W        W 3974  18.784  21.238  10.024
35601W        W 3975  41.376  17.253  10.545
35602W        W 3976  35.424  26.457  11.974
35603W        W 3977  12.139  39.810   4.702
35604W        W 3978  15.277   8.733   3.357
35605W        W 3979  36.448  38.819   2.888
35606W        W 3980  41.896  40.826  12.923
35607W        W 3981  27.680  15.614   3.242
35608W        W 3982   7.876  37.867  13.038
35609W        W 3983  42.858  13.618  12.030
35610W        W 3984  32.950  17.110   1.230
35611W        W 3985   7.269  13.612   0.428
35612W        W 3986  10.717  25.549   0.421
35613W        W 3987  10.663  25.199  14.437
35614W        W 3988   6.285  21.073  12.478
35615W        W 3989  30.638   4.806   2.230
35616W        W 3990  43.282  12.140   0.775
35617W        W 3991   8.807   7.734  10.524
35618W        W 3992  17.209  18.056  11.538
35619W        W 3993   2.784  18.280   1.740
35620W        W 3994   3.301  10.269  14.394
35621W        W 3995  11.664   9.259   2.722
35622W        W 3996  18.785  12.742   2.411
35623W        W 3997  22.677  39.338  10.927
35624W        W 3998  36.535  28.106   1.363
35625W        W 3999  35.438  20.591   0.334
35626W        W 4000  16.294  13.124   2.291
35627W        W 4001  42.838  26.111  10.485
35628W        W 4002  11.260   8.392  12.036
35629W        W 4003  19.689  24.197  14.992
35630W        W 4004  37.903   3.242  12.499
35631W        W 4005   6.847  38.565   2.255
35632W        W 4006  12.742  16.796  11.447
35633W        W 4007  28.091  22.087  14.978
35634W        W 4008  13.312  14.809  11.021
35635W        W 4009  25.649  27.008   0.907
35636W        W 4010   5.213  29.539  14.457
35637W        W 4011   3.885  41.408  13.416
35638W        W 4012  36.355  40.877  12.517
35639W        W 4013  17.777  28.110   2.663
35640W        W 4014   3.278  10.353  11.039
35641W        W 4015  33.899  21.082  11.540
35642W        W 4016   8.266  14.309  10.407
35643W        W 4017  32.422  30.116   3.778
35644W        W 4018  23.524  27.551   2.675
35645W        W 4019  21.054  24.057   1.882
35646W        W 4020  11.838  33.380   1.801
35647W        W 4021  34.996  11.757   4.740
35648W        W 4022   8.291  43.363  13.426
35649W        W 4023  28.495  12.749  14.995
35650W        W 4024  42.877  39.012   1.281
35651W        W 4025  10.649  44.446   0.786
35652W        W 4026  14.181  26.617   1.888
35653W        W 4027   4.803  21.662  13.000
35654W        W 4028   8.873  11.688  10.620
35655W        W 4029  40.871  24.668   1.387
35656W        W 4030   9.719  14.687   4.344
35657W        W 4031  38.002   9.157  13.951
35658W        W 4032  27.630  33.004  10.563
35659W        W 4033  25.090  30.556   2.761
35660W        W 4034  14.223   0.812  14.900
35661W        W 4035  22.599  19.067   1.699
35662W        W 4036  29.508   4.789  12.938
35663W        W 4037   5.933  10.872   0.320
35664W        W 4038  36.495  21.675  13.977
35665W        W 4039  39.900  22.997   0.853
35666W        W 4040  24.480  38.550   4.335
35667W        W 4041  35.007  25.642  11.918
35668W        W 4042  31.905   4.305   0.832
35669W        W 4043  19.746  31.571   2.692
35670W        W 4044  40.025  16.627  14.392
35671W        W 4045  13.768  34.404   4.690
35672W        W 4046   5.788   3.809  11.920
35673W        W 4047  11.657  44.299  13.019
35674W        W 4048  16.648  14.309   2.771
35675W        W 4049  13.660  29.438   4.700
35676W        W 4050   6.847  20.096  12.027
35677W        W 4051  31.094  18.190  11.872
35678W        W 4052   3.755   9.244  14.292
35679W        W 4053  20.229  31.058  11.006
35680W        W 4054  28.485   4.868   4.736
35681W        W 4055  24.627  43.957  14.307
35682W        W 4056  24.602  12.244   2.878
35683W        W 4057  27.156  34.400  11.423
35684W        W 4058   1.854  35.465   1.249
35685W        W 4059  19.737  36.395  12.465
35686W        W 4060  37.369   5.267   4.756
35687W        W 4061   2.866  14.759  12.937
35688W        W 4062  20.092  30.924   3.817
35689W        W 4063  37.029  41.875   2.224
35690W        W 4064   3.303  41.384   1.877
35691W        W 4065  33.036   0.276  13.915
35692W        W 4066  21.524  35.448   1.445
35693W        W 4067   5.307  17.602   3.684
35694W        W 4068  25.510  36.369  11.970
35695W        W 4069  15.642  20.100   3.313
35696W        W 4070  25.678  13.806   3.292
35697W        W 4071  40.875  17.114  14.004
35698W        W 4072  37.063   2.289  14.418
35699W        W 4073  36.570  21.652  12.434
35700W        W 4074  41.392   0.273   4.321
35701W        W 4075  42.477   9.858  11.926
35702W        W 4076  10.762  13.732  12.561
35703W        W 4077  40.860   4.767  12.823
35704W        W 4078  43.375  15.300  10.480
35705W        W 4079  40.858  10.185   2.732
35706W        W 4080  16.695  27.587  11.095
35707W        W 4081  20.574  18.210   0.442
35708W        W 4082   2.862   0.761   2.272
35709W        W 4083  11.632   1.288  10.148
35710W        W 4084  12.206  24.570   3.287
35711W        W 4085  32.458  22.566   4.326
35712W        W 4086  21.756  39.365   0.340
35713W        W 4087  29.515  22.632   0.309
35714W        W 4088  22.191  24.030   4.642
35715W        W 4089  37.419  13.799  11.007
35716W        W 4090  38.562   1.312  13.022
35717W        W 4091  22.250  39.894   0.855
35718W        W 4092  30.558  34.550   0.829
35719W        W 4093  15.593   5.788  12.482
35720W        W 4094  11.132   1.868   0.803
35721W        W 4095  21.708  14.605  12.478
35722W        W 4096   5.847  40.335  12.574
35723W        W 4097  41.437  44.962  12.893
35724W        W 4098  32.024   9.853   4.666
35725W        W 4099  29.497  37.459   5.284
35726W        W 4100   9.644  32.599  14.508
35727W        W 4101  32.447  38.408   1.358
35728W        W 4102  10.197  18.689  12.371
35729W        W 4103   8.195   7.300  12.054
35730W        W 4104  20.675  32.411   2.326
35731W        W 4105  20.638   1.960   3.669
35732W        W 4106  39.461  42.496   1.440
35733W        W 4107   0.375  25.621  10.925
35734W        W 4108  44.801  28.995  12.545
35735W        W 4109  34.958  23.176  14.870
35736W        W 4110  10.634  29.944   0.270
35737W        W 4111   9.812  31.424  11.120
35738W        W 4112  34.037  38.570  13.833
35739W        W 4113   7.180  14.156   3.176
35740W        W 4114  34.467   2.454   1.420
35741W        W 4115  21.129  32.627   2.410
35742W        W 4116  18.638  15.261  11.077
35743W        W 4117   6.753  43.880   1.726
35744W        W 4118  16.101   3.458   0.275
35745W        W 4119   0.852  25.491  11.388
35746W        W 4120  13.258  27.488  10.635
35747W        W 4121   7.400  27.449  13.045
35748W        W 4122  35.372  26.521   4.137
35749W        W 4123   1.867  39.510   2.286
35750W        W 4124  33.575   4.904   1.801
35751W        W 4125   8.837  36.444  11.542
35752W        W 4126  35.045   2.328  11.410
35753W        W 4127  30.481   7.339  14.982
35754W        W 4128  24.722  18.608  10.435
35755W        W 4129  25.615   2.808  11.921
35756W        W 4130  28.025   8.209  12.437
35757W        W 4131  30.572  34.909  11.948
35758W        W 4132  20.160  18.133   1.220
35759W        W 4133  31.946   4.409   2.882
35760W        W 4134  15.753  16.142   4.743
35761W        W 4135  26.110  28.541   1.440
35762W        W 4136  29.923   7.368  12.851
35763W        W 4137  14.221  27.053   3.849
35764W        W 4138  42.304  42.366  11.048
35765W        W 4139  30.045  43.984  10.602
35766W        W 4140  27.125  34.982   2.320
35767W        W 4141  31.508  13.350  11.456
35768W        W 4142  26.044  34.562   1.444
35769W        W 4143  26.152  13.303   2.835
35770W        W 4144  43.401  43.915   2.407
35771W        W 4145  24.161  33.026   4.740
35772W        W 4146  10.637  16.618   0.939
35773W        W 4147  23.543  38.935  14.378
35774W        W 4148   6.393   4.892  12.058
35775W        W 4149  25.144  20.699   2.798
35776W        W 4150  21.121  40.541  10.456
35777W        W 4151   8.702  34.371   3.263
35778W        W 4152   1.375  17.252  10.459
35779W        W 4153   7.405  27.098  13.427
35780W        W 4154  27.168  18.169  11.903
35781W        W 4155  28.104   1.270   3.799
35782W        W 4156   8.197  18.615   4.785
35783W        W 4157  35.577  41.933  13.978
35784W        W 4158  40.492  21.703   1.311
35785W        W 4159  16.076  25.978  10.568
35786W        W 4160   8.739  21.097  14.955
35787W        W 4161  34.603  40.470   0.966
35788W        W 4162  33.876  30.025   2.794
35789W        W 4163  12.347  19.708  11.056
35790W        W 4164   6.346  23.224   1.725
35791W        W 4165  15.702  43.373   0.254
35792W        W 4166   9.278  10.180  10.628
35793W        W 4167  40.841  41.856  14.782
35794W        W 4168  31.153  20.120   3.213
35795W        W 4169  31.066  16.271  11.991
35796W        W 4170  22.530  42.493   0.408
35797W        W 4171  41.826   4.828  14.786
35798W        W 4172  10.356  24.151  11.066
35799W        W 4173   5.849  25.111  14.766
35800W        W 4174  15.783  21.655   0.478
35801W        W 4175  38.068   5.398   3.754
35802W        W 4176  28.939   9.882   2.276
35803W        W 4177  32.968  30.425  11.464
35804W        W 4178  44.310  23.505   2.209
35805W        W 4179  27.965  32.943   1.896
35806W        W 4180  11.243  37.581   3.294
35807W        W 4181  32.935  20.581  11.084
35808W        W 4182  36.076  25.474  11.587
35809W        W 4183  26.986  32.943   3.215
35810W        W 4184  32.530  11.164  10.636
35811W        W 4185  21.120   7.862  12.923
35812W        W 4186   0.795  16.310   4.325
35813W        W 4187  28.086  31.949   3.766
35814W        W 4188  40.047  31.971   2.408
35815W        W 4189  23.625   4.903  12.888
35816W        W 4190  38.919   0.901   5.305
35817W        W 4191   9.297  14.737  11.585
35818W        W 4192   7.202   5.233  11.457
35819W        W 4193  44.807  42.391  11.420
35820W        W 4194  42.890  42.289  11.012
35821W        W 4195  40.924  29.475   4.158
35822W        W 4196  41.867  39.962  12.970
35823W        W 4197  40.403  33.047  12.554
35824W        W 4198  25.501  24.088  14.760
35825W        W 4199   6.388   7.908   1.853
35826W        W 4200  15.583  23.986   3.761
35827W        W 4201  41.990  27.498  12.985
35828W        W 4202  33.120  26.042   1.801
35829W        W 4203   9.175  21.546   9.654
35830W        W 4204  34.103  10.373  14.972
35831W        W 4205  20.100  11.712   5.194
35832W        W 4206  33.387  35.062   2.896
35833W        W 4207  31.462  27.990  13.381
35834W        W 4208  39.363  38.891  10.036
35835W        W 4209   0.446  27.671  13.816
35836W        W 4210  23.652  35.051  13.464
35837W        W 4211  40.360  42.475   1.268
35838W        W 4212  41.978  16.181  14.433
35839W        W 4213  22.998   7.295  12.542
35840W        W 4214  26.684  22.661  11.590
35841W        W 4215  34.539  15.619   3.769
35842W        W 4216   8.384  37.884  14.391
35843W        W 4217   6.892   5.768   2.320
35844W        W 4218  35.523  29.442  11.880
35845W        W 4219  11.834  42.425  12.931
35846W        W 4220  12.194  10.273   1.703
35847W        W 4221  41.866   4.397  12.431
35848W        W 4222  16.304  42.807  12.900
35849W        W 4223  29.923   5.252   0.259
35850W        W 4224  24.229  32.614  14.301
35851W        W 4225  36.369   5.365   0.380
35852W        W 4226  36.864  12.208  11.502
35853W        W 4227  43.005  22.604   4.342
35854W        W 4228  23.691  44.312   1.367
35855W        W 4229  38.367  23.078   0.804
35856W        W 4230  29.638  15.594  10.610
35857W        W 4231   8.168  10.650   0.884
35858W        W 4232  32.932  11.316   0.763
35859W        W 4233  20.531  39.043   3.192
35860W        W 4234  14.238   9.247  10.975
35861W        W 4235  24.507   9.352  12.358
35862W        W 4236  42.433  12.851   2.191
35863W        W 4237  26.026  20.124  13.008
35864W        W 4238  40.422   6.208  14.800
35865W        W 4239  19.115  18.647  14.275
35866W        W 4240  37.878  17.228  12.559
35867W        W 4241  31.989  28.122  12.026
35868W        W 4242   6.385  40.332   2.852
35869W        W 4243  40.320  40.458  10.153
35870W        W 4244  10.295  28.087   2.711
35871W        W 4245  40.349   6.266   4.600
35872W        W 4246  25.064  13.708  13.347
35873W        W 4247  31.091   4.934   0.939
35874W        W 4248  28.077  22.705   1.445
35875W        W 4249  14.271  33.449  14.358
35876W        W 4250   2.404   8.882   2.803
35877W        W 4251   3.358   0.875   1.409
35878W        W 4252  34.060  11.164  11.411
35879W        W 4253  43.003  39.543  12.974
35880W        W 4254  19.205  29.062   4.272
35881W        W 4255  42.912  19.535   3.272
35882W        W 4256   7.751  11.127  10.591
35883W        W 4257  27.686  43.401   1.811
35884W        W 4258  44.919   1.388  10.570
35885W        W 4259   6.708   2.797   0.768
35886W        W 4260   8.770  21.685  11.031
35887W        W 4261  11.643  15.277  14.441
35888W        W 4262   3.753  38.832  13.041
35889W        W 4263  11.140   0.274  12.981
35890W        W 4264  16.688  22.010   0.944
35891W        W 4265   8.690  34.869   4.176
35892W        W 4266   4.288  29.466   3.360
35893W        W 4267  28.963  21.157   3.839
35894W        W 4268  31.948   5.898  10.915
35895W        W 4269  15.153   0.466  13.937
35896W        W 4270   2.829  17.230   1.384
35897W        W 4271  21.184  38.427  12.853
35898W        W 4272  28.530   5.929  11.385
35899W        W 4273  25.667  21.021   1.354
35900W        W 4274  44.885  44.418   4.776
35901W        W 4275  10.810  11.157   2.218
35902W        W 4276  20.567   3.889   1.440
35903W        W 4277  37.040   6.212   4.282
35904W        W 4278   5.846  33.942   4.251
35905W        W 4279  41.031  34.934   4.348
35906W        W 4280   7.827  37.065  14.874
35907W        W 4281  35.920  28.482  13.930
35908W        W 4282  24.584  17.749   0.451
35909W        W 4283  11.177  30.091   4.701
35910W        W 4284   2.320  22.209   1.706
35911W        W 4285  12.740  23.986   0.747
35912W        W 4286   8.898  29.089   3.324
35913W        W 4287   6.274  33.102  13.975
35914W        W 4288  17.253  10.333  12.457
35915W        W 4289  36.556   0.476  12.579
35916W        W 4290  41.329  40.991   3.183
35917W        W 4291  44.315  25.700  10.455
35918W        W 4292  32.108  29.985   1.222
35919W        W 4293  12.353  15.710   3.645
35920W        W 4294   7.226  19.731   2.727
35921W        W 4295  13.334  44.830   3.235
35922W        W 4296   6.689   0.866   4.735
35923W        W 4297  39.834  36.088   3.646
35924W        W 4298  22.040  36.360  12.554
35925W        W 4299  18.588   6.684  12.429
35926W        W 4300  31.953  31.626  13.029
35927W        W 4301  28.513  27.480  12.538
35928W        W 4302  17.616  25.622   4.674
35929W        W 4303   5.347  14.662   1.816
35930W        W 4304  10.202  26.507  13.389
35931W        W 4305  43.887   2.776   0.876
35932W        W 4306  10.795  38.924   2.846
35933W        W 4307  11.816  27.600  12.524
35934W        W 4308   1.940  30.647  10.614
35935W        W 4309  29.664  25.485   1.876
35936W        W 4310   9.844  11.335  14.514
35937W        W 4311  31.592  25.122   2.211
35938W        W 4312   4.433  34.977   4.631
35939W        W 4313  36.446  22.563   0.929
35940W        W 4314  42.520  42.995   4.824
35941W        W 4315  43.845   5.298  11.066
35942W        W 4316  28.501  32.464  11.409
35943W        W 4317   4.741   7.756   5.176
35944W        W 4318  10.228   0.906  11.995
35945W        W 4319   0.806  13.339   3.713
35946W        W 4320  13.247  43.839   4.790
35947W        W 4321  18.605  15.631  11.082
35948W        W 4322  20.575  34.496  12.478
35949W        W 4323   7.347   3.451  14.864
35950W        W 4324   0.762  32.083   5.133
35951W        W 4325  11.259  24.977   4.734
35952W        W 4326  22.700  12.677  14.492
35953W        W 4327  40.855  28.472  11.499
35954W        W 4328   2.730  14.328   1.840
35955W        W 4329   5.406  12.268  13.417
35956W        W 4330  18.789  39.818   4.793
35957W        W 4331  41.831  36.567   0.828
35958W        W 4332  38.057  43.433   3.672
35959W        W 4333   5.290   6.357  14.348
35960W        W 4334  12.244   5.197  14.446
35961W        W 4335   8.727   2.438  13.039
35962W        W 4336  23.023  22.606  12.339
35963W        W 4337  40.984   8.308  14.016
35964W        W 4338  40.015  22.222  12.440
35965W        W 4339  12.218  25.501   3.801
35966W        W 4340   8.293  22.565   1.898
35967W        W 4341  29.429  25.195   5.124
35968W        W 4342  24.663  20.582   2.283
35969W        W 4343  39.539   4.281  10.967
35970W        W 4344  24.221   1.830  14.346
35971W        W 4345  30.937   3.830  13.877
35972W        W 4346  21.104  41.413   4.305
35973W        W 4347   9.743  10.335  13.428
35974W        W 4348  16.765  39.055   2.232
35975W        W 4349  11.763  34.114   0.904
35976W        W 4350  41.495  36.985  13.054
35977W        W 4351   1.768  11.328  10.610
35978W        W 4352   7.695  36.989   3.339
35979W        W 4353   2.878   6.222   2.854
35980W        W 4354   0.900  37.447   2.898
35981W        W 4355  23.651   7.810  14.363
35982W        W 4356  41.021  18.085   4.300
35983W        W 4357  26.534  33.017  14.940
35984W        W 4358  40.373   8.704  13.456
35985W        W 4359  35.419  31.148  13.470
35986W        W 4360  16.211  18.725  10.535
35987W        W 4361   2.445  30.532   9.939
35988W        W 4362  31.053  12.248  14.961
35989W        W 4363  34.474   0.964   0.331
35990W        W 4364  39.964  11.374  13.916
35991W        W 4365  42.845   9.291  13.488
35992W        W 4366  29.086  39.988  11.554
35993W        W 4367  13.230  33.038   4.329
35994W        W 4368  23.576   9.296   2.773
35995W        W 4369   0.291   0.452  13.957
35996W        W 4370  14.153  12.626   0.841
35997W        W 4371  15.244  14.716   2.324
35998W        W 4372  35.553  26.960   4.313
35999W        W 4373  15.269  34.379  12.382
36000W        W 4374  37.501   2.297  12.542
36001W        W 4375  39.379  31.517   3.809
36002W        W 4376  26.491  10.723  13.866
36003W        W 4377  25.707   3.838  13.833
36004W        W 4378   8.336   9.371  13.502
36005W        W 4379  31.150  37.568   3.725
36006W        W 4380  21.185  31.511  12.489
36007W        W 4381  18.787   0.388  11.087
36008W        W 4382  44.795  14.147   4.347
36009W        W 4383  42.850  28.949   0.262
36010W        W 4384   3.764   9.785   1.915
36011W        W 4385  23.605  36.869  12.981
36012W        W 4386   5.375  32.423  10.443
36013W        W 4387  23.639  21.217  14.496
36014W        W 4388  16.703  28.565  11.873
36015W        W 4389  19.779  34.087  11.539
36016W        W 4390  11.706  24.043   1.304
36017W        W 4391  41.364  40.508   1.287
36018W        W 4392  22.019  27.650   0.364
36019W        W 4393  28.449  44.331   4.188
36020W        W 4394  14.604  25.002  13.022
36021W        W 4395  22.738  35.933  12.824
36022W        W 4396  35.085  44.261   3.166
36023W        W 4397  28.575  28.092   4.307
36024W        W 4398   3.294   5.323   3.380
36025W        W 4399  41.942   7.908   2.405
36026W        W 4400  35.963  25.139  13.871
36027W        W 4401  42.903  20.214  14.994
36028W        W 4402  25.179  28.464   3.277
36029W        W 4403  29.644  22.196   2.720
36030W        W 4404   9.783  28.448  13.932
36031W        W 4405  34.587  27.966  10.540
36032W        W 4406  38.055   3.956   3.268
36033W        W 4407  13.307  11.738   5.147
36034W        W 4408  43.344  40.992  11.876
36035W        W 4409  41.431  42.984  14.500
36036W        W 4410   5.711  22.093  12.015
36037W        W 4411  36.444  35.368   3.787
36038W        W 4412  33.618  21.117  11.605
36039W        W 4413  11.355  29.174   3.322
36040W        W 4414   6.871  38.332  10.587
36041W        W 4415  18.564  17.290   4.192
36042W        W 4416  16.619  16.182  13.956
36043W        W 4417   3.811  44.478  11.096
36044W        W 4418   7.196  22.620  12.880
36045W        W 4419   3.415  11.669  12.921
36046W        W 4420   6.742  24.673   0.963
36047W        W 4421  18.139  37.545  10.474
36048W        W 4422  23.727  16.284   0.346
36049W        W 4423   5.872   3.858   0.951
36050W        W 4424  39.400  29.948   2.187
36051W        W 4425  42.815   1.292  12.876
36052W        W 4426  29.010  30.559   1.887
36053W        W 4427   9.221  35.080  13.350
36054W        W 4428  20.148  16.568  12.375
36055W        W 4429  12.642  35.519  12.005
36056W        W 4430  26.119   7.682  13.508
36057W        W 4431  21.720   2.433  12.527
36058W        W 4432   8.402   5.286  14.814
36059W        W 4433   2.387  26.633   2.320
36060W        W 4434  11.757  17.704   4.184
36061W        W 4435  18.285  14.588  11.909
36062W        W 4436  28.512  18.776  13.318
36063W        W 4437  34.950  31.483   3.701
36064W        W 4438   5.224  19.778   4.160
36065W        W 4439  42.972   3.253   2.809
36066W        W 4440  30.923  29.139   2.226
36067W        W 4441  31.595  19.570  12.859
36068W        W 4442  31.909   4.248   3.846
36069W        W 4443  23.040  13.192  11.585
36070W        W 4444   2.823  23.122  12.064
36071W        W 4445   8.370  12.351  14.421
36072W        W 4446  12.744  42.876  12.087
36073W        W 4447   0.875  29.573   4.615
36074W        W 4448  27.472  33.471  14.976
36075W        W 4449  36.952  19.152   4.341
36076W        W 4450  34.119  35.093  13.341
36077W        W 4451   5.313  25.989   2.222
36078W        W 4452   9.319  20.638  14.828
36079W        W 4453   6.711  27.178   3.709
36080W        W 4454   6.902  43.407   0.879
36081W        W 4455  38.462  15.274  14.771
36082W        W 4456  35.987  36.418   0.846
36083W        W 4457  15.295  24.153  12.011
36084W        W 4458  16.296  26.128   1.341
36085W        W 4459  44.796  41.923   0.266
36086W        W 4460  44.260  33.057  11.611
36087W        W 4461  22.069   0.484   3.377
36088W        W 4462  37.435  36.469  10.405
36089W        W 4463  13.143  12.276  14.500
36090W        W 4464  14.315  40.328   2.857
36091W        W 4465  27.543   2.374   3.831
36092W        W 4466  29.511  41.297  14.817
36093W        W 4467  28.675   9.228   4.781
36094W        W 4468  16.215   5.725  14.859
36095W        W 4469  11.673   4.943   1.886
36096W        W 4470  17.077   7.211   0.292
36097W        W 4471  14.799   2.836  14.451
36098W        W 4472  15.820  19.239   2.882
36099W        W 4473  18.285  36.070   3.682
36100W        W 4474  23.682  16.762   1.866
36101W        W 4475  18.181  19.595  12.565
36102W        W 4476  38.494   2.790  11.907
36103W        W 4477  38.898  26.972   1.383
36104W        W 4478  15.708  26.120   4.638
36105W        W 4479  10.656  20.654  13.368
36106W        W 4480  19.666  28.542  11.417
36107W        W 4481  15.767  23.015  10.575
36108W        W 4482  11.644  34.571  10.052
36109W        W 4483  21.604   5.759   2.743
36110W        W 4484  10.761  24.685  10.500
36111W        W 4485  43.347  34.393   3.164
36112W        W 4486  16.588   2.797   2.734
36113W        W 4487  33.478  41.301  12.521
36114W        W 4488  20.138   0.953  11.458
36115W        W 4489  12.779   1.246   3.808
36116W        W 4490   7.341  10.270  13.485
36117W        W 4491  22.682  29.943   2.331
36118W        W 4492   5.335  43.288  12.453
36119W        W 4493  38.962  13.617  10.555
36120W        W 4494   0.918  29.585  12.339
36121W        W 4495  41.827  25.668  12.937
36122W        W 4496  22.236   7.776   2.704
36123W        W 4497  10.282  34.102  13.949
36124W        W 4498   8.837  10.353   1.867
36125W        W 4499  29.118  19.233   3.175
36126W        W 4500  17.681  43.998   4.687
36127W        W 4501  43.830  30.498  10.911
36128W        W 4502  23.202  39.456   2.812
36129W        W 4503  22.132  36.876   0.375
36130W        W 4504  27.012  24.995  13.377
36131W        W 4505  42.879   3.830  12.498
36132W        W 4506  15.587  39.959   4.296
36133W        W 4507  17.093  18.597  10.617
36134W        W 4508  38.381   1.931   2.271
36135W        W 4509  34.915  30.606  11.117
36136W        W 4510  10.645   0.799  12.554
36137W        W 4511  31.493  28.102   4.612
36138W        W 4512   2.835  21.111   0.386
36139W        W 4513  28.492  31.069   4.622
36140W        W 4514  38.889  33.523   1.872
36141W        W 4515  34.084  39.459   3.783
36142W        W 4516  29.517  17.729   0.764
36143W        W 4517  34.370  17.167   2.220
36144W        W 4518   8.280  18.147   2.693
36145W        W 4519  19.241  12.611   3.677
36146W        W 4520  32.514  37.065  13.991
36147W        W 4521   2.266  31.591  12.970
36148W        W 4522  16.682  29.097  11.950
36149W        W 4523  23.180  43.330   4.141
36150W        W 4524   6.719  12.830  11.065
36151W        W 4525  17.115  41.408   0.773
36152W        W 4526  17.689  26.136   3.366
36153W        W 4527  13.701  28.977  13.432
36154W        W 4528  41.372  41.861  10.463
36155W        W 4529  30.001   8.865   1.289
36156W        W 4530   0.907   4.808   2.887
36157W        W 4531  17.091  24.607   4.120
36158W        W 4532  20.233  15.712   9.949
36159W        W 4533  15.664  29.622  12.505
36160W        W 4534  42.991  30.635  13.991
36161W        W 4535   8.708  19.132  14.967
36162W        W 4536  17.652  17.266  13.358
36163W        W 4537   2.738  24.011  14.945
36164W        W 4538  30.049  42.023  14.303
36165W        W 4539  42.901  33.457   2.418
36166W        W 4540  31.048   9.193  11.458
36167W        W 4541  26.616  11.302  12.991
36168W        W 4542  22.105  42.326  10.903
36169W        W 4543  20.090  23.175   4.151
36170W        W 4544   2.330   7.912   2.730
36171W        W 4545   5.213  39.021  12.433
36172W        W 4546  14.633  32.899   4.148
36173W        W 4547  12.293  41.410   4.781
36174W        W 4548  31.431  40.029   0.909
36175W        W 4549  10.183  36.019   0.399
36176W        W 4550  20.215  28.950   1.826
36177W        W 4551  44.893  25.215   3.735
36178W        W 4552   1.959  31.613   4.135
36179W        W 4553  31.562  32.924  11.422
36180W        W 4554  38.369  32.119  12.977
36181W        W 4555  34.607   1.799   4.182
36182W        W 4556  15.329  28.016   1.402
36183W        W 4557  17.302  44.456  13.031
36184W        W 4558   3.264   1.397   4.665
36185W        W 4559  41.932  35.998  10.434
36186W        W 4560  39.478  17.152  14.818
36187W        W 4561   8.332   4.935  13.890
36188W        W 4562   8.681  38.409  14.801
36189W        W 4563   6.189  17.746   2.405
36190W        W 4564   0.853  27.483  13.027
36191W        W 4565  43.902   9.371   4.196
36192W        W 4566  13.667  33.008   1.852
36193W        W 4567  42.518  30.520  10.611
36194W        W 4568  10.169  21.256  13.038
36195W        W 4569  30.509   7.242  12.489
36196W        W 4570   7.386  31.608   5.214
36197W        W 4571   0.277   6.305  14.772
36198W        W 4572  20.222  11.321  13.533
36199W        W 4573   2.955  16.598   0.363
36200W        W 4574   2.284  43.429  11.512
36201W        W 4575  30.156  18.660   3.215
36202W        W 4576  15.212  38.828   4.118
36203W        W 4577  33.622  12.842  13.486
36204W        W 4578  39.975  12.190   0.450
36205W        W 4579   6.319  33.547  11.432
36206W        W 4580  18.235  11.369   4.329
36207W        W 4581  24.658  38.995   1.919
36208W        W 4582  18.647  42.432   3.715
36209W        W 4583  16.571   3.880   1.238
36210W        W 4584  28.678  13.677  12.428
36211W        W 4585  35.069  33.891   2.788
36212W        W 4586  26.021  20.258   1.717
36213W        W 4587  24.502  43.507   4.285
36214W        W 4588   6.805  10.716   0.944
36215W        W 4589  30.455  30.495  10.562
36216W        W 4590   9.202  21.706  14.515
36217W        W 4591  18.678  27.652  14.990
36218W        W 4592  10.659  30.939   4.726
36219W        W 4593  19.585  30.934   2.781
36220W        W 4594   5.218  14.662  10.942
36221W        W 4595  43.848  20.545   0.874
36222W        W 4596  40.334  39.315  12.889
36223W        W 4597   7.289   5.393   0.469
36224W        W 4598  24.221  23.730   2.734
36225W        W 4599  42.855   9.230  12.891
36226W        W 4600  35.563  34.562  14.418
36227W        W 4601   0.863  37.347   0.775
36228W        W 4602  29.955  38.458  11.557
36229W        W 4603  20.652  35.094  13.371
36230W        W 4604   6.850  29.948   2.661
36231W        W 4605  17.200  41.308  10.920
36232W        W 4606  42.961   8.389   1.383
36233W        W 4607  27.532  21.174   4.744
36234W        W 4608  41.356  37.949  13.009
36235W        W 4609  16.290  10.372   5.290
36236W        W 4610  32.583  43.400  10.911
36237W        W 4611  36.983  41.489   4.712
36238W        W 4612   3.403   8.337  12.865
36239W        W 4613   6.269   0.882  12.002
36240W        W 4614   2.423  15.681  11.009
36241W        W 4615  30.560  13.788   2.828
36242W        W 4616   8.841  42.026   3.291
36243W        W 4617  15.724  20.080  14.485
36244W        W 4618  44.399  41.523   0.308
36245W        W 4619  33.035  20.716   3.277
36246W        W 4620  20.717  10.799   4.194
36247W        W 4621  38.419  35.856  13.467
36248W        W 4622  38.533  35.459  12.370
36249W        W 4623  38.330  20.625  12.095
36250W        W 4624   6.188  30.556  11.487
36251W        W 4625  16.808  34.521  10.437
36252W        W 4626  18.680  13.816   1.289
36253W        W 4627   1.756  38.486  11.116
36254W        W 4628   2.306  15.692   5.294
36255W        W 4629  38.906  34.551  13.791
36256W        W 4630  11.788  34.934  11.028
36257W        W 4631   9.702  39.493  11.548
36258W        W 4632   7.177  16.294   0.466
36259W        W 4633  21.061  42.451  14.941
36260W        W 4634   6.887  33.607   1.746
36261W        W 4635  33.088   4.374  11.513
36262W        W 4636   9.782   6.214  11.602
36263W        W 4637  44.260  44.319  11.448
36264W        W 4638  38.563  23.992  11.112
36265W        W 4639  38.821  16.110  12.972
36266W        W 4640  10.649   2.348   3.798
36267W        W 4641   2.395   9.177   1.727
36268W        W 4642  43.347  26.042  13.524
36269W        W 4643  14.665  25.023   5.083
36270W        W 4644  27.690  23.618   2.234
36271W        W 4645  16.687  35.009   1.753
36272W        W 4646   0.906  11.162   0.473
36273W        W 4647   9.190  41.041  11.892
36274W        W 4648  10.359  28.118  14.850
36275W        W 4649  12.831   2.350   2.391
36276W        W 4650   9.267  24.068  11.939
36277W        W 4651   2.341  36.418  12.556
36278W        W 4652   6.761  28.070   1.862
36279W        W 4653  43.800  23.685  13.437
36280W        W 4654  33.595  25.070  13.932
36281W        W 4655  33.552  39.453   4.778
36282W        W 4656  35.985  31.099  11.443
36283W        W 4657  13.701  35.370   2.873
36284W        W 4658  34.929  17.281  10.601
36285W        W 4659   3.766  29.621  11.519
36286W        W 4660  43.362  16.648  12.095
36287W        W 4661  39.000   5.354  10.428
36288W        W 4662  13.782   2.285   2.769
36289W        W 4663  23.160  27.010  12.829
36290W        W 4664  20.091  16.742   1.377
36291W        W 4665  24.543  27.511  12.973
36292W        W 4666  44.482   0.361   1.451
36293W        W 4667  11.264   4.855   2.714
36294W        W 4668   7.840  18.076  14.914
36295W        W 4669  28.505  27.501  14.800
36296W        W 4670  34.888   3.350  14.995
36297W        W 4671  37.564  16.571   4.777
36298W        W 4672  22.601  19.099  12.952
36299W        W 4673  19.275   2.467   3.663
36300W        W 4674  40.395  23.087  11.449
36301W        W 4675  30.115  31.965  13.972
36302W        W 4676   1.452  12.689  12.547
36303W        W 4677   4.923  13.329  14.447
36304W        W 4678  38.398   6.374   5.198
36305W        W 4679  26.602   8.895   4.730
36306W        W 4680  33.016  23.701  12.835
36307W        W 4681  16.718  31.515   2.315
36308W        W 4682  35.068  16.167   4.649
36309W        W 4683   8.776  30.133   4.147
36310W        W 4684  10.724  16.260  11.918
36311W        W 4685  35.030   5.390  11.036
36312W        W 4686  14.805  42.969   3.645
36313W        W 4687  23.088  44.357  10.149
36314W        W 4688  40.809  16.288  13.849
36315W        W 4689  37.506  16.198  12.091
36316W        W 4690  32.110  23.089   1.875
36317W        W 4691  29.567  14.621   3.661
36318W        W 4692  22.514   9.319  12.343
36319W        W 4693  38.542  19.734   0.815
36320W        W 4694  23.581  20.234  14.791
36321W        W 4695  18.247  27.625   0.309
36322W        W 4696  29.496  32.484   4.142
36323W        W 4697  19.233  38.037   2.687
36324W        W 4698  34.962  10.356   3.821
36325W        W 4699  41.334  20.233  11.048
36326W        W 4700   0.359  23.107   3.647
36327W        W 4701  39.042  29.518  13.003
36328W        W 4702  18.648  28.038  12.408
36329W        W 4703  22.084   8.803  13.968
36330W        W 4704  12.334  25.597  13.449
36331W        W 4705  17.214  25.048   1.337
36332W        W 4706   9.367   9.809  13.875
36333W        W 4707  35.453  38.949   3.212
36334W        W 4708   2.884   3.891   1.270
36335W        W 4709  15.809  38.550  11.027
36336W        W 4710   3.433  25.714  11.078
36337W        W 4711  15.122  24.655   2.860
36338W        W 4712  28.483  22.580   0.966
36339W        W 4713  36.876  36.870   1.916
36340W        W 4714  18.649  27.978   4.646
36341W        W 4715   0.400  30.556  13.049
36342W        W 4716  23.684  42.314  11.456
36343W        W 4717  39.314  27.619  12.847
36344W        W 4718  40.529   0.894   4.808
36345W        W 4719   1.443  16.108   2.224
36346W        W 4720  39.374  43.870  11.058
36347W        W 4721  21.151  23.580   0.446
36348W        W 4722  21.708  35.402  13.405
36349W        W 4723  16.812   6.228  13.998
36350W        W 4724  40.526  42.371   3.706
36351W        W 4725   3.294   8.672   3.726
36352W        W 4726   9.190  14.747  13.846
36353W        W 4727  11.711  29.427  11.896
36354W        W 4728   5.333   7.305  14.473
36355W        W 4729  22.106  23.522  13.449
36356W        W 4730  32.961  32.988  14.350
36357W        W 4731  44.826  42.333  14.370
36358W        W 4732  10.171  30.449  10.460
36359W        W 4733  28.520  13.272  14.838
36360W        W 4734  22.223  35.091   4.718
36361W        W 4735  38.930   7.910  12.091
36362W        W 4736  22.617  19.259   2.209
36363W        W 4737  32.935   5.712   2.386
36364W        W 4738  25.039  11.294  13.481
36365W        W 4739   0.859  19.539   3.181
36366W        W 4740  17.616  30.654   3.714
36367W        W 4741  28.990  17.731   0.898
36368W        W 4742  15.122  37.341   1.316
36369W        W 4743   6.697  29.591  13.517
36370W        W 4744  39.480  16.772   2.251
36371W        W 4745   0.963  29.037   0.819
36372W        W 4746  20.182   4.430   0.311
36373W        W 4747  18.088  25.986   3.770
36374W        W 4748   8.802   8.320   0.775
36375W        W 4749  19.607  24.192  12.427
36376W        W 4750  37.948   8.334  10.587
36377W        W 4751  14.262  32.020  14.398
36378W        W 4752   7.255  11.239   0.481
36379W        W 4753  39.958  22.551  13.877
36380W        W 4754  12.195   8.796   5.207
36381W        W 4755   0.799  35.385   2.703
36382W        W 4756   1.811  22.164  13.837
36383W        W 4757   4.731   8.749   2.373
36384W        W 4758  32.467  36.051  13.931
36385W        W 4759  28.050  21.545  14.819
36386W        W 4760  43.790   5.322   4.644
36387W        W 4761  25.555   2.470   1.361
36388W        W 4762  14.723  26.099   2.215
36389W        W 4763  12.685  11.797   3.824
36390W        W 4764  25.185   5.211   3.297
36391W        W 4765  27.636  29.642  11.902
36392W        W 4766  38.919   4.397   2.373
36393W        W 4767  28.071   6.709  14.474
36394W        W 4768  42.031  17.278   1.808
36395W        W 4769   1.276  44.914  13.908
36396W        W 4770   0.829  17.272  10.434
36397W        W 4771  26.695  34.437   1.738
36398W        W 4772  41.382  14.611  11.374
36399W        W 4773   8.182  14.165  13.050
36400W        W 4774  35.048   1.821   3.191
36401W        W 4775  12.773  18.077   3.639
36402W        W 4776  10.744  19.714   0.286
36403W        W 4777  31.924  40.916   2.734
36404W        W 4778  30.076  35.592  12.426
36405W        W 4779  22.715  26.162   3.653
36406W        W 4780  24.572  43.314   1.873
36407W        W 4781   9.356  35.364   0.385
36408W        W 4782  43.891   5.429  13.900
36409W        W 4783  43.383  40.329  13.060
36410W        W 4784  22.120  28.087   0.395
36411W        W 4785  13.206  40.478  11.916
36412W        W 4786  12.346  32.941   0.789
36413W        W 4787   2.893   3.368   2.183
36414W        W 4788  31.078  27.055  11.103
36415W        W 4789  36.488  22.723  10.504
36416W        W 4790  33.586  30.527   2.196
36417W        W 4791  26.556  44.444   9.990
36418W        W 4792   6.835  19.739  14.861
36419W        W 4793   8.252   4.425  11.901
36420W        W 4794  33.103   8.831  10.593
36421W        W 4795  23.552  21.207  12.510
36422W        W 4796   1.825  12.312  10.510
36423W        W 4797   5.919  13.136   1.369
36424W        W 4798  38.067   4.942   1.398
36425W        W 4799   7.898  34.870   3.706
36426W        W 4800   9.374  31.477   0.289
36427W        W 4801  27.941  31.104  10.496
36428W        W 4802  20.228   9.207   3.160
36429W        W 4803  11.128   1.922   4.147
36430W        W 4804  19.214   5.698   0.464
36431W        W 4805   8.397  28.594  11.865
36432W        W 4806  34.911  37.973  14.863
36433W        W 4807  14.674  25.512  11.978
36434W        W 4808   8.809   4.739   0.467
36435W        W 4809  18.273  44.877  11.046
36436W        W 4810   3.225  41.927   2.679
36437W        W 4811  28.443  34.920  11.990
36438W        W 4812   4.750  42.014   0.869
36439W        W 4813  28.615  32.596   0.370
36440W        W 4814  24.498   3.930   4.319
36441W        W 4815  17.155  38.498  14.811
36442W        W 4816  12.131  16.582  11.116
36443W        W 4817  28.065  32.090  14.847
36444W        W 4818   0.351   5.428   3.289
36445W        W 4819  31.034  32.969  11.971
36446W        W 4820  33.998   0.872  14.993
36447W        W 4821  21.233   3.300   1.779
36448W        W 4822  26.479  41.959  13.063
36449W        W 4823   4.234  37.833  14.275
36450W        W 4824   9.749  14.232  13.351
36451W        W 4825  35.866  21.217  11.993
36452W        W 4826  43.294  10.272  12.459
36453W        W 4827  19.124  29.620   1.272
36454W        W 4828   9.356  44.787   2.711
36455W        W 4829  35.420  33.969  11.508
36456W        W 4830  39.817  30.629  13.053
36457W        W 4831  14.212  11.322  12.405
36458W        W 4832  25.599  37.537  13.484
36459W        W 4833  40.817  41.366  13.920
36460W        W 4834  36.548   1.813   1.750
36461W        W 4835  11.793  43.429  14.336
36462W        W 4836  19.649  38.549   4.283
36463W        W 4837  40.445  20.106   0.897
36464W        W 4838  26.632   0.388  14.925
36465W        W 4839  11.214  35.917   4.226
36466W        W 4840   5.695  31.148   2.805
36467W        W 4841  44.447  24.561   3.191
36468W        W 4842  42.290  17.098   1.306
36469W        W 4843  34.473  35.896   1.836
36470W        W 4844  14.758  32.488  10.947
36471W        W 4845   5.193  40.013   0.770
36472W        W 4846   0.839  39.510   3.681
36473W        W 4847  15.131   0.391   0.748
36474W        W 4848  36.995  30.107   2.206
36475W        W 4849   8.369  38.829   4.715
36476W        W 4850  15.248  13.612   3.290
36477W        W 4851  33.066  20.608   1.354
36478W        W 4852  19.599   1.966   0.851
36479W        W 4853  10.219   3.748   0.874
36480W        W 4854  39.817  30.545   4.206
36481W        W 4855  40.951  37.086   3.736
36482W        W 4856  44.991   9.712   1.803
36483W        W 4857  21.162   6.346  10.930
36484W        W 4858  44.974  21.136  11.896
36485W        W 4859  17.610  43.765   0.340
36486W        W 4860  31.449  16.120  11.968
36487W        W 4861  26.043  26.077   3.857
36488W        W 4862  36.881  24.052   0.302
36489W        W 4863   8.236  41.333   3.796
36490W        W 4864  38.480  14.754   3.326
36491W        W 4865  33.023  25.521   2.368
36492W        W 4866  22.636  13.765  13.308
36493W        W 4867  43.363   1.368  12.933
36494W        W 4868  27.504  22.173   2.832
36495W        W 4869  16.130  12.803   1.386
36496W        W 4870  14.199  39.964  11.606
36497W        W 4871  23.088   4.801   0.779
36498W        W 4872  33.403  22.179  11.552
36499W        W 4873  22.234  39.844   3.682
36500W        W 4874  32.512  22.089   0.964
36501W        W 4875   1.913  38.899  11.414
36502W        W 4876  32.898  28.505  11.078
36503W        W 4877  26.186   7.752   0.271
36504W        W 4878   7.872  33.111  11.460
36505W        W 4879   9.267  42.405  13.911
36506W        W 4880   1.753  25.652  10.907
36507W        W 4881  23.511  30.933   3.818
36508W        W 4882  35.485  16.582  14.916
36509W        W 4883  37.875  13.749  12.092
36510W        W 4884  27.071  22.188  13.326
36511W        W 4885  33.485  28.475  10.641
36512W        W 4886  34.881  32.390   4.284
36513W        W 4887  41.421  29.074   4.792
36514W        W 4888   7.372  38.438   1.440
36515W        W 4889  43.919  28.537  14.930
36516W        W 4890  37.496   0.888   2.179
36517W        W 4891  25.003   5.226  13.030
36518W        W 4892  39.884  18.284   0.268
36519W        W 4893  33.579  30.569   3.736
36520W        W 4894  21.662   7.809  10.897
36521W        W 4895   3.891   6.922   3.765
36522W        W 4896  13.248  41.302  11.604
36523W        W 4897  28.053   9.226  12.921
36524W        W 4898  14.240  42.940  10.895
36525W        W 4899  23.017  20.064   4.123
36526W        W 4900  38.833  15.713   2.265
36527W        W 4901  30.531  22.124  10.972
36528W        W 4902  44.951  39.472   2.363
36529W        W 4903  28.941  13.804  10.528
36530W        W 4904   6.203  42.320   3.350
36531W        W 4905  41.355  14.636  14.361
36532W        W 4906   1.789  39.322  11.123
36533W        W 4907  15.272  36.475   0.476
36534W        W 4908   3.447  39.469  13.376
36535W        W 4909  29.641  30.595  14.289
36536W        W 4910  37.347  38.977   3.348
36537W        W 4911   1.478  43.871   2.391
36538W        W 4912  22.237  32.572   5.285
36539W        W 4913  43.817  31.115   2.807
36540W        W 4914  36.966  22.160  13.434
36541W        W 4915  37.403   5.810  12.038
36542W        W 4916  15.187  23.511  14.391
36543W        W 4917  19.183  38.922  11.418
36544W        W 4918  21.042  39.482   0.329
36545W        W 4919  34.508  12.781   0.957
36546W        W 4920  10.668  40.353   4.174
36547W        W 4921  36.904  12.735  12.919
36548W        W 4922  23.154  10.683  14.796
36549W        W 4923  13.657  12.133   3.326
36550W        W 4924  23.071  27.132   0.249
36551W        W 4925  13.232  27.006  10.528
36552W        W 4926  28.596  29.175  10.998
36553W        W 4927  39.917  35.056  12.549
36554W        W 4928   2.847  18.608  10.582
36555W        W 4929   9.877  32.603  11.101
36556W        W 4930  43.452   4.844   4.278
36557W        W 4931  13.202  15.759   3.710
36558W        W 4932  17.788   8.888  14.895
36559W        W 4933  17.769  20.151  12.867
36560W        W 4934  41.010  44.306  12.072
36561W        W 4935  30.063  44.978   3.300
36562W        W 4936   7.911   9.269  10.926
36563W        W 4937  26.596  15.591   1.349
36564W        W 4938  32.973  39.885   0.289
36565W        W 4939  22.247   8.728   3.826
36566W        W 4940  10.332   0.799   0.301
36567W        W 4941  14.589  11.262  10.582
36568W        W 4942  29.944  30.450  10.896
36569W        W 4943  33.567  16.186  12.985
36570W        W 4944  37.045   2.885   4.755
36571W        W 4945  20.216  25.114   0.801
36572W        W 4946  38.878  26.993   3.771
36573W        W 4947  29.045  19.617  12.933
36574W        W 4948  14.102  42.312   3.676
36575W        W 4949  16.205   7.414   2.416
36576W        W 4950  27.664  16.095   3.260
36577W        W 4951   3.799  22.743  10.434
36578W        W 4952   1.757  15.751  11.389
36579W        W 4953  42.474  44.328   0.481
36580W        W 4954   5.361  17.691  12.979
36581W        W 4955   8.220  18.568  13.520
36582W        W 4956  18.693  24.514  10.450
36583W        W 4957  22.164  21.568  14.980
36584W        W 4958  22.225  17.070   4.253
36585W        W 4959  26.463  11.313  13.391
36586W        W 4960  35.567  13.232   0.308
36587W        W 4961  42.855  33.068   4.736
36588W        W 4962  39.490  33.085   4.754
36589W        W 4963  41.482  25.522   4.751
36590W        W 4964   9.194  39.833  12.875
36591W        W 4965  22.595  15.210  10.534
36592W        W 4966  44.893   4.816  12.556
36593W        W 4967  22.231   3.835   3.859
36594W        W 4968   8.236  21.141   2.318
36595W        W 4969  37.000   6.286  12.429
36596W        W 4970  41.028   3.421   0.403
36597W        W 4971   9.371  29.450   4.660
36598W        W 4972  31.983  44.773   0.875
36599W        W 4973  12.622  38.845   0.448
36600W        W 4974  23.709  38.052   2.383
36601W        W 4975  44.298  37.910   2.210
36602W        W 4976  27.011  44.409  10.936
36603W        W 4977  17.678  13.171   0.733
36604W        W 4978  37.514   6.729   0.342
36605W        W 4979  37.396  28.563  12.470
36606W        W 4980  24.037   6.306  12.349
36607W        W 4981  22.079  40.031  14.383
36608W        W 4982   4.934  16.157   3.743
36609W        W 4983  15.679  17.088  13.482
36610W        W 4984  27.959  17.791   3.360
36611W        W 4985  28.538  28.992   1.347
36612W        W 4986   1.308   8.357   0.464
36613W        W 4987  39.848  43.459   4.164
36614W        W 4988  40.854   9.721  14.958
36615W        W 4989   3.820  24.124   1.378
36616W        W 4990  15.716  33.921  11.913
36617W        W 4991  41.029  15.784  12.439
36618W        W 4992   6.255  30.163  11.481
36619W        W 4993  30.027  24.182  12.933
36620W        W 4994  26.548  29.479   2.190
36621W        W 4995  13.288  37.436   2.310
36622W        W 4996  40.337  19.708  12.856
36623W        W 4997   8.862   3.402  13.393
36624W        W 4998  44.919   1.303  12.573
36625W        W 4999  34.063  39.993  12.341
36626W        W 5000  33.011   5.887   0.801
36627W        W 5001  44.967  41.889  11.384
36628W        W 5002  40.042  33.473  10.926
36629W        W 5003  28.980  43.274   3.673
36630W        W 5004  38.366  27.671  14.902
36631W        W 5005  30.480  39.839   0.317
36632W        W 5006  17.201  41.811  11.430
36633W        W 5007  31.956  44.280   2.304
36634W        W 5008  12.753  11.715   3.248
36635W        W 5009  39.356  37.407   0.920
36636W        W 5010  21.723   3.274   0.949
36637W        W 5011  38.566  36.426   4.277
36638W        W 5012  30.553  42.440  14.426
36639W        W 5013  19.633   0.792   0.376
36640W        W 5014   2.936  15.287  14.306
36641W        W 5015  30.487  22.183   4.254
36642W        W 5016  22.114   8.270   3.181
36643W        W 5017  34.978  10.675  11.469
36644W        W 5018  22.021  22.225   4.737
36645W        W 5019  17.089  32.484   1.925
36646W        W 5020  28.994   1.958  12.994
36647W        W 5021  14.677  37.017  11.394
36648W        W 5022  15.738  16.261  12.826
36649W        W 5023  42.988  36.392  11.487
36650W        W 5024   7.269  21.124   1.321
36651W        W 5025   0.374   1.454   2.901
36652W        W 5026   6.884  43.374   1.782
36653W        W 5027  40.392   7.797  11.480
36654W        W 5028  16.745  22.217  13.990
36655W        W 5029  41.805   7.274  14.980
36656W        W 5030   1.827   6.712  12.981
36657W        W 5031   8.256  23.546  13.913
36658W        W 5032  14.629  38.569   4.605
36659W        W 5033  38.874   2.410  13.319
36660W        W 5034  20.671  41.357  14.032
36661W        W 5035   6.861  25.046  10.063
36662W        W 5036   5.234  17.677   4.645
36663W        W 5037  34.570   5.849  13.053
36664W        W 5038  12.786  20.661  13.985
36665W        W 5039   7.242  19.188  13.858
36666W        W 5040  21.178  12.153   4.348
36667W        W 5041  25.574  35.071   4.787
36668W        W 5042  20.620  23.183   4.196
36669W        W 5043  40.393  19.766   0.339
36670W        W 5044  21.072  18.196   0.924
36671W        W 5045  42.456  16.168  13.834
36672W        W 5046  25.503  15.158   3.219
36673W        W 5047  42.867  33.110   4.257
36674W        W 5048  15.737   3.727   2.393
36675W        W 5049  26.487  39.552  13.440
36676W        W 5050  43.896   6.872   0.335
36677W        W 5051  36.958  18.245  12.474
36678W        W 5052   8.312   0.941   4.131
36679W        W 5053  40.344  37.885   2.187
36680W        W 5054  28.156  43.870   1.447
36681W        W 5055  18.186  13.835  10.890
36682W        W 5056  42.461  44.471   4.811
36683W        W 5057  23.110  42.917  14.764
36684W        W 5058   8.316   3.870   2.259
36685W        W 5059   9.213   6.204   3.319
36686W        W 5060  23.543   5.836   3.778
36687W        W 5061  11.206  44.876  12.559
36688W        W 5062  26.545  32.501  11.532
36689W        W 5063   8.269   4.397   4.350
36690W        W 5064  19.241  23.096   4.603
36691W        W 5065  22.653  33.473  13.462
36692W        W 5066  25.080  17.154  14.776
36693W        W 5067  14.806   3.454   4.319
36694W        W 5068   2.246  28.977   1.366
36695W        W 5069  21.536   8.868  14.387
36696W        W 5070   9.178  13.706   4.781
36697W        W 5071  28.633  28.579   3.182
36698W        W 5072   7.886  37.073  12.900
36699W        W 5073  33.067  28.060   1.254
36700W        W 5074   4.713  44.281   4.310
36701W        W 5075  21.742  30.603  14.822
36702W        W 5076   9.220  41.387   2.206
36703W        W 5077  42.861  36.853  10.516
36704W        W 5078  19.237  15.167  13.502
36705W        W 5079  24.203  24.593  14.923
36706W        W 5080  17.724  22.667   2.726
36707W        W 5081  24.997  32.571   3.341
36708W        W 5082   4.820  11.778  12.392
36709W        W 5083  24.631  16.757   3.323
36710W        W 5084  43.959  22.066   1.260
36711W        W 5085  39.842  26.063  13.364
36712W        W 5086  34.040  27.504   3.234
36713W        W 5087  43.840   8.313   3.305
36714W        W 5088  40.884  27.948   0.824
36715W        W 5089  37.935  35.401  11.891
36716W        W 5090  32.622  37.897   3.864
36717W        W 5091   7.724   0.949   3.159
36718W        W 5092  39.481  39.812   3.295
36719W        W 5093  35.077  19.696  11.069
36720W        W 5094  33.940   0.249   1.377
36721W        W 5095  28.552   9.679  13.801
36722W        W 5096  30.658  42.877  14.797
36723W        W 5097   2.862  12.614   2.662
36724W        W 5098  33.598   7.811   4.601
36725W        W 5099  29.114   5.266   3.251
36726W        W 5100   8.327   9.849   3.823
36727W        W 5101  27.493  15.823   0.783
36728W        W 5102  43.485  43.909  11.127
36729W        W 5103  26.973  21.627   4.832
36730W        W 5104  12.241  27.070  11.959
36731W        W 5105  40.373  29.578   4.731
36732W        W 5106   1.322  30.054  14.510
36733W        W 5107  23.185   5.872  10.422
36734W        W 5108  21.624   9.155   1.306
36735W        W 5109   4.765   3.356   4.803
36736W        W 5110  23.615  30.163  14.464
36737W        W 5111   2.913  12.271   3.158
36738W        W 5112  44.350  13.188  11.487
36739W        W 5113   1.858  13.336   3.787
36740W        W 5114   3.936  12.762  13.535
36741W        W 5115  15.104  29.553  13.826
36742W        W 5116  38.346  28.185   1.304
36743W        W 5117  41.002   6.890  11.597
36744W        W 5118  27.662  22.582   1.877
36745W        W 5119  40.377  12.796   2.725
36746W        W 5120   7.853  25.197  13.018
36747W        W 5121  15.210   9.790   1.419
36748W        W 5122  35.359   7.891  11.872
36749W        W 5123   3.949  39.887   4.347
36750W        W 5124  34.457  10.713   1.796
36751W        W 5125  26.593   0.465  14.381
36752W        W 5126  32.601  38.929  10.585
36753W        W 5127  30.149  41.964  12.926
36754W        W 5128  37.542   3.712   0.295
36755W        W 5129  14.645  41.932   1.217
36756W        W 5130  17.200  20.583   4.219
36757W        W 5131   9.306   5.807  13.989
36758W        W 5132  14.594  32.531   1.354
36759W        W 5133   1.262  43.893  13.935
36760W        W 5134  44.807  25.685  10.513
36761W        W 5135  13.260  24.691   1.398
36762W        W 5136  13.257   4.818  10.644
36763W        W 5137  15.218  29.442   4.162
36764W        W 5138  29.544  13.716   3.784
36765W        W 5139  16.800  37.526  10.614
36766W        W 5140  25.004   2.351   0.351
36767W        W 5141   9.172  25.573   3.148
36768W        W 5142  22.741   7.315   0.393
36769W        W 5143  40.805  44.822  14.368
36770W        W 5144  17.263  29.520   1.212
36771W        W 5145  34.900   9.326   2.696
36772W        W 5146  34.442  32.989   3.811
36773W        W 5147  35.070  18.102   0.311
36774W        W 5148   7.844  43.976  11.517
36775W        W 5149  19.663  30.060   2.861
36776W        W 5150  26.073   7.312  12.448
36777W        W 5151  40.434  42.781   5.248
36778W        W 5152  18.271  10.667  12.506
36779W        W 5153  26.635  38.510  13.384
36780W        W 5154  21.725  10.692   4.765
36781W        W 5155  25.106  23.084   3.819
36782W        W 5156   8.696  30.120   1.918
36783W        W 5157  10.285  10.779  11.434
36784W        W 5158   7.286  29.016   3.318
36785W        W 5159  24.548  26.616   4.751
36786W        W 5160  17.629   3.854   0.430
36787W        W 5161  41.518  33.966  11.079
36788W        W 5162  30.946  37.552   0.326
36789W        W 5163  37.841  12.711   2.745
36790W        W 5164  30.010   3.335   0.763
36791W        W 5165  25.014  40.919  10.480
36792W        W 5166  34.510  30.594   4.751
36793W        W 5167  11.835  30.011   0.422
36794W        W 5168  24.693  10.327   1.823
36795W        W 5169  34.374  35.999  13.043
36796W        W 5170   1.383  35.988  10.923
36797W        W 5171  12.301  17.763   4.739
36798W        W 5172  38.366  25.186  13.424
36799W        W 5173  32.930   3.801  11.927
36800W        W 5174  39.952  33.874   1.838
36801W        W 5175  10.781  44.904  12.568
36802W        W 5176  18.724  23.145  10.576
36803W        W 5177   1.384   0.362   1.756
36804W        W 5178  43.004  38.383  10.531
36805W        W 5179  21.065  41.351   1.445
36806W        W 5180   7.283  40.874  12.879
36807W        W 5181  29.445  41.502   3.244
36808W        W 5182  26.586  21.617   3.382
36809W        W 5183   5.303  23.584   1.895
36810W        W 5184  44.480   8.353   1.272
36811W        W 5185  40.320  22.171   4.766
36812W        W 5186  25.603   2.906   4.279
36813W        W 5187  10.167   8.264  10.496
36814W        W 5188  14.831  15.619  14.007
36815W        W 5189  19.186  24.506   1.450
36816W        W 5190  20.642   4.237  13.021
36817W        W 5191  29.106  39.495  13.864
36818W        W 5192  13.697  21.258  13.993
36819W        W 5193  35.868  10.648   0.770
36820W        W 5194  30.003  39.436  10.600
36821W        W 5195  29.925  29.969  12.057
36822W        W 5196  35.374  34.509  12.501
36823W        W 5197   4.291  30.142   1.226
36824W        W 5198  33.918  30.073  13.864
36825W        W 5199  16.072   8.785  14.414
36826W        W 5200   4.927   5.899  14.876
36827W        W 5201  27.647  18.083  14.293
36828W        W 5202  15.294  38.837  13.439
36829W        W 5203  41.387  13.172  10.450
36830W        W 5204   3.219  36.437  14.907
36831W        W 5205  41.786  14.767   2.248
36832W        W 5206  42.843  43.476   1.434
36833W        W 5207   7.243  20.221   2.228
36834W        W 5208  43.491  10.855   1.314
36835W        W 5209  18.644   3.316  12.451
36836W        W 5210   4.361  11.295  12.417
36837W        W 5211   1.286  42.800   2.813
36838W        W 5212  18.221  14.266  11.535
36839W        W 5213  19.093  35.058  14.866
36840W        W 5214  32.405  10.751  12.372
36841W        W 5215  28.025  14.828  13.793
36842W        W 5216  20.737  28.676  14.403
36843W        W 5217  27.608   5.800  12.515
36844W        W 5218  17.140   4.379  11.581
36845W        W 5219  44.328  37.346  10.519
36846W        W 5220   2.814  22.085   2.332
36847W        W 5221  26.507  39.844   4.265
36848W        W 5222   8.389  17.139   1.362
36849W        W 5223  32.136   4.784   3.182
36850W        W 5224  11.662   7.300  14.365
36851W        W 5225   1.250   7.225  12.407
36852W        W 5226   7.402   3.426   1.857
36853W        W 5227  39.960  31.620  14.471
36854W        W 5228  37.833   0.281   4.752
36855W        W 5229   8.899  15.233   2.843
36856W        W 5230   6.402   7.887   2.883
36857W        W 5231  20.124  28.130   1.281
36858W        W 5232  10.797  42.877   3.262
36859W        W 5233  21.652  20.161  14.283
36860W        W 5234   6.299   3.777  13.885
36861W        W 5235   6.313  35.067  13.023
36862W        W 5236   8.291   7.677   4.655
36863W        W 5237   1.435   1.832   1.928
36864W        W 5238  41.805  32.635   1.401
36865W        W 5239  36.550   1.959   3.770
36866W        W 5240  30.065  37.844   1.766
36867W        W 5241   4.216  30.150  14.307
36868W        W 5242  16.144  12.661  14.367
36869W        W 5243  12.204   8.719   4.608
36870W        W 5244   7.254  14.620  13.390
36871W        W 5245  27.640  21.176   2.787
36872W        W 5246  24.695   6.202  10.539
36873W        W 5247  33.090  10.860  12.009
36874W        W 5248  40.879  30.081  14.823
36875W        W 5249  36.445  29.553  13.538
36876W        W 5250  23.095  42.943   2.314
36877W        W 5251  26.643  22.535   2.815
36878W        W 5252  27.153   5.756  11.034
36879W        W 5253   9.761  20.608  14.020
36880W        W 5254  16.267  44.460   2.895
36881W        W 5255  11.192   6.347   0.909
36882W        W 5256   9.827  17.218   0.966
36883W        W 5257  34.041  18.272  13.373
36884W        W 5258  29.532  16.076  14.311
36885W        W 5259   0.406  18.285   0.368
36886W        W 5260  10.337  34.898  13.391
36887W        W 5261   6.336  24.622  12.054
36888W        W 5262  17.265  25.469  13.365
36889W        W 5263  39.488  20.235   2.267
36890W        W 5264  28.024   3.428  10.914
36891W        W 5265  24.153   5.372  11.958
36892W        W 5266  20.135   5.375  10.631
36893W        W 5267  40.493  30.608   3.278
36894W        W 5268  34.918   3.876  10.504
36895W        W 5269  32.570   6.826   3.667
36896W        W 5270   4.935  26.980  14.931
36897W        W 5271  42.443   6.339  10.643
36898W        W 5272  37.399  24.092  10.645
36899W        W 5273  31.937  43.776  10.957
36900W        W 5274  42.498  19.158   2.355
36901W        W 5275  14.796  25.211  14.469
36902W        W 5276  24.075   6.798   1.732
36903W        W 5277  36.888   7.191   0.875
36904W        W 5278  24.484   6.302   3.359
36905W        W 5279  34.004   8.832  11.429
36906W        W 5280  44.857  10.141   1.279
36907W        W 5281   3.318  17.295  13.426
36908W        W 5282  13.794   2.410   0.444
36909W        W 5283  24.072  14.654   9.460
36910W        W 5284  36.448  31.505   2.792
36911W        W 5285  37.549  21.519   2.888
36912W        W 5286  23.724  34.388   0.749
36913W        W 5287   0.345   8.681   3.217
36914W        W 5288   8.698  12.190   1.767
36915W        W 5289  26.158  14.122  13.335
36916W        W 5290  40.359   1.473  12.433
36917W        W 5291  41.921  34.452  14.407
36918W        W 5292  16.763  13.800   0.751
36919W        W 5293  40.430   9.842  10.545
36920W        W 5294  39.436  34.479   4.731
36921W        W 5295  27.127   8.266   2.388
36922W        W 5296   6.789  25.471   0.938
36923W        W 5297  17.663  30.581   4.651
36924W        W 5298  12.253  26.613   0.749
36925W        W 5299  34.376  42.899  11.437
36926W        W 5300  20.105   1.963  14.498
36927W        W 5301   0.452  39.926  10.900
36928W        W 5302  12.240  31.538  13.827
36929W        W 5303  13.244  44.460  12.878
36930W        W 5304  24.620  21.036   0.440
36931W        W 5305  27.468  37.938  14.297
36932W        W 5306  11.348  29.581  10.626
36933W        W 5307   2.290  35.864   4.800
36934W        W 5308  14.685   8.271  11.127
36935W        W 5309  38.517  12.652   1.212
36936W        W 5310   9.789  26.097  10.627
36937W        W 5311  34.045   0.878   3.806
36938W        W 5312  12.155  13.659   3.262
36939W        W 5313  36.996   8.746   5.155
36940W        W 5314   1.814  19.199   1.262
36941W        W 5315  27.508  29.644  11.070
36942W        W 5316  23.110  21.241  13.529
36943W        W 5317  40.002  19.731   3.233
36944W        W 5318  43.017  15.175   2.237
36945W        W 5319  31.119  22.667  11.475
36946W        W 5320  11.156  28.481   4.776
36947W        W 5321  18.184  38.012  11.453
36948W        W 5322  25.530  39.839   0.327
36949W        W 5323  21.230  36.399  11.608
36950W        W 5324  44.836  29.079  14.839
36951W        W 5325  37.015   4.446   2.352
36952W        W 5326  21.124   5.376  14.917
36953W        W 5327   7.756  43.378   3.828
36954W        W 5328   1.412   5.303   4.780
36955W        W 5329  40.437  39.318   4.169
36956W        W 5330  12.254  16.712  11.486
36957W        W 5331  20.040  39.853   0.320
36958W        W 5332   9.199   4.849   4.727
36959W        W 5333  24.618   8.826   4.118
36960W        W 5334  26.583  26.681  14.303
36961W        W 5335  25.122  33.410  10.497
36962W        W 5336  11.367  12.141  14.785
36963W        W 5337  23.641  21.568   0.818
36964W        W 5338  26.645  26.512   5.094
36965W        W 5339   0.954   2.916   0.917
36966W        W 5340  24.175  20.206   2.405
36967W        W 5341  32.106  18.562  12.910
36968W        W 5342   8.713  34.401   2.216
36969W        W 5343  39.502  39.890  13.889
36970W        W 5344  23.561  34.034  10.636
36971W        W 5345  15.244  34.099  13.016
36972W        W 5346  15.231   3.253   1.742
36973W        W 5347   1.475   8.714   4.143
36974W        W 5348  13.842  37.889   0.925
36975W        W 5349  16.160   3.224   5.224
36976W        W 5350  32.427  42.916   4.767
36977W        W 5351   3.711   4.384  11.391
36978W        W 5352  14.215  27.972  14.853
36979W        W 5353  13.773  42.416   3.272
36980W        W 5354  22.231   4.292  13.937
36981W        W 5355  16.731   6.810   0.823
36982W        W 5356  10.294  28.535   4.202
36983W        W 5357   7.205  44.880  10.446
36984W        W 5358  35.884   8.832  12.011
36985W        W 5359  39.930  12.611  10.593
36986W        W 5360  28.156  41.853   2.795
36987W        W 5361  10.201  39.334   3.146
36988W        W 5362  44.804   5.841   0.967
36989W        W 5363  24.108  12.308   3.640
36990W        W 5364  13.696   0.921   1.759
36991W        W 5365  38.905  27.083   4.150
36992W        W 5366  36.348  19.630  11.445
36993W        W 5367  34.030  31.578  11.040
36994W        W 5368   2.389  25.643  10.465
36995W        W 5369  44.004  20.633  14.311
36996W        W 5370  35.557   4.874  11.374
36997W        W 5371  12.676  39.500   3.866
36998W        W 5372  22.675  36.372  10.638
36999W        W 5373  42.485   1.358   1.311
37000W        W 5374  15.231  33.055  13.853
37001W        W 5375  43.914  23.615   2.222
37002W        W 5376  42.497  29.969   4.172
37003W        W 5377  44.968  37.382  14.299
37004W        W 5378   8.871  11.670   2.225
37005W        W 5379  10.172  16.310  11.522
37006W        W 5380  21.184   5.715   1.340
37007W        W 5381  12.187   8.702   2.180
37008W        W 5382  30.620  44.326   4.728
37009W        W 5383  42.287  11.857  14.432
37010W        W 5384  35.065  40.338   0.453
37011W        W 5385  23.203  10.773   1.917
37012W        W 5386  35.601  35.369   4.776
37013W        W 5387   2.866  24.675  13.535
37014W        W 5388  38.911   7.371  12.968
37015W        W 5389   4.329  23.711   3.693
37016W        W 5390   9.684  43.354  14.428
37017W        W 5391  22.537  37.011  10.522
37018W        W 5392   7.359   7.735  11.405
37019W        W 5393   8.755  35.455  14.768
37020W        W 5394  41.530  36.006   1.380
37021W        W 5395  15.791  22.211  10.463
37022W        W 5396  23.576   9.216  14.435
37023W        W 5397  10.651  31.516   1.417
37024W        W 5398  27.170  10.365   9.925
37025W        W 5399   4.219  23.570   2.295
37026W        W 5400   3.218  44.768   4.130
37027W        W 5401  38.055  26.971  13.517
37028W        W 5402  38.922  33.592  10.534
37029W        W 5403  41.792  28.066   2.370
37030W        W 5404   1.835  30.465  11.988
37031W        W 5405  20.246  19.174   2.699
37032W        W 5406  14.695  42.447   0.852
37033W        W 5407  20.664  32.950  11.474
37034W        W 5408  41.027  23.072   0.363
37035W        W 5409   9.334  43.903   3.190
37036W        W 5410  44.315  41.405   4.746
37037W        W 5411  43.782  22.125  13.445
37038W        W 5412   0.787  31.052   0.926
37039W        W 5413  31.128  34.057  14.343
37040W        W 5414   6.285   1.930   4.708
37041W        W 5415   8.227  11.160   1.322
37042W        W 5416   2.888  26.034  11.066
37043W        W 5417  25.116   3.327  12.906
37044W        W 5418  33.002  13.769   1.235
37045W        W 5419  24.206  32.886  12.073
37046W        W 5420  44.781  11.213   0.928
37047W        W 5421   7.388  24.693  10.567
37048W        W 5422  28.989  42.487   1.215
37049W        W 5423  31.584  43.908   0.809
37050W        W 5424   9.351  11.837  11.505
37051W        W 5425   2.294  32.549   1.755
37052W        W 5426  21.566  30.910   5.671
37053W        W 5427  23.624  18.291  13.033
37054W        W 5428   3.745   3.850  12.361
37055W        W 5429  11.314  22.061  13.912
37056W        W 5430  12.638   4.244   1.804
37057W        W 5431  20.199  25.551  10.634
37058W        W 5432  31.039   5.405  10.457
37059W        W 5433  36.928   8.207   3.158
37060W        W 5434  15.639  42.307   0.453
37061W        W 5435   3.779  15.790   2.387
37062W        W 5436   0.408   4.439  11.464
37063W        W 5437   0.429  29.560  12.088
37064W        W 5438  30.469  34.104   4.351
37065W        W 5439   0.853  19.740   4.233
37066W        W 5440  16.105  14.779   2.338
37067W        W 5441  26.542  42.826   4.267
37068W        W 5442  14.699  20.741   1.799
37069W        W 5443   0.943   2.812   2.868
37070W        W 5444   7.260  14.159   1.422
37071W        W 5445  14.704  20.042   4.120
37072W        W 5446   4.918  41.806  10.034
37073W        W 5447  31.469  40.365  13.388
37074W        W 5448  16.637  11.739   2.896
37075W        W 5449  30.633  10.676   4.719
37076W        W 5450  21.149  26.050  13.346
37077W        W 5451   3.310  19.102  14.780
37078W        W 5452  30.044  28.101   4.646
37079W        W 5453  40.362  32.900   0.315
37080W        W 5454  25.168  20.681  14.316
37081W        W 5455  21.099  34.036   0.305
37082W        W 5456  12.195   6.743   4.160
37083W        W 5457  29.161  41.368   4.692
37084W        W 5458  10.740  18.760  12.504
37085W        W 5459   1.977  37.449   4.703
37086W        W 5460  41.025  11.373  10.558
37087W        W 5461   8.870  34.939   1.432
37088W        W 5462   2.431  16.161   4.650
37089W        W 5463  28.034  21.565   4.657
37090W        W 5464  21.519  19.616  11.059
37091W        W 5465  21.260  23.097   1.376
37092W        W 5466   0.852  39.461  14.964
37093W        W 5467  18.139  24.091   0.819
37094W        W 5468  29.037  38.553   0.826
37095W        W 5469  39.930  22.504   3.789
37096W        W 5470   3.218  24.556   4.254
37097W        W 5471  18.639  38.565  13.858
37098W        W 5472  27.581  36.873   1.346
37099W        W 5473  42.483  37.527   1.792
37100W        W 5474   8.849  23.007   0.911
37101W        W 5475  24.082  13.215   2.305
37102W        W 5476  16.234  40.344  11.992
37103W        W 5477   9.737  23.177   1.870
37104W        W 5478   6.355   1.428  12.399
37105W        W 5479  18.231  30.522   3.249
37106W        W 5480  14.761   4.715  12.347
37107W        W 5481   0.948   0.418   0.941
37108W        W 5482   2.876   3.348  10.637
37109W        W 5483  16.610  18.251   1.793
37110W        W 5484  29.098   8.818  11.559
37111W        W 5485  41.320  41.936  14.922
37112W        W 5486   7.359  13.629  12.911
37113W        W 5487  16.219  23.589  11.022
37114W        W 5488  10.368  14.327   3.868
37115W        W 5489  10.817  12.124  10.979
37116W        W 5490  36.880  27.557   2.764
37117W        W 5491   5.808  30.601   4.124
37118W        W 5492  28.554  18.062  13.801
37119W        W 5493  13.215  39.933  12.841
37120W        W 5494   6.198  12.853   3.280
37121W        W 5495  44.350  43.488  12.395
37122W        W 5496  36.843  35.527   3.714
37123W        W 5497  27.060  12.640   4.729
37124W        W 5498   0.365   1.878  12.402
37125W        W 5499   9.244  43.860  13.522
37126W        W 5500   1.378   5.384   1.290
37127W        W 5501  35.870   3.316   1.902
37128W        W 5502  28.062  30.112   4.268
37129W        W 5503   6.399  35.964  14.289
37130W        W 5504  33.948  12.775  14.352
37131W        W 5505  10.828  20.642  11.086
37132W        W 5506   0.395  44.963   0.410
37133W        W 5507  39.994  32.947  14.957
37134W        W 5508   1.778  17.176   0.449
37135W        W 5509  20.753  17.636  10.571
37136W        W 5510   9.154   2.336   4.171
37137W        W 5511  21.755  30.068  10.017
37138W        W 5512  29.588  11.841   4.702
37139W        W 5513   9.319  12.214  12.525
37140W        W 5514   4.266  26.044  13.056
37141W        W 5515  22.250  22.593  10.515
37142W        W 5516  27.676  30.579  12.064
37143W        W 5517   9.370  11.324  13.920
37144W        W 5518  19.178  44.983   1.268
37145W        W 5519  25.063  23.232  13.923
37146W        W 5520  32.396   2.229   0.793
37147W        W 5521  28.035  43.353   9.965
37148W        W 5522  26.031  33.894  10.520
37149W        W 5523  37.427  22.601   1.433
37150W        W 5524  13.158   5.900  12.384
37151W        W 5525  18.063   4.386   2.326
37152W        W 5526  26.597  31.493   4.680
37153W        W 5527  34.905  42.869  13.945
37154W        W 5528  32.522  29.581  12.348
37155W        W 5529  35.058  14.658  13.445
37156W        W 5530  18.229  38.549  14.943
37157W        W 5531  21.109  11.736  11.040
37158W        W 5532  31.115   4.887  10.622
37159W        W 5533  11.727   6.416   4.279
37160W        W 5534  39.519  33.518  12.085
37161W        W 5535  21.214   6.812   3.852
37162W        W 5536  13.192  10.316  12.570
37163W        W 5537  25.050   0.268   3.293
37164W        W 5538  24.046  10.840   1.763
37165W        W 5539   3.329  23.588  10.923
37166W        W 5540  27.592  22.099   3.636
37167W        W 5541  39.544   9.714  12.382
37168W        W 5542  12.753  28.977   0.941
37169W        W 5543   8.260  21.656   4.831
37170W        W 5544  27.169  39.941  11.600
37171W        W 5545  29.545  38.420   2.826
37172W        W 5546  21.223  16.103  12.904
37173W        W 5547  33.503  25.102  12.829
37174W        W 5548  42.332  14.137   0.839
37175W        W 5549  35.014  15.625  11.927
37176W        W 5550  15.143   7.666   5.106
37177W        W 5551  17.770  17.186  10.922
37178W        W 5552  43.468  42.361   4.242
37179W        W 5553  24.192  22.218   2.776
37180W        W 5554  14.675  23.036   3.314
37181W        W 5555   8.845  24.496  11.063
37182W        W 5556  26.122  35.386  11.539
37183W        W 5557  11.634  20.175   2.375
37184W        W 5558  14.703  37.407  10.936
37185W        W 5559  41.036  29.452  13.967
37186W        W 5560   6.250  19.617  10.042
37187W        W 5561  30.607  10.303   5.303
37188W        W 5562  17.673  13.599   4.794
37189W        W 5563  24.173  10.640  11.886
37190W        W 5564  43.849  18.073  12.953
37191W        W 5565  14.678   7.367  14.393
37192W        W 5566   4.934   2.439   4.291
37193W        W 5567   7.723  16.252  13.507
37194W        W 5568  19.773  19.075   0.246
37195W        W 5569  18.684  35.515   1.387
37196W        W 5570  16.674   7.254  10.913
37197W        W 5571  28.624  12.736   4.837
37198W        W 5572  10.354  32.948  14.431
37199W        W 5573   5.342  16.124   3.330
37200W        W 5574  24.538  31.068   3.175
37201W        W 5575  41.839   9.337   0.731
37202W        W 5576  22.560  13.696  11.488
37203W        W 5577  41.881  14.186  11.961
37204W        W 5578  33.887  20.079   4.769
37205W        W 5579   1.967  32.118   2.675
37206W        W 5580  22.103  13.178  10.582
37207W        W 5581   7.686  30.648  12.579
37208W        W 5582  20.652   2.774  11.528
37209W        W 5583  21.541  29.070  13.488
37210W        W 5584   0.874  24.634   3.649
37211W        W 5585  43.782  27.459  14.971
37212W        W 5586  19.560   4.878   0.865
37213W        W 5587   1.788  11.239   1.392
37214W        W 5588  12.226  39.492  10.915
37215W        W 5589   8.254  21.528  13.542
37216W        W 5590  22.503  10.155   2.397
37217W        W 5591  41.408  34.551   4.753
37218W        W 5592  32.545  28.958   0.441
37219W        W 5593  37.967  44.475   4.662
37220W        W 5594  43.409   8.828   0.380
37221W        W 5595  22.998   0.417   2.326
37222W        W 5596  20.039  27.967  13.893
37223W        W 5597  38.878   3.756   1.821
37224W        W 5598  43.911  29.511  14.856
37225W        W 5599  27.949  35.539   1.243
37226W        W 5600  29.088  21.195   1.801
37227W        W 5601  33.563   8.303   4.726
37228W        W 5602  27.169  25.682   2.698
37229W        W 5603  41.005   9.708  13.510
37230W        W 5604  41.304  22.188  14.828
37231W        W 5605  30.047   9.238   4.666
37232W        W 5606  41.494  34.401  12.947
37233W        W 5607  10.687  41.374   1.329
37234W        W 5608  23.543  19.623   3.779
37235W        W 5609   0.346  39.839  14.427
37236W        W 5610   0.936  33.525  11.602
37237W        W 5611  22.663  22.723  12.414
37238W        W 5612  11.348  38.552   0.740
37239W        W 5613   5.362  44.002   2.337
37240W        W 5614   2.368  41.908  14.398
37241W        W 5615  43.422  14.228  12.368
37242W        W 5616   2.369  43.340   2.728
37243W        W 5617  42.404  22.734  10.499
37244W        W 5618  10.217  29.946  14.973
37245W        W 5619  13.743  11.705   2.797
37246W        W 5620  16.250  24.090  10.158
37247W        W 5621  43.474  15.180  12.524
37248W        W 5622  18.629  30.149  14.884
37249W        W 5623  24.984  12.295   0.429
37250W        W 5624  10.296  40.328  13.008
37251W        W 5625  10.856  18.624   1.873
37252W        W 5626  29.105  25.962   1.375
37253W        W 5627  32.066  21.199   1.397
37254W        W 5628  24.100   0.769  12.526
37255W        W 5629  43.861  36.475   3.371
37256W        W 5630  28.593  36.367   3.341
37257W        W 5631   1.457  29.638  14.906
37258W        W 5632  17.752  37.875   1.288
37259W        W 5633  36.098  32.134   0.480
37260W        W 5634   7.897  29.581  11.019
37261W        W 5635  35.489  35.924  12.942
37262W        W 5636  22.744  36.998  14.471
37263W        W 5637  41.465  36.899   1.723
37264W        W 5638  41.957  17.069  11.871
37265W        W 5639  18.281  16.666   3.274
37266W        W 5640  19.616  35.955   4.714
37267W        W 5641  13.287  44.375  14.952
37268W        W 5642  38.418  14.167   1.358
37269W        W 5643   1.439  28.071  13.978
37270W        W 5644  12.261  34.587  11.919
37271W        W 5645  39.472  42.900   1.292
37272W        W 5646  29.626  19.658  13.373
37273W        W 5647   4.266  15.761   3.177
37274W        W 5648  44.985  11.812   4.667
37275W        W 5649   6.363  36.424  13.522
37276W        W 5650  13.618  43.367  11.047
37277W        W 5651  27.167  41.393   3.192
37278W        W 5652   5.896   5.873  11.076
37279W        W 5653  19.226   2.813   2.229
37280W        W 5654  36.859  34.511   3.858
37281W        W 5655  16.655  25.657  10.504
37282W        W 5656  31.133  38.857  14.418
37283W        W 5657  14.299  10.872  10.017
37284W        W 5658  24.687  39.950  13.426
37285W        W 5659  37.581   0.322  13.463
37286W        W 5660  13.644   3.715   2.376
37287W        W 5661  35.457   0.490   1.741
37288W        W 5662   1.351  19.705  12.350
37289W        W 5663   6.211   0.320   2.379
37290W        W 5664  25.501  36.364   1.363
37291W        W 5665  24.976  41.415  12.416
37292W        W 5666   5.720  15.618   1.294
37293W        W 5667  38.448   4.757   3.650
37294W        W 5668  24.654  20.588  11.002
37295W        W 5669  23.495  16.697   3.322
37296W        W 5670  20.706  36.989   3.219
37297W        W 5671  39.829  20.646   0.258
37298W        W 5672  37.421   5.844   3.276
37299W        W 5673  43.802  20.729  12.088
37300W        W 5674  39.923  42.815   2.417
37301W        W 5675  12.688   3.271  10.568
37302W        W 5676  22.053  21.245  14.435
37303W        W 5677  30.150  33.905  11.416
37304W        W 5678  27.657  37.008  14.428
37305W        W 5679  28.155  38.076  13.811
37306W        W 5680  43.790   9.191   3.632
37307W        W 5681  40.995   2.246  11.559
37308W        W 5682  23.595  10.295  10.099
37309W        W 5683  33.928  38.825   4.284
37310W        W 5684  40.005   8.839  13.853
37311W        W 5685  36.353   5.700  11.035
37312W        W 5686  42.860  34.957   1.347
37313W        W 5687  10.284   0.377  10.972
37314W        W 5688   2.787  41.969  10.532
37315W        W 5689  20.632  39.897  12.061
37316W        W 5690   7.746   4.243   2.315
37317W        W 5691  29.146  33.441   1.844
37318W        W 5692   2.728   8.193   2.381
37319W        W 5693  29.616  30.983  10.931
37320W        W 5694   4.905  44.292   0.737
37321W        W 5695   9.862  20.576  11.520
37322W        W 5696  12.308  39.387   1.706
37323W        W 5697  44.854  29.575  11.041
37324W        W 5698  17.569   2.865  12.906
37325W        W 5699  35.454   1.297   4.334
37326W        W 5700  44.413  37.357   1.729
37327W        W 5701  26.061  41.444   0.376
37328W        W 5702  22.197  15.323   1.247
37329W        W 5703  30.090  20.213   4.130
37330W        W 5704  28.602   3.339  13.381
37331W        W 5705   0.925  41.028   3.229
37332W        W 5706  27.168   6.183  11.880
37333W        W 5707  41.972   9.853  10.964
37334W        W 5708  44.466   2.890   0.444
37335W        W 5709  15.692  10.847  10.006
37336W        W 5710   0.262  28.478  12.478
37337W        W 5711  39.486  13.124   2.394
37338W        W 5712  14.201  40.822   3.263
37339W        W 5713  12.239  29.060   3.377
37340W        W 5714  18.217  35.903  14.955
37341W        W 5715  25.124   6.804  12.018
37342W        W 5716  25.613  40.363  12.427
37343W        W 5717  10.139  14.255   1.732
37344W        W 5718   8.193  21.739  13.853
37345W        W 5719   3.849  44.935   0.293
37346W        W 5720  43.993  28.584   3.351
37347W        W 5721  34.496  23.134   0.872
37348W        W 5722  26.680   6.707   3.815
37349W        W 5723  22.043  35.992   3.346
37350W        W 5724  34.517   6.781   1.227
37351W        W 5725  22.006  28.487   1.287
37352W        W 5726   8.186  14.640  14.889
37353W        W 5727  41.472   2.282   2.838
37354W        W 5728  38.830   1.877   2.767
37355W        W 5729  41.322  14.194   0.948
37356W        W 5730   7.911   2.394   4.663
37357W        W 5731  15.581  38.410   1.704
37358W        W 5732  21.669  37.508  13.434
37359W        W 5733  36.852  39.852   3.337
37360W        W 5734  38.874  22.095  11.030
37361W        W 5735  26.981  39.054   3.175
37362W        W 5736  30.584  20.600  11.569
37363W        W 5737   1.780  30.024   3.821
37364W        W 5738   5.854  42.338   2.873
37365W        W 5739  19.112  37.079  14.904
37366W        W 5740  44.847   6.201   4.648
37367W        W 5741  34.563  25.675   3.385
37368W        W 5742  34.087   6.288  10.563
37369W        W 5743  42.460  15.810  12.858
37370W        W 5744  41.527  21.559   1.850
37371W        W 5745  29.498  27.944   3.310
37372W        W 5746  20.760  11.685  10.889
37373W        W 5747  22.150   1.782   1.930
37374W        W 5748   0.327  39.540   1.827
37375W        W 5749   7.357  41.847   4.149
37376W        W 5750  12.643   3.749   2.665
37377W        W 5751   0.774  15.663  10.409
37378W        W 5752  44.405  10.776   3.831
37379W        W 5753  22.176  37.832   0.316
37380W        W 5754   4.797  41.361  14.341
37381W        W 5755  15.601  37.859  11.405
37382W        W 5756   4.706   3.312  10.942
37383W        W 5757  42.473   6.326  11.946
37384W        W 5758   3.239  17.619   1.714
37385W        W 5759   6.346  23.226   5.622
37386W        W 5760  18.102  34.952  13.460
37387W        W 5761  33.110  25.141   3.637
37388W        W 5762  37.348   1.259  13.516
37389W        W 5763   9.693  30.608   5.749
37390W        W 5764  43.471  40.933  14.513
37391W        W 5765  32.121   1.448   4.771
37392W        W 5766  37.022  18.696   2.808
37393W        W 5767   6.729  33.101   2.751
37394W        W 5768  26.651  30.107   0.962
37395W        W 5769  35.895  11.733  10.896
37396W        W 5770  33.973  39.931   3.294
37397W        W 5771  18.757  15.641  11.987
37398W        W 5772  10.836   0.381  10.450
37399W        W 5773  21.114  36.514   2.252
37400W        W 5774  10.838  26.081  10.446
37401W        W 5775  12.713   8.704   3.372
37402W        W 5776  40.506   6.823   4.824
37403W        W 5777  26.970  26.569  12.471
37404W        W 5778  43.954   2.814  10.608
37405W        W 5779  36.400  11.159   3.703
37406W        W 5780  36.499   8.236  14.309
37407W        W 5781  14.800  12.635  11.052
37408W        W 5782   9.654  33.618  14.384
37409W        W 5783  18.116   7.821  14.885
37410W        W 5784  31.985  22.094  11.436
37411W        W 5785  33.506   2.385  12.534
37412W        W 5786   4.448  42.779   2.199
37413W        W 5787  41.475  13.813  11.860
37414W        W 5788  27.551  12.627  12.826
37415W        W 5789  17.217  26.646  13.007
37416W        W 5790  30.606  10.678  11.472
37417W        W 5791   1.976  38.552   4.720
37418W        W 5792  29.164   1.798  13.489
37419W        W 5793  42.461  34.924   4.152
37420W        W 5794  16.666   0.808   0.817
37421W        W 5795  13.291   8.265  14.031
37422W        W 5796  34.614  39.525  12.440
37423W        W 5797  33.438  25.637   1.339
37424W        W 5798  42.355  18.608   3.174
37425W        W 5799  26.523  26.474  12.934
37426W        W 5800  21.176  28.619  12.519
37427W        W 5801  37.478  39.320  10.933
37428W        W 5802  44.398  19.736  10.922
37429W        W 5803  32.113  36.565  13.032
37430W        W 5804   7.847   4.933  13.460
37431W        W 5805   3.405  11.352   2.842
37432W        W 5806   3.898  29.569  14.516
37433W        W 5807  24.612  32.453   2.787
37434W        W 5808  38.469  14.292  12.987
37435W        W 5809   0.359  16.144   0.342
37436W        W 5810  14.097   9.706  13.424
37437W        W 5811   5.853  22.717   3.636
37438W        W 5812   7.765  17.110   1.230
37439W        W 5813  26.037   7.199   0.418
37440W        W 5814  13.790  19.063   3.754
37441W        W 5815   1.397  39.900  10.459
37442W        W 5816  21.257  42.896  10.412
37443W        W 5817  21.162  20.270   0.728
37444W        W 5818  32.117  40.849  11.890
37445W        W 5819  27.689  29.972   4.178
37446W        W 5820   6.781  41.522   1.810
37447W        W 5821   1.359   9.861  12.070
37448W        W 5822   3.771   1.834   5.228
37449W        W 5823  24.023  24.578  11.509
37450W        W 5824  24.004  11.673   2.233
37451W        W 5825  44.353  39.953   3.821
37452W        W 5826  32.478  16.673  14.872
37453W        W 5827  44.823  30.142   1.384
37454W        W 5828   9.837  22.620  10.591
37455W        W 5829  23.187  10.183  14.296
37456W        W 5830  16.783  35.939  13.818
37457W        W 5831  34.555  43.932   1.243
37458W        W 5832  22.081  37.854  13.447
37459W        W 5833  26.097   8.197  14.794
37460W        W 5834  15.124  14.748  11.879
37461W        W 5835   7.231   7.205   0.880
37462W        W 5836  31.441  32.478   1.767
37463W        W 5837   5.756  34.586  11.078
37464W        W 5838  10.305  37.032   1.278
37465W        W 5839  35.421   8.288   3.807
37466W        W 5840  44.369  25.183   3.292
37467W        W 5841  13.208  17.283  10.590
37468W        W 5842  12.813  30.971  14.346
37469W        W 5843  27.519  20.567  11.068
37470W        W 5844  18.716  42.298   0.405
37471W        W 5845   2.846   1.399  12.351
37472W        W 5846  35.057  11.805   3.758
37473W        W 5847   9.873  13.772   1.210
37474W        W 5848  32.915   9.348  11.922
37475W        W 5849  27.019   5.243   1.368
37476W        W 5850  44.767  24.026   2.196
37477W        W 5851  18.155  10.361   4.839
37478W        W 5852  27.575  35.090   0.738
37479W        W 5853  42.285   4.206  12.890
37480W        W 5854  38.480   4.765  10.965
37481W        W 5855  41.903  42.917   2.720
37482W        W 5856  24.207  20.182   4.806
37483W        W 5857  11.818  28.616   4.779
37484W        W 5858  41.858  14.305  12.370
37485W        W 5859   2.756   1.953   0.800
37486W        W 5860  22.584  27.195  14.940
37487W        W 5861  44.293  23.072  13.044
37488W        W 5862  28.597   9.355   3.784
37489W        W 5863  13.112  19.749  14.812
37490W        W 5864  10.340  33.060  12.363
37491W        W 5865  42.954  25.161   0.919
37492W        W 5866  35.537  39.321  11.457
37493W        W 5867  13.307  44.323   9.958
37494W        W 5868  34.893  33.117  10.458
37495W        W 5869  17.148  28.931   2.199
37496W        W 5870  21.671  35.000   4.730
37497W        W 5871  17.156  40.353  10.586
37498W        W 5872  28.514  23.559   0.253
37499W        W 5873  19.201  34.497   0.958
37500W        W 5874  42.023   3.418   4.639
37501W        W 5875  31.921  16.695   0.320
37502W        W 5876  18.698  16.183   0.814
37503W        W 5877  20.041  18.749   1.752
37504W        W 5878  40.466  39.811  13.908
37505W        W 5879  28.025   2.397  10.033
37506W        W 5880  33.016  12.646  10.615
37507W        W 5881  27.480  13.610  13.795
37508W        W 5882  21.078  10.752  10.462
37509W        W 5883  37.988  12.274  13.450
37510W        W 5884  12.250  36.362  13.996
37511W        W 5885  29.669  43.288   4.148
37512W        W 5886  11.319  24.084   0.844
37513W        W 5887   8.861   8.396   4.340
37514W        W 5888  20.651  16.573   3.844
37515W        W 5889  44.323  43.465   3.158
37516W        W 5890   8.663   5.253   3.308
37517W        W 5891  15.764  17.726   4.621
37518W        W 5892  44.839  17.167   4.777
37519W        W 5893  41.877  13.330  13.808
37520W        W 5894  41.336  17.137   0.897
37521W        W 5895   7.786  35.004   9.969
37522W        W 5896  29.618  23.140  13.421
37523W        W 5897  12.772  43.509  10.912
37524W        W 5898  12.625   5.306  11.467
37525W        W 5899  16.611  24.032  12.058
37526W        W 5900  11.728  11.760  14.404
37527W        W 5901  36.446   9.235   2.885
37528W        W 5902   1.849  36.385  12.339
37529W        W 5903  22.024  29.953  11.000
37530W        W 5904  31.431  22.013  14.353
37531W        W 5905   6.293  39.004  14.776
37532W        W 5906  43.309  14.589  12.882
37533W        W 5907  29.565  31.139   0.277
37534W        W 5908  37.036  35.916  13.037
37535W        W 5909  38.969  13.763   1.710
37536W        W 5910  42.831  29.567  13.992
37537W        W 5911  32.072   4.298  14.444
37538W        W 5912  16.271   6.811   0.781
37539W        W 5913   1.819  27.595   4.805
37540W        W 5914  10.272  18.587  11.399
37541W        W 5915   5.708   5.687  14.308
37542W        W 5916  29.147  17.639  11.880
37543W        W 5917  14.694  15.799   3.670
37544W        W 5918   3.396   2.472  12.036
37545W        W 5919   7.819  22.721   0.961
37546W        W 5920   7.740  36.048  12.859
37547W        W 5921  30.480  14.302  13.412
37548W        W 5922  30.552  37.975  11.489
37549W        W 5923   0.389  21.570  10.572
37550W        W 5924  19.039   4.815   0.936
37551W        W 5925  30.596  35.432   1.320
37552W        W 5926  10.730  23.704  13.816
37553W        W 5927   2.934  36.019  11.375
37554W        W 5928  33.108  29.969  10.907
37555W        W 5929  24.230  16.667   0.879
37556W        W 5930  37.335  18.141  10.931
37557W        W 5931   6.312  32.431   3.842
37558W        W 5932  33.508   2.944  13.847
37559W        W 5933  15.192   2.446   3.176
37560W        W 5934   0.773  34.962   3.326
37561W        W 5935  18.201  17.655  13.514
37562W        W 5936   3.444  13.301   0.365
37563W        W 5937  12.802   8.756   3.826
37564W        W 5938  28.964  11.775  11.081
37565W        W 5939  21.197  18.545   0.895
37566W        W 5940   5.900   0.750  10.582
37567W        W 5941  35.517  12.652   2.361
37568W        W 5942  31.006  28.015   3.355
37569W        W 5943  35.515  37.866   1.226
37570W        W 5944  15.798   0.787   2.418
37571W        W 5945  31.086  40.965  13.935
37572W        W 5946   1.844  20.543  11.442
37573W        W 5947  39.497  18.633  14.427
37574W        W 5948  16.755   6.894  11.879
37575W        W 5949   4.823  29.001   1.304
37576W        W 5950  26.575  27.162   0.752
37577W        W 5951  30.115  41.328  12.865
37578W        W 5952   3.215  29.430   4.327
37579W        W 5953  39.898  39.502  13.378
37580W        W 5954  18.133  29.103  11.953
37581W        W 5955   9.349  32.027  14.392
37582W        W 5956  16.696  27.126   2.202
37583W        W 5957   3.241   9.330  12.848
37584W        W 5958  29.070  41.373   4.216
37585W        W 5959  40.004  33.387  10.555
37586W        W 5960  44.904   0.911   2.271
37587W        W 5961  29.571  42.363  11.432
37588W        W 5962  36.088  38.436   2.770
37589W        W 5963  31.108  18.734  14.885
37590W        W 5964  22.619  14.159   0.332
37591W        W 5965   4.837   4.303  10.894
37592W        W 5966  11.868  26.130  14.354
37593W        W 5967   6.752  18.124  14.953
37594W        W 5968   7.750  26.154   5.273
37595W        W 5969  31.617  29.112   4.608
37596W        W 5970  33.060  38.437   3.720
37597W        W 5971   3.956   0.276   0.891
37598W        W 5972  19.626  37.902   1.424
37599W        W 5973  19.135  29.534   4.195
37600W        W 5974  28.579  19.185   0.469
37601W        W 5975  40.440  21.124   4.773
37602W        W 5976  32.986   0.879  13.346
37603W        W 5977  41.402  19.185  10.900
37604W        W 5978   4.276  32.403   3.727
37605W        W 5979   8.163  37.978   4.350
37606W        W 5980  34.426   6.184   0.389
37607W        W 5981   1.293  37.999   1.437
37608W        W 5982  14.261  40.515   1.930
37609W        W 5983  14.168  33.038   2.817
37610W        W 5984  34.026  42.032  11.045
37611W        W 5985   6.827  42.521   0.324
37612W        W 5986  21.186  14.195   3.724
37613W        W 5987  16.797  25.660   2.381
37614W        W 5988   8.671  20.073   1.359
37615W        W 5989   4.349  23.042   0.899
37616W        W 5990  32.629  24.134   1.703
37617W        W 5991   2.834  33.472   4.648
37618W        W 5992  14.261  38.457  14.882
37619W        W 5993   9.813  23.632   1.436
37620W        W 5994   5.873  30.640   3.630
37621W        W 5995  18.624  15.680  12.433
37622W        W 5996  15.206   6.806  13.825
37623W        W 5997  43.841  40.847  10.454
37624W        W 5998  28.006   6.704   1.400
37625W        W 5999  11.825   8.861  12.089
37626W        W 6000   8.781  31.906  13.474
37627W        W 6001  17.112  23.163  10.889
37628W        W 6002   4.220  33.992  13.829
37629W        W 6003  16.753  18.775  14.924
37630W        W 6004   9.834  41.303  13.013
37631W        W 6005  22.592  11.852  10.912
37632W        W 6006  38.371  16.126  14.770
37633W        W 6007  19.217  27.108  13.876
37634W        W 6008  24.536   5.311  12.855
37635W        W 6009   8.702  32.005   5.219
37636W        W 6010  26.515   1.896  13.806
37637W        W 6011  24.068  29.067  11.579
37638W        W 6012   3.800  39.929  14.773
37639W        W 6013   5.891  26.052   1.869
37640W        W 6014  42.411  41.416  14.362
37641W        W 6015   9.177  10.796  10.621
37642W        W 6016   9.351  39.964   0.331
37643W        W 6017  16.298   3.349  13.934
37644W        W 6018  13.278  30.118   1.329
37645W        W 6019  38.861   0.858   4.699
37646W        W 6020  44.325  21.724   2.772
37647W        W 6021  38.344  33.936  12.568
37648W        W 6022  25.531  15.142   5.775
37649W        W 6023   6.322  19.697   1.224
37650W        W 6024  15.287   2.335   4.340
37651W        W 6025  16.200  12.333  12.510
37652W        W 6026  27.507  18.698  14.353
37653W        W 6027  44.320  21.692  10.606
37654W        W 6028  22.034  10.712  12.881
37655W        W 6029  11.146  10.185  11.393
37656W        W 6030   6.689   1.442   2.855
37657W        W 6031   3.803  19.132   1.870
37658W        W 6032   1.397   4.234   4.305
37659W        W 6033   6.914  38.980   1.393
37660W        W 6034  29.623  23.062  11.920
37661W        W 6035  33.474  21.131  14.953
37662W        W 6036   3.732  38.042  13.440
37663W        W 6037   9.319  43.835  14.456
37664W        W 6038  30.478  44.443   1.322
37665W        W 6039  15.582   0.927   3.763
37666W        W 6040  44.755  17.282  14.310
37667W        W 6041   6.859  23.038   0.308
37668W        W 6042  17.627   3.721  12.875
37669W        W 6043  44.428   1.745   9.980
37670W        W 6044   3.892  40.305   4.803
37671W        W 6045  19.124   9.866  12.059
37672W        W 6046  28.153  27.049   4.823
37673W        W 6047  39.891  44.353   2.803
37674W        W 6048  43.322  26.692  12.828
37675W        W 6049   1.950  41.829  12.492
37676W        W 6050  32.476   5.338  13.996
37677W        W 6051  12.663  28.129  13.999
37678W        W 6052  33.522   7.376   4.665
37679W        W 6053  11.797  31.939   2.741
37680W        W 6054  23.075   5.240   2.893
37681W        W 6055  22.592  32.547  13.351
37682W        W 6056  21.565  43.318   0.319
37683W        W 6057  40.950  25.177   1.829
37684W        W 6058  25.515  24.053  12.851
37685W        W 6059  19.544  34.546   2.736
37686W        W 6060  37.077  38.435  11.017
37687W        W 6061  34.069  24.067   3.745
37688W        W 6062  32.428  26.967  14.975
37689W        W 6063  23.198  19.040   2.711
37690W        W 6064  38.387  25.665   1.311
37691W        W 6065  27.667  24.509   0.473
37692W        W 6066  44.007  11.296  14.909
37693W        W 6067   6.880  18.615   4.684
37694W        W 6068  27.616  21.636   0.402
37695W        W 6069  28.040  17.585   0.471
37696W        W 6070  21.596  13.800   1.278
37697W        W 6071   6.286  44.917  11.023
37698W        W 6072  22.702  33.919   2.869
37699W        W 6073  16.306  22.579   4.182
37700W        W 6074  39.958   6.843   4.291
37701W        W 6075   5.274  20.067   2.892
37702W        W 6076  29.962  12.314  14.935
37703W        W 6077  10.708  24.200  14.942
37704W        W 6078  42.838  16.128  14.978
37705W        W 6079  18.160  30.160  11.894
37706W        W 6080   6.296  15.273   1.740
37707W        W 6081  33.885   3.285  10.466
37708W        W 6082  42.304   3.767  14.785
37709W        W 6083  39.408   8.290  13.875
37710W        W 6084  21.120  13.350  11.593
37711W        W 6085  13.839  39.885   4.808
37712W        W 6086  21.616  36.570   4.215
37713W        W 6087  21.590   3.286   1.712
37714W        W 6088   6.333  40.932  12.041
37715W        W 6089   6.911   3.859  14.852
37716W        W 6090  43.316  19.710  14.840
37717W        W 6091  39.816  31.448   0.395
37718W        W 6092   0.479  28.501   2.869
37719W        W 6093  28.104  25.700   0.273
37720W        W 6094  17.778  40.948  13.480
37721W        W 6095  29.923  42.425   2.841
37722W        W 6096  18.776  38.844  11.382
37723W        W 6097  15.174  17.788  13.011
37724W        W 6098  38.484   1.450   2.309
37725W        W 6099  25.994  22.200  10.482
37726W        W 6100  24.224  42.321  14.393
37727W        W 6101  24.068  42.393  13.835
37728W        W 6102  17.607  43.932  14.341
37729W        W 6103  10.242  18.175   2.843
37730W        W 6104  26.132  19.730  14.814
37731W        W 6105  37.465  15.093  14.396
37732W        W 6106  28.101  42.841  13.392
37733W        W 6107  31.128   8.759   2.183
37734W        W 6108  15.656  32.989  11.443
37735W        W 6109  33.023  14.150   2.845
37736W        W 6110  31.003  39.862   0.339
37737W        W 6111  30.444  29.095   2.324
37738W        W 6112  10.843  28.457   2.817
37739W        W 6113  40.999  44.819   0.739
37740W        W 6114  12.141  28.540   3.247
37741W        W 6115  16.130   9.721  11.962
37742W        W 6116  43.275  23.134  10.935
37743W        W 6117  31.975  14.822  14.909
37744W        W 6118  31.444  17.731  13.355
37745W        W 6119  28.103  28.605   1.764
37746W        W 6120  23.203  17.626  10.645
37747W        W 6121  10.805  27.038  14.803
37748W        W 6122  19.671  44.358  10.581
37749W        W 6123  22.686   0.266   3.803
37750W        W 6124  16.585  14.739  10.932
37751W        W 6125  40.872  38.434   0.843
37752W        W 6126   9.326  23.568  12.507
37753W        W 6127  39.494   0.412  14.985
37754W        W 6128  19.565  25.607  13.892
37755W        W 6129   7.833  44.766  14.507
37756W        W 6130  30.079   4.402   0.255
37757W        W 6131   8.824  28.598  14.420
37758W        W 6132   7.802  13.335  14.315
37759W        W 6133  41.415   9.722  11.475
37760W        W 6134  40.922  22.087  10.948
37761W        W 6135  14.799   5.749   1.218
37762W        W 6136  30.609   5.281  10.524
37763W        W 6137  14.778  28.597   3.695
37764W        W 6138  25.996  15.743  10.098
37765W        W 6139   4.839  39.950  13.980
37766W        W 6140  18.583  10.278   0.461
37767W        W 6141  15.195  36.083   3.315
37768W        W 6142  10.661   4.881   3.219
37769W        W 6143  29.956   1.767  12.458
37770W        W 6144  15.300   4.732   3.327
37771W        W 6145  30.515  36.017  11.905
37772W        W 6146  16.089  21.245  11.008
37773W        W 6147  27.140  21.025  13.517
37774W        W 6148  44.845  23.179   0.254
37775W        W 6149  30.930  20.075   3.724
37776W        W 6150  26.602  10.301  14.350
37777W        W 6151  42.798  40.430  13.364
37778W        W 6152  34.426  22.506  13.932
37779W        W 6153  36.580  11.215   4.822
37780W        W 6154  24.125   3.862  11.928
37781W        W 6155  18.134  32.969   2.716
37782W        W 6156  34.374   6.241   3.316
37783W        W 6157  21.061  40.303   2.821
37784W        W 6158  35.922  38.856  14.339
37785W        W 6159   2.435  37.417  12.412
37786W        W 6160  39.820  15.089  10.926
37787W        W 6161  13.698  33.086   4.254
37788W        W 6162  41.994  16.311  12.427
37789W        W 6163  39.520  19.614  14.505
37790W        W 6164   1.462  39.369   0.876
37791W        W 6165   8.760  44.777   1.900
37792W        W 6166  28.949   7.298  14.328
37793W        W 6167  38.386  41.329   2.414
37794W        W 6168  20.106  27.470  14.347
37795W        W 6169   7.774   0.972  11.873
37796W        W 6170  22.238   0.445  10.410
37797W        W 6171  23.607  29.972  10.954
37798W        W 6172  38.910  20.115   0.343
37799W        W 6173  21.589  41.384  10.454
37800W        W 6174  13.833  44.456   2.253
37801W        W 6175   0.920   4.765  10.084
37802W        W 6176  34.960  44.422   1.826
37803W        W 6177  28.965   0.984  10.471
37804W        W 6178  26.150  27.029  10.945
37805W        W 6179  15.257  31.479  14.388
37806W        W 6180  19.757  24.010   2.792
37807W        W 6181  20.698   6.416   4.175
37808W        W 6182   0.365  17.159  12.867
37809W        W 6183  35.452   2.229   0.286
37810W        W 6184  37.883  25.992  11.097
37811W        W 6185  10.345  21.163  14.939
37812W        W 6186  35.946   2.260   2.189
37813W        W 6187  42.974  44.768   3.758
37814W        W 6188  16.659   1.399   4.688
37815W        W 6189  16.577   8.295   5.272
37816W        W 6190   9.354  42.901  11.442
37817W        W 6191   5.426  36.018  14.022
37818W        W 6192  19.056  33.016  14.277
37819W        W 6193  10.657  18.750  12.019
37820W        W 6194  42.336   5.787  13.917
37821W        W 6195   2.756  10.219   4.231
37822W        W 6196  29.620  28.493   4.813
37823W        W 6197   7.292  26.611   4.664
37824W        W 6198  26.658  14.287   2.760
37825W        W 6199  27.986  32.999   0.248
37826W        W 6200   7.793   0.357  11.531
37827W        W 6201  37.984  41.328  11.551
37828W        W 6202  28.078  27.125   0.306
37829W        W 6203   6.240  16.801  11.604
37830W        W 6204  26.206  21.571   2.372
37831W        W 6205  11.151  18.113   0.870
37832W        W 6206   1.390  34.384   4.832
37833W        W 6207  38.993   6.832   1.887
37834W        W 6208  36.460   1.765  12.528
37835W        W 6209  25.641  26.561   3.663
37836W        W 6210  25.589  27.507   3.779
37837W        W 6211   1.977  36.511   0.908
37838W        W 6212  23.201   2.342  10.638
37839W        W 6213  24.120  17.724   0.248
37840W        W 6214  17.606  38.485   0.767
37841W        W 6215  33.974  21.206   2.891
37842W        W 6216  31.036  19.704  10.532
37843W        W 6217  30.501   4.430  11.982
37844W        W 6218  28.554   3.330  10.975
37845W        W 6219   6.705  36.470  10.984
37846W        W 6220  14.321   4.776  12.072
37847W        W 6221  37.961   0.909  14.953
37848W        W 6222  29.096  44.455   4.198
37849W        W 6223  34.095  14.790  14.848
37850W        W 6224  13.199  41.388   4.227
37851W        W 6225   5.406  34.599  12.366
37852W        W 6226  27.623  14.125  12.826
37853W        W 6227  21.119  35.083   5.200
37854W        W 6228  31.056   8.288   4.268
37855W        W 6229  29.921  44.475   4.223
37856W        W 6230   9.753   5.687  13.520
37857W        W 6231  19.626  39.501   4.744
37858W        W 6232  38.343  20.235  13.510
37859W        W 6233  23.727  13.129  13.399
37860W        W 6234  26.470  43.405  10.913
37861W        W 6235  38.821  14.229   0.748
37862W        W 6236  24.173  23.116   0.741
37863W        W 6237  35.974   3.400   3.300
37864W        W 6238   9.268  14.831   3.276
37865W        W 6239   2.855  23.198  13.399
37866W        W 6240  26.689  25.684   4.620
37867W        W 6241   8.827   3.344   2.299
37868W        W 6242  33.477  15.711  11.036
37869W        W 6243  30.051  44.494   5.642
37870W        W 6244   1.934  38.561   3.267
37871W        W 6245  24.541  36.516  13.380
37872W        W 6246   2.879  13.331   2.771
37873W        W 6247   2.744  38.391   2.694
37874W        W 6248  40.844  20.767   4.278
37875W        W 6249   0.268  15.260   1.228
37876W        W 6250  14.272  44.760   1.415
37877W        W 6251  27.575  18.215  14.765
37878W        W 6252   1.407  18.743   0.847
37879W        W 6253  37.526   9.686  13.358
37880W        W 6254   7.802  41.931  13.425
37881W        W 6255  37.403  12.857   1.881
37882W        W 6256  43.800  38.438  10.585
37883W        W 6257  35.969   6.416  11.612
37884W        W 6258  44.905   5.839   1.798
37885W        W 6259  16.723  37.888   0.899
37886W        W 6260  18.737   0.939  14.956
37887W        W 6261  12.849  14.700   3.719
37888W        W 6262  19.739   2.466   0.814
37889W        W 6263  14.752  18.235   1.818
37890W        W 6264  19.242  26.200   0.383
37891W        W 6265  11.647  21.232  10.476
37892W        W 6266  34.958   5.820  13.522
37893W        W 6267   0.958   9.372   0.787
37894W        W 6268   5.781   4.740   1.411
37895W        W 6269  20.657  39.380   2.389
37896W        W 6270  24.122  10.287  11.422
37897W        W 6271  33.955  35.370  13.928
37898W        W 6272  34.998  15.761  11.096
37899W        W 6273  35.497  39.820   1.255
37900W        W 6274  44.999  14.662   1.259
37901W        W 6275  34.949  19.253   3.850
37902W        W 6276  16.689  27.533   4.304
37903W        W 6277  28.530  27.538  14.277
37904W        W 6278   9.335  38.546   3.755
37905W        W 6279  12.294  18.121  11.413
37906W        W 6280  43.906  36.586   2.336
37907W        W 6281  27.650  17.290  11.572
37908W        W 6282  38.466  37.471   2.326
37909W        W 6283  43.282  14.637  11.941
37910W        W 6284  44.765   8.174  10.432
37911W        W 6285  16.753  19.125   4.210
37912W        W 6286   9.705  28.441   5.779
37913W        W 6287  22.125  19.073  12.485
37914W        W 6288  18.219   7.256   3.383
37915W        W 6289  11.805  13.188  12.933
37916W        W 6290  43.931  13.661  14.502
37917W        W 6291   1.263  41.447   4.297
37918W        W 6292  32.048  42.777  14.446
37919W        W 6293   0.363   2.845   0.292
37920W        W 6294   5.900  44.937   1.287
37921W        W 6295  38.526  38.985  14.924
37922W        W 6296  11.303  35.896  11.452
37923W        W 6297   4.727  37.872  14.024
37924W        W 6298  16.662   5.301   1.933
37925W        W 6299   7.842   4.215  11.438
37926W        W 6300  29.947  42.483   4.167
37927W        W 6301  10.255  21.683   3.635
37928W        W 6302  37.355   3.309  12.891
37929W        W 6303   0.807  32.604   3.720
37930W        W 6304  34.096  33.573   0.848
37931W        W 6305  11.708  17.604  13.803
37932W        W 6306  30.121  18.742   0.872
37933W        W 6307  15.814   0.930  13.045
37934W        W 6308  44.939   8.888   0.882
37935W        W 6309  38.504  41.852   0.855
37936W        W 6310   4.903  10.815   0.481
37937W        W 6311  40.957  24.084  13.828
37938W        W 6312   1.413  33.439   3.769
37939W        W 6313   9.214  44.271  12.378
37940W        W 6314  26.695  28.134   2.741
37941W        W 6315  44.422  14.295  11.542
37942W        W 6316  19.091  31.083   4.330
37943W        W 6317  38.909   5.379  11.122
37944W        W 6318  32.006  32.628  12.987
37945W        W 6319   2.879  41.422  12.342
37946W        W 6320  23.567   2.889  14.931
37947W        W 6321  38.868  18.233  14.316
37948W        W 6322  13.230  14.628   3.335
37949W        W 6323  10.295  28.023   2.212
37950W        W 6324  26.551  40.907  14.001
37951W        W 6325  18.663  44.374   4.308
37952W        W 6326  10.268  28.654  14.775
37953W        W 6327  28.524  28.583  12.932
37954W        W 6328  14.161  43.810  14.347
37955W        W 6329  40.518  41.973   1.246
37956W        W 6330  24.199   7.767   3.703
37957W        W 6331  34.879  39.559   0.447
37958W        W 6332  14.693   6.276   3.157
37959W        W 6333  17.581   9.198   3.693
37960W        W 6334   4.913  33.013  10.572
37961W        W 6335  25.974   2.364   0.807
37962W        W 6336  28.077  23.715   4.654
37963W        W 6337   5.316   9.386  12.959
37964W        W 6338  39.918  18.591  13.885
37965W        W 6339  30.475  15.652  13.803
37966W        W 6340  22.547   6.794   3.681
37967W        W 6341   9.754  32.020  14.288
37968W        W 6342  36.406  29.924   2.769
37969W        W 6343   6.351   9.671   3.312
37970W        W 6344  43.809  17.160   0.461
37971W        W 6345  44.997  22.159   1.265
37972W        W 6346  24.706  33.410  13.415
37973W        W 6347  36.355   9.273  13.398
37974W        W 6348   2.334  38.025  14.489
37975W        W 6349  17.253  35.361  13.878
37976W        W 6350  40.032   3.357   4.838
37977W        W 6351  38.965   7.772  13.398
37978W        W 6352  38.071  19.174  13.990
37979W        W 6353  20.617  10.332  11.110
37980W        W 6354   6.330   1.796  10.914
37981W        W 6355  11.365  33.476  12.374
37982W        W 6356  16.159  28.675   0.897
37983W        W 6357  23.000   2.943   3.341
37984W        W 6358  39.322  37.001   4.257
37985W        W 6359  28.570  25.086  14.784
37986W        W 6360  35.107  35.925  13.934
37987W        W 6361  41.440   9.791  13.903
37988W        W 6362  17.135   9.258   0.778
37989W        W 6363  38.377  19.712  13.533
37990W        W 6364   2.960  42.398   3.667
37991W        W 6365  42.928  21.023   4.219
37992W        W 6366  10.686   0.836   0.808
37993W        W 6367  36.423  39.450  10.640
37994W        W 6368   9.669   0.752  13.821
37995W        W 6369   0.437  42.989   2.215
37996W        W 6370  21.522   5.822  12.921
37997W        W 6371  37.469  19.081  12.931
37998W        W 6372   1.816  38.407   1.416
37999W        W 6373  36.555  11.282  13.884
38000W        W 6374  37.353  33.096  13.326
38001W        W 6375  21.172  17.247  13.881
38002W        W 6376   0.438  32.970  12.875
38003W        W 6377  43.305   9.770  13.857
38004W        W 6378  25.106  44.899   4.160
38005W        W 6379   8.817  29.972  13.039
38006W        W 6380   9.851  30.064  13.335
38007W        W 6381  33.439  44.790   0.752
38008W        W 6382  41.395  25.631  12.512
38009W        W 6383  18.205  33.473  10.065
38010W        W 6384  20.045   8.761  13.916
38011W        W 6385  15.094   5.276  14.369
38012W        W 6386   7.764  20.526  14.437
38013W        W 6387  40.882   8.381   0.434
38014W        W 6388  20.591  11.205  13.027
38015W        W 6389  24.536  12.626  11.475
38016W        W 6390   2.848   8.704  14.940
38017W        W 6391  31.961  39.936  11.044
38018W        W 6392  14.769  24.002   4.352
38019W        W 6393  42.295  27.556   2.412
38020W        W 6394  13.732   4.944  10.615
38021W        W 6395  38.369   5.790   5.594
38022W        W 6396  25.577  19.133  13.546
38023W        W 6397  22.044  35.504   4.729
38024W        W 6398  37.015  38.398   2.202
38025W        W 6399  41.511  11.273   0.948
38026W        W 6400  32.013  26.206  13.828
38027W        W 6401  35.404  40.011  13.466
38028W        W 6402  10.701  15.169   3.807
38029W        W 6403   8.830  43.330  12.047
38030W        W 6404  44.804  41.502   0.277
38031W        W 6405  25.198   1.401   3.646
38032W        W 6406   1.858  23.069   0.293
38033W        W 6407  39.061  40.309   1.901
38034W        W 6408  40.430  30.594  14.804
38035W        W 6409   5.791  37.573   5.134
38036W        W 6410   4.444  44.789   4.694
38037W        W 6411  39.466  36.391  12.872
38038W        W 6412  13.679   5.268   4.325
38039W        W 6413  37.574   8.346  12.862
38040W        W 6414  39.014  29.056   3.799
38041W        W 6415   3.811  16.208  11.001
38042W        W 6416  34.883  22.605  10.990
38043W        W 6417  41.867   3.830  11.425
38044W        W 6418  23.070  41.862   4.743
38045W        W 6419  39.430  22.024  11.609
38046W        W 6420  38.964  42.292   3.707
38047W        W 6421  18.591  44.947   3.713
38048W        W 6422   6.766  17.228   2.805
38049W        W 6423  10.198   6.791   4.601
38050W        W 6424  33.487  40.494   2.264
38051W        W 6425  26.025  29.013   1.232
38052W        W 6426  33.389  34.399  12.877
38053W        W 6427  32.596  16.574   3.765
38054W        W 6428  40.878   1.275  14.882
38055W        W 6429  40.799  32.991   4.816
38056W        W 6430  32.917  21.207  13.505
38057W        W 6431   2.252  11.243  10.460
38058W        W 6432  34.602   9.843   1.384
38059W        W 6433  15.694  22.573  12.422
38060W        W 6434  21.718  16.108  10.599
38061W        W 6435  24.645  42.833   1.356
38062W        W 6436  11.240   2.359  12.908
38063W        W 6437  19.228   4.297  14.301
38064W        W 6438  13.189   1.810  13.796
38065W        W 6439  29.545  36.530   3.681
38066W        W 6440  12.715  37.470  12.067
38067W        W 6441  24.128  10.374   0.256
38068W        W 6442  38.390  42.366   1.349
38069W        W 6443  27.001  32.606   3.341
38070W        W 6444   9.206  39.903  10.468
38071W        W 6445  20.116  35.000  13.827
38072W        W 6446   4.385  14.283  12.883
38073W        W 6447   3.794   6.720  11.108
38074W        W 6448  17.611  11.360   3.776
38075W        W 6449  44.810   5.211  13.370
38076W        W 6450   2.876  31.973  12.842
38077W        W 6451   7.900   9.882   1.826
38078W        W 6452  30.594  13.269  13.952
38079W        W 6453   4.817  18.053   2.243
38080W        W 6454  30.638  42.520   4.266
38081W        W 6455  42.834  42.324  13.521
38082W        W 6456   3.270  28.104   4.230
38083W        W 6457   1.859  16.643  14.302
38084W        W 6458  35.028  35.976   2.752
38085W        W 6459  25.135  31.068   2.355
38086W        W 6460  11.640  21.236   3.277
38087W        W 6461  44.777  38.036   0.399
38088W        W 6462  13.199  23.169  14.837
38089W        W 6463  40.325   7.878  12.412
38090W        W 6464  25.983   2.912   4.657
38091W        W 6465  23.015  40.036   3.153
38092W        W 6466  17.157  44.976   2.692
38093W        W 6467  20.238  42.996   2.303
38094W        W 6468  28.524  28.518   2.789
38095W        W 6469  20.203  19.675   2.883
38096W        W 6470  15.321   2.361  11.939
38097W        W 6471  40.844  28.624   1.811
38098W        W 6472   7.692  28.102  10.099
38099W        W 6473  27.143  17.067   0.931
38100W        W 6474   3.389  15.616  13.028
38101W        W 6475  27.138  14.171  14.760
38102W        W 6476   4.902  34.931  14.469
38103W        W 6477  34.880  41.322  14.420
38104W        W 6478  40.311  26.019  12.079
38105W        W 6479  43.919   8.875   0.325
38106W        W 6480  25.115  32.024  11.491
38107W        W 6481  35.859  17.195  11.587
38108W        W 6482  25.651  41.386   4.719
38109W        W 6483  13.731   5.428  14.881
38110W        W 6484  27.504  38.841   0.853
38111W        W 6485  25.033  12.330  12.577
38112W        W 6486  43.358   1.779  11.494
38113W        W 6487  12.817  21.234  11.976
38114W        W 6488  30.927  25.712  11.493
38115W        W 6489  28.935  20.601  13.474
38116W        W 6490   3.776   1.908   1.292
38117W        W 6491  14.616   6.241  11.560
38118W        W 6492  37.058   5.697  11.385
38119W        W 6493  20.157  22.109  14.951
38120W        W 6494  32.120   0.454  11.101
38121W        W 6495   2.851   9.645   0.860
38122W        W 6496  28.038  43.515   0.916
38123W        W 6497  26.165  18.625   3.156
38124W        W 6498  19.577   2.381   2.752
38125W        W 6499  26.025  40.319  13.451
38126W        W 6500  11.362   0.940  13.434
38127W        W 6501  18.203  19.207   3.252
38128W        W 6502  27.497   2.290   0.273
38129W        W 6503  11.851  30.619   9.924
38130W        W 6504  14.593  25.026   0.367
38131W        W 6505   1.382  41.946  11.865
38132W        W 6506  35.514   6.289   3.768
38133W        W 6507  25.667  13.644  10.937
38134W        W 6508  21.519   1.323  12.019
38135W        W 6509  44.923  32.956   1.364
38136W        W 6510  37.360  44.356  12.538
38137W        W 6511  11.845  33.437  10.631
38138W        W 6512  15.806  35.597  11.921
38139W        W 6513  28.557   4.425  14.425
38140W        W 6514  33.032   8.396   2.801
38141W        W 6515  25.017  36.041  10.462
38142W        W 6516  21.598  36.963  10.453
38143W        W 6517  37.347  14.286   4.648
38144W        W 6518   4.242  30.467   4.708
38145W        W 6519  40.960  42.020  12.563
38146W        W 6520  20.570  13.810   0.893
38147W        W 6521  29.079  12.126  14.836
38148W        W 6522  16.163  19.128   0.480
38149W        W 6523  12.317  13.662  12.886
38150W        W 6524  29.964  42.895   4.262
38151W        W 6525  31.475  19.705  11.484
38152W        W 6526  27.999  18.222  10.059
38153W        W 6527   0.746  10.316  14.028
38154W        W 6528  15.809  39.935   3.756
38155W        W 6529  24.037  18.608   3.330
38156W        W 6530   9.876  19.657  13.347
38157W        W 6531  22.027   6.318   0.329
38158W        W 6532  33.498  38.917  13.336
38159W        W 6533  17.183  26.969  14.881
38160W        W 6534   5.339  38.023  13.823
38161W        W 6535  38.867  27.655   3.167
38162W        W 6536  20.600  44.006  10.970
38163W        W 6537  34.110  32.916   2.257
38164W        W 6538  31.424  34.938  14.905
38165W        W 6539  35.361  41.982   1.801
38166W        W 6540  25.573  20.045  10.934
38167W        W 6541  25.964  15.280   5.258
38168W        W 6542  10.198  30.584   0.886
38169W        W 6543  30.553  32.017   4.274
38170W        W 6544  20.038  36.372   0.296
38171W        W 6545  16.252  16.074  14.501
38172W        W 6546   9.393  10.268   4.351
38173W        W 6547   4.210  43.927  10.970
38174W        W 6548   1.931  17.743  10.421
38175W        W 6549  34.874   8.854   0.442
38176W        W 6550  36.361  29.546  14.848
38177W        W 6551  26.055  24.587   2.694
38178W        W 6552  26.034  19.168   2.677
38179W        W 6553   2.870   4.930  12.882
38180W        W 6554  43.019   0.932   1.222
38181W        W 6555  34.444  41.944  10.632
38182W        W 6556  15.327  21.025   0.360
38183W        W 6557  37.060  35.386   2.736
38184W        W 6558  22.516  26.037   1.780
38185W        W 6559  37.386  19.720   3.776
38186W        W 6560   3.341  31.948   5.304
38187W        W 6561  20.567  44.890  13.010
38188W        W 6562  33.511   6.882   3.708
38189W        W 6563  37.509  30.445  12.876
38190W        W 6564  15.729   0.957   1.256
38191W        W 6565  19.665  12.798   0.300
38192W        W 6566  10.764  35.067   3.174
38193W        W 6567  13.279  36.485  14.446
38194W        W 6568   3.459  41.529   4.142
38195W        W 6569  22.692   6.813  13.327
38196W        W 6570   5.239  32.409  11.997
38197W        W 6571   8.757  40.386   0.461
38198W        W 6572  39.465   1.311   3.842
38199W        W 6573  13.736  31.928  10.570
38200W        W 6574   9.773  18.257   3.647
38201W        W 6575  29.632   8.699   3.161
38202W        W 6576  14.162  31.501  12.527
38203W        W 6577  37.372  11.326   2.830
38204W        W 6578  34.970  25.975   3.307
38205W        W 6579  31.431  41.811  13.991
38206W        W 6580   9.737   7.245  12.011
38207W        W 6581  35.910  24.718   1.814
38208W        W 6582  16.297   2.238  12.565
38209W        W 6583   0.914  21.080  14.789
38210W        W 6584  43.019  22.710   1.430
38211W        W 6585   3.905  34.591  12.878
38212W        W 6586  27.069  39.416   2.898
38213W        W 6587   6.780  26.169   9.451
38214W        W 6588  19.233  43.419  14.999
38215W        W 6589  19.201  29.992  14.399
38216W        W 6590   9.232  40.023   2.316
38217W        W 6591  19.122  24.202  11.974
38218W        W 6592  41.876  17.284   0.960
38219W        W 6593  18.596  21.177  12.983
38220W        W 6594  30.950  25.488   4.703
38221W        W 6595  30.971  12.641   5.317
38222W        W 6596  26.524  21.024  10.458
38223W        W 6597  25.174  16.639   4.308
38224W        W 6598  27.050  44.783  12.923
38225W        W 6599  37.512  39.501   3.645
38226W        W 6600   3.306   5.427   1.750
38227W        W 6601  14.645  25.186   2.218
38228W        W 6602  10.208  23.061   2.829
38229W        W 6603  42.942  13.621   4.260
38230W        W 6604   2.964   3.337  13.985
38231W        W 6605  42.951  12.310   1.771
38232W        W 6606  25.133   8.168  13.321
38233W        W 6607  12.356   5.763  10.955
38234W        W 6608  10.349  44.280  14.345
38235W        W 6609  37.073  23.092   2.882
38236W        W 6610  30.524  41.526   0.931
38237W        W 6611   5.285  36.393  12.368
38238W        W 6612  39.048  22.651   1.354
38239W        W 6613   7.889  16.599  11.447
38240W        W 6614  19.666  11.807   4.340
38241W        W 6615  12.209  38.901   1.369
38242W        W 6616  11.627  30.073   4.233
38243W        W 6617  10.362   9.845  13.021
38244W        W 6618  10.228   2.944   1.830
38245W        W 6619  17.760  40.460   4.804
38246W        W 6620  34.472  44.430  12.509
38247W        W 6621  39.326  13.657   0.961
38248W        W 6622  43.908  31.553   1.741
38249W        W 6623  24.650  16.629   1.396
38250W        W 6624  43.488  32.422   1.892
38251W        W 6625  43.935  11.191  12.403
38252W        W 6626  19.619  21.716  10.468
38253W        W 6627   6.220   2.447  13.316
38254W        W 6628   3.221   6.708   3.673
38255W        W 6629   8.857  19.712   2.666
38256W        W 6630  33.058  23.086   0.915
38257W        W 6631   4.272  33.061   0.928
38258W        W 6632  26.689  28.665   3.311
38259W        W 6633  33.110   1.261   1.405
38260W        W 6634   1.869   7.353   0.743
38261W        W 6635  31.575  26.551   2.201
38262W        W 6636  25.203  31.909   2.803
38263W        W 6637  10.682  35.394  14.487
38264W        W 6638  36.860   9.811  11.894
38265W        W 6639   7.705  15.148  14.501
38266W        W 6640   8.720  32.507  14.795
38267W        W 6641  29.997  38.875   0.279
38268W        W 6642  29.006  31.965  13.808
38269W        W 6643   2.277  28.159   2.793
38270W        W 6644  35.919   4.299  12.021
38271W        W 6645  16.766   5.425   4.770
38272W        W 6646   8.850  28.959  13.480
38273W        W 6647  17.177  11.634   4.239
38274W        W 6648   2.426   4.905   4.292
38275W        W 6649  39.825   6.754  12.413
38276W        W 6650  18.151  21.206  11.418
38277W        W 6651   2.782  16.630   3.767
38278W        W 6652  43.278  36.577   2.766
38279W        W 6653  15.612   9.228  14.446
38280W        W 6654  42.835  36.529   4.287
38281W        W 6655  15.795  18.145   4.133
38282W        W 6656   0.906   0.977   2.777
38283W        W 6657  21.084  13.826   0.763
38284W        W 6658  42.829  24.186   2.857
38285W        W 6659   3.263  34.514  10.944
38286W        W 6660  39.334  17.754   1.762
38287W        W 6661  25.470  11.362   3.365
38288W        W 6662   7.715  14.160  10.619
38289W        W 6663  35.560  27.461  14.850
38290W        W 6664   1.357  32.013   0.774
38291W        W 6665   2.956  43.470  14.397
38292W        W 6666  26.207  23.999  14.466
38293W        W 6667  25.533  10.154  10.508
38294W        W 6668   9.645  36.016   0.902
38295W        W 6669   8.265   5.693  12.023
38296W        W 6670  36.030  37.554   2.892
38297W        W 6671  17.215  24.199   3.690
38298W        W 6672   1.918  23.609   1.256
38299W        W 6673  32.913  32.416   2.261
38300W        W 6674  19.724   7.378   3.282
38301W        W 6675  15.114   7.193  12.539
38302W        W 6676  10.756  41.795  13.418
38303W        W 6677   7.241  29.616   2.737
38304W        W 6678  35.046   2.446   2.351
38305W        W 6679  39.451  31.552   1.807
38306W        W 6680  35.464   3.740  10.940
38307W        W 6681  13.276  12.308   4.212
38308W        W 6682  43.461  14.648   2.721
38309W        W 6683  29.635   0.870   1.811
38310W        W 6684  10.156  14.332  13.356
38311W        W 6685  14.209  14.683  10.626
38312W        W 6686  16.112  17.087   2.768
38313W        W 6687   7.758  27.133   4.337
38314W        W 6688  36.010   8.166   2.885
38315W        W 6689  27.662   8.879  12.833
38316W        W 6690   9.664  37.408   0.324
38317W        W 6691  11.670  39.397  12.517
38318W        W 6692   1.918   5.746  13.875
38319W        W 6693  15.252  38.381  13.843
38320W        W 6694  30.563  31.151  11.998
38321W        W 6695  35.420  10.838  11.994
38322W        W 6696  22.725  36.581  12.053
38323W        W 6697   6.814   9.368   2.668
38324W        W 6698  14.304  33.937   1.787
38325W        W 6699  42.447  37.480   4.140
38326W        W 6700  26.497  21.207  12.826
38327W        W 6701  25.147   0.306   1.289
38328W        W 6702   6.745  30.018   2.307
38329W        W 6703   8.386  12.627  11.080
38330W        W 6704  28.462  28.084   1.840
38331W        W 6705  23.154  22.745   0.477
38332W        W 6706  18.780   6.912   2.673
38333W        W 6707  25.641  15.725   1.850
38334W        W 6708  31.967  28.625   1.234
38335W        W 6709  30.086  41.320   3.861
38336W        W 6710  32.907  43.831  10.624
38337W        W 6711  39.921  23.180   2.688
38338W        W 6712   3.217  39.935   0.313
38339W        W 6713  18.230  10.796   2.220
38340W        W 6714  40.914  35.012  12.045
38341W        W 6715  24.561  22.136   4.614
38342W        W 6716  23.123  35.900   2.695
38343W        W 6717  30.909  41.382  10.026
38344W        W 6718   1.954  40.547   2.664
38345W        W 6719  13.628  28.613   0.847
38346W        W 6720  29.652  39.553  12.051
38347W        W 6721  18.070  21.195  14.992
38348W        W 6722   0.483  26.670  12.444
38349W        W 6723  24.713  31.413   1.319
38350W        W 6724  42.485  37.337   3.821
38351W        W 6725  29.150  32.510   2.701
38352W        W 6726   8.868  31.031   1.221
38353W        W 6727  38.385   9.828  12.848
38354W        W 6728  26.140  43.908  13.863
38355W        W 6729  38.822  35.539   3.271
38356W        W 6730   7.300  29.438   4.664
38357W        W 6731  27.489  15.305  12.560
38358W        W 6732   5.860  44.486   1.408
38359W        W 6733  21.538  43.451   2.747
38360W        W 6734  19.099  38.329   0.304
38361W        W 6735  44.972  44.397   3.367
38362W        W 6736  13.207   0.258   1.248
38363W        W 6737  16.611  34.917  13.381
38364W        W 6738   3.840  17.802   0.454
38365W        W 6739  19.721  24.033  11.457
38366W        W 6740   6.246  43.009   1.821
38367W        W 6741  30.093   3.843  11.859
38368W        W 6742  20.653  24.616   4.818
38369W        W 6743  33.476   0.907  14.948
38370W        W 6744  13.286  44.496  11.380
38371W        W 6745   5.768   4.237  10.909
38372W        W 6746   8.396  32.124  12.007
38373W        W 6747  23.639  31.088  10.408
38374W        W 6748  37.563  24.631   4.697
38375W        W 6749  25.469  26.526   0.336
38376W        W 6750   7.223  25.638  14.788
38377W        W 6751   0.912   9.714  11.392
38378W        W 6752  40.493  14.320   0.906
38379W        W 6753  18.063  40.509   3.685
38380W        W 6754  36.901  41.333   1.369
38381W        W 6755  25.112  14.768   0.901
38382W        W 6756  37.563  33.980  14.901
38383W        W 6757  32.908  20.203  14.941
38384W        W 6758   1.383   1.815  12.998
38385W        W 6759  35.074  32.962   0.790
38386W        W 6760  35.924  17.752   3.307
38387W        W 6761  13.305  15.264  12.443
38388W        W 6762   2.805  36.417   4.345
38389W        W 6763  35.601   2.462  14.809
38390W        W 6764  18.290   1.377   0.244
38391W        W 6765  32.608  43.990   1.211
38392W        W 6766  34.486   6.422  14.777
38393W        W 6767  17.217  12.722  13.014
38394W        W 6768  18.703   1.867   0.892
38395W        W 6769   1.367  20.700   0.897
38396W        W 6770  20.070   6.749  11.910
38397W        W 6771   9.750   6.790  10.966
38398W        W 6772   5.902  13.337   2.396
38399W        W 6773  38.514  10.843  11.034
38400W        W 6774  14.708  13.328  13.037
38401W        W 6775  23.654  37.562   0.326
38402W        W 6776   0.367  11.752   3.284
38403W        W 6777  19.139  18.692  13.504
38404W        W 6778   0.818  37.946  12.532
38405W        W 6779  24.218  24.204  10.605
38406W        W 6780  17.781  10.357  12.576
38407W        W 6781   8.266  40.040   2.869
38408W        W 6782   7.337  15.724   0.398
38409W        W 6783  44.404  36.950  14.444
38410W        W 6784   5.687  26.538   4.614
38411W        W 6785  16.292  28.160  13.534
38412W        W 6786  42.831   0.330   0.902
38413W        W 6787  10.272  43.366  10.598
38414W        W 6788  42.884   0.905  14.762
38415W        W 6789  33.028   0.466   4.224
38416W        W 6790   6.268  13.136  10.024
38417W        W 6791  38.893  42.464  12.488
38418W        W 6792  22.596  25.057  10.528
38419W        W 6793  18.159  24.036  10.607
38420W        W 6794  44.866  26.641   0.245
38421W        W 6795   3.376  30.056  13.004
38422W        W 6796  42.778  14.196  13.541
38423W        W 6797  16.664  17.083   2.713
38424W        W 6798  10.851   5.205  12.437
38425W        W 6799  37.865  14.332  10.925
38426W        W 6800  23.515  44.987   2.219
38427W        W 6801  40.505   3.350  13.340
38428W        W 6802  14.780  44.502  11.469
38429W        W 6803   8.866  31.541   3.237
38430W        W 6804  10.791  18.076   2.869
38431W        W 6805  41.795  34.868   1.349
38432W        W 6806  40.468  33.570  12.473
38433W        W 6807  29.591  35.469   2.853
38434W        W 6808  34.569  11.210  14.301
38435W        W 6809  42.879  34.443  11.117
38436W        W 6810  37.542   6.923  11.067
38437W        W 6811  31.039   5.295   0.926
38438W        W 6812  14.798   4.881  10.001
38439W        W 6813   1.755   7.340  10.995
38440W        W 6814  36.545  25.175  11.084
38441W        W 6815  12.855  23.674   4.263
38442W        W 6816  33.478  29.445   3.786
38443W        W 6817   0.798   8.830  13.817
38444W        W 6818   3.365   8.839   3.308
38445W        W 6819  27.150  22.621  12.405
38446W        W 6820  10.347   0.882   1.376
38447W        W 6821   1.757  36.003  14.760
38448W        W 6822  19.269   6.196   1.918
38449W        W 6823  18.245  22.565  10.895
38450W        W 6824  39.543  35.012  10.642
38451W        W 6825  15.201  12.293  10.518
38452W        W 6826  42.859  29.124  12.998
38453W        W 6827  27.461  41.965  11.964
38454W        W 6828  33.025  36.924  10.449
38455W        W 6829  35.980  26.118   2.326
38456W        W 6830  35.885  19.135   1.703
38457W        W 6831  39.887  18.181   4.745
38458W        W 6832   0.774  44.867  14.978
38459W        W 6833  20.194  11.184  14.393
38460W        W 6834  26.116  30.419   1.825
38461W        W 6835  25.705   3.300  14.867
38462W        W 6836  36.385  26.001   0.451
38463W        W 6837  30.576  30.921   2.895
38464W        W 6838  25.128  32.602   3.773
38465W        W 6839   9.384  13.271   0.859
38466W        W 6840  25.575  33.606   3.858
38467W        W 6841  21.513  33.082  10.962
38468W        W 6842  18.588   3.347  12.841
38469W        W 6843   8.792  43.871   2.721
38470W        W 6844  41.955  37.849  11.923
38471W        W 6845  24.613   8.801   1.878
38472W        W 6846   0.823  20.704   4.353
38473W        W 6847  20.171  15.748   0.886
38474W        W 6848  18.079  17.711   1.372
38475W        W 6849  31.542   2.897  13.525
38476W        W 6850   8.898  11.644  14.370
38477W        W 6851  32.513   5.701   1.816
38478W        W 6852  25.523  11.653  10.616
38479W        W 6853  23.058  17.154   5.099
38480W        W 6854   8.677  39.819  11.926
38481W        W 6855  40.414  29.512   1.409
38482W        W 6856  37.385  44.475   0.402
38483W        W 6857  22.674   5.436  10.925
38484W        W 6858   3.713  23.663  13.996
38485W        W 6859  25.123  24.566  14.015
38486W        W 6860   1.785  32.600  10.900
38487W        W 6861  23.996  17.234  13.946
38488W        W 6862  40.847  43.954  14.869
38489W        W 6863  17.680   2.866  10.961
38490W        W 6864   4.786   3.392   2.714
38491W        W 6865  39.976  30.599  14.456
38492W        W 6866  30.044  43.906  14.877
38493W        W 6867  16.659   5.402   3.173
38494W        W 6868   9.274  29.657   0.393
38495W        W 6869  24.042  15.136  13.484
38496W        W 6870  20.761  37.069  14.852
38497W        W 6871  10.869  40.420   2.843
38498W        W 6872   6.233  36.436   3.858
38499W        W 6873  25.688   0.289  10.956
38500W        W 6874  11.721  39.513  11.479
38501W        W 6875  34.961   0.475  13.492
38502W        W 6876  43.863  30.125   1.446
38503W        W 6877  13.670  34.446  13.007
38504W        W 6878  43.017  24.633  11.045
38505W        W 6879  10.729   9.696   1.878
38506W        W 6880  36.516  20.618  12.501
38507W        W 6881   2.925   5.371   0.303
38508W        W 6882   9.685  36.013   1.754
38509W        W 6883   7.187   2.408   3.651
38510W        W 6884  19.153  17.695  14.993
38511W        W 6885  34.535  38.837   4.794
38512W        W 6886  44.848   3.868  12.874
38513W        W 6887   0.439   7.322   2.699
38514W        W 6888  37.005   2.470  12.094
38515W        W 6889  23.117  20.719  12.843
38516W        W 6890   7.177   4.831   5.311
38517W        W 6891  30.441  23.079  12.502
38518W        W 6892   1.318  17.659   4.655
38519W        W 6893  11.351   1.428  13.792
38520W        W 6894   2.412  24.657   4.753
38521W        W 6895  38.853  16.806  11.032
38522W        W 6896  21.207  13.653  14.903
38523W        W 6897  42.909  12.212  12.369
38524W        W 6898   6.331  28.538  11.892
38525W        W 6899  32.085  42.363  13.882
38526W        W 6900  25.124   3.319   1.231
38527W        W 6901   0.373   7.376  12.832
38528W        W 6902  12.278  33.001  10.463
38529W        W 6903  40.852   4.770   0.763
38530W        W 6904  18.661  37.495   2.753
38531W        W 6905  41.533   0.321   1.239
38532W        W 6906  34.953   9.181   3.324
38533W        W 6907  32.410  13.299  13.827
38534W        W 6908  26.190  14.238  14.865
38535W        W 6909  20.176   2.838   0.455
38536W        W 6910  20.193  16.757   4.125
38537W        W 6911  12.619  10.762  13.886
38538W        W 6912  44.925  34.600   1.842
38539W        W 6913  33.610   1.809   2.782
38540W        W 6914  18.234  14.148  13.846
38541W        W 6915  34.944  31.026   1.703
38542W        W 6916  33.417   9.811   1.427
38543W        W 6917  17.702  22.220   1.802
38544W        W 6918  19.654  32.494  10.983
38545W        W 6919  16.650  30.029   4.715
38546W        W 6920   5.850  35.937   2.278
38547W        W 6921  29.577  23.232   1.353
38548W        W 6922   2.445   2.771   2.262
38549W        W 6923  21.648  25.537   2.720
38550W        W 6924  16.776  35.536   1.243
38551W        W 6925  31.939  39.544   0.877
38552W        W 6926  13.673  33.959  11.967
38553W        W 6927   7.815   5.295   0.943
38554W        W 6928  38.948  40.314  10.937
38555W        W 6929  41.414  22.098   3.749
38556W        W 6930   1.382  11.219   4.183
38557W        W 6931   3.770  18.097   3.368
38558W        W 6932  18.189  18.734   2.801
38559W        W 6933  37.966  32.085   3.281
38560W        W 6934  38.021  31.125   1.397
38561W        W 6935  23.542  38.014  14.906
38562W        W 6936  40.370  44.299  11.088
38563W        W 6937  19.244  38.566  10.593
38564W        W 6938  20.572   4.774  13.873
38565W        W 6939  13.158  15.594   2.749
38566W        W 6940  32.933  29.598  14.849
38567W        W 6941  14.197  26.628  11.018
38568W        W 6942  16.702  42.344  10.426
38569W        W 6943  21.202  30.054   1.219
38570W        W 6944   5.388  17.175   1.345
38571W        W 6945  26.547  33.584   4.176
38572W        W 6946   9.248  30.456  14.410
38573W        W 6947  27.996  23.022   2.727
38574W        W 6948  20.231  25.076  10.563
38575W        W 6949  25.609   4.386  14.312
38576W        W 6950   6.901   6.844   4.610
38577W        W 6951  19.575  31.927  11.949
38578W        W 6952  26.183  26.614  13.035
38579W        W 6953  23.645  43.001   4.345
38580W        W 6954  17.194  33.088   2.408
38581W        W 6955  42.427  10.348  13.514
38582W        W 6956  16.274   4.252   2.240
38583W        W 6957  16.308  42.826   0.885
38584W        W 6958  36.849  44.305   3.786
38585W        W 6959  11.260  26.048   3.365
38586W        W 6960  35.110  26.526  10.107
38587W        W 6961  28.055  19.751   1.280
38588W        W 6962  25.985  25.595  11.445
38589W        W 6963  12.796  19.205  11.385
38590W        W 6964  23.240  25.076   3.175
38591W        W 6965  14.620  43.982  10.952
38592W        W 6966   6.195  22.662  10.063
38593W        W 6967  33.567  43.341   0.261
38594W        W 6968  29.055   8.877  13.547
38595W        W 6969  42.788  31.141  11.985
38596W        W 6970  29.978  15.801   3.180
38597W        W 6971   8.290   2.854   1.360
38598W        W 6972  28.676   5.332   2.846
38599W        W 6973  15.775  13.751  11.955
38600W        W 6974  18.283  13.759   4.714
38601W        W 6975   4.809  42.512   1.705
38602W        W 6976  20.556  12.851  14.290
38603W        W 6977  32.075  28.617  13.384
38604W        W 6978   2.915  19.740   5.252
38605W        W 6979  39.881  24.037  11.930
38606W        W 6980  13.612   1.799  11.504
38607W        W 6981  33.935  22.085   4.204
38608W        W 6982  11.169   4.374   4.268
38609W        W 6983   9.351  42.297  14.845
38610W        W 6984  17.746  34.497  13.979
38611W        W 6985  24.106  21.118   1.276
38612W        W 6986  17.276  13.828  14.427
38613W        W 6987   8.283  22.660  14.798
38614W        W 6988   7.744  20.612  12.016
38615W        W 6989  22.648   0.456  12.559
38616W        W 6990  40.049   2.450   2.208
38617W        W 6991  13.310   9.773  12.426
38618W        W 6992  38.927   8.701  14.391
38619W        W 6993   4.895  32.040   2.694
38620W        W 6994  10.750  44.271  11.079
38621W        W 6995  18.231  26.606   2.802
38622W        W 6996  41.500  23.622  12.010
38623W        W 6997   8.402  34.502   3.274
38624W        W 6998   1.362  40.994  13.022
38625W        W 6999   6.711  11.699  10.436
38626W        W 7000  44.404  26.951  12.351
38627W        W 7001  20.551  44.849  14.293
38628W        W 7002  10.226  36.067  11.902
38629W        W 7003  10.252   3.357   2.254
38630W        W 7004  27.653  23.041   1.332
38631W        W 7005  39.455   6.307   3.254
38632W        W 7006   6.903  21.046   1.736
38633W        W 7007  44.446  33.601  13.977
38634W        W 7008  10.310  15.814   5.087
38635W        W 7009  25.127  34.901  11.612
38636W        W 7010   5.254  35.541  10.957
38637W        W 7011  36.419  41.363   2.282
38638W        W 7012  25.073  15.204   4.826
38639W        W 7013  25.547  23.169   0.814
38640W        W 7014  33.935  27.684   0.463
38641W        W 7015   5.415  29.466   3.254
38642W        W 7016  41.021  24.602  11.001
38643W        W 7017  24.555  22.221   2.876
38644W        W 7018  10.650  26.960   1.777
38645W        W 7019  21.745  30.989   3.841
38646W        W 7020  42.864  10.668  13.437
38647W        W 7021  30.530  15.253   2.351
38648W        W 7022  31.463  28.457  10.508
38649W        W 7023   2.920  41.537   1.259
38650W        W 7024  32.890  21.172  11.473
38651W        W 7025  30.081  28.503  13.505
38652W        W 7026  44.783   7.362  12.438
38653W        W 7027  32.524   3.361   1.736
38654W        W 7028  31.490  13.258   1.710
38655W        W 7029  44.759  32.512  14.445
38656W        W 7030  44.494  15.633  13.846
38657W        W 7031   5.791  38.022   2.729
38658W        W 7032   8.309   4.752  13.524
38659W        W 7033  14.315   4.927  13.461
38660W        W 7034  13.718  29.534   0.894
38661W        W 7035   7.353  36.521   1.831
38662W        W 7036  18.058  33.552  11.115
38663W        W 7037  22.670  39.390  14.826
38664W        W 7038   2.310  42.934   5.300
38665W        W 7039  25.614  32.568   0.834
38666W        W 7040  11.186  27.025  13.322
38667W        W 7041   5.745  44.000  12.407
38668W        W 7042  12.259  38.012   0.453
38669W        W 7043  15.189  23.242   4.272
38670W        W 7044  21.184   4.268   0.377
38671W        W 7045  16.790  38.941  11.115
38672W        W 7046  22.504   8.725   2.679
38673W        W 7047  24.049  15.182  10.525
38674W        W 7048  26.181  13.176   3.861
38675W        W 7049  36.566  39.886   4.216
38676W        W 7050   2.759   6.246   0.829
38677W        W 7051  13.838   3.448   4.795
38678W        W 7052  23.119  15.300  11.399
38679W        W 7053  31.548  33.005   4.668
38680W        W 7054  28.643  39.815  10.940
38681W        W 7055  27.036   8.712  11.927
38682W        W 7056  15.222  10.711   9.669
38683W        W 7057  18.722  36.586   4.616
38684W        W 7058   6.296  15.596  11.978
38685W        W 7059   3.283   7.365   2.178
38686W        W 7060  19.238   0.263  10.585
38687W        W 7061  10.313   1.364   3.172
38688W        W 7062   3.255  23.699   4.723
38689W        W 7063   0.330  23.115  10.459
38690W        W 7064  32.139  35.400   3.321
38691W        W 7065   1.734  16.761  13.406
38692W        W 7066  37.921  15.615  12.842
38693W        W 7067  21.196  42.889   0.335
38694W        W 7068  15.746   0.445   0.963
38695W        W 7069  35.495  11.350  12.061
38696W        W 7070  12.648  38.464  14.489
38697W        W 7071  13.233  24.222   2.234
38698W        W 7072  27.153  42.419   3.844
38699W        W 7073  34.879  33.986  10.996
38700W        W 7074  33.591  21.640  11.913
38701W        W 7075  12.143  28.452   4.712
38702W        W 7076  30.548  29.510  10.528
38703W        W 7077   5.788  10.670   3.281
38704W        W 7078  42.788  15.626   3.278
38705W        W 7079   6.732  22.678  13.960
38706W        W 7080  21.742  21.039   4.837
38707W        W 7081  15.660  10.749   3.261
38708W        W 7082  10.278  15.802  12.829
38709W        W 7083   4.926  20.538   3.239
38710W        W 7084  28.071   0.308   4.780
38711W        W 7085  33.570  17.721  11.430
38712W        W 7086  27.020  10.852   1.283
38713W        W 7087  19.577  34.030   1.421
38714W        W 7088  22.511  30.061   0.407
38715W        W 7089   7.347   0.865   3.644
38716W        W 7090  27.997  35.899  11.973
38717W        W 7091  12.720  33.577   3.743
38718W        W 7092  23.702  42.494   3.352
38719W        W 7093   1.911  11.260  12.088
38720W        W 7094  14.245  37.834  11.886
38721W        W 7095  28.054  19.091   4.353
38722W        W 7096  21.262   2.727  13.821
38723W        W 7097   6.767   5.890   0.324
38724W        W 7098   9.644  21.619   0.467
38725W        W 7099  17.224  23.723  14.785
38726W        W 7100  27.466  23.551  14.371
38727W        W 7101   3.357  14.118   0.314
38728W        W 7102  12.846  14.250  11.117
38729W        W 7103  24.213  30.977  13.465
38730W        W 7104  12.255   1.963   0.409
38731W        W 7105  28.468  37.358  10.984
38732W        W 7106  36.871  29.126  11.515
38733W        W 7107   4.439  11.626   4.622
38734W        W 7108   2.725  19.265  10.988
38735W        W 7109  40.434   7.730   0.307
38736W        W 7110  36.917  41.362  11.085
38737W        W 7111  21.139  31.900  10.991
38738W        W 7112  30.053  16.631   1.892
38739W        W 7113  24.649   2.290   4.638
38740W        W 7114  15.328  23.539  14.935
38741W        W 7115   9.200  16.202   4.797
38742W        W 7116  10.152  18.248   1.416
38743W        W 7117  42.780  19.649  11.982
38744W        W 7118  43.460  14.190   1.280
38745W        W 7119  25.203   1.372   0.803
38746W        W 7120  28.163  39.336   2.705
38747W        W 7121  38.821  26.694   4.814
38748W        W 7122  11.210  27.663  13.027
38749W        W 7123  27.033  26.016   1.800
38750W        W 7124  16.241  40.025  14.417
38751W        W 7125  24.498  25.080   4.292
38752W        W 7126  30.026   4.830  13.043
38753W        W 7127  33.032  31.116  13.461
38754W        W 7128  33.461  32.425   4.699
38755W        W 7129  38.943  24.024  10.588
38756W        W 7130  29.476  24.064  13.929
38757W        W 7131   9.699  19.155  12.504
38758W        W 7132  38.350  36.573  10.563
38759W        W 7133   6.251  10.863   2.822
38760W        W 7134  30.092  42.998   4.632
38761W        W 7135   4.868  21.645  13.936
38762W        W 7136  26.658  13.191   4.623
38763W        W 7137  38.858  17.265   0.874
38764W        W 7138   8.375  37.548   1.696
38765W        W 7139  11.657  44.399  12.025
38766W        W 7140  14.693   7.724  12.039
38767W        W 7141   7.384  39.903  10.537
38768W        W 7142  26.020  18.165  14.925
38769W        W 7143   4.269  21.553   1.926
38770W        W 7144   1.257   1.279  11.956
38771W        W 7145  13.681  16.590  12.070
38772W        W 7146  23.189  41.945  14.446
38773W        W 7147   2.289  12.124   0.311
38774W        W 7148  37.372  20.067  11.963
38775W        W 7149  17.163   9.856  13.409
38776W        W 7150   7.818  27.163   4.797
38777W        W 7151  26.587  28.021   4.285
38778W        W 7152  20.203   7.716   1.880
38779W        W 7153  36.565  17.734   3.837
38780W        W 7154  41.349  16.171   3.750
38781W        W 7155  24.624  18.215   0.468
38782W        W 7156  31.492   1.740  10.626
38783W        W 7157  40.391  20.685   3.246
38784W        W 7158  37.991   6.351  12.835
38785W        W 7159  24.973  30.985  12.456
38786W        W 7160   5.315  22.582   1.923
38787W        W 7161  32.129   3.342   9.942
38788W        W 7162  34.960   6.246  12.042
38789W        W 7163   2.881  16.569  13.886
38790W        W 7164  39.341   4.903  13.388
38791W        W 7165   4.306  18.186  12.526
38792W        W 7166  35.045  29.597   2.771
38793W        W 7167  34.920   0.304   2.406
38794W        W 7168  28.151  43.821  12.450
38795W        W 7169   0.796  37.384   5.127
38796W        W 7170  43.012  28.564  14.811
38797W        W 7171  28.102  22.040  10.940
38798W        W 7172   6.268  14.134  10.006
38799W        W 7173  26.087  43.917   9.952
38800W        W 7174  34.497   7.804  12.536
38801W        W 7175  34.413  18.081   1.413
38802W        W 7176  37.888  44.315  14.449
38803W        W 7177  27.011  43.460   1.318
38804W        W 7178  28.988  28.023   2.719
38805W        W 7179  39.878  34.450  14.949
38806W        W 7180  36.592  31.581   3.161
38807W        W 7181  34.953  27.511  11.097
38808W        W 7182  17.144   4.763   3.163
38809W        W 7183  44.857   8.285  13.417
38810W        W 7184  42.980  20.082   2.293
38811W        W 7185  23.588  15.725  14.019
38812W        W 7186  36.419  26.673  14.416
38813W        W 7187  14.113  21.561  12.019
38814W        W 7188   9.202   1.938  10.438
38815W        W 7189   3.451  36.547  12.059
38816W        W 7190  27.987   6.358   4.816
38817W        W 7191  41.407  32.461  10.559
38818W        W 7192   8.871  37.885   0.916
38819W        W 7193  18.263  26.514  14.017
38820W        W 7194  25.666  25.580   2.178
38821W        W 7195  28.061  29.167  11.894
38822W        W 7196  12.157  19.068  13.310
38823W        W 7197  33.046  24.138  13.422
38824W        W 7198  35.063  35.357  13.538
38825W        W 7199   6.214  23.039   2.788
38826W        W 7200   2.801   1.295  12.950
38827W        W 7201   5.829  30.034   0.261
38828W        W 7202  20.647  28.164   2.312
38829W        W 7203  27.078  37.477   0.895
38830W        W 7204  22.055  41.980  11.029
38831W        W 7205   6.183  19.566  11.857
38832W        W 7206   8.382  27.031  13.921
38833W        W 7207  23.153  17.616  13.818
38834W        W 7208  15.772  24.146   5.174
38835W        W 7209  11.759  13.187  12.425
38836W        W 7210   7.820  38.333   1.707
38837W        W 7211   3.929  22.110   4.667
38838W        W 7212  14.728  28.073   1.876
38839W        W 7213  44.945  16.629  14.794
38840W        W 7214  44.489  26.047   0.451
38841W        W 7215  39.869  17.724  13.039
38842W        W 7216  38.859  24.098  11.607
38843W        W 7217   8.361  11.800   1.905
38844W        W 7218  20.268   9.171   1.916
38845W        W 7219   9.341  28.461   2.667
38846W        W 7220   3.334  14.807  14.776
38847W        W 7221  42.407   6.894   0.893
38848W        W 7222   8.830  19.642  12.445
38849W        W 7223   2.311  35.047   4.775
38850W        W 7224  23.729  36.533   1.450
38851W        W 7225  40.389  24.152  13.902
38852W        W 7226  29.000   7.832   1.322
38853W        W 7227   2.412  18.218   3.650
38854W        W 7228  43.005  28.937  14.302
38855W        W 7229  14.152  32.524  14.311
38856W        W 7230  27.052  29.581   0.337
38857W        W 7231   6.386  23.572   9.663
38858W        W 7232  12.254   0.294  13.355
38859W        W 7233  43.498  29.469  13.057
38860W        W 7234   2.800  31.941   2.670
38861W        W 7235  38.831   7.786   4.791
38862W        W 7236  18.600  30.062  12.039
38863W        W 7237   7.830  15.640  13.878
38864W        W 7238  39.379   5.808  14.877
38865W        W 7239  23.098  36.052   4.607
38866W        W 7240  40.333  23.729   4.661
38867W        W 7241  26.538   2.446   2.186
38868W        W 7242  39.497   2.453  14.026
38869W        W 7243  30.578  41.447   2.229
38870W        W 7244  34.871  25.539   4.270
38871W        W 7245  18.790  40.010  12.909
38872W        W 7246  29.070  33.898   0.876
38873W        W 7247  15.271  11.754  14.957
38874W        W 7248   8.663   1.874  13.532
38875W        W 7249  44.968  43.301   4.266
38876W        W 7250  21.148  16.711   4.193
38877W        W 7251  31.122  33.988   0.357
38878W        W 7252   9.654   8.256  11.485
38879W        W 7253  12.178   2.406  13.054
38880W        W 7254  16.664  38.566  10.965
38881W        W 7255  23.673  38.911  14.960
38882W        W 7256  24.193  15.133   0.915
38883W        W 7257  39.478  40.386  13.439
38884W        W 7258   0.255  18.596  11.478
38885W        W 7259  17.241   8.894   4.758
38886W        W 7260  34.866  39.017  14.396
38887W        W 7261   6.200   9.151   4.262
38888W        W 7262  44.438  33.398  11.875
38889W        W 7263  44.856  21.233   1.879
38890W        W 7264   1.445  24.058  12.401
38891W        W 7265  21.617  42.894  12.936
38892W        W 7266  38.897  25.617   0.906
38893W        W 7267  23.493   7.721  11.962
38894W        W 7268  12.181  18.236   1.750
38895W        W 7269   2.408   8.246  13.348
38896W        W 7270  34.528   1.736  14.930
38897W        W 7271  11.268  22.734   4.798
38898W        W 7272   4.873  36.528  10.599
38899W        W 7273  35.484  37.939  14.303
38900W        W 7274  18.778  25.708   0.965
38901W        W 7275  31.495  14.740   1.721
38902W        W 7276  15.768  30.655  13.984
38903W        W 7277  44.980  15.187   3.765
38904W        W 7278   9.762  32.107  11.965
38905W        W 7279  39.555   3.386   3.651
38906W        W 7280  21.152  42.863   4.202
38907W        W 7281  37.396  18.126  12.907
38908W        W 7282  31.462  22.195   2.667
38909W        W 7283  32.496  35.068  13.329
38910W        W 7284  43.864  38.366  14.425
38911W        W 7285   4.742  29.081  14.319
38912W        W 7286  39.414  37.353   4.747
38913W        W 7287  23.583  13.282  11.885
38914W        W 7288  18.224  24.019  10.978
38915W        W 7289  14.339  37.511  11.905
38916W        W 7290  40.440  16.204  12.487
38917W        W 7291  17.206   1.475   0.922
38918W        W 7292  32.633   5.367   3.706
38919W        W 7293  10.164   7.227  11.594
38920W        W 7294   3.847  31.423   0.865
38921W        W 7295  34.549   3.885   0.795
38922W        W 7296  39.894  18.104   2.192
38923W        W 7297  11.366  28.021   1.283
38924W        W 7298  35.502  21.748   1.782
38925W        W 7299  33.000  14.643   0.821
38926W        W 7300  21.251  13.791  14.335
38927W        W 7301  44.953  33.386   2.790
38928W        W 7302  37.434  11.689  12.047
38929W        W 7303  44.008   0.763  13.457
38930W        W 7304  11.741  22.684   3.799
38931W        W 7305   6.911  11.144  10.500
38932W        W 7306   7.743  31.561   9.998
38933W        W 7307  34.087  18.257   0.278
38934W        W 7308  40.416  16.651   2.865
38935W        W 7309  25.514  37.430   1.269
38936W        W 7310  20.633   1.911  14.431
38937W        W 7311  44.381  25.664   1.383
38938W        W 7312  43.936  35.590   3.796
38939W        W 7313   1.245  14.334   1.795
38940W        W 7314   5.903   9.666  14.386
38941W        W 7315  34.058  25.043   2.818
38942W        W 7316   4.888  15.274  11.594
38943W        W 7317  40.830  35.862   2.216
38944W        W 7318  40.882  21.254  14.816
38945W        W 7319  31.611  27.078   2.225
38946W        W 7320  23.218  32.496  14.503
38947W        W 7321  18.754  35.481   4.278
38948W        W 7322   9.661  43.953  10.412
38949W        W 7323   5.300   9.704   1.379
38950W        W 7324  14.326  38.433   3.796
38951W        W 7325  22.243  14.815  14.769
38952W        W 7326  31.485   1.786  14.943
38953W        W 7327  42.438  33.959  13.918
38954W        W 7328  30.641  31.622   4.700
38955W        W 7329  13.163  25.033  10.539
38956W        W 7330  32.061   0.386   2.662
38957W        W 7331   5.335  38.035   0.799
38958W        W 7332  22.554   0.423   0.802
38959W        W 7333  14.255   3.258  12.915
38960W        W 7334  22.654  23.207  11.028
38961W        W 7335  10.263  26.035  11.413
38962W        W 7336  35.466  28.486   2.396
38963W        W 7337  30.021  33.441   2.885
38964W        W 7338  13.739  32.558  13.812
38965W        W 7339  18.676   6.243   0.431
38966W        W 7340  32.906  10.163  12.444
38967W        W 7341  32.053  25.128   2.212
38968W        W 7342  31.411  44.365  14.866
38969W        W 7343  15.288  37.962  14.307
38970W        W 7344   3.391  18.177  12.545
38971W        W 7345  29.162  26.662   2.178
38972W        W 7346  39.998  21.577  14.298
38973W        W 7347  10.716  24.062  12.014
38974W        W 7348  22.542  43.299  14.946
38975W        W 7349  13.195   5.331   3.764
38976W        W 7350  12.255  38.950   2.253
38977W        W 7351  41.526  13.750  14.411
38978W        W 7352  17.136   3.745   0.882
38979W        W 7353   2.778  43.296  12.955
38980W        W 7354  38.829   8.369   3.764
38981W        W 7355   5.901  27.195   2.893
38982W        W 7356  35.088   1.276  10.424
38983W        W 7357  18.591  39.333  11.932
38984W        W 7358  37.563  36.022  13.349
38985W        W 7359  42.437  34.430   4.692
38986W        W 7360   4.398  24.690  12.461
38987W        W 7361  32.923  15.319   2.379
38988W        W 7362   4.932   5.399   4.766
38989W        W 7363  13.160  35.496   2.334
38990W        W 7364  33.053   1.794   1.288
38991W        W 7365  29.573  24.973   2.361
38992W        W 7366   7.677  27.987  13.875
38993W        W 7367  38.023  24.200  14.952
38994W        W 7368  27.448  28.548   2.280
38995W        W 7369  24.988   7.738   0.334
38996W        W 7370   4.353  28.518  10.603
38997W        W 7371  14.812  39.013   0.779
38998W        W 7372  26.021   8.897  14.949
38999W        W 7373  39.345  36.516  12.356
39000W        W 7374  17.693  16.120  12.417
39001W        W 7375  28.593   9.274  11.012
39002W        W 7376   6.769  32.898  11.072
39003W        W 7377  24.501  25.640   4.702
39004W        W 7378   3.873  13.652   0.471
39005W        W 7379   1.758   2.937  13.399
39006W        W 7380  15.752   7.187  12.083
39007W        W 7381  24.635  15.202  10.081
39008W        W 7382  19.771   2.766   0.906
39009W        W 7383  18.763   4.323   0.729
39010W        W 7384   0.393  44.922   0.793
39011W        W 7385  21.757   2.840  11.457
39012W        W 7386   2.902  17.222   1.793
39013W        W 7387  20.679  17.585  13.505
39014W        W 7388  41.011  44.755   1.287
39015W        W 7389   4.256   4.931   1.887
39016W        W 7390   2.335  44.378   1.815
39017W        W 7391   0.946  12.696   0.766
39018W        W 7392   3.452  44.853  12.505
39019W        W 7393  28.675  26.575   2.732
39020W        W 7394  29.578  31.901  14.956
39021W        W 7395  34.370  20.181  14.878
39022W        W 7396  32.017  35.079  11.010
39023W        W 7397  24.020  29.112   2.693
39024W        W 7398  38.353   5.863   1.218
39025W        W 7399  27.516  37.002   0.829
39026W        W 7400  13.279  16.090  12.925
39027W        W 7401  41.800   9.840  13.858
39028W        W 7402  31.591  26.159  13.996
39029W        W 7403  21.201  43.354   4.821
39030W        W 7404  22.674   0.409   2.833
39031W        W 7405  37.004  13.795   0.943
39032W        W 7406  21.041  39.864   1.876
39033W        W 7407  33.012  39.382   3.709
39034W        W 7408  13.127  31.146  12.481
39035W        W 7409   3.371  37.966  11.396
39036W        W 7410  41.485  34.565   0.351
39037W        W 7411  44.904  19.248  12.539
39038W        W 7412  41.488   2.266  11.989
39039W        W 7413   2.297  12.138   4.759
39040W        W 7414  19.712  35.088   5.104
39041W        W 7415   3.359  41.299   0.819
39042W        W 7416  28.472   0.800  13.026
39043W        W 7417  24.036   7.325  11.072
39044W        W 7418   3.861   3.848   4.325
39045W        W 7419  18.631  28.067   2.669
39046W        W 7420   9.379   0.777  10.887
39047W        W 7421  19.561  36.499  14.932
39048W        W 7422  10.363   8.875  14.347
39049W        W 7423  21.056  25.569   1.822
39050W        W 7424  11.860  15.634  12.477
39051W        W 7425  21.025  33.396  14.345
39052W        W 7426   9.246  33.482  14.406
39053W        W 7427  32.069   8.757   1.387
39054W        W 7428  11.230  24.094   2.294
39055W        W 7429   3.262  17.264  12.076
39056W        W 7430  30.152  19.072   2.708
39057W        W 7431  34.970  19.098   3.256
39058W        W 7432  35.055  23.006  13.942
39059W        W 7433  41.894  30.106  11.431
39060W        W 7434  40.797   8.698   2.774
39061W        W 7435  41.044  24.115  13.401
39062W        W 7436  18.106  25.142   3.258
39063W        W 7437  27.636  37.901  13.955
39064W        W 7438  13.180  12.622   3.244
39065W        W 7439   3.935  19.153  14.331
39066W        W 7440  33.568  31.547  10.435
39067W        W 7441  34.107  33.037  11.066
39068W        W 7442  30.515  44.757  12.900
39069W        W 7443   2.825   2.436  13.361
39070W        W 7444  17.674   7.897   0.866
39071W        W 7445  14.641   6.348  11.001
39072W        W 7446  27.692  19.760  10.495
39073W        W 7447  31.411   4.927  12.936
39074W        W 7448  31.112  41.865  14.974
39075W        W 7449  26.627  32.620   2.672
39076W        W 7450  18.695  26.556   3.753
39077W        W 7451   1.337  31.526  10.579
39078W        W 7452  18.092  27.666   4.791
39079W        W 7453   9.352   9.347   4.242
39080W        W 7454  44.388  40.413  12.922
39081W        W 7455  12.812  19.755  12.372
39082W        W 7456  30.988  35.945   0.835
39083W        W 7457  20.086   2.729   4.118
39084W        W 7458  38.978  16.772   2.802
39085W        W 7459  26.202  44.497  14.829
39086W        W 7460  28.568  27.955  14.351
39087W        W 7461   8.774  38.841   2.282
39088W        W 7462   4.942  11.758  11.106
39089W        W 7463  42.494  42.464  14.457
39090W        W 7464  16.229  16.786   0.376
39091W        W 7465   5.431  11.131   1.796
39092W        W 7466  25.607  36.054  10.481
39093W        W 7467  27.989  13.670  12.379
39094W        W 7468  33.396  40.477  13.339
39095W        W 7469  18.555  42.882  10.522
39096W        W 7470  21.569  28.089  14.836
39097W        W 7471  14.318  26.088   3.309
39098W        W 7472  11.833  38.856   0.815
39099W        W 7473  32.050  19.642   4.121
39100W        W 7474  11.232  39.549  14.423
39101W        W 7475  17.766  15.723   1.706
39102W        W 7476  43.932   4.710   3.245
39103W        W 7477  40.849  24.683  13.895
39104W        W 7478  33.583   8.753  14.898
39105W        W 7479  23.104  39.875   0.457
39106W        W 7480   3.924  40.893  12.563
39107W        W 7481  15.110  44.379   4.143
39108W        W 7482  26.192  16.798   1.255
39109W        W 7483   6.840  17.157  12.910
39110W        W 7484  37.565  34.020   3.215
39111W        W 7485  39.421  10.650  10.968
39112W        W 7486  23.060  24.026   4.308
39113W        W 7487  10.869   3.426  11.080
39114W        W 7488  37.401  29.542  14.329
39115W        W 7489  22.028  41.294  11.513
39116W        W 7490   4.275  16.619  12.967
39117W        W 7491   5.696   3.899  13.832
39118W        W 7492  25.507  28.493   2.329
39119W        W 7493  39.394  41.397  13.867
39120W        W 7494  37.856  10.641   1.900
39121W        W 7495  32.922  10.683   0.784
39122W        W 7496   3.432  16.094   4.241
39123W        W 7497   9.678  14.595  14.327
39124W        W 7498  16.616  35.458  14.283
39125W        W 7499  19.582  28.139  12.066
39126W        W 7500  19.175  14.748  12.436
39127W        W 7501   7.836  31.445   1.904
39128W        W 7502   5.318  32.579  14.808
39129W        W 7503  37.486   1.269   4.603
39130W        W 7504  42.872  19.742   0.832
39131W        W 7505  42.922  37.076   0.915
39132W        W 7506  36.034  35.108   3.237
39133W        W 7507  34.994  22.172  12.086
39134W        W 7508  20.616  15.229  12.471
39135W        W 7509  32.510  10.820  13.370
39136W        W 7510  43.451  42.453   1.902
39137W        W 7511  23.498  34.433  10.895
39138W        W 7512   4.755  25.031   4.176
39139W        W 7513  37.002  40.938   4.769
39140W        W 7514   2.347   6.822   0.367
39141W        W 7515  30.956  24.601   1.934
39142W        W 7516  41.444  16.312  14.811
39143W        W 7517  13.750  21.027  11.581
39144W        W 7518  19.251  22.627   2.285
39145W        W 7519  23.113  17.802  14.488
39146W        W 7520  24.991  41.312   2.238
39147W        W 7521  39.910   2.791   4.765
39148W        W 7522  22.084   6.861  11.481
39149W        W 7523  29.514  20.174   1.420
39150W        W 7524  10.673   5.810  14.888
39151W        W 7525  26.035  23.730   4.679
39152W        W 7526  17.163   0.278   1.331
39153W        W 7527   9.744  27.008  13.865
39154W        W 7528  22.229   6.799  12.949
39155W        W 7529   4.239  23.675   1.814
39156W        W 7530  38.871  30.413   3.847
39157W        W 7531  28.630   3.778   2.219
39158W        W 7532  25.668  30.911   2.310
39159W        W 7533  36.057  23.211  14.491
39160W        W 7534  12.302   8.209  10.991
39161W        W 7535  31.561  33.106   2.314
39162W        W 7536  36.361  29.487   0.406
39163W        W 7537  17.236  25.548  11.120
39164W        W 7538  32.600  44.941   2.838
39165W        W 7539   7.262  34.415   3.712
39166W        W 7540  39.967  11.780   2.374
39167W        W 7541  13.775  37.370  10.063
39168W        W 7542  26.093  35.985  12.373
39169W        W 7543   0.860  37.422   4.613
39170W        W 7544   8.819  10.725   1.810
39171W        W 7545  37.964   9.226   2.184
39172W        W 7546  17.307  34.556  13.890
39173W        W 7547   2.368  44.284  14.798
39174W        W 7548   4.934  34.413   3.680
39175W        W 7549  18.575  22.231   2.192
39176W        W 7550  44.379  34.975  14.784
39177W        W 7551  25.130  37.556   0.319
39178W        W 7552  18.286  33.063  10.909
39179W        W 7553  36.572   1.863   2.352
39180W        W 7554   1.345  17.299  13.054
39181W        W 7555   7.880  41.849   2.827
39182W        W 7556  20.213  11.816   4.822
39183W        W 7557   7.707  18.594   3.817
39184W        W 7558  37.836  10.190   1.425
39185W        W 7559   6.395   1.342  13.840
39186W        W 7560  36.989  19.718  14.509
39187W        W 7561  14.160   9.874  14.845
39188W        W 7562   0.467   8.332  13.373
39189W        W 7563  15.211  36.588  11.579
39190W        W 7564  17.264  44.311  10.060
39191W        W 7565  16.762  22.507  13.530
39192W        W 7566  10.662   0.288   1.373
39193W        W 7567  13.629  19.598   3.336
39194W        W 7568  26.951  10.666   1.881
39195W        W 7569  10.718  29.646   3.773
39196W        W 7570  19.144  15.817  10.547
39197W        W 7571  42.831   5.835  12.996
39198W        W 7572  15.088   6.203   1.332
39199W        W 7573   0.896   4.850  12.578
39200W        W 7574  31.925  38.418   1.305
39201W        W 7575  12.688  37.860   1.412
39202W        W 7576   1.790  40.487   4.838
39203W        W 7577  34.573  25.020  13.904
39204W        W 7578  37.415  13.160   2.767
39205W        W 7579   7.396  41.322  13.434
39206W        W 7580  34.565  41.476   1.302
39207W        W 7581  30.932  14.698  14.473
39208W        W 7582  18.694  29.016   4.787
39209W        W 7583   7.674  39.853  14.764
39210W        W 7584   6.919  26.631   3.631
39211W        W 7585   0.262  16.753   0.850
39212W        W 7586  18.226  16.297  12.548
39213W        W 7587   1.442  40.857  13.530
39214W        W 7588   3.221  44.424  13.314
39215W        W 7589  16.301  34.506   2.826
39216W        W 7590  22.075  27.539  14.009
39217W        W 7591  24.196  39.514  11.483
39218W        W 7592  38.072  25.183   5.313
39219W        W 7593  11.715   7.840   4.134
39220W        W 7594  16.302  33.884   4.183
39221W        W 7595  18.246  30.979  10.472
39222W        W 7596   2.763  36.515   0.378
39223W        W 7597  15.692  10.864   4.764
39224W        W 7598  14.829   4.319   2.777
39225W        W 7599  19.726  17.113   1.828
39226W        W 7600   8.672   6.182  12.056
39227W        W 7601  26.646   8.697   0.383
39228W        W 7602  38.537  42.884  11.576
39229W        W 7603  11.174   5.430   0.730
39230W        W 7604   3.405  12.280  13.324
39231W        W 7605  32.440   1.309  13.847
39232W        W 7606  33.511  17.253   3.256
39233W        W 7607   8.704  13.673   4.221
39234W        W 7608  13.673  34.889  12.073
39235W        W 7609   9.288  40.810   1.924
39236W        W 7610   5.366  29.445   3.692
39237W        W 7611  14.284  20.063   0.317
39238W        W 7612  24.522  23.035   2.183
39239W        W 7613  29.976  23.552  10.596
39240W        W 7614  24.514  13.802   4.208
39241W        W 7615  38.858   3.330   4.777
39242W        W 7616  13.736  18.204   2.686
39243W        W 7617  25.191  34.614   1.842
39244W        W 7618   8.182  11.167  13.888
39245W        W 7619  35.068  21.742   0.896
39246W        W 7620  40.512  32.001  10.024
39247W        W 7621  38.534  28.152  10.888
39248W        W 7622  36.864  33.399  14.844
39249W        W 7623  28.935   6.824  11.495
39250W        W 7624  23.730  25.533   3.301
39251W        W 7625  12.214  11.129  14.317
39252W        W 7626  22.180  36.001  11.952
39253W        W 7627   5.892   8.896   4.653
39254W        W 7628  27.606  27.193  11.908
39255W        W 7629  32.064  31.069   4.778
39256W        W 7630  36.964  41.943   4.260
39257W        W 7631   5.422  37.572   3.278
39258W        W 7632  21.545   0.406   0.464
39259W        W 7633  38.564   6.207   4.343
39260W        W 7634  20.249  21.043  12.505
39261W        W 7635  13.315  44.867   4.202
39262W        W 7636  19.679  11.157   9.944
39263W        W 7637  11.312  29.931   1.337
39264W        W 7638  11.797   2.828  11.881
39265W        W 7639  37.946  12.139   4.610
39266W        W 7640  16.588  38.463  14.337
39267W        W 7641  44.833  44.795   2.705
39268W        W 7642  40.544  34.386  11.884
39269W        W 7643   6.683  26.995  12.058
39270W        W 7644   4.289   3.388   0.365
39271W        W 7645  15.280  42.478   2.193
39272W        W 7646  21.145  10.322  10.536
39273W        W 7647  26.625  27.530   4.777
39274W        W 7648   6.253   1.459  11.868
39275W        W 7649  10.668   0.891   0.380
39276W        W 7650  15.104  22.532  11.473
39277W        W 7651  27.633   0.274  14.457
39278W        W 7652  14.789  15.808   0.414
39279W        W 7653  29.157  41.450  12.413
39280W        W 7654  17.661  10.152  11.908
39281W        W 7655   6.696  30.472   1.749
39282W        W 7656  30.657  13.244  13.387
39283W        W 7657  19.597  35.012  13.826
39284W        W 7658  31.121  25.639   3.702
39285W        W 7659  33.410  34.458   4.774
39286W        W 7660  11.769  22.685   4.656
39287W        W 7661  36.094   7.199  13.335
39288W        W 7662  19.631  25.698  11.481
39289W        W 7663  38.993  30.030  12.345
39290W        W 7664  21.246  44.273   1.342
39291W        W 7665  38.016  39.467   3.809
39292W        W 7666   9.843  39.853  13.361
39293W        W 7667   7.760  38.902  10.124
39294W        W 7668  26.522  39.446  13.024
39295W        W 7669  39.332  13.687  14.892
39296W        W 7670  34.933  25.086   5.170
39297W        W 7671   0.932  40.985   2.275
39298W        W 7672  41.887  25.115   4.831
39299W        W 7673   4.835  34.369  12.406
39300W        W 7674   2.359  11.748   3.342
39301W        W 7675  26.954  41.537  10.989
39302W        W 7676  40.343  12.212   1.432
39303W        W 7677  42.506  16.700   1.922
39304W        W 7678  31.585  35.378   4.713
39305W        W 7679  19.259  21.172  10.099
39306W        W 7680   1.262  28.947  12.979
39307W        W 7681  33.586  15.110   0.814
39308W        W 7682  31.096  40.330  10.159
39309W        W 7683  10.189  32.091  11.523
39310W        W 7684   4.889  19.676   1.859
39311W        W 7685  21.122  29.539   0.411
39312W        W 7686  16.194  17.676  12.867
39313W        W 7687  23.687  29.049  12.368
39314W        W 7688  30.925   0.790  14.977
39315W        W 7689  10.869   8.231   4.664
39316W        W 7690  12.716   7.282  14.498
39317W        W 7691   7.207  28.489  12.521
39318W        W 7692  30.913  33.121   0.327
39319W        W 7693  33.439  40.498  12.405
39320W        W 7694  28.096  43.287  13.423
39321W        W 7695  10.636  37.376  12.466
39322W        W 7696  27.449  19.556  13.529
39323W        W 7697  27.569  17.109  12.013
39324W        W 7698  34.948  33.939   3.159
39325W        W 7699  35.444  31.937   1.232
39326W        W 7700  25.647   9.687  13.351
39327W        W 7701  12.238  23.580   2.317
39328W        W 7702  43.800   2.873  14.385
39329W        W 7703   4.253  41.314  13.316
39330W        W 7704  16.109  30.652  13.438
39331W        W 7705  24.542  19.187  14.301
39332W        W 7706   4.788   6.786  14.013
39333W        W 7707  32.411   8.276   2.876
39334W        W 7708  32.020  38.979  14.463
39335W        W 7709  10.165  44.988   3.293
39336W        W 7710   4.893  18.611   5.123
39337W        W 7711  21.515  26.544   0.478
39338W        W 7712  40.531   8.226  12.859
39339W        W 7713  40.519  28.956  12.976
39340W        W 7714  10.833  25.131   3.778
39341W        W 7715   7.857   9.759  10.913
39342W        W 7716  41.923  32.079  10.910
39343W        W 7717  33.119  16.186  10.529
39344W        W 7718  12.684  42.428   2.827
39345W        W 7719  29.428  10.813   1.325
39346W        W 7720   4.432  43.377  10.442
39347W        W 7721  34.107  15.628  11.463
39348W        W 7722  14.779   8.679   3.636
39349W        W 7723  24.039  18.781   0.839
39350W        W 7724   3.875   0.401   4.115
39351W        W 7725   9.221  26.158   0.957
39352W        W 7726   5.348   4.784   1.317
39353W        W 7727  40.823   4.892  11.530
39354W        W 7728  26.144  15.685   5.794
39355W        W 7729   7.247   5.388   4.327
39356W        W 7730   2.266  29.472  14.280
39357W        W 7731  43.463  36.466   1.292
39358W        W 7732  10.297  40.052  12.846
39359W        W 7733  11.146  41.358   3.164
39360W        W 7734  35.442   1.731   4.292
39361W        W 7735   3.272  22.115   3.636
39362W        W 7736  38.459  39.410  14.890
39363W        W 7737  20.126   0.939   0.888
39364W        W 7738  28.148  26.018   4.834
39365W        W 7739  40.540  13.204   0.468
39366W        W 7740  25.026  23.633  14.023
39367W        W 7741  10.788  22.051   0.771
39368W        W 7742   8.803  39.427   3.698
39369W        W 7743  39.333  27.450   3.668
39370W        W 7744   4.279  36.007   3.657
39371W        W 7745  12.662  24.500   2.392
39372W        W 7746  11.297   5.415  10.640
39373W        W 7747  25.977  34.990  10.466
39374W        W 7748  26.102   2.890  14.428
39375W        W 7749  39.951   8.160  14.456
39376W        W 7750   0.285  15.801   2.311
39377W        W 7751  13.127  10.684   2.348
39378W        W 7752  10.724   4.377   3.750
39379W        W 7753   4.212  34.995  14.408
39380W        W 7754  30.546  19.154   2.306
39381W        W 7755  29.070  17.120   0.900
39382W        W 7756  31.562  23.169  14.818
39383W        W 7757   8.685  22.636   1.348
39384W        W 7758   7.816   9.832  11.469
39385W        W 7759  26.668   5.709   2.282
39386W        W 7760  19.108  44.305   4.178
39387W        W 7761  23.557  39.399  10.480
39388W        W 7762   4.826  19.546  13.839
39389W        W 7763   2.336  15.261  14.996
39390W        W 7764  40.435  29.579  10.640
39391W        W 7765  20.569  15.313   1.214
39392W        W 7766  12.799  27.574  12.534
39393W        W 7767  27.096   3.883   4.233
39394W        W 7768  28.629   4.747   2.797
39395W        W 7769  27.546  28.557  11.944
39396W        W 7770  36.401  19.138  12.020
39397W        W 7771   1.838  38.882  14.919
39398W        W 7772   7.731  11.711  11.437
39399W        W 7773  25.473  34.057  11.968
39400W        W 7774  27.111  27.683   2.340
39401W        W 7775  29.148   7.190  10.912
39402W        W 7776  25.991   0.907   3.732
39403W        W 7777  10.640  29.553  11.105
39404W        W 7778  14.671   1.255  13.013
39405W        W 7779  13.292  41.937   3.251
39406W        W 7780  40.382  22.571   3.383
39407W        W 7781  37.502  31.119  10.911
39408W        W 7782  34.414  13.609   3.232
39409W        W 7783  10.297  30.594  13.828
39410W        W 7784  11.259  11.691   3.687
39411W        W 7785  40.045  44.393  12.097
39412W        W 7786  26.617  28.509  11.409
39413W        W 7787  37.865  10.704   0.808
39414W        W 7788  33.549  13.129   1.450
39415W        W 7789  32.962  10.801   4.214
39416W        W 7790  16.659  38.332  11.393
39417W        W 7791  29.139  21.065  12.443
39418W        W 7792  25.989  13.766  11.086
39419W        W 7793  14.271  35.570   2.303
39420W        W 7794  15.813  27.117   5.174
39421W        W 7795  24.178  41.854  10.937
39422W        W 7796  16.657  12.835  11.858
39423W        W 7797  32.058  36.543   3.714
39424W        W 7798  35.385  33.935   3.800
39425W        W 7799  10.189  44.995   2.365
39426W        W 7800   5.833   6.697  14.837
39427W        W 7801  16.244   7.674   2.262
39428W        W 7802  19.223  10.839   2.839
39429W        W 7803  25.151  20.074   1.277
39430W        W 7804  38.327  39.852  10.985
39431W        W 7805   3.375   1.326  13.846
39432W        W 7806  24.149  13.676  11.433
39433W        W 7807  13.642  13.194   0.326
39434W        W 7808  24.689  25.550   2.819
39435W        W 7809  18.100  38.352   3.717
39436W        W 7810  25.105  34.895   2.411
39437W        W 7811  42.429   0.910   2.690
39438W        W 7812   1.776  15.175   4.655
39439W        W 7813  40.435  37.421   5.206
39440W        W 7814  37.547  32.493  11.038
39441W        W 7815  15.220   5.848   3.212
39442W        W 7816  33.060  36.357   0.773
39443W        W 7817  36.879  23.058  11.888
39444W        W 7818  17.606  33.436   0.937
39445W        W 7819  16.083   0.324  12.497
39446W        W 7820  11.859  15.598  10.891
39447W        W 7821  17.743  21.240   4.125
39448W        W 7822   5.789  35.061  12.839
39449W        W 7823  21.733  22.551   0.408
39450W        W 7824   6.762  33.083   3.355
39451W        W 7825  22.066   3.825   1.800
39452W        W 7826  13.197   6.354  11.039
39453W        W 7827   4.284   9.199  11.049
39454W        W 7828   8.160  39.541   1.912
39455W        W 7829   2.268  23.694  11.458
39456W        W 7830   5.784   0.922   0.946
39457W        W 7831  24.109  44.403   2.670
39458W        W 7832  23.135   9.793   0.805
39459W        W 7833  34.520  36.890   4.779
39460W        W 7834  24.073   1.324  14.786
39461W        W 7835  31.956  15.208   4.176
39462W        W 7836  11.756  26.155   4.809
39463W        W 7837  40.445  24.537   0.311
39464W        W 7838  36.562  13.303  10.403
39465W        W 7839  36.030  41.016   0.360
39466W        W 7840  15.580  28.182  13.922
39467W        W 7841  13.170  27.142   4.130
39468W        W 7842   3.387  25.051   3.685
39469W        W 7843  23.187  21.211   4.296
39470W        W 7844   3.351  20.617   1.261
39471W        W 7845  31.069  26.990   2.290
39472W        W 7846  37.347  32.997  10.640
39473W        W 7847  40.470  42.374  13.809
39474W        W 7848  26.986  41.396  12.967
39475W        W 7849  40.931  11.706  13.375
39476W        W 7850  30.996  17.567  11.470
39477W        W 7851   5.269  39.887   3.249
39478W        W 7852  25.985  24.669  14.876
39479W        W 7853  35.894  24.188   0.452
39480W        W 7854  38.857  40.852  11.904
39481W        W 7855  28.616  34.560   2.223
39482W        W 7856  12.657  34.443  14.293
39483W        W 7857  32.566  26.587   3.767
39484W        W 7858  36.004  20.115  11.057
39485W        W 7859   0.825  18.290  11.494
39486W        W 7860  19.105  39.369  14.949
39487W        W 7861  39.823  34.884  14.912
39488W        W 7862  17.733   0.822  12.080
39489W        W 7863  23.013  31.964  14.978
39490W        W 7864   5.268  43.348   2.791
39491W        W 7865  30.054  43.354  11.900
39492W        W 7866  18.222  42.934   1.362
39493W        W 7867  11.786  41.805   3.651
39494W        W 7868  34.427  20.265  10.490
39495W        W 7869  11.710  44.469   5.167
39496W        W 7870  25.164  12.300  12.940
39497W        W 7871  23.561  39.896  13.911
39498W        W 7872   5.841   4.927  14.819
39499W        W 7873  31.132  41.511   3.681
39500W        W 7874  17.587  29.514   4.726
39501W        W 7875  20.140   3.401  13.960
39502W        W 7876  11.771  15.735   5.086
39503W        W 7877  31.071  24.599  12.851
39504W        W 7878  26.990  12.764  13.060
39505W        W 7879  18.093  30.449  13.943
39506W        W 7880   0.437  40.393  10.557
39507W        W 7881  16.716  21.561   4.136
39508W        W 7882  40.388  14.628  11.419
39509W        W 7883  12.706   9.678   0.855
39510W        W 7884  12.806  42.973  14.913
39511W        W 7885  43.924  34.030   3.265
39512W        W 7886   7.289  12.667   0.278
39513W        W 7887  21.121  16.666   0.441
39514W        W 7888  31.108  16.252  11.586
39515W        W 7889   8.207  43.474  12.394
39516W        W 7890  36.406  39.504  12.861
39517W        W 7891  29.633  12.330  11.577
39518W        W 7892  28.130  19.646   1.770
39519W        W 7893   3.899   0.290  11.920
39520W        W 7894  38.035  39.450  14.497
39521W        W 7895  31.595  40.348  12.578
39522W        W 7896  14.697  44.441   5.316
39523W        W 7897  10.324  29.970   3.719
39524W        W 7898  24.089   2.326  12.466
39525W        W 7899   0.826  23.590   3.336
39526W        W 7900  44.878  28.630   0.390
39527W        W 7901  30.033   7.416   2.218
39528W        W 7902  44.889  11.207  11.543
39529W        W 7903  17.760   9.851   1.231
39530W        W 7904  28.673  13.783   1.369
39531W        W 7905  39.395  42.796  12.561
39532W        W 7906   8.379  38.468  11.982
39533W        W 7907  31.110  12.146   1.254
39534W        W 7908  12.720  33.990   0.447
39535W        W 7909  12.790  21.665  14.828
39536W        W 7910  44.354  38.077   4.165
39537W        W 7911  31.537  37.534  13.330
39538W        W 7912  43.925  43.882  14.357
39539W        W 7913   3.950  20.071   3.249
39540W        W 7914  32.957   4.824  14.911
39541W        W 7915   9.821   6.186   1.759
39542W        W 7916  24.704  43.930   4.814
39543W        W 7917   6.809  23.989   0.807
39544W        W 7918   8.270  31.129   5.710
39545W        W 7919   5.749  41.479  11.117
39546W        W 7920  12.705  40.346   1.411
39547W        W 7921   9.184  28.000   4.749
39548W        W 7922  34.031  22.562  10.035
39549W        W 7923  32.584   5.884  11.858
39550W        W 7924  22.080  30.413   1.403
39551W        W 7925  44.503   5.353  12.843
39552W        W 7926  29.075   2.311   3.320
39553W        W 7927  26.164  32.580   1.275
39554W        W 7928  21.546  10.269   0.345
39555W        W 7929  38.064  29.126  10.979
39556W        W 7930  18.071  39.441   4.630
39557W        W 7931  43.479  30.014   1.228
39558W        W 7932  19.706   3.291   9.960
39559W        W 7933  42.484   8.245  10.465
39560W        W 7934  16.123  13.808  11.504
39561W        W 7935  41.327  28.456  12.560
39562W        W 7936  11.285  29.653   2.797
39563W        W 7937  35.954  38.436  14.300
39564W        W 7938  25.179  42.013   5.289
39565W        W 7939  43.466  34.090   3.315
39566W        W 7940   1.888  24.484   1.795
39567W        W 7941  35.039  42.807   2.403
39568W        W 7942  24.211   3.333   9.941
39569W        W 7943  35.050  44.418   2.683
39570W        W 7944  31.473  43.875   3.269
39571W        W 7945  35.852  15.148   2.879
39572W        W 7946  32.400  13.267  14.402
39573W        W 7947  13.157  39.980   2.231
39574W        W 7948  19.093   1.920   3.295
39575W        W 7949   4.273  37.836  12.443
39576W        W 7950  38.840   8.238  13.543
39577W        W 7951  27.169  13.688  14.410
39578W        W 7952  14.176  18.135   0.760
39579W        W 7953  38.381  11.644  12.881
39580W        W 7954  19.629  22.719   1.766
39581W        W 7955  26.186   0.939  11.897
39582W        W 7956   7.702  17.159   1.766
39583W        W 7957  33.558  37.561  14.428
39584W        W 7958   3.434  20.224  13.050
39585W        W 7959  35.490  19.614   0.319
39586W        W 7960  25.556  24.711  11.570
39587W        W 7961  13.832  19.181  12.420
39588W        W 7962  15.747  25.989   0.303
39589W        W 7963  40.956  21.247  11.885
39590W        W 7964  13.743  21.046   0.288
39591W        W 7965  37.356   6.182   1.717
39592W        W 7966  34.518  22.565   2.887
39593W        W 7967  23.091  23.159   4.729
39594W        W 7968  35.483  39.918  13.049
39595W        W 7969  15.168  26.510   4.652
39596W        W 7970   9.879  16.159  11.950
39597W        W 7971  30.996  13.289  11.000
39598W        W 7972  35.913   5.210  11.396
39599W        W 7973   5.346  38.373  13.799
39600W        W 7974  20.551   1.372  13.839
39601W        W 7975  28.106   9.666   0.780
39602W        W 7976   3.336   7.719  12.541
39603W        W 7977  24.074  42.999   4.143
39604W        W 7978  31.964  37.577   2.337
39605W        W 7979  36.526  33.522   4.728
39606W        W 7980  21.672  43.005   2.814
39607W        W 7981   0.750  21.241  12.466
39608W        W 7982  39.384  16.081   3.758
39609W        W 7983  32.891   5.192  10.955
39610W        W 7984  32.466  24.639  14.812
39611W        W 7985  19.637  21.232   0.805
39612W        W 7986  19.106  29.509   4.776
39613W        W 7987  36.054  15.762  12.380
39614W        W 7988  25.094  12.658   4.271
39615W        W 7989  19.267  36.944  12.048
39616W        W 7990  32.404   8.786   2.697
39617W        W 7991  28.997  43.914   5.129
39618W        W 7992  15.644   3.278   3.641
39619W        W 7993   5.274  44.405  14.380
39620W        W 7994  41.500  24.984  12.471
39621W        W 7995   9.314  29.096   3.788
39622W        W 7996  19.213   1.409  13.485
39623W        W 7997  34.510  29.493  10.588
39624W        W 7998   2.436  29.081   2.747
39625W        W 7999   2.307  27.195  11.392
39626W        W 8000  23.995  28.991   0.417
39627W        W 8001   1.916   8.796  13.916
39628W        W 8002  17.696  43.764   0.828
39629W        W 8003  42.335  30.946   3.786
39630W        W 8004   6.317  22.227   2.771
39631W        W 8005  16.703  28.006   3.647
39632W        W 8006   7.752  41.523  10.458
39633W        W 8007   4.321   6.297  14.288
39634W        W 8008  10.680  41.465   0.467
39635W        W 8009  31.501  21.143   2.898
39636W        W 8010  24.050  34.437   4.178
39637W        W 8011  23.034  14.718  14.409
39638W        W 8012  32.902   3.248  11.890
39639W        W 8013  27.121  18.705   3.269
39640W        W 8014  35.891  31.593   1.830
39641W        W 8015  29.533  38.997  14.401
39642W        W 8016  13.706  10.706   0.934
39643W        W 8017  39.517  44.454   1.883
39644W        W 8018  13.223  41.443  11.908
39645W        W 8019  27.495  21.254  10.915
39646W        W 8020   8.162   4.378  10.130
39647W        W 8021  26.462  13.328  11.527
39648W        W 8022  31.526  18.090  14.841
39649W        W 8023  21.074   9.202   2.793
39650W        W 8024   8.275  44.482  10.635
39651W        W 8025  24.180  43.353  14.897
39652W        W 8026  26.559   7.206   2.361
39653W        W 8027  44.308  31.957   2.220
39654W        W 8028  15.710  27.012   2.369
39655W        W 8029  24.983  44.008  11.577
39656W        W 8030  17.173  24.198  14.499
39657W        W 8031  19.546  25.627   4.171
39658W        W 8032   0.466  13.820  13.506
39659W        W 8033  33.431   8.775   3.168
39660W        W 8034   6.320  20.082  14.339
39661W        W 8035  22.028  20.721   4.152
39662W        W 8036  31.994  16.117  12.432
39663W        W 8037  26.456   8.760  13.328
39664W        W 8038   2.457  14.106   1.842
39665W        W 8039  39.002  18.118  13.427
39666W        W 8040  25.515  15.669  14.786
39667W        W 8041   8.244   0.861  11.540
39668W        W 8042   3.750  33.966  14.766
39669W        W 8043  26.150  34.119   1.850
39670W        W 8044  43.984  12.632  14.896
39671W        W 8045  32.416  32.102  14.875
39672W        W 8046  35.076  26.162   4.310
39673W        W 8047   2.335  33.463  10.944
39674W        W 8048  25.704  10.152   1.288
39675W        W 8049  39.838  41.888   0.361
39676W        W 8050   7.329  30.645   5.196
39677W        W 8051  16.808  37.497  14.515
39678W        W 8052  31.045  35.485   1.696
39679W        W 8053  24.981  13.167   0.334
39680W        W 8054  22.153  23.087  14.990
39681W        W 8055  12.719  31.634   0.321
39682W        W 8056  43.350   8.190   2.336
39683W        W 8057   3.302  42.305  13.856
39684W        W 8058  12.161   1.443   2.304
39685W        W 8059  28.461  38.040  11.081
39686W        W 8060   4.827  26.681  13.528
39687W        W 8061  14.598  22.086   2.808
39688W        W 8062   6.914  42.858   2.792
39689W        W 8063  39.055  17.608  12.085
39690W        W 8064  22.166  38.343  12.388
39691W        W 8065   6.785  21.084  14.828
39692W        W 8066  26.140  41.843   2.350
39693W        W 8067  22.690   9.174   2.861
39694W        W 8068  33.090  34.009  12.464
39695W        W 8069  33.552  15.246  11.004
39696W        W 8070  41.363  22.508   3.317
39697W        W 8071  13.718  38.890   0.953
39698W        W 8072  12.736  27.083   1.882
39699W        W 8073  16.309  42.829  11.929
39700W        W 8074  20.681  41.373   0.339
39701W        W 8075  11.335  44.886   2.899
39702W        W 8076  19.537  37.996   5.209
39703W        W 8077  16.674  36.351   2.413
39704W        W 8078  26.009  24.059   2.763
39705W        W 8079  38.432  35.395   1.261
39706W        W 8080  43.463  38.842  14.406
39707W        W 8081  18.785  35.059  12.086
39708W        W 8082  38.017  34.889  13.807
39709W        W 8083   8.692  17.283   5.313
39710W        W 8084  32.902  17.159  13.494
39711W        W 8085  17.191  13.817   0.949
39712W        W 8086  21.611  28.584   4.245
39713W        W 8087  19.174  40.337  14.879
39714W        W 8088  11.218  12.344   2.186
39715W        W 8089  43.470  22.236  11.879
39716W        W 8090  43.838  15.294  12.379
39717W        W 8091  19.141  19.173   4.731
39718W        W 8092  14.591  12.775  10.640
39719W        W 8093  22.171  24.074  12.012
39720W        W 8094  17.758  28.155  12.384
39721W        W 8095  23.206  35.537   0.809
39722W        W 8096   9.740  12.308   3.685
39723W        W 8097  43.765  31.078  12.853
39724W        W 8098  33.420  12.806  11.525
39725W        W 8099  19.734  31.013   1.353
39726W        W 8100  43.018  43.976  11.430
39727W        W 8101  15.624  24.050  14.960
39728W        W 8102  30.051   4.448   2.281
39729W        W 8103  39.415  29.964   0.960
39730W        W 8104  34.099  38.990  13.447
39731W        W 8105   4.425  44.490  14.847
39732W        W 8106  17.724   1.451   2.364
39733W        W 8107  12.296  22.066   1.762
39734W        W 8108  14.224   2.454  14.304
39735W        W 8109   4.862  29.620  11.980
39736W        W 8110  17.132   9.311  11.046
39737W        W 8111  10.177  30.009  13.386
39738W        W 8112  40.373   6.769   1.437
39739W        W 8113  24.056   5.418  11.448
39740W        W 8114   6.304  33.905  12.393
39741W        W 8115  38.881  34.506  10.126
39742W        W 8116   7.298  21.198  11.508
39743W        W 8117  17.722  31.006   3.289
39744W        W 8118  39.825  42.968   0.470
39745W        W 8119  15.128  40.032   2.664
39746W        W 8120  44.375  40.324  11.020
39747W        W 8121  22.581  33.487  12.828
39748W        W 8122   9.660  13.244  12.550
39749W        W 8123  13.829  38.401  12.458
39750W        W 8124  14.607  23.728   1.405
39751W        W 8125   7.691  10.877   3.796
39752W        W 8126  32.006  27.477   1.919
39753W        W 8127  42.526  15.285  13.041
39754W        W 8128  15.163  39.859   4.807
39755W        W 8129  39.319  14.657  12.094
39756W        W 8130  15.646  38.465  13.892
39757W        W 8131  17.696  12.618  11.928
39758W        W 8132  19.275  22.640   3.710
39759W        W 8133  25.127  18.179  14.778
39760W        W 8134  35.965  24.014  14.949
39761W        W 8135   6.732  20.205   5.764
39762W        W 8136  32.414  38.482   2.679
39763W        W 8137  18.256   8.337   4.292
39764W        W 8138  18.161   5.766   3.180
39765W        W 8139  24.548  23.680  12.854
39766W        W 8140  37.571   2.452  14.857
39767W        W 8141  44.924   1.245  14.958
39768W        W 8142  27.158  25.096   2.291
39769W        W 8143  22.152  35.906   0.786
39770W        W 8144   6.808  32.556   2.215
39771W        W 8145  21.675  43.020   0.304
39772W        W 8146  10.643  19.663   3.210
39773W        W 8147  10.813  13.799  13.814
39774W        W 8148   0.275  41.845   0.264
39775W        W 8149   1.840  17.072   1.770
39776W        W 8150  43.787  18.727   4.605
39777W        W 8151  23.726  42.909  12.030
39778W        W 8152  22.516  24.509  14.013
39779W        W 8153  11.725  21.676   3.777
39780W        W 8154   0.746  10.701  14.995
39781W        W 8155  26.087  25.202  10.584
39782W        W 8156   2.435  39.533  13.371
39783W        W 8157   4.213  16.711   3.368
39784W        W 8158  15.166   0.317  13.038
39785W        W 8159   3.280  14.787  11.468
39786W        W 8160  19.263  23.214  11.447
39787W        W 8161  22.537  12.222   3.315
39788W        W 8162  16.593  17.620  11.968
39789W        W 8163  36.498  26.197  13.350
39790W        W 8164  10.674  22.595  12.440
39791W        W 8165   4.921  30.148  13.486
39792W        W 8166   7.206  27.468  14.814
39793W        W 8167  16.212  27.488  13.926
39794W        W 8168  13.754   5.219   0.327
39795W        W 8169  15.115   0.356  13.388
39796W        W 8170   3.411  36.387   2.807
39797W        W 8171  16.242  33.580   1.764
39798W        W 8172  12.166  28.138  12.938
39799W        W 8173  33.526  15.214  11.470
39800W        W 8174  27.687  23.029   2.331
39801W        W 8175  25.994   4.842  13.325
39802W        W 8176  14.100   8.241   0.400
39803W        W 8177   3.766  16.128  12.837
39804W        W 8178  25.498  33.085  14.810
39805W        W 8179  12.185  19.099   0.260
39806W        W 8180   1.341  23.572   1.410
39807W        W 8181  29.104   6.365   0.369
39808W        W 8182  19.676  24.986   0.944
39809W        W 8183  42.321  32.019  11.379
39810W        W 8184   5.845  36.918   0.268
39811W        W 8185  18.232   2.459   0.401
39812W        W 8186  13.846  14.728  14.876
39813W        W 8187  27.959  25.573  13.021
39814W        W 8188   8.855  15.327   4.138
39815W        W 8189  23.172  21.590  12.549
39816W        W 8190  10.704  44.425  10.533
39817W        W 8191  24.072  15.154   2.749
39818W        W 8192  30.999  35.945   4.809
39819W        W 8193   3.233  40.475   0.480
39820W        W 8194  20.696  36.979  12.470
39821W        W 8195  33.987   3.319   4.257
39822W        W 8196  26.077  33.415   4.608
39823W        W 8197  14.133  12.808  10.471
39824W        W 8198  12.654  20.064   0.429
39825W        W 8199  24.000  30.145  11.934
39826W        W 8200  43.449   3.240  10.562
39827W        W 8201  40.961   2.361  10.464
39828W        W 8202   8.374  31.005  13.410
39829W        W 8203  10.247  41.523  11.946
39830W        W 8204   1.458  14.232  11.500
39831W        W 8205  22.141  17.705  13.020
39832W        W 8206  26.557  17.103  13.984
39833W        W 8207   7.216  17.734  10.127
39834W        W 8208  30.036   6.740   1.344
39835W        W 8209  42.828  39.935   2.291
39836W        W 8210  17.175   3.219   4.712
39837W        W 8211  14.661  33.042   4.765
39838W        W 8212   1.380  36.469   3.861
39839W        W 8213   4.368   7.738  10.628
39840W        W 8214  37.456  43.959   3.788
39841W        W 8215  42.813   5.716   2.762
39842W        W 8216  27.605   7.823   2.754
39843W        W 8217  34.440   9.349   4.233
39844W        W 8218  26.037  40.305  14.966
39845W        W 8219  38.375   6.194  11.120
39846W        W 8220   8.775  34.948  10.997
39847W        W 8221   6.745  22.679  14.770
39848W        W 8222  29.568  42.994   1.433
39849W        W 8223  19.072  39.885   0.264
39850W        W 8224   7.882  13.705  11.894
39851W        W 8225   3.827  38.848  10.092
39852W        W 8226  25.619  18.656  12.916
39853W        W 8227   2.329   0.802   1.311
39854W        W 8228  39.532  26.980   0.421
39855W        W 8229   1.845   8.686   4.615
39856W        W 8230  29.972   8.235   0.416
39857W        W 8231  38.363  15.262   4.128
39858W        W 8232  13.351  41.376   2.183
39859W        W 8233   0.849  39.444  11.118
39860W        W 8234  37.009  12.193  10.969
39861W        W 8235   8.197  14.270  10.898
39862W        W 8236  13.191   1.277   1.333
39863W        W 8237  35.107  31.599   0.433
39864W        W 8238   3.936  21.100  14.965
39865W        W 8239  20.676   7.761  13.815
39866W        W 8240  19.702   9.699  13.335
39867W        W 8241  18.234  12.652  10.602
39868W        W 8242  35.858   1.880  10.453
39869W        W 8243  18.263   3.787   2.749
39870W        W 8244  41.530  44.989  10.521
39871W        W 8245  44.373  30.997  12.056
39872W        W 8246  34.919  23.621   5.145
39873W        W 8247   8.337  38.470  13.837
39874W        W 8248   0.884  23.665   2.249
39875W        W 8249  24.164   8.238  13.891
39876W        W 8250  23.551  25.039  13.974
39877W        W 8251  43.900  30.930   1.799
39878W        W 8252  37.986  15.266   4.785
39879W        W 8253   1.937  23.528   1.866
39880W        W 8254  40.541   8.171   3.326
39881W        W 8255  17.759   7.414  14.504
39882W        W 8256  38.869  33.036   4.164
39883W        W 8257  12.246  26.083   4.328
39884W        W 8258  26.954  14.590   0.793
39885W        W 8259  25.068   6.755   0.914
39886W        W 8260  29.431  10.381  12.063
39887W        W 8261  22.229  40.002   4.155
39888W        W 8262  16.150   9.344   2.357
39889W        W 8263   5.766   4.734  11.371
39890W        W 8264   7.906  17.253   0.830
39891W        W 8265  33.518  42.794  14.280
39892W        W 8266   6.217  28.583   0.265
39893W        W 8267  17.632  22.538  10.515
39894W        W 8268  29.660  38.893  12.366
39895W        W 8269   2.822  41.874   2.707
39896W        W 8270  24.494  17.564   4.293
39897W        W 8271  20.101  18.671   3.236
39898W        W 8272   3.221  36.070   4.301
39899W        W 8273   2.908  34.440  10.941
39900W        W 8274  37.031  31.499   1.731
39901W        W 8275  12.715  21.716  14.514
39902W        W 8276  19.151  39.009   0.781
39903W        W 8277  22.120  26.536  11.516
39904W        W 8278  15.717   4.732   4.337
39905W        W 8279  40.417  43.302   1.759
39906W        W 8280  25.615  26.548   1.229
39907W        W 8281  12.855  28.538   4.829
39908W        W 8282  42.839  19.230   4.775
39909W        W 8283  19.278  17.122  12.409
39910W        W 8284  23.702   6.749  13.836
39911W        W 8285  43.278  19.688  11.553
39912W        W 8286  37.474  33.611  13.009
39913W        W 8287  24.138   5.426  12.838
39914W        W 8288  20.099  14.299  13.525
39915W        W 8289  21.134  41.900  14.511
39916W        W 8290  24.996  30.115  13.844
39917W        W 8291  29.634   6.722   1.372
39918W        W 8292   4.340  34.465  14.949
39919W        W 8293  23.229   8.239   1.733
39920W        W 8294  23.039   3.287   1.861
39921W        W 8295  26.034   9.808   1.221
39922W        W 8296   6.744  14.662  10.917
39923W        W 8297  36.528  18.635  11.128
39924W        W 8298  10.227  12.775  13.499
39925W        W 8299  33.918  26.124   4.285
39926W        W 8300  33.572   4.335   0.796
39927W        W 8301  33.459   3.856   0.947
39928W        W 8302   8.214  42.945  13.811
39929W        W 8303  42.787   0.419  10.532
39930W        W 8304  42.022  41.023   4.618
39931W        W 8305  40.303  21.696   2.283
39932W        W 8306  13.692  15.700   0.350
39933W        W 8307  12.151   6.235   2.689
39934W        W 8308   8.341  15.591  11.389
39935W        W 8309   1.815  22.111   0.923
39936W        W 8310   2.797  20.260  14.488
39937W        W 8311  37.471  29.489   5.104
39938W        W 8312   4.385  35.392  12.832
39939W        W 8313  13.648  25.079   4.331
39940W        W 8314  41.476  37.951  12.472
39941W        W 8315  24.497   7.191  14.375
39942W        W 8316   2.292  27.510   4.608
39943W        W 8317  29.525  32.916   4.210
39944W        W 8318   7.758  42.793   1.783
39945W        W 8319   0.767  41.534   3.832
39946W        W 8320  34.866   7.395   0.842
39947W        W 8321  14.687  12.641  13.866
39948W        W 8322  16.076  31.964   4.730
39949W        W 8323  14.181   4.754   4.148
39950W        W 8324  12.663  38.545   1.731
39951W        W 8325  29.642  42.894  10.086
39952W        W 8326   9.296   6.419   4.211
39953W        W 8327  25.999  33.939   3.776
39954W        W 8328  22.519   8.402  11.127
39955W        W 8329  16.106  41.342  13.019
39956W        W 8330  19.212  16.688   2.731
39957W        W 8331  12.690  10.366   3.331
39958W        W 8332  16.604  36.033   3.146
39959W        W 8333  20.169   4.834  14.834
39960W        W 8334  17.088   9.248   4.668
39961W        W 8335   1.828   6.413   2.673
39962W        W 8336  22.221  43.372   3.715
39963W        W 8337  23.985   9.773  12.500
39964W        W 8338  12.128  14.657  12.939
39965W        W 8339  14.198   6.362   4.800
39966W        W 8340  37.016  30.915   2.899
39967W        W 8341  15.307  31.106   4.222
39968W        W 8342  23.026  41.989  11.096
39969W        W 8343   1.744  39.928  10.955
39970W        W 8344  14.830  23.572  10.570
39971W        W 8345  24.723  42.826   3.321
39972W        W 8346  23.491   5.240   3.668
39973W        W 8347  19.621  39.041  12.025
39974W        W 8348  35.379  23.655  13.014
39975W        W 8349  26.125   1.255  12.455
39976W        W 8350   1.934  11.702   0.780
39977W        W 8351   5.256  20.102   1.314
39978W        W 8352   5.766  42.336  13.799
39979W        W 8353  18.211   5.323   0.279
39980W        W 8354  18.077  20.163  13.405
39981W        W 8355  27.621  39.861  10.982
39982W        W 8356  43.807  39.538  13.854
39983W        W 8357   9.319  44.424   1.924
39984W        W 8358  13.670  30.004  10.574
39985W        W 8359   2.721  41.382   1.834
39986W        W 8360   1.421  30.615   1.899
39987W        W 8361  16.286  28.021   2.838
39988W        W 8362  27.987  16.810   4.811
39989W        W 8363  11.154  41.417   1.424
39990W        W 8364   5.373  35.380   2.224
39991W        W 8365  44.277  17.281  14.951
39992W        W 8366  17.146  17.678   0.357
39993W        W 8367  22.015  43.844  13.805
39994W        W 8368  31.610  13.696  10.447
39995W        W 8369  39.025  15.685   2.828
39996W        W 8370  15.196  30.461   2.724
39997W        W 8371   4.826   5.348   0.787
39998W        W 8372   1.904  17.163   3.827
39999W        W 8373  33.123  34.479   1.304
40000W        W 8374  21.225   0.463  12.521
40001W        W 8375  23.528  21.552  13.944
40002W        W 8376  20.123  19.653   3.717
40003W        W 8377  15.166  11.632   1.785
40004W        W 8378  25.049  14.701   1.794
40005W        W 8379  35.960  12.264  11.035
40006W        W 8380  21.602   6.903   1.854
40007W        W 8381  11.631  21.534   0.894
40008W        W 8382   8.838   6.715  12.448
40009W        W 8383  22.729   1.819   3.382
40010W        W 8384  14.287   4.254   3.819
40011W        W 8385   3.839  19.092   4.637
40012W        W 8386  41.997  25.104   3.713
40013W        W 8387  32.559  15.778   4.735
40014W        W 8388   0.797   3.895   0.307
40015W        W 8389   2.739  27.554  13.318
40016W        W 8390  17.762  19.729  10.956
40017W        W 8391  38.565  39.510   4.167
40018W        W 8392   0.884  17.673   4.186
40019W        W 8393  41.335  17.199  14.311
40020W        W 8394   4.286  32.390   2.274
40021W        W 8395   3.916  12.248  11.961
40022W        W 8396   8.735  38.915  10.416
40023W        W 8397   5.207   3.250   3.634
40024W        W 8398   8.850  37.439   3.681
40025W        W 8399  27.467   0.775  11.101
40026W        W 8400   5.244  25.184  10.899
40027W        W 8401   2.739  25.496   0.739
40028W        W 8402  36.584   1.431   0.247
40029W        W 8403   9.183  31.548   0.893
40030W        W 8404  21.051  43.932   1.810
40031W        W 8405  30.539  13.327   0.246
40032W        W 8406   2.443   0.261  11.117
40033W        W 8407   7.389   8.245   4.700
40034W        W 8408  11.215  14.715   0.339
40035W        W 8409  32.507   0.939  13.045
40036W        W 8410  17.786  11.631  12.361
40037W        W 8411  20.678  24.020   3.305
40038W        W 8412   5.215  39.908  13.314
40039W        W 8413  39.817  40.035  14.018
40040W        W 8414  30.497  14.250   2.417
40041W        W 8415   2.936  15.129  10.470
40042W        W 8416  27.570  26.112   4.745
40043W        W 8417  24.979  24.084  12.073
40044W        W 8418  27.579   6.851   3.276
40045W        W 8419   3.811  10.298   2.843
40046W        W 8420  40.496  29.574   0.767
40047W        W 8421  39.047  44.400  11.498
40048W        W 8422  15.749  33.419  13.330
40049W        W 8423   6.329  23.008  13.315
40050W        W 8424  39.887  29.987   4.134
40051W        W 8425   4.431  30.644   2.201
40052W        W 8426  26.026  20.068   3.845
40053W        W 8427  32.580  11.180  14.025
40054W        W 8428  37.934  44.793  11.566
40055W        W 8429  15.178   0.469   2.362
40056W        W 8430  29.020  11.298  11.074
40057W        W 8431   8.192   1.362   0.756
40058W        W 8432  30.654   1.460  14.432
40059W        W 8433  36.484  31.458  12.504
40060W        W 8434  24.490  18.767  12.564
40061W        W 8435   2.937   2.811  13.512
40062W        W 8436   7.683  13.331   1.351
40063W        W 8437  33.548  43.846   3.866
40064W        W 8438  14.299  23.518  10.595
40065W        W 8439  24.633  34.109   4.781
40066W        W 8440  35.381  38.049  14.917
40067W        W 8441  24.670  25.028   2.179
40068W        W 8442  36.434  44.839  13.021
40069W        W 8443  42.894  15.783   2.751
40070W        W 8444  11.128   1.393   2.755
40071W        W 8445  15.142  18.280   1.241
40072W        W 8446   2.881   3.340  11.921
40073W        W 8447  21.676  30.032  12.872
40074W        W 8448  30.152  10.222   4.633
40075W        W 8449  37.000  25.105   0.297
40076W        W 8450  37.925  44.865  12.016
40077W        W 8451  15.185  19.179  10.615
40078W        W 8452  10.361  18.261   5.759
40079W        W 8453  39.004  37.883   4.691
40080W        W 8454  41.404  39.405  13.493
40081W        W 8455  17.214   1.470   2.821
40082W        W 8456  10.383  31.555  12.560
40083W        W 8457   3.279  32.489   0.278
40084W        W 8458   9.818  16.160   0.318
40085W        W 8459  38.486  34.457  14.409
40086W        W 8460  17.263   6.333   1.312
40087W        W 8461  16.254  37.518  11.406
40088W        W 8462  26.990  15.607   1.698
40089W        W 8463   1.854   6.894   0.330
40090W        W 8464  11.358  29.659   3.635
40091W        W 8465  13.118  34.408   0.778
40092W        W 8466  23.176  15.648   2.741
40093W        W 8467   6.183  35.478   4.712
40094W        W 8468  40.038  28.935  10.941
40095W        W 8469  44.841  29.629   0.316
40096W        W 8470  20.246  38.351   5.148
40097W        W 8471   9.651  39.837   4.281
40098W        W 8472   0.917  26.140  14.811
40099W        W 8473  35.442  27.450  14.337
40100W        W 8474   0.347  28.970   4.296
40101W        W 8475  13.186  26.183   3.234
40102W        W 8476   8.214  33.575  13.512
40103W        W 8477  31.084  23.640  10.956
40104W        W 8478  18.061  17.159  14.017
40105W        W 8479  42.502  19.707   1.263
40106W        W 8480   5.857   2.908  12.021
40107W        W 8481  43.274  40.524   2.686
40108W        W 8482  11.702  19.134  12.012
40109W        W 8483  15.281  13.816   1.884
40110W        W 8484  24.207  32.098   1.329
40111W        W 8485  34.498  42.462   1.921
40112W        W 8486  39.491  15.267   1.232
40113W        W 8487  22.026  34.381   4.814
40114W        W 8488  27.040   0.800   1.298
40115W        W 8489  26.149   6.243   0.460
40116W        W 8490  13.791  32.470   0.851
40117W        W 8491  36.976   8.252   4.269
40118W        W 8492  34.021   6.845  11.120
40119W        W 8493   6.413  26.997   3.157
40120W        W 8494   9.868   1.448  13.385
40121W        W 8495  15.292  20.688  10.446
40122W        W 8496  41.489  12.831  13.361
40123W        W 8497  41.840  23.534  13.452
40124W        W 8498  19.070  41.033  13.974
40125W        W 8499  12.802   6.802   1.326
40126W        W 8500  33.564  21.022   0.355
40127W        W 8501  38.037  13.811  12.904
40128W        W 8502  22.686  32.995  11.604
40129W        W 8503   4.253  18.547   1.405
40130W        W 8504  32.561  37.495   3.220
40131W        W 8505   2.967  31.997  12.503
40132W        W 8506   0.882   6.188  13.360
40133W        W 8507   7.373  32.612   0.832
40134W        W 8508  18.185  38.488  10.937
40135W        W 8509   0.841   7.240  10.034
40136W        W 8510   4.746  17.135   3.788
40137W        W 8511   1.790  39.499   3.272
40138W        W 8512  37.541  17.196  11.030
40139W        W 8513   8.406  27.176  11.060
40140W        W 8514  39.882  22.714   0.825
40141W        W 8515   9.264   2.765   0.259
40142W        W 8516  31.445   9.843  11.542
40143W        W 8517  24.499  10.778   2.366
40144W        W 8518   8.852  13.672   4.690
40145W        W 8519  29.657  25.170   4.783
40146W        W 8520  35.007  40.977   3.293
40147W        W 8521   8.674  28.460   1.429
40148W        W 8522  32.081   5.694   2.669
40149W        W 8523  32.459  14.684  13.841
40150W        W 8524  21.142  20.564  12.531
40151W        W 8525  27.052   7.316   1.395
40152W        W 8526  22.026  32.399   3.331
40153W        W 8527  40.886   9.760  11.396
40154W        W 8528  10.143  17.263   1.263
40155W        W 8529  40.439   5.354   1.868
40156W        W 8530  44.331   4.273  10.630
40157W        W 8531  16.635  23.141   3.694
40158W        W 8532  39.872   5.842  12.344
40159W        W 8533   2.940  35.462  13.507
40160W        W 8534   0.834   7.199  13.449
40161W        W 8535  15.646  33.954  13.909
40162W        W 8536  42.998  44.855  13.334
40163W        W 8537   4.280  22.733   2.680
40164W        W 8538  29.098  28.963  12.451
40165W        W 8539   2.832   0.815  12.941
40166W        W 8540  27.111   6.806   4.779
40167W        W 8541  21.631  16.753   1.859
40168W        W 8542  33.580   0.890  13.056
40169W        W 8543  29.454  33.071  11.966
40170W        W 8544  10.873  11.827   2.752
40171W        W 8545  23.143  32.042   9.649
40172W        W 8546  22.090  41.869  12.522
40173W        W 8547  39.053  44.824  10.546
40174W        W 8548  16.806  36.402  10.525
40175W        W 8549  31.429  43.940   1.404
40176W        W 8550  24.042  27.495  13.823
40177W        W 8551   0.361  13.261  12.530
40178W        W 8552  12.633  23.238  13.419
40179W        W 8553  22.134  26.629  10.592
40180W        W 8554  22.125  12.206   2.732
40181W        W 8555  11.757  43.821   3.693
40182W        W 8556   5.308  38.039   2.791
40183W        W 8557  12.253  15.787   3.253
40184W        W 8558  24.535  10.644  14.471
40185W        W 8559  17.712  11.664   1.278
40186W        W 8560  23.076  11.867   2.737
40187W        W 8561  11.731  12.857  12.441
40188W        W 8562  17.577   7.798   1.752
40189W        W 8563  43.467  19.164  13.358
40190W        W 8564  15.217  35.040   4.695
40191W        W 8565  29.557  35.038   4.117
40192W        W 8566   3.353   4.446   2.785
40193W        W 8567   6.825  17.287   3.652
40194W        W 8568  40.016  15.302  14.850
40195W        W 8569  20.029  10.375   2.676
40196W        W 8570   7.896  29.135  12.544
40197W        W 8571  40.359  42.873  12.399
40198W        W 8572  40.427  34.116   0.818
40199W        W 8573   5.374  26.529  14.971
40200W        W 8574  41.814  39.337  14.977
40201W        W 8575  16.810  37.058   2.291
40202W        W 8576  21.109  33.410  13.957
40203W        W 8577  18.164  11.339  11.463
40204W        W 8578  26.629  13.172  10.604
40205W        W 8579  32.434  35.069   2.186
40206W        W 8580  42.347  31.143   3.293
40207W        W 8581  29.171  19.190  14.937
40208W        W 8582  25.480  27.067   4.822
40209W        W 8583  33.491  43.788  14.451
40210W        W 8584  28.447  40.549  12.920
40211W        W 8585  19.235  40.014  12.926
40212W        W 8586  40.834  16.227  12.346
40213W        W 8587  10.670  36.476  13.479
40214W        W 8588  20.654  25.162   4.657
40215W        W 8589   2.372  18.708  14.324
40216W        W 8590   2.278  13.756  13.938
40217W        W 8591   4.318  14.706  12.919
40218W        W 8592   3.363  36.911   4.820
40219W        W 8593  29.450  25.088  11.056
40220W        W 8594  31.495  33.477  12.941
40221W        W 8595  33.542  21.187   2.350
40222W        W 8596  36.921  15.666  10.083
40223W        W 8597   7.718  40.980   2.414
40224W        W 8598   4.335   0.408   3.308
40225W        W 8599  39.012   4.920   1.834
40226W        W 8600  10.334  15.172  14.286
40227W        W 8601  13.237  38.832  12.384
40228W        W 8602  14.633   5.908  12.365
40229W        W 8603  21.151  34.022   2.377
40230W        W 8604  41.922   3.452  13.494
40231W        W 8605  31.484   6.798   3.177
40232W        W 8606  35.381  44.308  11.030
40233W        W 8607  12.663  11.759  14.790
40234W        W 8608  21.690  19.076   2.345
40235W        W 8609   6.287  27.122  14.804
40236W        W 8610  44.956  10.766  14.422
40237W        W 8611  42.783  31.643   1.342
40238W        W 8612  15.224  29.465  11.537
40239W        W 8613  22.728   2.287  10.970
40240W        W 8614  11.835   9.678   2.289
40241W        W 8615  13.119   7.323  12.480
40242W        W 8616   7.173  28.169   3.837
40243W        W 8617  34.988  17.147  12.580
40244W        W 8618  28.100   7.847   4.634
40245W        W 8619  31.021  26.056   1.867
40246W        W 8620  12.161  14.317   4.792
40247W        W 8621  11.272  31.550   4.788
40248W        W 8622  19.663  10.717  10.473
40249W        W 8623  25.614  28.482   3.666
40250W        W 8624  39.963  39.559   4.327
40251W        W 8625   0.913  32.621   2.683
40252W        W 8626   2.924  14.248  11.085
40253W        W 8627  17.572   9.855  10.932
40254W        W 8628  38.986   9.325  12.897
40255W        W 8629  38.953  37.966   0.414
40256W        W 8630  14.337  19.669  10.113
40257W        W 8631  41.401  35.572   4.123
40258W        W 8632  32.426  39.057  11.520
40259W        W 8633  24.536  44.366   2.245
40260W        W 8634  37.048  16.770   0.918
40261W        W 8635   6.204   8.346   4.217
40262W        W 8636  25.678  23.613  11.461
40263W        W 8637  42.518  27.472   0.950
40264W        W 8638  36.390   6.235   4.760
40265W        W 8639  43.310  27.691  11.388
40266W        W 8640  16.782   4.737  12.550
40267W        W 8641  39.487   5.273   1.338
40268W        W 8642   2.320  35.104   3.288
40269W        W 8643  16.241  13.815   1.852
40270W        W 8644  42.029  42.488  12.495
40271W        W 8645  28.475  19.599  13.950
40272W        W 8646   5.837  21.072  12.367
40273W        W 8647  41.859  31.062  13.401
40274W        W 8648  31.609  42.833  14.014
40275W        W 8649  29.090  30.442   4.249
40276W        W 8650   6.761  42.354  13.870
40277W        W 8651  35.071  25.118   0.454
40278W        W 8652  17.202  26.602   3.840
40279W        W 8653  35.904  19.566  10.978
40280W        W 8654   6.734  29.491   5.298
40281W        W 8655   2.841  29.100   3.846
40282W        W 8656  32.121  30.613   2.211
40283W        W 8657  27.131   0.283  11.914
40284W        W 8658  15.269  18.221   2.891
40285W        W 8659  43.883  43.396   3.385
40286W        W 8660   2.236  19.565   2.851
40287W        W 8661  14.218  42.017   4.632
40288W        W 8662  38.472   9.220  13.844
40289W        W 8663  32.523  38.894   4.743
40290W        W 8664  38.495  42.818   4.320
40291W        W 8665  33.875  27.127   0.907
40292W        W 8666  37.914  31.631   1.903
40293W        W 8667   8.761  33.923  11.079
40294W        W 8668   9.670   7.679  12.981
40295W        W 8669  37.506  11.138  12.965
40296W        W 8670  39.048   1.963   0.300
40297W        W 8671   8.356  40.053   1.802
40298W        W 8672  14.293  27.944  13.342
40299W        W 8673  27.042   9.719  10.464
40300W        W 8674  31.069  10.640  10.975
40301W        W 8675  18.643  23.685   5.113
40302W        W 8676   5.298  41.450  11.493
40303W        W 8677  31.900  20.197  12.898
40304W        W 8678  15.086  25.209   1.697
40305W        W 8679   8.251  19.597  11.034
40306W        W 8680  16.592  44.951  12.567
40307W        W 8681  21.133  20.172   3.863
40308W        W 8682  35.935  17.561   2.670
40309W        W 8683  42.424   4.873  11.604
40310W        W 8684  31.514  36.016  11.450
40311W        W 8685   8.857  42.836   1.773
40312W        W 8686  30.585  38.872   4.721
40313W        W 8687  10.852   2.401  14.811
40314W        W 8688   7.775   5.381  13.332
40315W        W 8689  29.423  35.050   1.879
40316W        W 8690  29.444   9.809   4.232
40317W        W 8691   4.737  19.170   2.222
40318W        W 8692  42.876  12.329   1.433
40319W        W 8693   6.321   3.948  11.420
40320W        W 8694  23.679  32.928   1.242
40321W        W 8695  35.541  35.393  14.396
40322W        W 8696  34.957  28.969   3.659
40323W        W 8697  37.057  27.550  14.305
40324W        W 8698  33.974  40.501  12.540
40325W        W 8699  43.286  40.422  14.448
40326W        W 8700  18.722  42.877   0.401
40327W        W 8701  43.978  41.948  10.600
40328W        W 8702   1.376  20.529  12.064
40329W        W 8703  29.557   2.295   0.942
40330W        W 8704  10.235  40.333  14.995
40331W        W 8705  17.757  37.869   1.907
40332W        W 8706  21.618  27.464   3.709
40333W        W 8707  40.543  41.962  13.971
40334W        W 8708  29.620  19.620  11.508
40335W        W 8709  36.389  31.616   0.751
40336W        W 8710   9.668  22.191  13.884
40337W        W 8711  36.584  32.603   2.715
40338W        W 8712  41.332   2.732  14.805
40339W        W 8713  26.196  18.744   0.726
40340W        W 8714  14.592  22.170  14.776
40341W        W 8715  44.440  23.168  11.481
40342W        W 8716  37.370  34.863   3.786
40343W        W 8717  43.016  21.096   3.207
40344W        W 8718  12.352  23.103  11.967
40345W        W 8719  15.585  43.819   4.802
40346W        W 8720   8.397  32.536   1.331
40347W        W 8721  10.149  20.068   9.572
40348W        W 8722  32.977  37.977  12.855
40349W        W 8723  41.494  15.174   2.785
40350W        W 8724  34.442  11.656  11.880
40351W        W 8725   1.407  22.088  12.342
40352W        W 8726  18.653   6.749   0.814
40353W        W 8727  21.593  30.529   4.694
40354W        W 8728   5.798   8.847  13.345
40355W        W 8729  42.294  30.441   4.668
40356W        W 8730  31.540  13.305   2.319
40357W        W 8731  33.493  25.655  13.314
40358W        W 8732  19.772  27.129   2.194
40359W        W 8733   2.742  29.448  12.885
40360W        W 8734  26.075  12.830  10.473
40361W        W 8735  24.642   7.252   4.261
40362W        W 8736   5.243  16.111  12.370
40363W        W 8737  39.369  39.541  12.895
40364W        W 8738  22.126  35.903   4.235
40365W        W 8739  42.779  18.090  14.967
40366W        W 8740  40.974  10.251  10.545
40367W        W 8741  22.655  36.010   9.923
40368W        W 8742  28.163  10.244   0.422
40369W        W 8743  13.804  17.066  13.486
40370W        W 8744  24.573  31.401   5.575
40371W        W 8745   6.920  40.860  11.577
40372W        W 8746   9.772  10.301   4.221
40373W        W 8747  14.127  35.038  13.416
40374W        W 8748   7.205  10.372  12.997
40375W        W 8749  44.925  21.022   4.604
40376W        W 8750  36.426  31.572   4.723
40377W        W 8751  11.368  20.572  12.832
40378W        W 8752  41.374   4.283  14.927
40379W        W 8753  26.522  22.516   2.274
40380W        W 8754  27.090  11.808  11.423
40381W        W 8755   8.802  20.736   2.865
40382W        W 8756  12.622  28.655   3.362
40383W        W 8757   8.717   4.781   1.339
40384W        W 8758  28.013   6.271  12.878
40385W        W 8759   2.326  30.152  10.531
40386W        W 8760   8.273  40.833   2.244
40387W        W 8761  31.549  37.006   0.275
40388W        W 8762  38.917  43.814   4.206
40389W        W 8763  18.148  22.185  11.376
40390W        W 8764  15.186  29.474  11.018
40391W        W 8765   8.192  19.636   0.910
40392W        W 8766   3.287  19.126   2.369
40393W        W 8767  41.884  13.659  11.467
40394W        W 8768  16.273  34.595  13.392
40395W        W 8769  12.712  28.622  14.367
40396W        W 8770  19.721  15.793  12.487
40397W        W 8771  21.517  18.217   1.833
40398W        W 8772  13.766  29.028   0.437
40399W        W 8773   5.763  20.194   1.777
40400W        W 8774  11.713  26.539   3.201
40401W        W 8775   6.320  21.726  14.287
40402W        W 8776   0.478   9.309   2.385
40403W        W 8777  12.822  12.651   4.243
40404W        W 8778   7.676   4.430   2.731
40405W        W 8779  37.087  29.072   3.277
40406W        W 8780  14.618  44.954  11.102
40407W        W 8781   6.330   7.258   4.236
40408W        W 8782  34.906  18.748   0.803
40409W        W 8783  25.964  40.396   4.120
40410W        W 8784   6.885   6.195   1.903
40411W        W 8785  10.219  21.734  10.892
40412W        W 8786  36.029  18.127  13.972
40413W        W 8787  34.900  39.965  12.897
40414W        W 8788  21.529  37.006  13.057
40415W        W 8789  36.589  38.527  12.369
40416W        W 8790   6.280   7.294   0.830
40417W        W 8791  38.528  23.518   0.434
40418W        W 8792   2.888  15.709  10.637
40419W        W 8793  32.622  24.200  13.453
40420W        W 8794  40.800  32.545  13.386
40421W        W 8795  22.055   8.370  11.513
40422W        W 8796   3.320  29.501  14.327
40423W        W 8797  39.962  29.543   3.187
40424W        W 8798  34.585  25.026  11.487
40425W        W 8799  31.546  44.449   1.878
40426W        W 8800   1.807  13.607  14.925
40427W        W 8801  14.121  35.965  10.999
40428W        W 8802  28.449  39.829  11.961
40429W        W 8803  41.827   0.285  11.582
40430W        W 8804  13.256  30.459   1.349
40431W        W 8805  39.442  18.197  14.768
40432W        W 8806  39.930  30.479  13.872
40433W        W 8807  35.566  32.037  12.973
40434W        W 8808  31.596  13.736   3.231
40435W        W 8809  36.989  13.105   4.202
40436W        W 8810  12.700  38.461  11.522
40437W        W 8811  42.310  14.234   4.611
40438W        W 8812  43.336  22.188  10.996
40439W        W 8813  11.300  35.409   4.675
40440W        W 8814  23.546  18.757   3.859
40441W        W 8815  18.191  33.459  12.364
40442W        W 8816   1.262  19.776   0.379
40443W        W 8817  37.943  10.812  14.334
40444W        W 8818  37.496  33.989  12.519
40445W        W 8819  18.634  23.150   1.253
40446W        W 8820   4.714  27.963   1.836
40447W        W 8821  33.386   3.904  13.977
40448W        W 8822  25.133  32.940   2.664
40449W        W 8823  35.430  18.689   3.240
40450W        W 8824   8.394  19.185   0.921
40451W        W 8825  36.885  11.288   3.179
40452W        W 8826  32.886  34.567   0.899
40453W        W 8827  41.532  33.977   3.209
40454W        W 8828  15.271   2.960   0.753
40455W        W 8829  32.413  30.525  11.465
40456W        W 8830  40.326  21.056  13.527
40457W        W 8831   0.277  38.880  11.504
40458W        W 8832   4.421  18.143  13.485
40459W        W 8833  13.627  17.241   3.292
40460W        W 8834  23.727  21.617   2.376
40461W        W 8835  42.851  17.687  10.436
40462W        W 8836  38.414  44.832  13.957
40463W        W 8837  39.815  17.779  11.519
40464W        W 8838  33.421  14.804  14.788
40465W        W 8839  24.668  14.200   0.885
40466W        W 8840   1.793  28.553  11.002
40467W        W 8841  42.502  30.112   2.251
40468W        W 8842   2.955  41.990  12.000
40469W        W 8843   5.265  36.430  14.788
40470W        W 8844  29.585   3.885  13.365
40471W        W 8845   3.852  28.536   4.793
40472W        W 8846  43.343  21.591   3.861
40473W        W 8847  11.761  28.498  14.481
40474W        W 8848  40.442  26.081   1.328
40475W        W 8849   7.386  42.941   3.264
40476W        W 8850  39.856  24.506   4.200
40477W        W 8851   0.324  18.200  13.993
40478W        W 8852  36.085  42.960   3.663
40479W        W 8853  24.003  14.250  12.408
40480W        W 8854  23.625  42.313  12.913
40481W        W 8855   3.728  13.105   1.392
40482W        W 8856  29.957   2.798  11.103
40483W        W 8857  32.069  34.560   4.184
40484W        W 8858  29.142  37.450   0.357
40485W        W 8859  42.421  34.548  10.911
40486W        W 8860  30.916  28.154   3.768
40487W        W 8861  39.821  43.895  11.115
40488W        W 8862  35.053  23.232   4.780
40489W        W 8863  28.482  18.097   4.152
40490W        W 8864   4.334  34.991   2.356
40491W        W 8865   0.268  37.376  14.974
40492W        W 8866  25.998  43.312   1.230
40493W        W 8867   4.293   1.299  10.522
40494W        W 8868  31.487  26.951  13.395
40495W        W 8869  32.072  41.329   2.693
40496W        W 8870  37.029  10.285  12.939
40497W        W 8871  25.123   4.217  12.054
40498W        W 8872  17.719  40.370  13.957
40499W        W 8873   0.461  40.027   3.718
40500W        W 8874   4.890   6.698  12.984
40501W        W 8875  18.244  34.028  13.973
40502W        W 8876  42.990   4.878   1.823
40503W        W 8877  22.076   1.882   2.828
40504W        W 8878   5.350  36.999  14.392
40505W        W 8879  19.243  37.428   5.133
40506W        W 8880  43.450  18.743   1.254
40507W        W 8881   0.294   0.430   0.848
40508W        W 8882  16.088  18.097  12.834
40509W        W 8883   0.892  43.318   4.679
40510W        W 8884  40.934  25.499  12.343
40511W        W 8885  20.109  15.739  11.522
40512W        W 8886  11.706  12.305   2.339
40513W        W 8887   8.262  30.925  10.067
40514W        W 8888  12.163  14.602  13.435
40515W        W 8889  37.011   2.233   4.763
40516W        W 8890  35.096  33.437  11.385
40517W        W 8891  38.904  24.508  11.455
40518W        W 8892  27.100  13.159   2.713
40519W        W 8893  30.057   7.723   0.750
40520W        W 8894  33.987   2.371   0.945
40521W        W 8895  24.605  39.051  11.054
40522W        W 8896  25.516   6.301   4.656
40523W        W 8897  40.394  26.108  13.838
40524W        W 8898  42.301   9.717   3.774
40525W        W 8899  38.017  35.408   3.308
40526W        W 8900  37.947  16.316  10.909
40527W        W 8901  28.098  25.053  14.007
40528W        W 8902  25.094  22.645  10.508
40529W        W 8903  19.090   5.347   1.774
40530W        W 8904  15.234   4.929   0.401
40531W        W 8905  22.128  24.575   1.213
40532W        W 8906  32.453  13.718   3.780
40533W        W 8907  24.981  20.157   4.764
40534W        W 8908  37.013  27.031  11.006
40535W        W 8909  15.233  25.589   2.226
40536W        W 8910   9.285   2.355  10.589
40537W        W 8911  19.644   8.878   3.147
40538W        W 8912  41.999  22.097   3.298
40539W        W 8913  11.764  40.401  14.799
40540W        W 8914  23.629  41.352  12.462
40541W        W 8915   6.914  23.642  11.508
40542W        W 8916  42.287  25.163  14.773
40543W        W 8917   8.831  40.808   2.862
40544W        W 8918  19.267  13.157   1.398
40545W        W 8919  22.233   1.371  10.457
40546W        W 8920  24.026  16.102  14.459
40547W        W 8921  33.065  43.455  12.378
40548W        W 8922  14.221  25.484  11.566
40549W        W 8923  44.826  30.595   1.393
40550W        W 8924  33.002  39.489   0.456
40551W        W 8925  32.554  35.581  14.277
40552W        W 8926  20.182  23.233  14.023
40553W        W 8927  37.458  38.066  10.414
40554W        W 8928  37.033  18.130   0.934
40555W        W 8929   6.733   2.366  10.120
40556W        W 8930  44.940  24.597  13.985
40557W        W 8931  28.656  11.362   2.879
40558W        W 8932   3.794  22.046  14.852
40559W        W 8933   4.362   5.819   4.173
40560W        W 8934  14.719  28.615   0.293
40561W        W 8935   0.436  19.188  13.890
40562W        W 8936  18.693  39.449   0.310
40563W        W 8937  36.374   4.395  12.531
40564W        W 8938  34.099  13.722   1.861
40565W        W 8939  30.532   5.698  12.058
40566W        W 8940  16.746  10.784  13.487
40567W        W 8941  24.230  22.743  13.509
40568W        W 8942  22.190  16.799   3.852
40569W        W 8943   3.306  41.956   0.731
40570W        W 8944  41.394  41.352  13.872
40571W        W 8945  38.439  34.026   0.924
40572W        W 8946  32.513   4.240   1.784
40573W        W 8947  15.588  11.132   1.386
40574W        W 8948   7.416  41.424  13.039
40575W        W 8949  30.433  27.157   4.657
40576W        W 8950  26.546  21.713   0.263
40577W        W 8951  13.845  34.897  10.888
40578W        W 8952  18.082   4.404   1.891
40579W        W 8953  40.540   8.888   2.417
40580W        W 8954  20.173  18.093   4.175
40581W        W 8955   9.869  40.900  10.501
40582W        W 8956  26.590  12.205   1.900
40583W        W 8957   5.324  36.008  11.916
40584W        W 8958   3.379  25.056  12.020
40585W        W 8959  31.526   1.331   4.355
40586W        W 8960  29.545   1.748   0.847
40587W        W 8961  29.603  23.172   4.824
40588W        W 8962  37.848   9.875  13.857
40589W        W 8963   3.914   0.780   2.231
40590W        W 8964  27.478  41.341  13.956
40591W        W 8965  11.153  14.624   4.605
40592W        W 8966   2.439  27.611  11.866
40593W        W 8967  33.885  41.942  11.593
40594W        W 8968  21.211   1.857   0.934
40595W        W 8969  12.172  25.627   4.771
40596W        W 8970   6.859  34.906   4.144
40597W        W 8971  37.893  23.117   4.804
40598W        W 8972  23.658  22.745  11.880
40599W        W 8973  30.909  30.579   0.952
40600W        W 8974   8.818  16.159   0.821
40601W        W 8975   4.711   1.930   2.276
40602W        W 8976   1.976  26.577   1.319
40603W        W 8977   2.964  30.568   1.298
40604W        W 8978  32.516  40.463   1.287
40605W        W 8979  41.955   9.231   3.173
40606W        W 8980  35.902  40.540   1.743
40607W        W 8981  20.572  19.204   3.340
40608W        W 8982  33.434  36.413   5.190
40609W        W 8983  38.980  43.867   1.802
40610W        W 8984  11.132  22.608  14.479
40611W        W 8985  32.561  34.436  10.935
40612W        W 8986  42.474   8.686   4.252
40613W        W 8987  39.941  43.953   0.935
40614W        W 8988  35.430  41.927   1.234
40615W        W 8989  37.046  41.483  14.358
40616W        W 8990  39.823  40.446  14.330
40617W        W 8991  40.924   1.402  14.378
40618W        W 8992  16.305  23.582   1.268
40619W        W 8993  24.691  19.127   4.214
40620W        W 8994  15.195   7.255   5.307
40621W        W 8995  44.426  42.453  12.846
40622W        W 8996  10.141  42.779   5.252
40623W        W 8997  20.705   3.951  13.974
40624W        W 8998  18.676  32.092  11.100
40625W        W 8999  35.366  25.646  13.538
40626W        W 9000   9.168   6.833  12.451
40627W        W 9001  13.698   5.871  14.843
40628W        W 9002  43.363  20.634   4.676
40629W        W 9003  20.140  11.249   2.331
40630W        W 9004   4.302  44.006  10.642
40631W        W 9005  40.808  37.398  12.457
40632W        W 9006  34.475  44.906  12.041
40633W        W 9007  18.570  18.713   1.871
40634W        W 9008  41.455   2.747  11.449
40635W        W 9009   7.733  20.222   3.348
40636W        W 9010  14.194  30.000   1.279
40637W        W 9011  15.184  18.282  14.981
40638W        W 9012  33.037   4.346   0.359
40639W        W 9013   9.366  30.549  12.344
40640W        W 9014  37.457  29.007   2.768
40641W        W 9015  23.526   3.799  13.965
40642W        W 9016  24.668  13.134   0.393
40643W        W 9017  18.055   1.256  11.120
40644W        W 9018   5.274   2.433  14.855
40645W        W 9019   2.428  14.219   4.289
40646W        W 9020  29.972   9.165  12.466
40647W        W 9021  21.619  29.987   2.776
40648W        W 9022  10.793  33.926  13.462
40649W        W 9023   7.274  35.954  14.314
40650W        W 9024   2.248  36.847   3.149
40651W        W 9025  42.890  36.977  12.981
40652W        W 9026  44.437   0.371   3.825
40653W        W 9027   0.765  18.770   0.916
40654W        W 9028   2.227  18.166   0.930
40655W        W 9029  12.771  36.941   0.423
40656W        W 9030  15.121  10.260   2.735
40657W        W 9031  42.792  44.431  12.503
40658W        W 9032   6.726  35.923  13.812
40659W        W 9033  19.253  44.917  11.585
40660W        W 9034  27.614  43.781   0.876
40661W        W 9035  36.558  38.388  11.488
40662W        W 9036  12.675  32.397  11.581
40663W        W 9037   6.243  33.617   5.302
40664W        W 9038  38.831  15.191   2.345
40665W        W 9039  32.582  29.029  12.500
40666W        W 9040  27.632  11.839  12.556
40667W        W 9041  23.550  15.150   5.657
40668W        W 9042  33.468  13.653  11.584
40669W        W 9043  28.109  29.055  13.485
40670W        W 9044  16.314  34.990   3.254
40671W        W 9045   4.820   2.246   4.609
40672W        W 9046  34.545  28.466   0.846
40673W        W 9047  23.997  33.565  12.998
40674W        W 9048   4.354   7.911   4.345
40675W        W 9049   5.256  29.930   4.216
40676W        W 9050  32.918  21.597  10.972
40677W        W 9051   9.279  15.775   4.303
40678W        W 9052  44.995  18.680  10.559
40679W        W 9053  42.387  15.723   1.445
40680W        W 9054   3.931  24.601  14.344
40681W        W 9055   4.705  15.802   3.204
40682W        W 9056  10.877  33.452  12.401
40683W        W 9057  41.348  20.200  13.919
40684W        W 9058  38.961   0.247   3.637
40685W        W 9059   6.710  26.568  12.833
40686W        W 9060   4.803  11.216  11.977
40687W        W 9061  27.123   1.888   2.275
40688W        W 9062  10.244  10.864   0.262
40689W        W 9063  30.117   6.900  11.075
40690W        W 9064   9.392  33.013  10.422
40691W        W 9065   0.251   8.357  13.892
40692W        W 9066  30.490  42.521  11.969
40693W        W 9067  38.841  23.680   4.648
40694W        W 9068  35.394  13.779   0.901
40695W        W 9069  34.913   4.249   4.604
40696W        W 9070  16.238  29.593   1.864
40697W        W 9071  41.413  38.453  12.367
40698W        W 9072  34.530   2.845   2.190
40699W        W 9073  26.207  11.184   0.782
40700W        W 9074  21.567  16.708  10.644
40701W        W 9075  16.074  29.092   1.297
40702W        W 9076  42.942  17.297   3.706
40703W        W 9077  15.089  40.982   0.368
40704W        W 9078   7.209  32.964  13.906
40705W        W 9079  38.339  28.525   3.325
40706W        W 9080  15.642  21.583   1.885
40707W        W 9081  37.351   9.683   1.881
40708W        W 9082   4.803  21.523   4.348
40709W        W 9083  27.624   0.347  11.439
40710W        W 9084  31.551  27.688  10.456
40711W        W 9085   9.253   6.341  11.101
40712W        W 9086  43.420  38.957   4.641
40713W        W 9087  38.909  26.167   0.834
40714W        W 9088  40.052  21.701   3.632
40715W        W 9089   4.942  22.660   5.084
40716W        W 9090  27.648  26.148  14.369
40717W        W 9091  44.437  25.209  14.841
40718W        W 9092  44.941  20.621  13.376
40719W        W 9093  44.355  34.551  10.035
40720W        W 9094  41.361  41.306   3.640
40721W        W 9095  39.379  10.806   4.705
40722W        W 9096   6.795  13.126   0.412
40723W        W 9097  37.006   0.928  12.088
40724W        W 9098  23.611  36.346  14.426
40725W        W 9099  29.486  20.726  10.530
40726W        W 9100  32.402  37.370   3.727
40727W        W 9101  38.363  22.183  13.862
40728W        W 9102   7.821   0.921   0.873
40729W        W 9103  30.138  27.583  11.391
40730W        W 9104  34.982   4.292   3.211
40731W        W 9105   1.444  32.930   4.678
40732W        W 9106  44.882  19.257   0.805
40733W        W 9107  21.553  18.743   3.854
40734W        W 9108  33.949   0.382  14.867
40735W        W 9109  34.889   4.810   2.751
40736W        W 9110  34.429   7.341  11.932
40737W        W 9111  28.028  39.492  10.507
40738W        W 9112  25.617   5.909  14.871
40739W        W 9113  17.690  42.492   1.738
40740W        W 9114   1.815   0.979   3.170
40741W        W 9115  42.365  35.485  10.561
40742W        W 9116  25.561  11.781   3.374
40743W        W 9117  27.075  32.454  12.875
40744W        W 9118   8.383  38.871  13.937
40745W        W 9119   7.724   9.745  13.871
40746W        W 9120  23.042   5.901  11.028
40747W        W 9121   7.818   2.791  12.850
40748W        W 9122  30.614   9.778  11.395
40749W        W 9123  10.839  39.391   3.630
40750W        W 9124  18.697  13.834   4.816
40751W        W 9125  15.120   1.477  11.903
40752W        W 9126   3.270  30.657  13.057
40753W        W 9127  42.349  15.637   4.331
40754W        W 9128  40.805  25.142   4.176
40755W        W 9129  15.274  32.440  11.947
40756W        W 9130   4.792  35.365  11.468
40757W        W 9131  37.574  12.820  14.987
40758W        W 9132   4.937  29.503  11.494
40759W        W 9133  13.315   5.201  13.832
40760W        W 9134  15.765   5.346  14.412
40761W        W 9135   0.348  21.242  13.805
40762W        W 9136  16.716  23.709  13.860
40763W        W 9137   6.367  44.497   5.232
40764W        W 9138  39.839   5.243  14.770
40765W        W 9139   1.870  12.333  13.809
40766W        W 9140   2.946   2.418   2.703
40767W        W 9141   8.782   4.363   0.783
40768W        W 9142   1.742  29.120   2.901
40769W        W 9143   2.902  35.386   0.919
40770W        W 9144  24.977   8.804  10.578
40771W        W 9145  18.612   3.756   3.262
40772W        W 9146  25.540  22.146   1.815
40773W        W 9147  24.146  15.584  10.481
40774W        W 9148  36.587  42.999   3.294
40775W        W 9149  37.849   3.398  13.876
40776W        W 9150   5.376  16.270  14.493
40777W        W 9151  32.114  37.979   0.477
40778W        W 9152  11.781   7.724   0.889
40779W        W 9153  13.237  26.108   4.746
40780W        W 9154  37.416   1.938   3.823
40781W        W 9155   6.883  40.004  10.517
40782W        W 9156  13.282   5.780   2.697
40783W        W 9157  21.209  19.180   5.085
40784W        W 9158   5.216  21.142  14.880
40785W        W 9159  15.775  16.788   2.245
40786W        W 9160  32.931   5.864  12.850
40787W        W 9161  10.251  41.448  14.449
40788W        W 9162  23.520  37.957   1.451
40789W        W 9163  17.769  36.026   4.800
40790W        W 9164  14.662   0.423  10.510
40791W        W 9165  29.491  32.432   1.741
40792W        W 9166  38.420  12.199   2.888
40793W        W 9167  42.435  42.798  14.835
40794W        W 9168  39.400  15.152  12.362
40795W        W 9169  17.772  43.928   1.366
40796W        W 9170  11.297  24.130   3.838
40797W        W 9171  22.736   7.796   2.261
40798W        W 9172  13.795  29.616   0.368
40799W        W 9173  21.570  27.114   2.304
40800W        W 9174   8.367  27.481  12.996
40801W        W 9175  33.497   4.266   1.867
40802W        W 9176  28.039  28.145   2.865
40803W        W 9177   6.697  31.449   0.760
40804W        W 9178  29.042  23.722   4.650
40805W        W 9179  25.547  34.488   4.639
40806W        W 9180   0.803  38.988   2.801
40807W        W 9181  12.120  39.538   4.294
40808W        W 9182  12.790  37.016   0.932
40809W        W 9183  36.082  40.318  12.014
40810W        W 9184  11.172  22.044   2.410
40811W        W 9185  31.965   8.334  13.851
40812W        W 9186   1.799  15.268  12.486
40813W        W 9187  17.078   0.750   4.261
40814W        W 9188  15.607   4.751  10.508
40815W        W 9189  31.023   0.814   0.757
40816W        W 9190  36.896   4.746  14.853
40817W        W 9191  17.796  28.936   1.392
40818W        W 9192  25.033  16.773   0.469
40819W        W 9193  12.136   4.350   3.797
40820W        W 9194  39.521  20.653  13.515
40821W        W 9195  12.819  28.184   4.786
40822W        W 9196  25.134   7.380  13.448
40823W        W 9197  20.588  41.386   3.768
40824W        W 9198  29.552  44.276  11.380
40825W        W 9199  30.525  43.306  11.603
40826W        W 9200  28.530   3.756  10.912
40827W        W 9201   1.937   9.340   1.417
40828W        W 9202  21.521  22.721  13.376
40829W        W 9203  12.336   9.715   3.167
40830W        W 9204  10.763  34.569  14.985
40831W        W 9205  24.052  43.965  13.387
40832W        W 9206   5.425  25.539  14.334
40833W        W 9207  42.830  37.527  10.554
40834W        W 9208  31.415   8.175   4.186
40835W        W 9209  38.872   8.853  11.404
40836W        W 9210   7.292  32.119   1.887
40837W        W 9211  22.606  38.012   9.997
40838W        W 9212  29.496  24.707  11.396
40839W        W 9213  42.893   9.182  14.332
40840W        W 9214  44.387   7.358  13.827
40841W        W 9215  14.641  19.642   1.799
40842W        W 9216  21.125  30.529  10.100
40843W        W 9217  10.827  34.900  12.342
40844W        W 9218  27.600  21.061   0.261
40845W        W 9219  21.588  15.275   3.312
40846W        W 9220  40.840  16.784   4.248
40847W        W 9221  40.430  18.714  14.441
40848W        W 9222  43.510  35.067   3.734
40849W        W 9223  35.877  14.681  10.911
40850W        W 9224  34.487  44.925  12.837
40851W        W 9225   8.661   1.875  14.299
40852W        W 9226   1.893  22.100  14.863
40853W        W 9227  28.487   0.791   5.760
40854W        W 9228  17.742  38.325   1.304
40855W        W 9229  35.979  20.230   4.815
40856W        W 9230  27.134  34.085  11.599
40857W        W 9231  23.031  23.064  14.395
40858W        W 9232  27.055   0.361   1.805
40859W        W 9233  34.950  26.596   1.754
40860W        W 9234  42.521  12.832   3.768
40861W        W 9235  25.497   9.360  11.886
40862W        W 9236   6.717  31.133  14.281
40863W        W 9237   4.700   5.430   2.793
40864W        W 9238  40.992  44.456   9.928
40865W        W 9239  20.661  13.678   1.838
40866W        W 9240  43.800  32.127   0.951
40867W        W 9241  39.002  20.537  13.990
40868W        W 9242  12.275  28.645  12.490
40869W        W 9243  24.703  36.943   3.370
40870W        W 9244   4.328  34.991  14.789
40871W        W 9245   6.713  22.092  11.964
40872W        W 9246  41.983  25.058   4.144
40873W        W 9247  43.395   5.235  14.360
40874W        W 9248   5.213  14.166   2.418
40875W        W 9249  26.618  38.949  11.094
40876W        W 9250  17.300  24.702   2.193
40877W        W 9251   1.417  33.506   2.268
40878W        W 9252  14.628  37.461   4.828
40879W        W 9253   1.964  24.534   3.301
40880W        W 9254   5.365  20.578   4.771
40881W        W 9255  10.183  22.221   2.678
40882W        W 9256  25.567  42.917  10.901
40883W        W 9257   5.814  28.638  12.442
40884W        W 9258   8.828  22.728   2.827
40885W        W 9259  13.762  43.338  10.571
40886W        W 9260   2.346  40.952  12.464
40887W        W 9261  33.966  13.231  12.873
40888W        W 9262  41.847  11.318   2.835
40889W        W 9263  11.143  35.073   0.243
40890W        W 9264  24.639  12.623  14.420
40891W        W 9265  38.346  15.277   2.787
40892W        W 9266   7.721  35.925  12.469
40893W        W 9267  23.699   3.858   4.249
40894W        W 9268  44.286  21.018  14.411
40895W        W 9269  22.532  39.060   0.298
40896W        W 9270  17.576  35.393  14.426
40897W        W 9271   9.193  14.252  10.612
40898W        W 9272  33.119   7.792   1.431
40899W        W 9273  31.938  33.488  12.511
40900W        W 9274  39.456  32.528   2.730
40901W        W 9275  28.646  21.262   0.948
40902W        W 9276  24.634  22.226  14.340
40903W        W 9277  41.329   7.792   3.364
40904W        W 9278  39.345  17.145  11.957
40905W        W 9279  38.934   3.283   2.257
40906W        W 9280  18.707  37.027  14.280
40907W        W 9281  44.976  12.808   0.292
40908W        W 9282  28.523   7.380   0.845
40909W        W 9283  12.769   5.743   3.691
40910W        W 9284   8.338  28.133   2.680
40911W        W 9285  20.166  34.369   3.235
40912W        W 9286   7.832  38.968   0.479
40913W        W 9287  34.979  12.727  11.056
40914W        W 9288  24.986   2.749  11.580
40915W        W 9289   3.790   0.434   1.264
40916W        W 9290  40.965   0.336   4.706
40917W        W 9291  31.408  12.322  10.895
40918W        W 9292   4.341   3.735  11.430
40919W        W 9293  14.751  17.278   0.833
40920W        W 9294  29.008  11.133  13.797
40921W        W 9295  14.175  33.405  10.894
40922W        W 9296  35.378  34.003   0.254
40923W        W 9297  23.646  40.006   0.744
40924W        W 9298  14.734  18.586   2.695
40925W        W 9299   7.208  22.038  12.503
40926W        W 9300  16.653   7.334   2.220
40927W        W 9301  39.896  20.085  10.449
40928W        W 9302  22.055  31.041  10.002
40929W        W 9303  40.333   4.404   4.191
40930W        W 9304  15.134   7.204   3.298
40931W        W 9305  31.512   0.878   4.762
40932W        W 9306   5.288  29.551  12.051
40933W        W 9307  35.500  17.256  11.902
40934W        W 9308  36.906   6.701   5.086
40935W        W 9309  28.460  36.058  14.365
40936W        W 9310  41.996   1.466   2.729
40937W        W 9311  33.487   9.766  13.994
40938W        W 9312  16.237  12.226   1.711
40939W        W 9313   3.456  36.365  11.514
40940W        W 9314  36.953   8.206  13.985
40941W        W 9315  42.435  10.711  11.559
40942W        W 9316  27.046  34.613  13.873
40943W        W 9317   5.833  33.962  14.414
40944W        W 9318  31.545  32.076  11.398
40945W        W 9319  31.506  12.791  13.907
40946W        W 9320  18.082   2.843  11.500
40947W        W 9321  23.632  10.758  13.529
40948W        W 9322   3.760  18.075   1.350
40949W        W 9323  18.630  21.152   3.759
40950W        W 9324  31.623   8.816   1.300
40951W        W 9325  27.689  31.645  12.538
40952W        W 9326  21.517  23.087  13.819
40953W        W 9327  40.014  28.104   3.312
40954W        W 9328   2.936  38.564  11.611
40955W        W 9329  34.898  11.359  12.538
40956W        W 9330  40.390   5.713  11.917
40957W        W 9331  42.993  29.150  11.599
40958W        W 9332  30.515  31.015   5.255
40959W        W 9333  29.600   0.323  13.008
40960W        W 9334  40.894   4.850   3.196
40961W        W 9335  43.899   2.738   3.777
40962W        W 9336  36.885   7.834   5.210
40963W        W 9337   9.374   0.827   3.844
40964W        W 9338  28.136  33.393  14.773
40965W        W 9339  32.937  19.747  14.509
40966W        W 9340   1.482  23.492   0.379
40967W        W 9341  39.041  26.057  14.479
40968W        W 9342   5.428  33.581   1.344
40969W        W 9343   8.818  43.770  12.052
40970W        W 9344  19.246  22.633  12.900
40971W        W 9345   8.295  35.483   2.350
40972W        W 9346  17.594  29.428  14.017
40973W        W 9347   6.771  26.566  14.912
40974W        W 9348  24.134  23.013   1.773
40975W        W 9349   0.819  31.038   4.118
40976W        W 9350  24.201  29.487   2.710
40977W        W 9351  27.168  28.635  10.955
40978W        W 9352  39.473  43.409  13.896
40979W        W 9353   8.799   9.323   4.770
40980W        W 9354   2.261  31.500  11.439
40981W        W 9355   4.255  33.971  14.280
40982W        W 9356  35.396   4.783   1.894
40983W        W 9357   4.350   6.699   1.823
40984W        W 9358  26.477  30.953   3.272
40985W        W 9359  39.872  23.212  12.465
40986W        W 9360  22.166  19.571  14.893
40987W        W 9361  21.591   6.409   3.354
40988W        W 9362  39.406   7.365   9.447
40989W        W 9363  28.660  14.177  12.929
40990W        W 9364  24.110  24.558  13.451
40991W        W 9365  42.329  33.514   4.303
40992W        W 9366  34.548   0.980  10.607
40993W        W 9367  17.563  31.440  10.945
40994W        W 9368  16.175   2.775   4.304
40995W        W 9369   8.866  20.577  14.481
40996W        W 9370  21.646  17.214   2.185
40997W        W 9371   5.420  44.007  13.342
40998W        W 9372  34.947  37.886   4.208
40999W        W 9373  37.860  40.882  13.420
41000W        W 9374  29.506  43.920  12.878
41001W        W 9375   3.904   3.442  10.045
41002W        W 9376   2.877  13.262   0.823
41003W        W 9377  19.750  40.440  12.932
41004W        W 9378  41.904  34.381  11.011
41005W        W 9379  11.809  21.071   4.232
41006W        W 9380   5.266   1.324  14.975
41007W        W 9381  42.907  33.515  11.033
41008W        W 9382  44.486  28.664  14.327
41009W        W 9383   2.770  15.142  10.993
41010W        W 9384  22.153  32.587   3.787
41011W        W 9385  13.246   7.297   4.228
41012W        W 9386  13.760  33.127  14.368
41013W        W 9387  42.869   6.801  13.535
41014W        W 9388  44.952  19.642  10.944
41015W        W 9389   9.860  24.118   0.762
41016W        W 9390   0.970  28.545   3.267
41017W        W 9391  42.295  32.913  11.890
41018W        W 9392  27.538  43.988  10.966
41019W        W 9393   0.937  22.112  10.160
41020W        W 9394  17.666  29.428  12.557
41021W        W 9395  16.229  13.775  11.884
41022W        W 9396  30.621   2.440  11.418
41023W        W 9397  15.098  37.955  12.995
41024W        W 9398   3.713  37.358   4.312
41025W        W 9399  11.350  12.275  13.965
41026W        W 9400  11.659  21.197   1.922
41027W        W 9401   4.865  17.665  12.858
41028W        W 9402  35.049  34.470   3.838
41029W        W 9403   9.169   8.396  10.433
41030W        W 9404  25.166  44.305   1.373
41031W        W 9405   8.341  22.157   4.119
41032W        W 9406  21.580  16.114  14.413
41033W        W 9407  19.679  29.136   0.744
41034W        W 9408  35.930  39.477   1.263
41035W        W 9409  22.613  40.305   5.747
41036W        W 9410  43.902  18.264  13.398
41037W        W 9411  17.730  41.886   2.851
41038W        W 9412  12.129  18.277  14.858
41039W        W 9413  26.089  29.096  13.522
41040W        W 9414   5.361  42.009   2.885
41041W        W 9415   9.687   0.295   3.839
41042W        W 9416  24.130  44.993   0.757
41043W        W 9417  19.585   9.181  12.880
41044W        W 9418  31.486  16.604   4.335
41045W        W 9419  10.235   5.729  13.969
41046W        W 9420  11.702  29.591  14.472
41047W        W 9421  29.659  23.602  12.510
41048W        W 9422  36.522   6.226  14.455
41049W        W 9423  12.126   9.213   4.749
41050W        W 9424  24.678  37.502   3.715
41051W        W 9425  34.087  29.486   3.754
41052W        W 9426  10.730  12.759  14.359
41053W        W 9427  16.234  21.727   1.930
41054W        W 9428  44.295  22.026   0.857
41055W        W 9429  33.119  25.708   3.720
41056W        W 9430  14.118   4.776   1.807
41057W        W 9431  31.942  42.971  12.382
41058W        W 9432  41.467  10.689  12.916
41059W        W 9433   9.320  33.105   0.444
41060W        W 9434   4.423  27.120   1.901
41061W        W 9435  44.834  10.153   4.759
41062W        W 9436   6.819  12.789   2.667
41063W        W 9437  24.208  38.838   2.668
41064W        W 9438  19.612  26.120  13.504
41065W        W 9439  24.077  19.550   0.831
41066W        W 9440  11.306  13.673   4.643
41067W        W 9441   1.853   1.886  14.420
41068W        W 9442  27.178  31.031  11.388
41069W        W 9443  13.678  11.144   1.742
41070W        W 9444  36.462  31.056  11.466
41071W        W 9445  44.401  30.649  10.947
41072W        W 9446  15.647  23.621   3.660
41073W        W 9447   9.878  30.952  11.004
41074W        W 9448  25.623  18.582   4.721
41075W        W 9449  31.603  15.755   1.425
41076W        W 9450  41.452  39.334   2.859
41077W        W 9451   0.869  39.314   3.172
41078W        W 9452  25.049   9.287   1.224
41079W        W 9453  16.318  25.669  11.915
41080W        W 9454  21.746  38.535   9.923
41081W        W 9455  10.256  31.085  14.503
41082W        W 9456  16.204  24.206  13.900
41083W        W 9457   1.749  44.913   4.736
41084W        W 9458  40.951  19.767   2.774
41085W        W 9459  15.101  19.048  14.510
41086W        W 9460  10.296  26.164  10.916
41087W        W 9461  15.753   6.417  13.889
41088W        W 9462  26.138  32.046   3.801
41089W        W 9463   5.758  38.410   0.436
41090W        W 9464   8.685  31.558  10.420
41091W        W 9465  42.306   3.427  12.346
41092W        W 9466   3.922   4.386   0.395
41093W        W 9467   0.359  34.979   2.350
41094W        W 9468  15.299  42.384  14.507
41095W        W 9469  26.077  37.523   1.846
41096W        W 9470  18.785  29.069   2.229
41097W        W 9471  12.265   0.463  13.837
41098W        W 9472   0.836  32.940  11.504
41099W        W 9473  40.521  17.217  10.945
41100W        W 9474  38.824  12.636  14.849
41101W        W 9475  30.444  11.226   1.758
41102W        W 9476  13.291  17.772  14.349
41103W        W 9477  31.070   9.883   4.717
41104W        W 9478   5.725  43.898   1.289
41105W        W 9479  19.563   8.715  14.939
41106W        W 9480  13.804  25.028   3.784
41107W        W 9481  28.058   5.920   0.799
41108W        W 9482  24.710   5.874  13.379
41109W        W 9483  29.100   8.174  11.967
41110W        W 9484  11.626  30.081  14.469
41111W        W 9485  44.395  15.171  14.804
41112W        W 9486  40.969   1.970   1.839
41113W        W 9487  17.746   0.790  10.028
41114W        W 9488  10.878  41.909  14.338
41115W        W 9489  13.335  34.967   2.855
41116W        W 9490  42.370  42.979  14.014
41117W        W 9491  10.254  19.076   1.845
41118W        W 9492  38.890  21.534   4.317
41119W        W 9493   0.861  17.716   2.299
41120W        W 9494  23.674  27.093  13.874
41121W        W 9495  10.809  22.221  11.489
41122W        W 9496  14.655  40.888  11.929
41123W        W 9497  36.882   7.785   2.689
41124W        W 9498  37.441  30.446  14.434
41125W        W 9499   2.300  13.202   0.769
41126W        W 9500  14.746  20.750  14.376
41127W        W 9501  15.105   6.721   0.379
41128W        W 9502  25.698   4.756  10.982
41129W        W 9503  36.378  34.498  13.318
41130W        W 9504  23.232   7.411   1.810
41131W        W 9505  41.498  33.623  13.433
41132W        W 9506  43.979  15.667  12.392
41133W        W 9507  33.987  19.089   2.761
41134W        W 9508  28.124   6.827   0.416
41135W        W 9509  32.028  19.278   0.389
41136W        W 9510  26.965  22.545  10.086
41137W        W 9511  20.054  16.800  12.084
41138W        W 9512  21.641  17.741  10.490
41139W        W 9513  44.346  26.672  13.899
41140W        W 9514   9.751  43.353   1.834
41141W        W 9515  26.644  41.040   2.875
41142W        W 9516  21.064  11.201   3.662
41143W        W 9517  18.183  35.455   3.857
41144W        W 9518  40.382   4.746   1.849
41145W        W 9519  23.650  25.631   2.788
41146W        W 9520  29.110  39.879   4.760
41147W        W 9521  12.355  35.962   0.840
41148W        W 9522  44.830   0.273  13.487
41149W        W 9523   2.226  38.432  11.567
41150W        W 9524  42.518   3.809  11.988
41151W        W 9525  23.617  24.130   3.153
41152W        W 9526  42.490  24.659   4.777
41153W        W 9527  25.574  20.073  12.017
41154W        W 9528  25.024   3.249   3.852
41155W        W 9529   5.272  22.105  14.842
41156W        W 9530  25.070  42.014  11.572
41157W        W 9531  11.822  35.083   0.785
41158W        W 9532  20.148  26.071  13.012
41159W        W 9533  11.787  10.823   1.236
41160W        W 9534  37.888  28.450  10.477
41161W        W 9535  24.974  41.910   4.204
41162W        W 9536   6.413  15.144   0.343
41163W        W 9537  19.605  17.709  14.969
41164W        W 9538  36.977  37.960   2.760
41165W        W 9539  15.613  34.943   0.423
41166W        W 9540  37.392  38.893  12.882
41167W        W 9541  25.125  26.567   0.884
41168W        W 9542  15.785  31.989  14.942
41169W        W 9543   6.286   0.976  12.435
41170W        W 9544  20.608  30.125  12.019
41171W        W 9545  35.523  44.418  13.038
41172W        W 9546  19.085  34.083   3.858
41173W        W 9547  21.696   4.303   4.144
41174W        W 9548  29.107   0.251   2.327
41175W        W 9549   0.974  23.708  10.989
41176W        W 9550   5.760  12.755  12.339
41177W        W 9551   1.764  43.473   4.205
41178W        W 9552  42.372   7.321   4.331
41179W        W 9553  22.054  39.985   2.330
41180W        W 9554  42.367   4.339  11.906
41181W        W 9555  35.108  12.708   1.789
41182W        W 9556  27.536  11.228  13.462
41183W        W 9557  16.247   6.734  12.055
41184W        W 9558  25.543  44.960   4.814
41185W        W 9559   5.391  32.928   2.314
41186W        W 9560  22.610   7.852  14.985
41187W        W 9561  42.984   8.787   3.297
41188W        W 9562  27.596   2.417   4.272
41189W        W 9563  28.488  35.563   1.386
41190W        W 9564  12.795  21.047  12.521
41191W        W 9565  20.143   0.358  12.063
41192W        W 9566   2.814  21.091  14.360
41193W        W 9567  41.995  31.022   1.919
41194W        W 9568  37.944  25.996  14.978
41195W        W 9569  40.528  33.469  13.538
41196W        W 9570  26.493   1.962   2.277
41197W        W 9571  21.739   2.809   4.623
41198W        W 9572  23.650  26.016  11.091
41199W        W 9573   2.268  13.254  14.446
41200W        W 9574  30.455  28.021   3.809
41201W        W 9575  28.643  41.298   1.788
41202W        W 9576  42.464  23.600   2.765
41203W        W 9577  16.271  29.471   2.715
41204W        W 9578  29.173  12.806   3.358
41205W        W 9579   7.219  43.874   3.848
41206W        W 9580  38.872  23.984   3.375
41207W        W 9581  31.973  18.630   1.770
41208W        W 9582  23.713  35.591   3.173
41209W        W 9583  15.599  41.869   3.634
41210W        W 9584  28.955   2.384  10.608
41211W        W 9585   9.715  10.877   2.702
41212W        W 9586  43.868  29.560   1.314
41213W        W 9587  37.527  30.505  10.002
41214W        W 9588  17.623  44.436   4.145
41215W        W 9589  28.971  29.942   2.387
41216W        W 9590  31.113  10.258   0.465
41217W        W 9591  12.673   5.362   1.853
41218W        W 9592  39.482  31.048  12.923
41219W        W 9593   9.394  27.190  13.874
41220W        W 9594   2.360  11.853  13.540
41221W        W 9595  43.428   7.797   3.314
41222W        W 9596  42.293  17.600  13.540
41223W        W 9597   7.417  29.152  11.976
41224W        W 9598   1.954   3.334   4.653
41225W        W 9599  33.952  26.043  10.974
41226W        W 9600  26.175  11.349  14.449
41227W        W 9601   0.925  42.295   3.360
41228W        W 9602  36.462   8.846  11.472
41229W        W 9603  44.868  18.631  13.942
41230W        W 9604  20.211  37.932   1.300
41231W        W 9605   0.438  37.050   4.696
41232W        W 9606  33.414  12.825   1.699
41233W        W 9607  10.718  28.501  14.494
41234W        W 9608  12.311   2.318   0.767
41235W        W 9609  43.384   5.766   3.375
41236W        W 9610  23.554  34.610   2.242
41237W        W 9611  31.493  34.882   1.302
41238W        W 9612  12.670  37.567   3.369
41239W        W 9613  35.055  17.110   0.251
41240W        W 9614  40.459  25.662   1.302
41241W        W 9615   6.889  40.939  14.901
41242W        W 9616   4.808   8.395  11.472
41243W        W 9617  21.592   4.878  10.998
41244W        W 9618  35.046  31.084  13.412
41245W        W 9619  38.544   2.338  12.063
41246W        W 9620  15.706  21.215  13.498
41247W        W 9621   3.765  19.702  14.975
41248W        W 9622  19.741  23.224  13.814
41249W        W 9623  26.125  26.114  14.797
41250W        W 9624  25.175  38.370   1.258
41251W        W 9625  37.376  13.175  13.405
41252W        W 9626  40.446  12.744  11.531
41253W        W 9627   5.376  27.641   1.878
41254W        W 9628  40.807  43.381  12.421
41255W        W 9629  29.931  26.122  12.983
41256W        W 9630  32.632   0.397  10.543
41257W        W 9631  31.550   4.378  12.580
41258W        W 9632  38.976  16.310   3.642
41259W        W 9633  25.113  14.696   2.821
41260W        W 9634  25.013  30.120   0.769
41261W        W 9635   8.873  16.759   1.798
41262W        W 9636  26.669  36.586   0.953
41263W        W 9637   4.943  10.161  13.351
41264W        W 9638  17.593  21.518   2.354
41265W        W 9639  20.161   6.698   4.800
41266W        W 9640  18.179  34.934   0.745
41267W        W 9641  14.095   0.313   4.311
41268W        W 9642   9.879  12.146  13.912
41269W        W 9643  14.315  14.235  13.536
41270W        W 9644  24.486  12.687  13.877
41271W        W 9645  29.053  30.573  10.888
41272W        W 9646  31.144  34.046  12.844
41273W        W 9647  20.204  26.518  13.878
41274W        W 9648   5.381  16.809  12.528
41275W        W 9649  31.955  22.041   1.364
41276W        W 9650   6.301  35.368   1.924
41277W        W 9651   6.721  36.951  13.982
41278W        W 9652  19.621  18.671   5.128
41279W        W 9653  14.740  17.121   1.434
41280W        W 9654  19.739  18.275   0.831
41281W        W 9655  34.880  35.968   3.786
41282W        W 9656   4.399  15.660  12.411
41283W        W 9657  14.144  16.096  11.578
41284W        W 9658  31.430  32.416  12.573
41285W        W 9659  41.502  32.987  11.595
41286W        W 9660  12.150  18.237   4.738
41287W        W 9661  33.598  19.673   0.451
41288W        W 9662   7.737  26.575  11.973
41289W        W 9663  36.427   3.327   3.279
41290W        W 9664  19.118  29.000  11.514
41291W        W 9665  27.080   9.690   2.186
41292W        W 9666  32.926   4.350  13.052
41293W        W 9667  17.570  22.640  12.980
41294W        W 9668  29.980  29.481  13.932
41295W        W 9669  41.820  30.567  10.137
41296W        W 9670  20.045  20.618  14.894
41297W        W 9671  27.527  29.434   1.799
41298W        W 9672   1.899   4.867  10.089
41299W        W 9673   1.788   6.182  14.284
41300W        W 9674   3.367  19.258   1.695
41301W        W 9675  12.124  37.412  13.980
41302W        W 9676  24.029  31.404   3.174
41303W        W 9677  13.106  44.951   1.449
41304W        W 9678  33.525   1.339   2.800
41305W        W 9679  12.631  41.791   4.716
41306W        W 9680  15.655  44.780   2.748
41307W        W 9681  18.232   1.456  11.893
41308W        W 9682   7.361  14.826  12.459
41309W        W 9683  27.036  12.317   2.876
41310W        W 9684   7.363   9.752  11.964
41311W        W 9685   1.287  29.650  12.513
41312W        W 9686  37.906  20.187  11.047
41313W        W 9687  27.147  22.519  11.544
41314W        W 9688  27.678  44.312  12.962
41315W        W 9689   2.367  43.960   0.457
41316W        W 9690  33.575  43.942   2.373
41317W        W 9691  13.736  18.578   2.728
41318W        W 9692  33.618  28.976   2.295
41319W        W 9693   3.435  19.635  11.382
41320W        W 9694   4.354  15.704   1.707
41321W        W 9695  27.585   6.374  11.866
41322W        W 9696  34.882  13.229   0.921
41323W        W 9697  35.593  40.511  11.594
41324W        W 9698   1.926   1.838  10.960
41325W        W 9699  31.988  29.949  10.474
41326W        W 9700   0.769  10.345   2.302
41327W        W 9701  25.047  35.893  14.841
41328W        W 9702  33.990  42.432   1.906
41329W        W 9703  40.374  19.655   3.266
41330W        W 9704   6.256  33.386   1.694
41331W        W 9705   1.897  38.383  12.859
41332W        W 9706  44.460  33.031  14.979
41333W        W 9707  26.477  14.682   3.285
41334W        W 9708  25.567  37.920  14.807
41335W        W 9709  28.606  42.420  12.016
41336W        W 9710   5.702  30.114   2.870
41337W        W 9711   4.267  23.046  11.993
41338W        W 9712  26.997  32.120   4.772
41339W        W 9713  14.755   1.322  14.310
41340W        W 9714   3.926  10.668   2.355
41341W        W 9715  30.500   3.237   1.228
41342W        W 9716  17.582  23.044   1.441
41343W        W 9717   2.395  31.591   2.711
41344W        W 9718   6.885   4.858  14.289
41345W        W 9719  35.436  16.197  13.920
41346W        W 9720  37.857   9.743   0.841
41347W        W 9721  11.644  28.171  14.366
41348W        W 9722   6.799  25.532   9.920
41349W        W 9723  36.871   2.854  11.507
41350W        W 9724  19.280  31.560   2.698
41351W        W 9725  22.212  27.122  11.001
41352W        W 9726   4.340  36.349   1.916
41353W        W 9727  29.013  25.669  13.536
41354W        W 9728  10.147  14.649   4.287
41355W        W 9729  16.103  15.155  11.047
41356W        W 9730  23.623   4.876   0.292
41357W        W 9731  22.011  14.247   2.835
41358W        W 9732  30.564  39.511  12.003
41359W        W 9733   7.695   1.457  12.920
41360W        W 9734  28.126  23.045   1.263
41361W        W 9735  28.483   5.246   1.830
41362W        W 9736   4.448  32.493   0.778
41363W        W 9737   5.429   0.452   1.320
41364W        W 9738  23.721   7.910   2.297
41365W        W 9739  21.562  32.944   4.790
41366W        W 9740   3.787   8.874  11.126
41367W        W 9741   2.388   4.714  11.889
41368W        W 9742  43.498  41.982  12.954
41369W        W 9743  37.938  11.655  12.501
41370W        W 9744   5.717  27.047  12.552
41371W        W 9745  41.033  29.455   1.294
41372W        W 9746  32.040  26.550   5.156
41373W        W 9747  42.850  26.485  11.532
41374W        W 9748  39.931   5.352   3.825
41375W        W 9749  24.200  43.806   2.898
41376W        W 9750  38.555   8.898   1.869
41377W        W 9751  23.164   2.427   0.927
41378W        W 9752  31.622   4.298  13.461
41379W        W 9753  18.186  43.464   3.734
41380W        W 9754  34.120   6.889  11.529
41381W        W 9755  34.107  13.312   1.439
41382W        W 9756  36.008  24.004   2.896
41383W        W 9757   6.778  17.115   4.769
41384W        W 9758   0.858  15.611  14.973
41385W        W 9759   2.410   0.471  12.944
41386W        W 9760  40.437  37.878  14.281
41387W        W 9761  18.628   1.823  12.503
41388W        W 9762   9.204  42.360   0.838
41389W        W 9763   4.705  20.569   4.339
41390W        W 9764  29.052  10.688   0.930
41391W        W 9765  34.501  16.751   1.748
41392W        W 9766  21.259  39.487   3.248
41393W        W 9767  37.075  41.491  12.854
41394W        W 9768  25.121   3.456  13.980
41395W        W 9769  13.670  11.352   0.404
41396W        W 9770  42.025  41.907   3.291
41397W        W 9771  37.072  37.569  14.954
41398W        W 9772   4.888  31.903   1.396
41399W        W 9773  26.117  44.775   5.613
41400W        W 9774  24.999  14.161  10.609
41401W        W 9775   6.311  21.557   2.770
41402W        W 9776   0.307  30.954  11.426
41403W        W 9777   0.488  35.094  14.308
41404W        W 9778  43.426   5.780   0.406
41405W        W 9779  41.503   5.757  12.079
41406W        W 9780  13.209  20.653  11.385
41407W        W 9781  43.830  16.077   0.765
41408W        W 9782  23.001  44.770   2.237
41409W        W 9783  30.490  26.654   5.169
41410W        W 9784  12.769   0.316  14.402
41411W        W 9785  26.561  39.410  14.296
41412W        W 9786   3.318  41.831   1.714
41413W        W 9787  29.634  12.646   0.895
41414W        W 9788  36.060  23.633   1.726
41415W        W 9789  17.791   1.869  11.106
41416W        W 9790  44.960  26.142   0.873
41417W        W 9791  10.195   5.344   4.286
41418W        W 9792  27.609   0.913   5.658
41419W        W 9793   9.250  31.011   0.967
41420W        W 9794   4.391   2.288   1.785
41421W        W 9795  20.713  13.118   0.912
41422W        W 9796   8.791  17.593   2.773
41423W        W 9797  42.947  18.111   3.726
41424W        W 9798  17.679   5.406  14.505
41425W        W 9799  27.027  15.172  13.039
41426W        W 9800  11.158  35.060  12.559
41427W        W 9801   0.267  42.980   0.802
41428W        W 9802  10.356  37.868  11.896
41429W        W 9803  41.831  32.010  12.866
41430W        W 9804   8.387  32.561   3.732
41431W        W 9805  42.959  41.497  14.388
41432W        W 9806   8.280   5.368   1.889
41433W        W 9807  22.043  35.982   1.822
41434W        W 9808  27.523  43.977  13.061
41435W        W 9809   6.831   4.922   1.900
41436W        W 9810  39.436  10.195   3.839
41437W        W 9811   3.229  35.028  12.371
41438W        W 9812  15.795  22.624   2.774
41439W        W 9813  41.480  37.025  11.492
41440W        W 9814   6.913  24.028   2.297
41441W        W 9815  16.684   1.839   4.787
41442W        W 9816  33.521  36.078   4.612
41443W        W 9817  34.586  38.061   2.246
41444W        W 9818   4.292   4.326   3.703
41445W        W 9819  41.531  13.702   3.157
41446W        W 9820   1.385  20.134   0.837
41447W        W 9821  33.009  24.599  11.562
41448W        W 9822  22.016  22.679  12.391
41449W        W 9823  28.449   4.268  11.540
41450W        W 9824   3.839  19.260   2.790
41451W        W 9825  44.841  37.864  13.851
41452W        W 9826   3.735  10.858   4.298
41453W        W 9827  29.042   5.219   2.313
41454W        W 9828   3.272   7.881   0.730
41455W        W 9829  11.163  19.065  14.983
41456W        W 9830  30.641  40.503  10.922
41457W        W 9831  14.640  21.568  12.431
41458W        W 9832  30.049  35.361   4.716
41459W        W 9833  15.697  42.931  11.499
41460W        W 9834  19.706  28.579   3.302
41461W        W 9835  40.025  27.506  12.031
41462W        W 9836  40.315  38.460  10.538
41463W        W 9837  18.763  32.524  13.033
41464W        W 9838  25.964  43.843   3.188
41465W        W 9839  38.054   8.782   4.658
41466W        W 9840   5.876   5.275  11.464
41467W        W 9841  17.137  26.614   1.354
41468W        W 9842  23.732   9.724   4.230
41469W        W 9843  12.341  40.362  12.998
41470W        W 9844  39.895  18.222  11.975
41471W        W 9845   6.355   9.307  11.005
41472W        W 9846  30.448  15.240  13.531
41473W        W 9847  31.442  44.004  13.994
41474W        W 9848  38.968  21.567   2.724
41475W        W 9849  18.786  25.101  14.327
41476W        W 9850  12.187  28.178  12.390
41477W        W 9851  27.034   8.780  10.507
41478W        W 9852   3.276  12.185   0.368
41479W        W 9853  32.465   1.904  11.490
41480W        W 9854  28.636  35.366  14.951
41481W        W 9855   8.809   8.821   2.241
41482W        W 9856   1.854  15.096   3.675
41483W        W 9857  20.552  38.471  12.419
41484W        W 9858  38.406  42.484  11.949
41485W        W 9859  38.857  25.017   3.853
41486W        W 9860   1.923  18.222   2.338
41487W        W 9861  37.993  30.502  12.858
41488W        W 9862  39.504  36.543   1.830
41489W        W 9863  37.935  21.160  10.536
41490W        W 9864   8.314   5.807   4.737
41491W        W 9865  23.575   2.818  14.304
41492W        W 9866  21.117   5.921  10.070
41493W        W 9867  35.509  12.296   0.805
41494W        W 9868  35.075  25.156  10.070
41495W        W 9869   8.388   3.760  10.943
41496W        W 9870  22.726   9.773   1.421
41497W        W 9871   2.389   5.841   3.746
41498W        W 9872   2.348   8.901   4.775
41499W        W 9873  38.407  10.141  11.418
41500W        W 9874  14.116  29.158   1.280
41501W        W 9875   1.238  35.077  13.506
41502W        W 9876  31.048   5.325  12.364
41503W        W 9877  26.652  38.446   2.762
41504W        W 9878  30.469  21.548   3.344
41505W        W 9879  15.261   5.310   2.282
41506W        W 9880  29.009   8.257  14.786
41507W        W 9881   2.327  40.537   0.473
41508W        W 9882  39.872  25.688   0.324
41509W        W 9883  24.567  38.413   2.759
41510W        W 9884  44.835  30.999   1.782
41511W        W 9885   6.691   3.367   5.193
41512W        W 9886  22.671   4.814  13.493
41513W        W 9887  15.743  38.467   5.121
41514W        W 9888  41.499  22.519  13.546
41515W        W 9889  14.633   8.845  11.580
41516W        W 9890  34.522  37.061  11.932
41517W        W 9891  27.002   9.270   2.324
41518W        W 9892  10.844  33.467  14.466
41519W        W 9893  28.499  42.484  12.512
41520W        W 9894  29.173  36.475  14.970
41521W        W 9895  44.811   3.938   1.821
41522W        W 9896  22.709  21.607   3.729
41523W        W 9897  28.063   7.268  14.305
41524W        W 9898  10.656  17.181   2.783
41525W        W 9899  27.651   5.865  10.947
41526W        W 9900  37.983   6.769   2.680
41527W        W 9901  21.077  24.617  10.980
41528W        W 9902  39.534  31.453  14.514
41529W        W 9903  34.554  16.156   3.201
41530W        W 9904  21.513  42.362  12.984
41531W        W 9905  36.487  37.564  12.558
41532W        W 9906   7.675   7.305  10.560
41533W        W 9907  13.163  30.523  11.608
41534W        W 9908  22.201  38.479   0.782
41535W        W 9909   5.770  14.615   1.843
41536W        W 9910  28.150  11.297   1.862
41537W        W 9911   7.313  21.164  12.514
41538W        W 9912  36.586   5.736  14.013
41539W        W 9913  32.404  41.908   0.296
41540W        W 9914  12.259   9.772  11.481
41541W        W 9915  35.014   7.834  13.952
41542W        W 9916  25.025  44.892   0.327
41543W        W 9917  20.053  42.283   1.730
41544W        W 9918  11.701   4.278   2.214
41545W        W 9919  30.997   0.426   2.802
41546W        W 9920  19.254  27.983  12.849
41547W        W 9921  36.847  34.925   3.237
41548W        W 9922  29.990  34.574  11.079
41549W        W 9923  21.183  19.743   3.845
41550W        W 9924  43.003  12.726   1.349
41551W        W 9925  18.275  22.096  14.910
41552W        W 9926  36.997  26.636   4.821
41553W        W 9927  20.106  24.051  10.923
41554W        W 9928  23.624  10.163  11.394
41555W        W 9929   6.325  27.667   2.340
41556W        W 9930  11.305  28.986   0.749
41557W        W 9931  22.142   4.400   0.258
41558W        W 9932  25.695   7.183  14.999
41559W        W 9933   9.297  24.094  14.382
41560W        W 9934  22.528  20.624   0.307
41561W        W 9935  21.107  27.585   4.289
41562W        W 9936  10.337   6.278  11.038
41563W        W 9937  32.953  43.005  12.948
41564W        W 9938  32.632   1.865   0.829
41565W        W 9939  10.771  38.550   2.777
41566W        W 9940  28.128  40.976   0.885
41567W        W 9941  18.128  17.298  13.062
41568W        W 9942  40.846   1.940  12.022
41569W        W 9943  20.743  34.920   3.733
41570W        W 9944  15.693  35.961  13.882
41571W        W 9945  38.045  41.949  14.488
41572W        W 9946   3.727  41.834   1.266
41573W        W 9947  38.351  41.433  13.973
41574W        W 9948   2.761  31.524   1.227
41575W        W 9949  22.725  33.000   4.618
41576W        W 9950  28.511  23.059   0.390
41577W        W 9951  33.622  10.366  14.430
41578W        W 9952  42.403   1.329  13.355
41579W        W 9953  15.680  32.563   4.162
41580W        W 9954  42.869  35.475  11.939
41581W        W 9955   2.919  15.579   4.657
41582W        W 9956  36.377  27.549   1.883
41583W        W 9957  15.763  36.996   3.190
41584W        W 9958  35.067  24.033   3.291
41585W        W 9959  29.043  24.578  14.801
41586W        W 9960  17.561   3.245  14.013
41587W        W 9961  33.923  10.198  12.892
41588W        W 9962  27.170  41.795  14.377
41589W        W 9963  22.228  22.711  11.883
41590W        W 9964  32.434  15.626  12.844
41591W        W 9965  30.028  36.359  10.414
41592W        W 9966  16.205  31.902  11.868
41593W        W 9967  12.201  40.504  12.035
41594W        W 9968  35.926  31.992   3.731
41595W        W 9969  18.224  42.353  11.963
41596W        W 9970  12.826   6.220  12.093
41597W        W 9971  39.456   4.862  14.327
41598W        W 9972  17.104   4.383   1.767
41599W        W 9973   8.872  42.827  13.028
41600W        W 9974  18.249  41.873   1.221
41601W        W 9975  25.483  13.279   3.226
41602W        W 9976   8.370  11.642   1.375
41603W        W 9977  17.135  21.261  13.983
41604W        W 9978  39.063  16.074   0.939
41605W        W 9979  33.560  18.261  14.367
41606W        W 9980   7.704  28.125  13.025
41607W        W 9981   4.369  32.979   2.202
41608W        W 9982  19.166   5.918  13.321
41609W        W 9983  10.281  12.354  12.081
41610W        W 9984  17.116  20.183  13.502
41611W        W 9985  10.740  20.161   2.799
41612W        W 9986  35.368  19.193   4.617
41613W        W 9987  24.536  25.538  11.124
41614W        W 9988  10.274  30.959  11.878
41615W        W 9989  28.438  13.260   4.700
41616W        W 9990   6.864  43.475   4.613
41617W        W 9991  25.548  16.107  12.969
41618W        W 9992  12.207  10.194  14.384
41619W        W 9993  35.866  26.488   1.827
41620W        W 9994   3.398  33.520   1.372
41621W        W 9995   8.688  27.528  12.016
41622W        W 9996  21.238   3.898  11.563
41623W        W 9997   6.767  20.256  12.567
41624W        W 9998  42.827  11.158   0.756
41625W        W 9999  25.519   6.321   0.829
41626W        W10000  22.159   1.372  12.030
41627W        W10001  19.596  26.063  10.503
41628W        W10002   3.329  38.058  12.042
41629W        W10003   4.805  25.030  11.560
41630W        W10004  25.010  28.124   4.736
41631W        W10005   4.350  10.731  11.093
41632W        W10006  44.813  11.710  14.900
41633W        W10007  43.771   7.353  13.328
41634W        W10008  34.601  40.825   4.286
41635W        W10009  22.194  22.664   3.262
41636W        W10010  23.550  26.650  12.844
41637W        W10011   6.264  28.623   1.808
41638W        W10012  10.663  13.631   2.277
41639W        W10013  20.619  12.745  11.896
41640W        W10014  19.578  16.801   0.474
41641W        W10015  11.864  14.632   1.373
41642W        W10016   1.293  17.193   2.865
41643W        W10017  24.101   0.908  10.970
41644W        W10018  10.257   6.420  12.578
41645W        W10019  31.975  12.335   1.922
41646W        W10020  32.572  37.350   0.469
41647W        W10021  40.004  19.545  11.932
41648W        W10022  32.006  18.053   3.264
41649W        W10023  41.487  28.007  13.523
41650W        W10024  11.805  17.195   3.706
41651W        W10025  29.617  21.643   3.868
41652W        W10026  37.843  32.014  11.474
41653W        W10027  44.806  44.892   4.180
41654W        W10028  38.464  18.739   0.731
41655W        W10029   6.416  14.588   1.729
41656W        W10030  26.956  15.297   4.142
41657W        W10031  32.459  29.135  12.880
41658W        W10032  18.771   2.945   3.776
41659W        W10033   5.350   0.369   0.436
41660W        W10034   5.878   1.376  13.791
41661W        W10035  39.445   5.418  11.903
41662W        W10036   6.706  32.555  12.508
41663W        W10037  40.525   0.372  14.792
41664W        W10038  18.211  23.089  10.495
41665W        W10039  40.392  27.195  11.456
41666W        W10040   2.832  13.207   3.332
41667W        W10041  36.358   7.284   4.116
41668W        W10042  26.126  28.119  10.993
41669W        W10043   7.804  28.005  11.383
41670W        W10044  29.127  29.119  14.339
41671W        W10045  39.038  32.606   0.792
41672W        W10046  25.571  14.823  12.430
41673W        W10047  41.033  11.643   1.756
41674W        W10048  32.060  44.883   0.403
41675W        W10049   9.209   4.753   0.243
41676W        W10050  33.563  16.693  11.502
41677W        W10051  25.583  21.152  14.995
41678W        W10052  20.632  44.840   1.309
41679W        W10053  30.087  14.313   3.781
41680W        W10054  26.503  35.507  13.063
41681W        W10055  10.648  40.379   3.347
41682W        W10056  40.798  17.626   1.845
41683W        W10057  27.140  11.359  14.438
41684W        W10058  30.966   9.295  13.406
41685W        W10059   4.373  40.403  12.035
41686W        W10060  28.116  27.146   2.730
41687W        W10061  29.039  32.410  13.323
41688W        W10062  10.732  20.625  12.481
41689W        W10063   5.299  25.045   1.787
41690W        W10064  27.984   9.842   3.238
41691W        W10065  16.249   0.742  11.899
41692W        W10066  15.692  20.200   1.392
41693W        W10067   0.301  38.546   2.835
41694W        W10068  23.196  32.007   5.757
41695W        W10069  32.111   4.784  11.977
41696W        W10070  37.898  38.848   0.863
41697W        W10071  22.236  41.333  12.442
41698W        W10072   2.326  39.534  10.897
41699W        W10073  10.715  30.019   2.251
41700W        W10074  26.190  38.939   4.707
41701W        W10075  12.817  21.134  10.909
41702W        W10076  23.031  34.462  10.973
41703W        W10077  42.460  12.182  10.622
41704W        W10078   4.801  33.433   2.881
41705W        W10079   4.334  15.735  11.447
41706W        W10080  30.632  26.553   3.847
41707W        W10081  18.157  31.493  14.842
41708W        W10082  27.538  22.229  14.785
41709W        W10083  32.540  36.483  10.984
41710W        W10084  31.963  27.166  11.508
41711W        W10085   9.833  15.727  12.853
41712W        W10086  24.208  12.791  11.536
41713W        W10087   3.793  42.014  10.451
41714W        W10088  28.119  29.437  14.779
41715W        W10089   3.891   4.326   4.663
41716W        W10090  39.962  22.034  13.805
41717W        W10091  33.551  15.726  13.917
41718W        W10092  10.638  20.030   0.307
41719W        W10093  37.035  43.371  11.063
41720W        W10094  37.837  13.261  10.891
41721W        W10095  25.218  30.946  14.902
41722W        W10096  13.177   5.219   1.762
41723W        W10097   3.393  31.494   3.815
41724W        W10098  31.422  19.103   4.608
41725W        W10099   5.896  13.259  12.575
41726W        W10100  40.424  44.990  13.039
41727W        W10101   3.784  26.545   5.160
41728W        W10102  38.952  23.569   2.179
41729W        W10103   9.259  19.079  11.592
41730W        W10104  41.974  25.201   1.248
41731W        W10105   7.354  23.996   0.814
41732W        W10106  38.856   7.864   0.940
41733W        W10107  41.889  24.141  10.949
41734W        W10108   1.837  34.473  12.958
41735W        W10109  40.418  32.958  14.514
41736W        W10110   2.882  44.464  12.984
41737W        W10111  26.043  15.289  11.372
41738W        W10112  30.473   6.854   0.857
41739W        W10113  16.244  22.123   3.868
41740W        W10114   9.721  15.766   2.680
41741W        W10115  18.253   7.364   1.319
41742W        W10116  13.828  31.569  11.396
41743W        W10117   5.414  22.106  11.101
41744W        W10118  34.879  36.480   4.824
41745W        W10119  41.868  23.638  11.598
41746W        W10120  37.073  42.801  13.370
41747W        W10121  26.467  24.021  12.558
41748W        W10122  22.661   8.680   0.380
41749W        W10123  32.598  41.332   2.803
41750W        W10124  28.526   1.395  10.594
41751W        W10125  35.009  20.158   0.936
41752W        W10126   6.217  29.149  11.998
41753W        W10127  24.634   4.373  11.074
41754W        W10128  11.356  37.959  11.013
41755W        W10129  14.740  19.192   2.377
41756W        W10130   5.834   7.880   2.233
41757W        W10131  38.840  19.562  12.022
41758W        W10132   1.931   6.869  12.344
41759W        W10133  38.898  44.340  11.935
41760W        W10134  42.815  27.047   2.720
41761W        W10135  44.417   6.872  13.929
41762W        W10136   4.242   1.377   2.325
41763W        W10137   1.472   3.845  10.953
41764W        W10138  29.656  23.187   2.890
41765W        W10139  35.054  37.941   0.370
41766W        W10140  26.627  13.268  12.865
41767W        W10141   6.912  23.674  11.943
41768W        W10142  17.202  23.525  10.137
41769W        W10143  13.688   0.983  10.916
41770W        W10144  17.619  18.771  13.895
41771W        W10145  22.104  37.509   2.803
41772W        W10146  22.689  34.984  13.368
41773W        W10147  27.112  33.512   2.193
41774W        W10148  15.678  29.466  13.844
41775W        W10149  37.021   4.426   3.349
41776W        W10150  30.495  35.441   0.442
41777W        W10151   7.753  39.362  12.891
41778W        W10152  18.636  17.159  11.088
41779W        W10153  18.651  33.486   0.801
41780W        W10154  41.968  35.862   3.770
41781W        W10155  13.141  32.941  13.473
41782W        W10156  23.629  39.347   4.716
41783W        W10157  15.772  29.602   0.812
41784W        W10158  37.939  13.241   3.308
41785W        W10159   8.868  18.581   0.317
41786W        W10160  44.381  14.280   0.435
41787W        W10161   7.198  41.009   4.323
41788W        W10162  30.075  42.348  14.918
41789W        W10163  35.482  31.435   2.738
41790W        W10164  39.522   0.788   1.403
41791W        W10165  21.593  41.950  12.017
41792W        W10166  33.947   4.291   1.934
41793W        W10167  27.196  34.969  10.479
41794W        W10168  19.717  40.979  13.014
41795W        W10169  28.504  39.051  13.982
41796W        W10170  23.119  43.925  10.888
41797W        W10171  39.315  38.997  12.985
41798W        W10172  34.507  17.243   0.243
41799W        W10173  11.720  26.148  12.415
41800W        W10174  37.082  37.342  13.409
41801W        W10175  17.300  11.731   2.326
41802W        W10176  34.111   9.790   2.348
41803W        W10177  10.264  19.600  13.060
41804W        W10178  27.595   0.963  11.947
41805W        W10179  13.224  14.772  12.530
41806W        W10180  31.002  18.694   0.290
41807W        W10181  20.606  40.475   1.422
41808W        W10182   6.413   2.922   9.983
41809W        W10183  19.634  29.140  11.481
41810W        W10184   5.393  22.221   4.813
41811W        W10185  10.865  22.249  12.081
41812W        W10186  37.934  19.572   2.844
41813W        W10187  36.427  32.950  11.902
41814W        W10188   6.428  38.987   2.805
41815W        W10189  15.241  28.574   0.844
41816W        W10190   8.253   3.277  10.405
41817W        W10191  36.521  16.734   3.381
41818W        W10192  27.667  19.542   5.263
41819W        W10193  14.709   5.785   0.890
41820W        W10194   0.315  42.512  14.029
41821W        W10195  18.674  35.010   3.258
41822W        W10196  16.810   8.738   2.734
41823W        W10197  22.549  25.543   3.729
41824W        W10198  26.585  44.963   2.334
41825W        W10199  41.301   2.269   0.747
41826W        W10200  35.575  41.010   2.735
41827W        W10201  14.683  18.625  14.766
41828W        W10202   9.373  12.852  14.016
41829W        W10203  24.704  44.329  11.115
41830W        W10204  30.461  19.774  13.333
41831W        W10205  37.054   7.774  10.143
41832W        W10206   4.858  38.466  10.949
41833W        W10207  43.801  19.240   2.748
41834W        W10208  38.516  44.803  10.476
41835W        W10209  36.376  43.270   3.214
41836W        W10210   8.846  27.948   4.136
41837W        W10211  27.031  18.251   3.156
41838W        W10212   7.236   8.222  14.301
41839W        W10213  44.883  16.161  12.058
41840W        W10214  30.659  31.641   3.172
41841W        W10215  38.952  12.720   0.829
41842W        W10216   9.291  21.742   0.286
41843W        W10217  22.167  11.289   2.285
41844W        W10218  12.188  14.658  11.045
41845W        W10219  17.631   5.385   3.686
41846W        W10220  29.095  23.625  13.901
41847W        W10221  22.033   1.421   3.230
41848W        W10222  20.673   9.327   3.245
41849W        W10223  39.539  37.562  10.900
41850W        W10224  21.199  16.575  11.527
41851W        W10225  23.043  28.957   5.218
41852W        W10226   3.432   8.733  13.538
41853W        W10227   1.850  26.054   3.780
41854W        W10228  23.614   6.389   1.794
41855W        W10229  28.943  36.491   3.770
41856W        W10230   9.767  42.885   1.450
41857W        W10231  11.279   6.779  11.917
41858W        W10232   8.366  41.854  14.489
41859W        W10233  24.016   1.846  13.057
41860W        W10234  34.107  34.979   3.208
41861W        W10235  11.637  29.640   3.238
41862W        W10236  26.986  36.868  12.534
41863W        W10237  40.872  24.541   2.684
41864W        W10238  16.589  19.201   3.384
41865W        W10239  29.939  39.903   2.790
41866W        W10240  34.454   3.764  13.492
41867W        W10241   1.843  36.089   2.759
41868W        W10242   9.725  26.498   2.273
41869W        W10243  41.902  23.563  11.075
41870W        W10244  17.118  23.183   0.744
41871W        W10245   5.928   8.826  11.409
41872W        W10246   6.822   7.302   0.467
41873W        W10247  31.423  12.124   2.723
41874W        W10248  24.647   9.165  11.951
41875W        W10249  13.170  38.855  11.884
41876W        W10250  19.244  18.100  14.903
41877W        W10251   8.362  23.494  10.442
41878W        W10252  18.150  35.031  14.423
41879W        W10253  28.465  25.172  12.412
41880W        W10254  31.584  23.603  14.990
41881W        W10255  16.646   4.264   4.290
41882W        W10256  25.122   0.312   3.749
41883W        W10257   0.914  19.736   3.698
41884W        W10258  11.341  24.997  13.791
41885W        W10259  14.298  15.119   4.313
41886W        W10260  36.045  20.064   3.351
41887W        W10261   3.766   5.387  12.554
41888W        W10262  16.573  14.286   2.251
41889W        W10263  38.340  37.967  10.535
41890W        W10264  38.005  23.601   1.309
41891W        W10265  39.867  11.770   0.330
41892W        W10266   9.392  41.818   2.369
41893W        W10267  22.161   9.723  14.299
41894W        W10268   8.735   8.374  10.413
41895W        W10269  35.965  16.636  14.771
41896W        W10270   6.267   8.825  14.827
41897W        W10271   6.240  26.046  14.347
41898W        W10272  25.530   5.438   0.438
41899W        W10273  37.856  30.447   0.950
41900W        W10274  22.686  38.331  10.438
41901W        W10275   5.846  20.203  13.944
41902W        W10276  11.344  28.141  12.524
41903W        W10277   3.766   4.256  14.308
41904W        W10278  14.117   6.296  11.875
41905W        W10279  10.216  12.270   3.302
41906W        W10280  11.247   7.395  10.980
41907W        W10281  43.799  43.900  10.987
41908W        W10282  25.001  40.950  13.941
41909W        W10283  25.058   5.295  14.918
41910W        W10284   1.286  13.289  13.025
41911W        W10285   2.903  21.171   4.117
41912W        W10286  23.712  22.021   4.653
41913W        W10287  17.573  23.188   4.654
41914W        W10288  32.074  38.477   1.820
41915W        W10289  22.633  18.601  12.907
41916W        W10290  22.726  12.788  12.913
41917W        W10291   1.332  41.792  13.886
41918W        W10292  10.222  38.358  12.354
41919W        W10293  29.142  34.401  10.891
41920W        W10294  39.315  13.776   1.889
41921W        W10295  28.034  43.379   1.420
41922W        W10296   3.789  29.058   4.607
41923W        W10297  12.635  39.480   1.339
41924W        W10298  15.107  42.791   2.793
41925W        W10299  29.123  42.855  12.376
41926W        W10300  38.035   3.805  13.050
41927W        W10301  24.119  17.090   3.365
41928W        W10302  21.258  12.207  13.496
41929W        W10303  28.183   9.845  13.523
41930W        W10304  22.211  23.660  11.459
41931W        W10305  34.078  23.571  11.967
41932W        W10306  18.681  11.326   4.116
41933W        W10307  18.727   0.754  11.040
41934W        W10308  34.949  20.537   2.886
41935W        W10309  44.915  29.938   1.808
41936W        W10310   3.850  43.888  14.845
41937W        W10311   4.438  40.371   0.404
41938W        W10312  38.346  24.114   2.256
41939W        W10313  12.700  42.880  14.431
41940W        W10314  42.460   4.359   0.951
41941W        W10315  27.503  13.242   1.440
41942W        W10316  36.374  32.489  13.910
41943W        W10317   3.822  39.047   3.211
41944W        W10318  38.994  43.408  11.405
41945W        W10319  44.888  34.510  11.971
41946W        W10320  11.736  30.620  14.978
41947W        W10321  12.152  20.231  11.114
41948W        W10322  39.874  25.522   3.264
41949W        W10323   6.769  23.728   2.883
41950W        W10324   1.454  20.106   4.283
41951W        W10325  29.041   7.174   3.640
41952W        W10326  37.885  25.637  12.853
41953W        W10327  38.376  11.253   3.333
41954W        W10328  43.325  18.589  11.885
41955W        W10329  22.050   0.874   0.823
41956W        W10330   1.456   4.274  13.518
41957W        W10331  28.933  20.166   4.762
41958W        W10332  26.608   5.376   3.264
41959W        W10333  37.550  27.146   4.629
41960W        W10334  36.526  29.056  14.814
41961W        W10335  17.586  14.235  12.959
41962W        W10336  31.043  32.940  10.998
41963W        W10337  36.439  11.190   0.379
41964W        W10338  35.013  20.068   3.669
41965W        W10339  34.504  32.433  14.971
41966W        W10340  28.122   9.345  14.015
41967W        W10341  10.310  16.643   1.694
41968W        W10342  10.830  24.559  11.523
41969W        W10343   7.367  26.025   2.709
41970W        W10344  21.144  25.980  10.907
41971W        W10345  41.345  21.039  11.859
41972W        W10346  29.436  24.007  14.880
41973W        W10347   6.366  19.548  14.509
41974W        W10348  24.212  39.899   4.766
41975W        W10349  12.708  40.529   3.299
41976W        W10350  16.211   5.745  11.934
41977W        W10351  27.615  39.987  13.057
41978W        W10352   8.389  11.146  14.947
41979W        W10353  27.950  25.964   3.171
41980W        W10354   4.905  36.351  11.959
41981W        W10355  34.585  14.237  10.460
41982W        W10356   3.911  13.626   4.672
41983W        W10357   8.819  24.553  12.918
41984W        W10358  30.450  43.321   2.685
41985W        W10359  41.461  16.149   0.404
41986W        W10360  16.207   2.416   0.830
41987W        W10361   9.211  27.112  13.498
41988W        W10362  43.348  30.566  12.843
41989W        W10363  21.538  28.929  10.525
41990W        W10364  44.810  23.132   1.825
41991W        W10365  38.434   2.808   4.248
41992W        W10366  19.724  23.068  13.482
41993W        W10367   5.321  39.950   2.347
41994W        W10368  26.695  34.112   4.740
41995W        W10369  31.462  25.612   4.258
41996W        W10370  33.916  34.383  14.957
41997W        W10371   5.263   4.293   0.346
41998W        W10372  11.299  30.551  14.013
41999W        W10373  41.015   6.244  13.391
42000W        W10374  33.607   7.857   2.303
42001W        W10375  40.814  35.549  12.442
42002W        W10376   0.801  44.441  14.761
42003W        W10377  30.506  42.328   0.333
42004W        W10378  30.611  14.281  14.377
42005W        W10379  11.249  44.971   4.221
42006W        W10380  30.514  10.174  13.928
42007W        W10381  23.583  27.087   3.164
42008W        W10382  24.001  40.010   0.814
42009W        W10383   4.822   9.668  10.548
42010W        W10384  30.501  18.212   2.339
42011W        W10385   8.676   3.913   0.347
42012W        W10386  29.620  40.945  11.076
42013W        W10387  31.917   0.936   1.694
42014W        W10388   2.383  12.155   3.345
42015W        W10389  18.099  13.340   4.227
42016W        W10390  22.108  11.291   0.299
42017W        W10391   7.671  44.904   2.780
42018W        W10392  10.734  32.925  14.900
42019W        W10393   7.401  14.160   1.750
42020W        W10394  29.990  37.373   3.670
42021W        W10395  31.520  40.816   4.229
42022W        W10396  36.356  27.005   0.344
42023W        W10397  21.679  40.038   1.830
42024W        W10398   0.331  42.847   5.263
42025W        W10399  40.915  28.054   0.250
42026W        W10400  11.640  43.405   0.758
42027W        W10401   5.738  15.273   1.907
42028W        W10402   6.918  29.994   3.790
42029W        W10403  13.318  11.797  12.458
42030W        W10404   6.273  25.538   3.282
42031W        W10405  38.351   5.804  13.925
42032W        W10406  37.087  31.457  13.045
42033W        W10407  11.288  17.211  14.384
42034W        W10408  42.867  16.192  12.088
42035W        W10409  22.214  10.872  11.600
42036W        W10410  41.015  32.458  14.792
42037W        W10411  18.209  38.377   3.385
42038W        W10412  25.494  37.880   0.300
42039W        W10413  29.535  17.702   3.785
42040W        W10414  42.457   5.819   1.269
42041W        W10415  11.175  37.848   1.359
42042W        W10416  12.352  33.385   4.671
42043W        W10417   5.330   6.186   1.914
42044W        W10418  34.402  21.237   4.229
42045W        W10419  36.425  20.688   1.760
42046W        W10420  34.972  12.205   2.771
42047W        W10421  21.078  19.098  10.958
42048W        W10422  23.673   6.214  14.457
42049W        W10423  24.103  32.067  14.476
42050W        W10424  34.048  23.676  14.395
42051W        W10425  12.854   4.287  12.479
42052W        W10426   6.727   5.433   4.767
42053W        W10427  41.396  26.188  11.073
42054W        W10428  31.628  37.020  13.482
42055W        W10429  28.676   4.378   4.327
42056W        W10430  37.900  14.267  11.576
42057W        W10431  32.082  11.757   0.298
42058W        W10432  38.529  39.326  13.450
42059W        W10433  36.538   6.372  10.059
42060W        W10434  10.678  38.929  14.471
42061W        W10435  14.164  10.282  13.389
42062W        W10436  41.896  12.350  12.833
42063W        W10437  17.627  11.141  10.490
42064W        W10438  12.856  25.579  12.022
42065W        W10439  16.763  38.968   4.188
42066W        W10440  31.591  22.006   4.132
42067W        W10441   4.431  12.780  14.364
42068W        W10442  31.647   4.842   0.875
42069W        W10443  44.476  44.772   1.248
42070W        W10444  30.063  31.944  14.368
42071W        W10445   5.376  19.637  13.341
42072W        W10446  31.134  15.661   1.250
42073W        W10447   9.884  22.644  12.978
42074W        W10448  32.034  25.129  12.477
42075W        W10449  28.495  30.102  12.833
42076W        W10450  26.064  39.890  13.036
42077W        W10451  36.496  12.618  13.390
42078W        W10452  44.451  33.448   4.313
42079W        W10453  44.371  19.685   1.701
42080W        W10454   2.773  33.463   3.845
42081W        W10455  31.115   2.730  11.978
42082W        W10456  29.099  44.806   4.215
42083W        W10457  28.171  31.458  13.416
42084W        W10458   7.744  29.064   4.132
42085W        W10459  26.186  28.936  11.932
42086W        W10460   6.728  13.206   4.143
42087W        W10461  20.132   1.962   2.241
42088W        W10462  41.846  22.658   2.737
42089W        W10463  36.506   9.716   0.256
42090W        W10464  40.304   5.716  12.419
42091W        W10465   0.890  25.126   4.662
42092W        W10466  26.595   5.731  10.039
42093W        W10467  30.082   9.731   2.324
42094W        W10468  28.166  11.793   3.701
42095W        W10469  32.536  12.777  14.827
42096W        W10470   4.912  12.832   1.294
42097W        W10471  11.163   1.913   0.265
42098W        W10472  28.437  26.587   3.647
42099W        W10473  40.443  21.153   4.222
42100W        W10474  39.503   7.889  13.981
42101W        W10475  18.608   2.273   1.892
42102W        W10476  40.502  38.344   4.814
42103W        W10477  37.027  27.591  13.487
42104W        W10478   4.288   3.398   1.705
42105W        W10479   1.314  42.008   3.667
42106W        W10480  34.448  13.821   3.797
42107W        W10481   6.868  34.945   4.606
42108W        W10482  18.592  30.433  12.891
42109W        W10483  14.285   3.844  11.071
42110W        W10484  30.143  25.659   0.463
42111W        W10485  29.620   9.283  11.447
42112W        W10486  23.181  43.783   0.296
42113W        W10487  34.106  27.669   2.185
42114W        W10488   7.853   3.861   2.313
42115W        W10489   4.924  20.581   4.674
42116W        W10490  27.446  17.271   2.389
42117W        W10491   9.757   4.329   3.823
42118W        W10492   8.786  14.606   1.368
42119W        W10493   3.729  18.139   3.785
42120W        W10494  41.925  28.608  14.821
42121W        W10495  21.083  20.721  13.992
42122W        W10496  10.646  26.096  12.951
42123W        W10497  41.477  18.771  13.856
42124W        W10498  10.791  10.789  13.532
42125W        W10499   9.846   1.258   1.798
42126W        W10500  19.669  13.309  14.465
42127W        W10501  14.661  10.816   1.409
42128W        W10502   8.725  10.695   3.744
42129W        W10503  16.616   3.757   0.276
42130W        W10504  29.975   2.725   0.482
42131W        W10505  16.725  20.143  10.525
42132W        W10506  28.532  23.571   1.342
42133W        W10507  14.766   2.271   0.306
42134W        W10508  12.632   7.729   3.209
42135W        W10509  17.623  35.948   0.447
42136W        W10510  38.558  11.335  10.969
42137W        W10511  37.046  26.997   0.775
42138W        W10512  40.908  22.709   1.450
42139W        W10513  33.412  30.976   0.841
42140W        W10514  37.384  10.814  13.904
42141W        W10515  42.404   6.845  14.337
42142W        W10516   9.793   9.869   3.769
42143W        W10517   6.225   3.234   4.273
42144W        W10518   6.771   8.668  14.767
42145W        W10519  25.702   5.320   1.795
42146W        W10520   7.387  44.422  11.398
42147W        W10521  27.495  27.451  14.028
42148W        W10522   3.260  29.097   0.325
42149W        W10523  40.347   9.662  12.841
42150W        W10524  40.966  15.102  12.552
42151W        W10525   3.916  42.425   3.734
42152W        W10526  25.980  30.434  13.956
42153W        W10527  42.911  22.519  13.941
42154W        W10528   5.735  10.147  13.492
42155W        W10529  10.840  28.000  14.411
42156W        W10530  33.095  30.975  11.901
42157W        W10531  31.545  21.515   3.330
42158W        W10532  11.343  10.676   3.742
42159W        W10533   5.205  19.701  13.794
42160W        W10534  16.732  20.668  13.018
42161W        W10535  14.662  36.987   0.426
42162W        W10536  12.142  26.178   0.295
42163W        W10537  32.020  17.669  14.841
42164W        W10538  44.887  23.232   4.309
42165W        W10539  25.085  17.764  13.442
42166W        W10540  15.694  37.441  14.786
42167W        W10541  36.462  33.569  13.465
42168W        W10542  16.718  35.523   4.632
42169W        W10543  37.471   7.250   9.933
42170W        W10544   7.288  27.044  11.054
42171W        W10545  26.197  26.496   0.950
42172W        W10546  43.329  35.548   0.792
42173W        W10547  41.927  43.324  13.036
42174W        W10548  26.667  13.645   2.187
42175W        W10549  16.257  23.685   2.345
42176W        W10550  30.504   7.704   4.817
42177W        W10551  42.996  19.200  14.417
42178W        W10552  41.910  43.427  10.640
42179W        W10553  41.868  30.463   3.751
42180W        W10554  30.628  28.167   2.268
42181W        W10555  30.143  34.416  12.968
42182W        W10556  37.079  36.082  13.875
42183W        W10557   8.182  23.591   2.815
42184W        W10558   3.946  23.514   3.381
42185W        W10559  38.510  11.799  13.845
42186W        W10560   2.320  26.695  13.415
42187W        W10561  22.027   1.924  14.836
42188W        W10562  35.362  15.092   1.344
42189W        W10563  33.008  36.357  11.495
42190W        W10564  30.929  42.326  11.878
42191W        W10565  44.805   2.298   0.267
42192W        W10566  33.569  23.204  13.925
42193W        W10567  26.550  23.531   2.382
42194W        W10568  15.785  21.111  10.545
42195W        W10569  25.187  14.595   4.333
42196W        W10570  32.570   8.872  14.414
42197W        W10571  43.801  29.008  14.395
42198W        W10572  25.620  42.990   2.398
42199W        W10573   2.788  10.640   2.831
42200W        W10574  34.543   7.763   4.342
42201W        W10575  31.950  21.152  11.501
42202W        W10576  34.598  22.050   1.870
42203W        W10577   4.313  24.502  14.378
42204W        W10578   5.359  37.437  11.603
42205W        W10579   5.744  27.955  10.518
42206W        W10580   8.282  15.774  14.476
42207W        W10581   6.385  33.031   0.299
42208W        W10582  44.991  27.486   1.337
42209W        W10583  34.110   2.763   1.769
42210W        W10584  26.476  29.068   1.899
42211W        W10585  15.796  33.984  14.913
42212W        W10586  29.943  23.117  10.459
42213W        W10587  20.269  17.076   9.962
42214W        W10588  16.695  16.268  11.465
42215W        W10589  40.339   3.456   4.698
42216W        W10590  17.726  24.666   4.260
42217W        W10591  27.973  44.976  11.431
42218W        W10592  37.436   9.793   0.772
42219W        W10593  14.670  11.795   2.269
42220W        W10594  34.936  31.599  14.981
42221W        W10595  37.888   8.775   2.307
42222W        W10596  32.003   1.921   2.713
42223W        W10597   7.752  44.499   0.251
42224W        W10598  38.999  20.661  13.475
42225W        W10599   9.749  26.566   3.340
42226W        W10600  38.973  23.649   0.789
42227W        W10601   0.446  26.646   1.394
42228W        W10602  21.691  20.134  12.504
42229W        W10603   8.667  35.088   3.727
42230W        W10604  23.006  28.443   5.245
42231W        W10605  38.441  29.934  14.454
42232W        W10606  40.479  17.163   0.891
42233W        W10607  16.257  12.189   2.877
42234W        W10608   6.896   6.890   0.364
42235W        W10609  32.557   7.702   0.912
42236W        W10610  23.733  38.377   2.835
42237W        W10611  33.612  30.596   0.414
42238W        W10612  32.901  32.536   1.436
42239W        W10613  20.743  28.959   3.653
42240W        W10614   5.430   3.744   5.769
42241W        W10615  30.610  27.619  14.860
42242W        W10616  41.498  17.760  10.441
42243W        W10617   3.303   4.702  12.851
42244W        W10618   1.417   8.659   1.750
42245W        W10619  36.462  24.229  13.505
42246W        W10620  22.674  37.844   9.674
42247W        W10621  32.578  37.012  12.973
42248W        W10622   2.828  40.902   0.305
42249W        W10623  10.262  25.202  14.338
42250W        W10624  20.065  15.656   0.297
42251W        W10625   7.313  11.773   0.361
42252W        W10626  20.572  34.472  12.852
42253W        W10627  22.230  13.679  11.464
42254W        W10628  42.370  40.522   0.930
42255W        W10629  10.239  17.629  11.122
42256W        W10630   0.962  42.024  11.548
42257W        W10631   5.851  17.664  12.364
42258W        W10632  39.500  23.563  11.993
42259W        W10633  31.401  35.388   2.858
42260W        W10634  41.343  16.656  12.394
42261W        W10635  27.007  39.501   1.850
42262W        W10636   7.867  37.492   3.728
42263W        W10637  30.944  13.337  14.962
42264W        W10638   2.758   8.168   4.181
42265W        W10639   3.259  44.464   1.263
42266W        W10640  32.085   1.268  12.499
42267W        W10641  11.643  12.749   2.207
42268W        W10642  21.563  39.863  10.040
42269W        W10643  35.900   1.753  12.982
42270W        W10644  39.038  13.258  13.024
42271W        W10645  15.621  30.461  11.491
42272W        W10646  42.467  36.364  14.375
42273W        W10647  37.579  14.709   0.348
42274W        W10648  44.906   4.324  11.373
42275W        W10649  21.743   6.400   0.326
42276W        W10650   7.367  22.599   4.127
42277W        W10651  21.668  44.466  10.474
42278W        W10652  32.901  13.238  11.458
42279W        W10653  16.224   0.330  12.011
42280W        W10654  18.291  38.963   3.871
42281W        W10655  34.435  10.650   0.868
42282W        W10656  43.367  15.658   3.765
42283W        W10657   5.382   9.854  14.279
42284W        W10658   5.419  23.633  13.998
42285W        W10659  40.543  37.010  13.546
42286W        W10660  41.443  41.426   2.817
42287W        W10661  22.618  34.936   2.889
42288W        W10662  23.531  24.003   4.150
42289W        W10663  41.400  34.995  10.911
42290W        W10664  27.147  27.468  11.609
42291W        W10665   1.829  26.691  11.606
42292W        W10666  37.836  19.726  14.303
42293W        W10667   1.257   4.788  10.917
42294W        W10668  20.547  37.944   1.751
42295W        W10669  20.541  43.485   3.380
42296W        W10670   9.347   6.860  10.975
42297W        W10671  29.941  28.030  13.322
42298W        W10672  24.518  34.533   4.286
42299W        W10673   8.742  24.518   3.665
42300W        W10674   1.972  15.712   2.366
42301W        W10675   7.398  22.589   3.222
42302W        W10676  22.132  42.357   0.426
42303W        W10677  18.770  30.155   1.411
42304W        W10678  37.040  32.494   2.419
42305W        W10679  27.121  10.687  11.926
42306W        W10680  14.785  19.712  11.054
42307W        W10681  26.165  17.776  13.963
42308W        W10682  19.199  33.085  11.612
42309W        W10683  36.508   1.918   5.274
42310W        W10684  32.588  24.201  13.850
42311W        W10685   9.396  23.005  12.906
42312W        W10686  26.975  39.032   3.757
42313W        W10687  18.701   7.347  13.510
42314W        W10688  30.100  17.180   1.365
42315W        W10689   2.301   5.356   1.229
42316W        W10690  18.213  33.391  13.866
42317W        W10691  18.761  10.207  13.339
42318W        W10692  34.536  27.038   4.239
42319W        W10693  44.439   6.874   0.463
42320W        W10694   8.779  21.724   5.223
42321W        W10695  25.150  27.105  13.954
42322W        W10696  10.230  38.898  10.612
42323W        W10697  15.205  13.651  14.814
42324W        W10698  43.822   2.307  12.510
42325W        W10699  26.672  44.771   0.468
42326W        W10700   6.680  22.566   1.789
42327W        W10701  43.874  21.610  10.633
42328W        W10702  38.435  20.736  11.028
42329W        W10703   9.679  28.069   1.239
42330W        W10704  19.093  34.881  12.933
42331W        W10705  42.286  38.920   0.294
42332W        W10706  33.446  12.192   2.289
42333W        W10707  44.000  26.182   4.314
42334W        W10708  10.173   6.881  12.860
42335W        W10709  34.368   3.333   0.417
42336W        W10710  22.536  34.872  10.976
42337W        W10711  12.137  19.550   3.672
42338W        W10712  17.752   5.871   3.159
42339W        W10713  13.238  41.483  10.971
42340W        W10714   1.880   0.756  12.879
42341W        W10715   1.352  37.358   0.748
42342W        W10716   4.390  28.548  14.308
42343W        W10717   8.761  44.500  11.047
42344W        W10718   6.719   3.420   3.853
42345W        W10719  42.989  12.701  13.320
42346W        W10720  13.627   0.962   2.270
42347W        W10721   0.256  44.755  12.069
42348W        W10722  11.629  41.497  12.848
42349W        W10723   6.318   9.312  11.878
42350W        W10724  39.953  27.645   4.708
42351W        W10725   4.237  15.603  14.980
42352W        W10726  10.868   0.280  12.847
42353W        W10727  20.217  25.210  13.510
42354W        W10728  34.604  26.644   1.930
42355W        W10729  23.064  31.969   0.299
42356W        W10730  10.263  14.714  10.530
42357W        W10731  32.129  25.589  13.939
42358W        W10732  30.135  14.823   2.326
42359W        W10733   3.894   9.262   3.210
42360W        W10734   5.872  35.977   0.303
42361W        W10735  23.572  35.371  11.460
42362W        W10736  35.395  37.436   1.828
42363W        W10737  20.576   3.855  11.962
42364W        W10738  19.271  10.774  13.887
42365W        W10739   5.864  19.046  11.958
42366W        W10740  44.274  42.324  11.414
42367W        W10741  40.489  17.280   2.379
42368W        W10742  21.166  40.432  12.499
42369W        W10743  27.132  14.252  12.490
42370W        W10744   8.770   1.321  12.545
42371W        W10745   7.823  31.054  10.978
42372W        W10746  13.221  12.852  14.992
42373W        W10747  31.038  22.622   2.185
42374W        W10748  34.033  30.101   3.316
42375W        W10749   0.475   4.332   0.377
42376W        W10750  38.898  34.485  10.489
42377W        W10751  10.145  24.230   1.212
42378W        W10752  19.636   0.292  11.909
42379W        W10753  13.733   1.339  12.547
42380W        W10754  13.661  26.563   0.314
42381W        W10755  35.062  13.293  13.013
42382W        W10756   7.377  44.978   3.313
42383W        W10757  38.830   3.421   5.201
42384W        W10758  30.941  37.874   4.119
42385W        W10759  29.506  24.996  12.070
42386W        W10760   6.373  32.074  10.958
42387W        W10761  27.942  35.436   4.654
42388W        W10762   8.191  29.023  14.443
42389W        W10763   9.875  12.276  13.417
42390W        W10764  21.677  38.874  12.830
42391W        W10765   9.775  32.040   3.641
42392W        W10766  16.584  29.610   0.823
42393W        W10767  32.483  13.604  12.039
42394W        W10768   0.917  18.115   5.315
42395W        W10769  40.995  27.623   4.117
42396W        W10770  20.060  40.031   4.836
42397W        W10771  36.025  41.993  14.303
42398W        W10772  17.235  33.462  11.596
42399W        W10773  21.571  29.476   1.275
42400W        W10774  38.990  13.800  12.084
42401W        W10775  29.495  31.521  14.768
42402W        W10776  19.067  10.764  14.903
42403W        W10777  25.705   0.352  11.437
42404W        W10778   6.296  11.786   4.652
42405W        W10779  34.096  36.065   3.187
42406W        W10780  13.770  31.428   4.343
42407W        W10781  24.055   1.806  11.998
42408W        W10782  42.873  20.124  12.428
42409W        W10783   7.349  38.376  12.977
42410W        W10784   2.268   4.223  13.545
42411W        W10785  25.652  23.993  10.573
42412W        W10786  25.509  21.729  11.888
42413W        W10787   7.849   4.923   3.791
42414W        W10788   7.770   7.209  13.498
42415W        W10789  12.349  23.154  10.467
42416W        W10790  13.289  18.229  13.355
42417W        W10791  25.009  38.404  10.558
42418W        W10792  20.236  33.078  14.399
42419W        W10793  21.228  33.492   4.809
42420W        W10794   5.764  19.252   0.374
42421W        W10795  11.178  18.168  14.280
42422W        W10796  16.596  44.905  13.420
42423W        W10797  35.918  36.373   4.169
42424W        W10798  39.395  21.186   2.291
42425W        W10799   7.719   1.457  13.338
42426W        W10800  42.940  17.739   4.651
42427W        W10801  44.954  24.539  13.444
42428W        W10802  11.678  10.735   0.456
42429W        W10803  44.400  11.193  13.923
42430W        W10804   8.306   8.724   4.672
42431W        W10805  29.166  31.948   1.229
42432W        W10806  18.739  39.463  11.092
42433W        W10807  25.171  11.648  10.477
42434W        W10808  15.594  20.525   4.235
42435W        W10809  38.987  34.445   2.832
42436W        W10810  33.958  17.667  14.364
42437W        W10811  31.958   0.334  14.345
42438W        W10812  35.370  34.591  13.441
42439W        W10813  21.635   5.231   4.693
42440W        W10814  16.740   3.297  13.050
42441W        W10815  15.173  35.563   3.785
42442W        W10816  34.874   6.864  13.031
42443W        W10817  41.458  17.714   2.299
42444W        W10818  29.077  44.799   1.758
42445W        W10819  37.461  23.595  12.508
42446W        W10820   3.924  31.998  11.473
42447W        W10821   0.279   9.704  11.555
42448W        W10822  15.578   8.322  10.467
42449W        W10823  34.064   7.826  11.012
42450W        W10824  33.492  39.978   2.809
42451W        W10825  41.895   2.825   1.782
42452W        W10826   4.395   6.209  11.997
42453W        W10827  18.702  39.874   3.719
42454W        W10828  32.887   5.797   4.189
42455W        W10829  12.353  34.927   2.372
42456W        W10830  24.586  44.467  13.842
42457W        W10831  41.340  29.670  11.432
42458W        W10832  41.824   6.297   1.280
42459W        W10833  36.864  10.278  13.998
42460W        W10834  37.446  32.112  11.872
42461W        W10835  25.053  29.000  11.936
42462W        W10836  29.972  41.310  13.847
42463W        W10837  44.309  29.088   0.789
42464W        W10838  34.402  20.206   1.778
42465W        W10839  32.595   3.956  11.948
42466W        W10840  21.115  20.126   2.801
42467W        W10841  43.942  26.107  12.539
42468W        W10842  24.134  10.731  13.334
42469W        W10843  13.161  11.702   2.337
42470W        W10844  43.507  35.878   3.800
42471W        W10845  34.416  38.002   0.768
42472W        W10846  11.165  34.490   4.341
42473W        W10847  23.003  32.576  11.407
42474W        W10848  24.570  40.960  10.438
42475W        W10849   3.893   1.296  13.043
42476W        W10850  43.278   8.286  12.962
42477W        W10851   2.375  13.654   3.316
42478W        W10852   6.898  15.779  12.476
42479W        W10853  21.529  23.530   2.786
42480W        W10854  35.052  20.038   1.718
42481W        W10855  38.981  25.196   5.305
42482W        W10856   5.307  41.839  11.383
42483W        W10857   1.268   8.730  11.104
42484W        W10858  36.930  20.089   0.445
42485W        W10859  38.520  34.549  11.085
42486W        W10860  39.366  38.336  14.507
42487W        W10861  35.473  24.717  12.994
42488W        W10862  24.183  14.775   5.175
42489W        W10863  43.916   4.211  13.944
42490W        W10864  26.109  14.762  13.367
42491W        W10865  15.709  30.047   1.763
42492W        W10866   7.311  35.075   4.136
42493W        W10867  33.071  34.460  11.894
42494W        W10868   2.419  31.928  10.972
42495W        W10869   0.746  17.184   2.309
42496W        W10870  29.428  39.993   4.131
42497W        W10871  31.603   1.885   4.347
42498W        W10872  13.780  44.803   3.865
42499W        W10873   9.656  34.008  13.909
42500W        W10874  30.018  10.196   3.825
42501W        W10875  11.802  26.094   1.220
42502W        W10876  27.597   1.868   3.688
42503W        W10877  18.225  19.648   0.336
42504W        W10878  16.712  15.730   1.324
42505W        W10879   5.393  18.115  13.814
42506W        W10880  27.076  44.957   0.942
42507W        W10881  19.541  33.044  12.439
42508W        W10882  12.748  20.219  11.551
42509W        W10883  13.202  11.195  14.397
42510W        W10884   4.347  19.248  13.459
42511W        W10885  43.282   9.830  11.028
42512W        W10886  27.577  44.769   4.211
42513W        W10887   2.802  19.598  11.096
42514W        W10888  39.019  27.524  14.343
42515W        W10889  21.593  42.317  13.466
42516W        W10890  40.023  42.801   4.276
42517W        W10891  20.573  12.653   4.227
42518W        W10892  20.610  35.403  10.936
42519W        W10893  37.542   1.899  12.958
42520W        W10894  25.079  11.244   4.175
42521W        W10895   9.673   6.905  14.862
42522W        W10896  28.183  25.200   5.205
42523W        W10897  41.827  38.862  11.498
42524W        W10898  37.956  28.586   2.804
42525W        W10899  25.084  37.035   4.167
42526W        W10900  22.547  14.822   0.959
42527W        W10901   7.908  20.734  10.054
42528W        W10902  42.410   0.414   3.780
42529W        W10903   9.759  36.856  13.895
42530W        W10904   3.909  43.975  13.495
42531W        W10905  13.619  41.925  14.780
42532W        W10906  23.619  20.216   0.774
42533W        W10907  10.675   8.761   0.957
42534W        W10908  32.002  32.904   2.285
42535W        W10909  37.979  30.600   2.832
42536W        W10910  28.108   2.947   3.732
42537W        W10911  26.495  42.903  14.805
42538W        W10912  25.974   3.872   3.159
42539W        W10913  15.710  19.766  11.569
42540W        W10914  12.849  38.838  14.877
42541W        W10915  44.314   9.318  13.317
42542W        W10916  40.382   1.416  11.936
42543W        W10917  14.826  23.710  14.504
42544W        W10918  39.540  16.772  13.377
42545W        W10919  25.481  18.083   1.422
42546W        W10920  17.644  30.508   5.179
42547W        W10921  14.296  21.715   2.823
42548W        W10922  43.875  15.251  10.903
42549W        W10923  16.683  27.167  12.097
42550W        W10924  21.628  34.441   0.850
42551W        W10925   1.418  35.406  10.632
42552W        W10926  22.583  39.358  10.482
42553W        W10927  23.130  21.560  11.450
42554W        W10928  16.665  18.215  13.052
42555W        W10929   8.355  15.085   1.703
42556W        W10930  27.445  33.574   0.937
42557W        W10931  19.081   9.276  11.949
42558W        W10932  40.545  30.452  13.405
42559W        W10933  21.079   7.896   3.359
42560W        W10934  22.571  38.372   1.822
42561W        W10935  14.762  21.698  14.507
42562W        W10936  27.115   8.700   4.291
42563W        W10937  29.963  30.623   0.920
42564W        W10938  23.491  13.830  10.515
42565W        W10939  31.934  20.093  11.377
42566W        W10940  18.683   4.752  10.148
42567W        W10941  39.402  14.629   4.688
42568W        W10942   6.839   4.363   2.267
42569W        W10943   8.369   3.755   4.347
42570W        W10944  13.208  13.271  10.529
42571W        W10945  15.152  28.970   0.430
42572W        W10946   2.816  19.546   0.266
42573W        W10947   4.446  44.432   1.798
42574W        W10948  25.551   0.785  11.888
42575W        W10949  40.870  36.359   3.213
42576W        W10950  10.785   9.389   1.419
42577W        W10951  37.415  41.493  14.002
42578W        W10952  23.152  17.570  14.966
42579W        W10953  14.809   1.889  14.397
42580W        W10954  33.993  23.676  14.942
42581W        W10955   1.763  35.949  10.513
42582W        W10956   9.343  35.881   0.756
42583W        W10957   1.363  33.986  10.589
42584W        W10958  39.890  32.398   2.265
42585W        W10959  23.586  27.475  12.445
42586W        W10960  20.055  20.272  13.968
42587W        W10961  23.590  33.085  12.464
42588W        W10962  27.447   8.802  11.531
42589W        W10963  21.542  22.656  12.523
42590W        W10964  11.742  44.915   1.215
42591W        W10965  16.081  43.914  11.549
42592W        W10966  17.168   2.262   1.908
42593W        W10967   2.913  18.717   2.263
42594W        W10968  11.629  44.831   2.388
42595W        W10969  44.956   1.851   4.698
42596W        W10970   9.182  43.884   0.451
42597W        W10971  10.307  33.922  13.423
42598W        W10972  30.997   5.890   1.350
42599W        W10973  12.123  22.212   4.690
42600W        W10974   2.280  25.645  11.944
42601W        W10975  25.492  19.121   0.366
42602W        W10976  33.487  29.489  11.446
42603W        W10977  11.261   1.345   3.684
42604W        W10978  12.330  24.147   4.127
42605W        W10979  15.150  41.456  12.914
42606W        W10980  29.620   9.175  12.547
42607W        W10981   6.276  29.930  14.464
42608W        W10982   3.422   8.776  14.915
42609W        W10983  38.928  34.488   1.868
42610W        W10984   0.324   2.248   4.663
42611W        W10985  30.588   0.478  12.394
42612W        W10986  10.705  12.213   2.185
42613W        W10987  42.394   7.230  14.445
42614W        W10988  25.526   4.445   2.893
42615W        W10989  17.125  26.690   3.380
42616W        W10990  27.138  24.680  11.590
42617W        W10991   3.446   6.838   1.288
42618W        W10992   7.376  13.235  14.902
42619W        W10993  29.131  34.427   0.763
42620W        W10994  36.956  43.303  12.043
42621W        W10995   3.279  13.654  14.451
42622W        W10996   8.827  25.049   1.738
42623W        W10997  39.961  15.203  12.913
42624W        W10998  41.874   8.291  13.523
42625W        W10999  40.859  11.186   1.286
42626W        W11000  11.344  15.667  13.974
42627W        W11001  27.650  24.030  11.607
42628W        W11002  44.975  22.034  11.468
42629W        W11003  37.394  40.949  13.844
42630W        W11004   7.277  39.962  11.989
42631W        W11005  31.141  23.574  11.452
42632W        W11006   2.918  39.553  12.001
42633W        W11007  22.592  15.139   4.825
42634W        W11008  22.089   7.266   0.253
42635W        W11009  12.675   7.261  11.980
42636W        W11010  30.017   0.812   2.404
42637W        W11011  38.409  33.433  13.359
42638W        W11012  17.108  15.642   1.728
42639W        W11013   9.846  25.649  12.861
42640W        W11014  39.541   9.207  10.925
42641W        W11015  40.379   4.385   1.825
42642W        W11016  27.562   5.252   2.285
42643W        W11017  11.164  40.816   0.261
42644W        W11018  34.416   0.339   4.215
42645W        W11019  37.572  29.108  14.342
42646W        W11020  38.502   0.447  11.879
42647W        W11021  29.649  30.489   5.166
42648W        W11022  28.483  37.389   4.693
42649W        W11023  40.018  40.451   2.251
42650W        W11024  16.668  41.825   4.663
42651W        W11025  25.478  11.854   2.778
42652W        W11026  15.095  41.962  12.053
42653W        W11027   1.293   6.915  10.512
42654W        W11028  18.550  16.799  13.947
42655W        W11029   5.264  30.150  11.388
42656W        W11030  21.639  13.155   1.897
42657W        W11031   3.809  38.993  13.495
42658W        W11032  41.443   1.350  10.513
42659W        W11033  42.356  11.802   0.482
42660W        W11034  39.458  39.324   3.700
42661W        W11035  44.368  38.424   1.747
42662W        W11036  18.661   5.688   0.801
42663W        W11037  30.476   6.240   1.290
42664W        W11038   6.698  33.624   2.691
42665W        W11039  11.728  38.881  13.002
42666W        W11040  11.365   7.263  12.450
42667W        W11041  13.725  32.061  10.055
42668W        W11042  11.766  37.488   2.409
42669W        W11043  11.803  34.998   2.759
42670W        W11044   3.301  38.928  12.838
42671W        W11045  16.301  31.525   2.768
42672W        W11046  39.895  33.388  14.006
42673W        W11047  42.317  18.270  13.886
42674W        W11048  43.879   4.825   0.754
42675W        W11049   9.735  29.982  11.990
42676W        W11050   6.384  17.744   1.410
42677W        W11051  30.969   5.362   1.356
42678W        W11052  34.120   8.788   2.399
42679W        W11053  41.841  34.431  13.799
42680W        W11054   6.856  13.336  14.355
42681W        W11055   9.874  36.967  13.495
42682W        W11056  16.272  39.004  11.392
42683W        W11057   0.315  29.573  12.856
42684W        W11058  13.247  36.365  13.960
42685W        W11059  28.582   9.310   2.259
42686W        W11060   5.730  41.934   3.361
42687W        W11061  19.182  20.095  12.864
42688W        W11062  32.631  17.072   1.760
42689W        W11063  39.864  43.346  12.492
42690W        W11064  18.269  11.820  11.075
42691W        W11065  27.691   9.744   1.304
42692W        W11066   6.413  30.476   9.929
42693W        W11067  10.805  20.074  13.409
42694W        W11068  37.011  40.020  14.893
42695W        W11069  15.197   7.401  13.384
42696W        W11070   0.333   4.405   2.777
42697W        W11071  21.204  15.669   1.861
42698W        W11072  37.483  33.554  11.976
42699W        W11073   4.723  34.988   5.312
42700W        W11074   5.193  18.070  14.483
42701W        W11075   9.678  44.420  12.401
42702W        W11076  28.636  13.172  13.406
42703W        W11077  13.774  35.894   1.911
42704W        W11078  36.852   9.288  13.483
42705W        W11079  20.717  40.969  14.874
42706W        W11080  14.169  12.669  13.539
42707W        W11081  38.511   4.866  14.874
42708W        W11082  35.382   8.393   1.812
42709W        W11083  10.818  39.929   2.802
42710W        W11084  18.646  31.629  11.929
42711W        W11085  29.529  37.518   3.179
42712W        W11086   4.901   3.889   0.344
42713W        W11087   4.930  15.680   2.871
42714W        W11088   7.228  30.623  11.965
42715W        W11089   4.260  18.735   1.919
42716W        W11090  10.876  20.207  14.460
42717W        W11091  20.526  29.527   1.745
42718W        W11092  22.500  28.508  10.558
42719W        W11093  41.445   3.448  12.092
42720W        W11094  28.546  19.153  12.539
42721W        W11095   8.280  21.052  11.897
42722W        W11096  24.192  19.547  12.013
42723W        W11097   6.795  43.818   3.814
42724W        W11098  15.195  30.121   2.273
42725W        W11099  27.164  22.130  13.027
42726W        W11100  22.625   3.311   5.091
42727W        W11101  13.284  25.039  12.009
42728W        W11102   3.292  29.534   2.728
42729W        W11103  22.229   4.321  14.792
42730W        W11104  25.598   2.248  12.494
42731W        W11105   3.307  36.998   0.730
42732W        W11106  42.363   5.294  14.958
42733W        W11107  43.269  14.200  11.586
42734W        W11108  19.138  12.774  13.531
42735W        W11109  44.438  36.075  14.312
42736W        W11110  35.981  36.500   3.227
42737W        W11111  44.005  37.365   1.317
42738W        W11112  27.537  39.480   2.749
42739W        W11113  32.058  12.228   4.740
42740W        W11114  34.900  10.299   5.285
42741W        W11115   4.408   3.240  14.772
42742W        W11116  21.108  18.784  13.421
42743W        W11117  13.279  36.846   2.333
42744W        W11118  19.721  31.437   3.234
42745W        W11119  39.999   1.275   1.919
42746W        W11120  38.417   6.815   5.181
42747W        W11121  41.373  38.922  11.418
42748W        W11122  28.628  44.904   4.789
42749W        W11123   9.204  25.107   4.227
42750W        W11124  34.435  30.497   3.701
42751W        W11125   5.405  38.009  12.548
42752W        W11126   9.844  28.096   4.617
42753W        W11127   2.763  30.615   4.195
42754W        W11128  31.124   3.409   2.841
42755W        W11129  39.040  35.919  11.904
42756W        W11130  41.462   4.397  10.917
42757W        W11131  20.542  12.659   4.711
42758W        W11132  21.076  33.592  14.792
42759W        W11133  17.260  19.638  13.400
42760W        W11134   0.965  32.060   4.752
42761W        W11135  39.991  14.148   0.354
42762W        W11136  16.580  19.069   1.700
42763W        W11137  30.064  26.579  12.939
42764W        W11138  38.339  16.158  12.344
42765W        W11139  13.274  28.013  11.568
42766W        W11140  28.501   2.958  11.440
42767W        W11141  35.917  19.080   0.967
42768W        W11142   4.448  34.545  14.373
42769W        W11143  33.065  41.473   4.718
42770W        W11144  41.018  22.741  14.299
42771W        W11145   1.781  43.869   4.215
42772W        W11146   9.205  38.329   0.458
42773W        W11147   8.691  19.239   3.207
42774W        W11148  20.063  19.717  10.045
42775W        W11149   0.292  31.561   1.775
42776W        W11150  38.514   0.861   0.895
42777W        W11151  31.603   0.491   4.264
42778W        W11152   3.834  14.330   1.828
42779W        W11153  37.014   6.732   9.441
42780W        W11154  41.293  16.168   4.295
42781W        W11155  16.275  22.563  14.882
42782W        W11156  44.810  26.077  12.879
42783W        W11157  37.510  10.758  12.901
42784W        W11158  12.272  26.979   3.744
42785W        W11159  32.576   2.752  11.870
42786W        W11160  12.133  14.714  13.939
42787W        W11161  44.258  44.920   4.640
42788W        W11162   6.749  15.634  11.496
42789W        W11163  43.345  43.801   0.402
42790W        W11164   0.329   3.761   3.290
42791W        W11165  12.750  31.906   4.268
42792W        W11166  25.089  28.500   2.852
42793W        W11167   7.258  43.847  13.875
42794W        W11168  22.579  43.486   2.202
42795W        W11169  34.406   9.657   0.762
42796W        W11170   3.857  39.551   3.296
42797W        W11171  10.300   7.827   4.830
42798W        W11172  26.103  22.718  13.820
42799W        W11173  42.946  25.157  11.079
42800W        W11174  10.369  11.781   5.131
42801W        W11175  16.785  13.137   2.884
42802W        W11176  31.030  25.628   4.299
42803W        W11177  44.344  36.873   3.283
42804W        W11178   5.392  15.776  10.515
42805W        W11179   0.792  26.623  10.603
42806W        W11180   7.299  17.149  12.396
42807W        W11181  12.186   5.194   3.255
42808W        W11182  18.544  31.010   2.813
42809W        W11183  27.555   8.794   0.362
42810W        W11184  24.532   0.963   0.472
42811W        W11185   3.410  23.086   0.451
42812W        W11186   3.416  36.508   1.782
42813W        W11187  38.008  33.097  11.070
42814W        W11188  13.127   2.277   3.820
42815W        W11189  10.204   1.764  12.877
42816W        W11190   8.381   1.279   2.372
42817W        W11191  42.963   6.812   1.783
42818W        W11192  26.611  34.867   3.178
42819W        W11193  30.595  42.351   2.381
42820W        W11194  38.448  37.532  13.547
42821W        W11195  42.365   7.176  14.759
42822W        W11196  10.732  40.943  13.543
42823W        W11197  35.401   9.284  14.794
42824W        W11198   2.249  11.293  11.898
42825W        W11199  43.895  34.989  10.501
42826W        W11200  40.350  35.555  10.537
42827W        W11201  25.004  11.828   2.896
42828W        W11202   2.444  16.206  10.488
42829W        W11203  17.760  30.507  14.787
42830W        W11204  25.978  11.228  13.483
42831W        W11205  23.640  24.194  12.940
42832W        W11206  34.934  34.490  11.979
42833W        W11207  43.843  41.413   2.380
42834W        W11208  28.522  28.168  11.127
42835W        W11209  27.688  16.102  13.841
42836W        W11210   0.389  30.429  13.339
42837W        W11211  31.507  39.018  11.529
42838W        W11212   8.328   4.842  10.472
42839W        W11213  40.944  14.133  14.401
42840W        W11214  33.085  43.954   4.827
42841W        W11215  42.329  13.673   1.292
42842W        W11216  17.306   8.686   5.234
42843W        W11217  30.984  18.578  11.393
42844W        W11218  13.828   9.200  10.495
42845W        W11219  26.185  23.101  11.400
42846W        W11220  31.508  36.505   3.173
42847W        W11221  40.325  29.526   3.201
42848W        W11222  20.208  29.940   4.180
42849W        W11223  25.067  36.561  14.893
42850W        W11224  41.352  34.924  13.871
42851W        W11225   9.723   5.798   2.383
42852W        W11226  22.577  22.186   3.671
42853W        W11227   4.746  20.765  11.107
42854W        W11228  33.963  32.534  12.003
42855W        W11229  38.555  17.066  11.559
42856W        W11230  35.043  36.879   4.726
42857W        W11231  11.213  22.151   1.392
42858W        W11232   7.862   2.453  14.855
42859W        W11233  11.790  37.434  10.473
42860W        W11234  20.061   5.804  13.012
42861W        W11235  14.301  32.120   1.216
42862W        W11236  21.652  17.727  10.891
42863W        W11237  10.156  40.878   0.818
42864W        W11238  15.752   7.347   4.307
42865W        W11239  20.267  10.375   4.601
42866W        W11240  34.961   4.384   2.793
42867W        W11241  27.524   3.299   1.395
42868W        W11242  26.492   1.821  10.033
42869W        W11243  26.586  42.435  13.321
42870W        W11244  11.741  37.336   0.755
42871W        W11245  13.644   0.258  13.056
42872W        W11246   4.922  16.782  14.021
42873W        W11247  23.226  20.586   3.330
42874W        W11248   7.231   1.751  14.992
42875W        W11249  24.033  42.821  14.883
42876W        W11250  24.997  22.570  11.435
42877W        W11251  28.484  20.675  13.317
42878W        W11252   1.446  10.209  11.487
42879W        W11253   6.691  38.354   4.329
42880W        W11254  17.304   5.753  13.547
42881W        W11255  39.033   3.449  11.095
42882W        W11256  40.498  28.559   4.282
42883W        W11257   6.378   1.749   4.215
42884W        W11258  15.225  32.612   3.298
42885W        W11259  39.009   8.284  13.045
42886W        W11260   0.803  32.585  13.342
42887W        W11261  40.036  34.447   2.890
42888W        W11262   1.440   6.878   2.265
42889W        W11263  28.079  32.494   2.392
42890W        W11264  25.631  25.963  10.961
42891W        W11265  30.965  37.967  12.871
42892W        W11266   8.868  24.200  11.554
42893W        W11267   8.337   1.740   0.743
42894W        W11268  29.988  32.473  14.448
42895W        W11269  11.228  14.219  11.941
42896W        W11270  30.597  28.606  13.003
42897W        W11271  29.451  41.857  12.354
42898W        W11272  21.518  27.958  11.536
42899W        W11273  31.001  39.455  12.000
42900W        W11274  44.489  40.843  13.805
42901W        W11275  17.573  35.983   1.745
42902W        W11276  19.620  17.273  11.021
42903W        W11277   8.304  26.105  11.547
42904W        W11278  25.111  19.257  11.400
42905W        W11279  43.833  38.949  13.820
42906W        W11280  20.067   7.191  10.084
42907W        W11281  11.662  42.852   3.384
42908W        W11282  34.023  40.350  13.912
42909W        W11283  44.880   6.404  10.133
42910W        W11284   3.948  16.191  13.452
42911W        W11285  20.679  42.804  14.511
42912W        W11286   0.979  36.981   4.306
42913W        W11287   7.372   3.434   3.161
42914W        W11288  27.114  21.754  12.001
42915W        W11289  37.080  11.727  10.996
42916W        W11290  28.622  29.475   2.754
42917W        W11291  17.557  36.385   1.879
42918W        W11292  44.408   9.726  10.519
42919W        W11293  19.167  36.538   1.876
42920W        W11294  32.397   7.906   1.370
42921W        W11295  38.934  14.116  13.399
42922W        W11296  14.807   0.297   3.296
42923W        W11297  10.810   2.761   0.876
42924W        W11298   4.902  25.518   2.298
42925W        W11299  42.373   1.414   0.374
42926W        W11300  38.521  25.137   0.342
42927W        W11301  37.048  31.635  10.477
42928W        W11302  12.302  36.942   1.300
42929W        W11303  32.128  16.192  11.945
42930W        W11304   2.445  33.908  14.471
42931W        W11305   8.827  22.666   5.226
42932W        W11306  22.168  13.811  12.840
42933W        W11307  21.656  35.566   1.914
42934W        W11308   1.925  33.438  13.381
42935W        W11309  24.192  37.920  10.938
42936W        W11310  12.137   6.856  12.093
42937W        W11311   7.307  16.735   0.767
42938W        W11312  18.118  29.098   3.735
42939W        W11313  18.755  12.789  14.924
42940W        W11314  36.393  10.800   0.869
42941W        W11315  13.662   0.319  12.407
42942W        W11316  38.564  24.613  13.860
42943W        W11317   8.398  32.453  12.015
42944W        W11318  33.562  12.756  13.969
42945W        W11319  30.445   3.761  11.609
42946W        W11320   2.738   5.360   3.740
42947W        W11321  29.578  31.983  11.386
42948W        W11322   8.391  16.612   2.250
42949W        W11323  18.293  21.227  11.109
42950W        W11324  25.191   2.235  12.959
42951W        W11325  44.409  26.971   4.211
42952W        W11326   9.654  33.517  11.044
42953W        W11327  39.822  28.479   1.756
42954W        W11328   2.258  44.298  10.029
42955W        W11329  28.477  44.941  13.873
42956W        W11330  33.595   3.944  11.521
42957W        W11331  18.121   1.775   1.435
42958W        W11332  42.797  37.986   0.363
42959W        W11333  36.548   3.915  11.015
42960W        W11334  22.154  18.568  11.996
42961W        W11335  25.970  42.016   4.689
42962W        W11336  41.843  12.772   4.691
42963W        W11337   4.442  20.241  11.048
42964W        W11338  27.956  27.115   2.276
42965W        W11339   3.822  33.034   4.653
42966W        W11340  25.566  17.234   4.122
42967W        W11341  29.126   0.880   3.327
42968W        W11342   7.411  36.555   1.293
42969W        W11343  26.200  26.090  13.483
42970W        W11344  42.475  43.469  14.478
42971W        W11345  13.277   8.834  13.457
42972W        W11346  37.510   8.299  14.502
42973W        W11347  15.206  23.039  14.791
42974W        W11348   8.304   7.742   4.203
42975W        W11349   5.904   4.840  13.313
42976W        W11350  39.550  39.836   1.327
42977W        W11351  33.004   0.924   3.294
42978W        W11352   7.816  30.539  12.936
42979W        W11353  36.079   2.908   4.154
42980W        W11354  42.890  38.029  13.841
42981W        W11355  33.417   9.270   4.221
42982W        W11356  31.118  38.015  14.766
42983W        W11357  37.964  31.454  11.551
42984W        W11358  31.435  28.478   0.772
42985W        W11359  27.516  41.330  14.512
42986W        W11360  24.554  17.674   2.711
42987W        W11361  29.461  31.086   2.855
42988W        W11362  41.438  20.130   0.900
42989W        W11363  21.141  33.576  10.910
42990W        W11364  17.267  13.211   1.394
42991W        W11365  21.523  38.423  14.430
42992W        W11366  17.799  34.014   2.184
42993W        W11367  11.762  42.331   4.320
42994W        W11368   9.186  37.987   3.869
42995W        W11369  22.622  32.623  11.496
42996W        W11370  15.755   8.258   3.637
42997W        W11371  25.594  13.216   0.344
42998W        W11372   1.920  33.033  10.995
42999W        W11373  27.185  22.074  13.843
43000W        W11374  23.560  42.499  14.788
43001W        W11375  31.948  20.103   2.862
43002W        W11376  26.554  37.505  11.592
43003W        W11377  28.104  35.894  10.983
43004W        W11378  29.500  26.103  14.325
43005W        W11379  15.109  11.774   3.687
43006W        W11380  10.153  19.083   2.721
43007W        W11381   1.752   5.860  14.833
43008W        W11382   3.821  23.098  12.524
43009W        W11383  30.138  42.928   1.866
43010W        W11384  40.937  39.350   4.655
43011W        W11385  32.438   8.812   4.712
43012W        W11386  24.548  35.431   2.338
43013W        W11387  25.009  11.648  12.541
43014W        W11388  11.867  35.444  12.497
43015W        W11389  31.981  31.639  11.127
43016W        W11390  17.654  28.060   4.756
43017W        W11391   3.718  28.182   2.852
43018W        W11392  41.433   7.377   4.249
43019W        W11393  10.771  13.610  11.469
43020W        W11394  37.952  24.080   3.752
43021W        W11395  21.224  22.098  12.977
43022W        W11396  19.748  32.618   1.450
43023W        W11397   0.444  26.141   2.735
43024W        W11398   0.867  38.515  13.859
43025W        W11399   2.308  32.092  12.484
43026W        W11400  14.327  16.689   4.252
43027W        W11401  31.635  17.108   3.797
43028W        W11402  11.138   7.817  14.885
43029W        W11403  29.017  11.704   3.826
43030W        W11404  37.901   3.771   2.899
43031W        W11405  10.796   2.849  14.939
43032W        W11406  44.276  33.006  14.351
43033W        W11407   9.738  30.606   1.812
43034W        W11408  11.129  19.752   1.221
43035W        W11409   7.898  12.764  10.910
43036W        W11410  32.550  15.684  14.500
43037W        W11411  31.025  37.006   3.218
43038W        W11412  16.768   7.715   2.368
43039W        W11413  12.850  18.635  14.349
43040W        W11414  38.906   3.783  10.622
43041W        W11415   9.169  35.526  14.019
43042W        W11416   3.919  36.497  14.915
43043W        W11417  44.366  15.192   1.823
43044W        W11418  27.161  35.903  12.053
43045W        W11419  21.258  17.600  13.974
43046W        W11420  38.826  19.656   0.399
43047W        W11421   3.901  35.463   4.828
43048W        W11422  29.035   1.408  11.000
43049W        W11423  18.561  20.091   0.308
43050W        W11424  29.102   5.382  12.362
43051W        W11425  35.478   9.844  14.513
43052W        W11426   8.185  11.746   3.644
43053W        W11427  35.564  40.486   1.785
43054W        W11428  24.526  34.111   4.131
43055W        W11429  30.913  10.199   1.766
43056W        W11430   0.825  37.975  13.442
43057W        W11431  43.279   3.303   3.377
43058W        W11432  39.857  34.590  10.579
43059W        W11433  34.391  42.523  13.507
43060W        W11434  11.175  37.887  11.520
43061W        W11435  20.544  20.730   2.766
43062W        W11436  14.615  24.993   3.213
43063W        W11437  14.159  14.288  12.016
43064W        W11438  38.398  28.578   1.248
43065W        W11439  34.584  27.588   4.739
43066W        W11440   2.331  41.302  13.515
43067W        W11441  29.009   5.403   1.723
43068W        W11442  27.486  16.677   3.739
43069W        W11443  17.160  33.399   2.749
43070W        W11444  29.998  18.246   0.438
43071W        W11445  23.556  25.616  14.354
43072W        W11446   2.948  28.175  13.909
43073W        W11447   1.891  20.033  10.467
43074W        W11448   0.753   5.852   0.759
43075W        W11449   2.307  36.988   2.887
43076W        W11450  10.340  42.870   2.278
43077W        W11451  16.572  18.712   3.740
43078W        W11452   6.358  22.159   0.413
43079W        W11453  20.713  33.104  10.416
43080W        W11454  23.002  19.097   1.379
43081W        W11455  41.874  38.063   1.890
43082W        W11456   1.822  31.442  13.456
43083W        W11457  35.900  41.403  14.364
43084W        W11458  14.100   8.285   3.655
43085W        W11459   3.321  15.165   2.742
43086W        W11460  11.230  34.566   2.410
43087W        W11461  43.390   9.786   0.418
43088W        W11462   6.289  24.498  12.859
43089W        W11463  22.564  37.414   9.665
43090W        W11464   1.286  44.938  11.586
43091W        W11465  30.535   1.851  10.598
43092W        W11466  42.879  16.783  13.473
43093W        W11467   5.815  16.656   2.774
43094W        W11468   2.254  38.017   0.735
43095W        W11469   0.308  36.420  12.966
43096W        W11470   0.941  13.140  12.030
43097W        W11471  19.152  41.838  13.451
43098W        W11472  23.215   5.265   0.453
43099W        W11473   9.704  18.119  12.019
43100W        W11474   4.308   1.275   0.323
43101W        W11475  42.296   3.459  10.058
43102W        W11476  32.997   3.289  10.637
43103W        W11477  14.737  15.654   3.336
43104W        W11478  39.325  21.535   1.752
43105W        W11479   5.835  29.658  13.856
43106W        W11480  13.783  24.623  13.384
43107W        W11481  16.583  14.291   0.932
43108W        W11482   5.215  18.073   0.921
43109W        W11483  29.465  31.988  11.943
43110W        W11484   8.794  35.445   3.761
43111W        W11485  43.854  32.495  12.077
43112W        W11486  41.397  14.105  11.570
43113W        W11487  32.413   5.297  12.409
43114W        W11488   5.925  43.461  13.904
43115W        W11489   9.325   3.225   4.292
43116W        W11490  16.596  26.586  11.010
43117W        W11491  17.739  35.033   0.421
43118W        W11492  27.524  39.540   4.806
43119W        W11493  26.071  11.769   2.900
43120W        W11494  39.882  29.100  14.350
43121W        W11495  18.077  43.314  14.441
43122W        W11496   2.961  35.509  11.039
43123W        W11497   3.220  26.619   1.885
43124W        W11498  14.607  44.419   2.818
43125W        W11499  15.683  34.007  12.449
43126W        W11500  13.322  37.377   4.772
43127W        W11501   1.362  17.181   3.750
43128W        W11502  23.208  36.566  13.928
43129W        W11503  15.104  40.427  11.416
43130W        W11504  29.114  19.128  12.524
43131W        W11505   7.291  19.548  13.330
43132W        W11506  29.476  24.096   1.828
43133W        W11507   2.933  26.619  12.405
43134W        W11508  35.910  31.473  13.891
43135W        W11509  21.695  36.971  10.914
43136W        W11510  11.672  28.442   3.386
43137W        W11511  12.675  38.853  12.878
43138W        W11512  33.537  19.271   2.750
43139W        W11513  37.875  39.991   2.330
43140W        W11514  25.074   0.945  12.364
43141W        W11515   8.794  10.705  12.479
43142W        W11516   0.257  33.888  13.446
43143W        W11517  25.546  31.974   5.172
43144W        W11518  20.070  17.147  13.513
43145W        W11519  19.600   6.198  12.937
43146W        W11520   0.404  37.942   1.876
43147W        W11521  14.206   4.729  13.940
43148W        W11522   1.919  41.483  11.510
43149W        W11523   1.365  38.838  11.459
43150W        W11524  36.949  22.601  14.796
43151W        W11525   9.193  19.608  11.591
43152W        W11526   6.216  23.071  11.545
43153W        W11527  27.603  35.545  14.995
43154W        W11528  23.031  40.542   1.438
43155W        W11529  13.600   3.885   2.734
43156W        W11530  10.718   9.325  11.016
43157W        W11531  33.984  33.015   0.756
43158W        W11532  31.022  25.669   2.759
43159W        W11533  21.129  36.916  11.602
43160W        W11534  14.704  30.423   3.799
43161W        W11535  31.944  20.661  14.405
43162W        W11536  35.993   2.741   1.726
43163W        W11537   6.892  43.797  13.312
43164W        W11538  18.243  21.262   1.908
43165W        W11539   9.837  41.034   2.666
43166W        W11540  24.530  26.550  11.018
43167W        W11541  17.232   4.811  14.378
43168W        W11542  36.434  40.312  10.980
43169W        W11543  19.761  41.525  11.440
43170W        W11544  35.890  37.535   5.315
43171W        W11545  43.836  30.051   2.744
43172W        W11546  42.368  19.562  13.011
43173W        W11547   6.763  26.110   4.284
43174W        W11548  37.444  16.716  11.586
43175W        W11549  11.751   6.211  10.976
43176W        W11550  39.496   1.344  12.084
43177W        W11551  12.763   7.348  13.404
43178W        W11552  21.708  21.111   3.371
43179W        W11553  31.465  43.489  12.073
43180W        W11554  33.029  34.964   2.241
43181W        W11555   2.388   6.350  13.842
43182W        W11556  11.321  36.451  11.856
43183W        W11557  29.522  28.017  13.513
43184W        W11558  42.474  11.838  13.927
43185W        W11559  16.582   1.976   0.938
43186W        W11560  22.708  20.146   4.745
43187W        W11561  29.994  37.500   4.750
43188W        W11562   8.744  14.652  14.937
43189W        W11563  30.616  22.200   4.643
43190W        W11564  36.008   6.691  13.817
43191W        W11565  20.681  25.499  10.501
43192W        W11566  24.200  20.661  12.452
43193W        W11567  26.596  24.488   1.214
43194W        W11568  36.437  12.361  11.959
43195W        W11569  31.151   7.215   2.204
43196W        W11570  26.494   0.967   1.932
43197W        W11571  13.668  24.178  14.805
43198W        W11572  20.613  10.260  11.543
43199W        W11573  16.256   8.366   0.783
43200W        W11574  29.550  36.936   3.795
43201W        W11575   6.361  25.192   0.821
43202W        W11576  19.103  42.492   1.733
43203W        W11577  24.987  18.701  14.882
43204W        W11578  18.775  15.634   2.359
43205W        W11579  22.625  33.893  11.468
43206W        W11580  23.195  38.037  14.967
43207W        W11581  13.278  22.250   1.418
43208W        W11582   6.843  33.546   4.261
43209W        W11583  26.546  40.369   1.780
43210W        W11584   4.884   0.905  12.373
43211W        W11585   7.860  27.459  13.413
43212W        W11586  37.046  13.645   2.361
43213W        W11587  39.884  31.981  13.947
43214W        W11588  27.553  16.737  14.762
43215W        W11589  18.097  20.753  12.022
43216W        W11590  36.930  20.554  11.124
43217W        W11591   0.296  11.326  14.012
43218W        W11592  43.393  39.827  14.915
43219W        W11593  17.674  11.205   2.821
43220W        W11594  19.534  28.026   2.231
43221W        W11595  26.641  44.910  10.458
43222W        W11596  37.915  41.951   0.399
43223W        W11597  16.635  31.950   0.367
43224W        W11598  15.149  23.073  12.438
43225W        W11599  41.953  40.435   1.269
43226W        W11600  19.069   0.827   3.289
43227W        W11601  36.365  19.168  14.444
43228W        W11602  32.529  21.622   3.820
43229W        W11603  31.524  13.281   4.131
43230W        W11604  37.348  40.425   0.889
43231W        W11605  34.941  40.928  12.081
43232W        W11606  39.385   3.944   2.293
43233W        W11607  31.045  16.571  11.867
43234W        W11608  33.517  21.600   5.295
43235W        W11609  39.020   6.824   3.838
43236W        W11610  10.181  10.850  13.424
43237W        W11611  39.430   5.249   0.438
43238W        W11612  14.762  27.190  13.344
43239W        W11613   4.431  39.424  12.564
43240W        W11614   3.950  43.914   2.181
43241W        W11615  39.979   4.221   4.681
43242W        W11616  18.647  43.316  10.975
43243W        W11617  26.081   2.425   0.306
43244W        W11618   1.308   5.352   4.249
43245W        W11619  37.065  26.968   3.270
43246W        W11620  14.201  28.043  10.525
43247W        W11621  26.061  31.073  11.597
43248W        W11622   7.316   2.323   1.291
43249W        W11623   2.733  38.853   4.253
43250W        W11624  41.022   7.269  13.973
43251W        W11625  37.450  20.270  14.825
43252W        W11626  28.125  30.526   0.402
43253W        W11627  17.729  30.453  12.017
43254W        W11628   0.494  16.080  11.555
43255W        W11629  25.204  38.460   3.289
43256W        W11630   3.949   1.270  14.358
43257W        W11631   1.933  15.700  13.369
43258W        W11632   7.293  11.321  13.912
43259W        W11633  18.152   1.804  14.003
43260W        W11634  41.296  15.743   5.315
43261W        W11635  15.665   4.832  13.994
43262W        W11636   8.247  24.548  10.442
43263W        W11637   9.168  43.813   0.742
43264W        W11638   9.182  11.181   1.382
43265W        W11639   5.423  40.339   3.251
43266W        W11640  15.209  38.456   0.881
43267W        W11641  16.190  32.110  13.383
43268W        W11642   1.903  36.546   4.261
43269W        W11643  26.511  30.623  12.350
43270W        W11644  34.560  35.949  10.567
43271W        W11645   7.214  22.583   1.364
43272W        W11646  38.445  34.964   0.918
43273W        W11647  40.049  40.485   1.874
43274W        W11648  26.979  11.657   4.701
43275W        W11649  38.899   4.911   3.291
43276W        W11650  39.534  30.532  13.053
43277W        W11651   4.732  34.520   3.334
43278W        W11652  13.819  31.072   2.711
43279W        W11653   2.234  30.999  11.065
43280W        W11654  22.045   9.645  14.924
43281W        W11655  23.201  14.612  14.821
43282W        W11656  16.213  18.296  11.901
43283W        W11657  29.964  44.381   1.217
43284W        W11658  20.648  17.795   4.791
43285W        W11659   2.296  17.648   4.693
43286W        W11660  36.945  28.451  14.349
43287W        W11661  26.049   1.965  13.377
43288W        W11662  20.031  38.982  11.862
43289W        W11663  25.007   6.708  10.957
43290W        W11664  24.573  31.945   4.322
43291W        W11665  11.163  42.449   2.727
43292W        W11666  38.888  36.486   0.329
43293W        W11667  17.151  13.717   3.289
43294W        W11668  32.406  25.145   0.425
43295W        W11669  21.731  14.777   4.786
43296W        W11670  31.017  21.146   0.382
43297W        W11671   6.428  44.498   4.190
43298W        W11672  11.711   9.824  14.815
43299W        W11673  11.321  43.390   3.223
43300W        W11674   0.956   8.701  11.880
43301W        W11675  10.221  15.590  13.321
43302W        W11676   1.237  35.377   3.354
43303W        W11677  21.637  11.803  11.985
43304W        W11678  21.096  42.827  14.501
43305W        W11679  32.554  21.521  12.033
43306W        W11680  33.013  31.978  14.765
43307W        W11681   9.170  25.963  12.416
43308W        W11682  36.846  11.163  11.119
43309W        W11683  10.195  30.471   0.330
43310W        W11684  15.128  33.614   1.329
43311W        W11685   4.260  23.036  14.875
43312W        W11686   1.358  13.179  14.483
43313W        W11687  28.988  35.053   4.242
43314W        W11688  17.641  22.029  14.382
43315W        W11689  36.457   2.937  13.858
43316W        W11690  36.069  27.458  11.489
43317W        W11691  14.793   7.907  10.473
43318W        W11692  11.634  41.531   4.348
43319W        W11693   8.849  15.766  11.892
43320W        W11694  29.007   7.254  13.319
43321W        W11695  12.272   5.861   0.774
43322W        W11696   0.304  19.283  14.990
43323W        W11697  40.001  40.027  10.476
43324W        W11698  33.928  39.817  13.030
43325W        W11699  16.674   3.405   5.225
43326W        W11700  27.152   9.202   3.340
43327W        W11701   6.406   0.882  13.942
43328W        W11702  11.272  43.374   3.790
43329W        W11703  29.044  20.271   2.312
43330W        W11704  15.640   3.859  13.315
43331W        W11705  19.228   2.378  12.464
43332W        W11706  31.529   5.387   1.317
43333W        W11707  28.591  14.105   1.897
43334W        W11708  33.607  13.127   2.258
43335W        W11709   8.203  41.811   2.793
43336W        W11710  20.592   6.244  12.418
43337W        W11711  26.138  10.316  10.473
43338W        W11712   5.423  39.445   1.221
43339W        W11713  35.940  23.666  13.979
43340W        W11714   4.869  43.909  11.482
43341W        W11715  26.518  24.623   2.744
43342W        W11716  12.793  29.947   0.418
43343W        W11717  28.621  42.374   1.245
43344W        W11718  33.899   9.888  13.985
43345W        W11719  43.834  27.638  12.340
43346W        W11720  24.632  14.591  12.368
43347W        W11721   7.376   5.265  13.891
43348W        W11722  36.469  13.240   2.385
43349W        W11723  11.254  34.379  12.945
43350W        W11724   9.837  38.502  13.025
43351W        W11725  26.996  23.528  13.882
43352W        W11726  25.057  11.859   3.699
43353W        W11727  13.328  19.096  12.506
43354W        W11728   8.361   4.284   1.361
43355W        W11729   2.752  35.857  12.086
43356W        W11730  31.953  24.188  12.964
43357W        W11731   4.380   6.425  14.919
43358W        W11732  44.794  28.955   0.770
43359W        W11733   7.191  12.648   4.273
43360W        W11734  33.092  31.525   4.241
43361W        W11735  33.517   2.309  11.939
43362W        W11736  23.696  12.237  13.882
43363W        W11737  44.408  29.987   1.297
43364W        W11738  12.352  30.534  10.550
43365W        W11739  28.179  33.447  10.941
43366W        W11740  35.998  34.568   0.477
43367W        W11741  36.502  27.553  12.906
43368W        W11742   2.413   2.232  12.040
43369W        W11743  26.499  33.112  13.342
43370W        W11744  15.578   7.779   1.368
43371W        W11745   6.377  29.637  11.964
43372W        W11746  43.926  27.583   4.626
43373W        W11747  21.639  32.014   5.110
43374W        W11748   4.303  31.439   3.225
43375W        W11749  24.048  32.406   4.657
43376W        W11750   0.318  15.267   2.787
43377W        W11751  16.243  42.938   2.236
43378W        W11752  24.199  29.468   3.839
43379W        W11753  41.492  39.910   2.751
43380W        W11754  24.701  29.958   9.677
43381W        W11755  25.198  30.441   4.632
43382W        W11756  19.693   7.346  12.547
43383W        W11757  32.981  23.517  11.414
43384W        W11758  14.221  22.015   4.233
43385W        W11759  22.202  12.811  13.793
43386W        W11760  13.627  17.252  14.310
43387W        W11761  26.146   0.319   1.448
43388W        W11762  13.235  38.970   0.456
43389W        W11763   6.219   2.347  13.908
43390W        W11764  39.361  33.088   0.384
43391W        W11765  22.589  25.111   4.152
43392W        W11766   3.950  19.572   4.821
43393W        W11767  32.962  35.492  12.937
43394W        W11768  20.546  19.769  12.947
43395W        W11769  29.595  37.894  14.436
43396W        W11770  11.147  34.451  11.883
43397W        W11771  35.459  26.166  12.959
43398W        W11772  16.252  26.207  13.537
43399W        W11773   7.334  14.151   4.787
43400W        W11774  22.514  42.380  13.837
43401W        W11775  11.340  32.917  10.911
43402W        W11776  22.031  44.299   3.866
43403W        W11777  16.675   9.197   5.595
43404W        W11778  24.209  38.923  13.336
43405W        W11779  28.158  14.126  12.580
43406W        W11780  28.050  15.718   1.755
43407W        W11781  44.881  42.302  12.909
43408W        W11782   5.332  35.060  10.921
43409W        W11783  42.962  18.105  12.401
43410W        W11784  32.528  33.117  14.453
43411W        W11785  20.735  38.920   1.899
43412W        W11786  10.801  40.326   2.218
43413W        W11787  15.270  32.629  13.903
43414W        W11788   7.290   9.811  12.471
43415W        W11789  33.408   2.859   3.295
43416W        W11790  31.030   4.283   4.687
43417W        W11791  16.679  24.032  11.460
43418W        W11792  17.210  15.137  12.843
43419W        W11793  30.950  31.540   0.454
43420W        W11794  13.703  29.954   3.767
43421W        W11795  20.712  26.469  13.833
43422W        W11796  25.475  37.496   0.464
43423W        W11797  40.855   2.331   0.894
43424W        W11798   7.745  23.241  11.426
43425W        W11799  10.273  17.718  13.930
43426W        W11800  12.282  10.233  10.968
43427W        W11801  12.257  42.802  13.340
43428W        W11802  21.142  29.967  10.449
43429W        W11803  41.792  37.444  10.116
43430W        W11804  10.277   8.704   4.211
43431W        W11805  42.789  33.504  11.557
43432W        W11806  43.356  17.203  11.939
43433W        W11807   4.314  39.506  11.107
43434W        W11808  17.747  29.078  11.984
43435W        W11809  42.856   0.987  13.432
43436W        W11810  31.095   0.778  11.429
43437W        W11811  24.212  44.790  12.947
43438W        W11812  20.061  22.535  13.336
43439W        W11813  29.590  35.549  11.127
43440W        W11814  15.204  39.988  14.839
43441W        W11815  31.020  11.673  11.963
43442W        W11816  23.560   1.308   3.825
43443W        W11817  27.489  43.483  12.963
43444W        W11818  41.511  11.825   2.815
43445W        W11819  24.629  42.419  14.312
43446W        W11820  35.369  34.051   3.356
43447W        W11821  14.253  15.604   3.789
43448W        W11822  19.168  26.549   2.722
43449W        W11823  21.636  42.396   3.783
43450W        W11824  24.071  17.758   2.307
43451W        W11825  38.372  32.607   4.324
43452W        W11826  33.039   4.275   2.852
43453W        W11827  15.612  44.266   0.797
43454W        W11828  10.350  22.629   0.906
43455W        W11829  22.505   2.239   5.097
43456W        W11830  19.175  28.466   4.640
43457W        W11831  12.338  31.563  11.545
43458W        W11832  34.107  42.775   3.849
43459W        W11833  43.409  24.092  11.037
43460W        W11834  18.677   5.422   1.730
43461W        W11835  37.998  10.219  10.642
43462W        W11836   6.302   0.919   3.765
43463W        W11837  34.954  19.719  10.518
43464W        W11838   2.357  26.181   4.607
43465W        W11839   4.715   1.456   3.695
43466W        W11840  42.297  42.793  13.417
43467W        W11841  25.964  14.206  14.025
43468W        W11842  22.157   7.796  11.874
43469W        W11843  31.484  22.134   3.344
43470W        W11844  21.107   9.868   1.876
43471W        W11845  43.511  30.652  11.020
43472W        W11846  44.939  25.542   0.281
43473W        W11847  25.502  32.999   4.641
43474W        W11848   2.827   7.221   0.785
43475W        W11849  34.398  16.073  13.948
43476W        W11850   8.387  22.158  10.910
43477W        W11851   1.839  34.892   0.353
43478W        W11852  43.803  42.018   0.848
43479W        W11853   3.272  24.055   2.715
43480W        W11854   3.883  26.658  10.115
43481W        W11855  13.251  19.694   2.680
43482W        W11856  28.598  13.631  10.633
43483W        W11857   9.780  35.417  12.893
43484W        W11858  15.604  12.303   4.781
43485W        W11859  21.698  10.378  13.002
43486W        W11860  43.345  10.221   1.820
43487W        W11861  18.672  43.770  14.816
43488W        W11862  29.514  27.169   3.798
43489W        W11863  41.394  17.177   1.784
43490W        W11864  41.967   4.300  11.940
43491W        W11865  37.533  18.111  13.418
43492W        W11866  44.336  22.115  11.009
43493W        W11867  10.771  36.975  11.452
43494W        W11868   4.806  43.867   1.840
43495W        W11869  15.265  18.056  10.455
43496W        W11870  36.896  24.072  11.462
43497W        W11871   7.332  35.096  10.405
43498W        W11872  21.051  31.074  13.926
43499W        W11873  37.937  44.477  11.558
43500W        W11874  18.564  16.748   3.182
43501W        W11875  17.258   8.755   3.747
43502W        W11876  17.563  27.576  14.343
43503W        W11877   4.249  35.441  11.518
43504W        W11878  13.243  36.060  12.930
43505W        W11879   1.286   3.374  14.908
43506W        W11880  31.486  42.286  12.536
43507W        W11881  23.587   6.836   0.726
43508W        W11882  16.303  17.743  12.490
43509W        W11883  41.314  11.182  11.896
43510W        W11884  16.276  13.815  13.466
43511W        W11885  39.832  39.901   2.729
43512W        W11886  11.368  26.960   2.277
43513W        W11887  39.840  39.973   4.244
43514W        W11888  23.088  29.606   0.296
43515W        W11889  24.219  36.068  11.057
43516W        W11890  17.156  39.861   4.229
43517W        W11891  41.902  30.491  10.414
43518W        W11892  40.344  12.302  13.349
43519W        W11893  13.254  30.610  13.504
43520W        W11894  24.001  29.605   5.628
43521W        W11895  20.067  31.094   4.814
43522W        W11896  42.792  18.577   0.257
43523W        W11897  21.546  42.282  11.904
43524W        W11898   8.172  32.910   2.802
43525W        W11899   9.235   0.870  12.963
43526W        W11900  12.818  15.798   1.299
43527W        W11901  42.429  37.897   1.708
43528W        W11902  23.000  29.107  14.503
43529W        W11903  27.117  42.516  10.889
43530W        W11904  20.199  34.584  13.826
43531W        W11905  28.172   8.242  14.815
43532W        W11906   6.903  33.112  12.881
43533W        W11907  35.603  37.505  12.018
43534W        W11908  18.750  36.942   1.694
43535W        W11909  23.238  23.177   2.183
43536W        W11910   6.263  13.337  11.499
43537W        W11911  40.913  25.593   2.388
43538W        W11912  28.508   1.802   4.613
43539W        W11913  33.998  14.331   3.810
43540W        W11914  34.956  24.513   4.649
43541W        W11915  40.420  14.613  14.433
43542W        W11916  43.355  38.037  11.448
43543W        W11917  20.073  17.669  11.002
43544W        W11918  22.045   9.668  11.923
43545W        W11919  26.957  42.305   3.203
43546W        W11920  43.328  20.582  13.853
43547W        W11921  26.061  13.204  13.857
43548W        W11922   7.772  34.036   0.797
43549W        W11923   6.837  43.008   4.164
43550W        W11924   7.276  30.983   2.676
43551W        W11925  42.969  37.539   5.276
43552W        W11926   3.759  27.170   1.895
43553W        W11927  14.647  22.154   3.871
43554W        W11928  26.700   5.319  10.933
43555W        W11929  42.007  20.112  13.046
43556W        W11930  36.030  29.024   3.752
43557W        W11931  31.926  15.595  10.455
43558W        W11932   8.282  30.955  12.912
43559W        W11933  15.685   0.769   3.197
43560W        W11934  12.811   2.267   2.854
43561W        W11935   8.730  27.029  12.577
43562W        W11936  15.242  16.259  13.330
43563W        W11937  25.487  25.204   3.176
43564W        W11938  33.035  19.221   1.897
43565W        W11939  21.117  11.772   0.417
43566W        W11940  15.776  21.218  12.032
43567W        W11941   5.331   8.247   0.849
43568W        W11942  34.086   1.278  10.515
43569W        W11943  41.476  35.936   2.376
43570W        W11944  23.036   9.743   4.759
43571W        W11945  43.508  38.895   1.284
43572W        W11946  33.597  34.394  14.817
43573W        W11947  11.860  36.929  13.480
43574W        W11948  14.165  16.303   2.798
43575W        W11949  35.522  24.040   0.362
43576W        W11950   0.952  36.388   1.421
43577W        W11951  12.782   2.756   4.634
43578W        W11952  33.042   2.305  12.480
43579W        W11953  30.982  35.424   4.128
43580W        W11954  30.915  13.604  14.434
43581W        W11955   9.179  36.043   2.695
43582W        W11956  41.854  20.208   3.836
43583W        W11957  12.342  14.171   3.700
43584W        W11958  26.190  21.732  12.408
43585W        W11959  14.107  16.279   3.368
43586W        W11960  16.701  32.516  11.946
43587W        W11961  23.007  23.030  12.394
43588W        W11962  19.635   3.774  13.022
43589W        W11963  43.852  22.120  14.828
43590W        W11964   1.311  30.084   1.408
43591W        W11965  13.783   7.351  11.433
43592W        W11966  25.515   3.221  10.918
43593W        W11967  27.164  43.988  13.323
43594W        W11968  36.396  11.829  10.514
43595W        W11969  17.129   5.288   4.686
43596W        W11970  12.235  37.040   1.822
43597W        W11971  27.988  39.549   0.763
43598W        W11972  35.407   9.208   4.616
43599W        W11973  24.026  37.359   0.342
43600W        W11974  36.020   3.782   1.742
43601W        W11975  23.506  14.789   2.240
43602W        W11976  12.345  21.076   9.995
43603W        W11977  39.835  42.331  11.975
43604W        W11978  37.918  22.100   0.877
43605W        W11979   1.326  12.348  11.076
43606W        W11980  21.697  28.004   4.614
43607W        W11981  10.662  42.342   1.300
43608W        W11982  31.125  17.225   2.730
43609W        W11983  33.935  36.952   4.610
43610W        W11984  43.791  38.343  12.023
43611W        W11985   1.439  31.408   1.241
43612W        W11986  32.591   0.930  14.306
43613W        W11987  34.030  25.070   1.752
43614W        W11988  42.914   1.848  14.311
43615W        W11989   0.487  28.513   4.165
43616W        W11990  22.007  25.120   4.325
43617W        W11991   6.242   2.967   4.723
43618W        W11992  35.500  18.146  10.450
43619W        W11993  22.734  42.875   2.739
43620W        W11994  26.168  16.572   2.312
43621W        W11995  35.000  23.120   2.747
43622W        W11996  44.281  38.350  14.983
43623W        W11997  14.102  13.141  12.063
43624W        W11998  14.763  33.915  12.538
43625W        W11999  42.796   4.710   5.130
43626W        W12000  19.168   7.397   4.693
43627W        W12001  17.569  40.511   0.441
43628W        W12002  38.332  21.641  12.534
43629W        W12003  22.701   9.672   3.285
43630W        W12004  36.445  13.804  10.443
43631W        W12005  42.897  26.979  12.419
43632W        W12006  32.501  17.796  10.633
43633W        W12007  44.398  22.014   2.662
43634W        W12008  41.473  11.280  14.470
43635W        W12009  23.063   2.788   2.857
43636W        W12010  30.098  26.033  10.629
43637W        W12011  35.085  31.535  12.522
43638W        W12012  39.918  39.436  11.049
43639W        W12013  42.988  10.150   4.354
43640W        W12014   3.904  12.119  13.316
43641W        W12015  41.992  27.960   1.390
43642W        W12016  23.590  41.305   0.740
43643W        W12017  16.799  42.490  14.827
43644W        W12018  44.968  35.987   2.279
43645W        W12019  34.386  13.140   2.377
43646W        W12020  36.579  42.375   2.832
43647W        W12021  44.393  10.852  14.829
43648W        W12022  39.820  28.656  12.856
43649W        W12023  12.687  33.989   3.383
43650W        W12024  36.910  21.200  12.351
43651W        W12025   0.966  10.251  14.329
43652W        W12026  36.075  11.859   5.263
43653W        W12027  22.661  14.592   0.466
43654W        W12028  42.009  24.981   2.399
43655W        W12029  41.494   7.366  11.404
43656W        W12030   8.252  33.878  12.561
43657W        W12031  42.338  13.743   4.125
43658W        W12032  23.134  30.029  10.960
43659W        W12033  15.205  29.527  12.477
43660W        W12034   3.889   6.735   0.778
43661W        W12035  22.523  22.722  11.600
43662W        W12036  18.090  42.509  13.004
43663W        W12037  37.571  26.186  14.837
43664W        W12038  19.666  32.616  10.547
43665W        W12039   8.329  40.446   1.757
43666W        W12040  37.507   2.392  11.947
43667W        W12041  10.690  31.413   0.742
43668W        W12042  10.259  42.955   4.146
43669W        W12043   2.304  43.436  10.415
43670W        W12044  34.475  40.911  13.952
43671W        W12045  10.218   1.351   2.734
43672W        W12046  24.044  27.586  12.397
43673W        W12047  11.258  36.572  14.419
43674W        W12048  36.570  15.752  13.414
43675W        W12049  19.234  18.132  13.399
43676W        W12050  31.626  24.534  13.989
43677W        W12051   5.403  33.615   0.483
43678W        W12052   1.949  41.806  14.423
43679W        W12053  20.136  30.130   1.237
43680W        W12054   4.801  10.373   4.266
43681W        W12055  42.299  21.193  10.615
43682W        W12056   8.318   7.680  11.505
43683W        W12057  36.465   3.323   3.853
43684W        W12058   9.826  32.543   3.763
43685W        W12059   6.749   4.921   4.279
43686W        W12060  35.893  23.112   0.764
43687W        W12061   6.766  39.408   4.806
43688W        W12062  31.451   2.870  12.408
43689W        W12063  10.167  20.644   3.739
43690W        W12064  16.631  26.585  10.642
43691W        W12065  13.625  37.454  12.831
43692W        W12066  15.158   9.280  12.535
43693W        W12067  15.614  41.368  13.828
43694W        W12068   9.223  29.086  12.939
43695W        W12069  32.556   6.691   0.272
43696W        W12070  33.956  19.581  13.469
43697W        W12071  26.503   2.760   2.331
43698W        W12072  16.309   6.911  13.837
43699W        W12073  17.740  43.882  14.854
43700W        W12074   7.674  25.655  12.882
43701W        W12075  20.575  21.196  13.401
43702W        W12076  30.629  16.178  13.984
43703W        W12077  22.701  26.089   4.219
43704W        W12078  10.835  39.379  10.967
43705W        W12079  41.351  20.031   3.231
43706W        W12080  12.641   3.893   0.282
43707W        W12081   0.349   6.329  11.081
43708W        W12082  23.704  28.047   4.210
43709W        W12083   0.269  16.090  10.553
43710W        W12084  41.326   3.874   0.352
43711W        W12085  28.938  33.045  12.001
43712W        W12086  40.039   2.878  10.890
43713W        W12087  30.525  38.457  11.426
43714W        W12088   6.920  39.028  14.960
43715W        W12089  24.011  14.746   1.929
43716W        W12090  26.971  38.865   1.266
43717W        W12091   7.742  22.541   4.672
43718W        W12092  25.588  16.187   4.242
43719W        W12093  31.493  16.108   1.726
43720W        W12094  23.561  13.822   4.818
43721W        W12095  29.047  33.016  13.958
43722W        W12096  11.689   3.340   4.824
43723W        W12097  31.124  27.539  10.419
43724W        W12098  28.012  42.889  10.005
43725W        W12099  34.444  39.336  13.383
43726W        W12100  30.626  12.345  14.484
43727W        W12101  42.324  16.633  12.502
43728W        W12102  35.017  37.938   4.608
43729W        W12103  29.620   7.718   0.305
43730W        W12104  35.873  33.944   0.819
43731W        W12105  10.830  42.881  12.956
43732W        W12106  38.457   0.930  11.508
43733W        W12107  29.569  14.162   4.171
43734W        W12108  28.096  29.551   4.138
43735W        W12109  36.515  21.552  14.898
43736W        W12110  32.931   2.422  14.937
43737W        W12111  33.587  21.574  12.514
43738W        W12112  29.942   9.769   2.867
43739W        W12113  34.368  18.227   1.838
43740W        W12114   1.346  36.971  11.504
43741W        W12115  28.047  39.064  11.548
43742W        W12116  40.446  39.407   0.318
43743W        W12117  19.761   4.347   1.351
43744W        W12118  33.495  17.572  13.370
43745W        W12119  12.667  22.100   0.330
43746W        W12120   3.755   7.825  10.539
43747W        W12121  37.931  40.545  10.635
43748W        W12122   5.733  31.642  13.961
43749W        W12123   8.342   6.892  11.556
43750W        W12124  39.376  20.737   3.378
43751W        W12125  20.570  23.049  10.462
43752W        W12126  40.967  30.080  11.412
43753W        W12127  22.997  33.000  12.355
43754W        W12128   0.365  39.469   2.179
43755W        W12129  17.150  44.895  14.032
43756W        W12130  24.133  27.482   4.260
43757W        W12131  34.890  33.037  14.350
43758W        W12132  11.153   7.353   2.799
43759W        W12133  13.155   1.478   4.274
43760W        W12134  19.252  20.583  13.339
43761W        W12135  31.001  41.442   4.815
43762W        W12136  37.841   1.428   3.325
43763W        W12137  32.957  12.132   2.871
43764W        W12138  43.882  27.480   1.931
43765W        W12139  15.295   6.747  14.901
43766W        W12140  42.823  21.213   4.623
43767W        W12141  21.567  31.538  14.507
43768W        W12142  20.271  25.685   4.182
43769W        W12143  10.347   4.223   0.267
43770W        W12144  17.291  41.942   4.119
43771W        W12145  14.643  10.244  13.968
43772W        W12146   9.323  34.887   1.749
43773W        W12147  29.576  18.053  12.087
43774W        W12148  23.029  35.468  14.387
43775W        W12149  15.583  35.984   1.223
43776W        W12150  29.931   5.801  13.959
43777W        W12151  13.743  30.600   2.239
43778W        W12152  30.506  34.526  11.962
43779W        W12153  41.976  17.079  14.368
43780W        W12154  14.187  13.632  14.511
43781W        W12155  40.368  15.689   2.796
43782W        W12156  38.345   6.796  12.979
43783W        W12157   4.772  27.078  13.821
43784W        W12158  22.175  37.426   4.810
43785W        W12159  40.928  33.033   1.379
43786W        W12160  37.398  32.082   4.297
43787W        W12161  42.402   8.178  11.373
43788W        W12162  24.011  19.701   1.354
43789W        W12163   0.924  22.210   4.228
43790W        W12164  16.703  37.340   1.384
43791W        W12165  11.681  23.141  13.023
43792W        W12166  20.595  34.872  10.453
43793W        W12167  34.948  34.106   1.217
43794W        W12168  38.516   4.424  13.060
43795W        W12169  30.433  22.723   1.440
43796W        W12170  31.412  16.097  10.958
43797W        W12171  16.238  21.122  13.379
43798W        W12172   8.823  13.264  13.026
43799W        W12173  15.803  35.405   1.713
43800W        W12174  16.756  18.599   2.756
43801W        W12175  36.376  42.302   4.789
43802W        W12176  33.104   9.693   4.237
43803W        W12177  42.505  21.574   1.260
43804W        W12178  32.945   9.796   3.291
43805W        W12179  12.129  21.694   3.822
43806W        W12180  40.824  33.120   2.340
43807W        W12181  10.158  44.980   1.278
43808W        W12182  18.230  18.053  12.844
43809W        W12183  21.611  12.613   1.263
43810W        W12184   2.374  35.366   4.822
43811W        W12185  32.000   0.381  14.769
43812W        W12186  36.098   7.328  12.556
43813W        W12187  36.872  15.637   1.834
43814W        W12188  43.279  43.317   3.862
43815W        W12189  30.518  13.602  13.336
43816W        W12190  44.298  13.166  14.999
43817W        W12191   8.359  37.020   0.445
43818W        W12192  33.460  26.624   1.776
43819W        W12193  24.028  34.926  13.433
43820W        W12194  29.448  15.715   5.231
43821W        W12195   6.223  37.900   0.447
43822W        W12196  38.434  11.838   1.323
43823W        W12197  29.515  11.365  12.492
43824W        W12198  24.190  12.808  12.842
43825W        W12199  33.065   6.868  13.415
43826W        W12200  19.241  44.499   1.404
43827W        W12201  24.598  22.576   3.158
43828W        W12202  35.009  38.550  14.449
43829W        W12203  36.888   7.311   1.300
43830W        W12204  33.912  14.234  12.838
43831W        W12205  19.763  40.447   1.245
43832W        W12206  18.267  17.649  11.582
43833W        W12207  38.975   1.941  14.997
43834W        W12208  40.450  42.482  11.469
43835W        W12209   2.922  41.869   4.603
43836W        W12210  32.106  12.158  10.526
43837W        W12211  37.075  39.321  13.545
43838W        W12212   7.687  28.937   2.734
43839W        W12213  15.104  19.098   0.900
43840W        W12214  40.528  42.779   1.818
43841W        W12215   1.966  43.840   1.295
43842W        W12216  31.472  11.229   2.312
43843W        W12217  26.134  43.990   3.644
43844W        W12218  30.014  14.230  14.430
43845W        W12219  36.030   7.767   1.750
43846W        W12220  12.846  44.263  14.904
43847W        W12221  29.563  22.096  13.917
43848W        W12222  25.152  30.515  14.279
43849W        W12223   9.390  30.650   4.674
43850W        W12224  16.125  11.694   2.804
43851W        W12225  30.556  32.627  12.457
43852W        W12226   1.335  20.122  12.966
43853W        W12227  13.286  17.175  13.994
43854W        W12228  20.049  21.022  11.097
43855W        W12229   2.257   7.317  13.812
43856W        W12230  19.647  12.659  11.536
43857W        W12231  14.741   0.892   3.294
43858W        W12232  21.678  29.066   3.692
43859W        W12233  40.525  11.680   1.838
43860W        W12234  27.457  10.634   1.918
43861W        W12235  25.980   2.350  11.990
43862W        W12236  27.573  23.039   0.860
43863W        W12237  21.131  27.025  11.451
43864W        W12238  32.419  43.782   1.729
43865W        W12239  43.848  19.230  14.405
43866W        W12240  42.506   1.915  14.855
43867W        W12241  21.536  32.463  11.511
43868W        W12242  25.142   0.818  11.552
43869W        W12243  21.722   3.884   1.891
43870W        W12244  27.147  41.308   0.763
43871W        W12245  36.415  33.072  10.905
43872W        W12246  16.648  29.447  11.856
43873W        W12247  34.604  18.223  12.066
43874W        W12248  27.993  31.489   1.214
43875W        W12249  17.769  39.059   3.231
43876W        W12250  41.452  16.744   3.350
43877W        W12251  26.561   3.360   1.213
43878W        W12252  41.321   0.945   4.247
43879W        W12253  28.600  26.988  11.545
43880W        W12254   2.240  14.150   3.196
43881W        W12255  28.592   6.722  10.418
43882W        W12256  39.828  19.084   2.352
43883W        W12257  27.148  23.681   4.113
43884W        W12258   1.419  15.292  13.979
43885W        W12259  13.820  31.592   0.730
43886W        W12260  11.141  41.855   4.215
43887W        W12261  14.801   8.185   5.283
43888W        W12262  43.393  12.829   1.763
43889W        W12263  38.344   3.419   1.327
43890W        W12264  23.570   2.316   3.848
43891W        W12265  40.904  24.080  12.057
43892W        W12266  27.485  22.246   4.346
43893W        W12267  20.635   4.276  13.429
43894W        W12268   8.666  30.919  13.480
43895W        W12269  14.648  39.398  11.112
43896W        W12270  14.751  23.191  13.963
43897W        W12271  42.463  21.571   2.261
43898W        W12272  31.105   3.341   1.803
43899W        W12273  40.954   6.379   3.819
43900W        W12274  24.721  38.896  14.330
43901W        W12275  13.696  19.052  12.828
43902W        W12276  39.555  44.429  13.393
43903W        W12277  29.517   5.370  12.904
43904W        W12278   9.206  20.161   5.567
43905W        W12279  13.137  44.881  14.319
43906W        W12280  39.903   6.854   5.320
43907W        W12281  32.935  21.138  14.479
43908W        W12282  28.096  18.192   2.699
43909W        W12283   0.272   6.718  14.765
43910W        W12284  31.479  26.568   4.695
43911W        W12285  35.016  17.188   3.738
43912W        W12286  21.080  21.693  11.072
43913W        W12287   3.795  14.167  13.937
43914W        W12288  17.602   2.444  12.067
43915W        W12289  14.106  33.441  11.571
43916W        W12290  42.973  33.894  10.480
43917W        W12291   9.868  37.071   0.312
43918W        W12292  20.767  41.319  10.494
43919W        W12293   6.885  43.516   2.211
43920W        W12294  24.085   7.666   4.798
43921W        W12295   7.258  41.476   4.667
43922W        W12296  20.076  20.205   2.306
43923W        W12297  19.203  44.828  13.484
43924W        W12298   1.446  20.722   4.724
43925W        W12299   4.723   1.946   4.139
43926W        W12300  18.101  31.553  11.113
43927W        W12301  16.730  44.882  12.831
43928W        W12302  36.498   1.797  14.798
43929W        W12303   0.941   6.695   4.748
43930W        W12304  19.537   8.236  14.367
43931W        W12305  42.898   8.368  14.798
43932W        W12306  12.732   4.926  12.443
43933W        W12307   8.389  34.926   2.280
43934W        W12308  36.024  14.667   0.343
43935W        W12309  18.255  36.369  11.087
43936W        W12310   6.383  42.421  12.073
43937W        W12311  13.111  39.536   0.465
43938W        W12312  32.514  35.072  14.276
43939W        W12313  20.597  17.286   2.395
43940W        W12314  26.997  17.675   1.699
43941W        W12315  12.268   9.388  13.397
43942W        W12316  18.099  42.417   3.815
43943W        W12317  22.143  36.589   4.752
43944W        W12318  16.224  17.209   2.323
43945W        W12319  19.134   4.207   4.707
43946W        W12320   7.319   1.779  10.461
43947W        W12321  16.235  23.156   1.250
43948W        W12322  27.001  31.997   2.692
43949W        W12323  37.077  27.594   3.645
43950W        W12324  13.734   3.451   3.233
43951W        W12325  27.618  40.871   1.322
43952W        W12326   0.905  24.113   2.335
43953W        W12327  23.063   0.250  11.016
43954W        W12328   2.872  30.034   0.889
43955W        W12329  20.111  25.118   3.740
43956W        W12330   1.448  14.253  11.057
43957W        W12331  11.633   6.795   4.178
43958W        W12332  21.180  35.579  12.930
43959W        W12333   3.443  33.040   1.357
43960W        W12334  15.589  23.079   0.940
43961W        W12335   2.286  19.556  14.396
43962W        W12336   3.216  39.522   1.706
43963W        W12337   4.346  12.143  12.346
43964W        W12338  31.108  14.808  12.846
43965W        W12339  19.598   3.234   1.354
43966W        W12340  16.727   7.728   1.258
43967W        W12341  25.124  35.073   4.689
43968W        W12342   9.290   9.669  12.442
43969W        W12343  23.589  10.385  11.866
43970W        W12344  11.269  15.709   2.880
43971W        W12345  11.249   8.779  13.878
43972W        W12346  43.861  11.708   1.722
43973W        W12347  41.940   3.316  14.403
43974W        W12348   3.952  28.111  13.409
43975W        W12349  27.478   2.328   0.820
43976W        W12350  39.865  22.162  14.411
43977W        W12351  43.322   3.926   0.832
43978W        W12352  19.653  24.623   3.637
43979W        W12353   7.310  36.979   2.835
43980W        W12354  41.436  38.568   1.720
43981W        W12355  37.854  16.150  14.333
43982W        W12356  43.274  42.358  10.423
43983W        W12357  21.162  12.173   2.708
43984W        W12358   7.300  34.470  13.477
43985W        W12359  18.702   2.328  11.111
43986W        W12360  34.904  35.860  11.120
43987W        W12361  26.081  22.071  14.486
43988W        W12362  28.519  34.412  14.881
43989W        W12363   6.687  27.584  11.382
43990W        W12364  15.762   5.872  14.928
43991W        W12365  44.856   0.981   1.816
43992W        W12366  32.508  39.491   4.200
43993W        W12367  31.935  18.203   4.672
43994W        W12368   3.375  23.999  12.999
43995W        W12369  12.758  31.999   5.317
43996W        W12370   4.802   6.393   4.287
43997W        W12371  10.714  43.289   1.411
43998W        W12372   4.237  41.831   1.728
43999W        W12373   0.986  19.180   2.416
44000W        W12374  30.492  32.998  13.900
44001W        W12375  40.334   8.834   4.603
44002W        W12376  19.699  28.633   3.771
44003W        W12377  10.209  21.684   0.899
44004W        W12378  25.652  29.480  13.915
44005W        W12379  27.949  12.139  10.551
44006W        W12380  20.666  42.518   2.191
44007W        W12381  24.078  38.988   3.220
44008W        W12382  29.079  12.639  12.375
44009W        W12383  36.913   7.838  14.348
44010W        W12384  14.164  30.563   3.276
44011W        W12385  11.147  15.253   3.693
44012W        W12386  20.710  16.636  13.489
44013W        W12387  43.386  20.242   0.963
44014W        W12388  39.893  14.222  13.900
44015W        W12389   8.194  12.187   3.831
44016W        W12390   4.756  42.991  10.090
44017W        W12391   7.410  27.619   1.395
44018W        W12392   6.807  44.492   2.342
44019W        W12393  26.680  29.550  13.493
44020W        W12394  16.709  35.031  14.414
44021W        W12395  17.140  36.530  14.796
44022W        W12396  20.046  20.164  12.387
44023W        W12397  40.545  15.705  11.026
44024W        W12398  13.319  43.479   3.271
44025W        W12399  43.770   1.269   2.796
44026W        W12400  28.518   3.451   0.375
44027W        W12401   6.698  30.093  13.016
44028W        W12402  14.787  28.673   2.773
44029W        W12403  39.861  15.768  12.919
44030W        W12404   0.274  42.419  12.561
44031W        W12405  41.503  16.611   1.878
44032W        W12406   0.889   9.383   4.624
44033W        W12407  19.277   8.840  13.028
44034W        W12408  32.106  41.958   0.386
44035W        W12409  25.558  19.605  10.611
44036W        W12410  41.936  12.728  11.953
44037W        W12411  33.508  37.056  10.589
44038W        W12412  26.079   8.184  12.007
44039W        W12413  15.791  17.094  11.592
44040W        W12414   9.241  36.526   0.809
44041W        W12415  12.344  38.859   0.250
44042W        W12416   8.725  19.128   4.818
44043W        W12417  15.115  32.614  10.584
44044W        W12418  42.436  44.811   1.751
44045W        W12419  21.638  13.176   4.224
44046W        W12420  41.532  36.413   4.635
44047W        W12421  41.847  27.035   2.684
44048W        W12422  37.968  32.528  12.891
44049W        W12423  43.870  36.897   2.212
44050W        W12424  11.643  37.887  14.290
44051W        W12425  25.467  11.645  11.584
44052W        W12426  27.189  37.935   2.769
44053W        W12427  36.527  35.994  11.520
44054W        W12428  39.326   5.869  13.843
44055W        W12429  15.190  34.041  11.976
44056W        W12430  23.616  11.754  13.020
44057W        W12431  27.591  38.415  11.985
44058W        W12432  26.000  34.499  12.375
44059W        W12433  14.602  37.574  13.458
44060W        W12434  29.653  43.929  10.010
44061W        W12435  40.011  17.576   4.307
44062W        W12436  28.500  35.013  13.030
44063W        W12437  17.590   7.305   1.859
44064W        W12438  26.588  15.169  14.911
44065W        W12439  16.113  44.979   0.382
44066W        W12440  21.125  16.308  11.865
44067W        W12441  36.003  12.202   2.246
44068W        W12442  21.191  13.107  12.470
44069W        W12443   2.446  28.453   2.695
44070W        W12444  18.568  21.747  10.525
44071W        W12445  35.938  27.623   3.768
44072W        W12446  44.947   5.852  11.591
44073W        W12447  33.475  15.153   3.212
44074W        W12448  15.295  16.231   4.184
44075W        W12449  22.104  34.020  13.359
44076W        W12450  41.823  34.099  10.581
44077W        W12451  35.585  10.678  11.586
44078W        W12452   9.232  36.379  13.952
44079W        W12453  21.050   8.261  14.406
44080W        W12454  12.671  35.054  14.875
44081W        W12455  36.096  25.018   0.911
44082W        W12456   1.926  11.692  11.019
44083W        W12457  22.510  36.089   3.203
44084W        W12458  20.132  32.521   1.892
44085W        W12459  19.650  16.246  10.455
44086W        W12460  32.420  44.269  14.014
44087W        W12461  32.947  35.521   4.132
44088W        W12462  14.699  27.997   4.322
44089W        W12463  38.904  27.054   9.968
44090W        W12464  41.448  15.754   0.401
44091W        W12465   7.772  41.359  10.052
44092W        W12466  10.325  24.721  13.425
44093W        W12467  23.025  34.991  10.601
44094W        W12468  41.402   5.327  11.985
44095W        W12469  31.506   7.905  13.994
44096W        W12470   2.244   5.195  10.946
44097W        W12471  38.879   7.326  14.911
44098W        W12472   7.298  29.026   4.312
44099W        W12473  29.053  17.765  14.359
44100W        W12474   6.424  15.091  13.474
44101W        W12475   7.397   2.268   5.684
44102W        W12476  38.900  44.469   4.824
44103W        W12477  24.196  29.143   4.810
44104W        W12478  25.204  43.874   2.288
44105W        W12479   9.377  29.940  10.057
44106W        W12480  11.807  29.623  13.954
44107W        W12481  36.078   8.392   4.685
44108W        W12482  32.949   9.288  12.996
44109W        W12483   9.299  37.472   1.822
44110W        W12484  23.688  19.126  12.350
44111W        W12485   2.733  15.657   3.373
44112W        W12486  21.589  11.768  11.528
44113W        W12487  35.870   6.412  13.905
44114W        W12488   1.336   4.347   1.694
44115W        W12489   0.882  31.605   1.750
44116W        W12490  39.913  32.414  11.945
44117W        W12491  32.942  13.828   2.260
44118W        W12492   9.152  23.544  14.940
44119W        W12493  23.233  28.021  10.538
44120W        W12494  15.297   0.799   1.430
44121W        W12495  23.627  27.479  12.990
44122W        W12496  30.504  19.131   1.430
44123W        W12497  42.859  36.919  12.430
44124W        W12498   3.381   5.703  13.878
44125W        W12499  42.957  25.676  12.936
44126W        W12500  11.252   0.258   2.294
44127W        W12501  10.753  39.850  11.542
44128W        W12502  11.799  30.414  11.576
44129W        W12503   4.226  17.560   3.757
44130W        W12504   0.950  36.518  12.341
44131W        W12505  11.773  36.897  10.491
44132W        W12506  15.209  28.439  12.940
44133W        W12507  15.587  30.923  10.633
44134W        W12508  25.563  18.576   0.799
44135W        W12509  30.933  32.995   2.707
44136W        W12510  18.098  23.491  11.915
44137W        W12511  22.666  23.165   4.302
44138W        W12512  41.989  38.975  12.543
44139W        W12513  36.968  25.011  14.003
44140W        W12514   5.219  43.005   3.349
44141W        W12515  11.234  41.437  14.788
44142W        W12516  36.533  10.653  13.861
44143W        W12517  20.618  31.065  11.544
44144W        W12518  34.406  32.963  13.939
44145W        W12519  19.044  17.776   1.447
44146W        W12520  27.486  13.608   2.215
44147W        W12521  42.867  16.091   4.130
44148W        W12522  24.063   2.963   0.380
44149W        W12523  36.373   5.283  11.524
44150W        W12524  29.919   4.253   4.253
44151W        W12525  42.322  17.134  10.523
44152W        W12526  39.393  25.033  13.916
44153W        W12527  15.264  24.038  11.123
44154W        W12528  19.114  41.912   3.172
44155W        W12529  20.599   4.776   3.270
44156W        W12530  25.635  41.404   5.095
44157W        W12531  10.809  16.121   3.824
44158W        W12532   9.357   4.831   5.223
44159W        W12533   9.735  34.508   0.471
44160W        W12534  35.567   7.269   4.258
44161W        W12535   1.910  20.214   0.948
44162W        W12536  34.520  34.538   4.270
44163W        W12537   7.406  17.188  13.935
44164W        W12538  34.521   6.257   2.270
44165W        W12539  39.393  16.636   0.338
44166W        W12540  30.651  38.075   4.140
44167W        W12541  40.480   2.822   1.926
44168W        W12542  34.439  41.981  13.545
44169W        W12543  35.461  37.995  11.417
44170W        W12544  44.839  12.849   2.745
44171W        W12545  27.663  13.323  10.629
44172W        W12546   3.303  13.198   0.934
44173W        W12547  25.653  33.033   0.785
44174W        W12548  12.624  19.124  13.859
44175W        W12549   7.688  27.647  11.914
44176W        W12550  26.994  41.301  10.467
44177W        W12551  36.357  43.802   3.288
44178W        W12552   2.927  40.988   3.191
44179W        W12553  34.098  44.924  12.931
44180W        W12554  40.472   7.369   4.217
44181W        W12555  41.323  30.148   1.224
44182W        W12556  26.112  15.286  13.536
44183W        W12557  26.137  42.883   0.810
44184W        W12558  23.997  43.836   1.852
44185W        W12559  36.077  44.864   2.793
44186W        W12560  25.502   5.428   2.208
44187W        W12561   6.908  32.398   0.324
44188W        W12562  43.454  34.563   2.181
44189W        W12563  12.640  26.591   1.872
44190W        W12564  27.536   1.876  10.469
44191W        W12565   1.737  14.315  11.463
44192W        W12566  13.220   9.267  12.856
44193W        W12567  42.987  30.084  11.508
44194W        W12568   6.329  28.604   3.657
44195W        W12569  30.125   4.351  11.398
44196W        W12570  33.907   6.420   4.290
44197W        W12571   2.908  24.509   2.322
44198W        W12572  42.336   0.817   0.931
44199W        W12573  39.971  36.502  14.866
44200W        W12574   3.947  21.240  11.446
44201W        W12575  27.505  15.311  13.864
44202W        W12576  38.332  42.913   1.417
44203W        W12577  30.480  24.486  11.459
44204W        W12578  16.731  18.144   2.308
44205W        W12579   5.751  35.899  10.504
44206W        W12580  29.098  23.567  14.999
44207W        W12581  16.129  36.089   1.753
44208W        W12582  32.900   9.313  11.524
44209W        W12583  35.552  20.229   0.454
44210W        W12584  28.028   8.799  13.522
44211W        W12585  23.707   0.847  13.815
44212W        W12586  17.262  13.257   0.313
44213W        W12587  14.617  41.877  11.381
44214W        W12588   5.791   6.328   1.436
44215W        W12589  29.121  23.116  10.496
44216W        W12590  29.023  37.335   5.255
44217W        W12591  25.619  35.889   0.799
44218W        W12592  22.529  16.628  13.029
44219W        W12593  21.096   8.192   4.688
44220W        W12594   6.763  32.455   1.927
44221W        W12595  36.041  15.615  14.803
44222W        W12596   0.817  35.983  11.604
44223W        W12597  27.516  23.547  10.966
44224W        W12598  39.825  28.435  13.918
44225W        W12599  39.859  41.792   1.354
44226W        W12600   8.880  23.662   3.315
44227W        W12601  37.045  15.328   3.749
44228W        W12602  19.744  44.988  14.771
44229W        W12603   3.461  16.619  13.834
44230W        W12604  12.733  31.033  11.100
44231W        W12605  15.153  35.877  14.427
44232W        W12606   3.223  31.065  12.843
44233W        W12607  38.912   8.730   0.735
44234W        W12608  14.780  41.903   1.891
44235W        W12609   7.208  12.213   4.749
44236W        W12610  39.551  33.482  10.012
44237W        W12611   9.361  19.652   4.261
44238W        W12612  25.991  15.324   2.895
44239W        W12613   9.841  39.918   3.645
44240W        W12614  43.322   7.192   4.692
44241W        W12615   3.863  37.423   0.893
44242W        W12616  42.405  19.780  11.401
44243W        W12617  27.606  41.493  10.962
44244W        W12618   6.706  38.914   4.113
44245W        W12619  34.505  43.493  13.518
44246W        W12620  33.419  22.220   3.175
44247W        W12621  33.119  24.560   3.317
44248W        W12622  19.080  25.198   3.647
44249W        W12623  42.343  15.162   3.375
44250W        W12624  28.152  30.045   0.306
44251W        W12625  12.710  10.735  11.415
44252W        W12626  19.249  26.088   1.842
44253W        W12627  31.947   3.829  14.353
44254W        W12628   1.781  31.044   0.884
44255W        W12629  44.501   5.785   2.401
44256W        W12630  27.474   1.774  13.941
44257W        W12631  30.044  22.637  14.848
44258W        W12632  22.586  19.585   1.423
44259W        W12633  32.985   7.791   0.942
44260W        W12634  12.315  13.824   2.784
44261W        W12635  18.730  25.974   1.302
44262W        W12636  25.218  28.600   0.376
44263W        W12637   8.816   3.807  10.904
44264W        W12638  30.115  36.997   2.814
44265W        W12639  14.660  30.050  11.469
44266W        W12640  43.869  26.499   0.814
44267W        W12641  15.194   6.798  10.597
44268W        W12642  17.751  27.551   0.830
44269W        W12643  27.137   8.212   1.831
44270W        W12644  19.076  25.973   3.382
44271W        W12645  29.563  12.212   2.362
44272W        W12646  10.807  13.275  13.990
44273W        W12647   4.825   5.267   2.293
44274W        W12648  21.612  35.905  13.316
44275W        W12649  16.119  31.542  14.951
44276W        W12650  31.591   8.234  11.018
44277W        W12651  28.518  17.619   4.643
44278W        W12652  28.441  23.109   4.202
44279W        W12653  11.731  22.628  10.440
44280W        W12654  38.944  25.520  13.522
44281W        W12655  15.731  43.375   3.381
44282W        W12656  39.400   3.733  11.376
44283W        W12657  44.894  11.868  10.486
44284W        W12658  29.626   9.377  12.034
44285W        W12659  31.091  32.017  10.472
44286W        W12660  30.007  19.662   4.330
44287W        W12661  40.539  29.163   4.635
44288W        W12662   1.831  16.665   4.185
44289W        W12663   6.704  18.758   3.191
44290W        W12664  13.156  38.375   0.788
44291W        W12665  26.040   5.393  14.979
44292W        W12666  31.625  37.040  12.393
44293W        W12667  23.122  19.065   3.245
44294W        W12668   2.930  36.992  12.025
44295W        W12669  42.409   3.784  10.429
44296W        W12670  32.143  38.496   3.239
44297W        W12671  12.691  44.357  10.926
44298W        W12672  27.958  16.591  12.850
44299W        W12673   4.287  42.995   0.460
44300W        W12674  35.055  25.704  11.600
44301W        W12675  31.977   2.745   4.662
44302W        W12676  24.051  25.696  10.896
44303W        W12677  26.569  22.692   5.097
44304W        W12678  41.538  30.070   2.759
44305W        W12679  11.827  27.070   1.381
44306W        W12680  30.606  30.647  13.795
44307W        W12681  41.337  37.555   1.264
44308W        W12682  27.094  16.789   0.897
44309W        W12683  20.109  26.989  12.483
44310W        W12684  10.153  34.462   1.819
44311W        W12685  31.107  12.716   4.834
44312W        W12686   3.777   1.895   0.442
44313W        W12687  20.644  21.736  11.868
44314W        W12688  22.164  27.654   4.128
44315W        W12689  33.027  14.715  14.482
44316W        W12690   6.228  26.201  14.827
44317W        W12691   5.379  38.013  10.589
44318W        W12692  22.612  19.541  13.012
44319W        W12693  20.543  33.062   4.759
44320W        W12694  42.026   1.885   4.161
44321W        W12695  16.693  27.648   4.837
44322W        W12696  17.155   0.351  11.400
44323W        W12697  11.158   4.269   1.891
44324W        W12698   8.324   7.237  11.561
44325W        W12699  36.451  24.205  14.328
44326W        W12700  39.419  21.056  11.896
44327W        W12701  40.303  38.359   1.375
44328W        W12702  37.336  17.151  13.535
44329W        W12703  13.216   9.311   1.865
44330W        W12704  30.103   9.834   3.863
44331W        W12705  13.712  33.887  13.415
44332W        W12706  29.639  15.611  13.981
44333W        W12707  32.633  44.400  14.292
44334W        W12708  11.196  32.902   1.451
44335W        W12709  17.689  22.149   2.807
44336W        W12710  44.390   1.257  14.962
44337W        W12711  15.290  40.970  11.926
44338W        W12712   4.215  20.200   2.261
44339W        W12713  40.494  20.562  11.613
44340W        W12714  23.196   9.167   1.433
44341W        W12715  18.186  32.996  14.924
44342W        W12716  15.264  25.613   0.773
44343W        W12717  20.605   6.198  10.981
44344W        W12718  21.671  35.362  14.360
44345W        W12719  26.120   6.313   4.626
44346W        W12720  39.013  25.100   3.336
44347W        W12721   3.923   0.378   3.639
44348W        W12722  23.014  11.187   0.916
44349W        W12723   2.818  37.360  10.908
44350W        W12724   1.268  14.813  14.443
44351W        W12725  22.544  22.625  13.417
44352W        W12726   7.859   6.305  13.984
44353W        W12727   2.944   2.363  11.550
44354W        W12728  24.153  37.533   3.366
44355W        W12729  19.171  10.321  13.399
44356W        W12730  15.804   1.745   0.273
44357W        W12731  27.580  19.272  14.504
44358W        W12732  26.611  43.303   4.349
44359W        W12733  23.519  21.677  10.604
44360W        W12734  41.500  24.538  12.043
44361W        W12735  33.595  13.661  13.807
44362W        W12736  27.621  17.096  11.051
44363W        W12737  15.658  17.097  10.525
44364W        W12738  21.664  20.591   0.279
44365W        W12739  28.458  35.383   2.277
44366W        W12740   2.812  16.737   3.208
44367W        W12741  23.575   5.932  13.002
44368W        W12742  32.907  13.159   0.870
44369W        W12743  10.724   7.747  10.899
44370W        W12744  40.976  31.968   0.325
44371W        W12745  30.624  22.666   2.858
44372W        W12746  22.161  43.331   4.280
44373W        W12747   8.758  24.576   4.289
44374W        W12748  16.645  44.296  12.474
44375W        W12749   3.223  31.027   1.394
44376W        W12750  16.718  26.203  13.461
44377W        W12751  18.279   8.372  11.999
44378W        W12752  43.893  18.086  14.903
44379W        W12753  20.086  43.477  14.767
44380W        W12754  33.551  22.606   2.837
44381W        W12755  44.755   8.686   2.676
44382W        W12756  20.738   7.407   4.779
44383W        W12757   5.844  25.537  14.386
44384W        W12758   4.712  25.693   4.621
44385W        W12759  42.942  29.993  10.442
44386W        W12760  34.418  14.802   1.908
44387W        W12761  27.143  36.019  12.483
44388W        W12762  16.766  24.515   0.258
44389W        W12763  42.283  24.561   3.343
44390W        W12764  36.563  17.164  12.084
44391W        W12765  37.992  27.690   3.740
44392W        W12766  44.940  39.521   3.848
44393W        W12767   6.349  39.967  12.352
44394W        W12768  18.123  11.286  13.405
44395W        W12769  11.328  14.258   1.815
44396W        W12770  13.746   7.242  11.962
44397W        W12771  13.173  23.622   5.205
44398W        W12772   7.315  12.625   3.183
44399W        W12773  12.360  38.867   0.958
44400W        W12774   6.194  33.935   3.185
44401W        W12775  19.565  14.197   1.833
44402W        W12776   7.311  28.164   3.304
44403W        W12777   7.678  36.948  12.435
44404W        W12778  32.428  32.422   4.187
44405W        W12779  32.588  25.097  13.906
44406W        W12780   8.662   7.387   1.756
44407W        W12781  31.470  28.586   0.303
44408W        W12782  23.194  14.184   2.799
44409W        W12783  18.716  28.489  14.002
44410W        W12784  21.755   7.175  10.492
44411W        W12785  22.596  17.114   0.854
44412W        W12786  19.709  19.747  11.572
44413W        W12787  35.600  18.196  13.974
44414W        W12788  19.054  44.821  13.903
44415W        W12789   9.171   3.934  10.543
44416W        W12790  15.696  16.642  11.560
44417W        W12791  17.260  31.644  12.069
44418W        W12792   6.352  12.184  11.034
44419W        W12793  17.574  34.465  14.388
44420W        W12794   3.909  26.960   2.758
44421W        W12795  35.571   6.278   4.805
44422W        W12796  44.882  27.072   1.230
44423W        W12797  35.545  12.751   0.769
44424W        W12798  33.978  33.507  13.839
44425W        W12799   2.908   2.352   3.707
44426W        W12800  22.211  21.548   4.666
44427W        W12801  16.229  36.073   3.680
44428W        W12802  12.735  44.503   1.835
44429W        W12803  29.538  20.131  11.993
44430W        W12804   8.286  33.966  14.375
44431W        W12805  23.169  42.868   0.727
44432W        W12806   5.376  34.495  12.093
44433W        W12807   8.755   5.415   2.377
44434W        W12808  28.607  16.204  13.358
44435W        W12809  28.129  15.159   2.271
44436W        W12810  16.204  44.404  14.913
44437W        W12811  18.779  37.379  10.898
44438W        W12812  38.406  24.150   1.837
44439W        W12813   5.230  21.111  13.814
44440W        W12814  29.143   4.881   1.230
44441W        W12815  10.172  35.459  13.387
44442W        W12816  24.715  34.550  13.480
44443W        W12817  12.625  38.934  10.522
44444W        W12818   8.282  13.710  12.860
44445W        W12819  28.132  10.789   4.673
44446W        W12820   2.274   9.289   4.799
44447W        W12821   3.291  39.495   1.409
44448W        W12822  14.111  44.361   4.750
44449W        W12823  34.556  32.141   4.813
44450W        W12824  12.729  11.648   4.667
44451W        W12825  23.060   6.860  14.009
44452W        W12826   8.373  18.563  13.980
44453W        W12827  28.979  29.585  12.007
44454W        W12828  29.021   0.923  11.560
44455W        W12829  41.861  37.400   2.800
44456W        W12830  14.707  41.904  12.537
44457W        W12831  29.089  17.064  11.107
44458W        W12832  28.497  10.252   3.823
44459W        W12833  39.066  26.003   0.277
44460W        W12834  24.155   2.416  12.937
44461W        W12835  23.723  26.167   1.908
44462W        W12836  28.046   3.289   2.412
44463W        W12837  15.681  38.933   0.377
44464W        W12838  38.041  25.554   0.799
44465W        W12839  37.496  23.606   0.902
44466W        W12840  22.609  17.265  14.323
44467W        W12841  10.358  32.575   0.460
44468W        W12842  10.371  18.676  14.465
44469W        W12843   7.755  13.798  12.915
44470W        W12844   3.287  38.988   0.847
44471W        W12845  23.984  36.587  13.997
44472W        W12846  12.739   6.368  13.432
44473W        W12847  21.704  15.685  10.441
44474W        W12848  17.564  12.857   1.370
44475W        W12849  40.049   9.355  14.007
44476W        W12850   5.904  33.612  11.091
44477W        W12851  10.252  27.462  12.033
44478W        W12852  22.197  31.024  10.597
44479W        W12853  33.596  17.304   2.203
44480W        W12854   7.834   9.877   4.202
44481W        W12855  39.497   8.384   1.903
44482W        W12856  23.606  10.156   2.349
44483W        W12857   4.304  14.286   3.361
44484W        W12858  23.531  19.544  11.885
44485W        W12859  37.464  41.431  12.345
44486W        W12860  16.682  35.047   0.842
44487W        W12861  30.609  43.825   0.737
44488W        W12862  16.569  34.042   1.930
44489W        W12863  24.708  20.601   2.846
44490W        W12864  32.053  33.016  11.547
44491W        W12865  13.195  36.872   2.779
44492W        W12866  42.489  11.861   4.299
44493W        W12867  34.961  24.690  11.904
44494W        W12868  36.999  34.946   1.732
44495W        W12869   7.254  40.424   4.711
44496W        W12870  13.716  34.556   4.228
44497W        W12871   9.886   4.784  10.998
44498W        W12872  37.064  10.750   1.841
44499W        W12873  40.040  27.036  12.960
44500W        W12874  26.972  15.631  10.890
44501W        W12875  26.047  35.949   3.262
44502W        W12876  17.198  33.921   1.274
44503W        W12877  11.623  10.242  11.547
44504W        W12878  42.474  33.008  10.472
44505W        W12879  44.496   1.399  12.948
44506W        W12880   4.398  32.392   4.234
44507W        W12881  44.469  41.012  14.992
44508W        W12882  20.182  20.268   1.304
44509W        W12883  29.135  12.136   2.355
44510W        W12884  12.822   3.842  11.513
44511W        W12885  13.233  33.475  13.940
44512W        W12886  33.987  29.455   2.854
44513W        W12887  25.628  28.443   0.299
44514W        W12888  44.891  38.942  10.626
44515W        W12889   3.360  24.139  11.897
44516W        W12890  32.500  34.944  11.454
44517W        W12891  38.827  16.123   4.332
44518W        W12892  31.424   1.458  10.453
44519W        W12893  28.990  15.180  14.966
44520W        W12894  26.459  38.495   0.820
44521W        W12895  43.302  33.105  13.502
44522W        W12896  31.026  23.007  14.511
44523W        W12897  17.145  14.785  12.507
44524W        W12898  32.478  15.724   3.169
44525W        W12899  20.531  21.124  14.872
44526W        W12900  27.554  26.487  12.575
44527W        W12901  36.871   4.823  10.017
44528W        W12902  10.818  22.217   4.280
44529W        W12903  39.392  32.465  11.583
44530W        W12904   9.349  27.595   2.380
44531W        W12905  34.890  24.034  14.920
44532W        W12906  37.460  28.603   0.440
44533W        W12907  37.520   5.819  13.406
44534W        W12908  24.556   9.817  11.895
44535W        W12909  39.330   4.729  13.035
44536W        W12910  35.102  42.995   9.938
44537W        W12911   2.890  42.973   2.195
44538W        W12912  35.571  15.631   3.275
44539W        W12913  11.148   0.882   4.141
44540W        W12914  24.676  19.641  12.493
44541W        W12915  15.818  43.859  11.453
44542W        W12916  10.735  12.163  11.549
44543W        W12917  18.577  40.841  13.987
44544W        W12918   0.295  41.455  14.349
44545W        W12919   7.395  44.927   2.790
44546W        W12920   3.293   9.325   2.891
44547W        W12921  24.191  39.464   4.265
44548W        W12922   8.802   8.870   0.864
44549W        W12923  15.681   2.732  13.849
44550W        W12924   4.935  19.250   0.738
44551W        W12925  20.538   7.847  12.942
44552W        W12926  30.599  11.270   0.376
44553W        W12927  31.056  44.958  11.054
44554W        W12928  42.314  32.498  10.465
44555W        W12929  43.817   0.336  11.586
44556W        W12930  42.508  41.377   2.209
44557W        W12931  36.394  11.737  12.984
44558W        W12932  23.612  27.035  14.794
44559W        W12933  22.670  24.508  12.846
44560W        W12934  22.601  28.632   0.831
44561W        W12935   3.817   5.913  10.935
44562W        W12936  23.523  14.192  14.473
44563W        W12937  38.901  19.112  13.806
44564W        W12938  40.947   3.955  13.326
44565W        W12939   7.700   1.863  10.442
44566W        W12940  34.475  44.435  11.539
44567W        W12941  33.497  17.795  14.880
44568W        W12942  24.617  26.002  12.390
44569W        W12943  37.941   6.254  13.970
44570W        W12944  36.079  11.343  10.888
44571W        W12945  42.820  31.975   4.772
44572W        W12946  25.218  39.994   3.356
44573W        W12947  11.268   8.748  11.933
44574W        W12948  29.098  29.630   0.864
44575W        W12949   4.385   9.681   4.114
44576W        W12950   3.278  34.543  14.985
44577W        W12951  20.194  24.679  13.909
44578W        W12952  41.914  29.140   4.694
44579W        W12953   0.492  13.209  13.883
44580W        W12954  38.971  15.095  13.967
44581W        W12955  18.778  10.318   9.958
44582W        W12956  44.903   2.922   1.796
44583W        W12957  14.096  11.749   0.791
44584W        W12958  11.185  32.142   0.791
44585W        W12959  36.463  34.373  11.097
44586W        W12960  28.591   4.875   1.369
44587W        W12961   9.856   2.393  14.874
44588W        W12962  41.876  22.531   2.199
44589W        W12963  39.384  36.359  11.856
44590W        W12964  15.669  10.735  14.782
44591W        W12965  37.386   5.300   4.140
44592W        W12966  32.571  12.722  11.523
44593W        W12967  29.022  22.608  13.366
44594W        W12968  36.979   2.286  12.892
44595W        W12969  37.491  35.889  11.090
44596W        W12970   0.325   0.259   0.246
44597W        W12971  21.591  19.050   3.322
44598W        W12972  23.109   5.264  11.012
44599W        W12973  39.463  39.497  11.991
44600W        W12974  15.756  28.489   2.224
44601W        W12975  30.562  35.021  13.365
44602W        W12976  24.601  37.406   1.891
44603W        W12977  28.484   6.428   0.879
44604W        W12978  25.651  17.594   4.819
44605W        W12979  40.963  43.859  11.875
44606W        W12980  11.722   9.280  11.977
44607W        W12981  41.820  43.782   3.192
44608W        W12982  13.611  38.335  14.415
44609W        W12983  40.910   3.434  11.005
44610W        W12984   3.886  37.883   2.397
44611W        W12985  21.219  26.526  10.919
44612W        W12986  37.075  34.887  13.954
44613W        W12987  27.005   0.305   0.739
44614W        W12988   5.731  28.107  11.963
44615W        W12989  40.927   8.850  12.357
44616W        W12990  31.406  18.121   0.274
44617W        W12991  29.579   7.695   1.432
44618W        W12992  37.518   6.409  10.568
44619W        W12993  18.645   0.904  10.499
44620W        W12994  12.692  20.698   4.220
44621W        W12995  39.057   6.684  10.147
44622W        W12996   7.896  34.907   4.158
44623W        W12997   8.752  31.428  14.939
44624W        W12998  25.056   5.743   4.337
44625W        W12999  26.171  43.862  14.994
44626W        W13000  39.879   2.296  14.902
44627W        W13001  28.527  37.540   3.641
44628W        W13002  21.071   1.976  13.435
44629W        W13003  33.624  12.316   2.868
44630W        W13004  28.125  20.225   2.741
44631W        W13005  17.106  18.668  13.941
44632W        W13006   2.930   0.793   1.790
44633W        W13007  32.613  19.057   0.806
44634W        W13008  43.924  39.319   3.251
44635W        W13009  18.596   5.834  11.405
44636W        W13010   2.890  22.595  12.542
44637W        W13011  26.983  27.986  10.579
44638W        W13012  40.400  14.727   3.386
44639W        W13013  44.945  27.153  14.349
44640W        W13014  30.040  14.788   4.302
44641W        W13015  32.447  17.680  11.513
44642W        W13016  10.201  10.295  11.583
44643W        W13017   0.305  16.590  13.471
44644W        W13018  44.899  33.957  12.048
44645W        W13019  23.502  25.140   1.332
44646W        W13020  15.817  29.662  14.904
44647W        W13021  24.725  43.945  12.838
44648W        W13022  37.837  11.701  12.843
44649W        W13023  29.152  23.028   2.771
44650W        W13024  22.212  35.110  14.495
44651W        W13025   4.930  16.687  11.043
44652W        W13026  29.025  18.135   4.206
44653W        W13027  25.193  10.297  14.958
44654W        W13028   8.759  18.216   3.354
44655W        W13029  24.485  39.011   4.252
44656W        W13030   5.404  43.892  14.504
44657W        W13031  15.260  16.261  12.527
44658W        W13032   0.893   5.839   0.297
44659W        W13033  10.289  28.933   2.301
44660W        W13034  15.790  19.070  11.048
44661W        W13035  18.623   0.883  13.339
44662W        W13036   2.897   4.289   4.743
44663W        W13037  34.453   3.720  13.036
44664W        W13038  19.275  23.698  10.899
44665W        W13039  11.190  21.530   2.789
44666W        W13040  16.648  40.936   0.310
44667W        W13041  14.641  34.519  12.572
44668W        W13042  33.604  27.008   1.853
44669W        W13043  23.585  38.062   3.257
44670W        W13044   9.831  38.566   0.810
44671W        W13045  28.131  21.089   4.300
44672W        W13046  31.592  22.213  14.770
44673W        W13047  10.195  24.213  11.387
44674W        W13048  26.473  36.567  10.520
44675W        W13049  43.304  39.837  11.976
44676W        W13050   0.462  18.062  14.928
44677W        W13051  24.037   4.290  11.025
44678W        W13052  18.144  40.473   3.205
44679W        W13053   3.868  10.674  12.377
44680W        W13054  29.654  35.001  13.521
44681W        W13055  16.777  20.710  12.077
44682W        W13056  35.985   2.423  10.513
44683W        W13057   4.225  26.658   1.821
44684W        W13058  41.821  13.299   1.826
44685W        W13059  44.872  44.814   2.353
44686W        W13060  10.754   6.727   4.713
44687W        W13061  20.274  24.220  14.836
44688W        W13062   6.918  21.543  11.889
44689W        W13063  23.510  20.614  13.362
44690W        W13064  14.177   7.905  13.910
44691W        W13065  20.688  32.515   4.333
44692W        W13066  33.971  28.073  14.811
44693W        W13067  12.768   8.355   1.810
44694W        W13068   9.180  18.758  11.857
44695W        W13069   2.763   0.801  13.845
44696W        W13070   2.248   9.152  14.346
44697W        W13071   8.174  40.357  11.859
44698W        W13072  11.344  42.860   3.766
44699W        W13073  21.116  30.040  13.962
44700W        W13074  38.390  11.849  12.551
44701W        W13075  33.017  33.470  14.020
44702W        W13076  41.031  27.636   4.754
44703W        W13077  35.587  40.514  12.510
44704W        W13078   7.851  34.034   3.774
44705W        W13079   8.869  32.008   0.820
44706W        W13080  14.662   1.856   5.097
44707W        W13081  29.651   6.865   3.659
44708W        W13082  31.549  22.628  13.441
44709W        W13083  40.404  31.464   1.696
44710W        W13084  32.603  21.722  11.554
44711W        W13085  37.877  22.518   2.812
44712W        W13086  10.319  17.602   1.383
44713W        W13087   0.782  15.790  12.047
44714W        W13088  38.491  20.752  13.460
44715W        W13089  36.481  18.728   4.269
44716W        W13090  27.618  25.036  12.062
44717W        W13091   5.868  32.407   1.269
44718W        W13092  18.141  18.567   0.460
44719W        W13093  41.826  28.501   3.199
44720W        W13094   9.196  35.381   4.606
44721W        W13095  10.354  32.536   1.220
44722W        W13096  42.870  23.986   1.706
44723W        W13097  38.394  20.134   3.792
44724W        W13098   6.855  15.084   2.387
44725W        W13099  37.944  37.857   4.706
44726W        W13100  42.010  20.227  11.372
44727W        W13101  27.469  29.930  13.978
44728W        W13102  29.018  42.383  11.418
44729W        W13103  38.501   7.192  10.555
44730W        W13104  25.624  12.851  12.428
44731W        W13105  25.473  35.904  11.599
44732W        W13106  21.120  17.630   2.204
44733W        W13107  16.770  42.287   1.911
44734W        W13108  39.336  38.984   2.272
44735W        W13109  23.996   1.264  13.964
44736W        W13110  21.704   0.283  12.364
44737W        W13111  19.255  21.229  14.277
44738W        W13112  34.398  17.091   3.273
44739W        W13113  11.674  38.868  13.394
44740W        W13114  40.835  34.964  14.817
44741W        W13115  34.904  37.577  10.155
44742W        W13116  22.181  25.178  13.329
44743W        W13117   4.418   0.426   4.304
44744W        W13118   5.374  44.900  12.528
44745W        W13119   1.367  17.231  13.929
44746W        W13120   3.306   0.440  12.385
44747W        W13121   6.813   2.360  13.433
44748W        W13122  17.082  21.213   0.421
44749W        W13123   3.444  41.365  12.018
44750W        W13124  31.988   7.408   4.608
44751W        W13125  18.211  33.053  12.439
44752W        W13126  31.495  17.251   1.240
44753W        W13127  11.631  24.980  10.904
44754W        W13128  18.610  21.081   2.751
44755W        W13129  36.364  40.878  11.419
44756W        W13130  14.772  23.491   3.323
44757W        W13131   2.760  19.106   4.317
44758W        W13132  10.322  40.839  14.356
44759W        W13133  10.679  35.504  11.523
44760W        W13134  21.247  42.906   2.865
44761W        W13135  27.944  33.049   0.846
44762W        W13136  28.157  31.900   1.715
44763W        W13137  41.418  15.256  13.965
44764W        W13138  39.904   9.741   0.806
44765W        W13139  38.851   6.700  12.054
44766W        W13140   0.947  37.073   3.711
44767W        W13141  13.202  14.300  10.062
44768W        W13142  38.828  42.490  10.498
44769W        W13143  36.004  26.089   4.262
44770W        W13144  22.215  19.216   0.352
44771W        W13145  10.152  35.458   4.226
44772W        W13146   7.897  28.482  12.047
44773W        W13147   6.677  11.158   3.199
44774W        W13148  20.073  41.038  13.934
44775W        W13149  18.170  41.036  10.594
44776W        W13150   1.382  43.952  14.850
44777W        W13151  44.973   7.368  10.904
44778W        W13152  22.742  33.980  11.070
44779W        W13153   7.398   3.715  10.947
44780W        W13154  25.491  16.305  10.057
44781W        W13155  13.703  34.373  12.465
44782W        W13156  14.184  26.463   4.291
44783W        W13157  21.576  40.477   2.853
44784W        W13158  37.405  28.679   2.790
44785W        W13159   2.249  24.565   1.898
44786W        W13160  28.514   5.403   0.405
44787W        W13161   7.850   1.787  13.540
44788W        W13162  37.509   7.892   2.398
44789W        W13163  34.995   4.286   4.321
44790W        W13164   2.247  28.016  12.935
44791W        W13165  19.185   8.279   1.315
44792W        W13166  44.932  35.440   2.845
44793W        W13167  32.937   8.350  14.366
44794W        W13168  43.275  19.250   2.684
44795W        W13169  36.901  17.123   1.803
44796W        W13170  37.965  29.096   0.787
44797W        W13171  19.574  19.741  14.392
44798W        W13172  29.017  29.112   3.328
44799W        W13173  21.756  16.753   3.384
44800W        W13174  27.647  34.437  11.374
44801W        W13175  11.165  34.119  11.044
44802W        W13176  35.491   5.737  13.465
44803W        W13177   6.824   9.254   3.751
44804W        W13178  40.803  21.187  10.954
44805W        W13179   9.382  21.235  12.944
44806W        W13180  35.572  12.309   1.432
44807W        W13181   9.372  31.556   4.629
44808W        W13182  32.632  17.278  14.945
44809W        W13183  12.336  37.467  10.019
44810W        W13184   2.768  32.934   3.351
44811W        W13185  18.072  30.138   2.194
44812W        W13186  15.141   0.249  11.537
44813W        W13187  21.076  30.092   4.785
44814W        W13188  31.522  31.600  13.924
44815W        W13189   6.299  36.939   1.363
44816W        W13190  23.658  23.993   0.939
44817W        W13191  40.531  14.278  13.980
44818W        W13192   1.962  14.704  14.486
44819W        W13193  31.461  35.588   3.772
44820W        W13194  38.382  35.558  11.114
44821W        W13195  14.097  25.050   2.787
44822W        W13196   8.231  14.189  12.524
44823W        W13197  40.323  20.563  13.041
44824W        W13198  36.056  34.041   2.833
44825W        W13199  42.439   1.842  13.029
44826W        W13200  27.048  16.193  14.854
44827W        W13201  34.034  40.988  14.494
44828W        W13202  32.601  19.640   4.770
44829W        W13203   8.328  19.211   4.658
44830W        W13204  33.467  24.649  11.484
44831W        W13205   3.264  35.064   4.220
44832W        W13206  20.049  44.911   0.430
44833W        W13207  15.166  20.062   0.455
44834W        W13208  28.482  30.024  12.083
44835W        W13209   0.744  39.548  10.460
44836W        W13210  32.101  10.215   1.829
44837W        W13211  25.637  15.733   9.973
44838W        W13212  19.115  17.777  11.884
44839W        W13213  41.830  33.488   3.315
44840W        W13214  14.632   5.872  13.839
44841W        W13215  32.631  40.823   2.412
44842W        W13216   2.873  43.941   4.123
44843W        W13217   3.857  23.562   4.119
44844W        W13218   2.300  23.068  14.395
44845W        W13219  18.560  10.819  11.437
44846W        W13220   5.711  36.010   4.681
44847W        W13221   5.337  37.472   0.899
44848W        W13222  34.896  43.484   1.254
44849W        W13223   4.872  42.280  10.467
44850W        W13224   5.909  31.029  14.763
44851W        W13225   7.824  29.561  11.456
44852W        W13226   9.391  30.523   3.302
44853W        W13227  38.479  33.005   3.262
44854W        W13228  36.368   6.352  11.410
44855W        W13229  33.988  29.025  13.940
44856W        W13230  19.625   9.217   2.728
44857W        W13231  20.060   7.904  13.343
44858W        W13232   4.229   9.834  12.494
44859W        W13233  38.888  19.555   3.157
44860W        W13234  41.465   8.827  12.944
44861W        W13235  18.208  15.813  14.783
44862W        W13236  23.533  12.295   2.323
44863W        W13237  21.029  20.761   2.339
44864W        W13238  11.309  25.655  14.472
44865W        W13239  25.517   2.307  10.573
44866W        W13240  18.255   3.235  12.387
44867W        W13241   5.890  24.179   4.342
44868W        W13242  27.146  14.772   1.376
44869W        W13243  23.711   1.871  11.050
44870W        W13244   1.308  39.826  13.386
44871W        W13245  37.511  30.630  13.963
44872W        W13246  16.616  30.076   3.791
44873W        W13247  38.956  20.036  11.434
44874W        W13248  22.512  33.515   1.754
44875W        W13249   7.742  24.580   0.749
44876W        W13250  16.798  16.769   0.940
44877W        W13251   1.930  40.443   2.351
44878W        W13252  37.563  32.436   2.801
44879W        W13253  20.268  23.517   1.318
44880W        W13254  41.890  26.625  14.405
44881W        W13255   9.843  14.129  11.041
44882W        W13256  19.540  28.126   0.866
44883W        W13257  14.796  17.254   4.336
44884W        W13258   3.802  26.537   2.898
44885W        W13259  40.800  24.207  14.348
44886W        W13260   2.846  28.678   0.298
44887W        W13261  28.065  14.601   2.285
44888W        W13262  17.724  28.595   3.834
44889W        W13263  28.482  29.581   2.359
44890W        W13264   6.269   3.799  12.845
44891W        W13265  37.053  32.451   3.244
44892W        W13266  33.954   0.793  12.900
44893W        W13267  40.813  28.658  11.945
44894W        W13268  24.701  21.692   2.686
44895W        W13269  24.703  43.894   3.367
44896W        W13270  14.611  13.819  13.999
44897W        W13271  31.600   6.418   1.795
44898W        W13272  26.659  13.609  11.464
44899W        W13273  38.550  26.583  12.884
44900W        W13274   0.434   1.892  11.555
44901W        W13275  19.134  35.424  11.081
44902W        W13276  26.025  31.992   0.830
44903W        W13277   9.661  18.253  10.633
44904W        W13278  31.418  27.958  13.833
44905W        W13279  38.074   5.216  14.960
44906W        W13280  42.463   7.745  10.936
44907W        W13281  25.025  32.095   0.888
44908W        W13282  21.611  23.692  10.554
44909W        W13283  30.632  12.242   1.762
44910W        W13284   5.369   8.321  10.949
44911W        W13285  40.392   4.924  14.454
44912W        W13286  35.534  27.603   1.254
44913W        W13287  29.469  30.124  10.442
44914W        W13288  13.304  15.686  10.020
44915W        W13289   3.860  22.068  14.020
44916W        W13290  15.277  30.058   3.687
44917W        W13291   6.350  37.511   2.897
44918W        W13292  42.286  35.561  13.984
44919W        W13293  13.771  13.801   3.321
44920W        W13294  39.960   2.417   0.895
44921W        W13295  39.951  32.407   4.733
44922W        W13296  24.195  36.502  14.414
44923W        W13297   9.208  39.556  14.464
44924W        W13298   8.672  14.284  13.308
44925W        W13299   5.219  24.597   4.730
44926W        W13300  20.565   3.955  10.517
44927W        W13301  20.154  26.992  14.766
44928W        W13302  36.377  42.395  13.340
44929W        W13303  37.867  34.002  11.864
44930W        W13304  22.106  33.020   4.175
44931W        W13305  25.976  26.566   3.340
44932W        W13306   6.829   7.850   0.963
44933W        W13307  21.578  16.123   3.633
44934W        W13308  11.255   3.796   0.939
44935W        W13309  29.946  12.765   1.326
44936W        W13310  14.679   9.373   2.809
44937W        W13311  44.431  12.311   4.746
44938W        W13312  33.943  27.195  12.836
44939W        W13313  26.614  38.927   1.879
44940W        W13314  14.141   3.456   3.165
44941W        W13315   4.937   9.668   9.986
44942W        W13316  11.220   0.415  12.498
44943W        W13317   6.877  42.509   4.228
44944W        W13318  26.048  39.993   1.297
44945W        W13319  26.062  15.782   3.310
44946W        W13320  38.502  24.695   3.638
44947W        W13321  20.587  19.755  10.588
44948W        W13322  38.886  31.429  13.941
44949W        W13323  25.110  34.435   4.202
44950W        W13324   9.825  15.149   4.306
44951W        W13325  43.980  19.645   1.372
44952W        W13326  32.041   6.194   2.870
44953W        W13327  43.900  12.225   0.334
44954W        W13328  10.692   7.818  13.413
44955W        W13329  26.494  34.988  12.941
44956W        W13330  16.237  17.648   1.794
44957W        W13331  23.126  23.149  13.980
44958W        W13332  39.871  32.913   3.383
44959W        W13333  24.178  10.867  10.937
44960W        W13334  12.703  30.589   2.746
44961W        W13335  13.344  28.679   2.323
44962W        W13336  19.152  44.915   4.738
44963W        W13337  38.871  33.048  12.881
44964W        W13338  36.870  28.439  12.408
44965W        W13339   5.278   8.825  14.282
44966W        W13340  23.173  11.667   3.356
44967W        W13341  38.502   5.221  12.984
44968W        W13342   0.829  16.193   3.654
44969W        W13343   2.395  27.946   1.777
44970W        W13344   1.822  42.373  10.447
44971W        W13345  10.206  25.618   4.717
44972W        W13346  41.944  21.120   4.833
44973W        W13347  27.985  31.140   1.230
44974W        W13348  22.088  33.562   1.793
44975W        W13349  18.668   3.264  11.966
44976W        W13350  23.166  34.401   2.238
44977W        W13351  20.114  20.658   4.155
44978W        W13352   6.891  30.975   1.930
44979W        W13353  34.577   7.371  14.769
44980W        W13354  41.345   9.385  14.768
44981W        W13355  26.170  12.120  14.926
44982W        W13356  19.722  20.562  14.004
44983W        W13357  42.488   6.767   1.820
44984W        W13358  31.149  29.068  13.848
44985W        W13359  31.639   6.269   0.303
44986W        W13360  24.640  31.117  13.536
44987W        W13361   7.884  30.151  14.002
44988W        W13362  21.233  22.139  13.340
44989W        W13363  27.562   4.777  11.500
44990W        W13364   1.853  16.659   0.791
44991W        W13365  38.009  29.093  13.339
44992W        W13366  36.521   9.737   3.321
44993W        W13367  18.746  36.494   1.443
44994W        W13368  31.946  11.236   0.902
44995W        W13369  38.548  36.558  12.884
44996W        W13370   3.785  20.614   2.204
44997W        W13371  28.979   8.755   0.757
44998W        W13372  40.988  21.742   1.223
44999W        W13373  11.848  21.618   1.718
45000W        W13374  42.284  33.467   1.696
45001W        W13375  40.035  22.228   4.721
45002W        W13376  25.969  20.688   3.290
45003W        W13377  24.222  39.808   2.782
45004W        W13378  20.711  28.570  11.929
45005W        W13379   5.330  19.187  10.552
45006W        W13380  21.734   6.310  11.014
45007W        W13381  22.047  38.524   2.679
45008W        W13382   0.376   4.909   3.829
45009W        W13383  40.375  41.889   2.711
45010W        W13384  34.899  43.902   4.731
45011W        W13385  39.871  43.919   3.181
45012W        W13386  43.982   8.794   4.200
45013W        W13387  27.193   7.235  13.995
45014W        W13388  16.579  29.013  12.352
45015W        W13389  14.290  15.204   3.317
45016W        W13390   6.319  30.579  14.926
45017W        W13391  34.963  16.751   3.332
45018W        W13392  14.619  11.236   4.608
45019W        W13393  28.018   7.885  11.107
45020W        W13394  43.901  28.029   2.212
45021W        W13395   6.747  37.925  13.989
45022W        W13396   9.772  42.009  12.876
45023W        W13397  13.195  41.002   4.265
45024W        W13398  35.539  20.727  13.444
45025W        W13399  29.482  24.508  14.928
45026W        W13400  42.862   6.298  12.472
45027W        W13401  22.244  31.471   0.445
45028W        W13402  35.519  13.702  12.980
45029W        W13403   2.866  22.643  11.508
45030W        W13404   2.362  37.964  11.387
45031W        W13405  37.540  37.381  14.353
45032W        W13406  32.976  14.613  11.060
45033W        W13407  39.845  20.226   1.373
45034W        W13408  28.517  40.337   2.405
45035W        W13409  10.184  29.442   2.346
45036W        W13410  16.199  12.303  14.343
45037W        W13411  43.322  23.018  13.010
45038W        W13412  31.485   3.909   4.243
45039W        W13413  12.296  14.192   3.192
45040W        W13414  33.949  24.001  13.049
45041W        W13415  26.632   2.305   2.848
45042W        W13416   5.929  35.469  11.442
45043W        W13417  19.051  24.644   3.241
45044W        W13418  24.512  40.834  11.944
45045W        W13419   4.302  26.538   3.164
45046W        W13420  26.670  31.534  11.036
45047W        W13421   7.405  30.657  12.546
45048W        W13422  26.523  37.360   9.985
45049W        W13423   2.395   0.872  11.875
45050W        W13424  20.748  27.579   3.862
45051W        W13425  29.571  15.114   2.777
45052W        W13426  41.436  28.129   3.847
45053W        W13427  14.173   8.803   4.188
45054W        W13428  17.574  38.533  13.447
45055W        W13429  17.077  13.310   3.757
45056W        W13430  39.457  40.405  14.023
45057W        W13431   6.814   5.250  12.026
45058W        W13432  43.482  21.667  12.085
45059W        W13433  18.194  44.500   4.663
45060W        W13434   3.277  43.883  12.381
45061W        W13435  19.131   9.224   3.741
45062W        W13436  37.087   0.951  12.829
45063W        W13437  15.288  37.948   1.250
45064W        W13438  42.401  33.072  14.774
45065W        W13439  23.635  35.361  13.479
45066W        W13440  19.260  42.345   2.305
45067W        W13441  32.556  14.668  11.502
45068W        W13442  25.146  29.043   3.385
45069W        W13443  16.217  34.487  11.383
45070W        W13444  14.786  42.920   0.847
45071W        W13445   6.740  24.481   1.322
45072W        W13446  41.477  35.518   0.417
45073W        W13447   0.334   6.411   3.201
45074W        W13448  21.119   1.784  11.962
45075W        W13449  34.871  15.150   4.793
45076W        W13450  11.654  16.264  14.902
45077W        W13451  29.615   1.798  11.063
45078W        W13452   2.802  30.621   4.752
45079W        W13453  26.548  14.196   0.309
45080W        W13454  34.591  31.621  14.965
45081W        W13455  16.250  11.346  14.411
45082W        W13456  11.697  23.611  11.457
45083W        W13457  19.216  22.228  13.534
45084W        W13458  25.100  25.009  13.922
45085W        W13459  36.423  38.459  12.031
45086W        W13460   7.770  39.039   3.639
45087W        W13461  27.973  15.609   3.648
45088W        W13462  41.975  36.024  14.435
45089W        W13463  17.655  10.824  10.986
45090W        W13464   1.453  13.630   0.349
45091W        W13465  33.098  23.065   4.295
45092W        W13466   7.320  19.629   0.389
45093W        W13467  13.181  26.701  12.981
45094W        W13468  26.082  16.654  14.340
45095W        W13469  15.769  10.300  10.941
45096W        W13470  43.438  22.092   2.226
45097W        W13471  11.792  29.546  12.947
45098W        W13472  37.897  37.922   3.146
45099W        W13473   6.227  11.853   4.138
45100W        W13474  33.877  14.262   4.171
45101W        W13475  32.132  26.986  13.506
45102W        W13476   7.396  31.607   4.201
45103W        W13477  35.106  23.139   0.299
45104W        W13478  14.675  35.372   2.259
45105W        W13479  24.611  11.667  14.846
45106W        W13480  21.716   7.853   4.314
45107W        W13481   2.826  18.211  14.287
45108W        W13482  34.483  25.630  12.969
45109W        W13483  11.704  27.081  10.099
45110W        W13484  26.086  27.178   4.227
45111W        W13485   1.935   0.422   2.206
45112W        W13486  15.676  29.559   2.404
45113W        W13487  15.201  35.359   0.311
45114W        W13488  22.687  36.355   1.907
45115W        W13489   0.445  14.772   1.292
45116W        W13490  35.906  18.269   2.688
45117W        W13491  29.511   8.258  12.385
45118W        W13492  37.403   5.864   1.342
45119W        W13493  27.480  12.194  13.010
45120W        W13494  14.818  27.600  13.412
45121W        W13495  18.784   9.221  14.007
45122W        W13496  28.164  34.866   1.929
45123W        W13497  34.032  32.554   1.227
45124W        W13498   5.229  21.128   1.357
45125W        W13499  10.362   7.216  13.428
45126W        W13500  22.185  28.116   4.134
45127W        W13501  24.013  28.477   2.754
45128W        W13502  25.489  24.995  11.025
45129W        W13503  21.632  35.105   3.182
45130W        W13504   3.382  23.224   3.185
45131W        W13505  25.038  17.185  10.561
45132W        W13506  36.024  28.638  12.064
45133W        W13507  16.598  34.960   3.369
45134W        W13508  40.906  31.424  14.782
45135W        W13509  33.894  32.479   0.891
45136W        W13510  11.339  39.864  11.448
45137W        W13511  44.352   3.421   1.740
45138W        W13512   1.808  31.491   2.887
45139W        W13513   5.854   4.334  11.514
45140W        W13514  14.777  36.557   3.830
45141W        W13515  32.510  39.333  14.878
45142W        W13516  40.460  13.122  14.400
45143W        W13517  34.059   4.707   3.319
45144W        W13518  34.608  28.672   0.411
45145W        W13519  38.499  30.597   4.312
45146W        W13520  38.076  23.699   2.899
45147W        W13521  18.608   5.322  13.325
45148W        W13522  25.703  42.903  11.412
45149W        W13523  32.086  39.331   1.402
45150W        W13524  21.568   9.247  13.396
45151W        W13525  30.920  13.601  10.444
45152W        W13526  39.489  38.500  14.013
45153W        W13527  32.011   8.363   5.108
45154W        W13528  21.124  41.298   1.892
45155W        W13529  36.453  26.552   1.288
45156W        W13530  13.336   9.373  12.499
45157W        W13531  29.925   6.871  12.409
45158W        W13532  37.084   7.292   3.862
45159W        W13533  18.601  30.584   0.360
45160W        W13534  44.408  40.884  13.482
45161W        W13535  25.125  32.887  14.810
45162W        W13536  32.082  39.398   4.657
45163W        W13537  26.029  24.194   3.641
45164W        W13538  41.043  30.062   1.784
45165W        W13539   9.850  23.723   4.337
45166W        W13540   7.210  32.898  14.491
45167W        W13541   6.255  11.213   2.697
45168W        W13542   0.751  44.484  11.456
45169W        W13543   3.295  10.262  14.803
45170W        W13544  16.264  27.453   1.746
45171W        W13545  11.203  12.649   0.958
45172W        W13546  37.411   5.769   0.446
45173W        W13547   5.280   5.872   2.713
45174W        W13548  13.235   6.787  14.442
45175W        W13549  12.329  37.430  10.484
45176W        W13550  12.754   8.307  13.809
45177W        W13551  37.835  16.253  12.517
45178W        W13552  26.581  31.587   2.784
45179W        W13553   9.350  26.163  11.437
45180W        W13554  35.008   3.221   4.159
45181W        W13555   4.920  38.393  13.418
45182W        W13556  41.882   6.345   1.735
45183W        W13557  31.632  29.081  12.463
45184W        W13558  17.560  21.617   4.742
45185W        W13559  31.439   0.874  12.967
45186W        W13560  10.670  28.443   4.145
45187W        W13561  10.173   0.367  12.074
45188W        W13562  42.994  14.706   4.235
45189W        W13563  15.689  14.174  11.555
45190W        W13564   8.770  32.127  12.914
45191W        W13565  29.623  17.188   2.807
45192W        W13566  29.642  31.008  13.327
45193W        W13567  16.756  21.027   2.366
45194W        W13568  14.290   4.918   0.736
45195W        W13569  44.294  42.477   2.730
45196W        W13570  20.254  16.134   1.823
45197W        W13571  19.073  36.929  13.909
45198W        W13572  19.063  38.408  13.799
45199W        W13573  35.096  13.829  12.955
45200W        W13574  26.613  20.754   3.740
45201W        W13575   3.398  23.542   0.841
45202W        W13576   0.274  16.281   0.761
45203W        W13577  26.139   5.333   4.174
45204W        W13578  27.582  11.740   2.275
45205W        W13579   5.717  33.083   2.890
45206W        W13580  17.724  27.597   4.242
45207W        W13581  30.543  39.490   3.666
45208W        W13582  30.581  24.075   0.875
45209W        W13583  34.575  34.014   3.308
45210W        W13584  26.686  11.783  11.611
45211W        W13585   0.333  39.388   4.170
45212W        W13586  13.168  25.990   2.280
45213W        W13587  18.205  40.028   1.223
45214W        W13588  27.660   9.652  14.794
45215W        W13589  13.670  11.716   1.445
45216W        W13590  37.568   9.731   0.330
45217W        W13591  40.375  23.211  11.895
45218W        W13592  31.505  34.119   0.402
45219W        W13593   7.720   2.843  10.916
45220W        W13594  10.733  26.068  13.893
45221W        W13595  10.633  17.775  12.005
45222W        W13596  27.645  39.829  10.465
45223W        W13597  33.075  24.003  12.942
45224W        W13598  24.621  33.539   3.344
45225W        W13599  15.607   0.460  14.861
45226W        W13600   6.832  31.635   1.222
45227W        W13601  40.394  31.044   4.235
45228W        W13602  43.989   3.359  13.037
45229W        W13603  26.007   2.244   1.774
45230W        W13604  21.526   9.695   1.748
45231W        W13605  18.625  28.663   3.258
45232W        W13606  34.368  32.573  10.495
45233W        W13607   0.817  43.983  11.951
45234W        W13608   1.973  13.268  13.836
45235W        W13609  14.780  14.198  10.601
45236W        W13610   5.381  17.241   3.360
45237W        W13611  30.542  15.791  14.291
45238W        W13612  28.048  24.165   4.610
45239W        W13613  26.561  10.806  11.075
45240W        W13614   4.815  22.721  12.420
45241W        W13615  39.855  35.391  14.917
45242W        W13616  41.893  36.405  13.313
45243W        W13617  41.502   5.383  11.570
45244W        W13618  22.222  44.368   2.265
45245W        W13619  36.930   8.694   1.222
45246W        W13620  30.533  16.235   0.248
45247W        W13621  21.659   7.241  11.578
45248W        W13622   9.355  31.133  11.520
45249W        W13623  32.042  18.756   2.819
45250W        W13624  42.417  22.235   4.208
45251W        W13625   1.823  42.349   0.750
45252W        W13626   9.384   8.693  14.008
45253W        W13627  29.453  17.306  13.348
45254W        W13628   1.861  41.388   1.775
45255W        W13629  41.993  19.074  14.511
45256W        W13630  18.079  22.604   2.804
45257W        W13631   0.870  43.882   1.899
45258W        W13632  15.668  41.320   4.328
45259W        W13633  21.533  18.149  13.917
45260W        W13634  18.202  44.431   0.784
45261W        W13635  42.878  22.144  13.823
45262W        W13636   0.797   1.828  13.384
45263W        W13637   1.865  41.862   1.304
45264W        W13638  35.908  12.170  10.480
45265W        W13639   9.273   5.867   2.285
45266W        W13640   9.815   3.924   2.207
45267W        W13641  40.827  23.596   1.246
45268W        W13642  37.453  14.316   3.715
45269W        W13643  13.721  41.301  12.011
45270W        W13644  10.315   3.365   3.329
45271W        W13645  24.676  44.459   3.785
45272W        W13646   0.431  19.660  12.973
45273W        W13647  13.294  39.485  14.499
45274W        W13648  25.091  44.911   1.271
45275W        W13649   5.374  34.964   2.280
45276W        W13650  35.925  31.101  13.504
45277W        W13651  15.766   7.908   2.355
45278W        W13652  24.680  36.096  14.834
45279W        W13653  11.161   0.279  11.066
45280W        W13654  22.180  44.955  10.593
45281W        W13655  22.066  18.705   0.371
45282W        W13656  43.774  17.173   3.204
45283W        W13657   6.776   9.273   1.757
45284W        W13658  28.963   3.774  12.977
45285W        W13659   4.850  15.604   0.826
45286W        W13660  31.001   7.761  13.837
45287W        W13661  10.763  21.126   4.350
45288W        W13662  24.615  21.191  13.822
45289W        W13663  24.150  29.433  12.367
45290W        W13664  16.707  44.429   1.369
45291W        W13665  16.690  30.440   2.308
45292W        W13666  17.791  28.182  14.439
45293W        W13667  14.701   3.841  12.893
45294W        W13668  44.379   1.442  10.551
45295W        W13669  34.920  22.130  12.492
45296W        W13670  34.024  38.854  14.876
45297W        W13671  26.123  25.214   2.802
45298W        W13672  27.530  32.496  12.072
45299W        W13673  12.233  15.090  10.555
45300W        W13674  40.046  34.506   0.857
45301W        W13675  14.128   7.673   0.748
45302W        W13676  42.967  28.158   3.793
45303W        W13677   2.738  43.986   1.728
45304W        W13678  43.986  32.919   2.724
45305W        W13679   7.249  16.587   3.683
45306W        W13680  31.147  14.228  10.101
45307W        W13681  35.957  43.359   2.745
45308W        W13682   1.346  31.454   3.702
45309W        W13683  37.899  44.000  13.866
45310W        W13684   0.751  30.568   0.944
45311W        W13685  33.900  38.931   2.317
45312W        W13686  24.173   6.728  12.387
45313W        W13687  13.351  37.508  14.430
45314W        W13688  16.689  13.766   2.761
45315W        W13689  36.497  14.294  11.461
45316W        W13690   0.986  30.548   0.450
45317W        W13691  36.592  32.897   2.304
45318W        W13692   8.163   0.433   0.789
45319W        W13693   8.666  30.161   3.728
45320W        W13694  26.461   3.910   1.318
45321W        W13695  13.692   6.914   2.213
45322W        W13696  17.702  21.078  12.376
45323W        W13697  24.132   7.861   2.242
45324W        W13698  44.865   8.775  10.964
45325W        W13699   3.368  36.030  14.469
45326W        W13700  42.488   7.799   4.683
45327W        W13701  38.919  13.293   4.213
45328W        W13702  33.131  24.173  10.989
45329W        W13703  12.272  31.109  12.956
45330W        W13704  19.636  34.561   3.371
45331W        W13705  15.240   9.761   0.375
45332W        W13706  29.134  35.921  11.410
45333W        W13707   0.897  21.051  10.414
45334W        W13708  28.632   9.305  14.495
45335W        W13709   6.284  23.030  14.026
45336W        W13710  44.853  44.494  14.324
45337W        W13711  11.632  34.061  10.914
45338W        W13712  43.405  13.222  11.000
45339W        W13713  31.480  28.592  14.901
45340W        W13714  17.117  21.204   0.784
45341W        W13715   1.409   6.708  13.356
45342W        W13716  32.433  34.015  14.857
45343W        W13717  40.818   1.455  11.602
45344W        W13718  15.252  32.916   0.387
45345W        W13719  17.697  23.120   3.322
45346W        W13720   1.847  30.620  14.448
45347W        W13721   4.814  10.174   1.804
45348W        W13722  17.596   9.659   4.209
45349W        W13723   7.871  40.924  13.369
45350W        W13724  39.541   7.357  12.537
45351W        W13725  21.555  35.388  12.580
45352W        W13726  22.007  44.009   1.222
45353W        W13727  30.927  40.344   0.967
45354W        W13728  22.678  20.254  12.955
45355W        W13729   7.221  41.306  14.376
45356W        W13730  39.895  30.932  12.827
45357W        W13731  40.821   6.359  12.456
45358W        W13732  18.591  12.194   0.802
45359W        W13733   0.258  21.176   4.716
45360W        W13734  13.336  31.150  11.863
45361W        W13735  28.989   1.794  10.592
45362W        W13736  24.510  21.522  10.911
45363W        W13737  22.182  40.504   1.759
45364W        W13738  15.719   1.369  11.866
45365W        W13739  28.484  15.729   2.347
45366W        W13740  37.856   6.757   4.672
45367W        W13741  39.959   7.666   3.365
45368W        W13742  16.093  19.234  12.874
45369W        W13743  34.007  22.229   2.761
45370W        W13744  24.649   7.180  11.505
45371W        W13745  44.933  36.438   0.773
45372W        W13746  17.713  20.106   0.460
45373W        W13747  28.079  28.983   1.329
45374W        W13748  40.377  34.075   3.668
45375W        W13749  38.529  31.013  11.049
45376W        W13750  42.896   3.810   3.750
45377W        W13751  34.998   3.757   2.721
45378W        W13752  34.079   7.230  13.889
45379W        W13753   5.249  33.422  12.383
45380W        W13754  36.991  40.504   1.422
45381W        W13755  36.511   0.431   4.754
45382W        W13756  34.555  19.717  12.407
45383W        W13757   2.933  38.054  14.947
45384W        W13758   6.379  43.848  12.987
45385W        W13759  15.808  23.563   0.306
45386W        W13760   0.477   6.742  11.557
45387W        W13761   2.335  23.684  14.870
45388W        W13762  11.316   2.826  14.820
45389W        W13763  34.980  10.790  10.625
45390W        W13764  24.479  35.105   1.435
45391W        W13765  14.659  43.894   0.292
45392W        W13766   8.728  38.877   3.811
45393W        W13767  23.603  15.773   4.767
45394W        W13768  38.035   1.475  12.507
45395W        W13769  27.450  23.231   3.383
45396W        W13770  17.288   6.769   3.303
45397W        W13771   1.833  10.305   2.277
45398W        W13772   1.340  12.343   2.898
45399W        W13773  13.683   3.427  12.059
45400W        W13774  16.592   5.321  11.088
45401W        W13775  11.213  10.644   4.629
45402W        W13776  32.604   6.218   3.669
45403W        W13777  32.536   6.303   0.364
45404W        W13778  19.649  39.352  12.977
45405W        W13779  17.732  44.290  13.909
45406W        W13780  20.116  33.562  14.370
45407W        W13781   5.711  35.938  11.535
45408W        W13782  26.099  29.949  12.926
45409W        W13783   7.842  34.552  14.347
45410W        W13784  38.837  36.363   1.840
45411W        W13785  34.388  15.762   1.796
45412W        W13786   9.840   2.908   0.943
45413W        W13787  17.170   9.875   0.896
45414W        W13788  37.971  13.308   0.953
45415W        W13789   8.689  39.881   4.224
45416W        W13790  23.225  43.504  14.970
45417W        W13791   4.442  20.109  13.029
45418W        W13792  10.696  31.415  13.835
45419W        W13793  32.932   5.210   4.672
45420W        W13794   8.386  15.107   3.692
45421W        W13795   8.714  37.369   2.343
45422W        W13796  35.964  10.734   2.360
45423W        W13797   2.759   6.778  10.571
45424W        W13798  39.860  39.834  13.348
45425W        W13799  38.341  34.424  14.022
45426W        W13800  32.441  22.704  14.912
45427W        W13801  34.078  44.812  13.520
45428W        W13802  35.052  42.339  14.879
45429W        W13803  16.751  24.528   4.263
45430W        W13804  41.037   1.932   0.423
45431W        W13805  19.734  15.210   1.252
45432W        W13806  42.401  14.705   1.932
45433W        W13807  39.051  24.622  13.981
45434W        W13808  32.944   1.737  13.357
45435W        W13809  25.219  22.640   4.657
45436W        W13810  32.579  21.179   4.255
45437W        W13811  16.235  19.741   2.178
45438W        W13812   4.903  18.558   3.799
45439W        W13813  13.701  10.851   4.182
45440W        W13814  33.611  14.756   4.821
45441W        W13815   6.754  13.621  10.534
45442W        W13816  14.643  33.512  11.918
45443W        W13817  26.149  10.821   1.252
45444W        W13818  10.268   2.391   3.221
45445W        W13819   8.340   8.787  14.385
45446W        W13820  16.165  40.042   4.303
45447W        W13821  14.252  18.709  13.040
45448W        W13822  30.655  41.955  11.923
45449W        W13823   1.830  13.219  12.846
45450W        W13824   7.669   7.762  13.506
45451W        W13825   7.224   3.293  14.499
45452W        W13826  20.161  29.050   3.818
45453W        W13827   2.271  38.449   0.464
45454W        W13828  15.701  42.384  12.870
45455W        W13829   3.821  17.137   3.767
45456W        W13830  11.741  21.571   4.118
45457W        W13831   9.216   4.422   3.189
45458W        W13832  11.149   6.263   1.425
45459W        W13833  30.938   6.272  13.539
45460W        W13834  44.427  24.994   4.158
45461W        W13835  29.663   5.823   2.347
45462W        W13836  19.546  34.450   4.808
45463W        W13837  10.178   2.745  11.076
45464W        W13838  33.598  16.686  10.407
45465W        W13839  44.477  15.755   3.688
45466W        W13840  34.030  32.490  13.950
45467W        W13841   9.685   6.790  13.975
45468W        W13842  10.746   1.935   0.849
45469W        W13843  12.167   7.751   4.732
45470W        W13844  36.981   1.407  13.042
45471W        W13845   0.750  16.157  11.907
45472W        W13846  10.241  27.185  12.567
45473W        W13847  21.050  23.575  12.875
45474W        W13848  13.721  17.573  13.448
45475W        W13849   2.897  34.005   1.260
45476W        W13850  16.219  20.739  10.415
45477W        W13851  12.631  11.128   0.960
45478W        W13852  41.389  11.679  14.308
45479W        W13853  13.284   0.774   5.279
45480W        W13854  26.087  38.524   4.210
45481W        W13855   9.252  30.431   3.664
45482W        W13856  16.611  33.400  11.955
45483W        W13857  44.359  37.552   2.205
45484W        W13858   7.332  23.677   3.322
45485W        W13859   7.695  16.170  14.301
45486W        W13860  25.537  43.917  11.908
45487W        W13861  10.637   7.196   2.778
45488W        W13862  24.567  31.926   3.847
45489W        W13863  10.776  28.459  10.941
45490W        W13864  39.963  28.519   1.287
45491W        W13865  32.541  17.176  13.025
45492W        W13866  33.454  30.566   9.977
45493W        W13867   7.816   9.268  12.859
45494W        W13868  25.147   5.276   3.675
45495W        W13869   9.863  26.690  13.324
45496W        W13870  23.700  30.954   2.662
45497W        W13871   8.325   1.868   4.601
45498W        W13872   0.299  23.056   0.728
45499W        W13873  31.511  25.135   2.808
45500W        W13874  19.109  36.466  13.919
45501W        W13875  11.740  14.802   4.228
45502W        W13876  28.458   1.775  13.364
45503W        W13877  32.028   3.241  10.549
45504W        W13878  40.830  10.263  13.422
45505W        W13879  20.161  25.122   3.192
45506W        W13880  11.757  35.512  11.975
45507W        W13881  21.689  29.944  11.402
45508W        W13882   3.895  13.807  10.610
45509W        W13883  42.418  30.995   4.639
45510W        W13884  25.594   8.186   2.780
45511W        W13885  22.213  25.199   0.331
45512W        W13886  24.541  29.584  12.348
45513W        W13887  17.281   7.390  12.905
45514W        W13888  37.574  36.945   3.683
45515W        W13889   0.427  36.845   2.818
45516W        W13890  22.154  27.135  13.492
45517W        W13891  11.301  21.089  10.451
45518W        W13892  25.683  30.413   0.310
45519W        W13893  24.197  18.650   1.716
45520W        W13894   8.700  30.976  11.877
45521W        W13895  27.065  27.559  11.856
45522W        W13896  44.420  41.865   0.758
45523W        W13897  37.837  34.404   0.855
45524W        W13898   3.442  28.448   0.481
45525W        W13899  30.053   6.218   3.260
45526W        W13900  19.207   1.809  11.595
45527W        W13901   1.262  23.613  12.080
45528W        W13902  21.675   1.286  12.475
45529W        W13903  25.029   6.285  14.018
45530W        W13904  36.551  29.666   0.908
45531W        W13905  41.838  37.509  11.390
45532W        W13906  39.859  11.259  13.360
45533W        W13907   3.314  14.704  14.462
45534W        W13908   3.875  39.858  11.566
45535W        W13909  27.116  41.393   4.255
45536W        W13910  21.189  19.230  12.415
45537W        W13911  27.564  21.021  11.596
45538W        W13912  32.455   9.394  12.935
45539W        W13913  26.019  41.351   2.714
45540W        W13914  35.071  22.698  13.374
45541W        W13915   5.846  44.296  14.910
45542W        W13916  10.286   7.705   3.362
45543W        W13917  18.579   9.234   2.325
45544W        W13918  26.101   9.358  10.621
45545W        W13919  34.020  17.653   1.244
45546W        W13920   9.164  29.925   5.237
45547W        W13921   0.344  22.044  12.882
45548W        W13922   2.959  30.054  14.999
45549W        W13923  15.244  43.495  14.909
45550W        W13924  44.332  22.564  13.511
45551W        W13925  39.866   4.892   4.166
45552W        W13926  34.956   5.857  12.481
45553W        W13927  25.043  28.576   3.812
45554W        W13928  15.791  20.143   0.287
45555W        W13929  42.348  34.002  11.941
45556W        W13930  34.478  32.925   3.216
45557W        W13931  28.511  33.891  14.021
45558W        W13932  44.369   3.723  12.904
45559W        W13933   7.764  44.469  11.436
45560W        W13934   1.321  23.666   2.691
45561W        W13935  14.197  17.649   3.348
45562W        W13936  17.303  26.642  10.550
45563W        W13937  30.062   2.245   0.397
45564W        W13938  37.498  14.676  13.952
45565W        W13939  20.658  24.579  12.555
45566W        W13940  38.010  42.397   1.244
45567W        W13941  39.532  13.820  13.445
45568W        W13942   2.260  20.757   4.260
45569W        W13943  22.666  18.600   9.978
45570W        W13944  32.518  17.168   4.283
45571W        W13945  17.732   4.875  13.388
45572W        W13946  41.431   0.889   3.350
45573W        W13947  13.614  16.587  13.824
45574W        W13948  26.981  33.954  12.024
45575W        W13949  10.653  23.032  10.446
45576W        W13950   5.343  27.033  11.022
45577W        W13951  24.671  19.066  11.516
45578W        W13952   5.276  44.387   2.406
45579W        W13953   6.709  34.015  12.461
45580W        W13954  42.513  27.083   1.418
45581W        W13955   6.793  17.622   1.416
45582W        W13956  39.460   9.173   4.687
45583W        W13957   7.229   4.788  12.931
45584W        W13958  34.877  37.446  11.373
45585W        W13959  30.076  28.131   0.274
45586W        W13960  41.395  35.958   3.831
45587W        W13961  18.205  25.100  11.933
45588W        W13962  44.323   6.272  11.058
45589W        W13963  19.115  34.903   2.287
45590W        W13964  27.060  25.698  11.998
45591W        W13965  13.840   6.721  10.584
45592W        W13966  19.694   5.738  12.536
45593W        W13967  26.055  19.580  10.563
45594W        W13968  17.236  26.019  12.357
45595W        W13969  17.145  17.091  10.899
45596W        W13970   0.276   7.408   4.127
45597W        W13971  26.084  24.639  10.974
45598W        W13972  29.598  31.021   3.863
45599W        W13973   2.778  21.258  11.996
45600W        W13974  20.066  35.501  14.962
45601W        W13975  22.069  36.945  13.011
45602W        W13976  38.392  31.549  13.372
45603W        W13977   9.856  29.934   1.891
45604W        W13978   3.766  24.058  13.053
45605W        W13979   6.416  42.935   0.922
45606W        W13980  37.358  37.860   3.851
45607W        W13981  26.957  35.108   1.777
45608W        W13982  30.915  18.616   4.721
45609W        W13983  41.383  36.456   1.254
45610W        W13984  44.440  24.166   1.881
45611W        W13985  21.753  13.608  10.425
45612W        W13986  15.737  11.209   0.801
45613W        W13987  12.684  43.936   2.208
45614W        W13988   2.344  38.418  14.848
45615W        W13989  19.040  43.888   1.829
45616W        W13990  21.712  31.434   3.385
45617W        W13991   2.839   4.770  14.302
45618W        W13992  40.031  16.632   0.417
45619W        W13993   2.457  16.245   4.126
45620W        W13994  38.885  31.471  13.378
45621W        W13995  21.096  39.445   2.292
45622W        W13996   6.777  13.273  11.008
45623W        W13997   7.415  40.487  14.337
45624W        W13998  19.122   3.356   3.336
45625W        W13999  13.177  44.798  11.541
45626W        W14000  33.576   3.223   2.192
45627W        W14001  19.058  14.148  12.346
45628W        W14002  12.349  36.375  12.360
45629W        W14003   1.346  12.679   0.448
45630W        W14004  25.119  27.522  10.923
45631W        W14005  13.129  41.845  13.338
45632W        W14006   1.854  14.788  13.371
45633W        W14007   3.879  21.192  11.022
45634W        W14008  38.535  19.742  12.517
45635W        W14009  29.492  19.201   2.402
45636W        W14010   6.808  20.162  11.415
45637W        W14011  27.615  21.135   1.396
45638W        W14012  39.863  30.037  14.880
45639W        W14013  26.555  34.972  11.568
45640W        W14014  29.978  31.034  12.440
45641W        W14015   0.398   6.403  13.953
45642W        W14016  32.898   4.778   1.294
45643W        W14017  28.486   3.868   3.282
45644W        W14018  21.712   3.773   3.187
45645W        W14019  30.974  39.830   4.141
45646W        W14020  15.279  32.077  10.636
45647W        W14021  28.013  16.641  13.973
45648W        W14022  44.856  11.147  14.940
45649W        W14023   3.955  24.216  11.020
45650W        W14024   9.868  30.430   5.241
45651W        W14025   1.403  16.801  10.596
45652W        W14026  42.514  39.886   3.787
45653W        W14027  29.488  39.318   1.821
45654W        W14028  39.491   7.864  10.532
45655W        W14029  23.695  32.399  14.459
45656W        W14030  13.172  39.405   2.382
45657W        W14031   9.789  17.261  14.833
45658W        W14032  35.362  37.022  12.979
45659W        W14033   7.900   3.900  12.550
45660W        W14034  34.119  25.185   2.356
45661W        W14035  27.156  22.023   1.732
45662W        W14036   4.912  28.142  14.840
45663W        W14037   2.402  15.603  14.452
45664W        W14038  43.323  21.757   4.600
45665W        W14039  31.996  27.459  10.601
45666W        W14040  23.648  38.495  14.798
45667W        W14041  33.041  29.044  12.384
45668W        W14042   2.954   4.445   3.196
45669W        W14043  27.617   1.260   4.693
45670W        W14044  16.595  36.878  12.464
45671W        W14045  23.529  23.690  11.607
45672W        W14046  29.166  13.724  14.346
45673W        W14047  24.582  16.187   2.340
45674W        W14048  11.323  28.037  11.959
45675W        W14049  43.015  32.433   1.416
45676W        W14050  36.972  32.004  14.877
45677W        W14051  20.067   7.886   0.754
45678W        W14052   9.307  31.036   1.914
45679W        W14053   0.890  33.042  13.796
45680W        W14054  25.635  13.763   0.958
45681W        W14055  37.395  29.502  12.531
45682W        W14056  14.807   9.671   4.206
45683W        W14057   0.825  42.992  14.439
45684W        W14058  20.668   5.306  13.400
45685W        W14059  19.285   5.896   1.732
45686W        W14060  28.525   1.826   2.231
45687W        W14061  29.031  20.206   2.796
45688W        W14062   6.330  18.636  14.791
45689W        W14063   7.711  16.714   3.248
45690W        W14064   8.815   5.921   1.788
45691W        W14065  11.311   3.831   2.876
45692W        W14066  35.873  28.133  10.526
45693W        W14067  25.003  41.921  10.421
45694W        W14068  27.618   4.819  14.342
45695W        W14069   8.377  15.695  11.894
45696W        W14070  26.008  22.567  14.413
45697W        W14071  25.482  33.524   0.285
45698W        W14072  32.536  35.010  11.982
45699W        W14073   4.747  16.236  11.037
45700W        W14074   7.369  16.588  10.936
45701W        W14075  34.097   0.433  14.432
45702W        W14076  36.993  18.713   1.901
45703W        W14077  22.615  31.556  11.471
45704W        W14078  11.669  33.491   1.232
45705W        W14079  44.337  11.746   4.639
45706W        W14080  13.671  34.954   2.749
45707W        W14081  28.074  17.590   2.392
45708W        W14082  36.555  10.229   1.928
45709W        W14083  10.371  39.899  13.945
45710W        W14084   8.819   2.382   5.272
45711W        W14085  16.164  24.055  12.473
45712W        W14086   3.230  42.855  10.962
45713W        W14087  39.990  35.936  14.813
45714W        W14088  30.626   8.341   2.270
45715W        W14089  26.955  17.603   1.230
45716W        W14090   4.897   1.823   0.965
45717W        W14091  10.653  39.413   1.814
45718W        W14092  13.721  41.889   0.851
45719W        W14093  11.356  35.960  11.035
45720W        W14094  44.423  42.363  12.504
45721W        W14095  15.805  14.806   2.723
45722W        W14096  33.612   1.482   0.918
45723W        W14097  25.672  21.728   0.881
45724W        W14098  40.008  26.645   3.166
45725W        W14099  25.141  23.552   1.391
45726W        W14100  19.718   6.370   2.813
45727W        W14101  41.409  44.446  14.492
45728W        W14102  24.186  36.851  11.609
45729W        W14103  28.152  22.727   4.709
45730W        W14104   1.322  35.088  10.991
45731W        W14105  16.690   1.912  12.445
45732W        W14106  32.629  30.424  13.442
45733W        W14107   7.777  21.758  12.453
45734W        W14108  10.172  44.432   4.142
45735W        W14109  43.450  29.111  13.375
45736W        W14110  40.827  22.571   2.777
45737W        W14111  12.725  33.560   0.313
45738W        W14112  42.460  14.325  13.951
45739W        W14113  39.514   5.284  13.335
45740W        W14114  40.423  14.159   3.383
45741W        W14115  27.941  41.811  14.322
45742W        W14116  15.177  34.027  12.462
45743W        W14117  25.065  18.666  13.385
45744W        W14118  42.902  26.124  13.045
45745W        W14119  35.975   9.709  13.062
45746W        W14120   3.307  33.989  14.375
45747W        W14121  44.949   9.867  11.524
45748W        W14122  43.446  13.833  12.340
45749W        W14123   8.704  42.879   3.334
45750W        W14124   8.215  39.452   4.168
45751W        W14125  13.775  35.459  10.888
45752W        W14126  40.855  12.118  11.063
45753W        W14127   2.254  44.823  10.521
45754W        W14128  39.886   6.198   1.379
45755W        W14129  18.111  29.544   1.778
45756W        W14130  40.511  11.268  13.856
45757W        W14131  35.556  24.012  11.554
45758W        W14132   1.912  40.369   3.791
45759W        W14133   4.709   2.327  12.870
45760W        W14134  27.647   7.781  13.404
45761W        W14135  27.625  36.556  13.851
45762W        W14136   6.324  33.080  11.412
45763W        W14137  24.506  40.503  10.889
45764W        W14138  32.486  11.820  14.291
45765W        W14139  28.666  22.113   1.844
45766W        W14140   6.883  33.427  11.433
45767W        W14141  14.248  16.683  12.421
45768W        W14142  19.697  16.622   4.274
45769W        W14143  25.628  25.552  13.494
45770W        W14144   8.796  26.681  14.938
45771W        W14145   5.372  31.639  11.942
45772W        W14146  10.802   5.240   4.131
45773W        W14147  30.601  11.304   4.154
45774W        W14148   7.846  13.835   2.823
45775W        W14149  27.501  35.409   2.320
45776W        W14150  41.427  33.451  12.489
45777W        W14151   3.298   3.757   1.374
45778W        W14152  24.091  30.048  12.453
45779W        W14153   1.379   3.772  14.954
45780W        W14154  39.539  24.062  11.113
45781W        W14155  24.628   5.358  12.400
45782W        W14156  24.206  11.149  10.602
45783W        W14157  39.375  37.070   3.844
45784W        W14158  21.643  18.572  11.976
45785W        W14159  41.820  16.292   4.224
45786W        W14160  14.834  21.522  11.488
45787W        W14161  40.824  10.255   4.326
45788W        W14162  25.687  16.696  13.858
45789W        W14163  28.130  31.508   4.178
45790W        W14164  17.138   6.725   0.345
45791W        W14165  40.336  28.139   4.782
45792W        W14166  36.847  30.459   4.225
45793W        W14167  10.311  39.342   3.741
45794W        W14168  24.071  25.182  11.448
45795W        W14169  40.515  40.511  11.441
45796W        W14170  44.002  28.468   0.482
45797W        W14171  23.047  17.078  11.024
45798W        W14172   8.359  28.624   0.341
45799W        W14173  44.484  12.183  12.859
45800W        W14174  40.316  40.412   0.898
45801W        W14175  30.042  14.322   2.387
45802W        W14176  19.629  36.903   3.359
45803W        W14177   9.206  14.615  12.357
45804W        W14178  22.041  24.078  12.849
45805W        W14179   7.352  13.231   0.750
45806W        W14180   8.328   5.222  11.934
45807W        W14181   4.388  14.704   2.731
45808W        W14182  37.072  35.592  10.433
45809W        W14183  44.755  18.180  10.501
45810W        W14184  39.872  43.856  11.497
45811W        W14185   2.353  16.678  11.573
45812W        W14186  10.694  42.008   4.721
45813W        W14187  19.703  22.133  14.466
45814W        W14188  13.686  33.972   2.223
45815W        W14189   0.827  26.027   4.228
45816W        W14190  39.912  40.909   1.729
45817W        W14191  21.206  15.663  11.457
45818W        W14192  43.389  17.724  11.560
45819W        W14193  17.679  20.086   1.925
45820W        W14194  15.727   0.361  10.632
45821W        W14195  19.706  14.213   1.376
45822W        W14196  21.555   6.921  13.499
45823W        W14197   0.786  35.895  12.033
45824W        W14198  25.125  21.743   2.278
45825W        W14199  16.159  11.837   0.782
45826W        W14200   1.258  33.547  11.863
45827W        W14201  38.465  16.296   0.282
45828W        W14202   5.908   3.842   2.713
45829W        W14203   7.882   5.278   5.578
45830W        W14204   7.900  26.495  14.403
45831W        W14205  17.245  24.491  11.088
45832W        W14206   0.250  34.393   4.323
45833W        W14207  33.411  11.340   2.342
45834W        W14208  17.725  18.768   1.919
45835W        W14209   5.194  12.356   0.480
45836W        W14210  23.079   9.304   3.146
45837W        W14211  28.060  18.578   2.864
45838W        W14212   3.940  38.908  10.949
45839W        W14213   7.902  13.625   1.255
45840W        W14214  43.881  26.158   0.927
45841W        W14215  36.021  36.884   2.856
45842W        W14216   5.325  28.578  13.930
45843W        W14217  21.551  10.294  13.497
45844W        W14218   0.760  40.536   2.240
45845W        W14219   0.292  34.451   0.440
45846W        W14220  14.107  44.386   0.876
45847W        W14221  23.157  11.301   3.239
45848W        W14222  13.205  19.115  14.831
45849W        W14223  32.109  13.806  12.964
45850W        W14224  19.533   7.176  13.959
45851W        W14225   8.259  36.430   0.846
45852W        W14226  31.467  30.072  12.934
45853W        W14227  30.526  18.215  11.870
45854W        W14228  26.470   8.303  13.011
45855W        W14229   3.289  37.452  14.772
45856W        W14230   5.290  16.273  13.053
45857W        W14231  39.431  37.855   4.204
45858W        W14232  24.992   9.270  14.848
45859W        W14233  19.655  42.313   3.259
45860W        W14234  13.109  41.792  12.457
45861W        W14235  20.210   8.199  10.588
45862W        W14236  16.179   4.845   2.821
45863W        W14237  43.881  37.880  11.117
45864W        W14238  22.708  26.648  14.822
45865W        W14239  39.961  25.656   1.414
45866W        W14240   0.374   3.844  10.967
45867W        W14241  25.169   9.228  12.440
45868W        W14242  36.485  37.520  13.973
45869W        W14243  40.797  32.033  10.611
45870W        W14244  28.469  27.621   2.797
45871W        W14245  25.104   0.382  12.092
45872W        W14246   4.885   4.746   5.148
45873W        W14247   0.773  44.969   4.352
45874W        W14248  38.006  17.569   0.823
45875W        W14249  35.534   6.742  12.841
45876W        W14250  16.598  31.985  14.280
45877W        W14251  31.024  42.503  14.458
45878W        W14252  39.515  18.694  13.526
45879W        W14253  33.032   2.822   4.326
45880W        W14254  11.790   4.871  12.854
45881W        W14255   7.901   7.322   4.681
45882W        W14256  40.433  11.674   0.454
45883W        W14257  20.222  37.860  12.068
45884W        W14258  20.223   3.252   5.161
45885W        W14259  36.372   3.216   1.295
45886W        W14260  11.175   4.758   4.745
45887W        W14261  29.103  37.963   4.352
45888W        W14262   5.893  31.405  11.461
45889W        W14263  13.768   0.822  13.448
45890W        W14264  21.029  18.719  10.481
45891W        W14265  10.726   4.251   1.441
45892W        W14266   5.697  19.133   1.394
45893W        W14267  37.982  11.859   3.265
45894W        W14268   3.440   0.826  12.043
45895W        W14269   4.900  22.639  13.851
45896W        W14270  42.316  35.496  13.423
45897W        W14271  11.370   3.763   0.440
45898W        W14272  24.055  11.857  13.371
45899W        W14273  19.703  17.286  10.605
45900W        W14274   5.698  30.540   1.760
45901W        W14275  22.671  37.857  13.386
45902W        W14276  25.537   2.286   2.687
45903W        W14277  14.800  32.107  10.635
45904W        W14278  18.219  40.504  13.473
45905W        W14279  37.855  34.933  11.395
45906W        W14280  20.206  37.415  13.448
45907W        W14281   0.870   3.813   1.315
45908W        W14282  18.631  16.191   0.475
45909W        W14283  21.651  11.771   0.441
45910W        W14284  34.951  44.410  14.280
45911W        W14285  24.605  30.912  10.551
45912W        W14286   0.254   5.337   1.719
45913W        W14287  41.959  30.510   0.729
45914W        W14288   7.671  44.773  10.911
45915W        W14289  25.185   7.225  10.530
45916W        W14290   3.871  26.168  10.419
45917W        W14291  28.657   8.865   3.728
45918W        W14292  43.923  34.944   0.956
45919W        W14293  19.712  39.909  14.022
45920W        W14294  23.039  29.143  12.077
45921W        W14295  30.644  30.443  14.352
45922W        W14296  43.433  25.191   0.466
45923W        W14297  19.245  21.647   0.946
45924W        W14298  11.776   9.800  14.359
45925W        W14299  14.184   3.414  11.585
45926W        W14300  28.484   0.865  13.819
45927W        W14301  39.883   9.296   4.293
45928W        W14302  30.003  31.577  12.052
45929W        W14303  37.419  29.990   1.407
45930W        W14304  18.252  11.237  10.603
45931W        W14305  24.707  34.491  10.920
45932W        W14306   1.470  23.241  14.774
45933W        W14307  15.608  15.618  14.510
45934W        W14308  42.426  22.101  13.849
45935W        W14309  20.248  32.484  14.009
45936W        W14310   5.427  40.875  10.438
45937W        W14311  38.857   3.921   3.254
45938W        W14312  30.650  41.472   1.806
45939W        W14313  29.549   5.263  12.064
45940W        W14314  40.034  15.758   1.328
45941W        W14315  39.371  37.408   1.710
45942W        W14316   1.392   7.392  13.840
45943W        W14317  35.575  40.976   3.379
45944W        W14318  30.059   0.820   0.890
45945W        W14319   3.270  32.045  11.019
45946W        W14320  33.087  19.141  12.977
45947W        W14321  43.408  24.688  12.047
45948W        W14322  14.663  31.563  14.326
45949W        W14323   5.753  21.568   1.375
45950W        W14324   3.431  22.075  12.060
45951W        W14325   0.885  25.067  14.765
45952W        W14326  38.490   3.798   2.770
45953W        W14327  37.896  32.896   0.901
45954W        W14328  24.660   0.279   2.352
45955W        W14329  31.078   7.717   4.650
45956W        W14330  31.954  38.037   1.257
45957W        W14331   0.931  22.725  13.847
45958W        W14332  22.006   5.359  12.870
45959W        W14333   7.786  42.928  13.918
45960W        W14334  10.794  11.127  11.125
45961W        W14335  10.800  21.753  12.036
45962W        W14336   9.677  17.645   5.194
45963W        W14337  35.865  44.002   4.301
45964W        W14338  34.999  18.613  14.313
45965W        W14339  44.488   6.763  12.388
45966W        W14340  40.868  10.652  10.970
45967W        W14341   6.895   9.732  11.584
45968W        W14342  30.597   3.817   3.148
45969W        W14343  14.657   1.446  11.107
45970W        W14344  22.097   7.699   1.277
45971W        W14345  22.022  33.941   1.844
45972W        W14346  35.460  11.761  11.442
45973W        W14347  21.087  40.830   3.865
45974W        W14348  29.649  28.153  10.552
45975W        W14349  25.532  11.701   0.349
45976W        W14350  13.624   3.945   0.786
45977W        W14351   8.893  29.171  10.520
45978W        W14352   4.236  22.680   3.720
45979W        W14353   9.359  34.964   4.354
45980W        W14354  13.239  28.149   4.319
45981W        W14355  28.184  18.642   2.181
45982W        W14356  31.595  38.022  14.999
45983W        W14357  13.740  22.098   2.284
45984W        W14358  24.164  44.798   3.203
45985W        W14359  42.435  31.136  11.969
45986W        W14360  22.080  19.631   3.832
45987W        W14361   5.885  27.543  10.492
45988W        W14362  19.654  10.635   4.754
45989W        W14363  24.637  33.508   2.804
45990W        W14364   5.399  16.678   3.375
45991W        W14365   7.363  30.543   9.925
45992W        W14366  19.150  28.116  11.483
45993W        W14367   9.165   4.842   4.319
45994W        W14368  13.736  44.420   3.678
45995W        W14369  40.988  15.264  14.029
45996W        W14370  39.838  20.146   1.798
45997W        W14371  33.515  24.566  13.989
45998W        W14372   9.812  16.202   2.666
45999W        W14373  12.260  32.993  12.350
46000W        W14374   1.320   6.913  12.365
46001W        W14375  38.429  22.183  12.947
46002W        W14376  39.930   3.870  10.434
46003W        W14377  24.134  24.091   3.187
46004W        W14378  38.467  12.273   1.282
46005W        W14379   4.805  16.125  13.872
46006W        W14380   8.776  19.130  11.391
46007W        W14381  13.791  42.863   2.191
46008W        W14382  25.966  12.810   4.803
46009W        W14383  38.356  39.958   2.679
46010W        W14384  43.384  16.258   1.854
46011W        W14385  15.708   8.334   5.665
46012W        W14386  13.240  14.790   2.714
46013W        W14387  39.504  38.993   1.286
46014W        W14388  43.353   9.153  13.448
46015W        W14389  38.919  23.037   3.326
46016W        W14390  24.658   6.233   4.246
46017W        W14391  36.559  24.623   0.933
46018W        W14392  18.228  37.857   2.803
46019W        W14393  19.220   1.924   3.794
46020W        W14394  25.652  29.968   2.705
46021W        W14395  21.633   2.821  13.815
46022W        W14396  28.997  13.190  10.504
46023W        W14397  38.561  42.365   0.307
46024W        W14398  27.130  29.544  13.960
46025W        W14399   8.662   7.899   3.344
46026W        W14400  22.683  11.210   4.712
46027W        W14401  33.919  30.482  11.884
46028W        W14402  20.645   7.263  13.855
46029W        W14403  29.622  12.715   2.820
46030W        W14404  31.955   7.207  12.970
46031W        W14405  30.598  41.299  13.853
46032W        W14406  11.798  34.007  11.441
46033W        W14407   3.901  34.546  14.879
46034W        W14408   4.822  42.806  13.447
46035W        W14409   3.884  18.141   4.221
46036W        W14410  27.056  34.027   1.885
46037W        W14411   5.269  40.376  10.450
46038W        W14412  41.982  31.909   2.845
46039W        W14413  29.448  29.154   1.704
46040W        W14414  39.940  10.789   4.625
46041W        W14415   8.185   5.376   1.221
46042W        W14416  10.862  26.002  11.971
46043W        W14417   5.403   1.893  13.530
46044W        W14418  13.752  39.975  14.830
46045W        W14419   2.839   4.822   4.636
46046W        W14420  42.470  39.380  10.541
46047W        W14421  24.544   9.671  11.380
46048W        W14422  39.322  24.981   3.631
46049W        W14423  35.519  20.108   3.351
46050W        W14424  40.943  35.043  11.021
46051W        W14425  21.601   1.311  13.957
46052W        W14426  40.923  17.743  13.316
46053W        W14427  43.004   8.685   5.110
46054W        W14428  27.980  35.086  10.910
46055W        W14429  34.399   6.196  11.448
46056W        W14430   3.369  22.609   1.921
46057W        W14431  11.690  10.830  12.089
46058W        W14432  38.026  33.558  11.044
46059W        W14433   3.888  43.793   1.305
46060W        W14434  30.564  16.659  14.780
46061W        W14435   5.760  40.920   3.809
46062W        W14436  42.307  24.563  13.390
46063W        W14437   4.893  40.413   5.114
46064W        W14438  29.460   2.380   3.297
46065W        W14439  42.453  16.113  11.418
46066W        W14440  37.411  13.644  13.954
46067W        W14441  14.157  37.044   0.775
46068W        W14442  16.117  25.505  10.642
46069W        W14443  42.520  33.501  11.990
46070W        W14444  37.426  10.299   2.895
46071W        W14445  11.650  15.103   0.250
46072W        W14446  41.840  28.969   4.169
46073W        W14447  44.453  22.502  10.915
46074W        W14448  15.134   1.854   4.120
46075W        W14449  38.452  37.339  12.992
46076W        W14450  18.710   3.895   1.839
46077W        W14451  27.955   8.713  13.015
46078W        W14452  32.029  18.787   4.198
46079W        W14453  33.127  20.103   2.293
46080W        W14454  34.609   0.386  12.477
46081W        W14455   4.399   3.302   4.762
46082W        W14456   4.425  29.498   2.834
46083W        W14457  42.006  32.965  11.606
46084W        W14458  37.982  26.471  12.564
46085W        W14459  32.915  21.106   0.345
46086W        W14460  24.063   4.378   4.651
46087W        W14461   2.936  10.364   0.956
46088W        W14462  15.723  30.949   0.263
46089W        W14463  16.640  23.185  12.468
46090W        W14464  20.596  11.767  14.959
46091W        W14465  43.833  20.105  14.863
46092W        W14466  20.601  43.918   0.884
46093W        W14467  26.116  25.483  13.984
46094W        W14468  42.490  26.988  11.958
46095W        W14469  34.001  44.936  11.120
46096W        W14470  17.743  10.778  13.487
46097W        W14471   1.428  11.683   0.947
46098W        W14472  19.220  22.744   0.301
46099W        W14473  40.984  31.644   4.211
46100W        W14474  24.206  17.080   0.342
46101W        W14475  35.555  34.972  12.952
46102W        W14476  40.814  14.134   4.672
46103W        W14477  10.172  13.772  12.020
46104W        W14478   5.313   7.677   2.336
46105W        W14479  22.024  10.694   3.639
46106W        W14480  29.973   5.845  12.565
46107W        W14481  30.096  13.665   0.850
46108W        W14482  29.639   5.220  10.445
46109W        W14483  43.316  34.111  10.918
46110W        W14484   1.297  19.119  12.390
46111W        W14485  38.933  43.011   2.684
46112W        W14486   3.932   9.333   4.617
46113W        W14487  13.174   0.332  14.902
46114W        W14488  40.383  13.704  13.513
46115W        W14489  11.291  44.779   1.725
46116W        W14490  38.949  41.969   1.306
46117W        W14491  13.111  13.793   3.707
46118W        W14492  17.163  26.982   4.266
46119W        W14493   0.753   5.319  12.544
46120W        W14494   9.831   4.443  10.588
46121W        W14495   1.468  12.615  14.378
46122W        W14496   4.269  29.098  14.761
46123W        W14497   9.332  34.067   1.316
46124W        W14498  36.065  11.350   4.697
46125W        W14499   0.265  20.105  14.028
46126W        W14500  37.551  41.919  14.907
46127W        W14501   3.349   0.942  12.342
46128W        W14502  12.669  33.519   3.336
46129W        W14503  17.615  16.089  14.812
46130W        W14504  24.082  38.009  14.817
46131W        W14505   2.743  37.048   2.700
46132W        W14506   2.429   4.815  10.541
46133W        W14507  13.758  30.481   4.342
46134W        W14508  34.906  28.169  12.030
46135W        W14509  29.552  28.021   1.867
46136W        W14510   4.702  30.108  11.998
46137W        W14511  29.114  27.684   3.266
46138W        W14512   6.375  10.315   1.919
46139W        W14513  28.149  21.745   1.246
46140W        W14514  21.578  26.031   1.879
46141W        W14515  32.996  41.342   2.898
46142W        W14516  10.730  16.731   2.818
46143W        W14517  35.476   6.218  12.901
46144W        W14518  20.681  12.693  13.354
46145W        W14519  38.501   4.390   0.398
46146W        W14520  35.014  14.184   1.846
46147W        W14521  12.846  42.505  11.472
46148W        W14522  11.699  31.139   2.870
46149W        W14523  41.521   5.221   4.657
46150W        W14524   6.286  27.501   2.853
46151W        W14525  44.470   8.294  12.919
46152W        W14526  34.871  17.077   3.357
46153W        W14527   5.919  15.777  14.867
46154W        W14528  38.056  25.489  11.026
46155W        W14529   7.856  42.434   2.285
46156W        W14530  25.593  36.363   1.888
46157W        W14531  28.022  24.725  10.581
46158W        W14532   2.441  18.608   3.185
46159W        W14533   5.435   0.410   3.214
46160W        W14534   0.752  18.603  12.455
46161W        W14535   4.746   7.367   0.460
46162W        W14536  36.085  13.254   1.396
46163W        W14537  30.927  12.657  10.097
46164W        W14538   7.704  23.579  10.439
46165W        W14539  16.132  31.975   2.404
46166W        W14540   5.373  27.647   4.622
46167W        W14541  22.541   7.395   5.082
46168W        W14542  44.955  29.572   2.379
46169W        W14543  43.445   5.403  14.891
46170W        W14544   2.886  25.635  12.545
46171W        W14545   5.398  14.663   1.251
46172W        W14546  39.347  42.511   0.941
46173W        W14547  34.609  43.968   0.842
46174W        W14548  44.422  28.674  12.914
46175W        W14549   1.826  25.606  11.603
46176W        W14550  36.395  35.086   2.837
46177W        W14551   1.772   5.195  13.475
46178W        W14552   9.160  15.690  10.449
46179W        W14553   5.831  36.379  13.497
46180W        W14554   5.394  10.757  13.811
46181W        W14555  25.162  41.345   1.438
46182W        W14556  43.504  26.123  13.800
46183W        W14557  38.474  41.882  10.474
46184W        W14558  39.546  29.925  13.388
46185W        W14559  33.450  25.969   0.440
46186W        W14560  43.990  17.272   1.303
46187W        W14561  40.021  18.276  12.382
46188W        W14562   8.211  14.227  11.438
46189W        W14563   3.451   4.934  13.371
46190W        W14564  37.564   8.243  10.516
46191W        W14565  14.107   6.863  11.471
46192W        W14566  36.511  18.646   0.263
46193W        W14567   8.210  15.298   1.386
46194W        W14568   4.404  17.089  12.056
46195W        W14569  40.828  38.951   0.765
46196W        W14570   0.975  16.661  14.438
46197W        W14571  18.741  15.132  13.812
46198W        W14572  37.982  17.797   4.767
46199W        W14573  34.939  25.682  12.411
46200W        W14574  14.177  40.893   4.816
46201W        W14575   8.170  30.002   4.237
46202W        W14576  14.658  30.016   1.718
46203W        W14577  23.035  35.861   4.223
46204W        W14578  31.558  42.836   0.252
46205W        W14579  41.860   4.781  13.318
46206W        W14580  44.505  41.446  12.412
46207W        W14581  39.063   8.732  14.781
46208W        W14582  32.463  35.441  13.421
46209W        W14583   6.789  38.551  14.898
46210W        W14584  20.182   7.183   4.796
46211W        W14585  26.147  26.037  11.925
46212W        W14586  13.118  14.699  14.803
46213W        W14587  27.688  16.618   0.336
46214W        W14588  21.548  39.412  13.791
46215W        W14589  44.848  16.761  11.573
46216W        W14590  39.955   8.226   2.201
46217W        W14591  44.493  43.964   2.663
46218W        W14592   4.412  29.109   0.409
46219W        W14593  27.045  29.040   1.419
46220W        W14594  37.960  29.054  12.001
46221W        W14595   0.953  28.555  11.949
46222W        W14596  34.066   8.885  11.064
46223W        W14597  29.582  31.084   0.849
46224W        W14598  35.009   3.798  11.021
46225W        W14599  10.359  10.668   0.883
46226W        W14600  24.584  15.711  11.031
46227W        W14601  10.816  27.534   3.340
46228W        W14602  12.770  38.064  10.588
46229W        W14603  15.665  18.099   1.765
46230W        W14604  31.523  38.440   3.833
46231W        W14605  19.669   6.701  11.460
46232W        W14606  40.044  15.170   2.818
46233W        W14607  34.489  14.169  13.024
46234W        W14608   3.882  17.687   0.767
46235W        W14609   8.305  34.892   0.770
46236W        W14610  35.034  36.559   1.834
46237W        W14611  44.380   2.273   3.198
46238W        W14612  38.885  31.088  11.406
46239W        W14613   0.972  24.052  11.423
46240W        W14614  15.268  27.527  11.938
46241W        W14615  14.264  29.927   3.676
46242W        W14616  13.224   4.399   0.802
46243W        W14617  42.496  20.143  13.487
46244W        W14618  10.178  12.226   4.159
46245W        W14619  25.626  31.581  11.868
46246W        W14620  35.523  20.554   4.219
46247W        W14621  32.601  26.561  14.031
46248W        W14622   1.783  32.413   4.766
46249W        W14623  19.251   2.328   2.218
46250W        W14624  20.736  35.395   4.189
46251W        W14625  15.679   5.370   1.426
46252W        W14626  15.187   8.788   4.348
46253W        W14627  38.372  30.996   3.690
46254W        W14628  34.118   5.403   1.294
46255W        W14629   5.735  22.146  13.939
46256W        W14630  33.890  17.584   4.652
46257W        W14631   8.901  28.638   3.332
46258W        W14632   0.333  32.098  13.330
46259W        W14633  40.312  20.593  10.480
46260W        W14634  27.140  39.890   0.254
46261W        W14635  32.412   8.799  11.106
46262W        W14636  41.423  44.417   0.306
46263W        W14637   9.156  19.540  12.889
46264W        W14638  26.523  33.514   3.778
46265W        W14639  12.741  26.136   4.817
46266W        W14640  33.429  37.507   3.857
46267W        W14641   9.867  14.254  15.000
46268W        W14642  33.880  38.438  11.956
46269W        W14643  24.499  34.431  11.863
46270W        W14644   0.326  32.968  10.523
46271W        W14645   7.387  21.123  13.540
46272W        W14646  28.108  20.083   4.291
46273W        W14647  16.183  33.951   0.859
46274W        W14648  28.655  36.998   3.648
46275W        W14649  22.238  13.689  10.956
46276W        W14650   1.949  40.803  11.542
46277W        W14651  39.877  11.257   2.666
46278W        W14652  27.510  36.557   2.279
46279W        W14653  12.200  18.544  10.612
46280W        W14654  21.182  35.008   0.831
46281W        W14655  19.658  12.699   2.329
46282W        W14656  10.241  21.126   3.708
46283W        W14657   3.394   6.273  13.900
46284W        W14658  19.179  32.481   0.753
46285W        W14659  41.033   9.880   0.432
46286W        W14660  44.282  26.594  10.155
46287W        W14661  36.964   1.833  14.366
46288W        W14662  29.424  21.072   2.223
46289W        W14663  40.366  34.988  10.978
46290W        W14664  43.975  15.152   4.235
46291W        W14665  16.126  40.518  10.473
46292W        W14666   2.918  32.058  14.851
46293W        W14667  11.665  16.809   2.323
46294W        W14668  44.927  33.982   0.423
46295W        W14669  20.152  19.692   0.813
46296W        W14670  11.638  39.842   0.733
46297W        W14671   0.277  17.655  11.109
46298W        W14672  24.598  24.191  10.434
46299W        W14673   1.929  31.020   0.473
46300W        W14674  14.756   8.681  10.577
46301W        W14675  40.422  12.198  13.983
46302W        W14676  44.486  36.099   4.337
46303W        W14677   4.790   7.389  12.570
46304W        W14678  26.542  11.328   2.713
46305W        W14679  38.934  42.000   3.171
46306W        W14680  19.207   4.421  13.448
46307W        W14681  28.137  43.791  10.417
46308W        W14682  43.998  26.638   1.807
46309W        W14683   1.874  21.097   0.458
46310W        W14684  10.359   3.359  14.988
46311W        W14685  15.690   5.295  12.051
46312W        W14686   6.284  26.596  14.513
46313W        W14687   8.279   5.701  14.821
46314W        W14688  32.931  30.130   2.227
46315W        W14689   7.785  12.841   3.333
46316W        W14690  40.343  14.264  14.892
46317W        W14691   3.869  42.461   0.895
46318W        W14692  41.469  24.482   0.746
46319W        W14693  32.608  43.886   0.353
46320W        W14694  39.418  15.805   0.441
46321W        W14695  29.622  36.947   4.133
46322W        W14696  35.093  34.012  11.433
46323W        W14697  17.072   0.809   1.843
46324W        W14698  43.972  16.201  13.045
46325W        W14699  21.208  40.382   1.324
46326W        W14700  23.058   9.867   3.335
46327W        W14701   2.827  29.996   4.170
46328W        W14702  24.574  34.545   1.734
46329W        W14703   3.227  15.215   1.712
46330W        W14704  13.672  13.229  14.950
46331W        W14705   4.800  29.956   0.910
46332W        W14706  35.359  14.268   2.793
46333W        W14707  24.641  14.834   9.587
46334W        W14708  23.158  21.576   3.706
46335W        W14709  32.491  38.897  10.979
46336W        W14710   1.301  29.937  10.634
46337W        W14711  14.164   8.357  14.284
46338W        W14712   7.876   4.706   2.845
46339W        W14713   0.827  38.066  14.762
46340W        W14714  25.139  26.110   0.880
46341W        W14715  10.157  32.098  13.545
46342W        W14716  37.910   4.340  12.542
46343W        W14717  25.518  21.604  13.399
46344W        W14718   7.339  31.958   4.801
46345W        W14719  28.132  24.135   2.884
46346W        W14720  24.722  44.875   3.651
46347W        W14721   8.385  41.330   2.805
46348W        W14722  38.857  13.652   1.275
46349W        W14723  15.700   4.354  12.876
46350W        W14724  17.163  23.491  14.306
46351W        W14725  32.396  37.035  14.935
46352W        W14726  42.439   8.839   2.875
46353W        W14727  34.046   1.949  11.059
46354W        W14728  40.516   0.414   2.317
46355W        W14729  13.255  12.285  10.581
46356W        W14730  41.998  19.090   4.837
46357W        W14731  30.607  13.309   1.803
46358W        W14732  14.725  11.373   0.943
46359W        W14733  44.388  23.643  11.577
46360W        W14734  35.941   0.396  11.527
46361W        W14735  17.611  22.168  12.507
46362W        W14736  29.974  35.408   2.400
46363W        W14737  19.740   4.209   2.685
46364W        W14738  10.319  25.140  12.953
46365W        W14739  40.928  41.912  13.544
46366W        W14740   9.687  34.877   0.870
46367W        W14741  42.466   7.694   2.215
46368W        W14742  44.939  11.280  11.063
46369W        W14743  13.128  28.479  14.443
46370W        W14744  18.217  12.273   4.350
46371W        W14745  36.445  29.174   1.736
46372W        W14746  44.373   5.356  14.439
46373W        W14747   9.698   3.937  10.620
46374W        W14748  36.434  17.133   2.811
46375W        W14749  24.115   0.896  10.144
46376W        W14750  42.001  26.551  10.570
46377W        W14751  37.914  13.678  14.337
46378W        W14752  20.189   0.405   1.223
46379W        W14753  34.390   9.319  10.919
46380W        W14754   8.852  12.136   4.770
46381W        W14755   9.646  20.679  13.328
46382W        W14756  10.230   6.415  11.473
46383W        W14757  10.805  28.980   4.804
46384W        W14758  11.816  22.597  14.405
46385W        W14759  18.264  31.136   1.225
46386W        W14760  43.874  40.548  11.387
46387W        W14761  17.735  35.488  13.911
46388W        W14762  39.818  26.110   1.372
46389W        W14763   4.828  32.046   5.183
46390W        W14764  12.204  33.026  13.478
46391W        W14765  36.903  23.039   3.193
46392W        W14766  22.159   9.753   3.832
46393W        W14767  29.528  39.425   0.931
46394W        W14768   7.797   7.806  12.571
46395W        W14769  36.580  44.288  12.342
46396W        W14770   5.818  31.112   3.283
46397W        W14771  18.563   1.882   9.953
46398W        W14772   0.437  10.273   4.273
46399W        W14773  41.511   2.944   1.789
46400W        W14774  27.107  41.837   0.483
46401W        W14775  34.993  29.450   5.202
46402W        W14776  42.800   6.351   4.724
46403W        W14777   2.298  29.546   2.868
46404W        W14778  21.163   7.281  13.991
46405W        W14779  14.830   9.736  10.581
46406W        W14780  38.465  39.371  10.988
46407W        W14781  32.534  23.025  14.801
46408W        W14782  21.534  31.150   4.638
46409W        W14783   5.790  23.216   4.135
46410W        W14784   5.226  33.496   2.292
46411W        W14785  12.197  11.224  13.432
46412W        W14786  14.301   6.198   0.794
46413W        W14787   5.248  15.766  11.120
46414W        W14788  18.604  10.215  14.463
46415W        W14789  44.953  41.897   4.741
46416W        W14790   5.876   9.800  13.398
46417W        W14791   3.928   8.684   1.820
46418W        W14792  24.560  30.455   1.408
46419W        W14793  39.996  27.045   1.303
46420W        W14794  44.835  37.491   0.846
46421W        W14795  35.102  22.065  10.457
46422W        W14796  21.044  27.560  12.870
46423W        W14797   5.840  36.371  12.033
46424W        W14798  11.128  12.616  12.059
46425W        W14799  35.069  15.166  11.377
46426W        W14800   8.702  43.303   2.398
46427W        W14801  40.365  28.606   1.870
46428W        W14802   1.288  25.025  11.882
46429W        W14803  18.585  19.654   5.089
46430W        W14804  35.930   0.301   2.722
46431W        W14805  22.570  12.711   1.400
46432W        W14806  16.160  31.029  11.403
46433W        W14807  11.840  19.709   1.849
46434W        W14808   3.936  31.117   0.937
46435W        W14809  37.970  30.537   3.640
46436W        W14810   9.776  33.973   3.242
46437W        W14811  23.013   3.284  14.421
46438W        W14812   0.779  20.143   2.287
46439W        W14813  29.502  36.866   0.352
46440W        W14814  42.297  13.620   0.958
46441W        W14815  40.003  44.437  13.411
46442W        W14816   1.816  12.292   0.268
46443W        W14817  16.694  40.895  14.975
46444W        W14818   3.359  15.596  13.540
46445W        W14819  23.079   9.743   1.731
46446W        W14820  34.378  35.953   2.758
46447W        W14821   0.490  33.517  10.641
46448W        W14822  36.040  16.156  11.866
46449W        W14823  16.250  20.109  14.512
46450W        W14824  15.615  26.190   2.849
46451W        W14825  33.897  10.268   2.711
46452W        W14826  13.273  40.977  13.492
46453W        W14827  12.714   2.957  12.918
46454W        W14828  36.997  26.079   0.373
46455W        W14829  36.442  30.085  14.903
46456W        W14830   2.772  14.743  13.517
46457W        W14831  38.055  41.964   4.807
46458W        W14832   5.898  25.699   3.236
46459W        W14833   0.271  10.247   4.648
46460W        W14834  42.907  15.218  10.972
46461W        W14835  28.628   1.951   1.920
46462W        W14836  13.690  15.648   3.775
46463W        W14837  32.510   7.248  12.503
46464W        W14838  26.985  37.051   1.292
46465W        W14839  20.173  19.252  13.815
46466W        W14840   4.352  35.067   0.467
46467W        W14841  12.830  41.477  14.472
46468W        W14842  22.629  22.722   4.349
46469W        W14843  11.321  20.693   3.684
46470W        W14844   3.811   3.297  13.824
46471W        W14845  10.194  33.032   0.937
46472W        W14846  42.897  36.401   3.825
46473W        W14847  14.331  10.284   9.545
46474W        W14848  24.669  23.678   0.769
46475W        W14849  23.171  10.152  11.541
46476W        W14850  13.349  11.833  11.399
46477W        W14851  12.628  29.456   0.752
46478W        W14852  22.062  20.649   4.607
46479W        W14853  19.177  30.053  14.861
46480W        W14854  37.004   2.939  11.014
46481W        W14855  44.973  16.784   2.235
46482W        W14856  17.650  12.855   1.726
46483W        W14857  24.131   4.284   0.811
46484W        W14858  24.574  28.179   0.929
46485W        W14859  38.015   5.931  11.993
46486W        W14860   4.438  40.915   2.737
46487W        W14861  11.252   8.731   3.757
46488W        W14862  17.637   1.767  11.462
46489W        W14863   6.245  35.552  14.924
46490W        W14864   3.249  29.479  13.796
46491W        W14865  25.146  33.942   4.613
46492W        W14866  14.152  27.154   2.184
46493W        W14867  36.903  11.204   2.835
46494W        W14868   5.927  22.624   1.760
46495W        W14869  43.009  12.655  11.572
46496W        W14870  10.236  10.288   0.454
46497W        W14871  18.672  14.657  14.018
46498W        W14872  37.843   4.262   3.769
46499W        W14873  41.877  36.881  13.000
46500W        W14874  41.430  28.535   1.272
46501W        W14875  13.631  11.779  12.445
46502W        W14876  14.255   1.288  11.564
46503W        W14877  38.938  21.049  14.847
46504W        W14878  15.189   7.759   0.891
46505W        W14879   8.330  37.393  13.920
46506W        W14880  22.688  41.800   4.172
46507W        W14881   1.860  26.980   4.601
46508W        W14882  23.150  23.995  14.935
46509W        W14883  38.436  27.032   1.318
46510W        W14884  28.970   1.264  12.390
46511W        W14885  23.188  21.052   1.909
46512W        W14886  14.191  10.312  13.981
46513W        W14887  19.155  13.666  13.005
46514W        W14888  12.844   1.754   2.753
46515W        W14889   3.312  43.396   4.334
46516W        W14890  17.202   2.436   3.817
46517W        W14891  41.469   2.880  12.481
46518W        W14892   0.860  14.803  11.408
46519W        W14893  33.061  44.462  10.409
46520W        W14894   9.279  41.921   1.249
46521W        W14895  27.995  14.144   0.467
46522W        W14896  22.585  40.859   4.735
46523W        W14897  10.342  21.538   3.367
46524W        W14898  11.303  33.995  12.092
46525W        W14899  15.097  31.999  13.342
46526W        W14900  13.304   1.873  12.446
46527W        W14901  14.162  31.549   1.928
46528W        W14902   9.738   1.413   4.178
46529W        W14903  33.562  36.846   1.317
46530W        W14904   4.865   7.726   3.834
46531W        W14905  10.363   9.326  13.023
46532W        W14906  14.780  12.254  12.850
46533W        W14907  27.004  26.481   0.742
46534W        W14908  19.691  34.120  13.997
46535W        W14909   7.799  41.316  13.794
46536W        W14910  19.179  36.473   4.325
46537W        W14911  38.438  41.396   2.690
46538W        W14912  12.797   8.798   1.319
46539W        W14913  42.877   7.776  12.091
46540W        W14914  16.762  22.101  10.478
46541W        W14915   8.656  22.677   3.358
46542W        W14916  34.472  26.500  14.937
46543W        W14917  23.160  24.666   2.730
46544W        W14918  10.176  28.604  14.321
46545W        W14919  35.439  16.188   1.390
46546W        W14920  38.345  29.117  11.086
46547W        W14921  35.061  37.020  10.449
46548W        W14922  15.806  13.298   3.240
46549W        W14923  43.465  27.110   3.688
46550W        W14924   6.884  30.419   1.395
46551W        W14925  29.584  27.044  13.924
46552W        W14926  39.428  36.437   2.225
46553W        W14927  23.051   2.407  12.858
46554W        W14928   9.686  38.030  12.846
46555W        W14929   2.904  10.729  12.054
46556W        W14930  44.853  31.915  13.414
46557W        W14931  24.216  19.738  13.950
46558W        W14932  27.143  35.516   3.376
46559W        W14933  16.122   0.422  11.062
46560W        W14934  30.119  42.343  14.018
46561W        W14935   9.719  22.585  14.287
46562W        W14936  11.742  38.862  10.104
46563W        W14937  31.125  14.186   4.161
46564W        W14938  24.664  14.593  13.804
46565W        W14939  24.591   9.755  13.443
46566W        W14940  22.248  26.203   3.168
46567W        W14941  26.173   3.365  11.994
46568W        W14942   8.867  28.103  12.916
46569W        W14943  13.677  18.544   0.818
46570W        W14944  10.854   9.703   3.769
46571W        W14945  43.346   7.366   2.902
46572W        W14946  17.294   8.887  10.106
46573W        W14947   7.394  42.870   4.827
46574W        W14948  34.386  31.977  12.448
46575W        W14949  13.113  18.692  14.884
46576W        W14950  26.467  44.494  10.891
46577W        W14951  43.938  26.090   2.413
46578W        W14952   6.331  24.061  10.602
46579W        W14953  38.913  40.545   3.188
46580W        W14954  36.863  43.975   4.308
46581W        W14955  22.691  36.443   2.861
46582W        W14956  38.979   8.240  11.481
46583W        W14957  33.463  39.986  14.808
46584W        W14958   7.864  32.008   1.790
46585W        W14959  21.142  28.101  12.922
46586W        W14960   1.348  11.141  12.896
46587W        W14961  14.226   8.803  12.529
46588W        W14962  43.799   0.472  12.055
46589W        W14963   0.374  23.586   1.450
46590W        W14964  14.807  12.289   2.356
46591W        W14965   8.828  28.157  14.275
46592W        W14966   6.354   4.732   0.960
46593W        W14967  33.560  32.989   4.227
46594W        W14968  32.029   6.884   4.626
46595W        W14969  26.163  40.518  10.446
46596W        W14970  33.439  29.991   2.289
46597W        W14971  34.456  18.581   3.342
46598W        W14972  44.469   4.380   2.761
46599W        W14973  30.448  44.445  11.881
46600W        W14974  33.029  43.279  14.328
46601W        W14975  12.254  35.977   3.730
46602W        W14976   4.227  23.548   4.116
46603W        W14977  13.171   1.807  13.315
46604W        W14978   0.389  28.077  11.402
46605W        W14979  13.811  44.798  10.622
46606W        W14980  44.872  23.708   1.773
46607W        W14981  28.489  15.715   2.675
46608W        W14982  21.550  33.418  14.823
46609W        W14983  16.080  31.902  11.466
46610W        W14984  22.140  10.382  10.981
46611W        W14985   0.394  13.717   0.894
46612W        W14986  26.591   6.239  12.892
46613W        W14987   8.251  30.121   1.238
46614W        W14988   6.712  25.607  13.505
46615W        W14989  30.439   4.721  12.475
46616W        W14990  12.260   4.828   1.922
46617W        W14991  40.055   5.777   1.338
46618W        W14992  14.798  37.531  12.087
46619W        W14993   8.358  42.293  14.926
46620W        W14994   7.220  15.187  13.458
46621W        W14995   6.914  18.676  10.626
46622W        W14996  26.560  18.590   1.711
46623W        W14997  39.470  28.166  13.339
46624W        W14998  27.586  32.049  12.011
46625W        W14999  36.067  37.357  13.459
46626W        W15000  20.622   1.309   3.178
46627W        W15001   9.387  42.373   2.697
46628W        W15002  33.576  44.423  12.924
46629W        W15003  11.156   3.896   4.211
46630W        W15004  20.578  33.566   4.295
46631W        W15005   5.766  36.989   2.838
46632W        W15006   6.301  16.778   0.919
46633W        W15007   0.372   6.886  12.899
46634W        W15008   4.899   2.732  14.292
46635W        W15009   7.674   6.282  11.444
46636W        W15010  37.411  31.092  13.477
46637W        W15011  43.293  31.477  12.455
46638W        W15012  14.162  33.464   3.844
46639W        W15013  18.573  11.298  12.351
46640W        W15014  13.616  13.730   2.837
46641W        W15015  37.376  20.133  14.489
46642W        W15016  43.016  22.541  11.856
46643W        W15017   2.835  14.197  13.420
46644W        W15018  15.648  39.983  13.966
46645W        W15019  21.607   9.841   0.297
46646W        W15020  39.971  43.969  11.985
46647W        W15021   2.909  34.611  11.376
46648W        W15022  31.002  19.758   1.321
46649W        W15023  40.835  19.256   4.635
46650W        W15024  35.587  39.449   2.394
46651W        W15025   4.892   3.452  13.939
46652W        W15026   7.301  32.503  14.367
46653W        W15027  26.181   5.401   3.190
46654W        W15028  43.398   9.317  12.365
46655W        W15029  40.041   6.856  14.875
46656W        W15030  23.578   8.775  13.818
46657W        W15031   2.863   3.298   0.758
46658W        W15032  20.203  34.963  12.008
46659W        W15033  10.683  31.021   1.905
46660W        W15034  19.054  37.939  12.058
46661W        W15035  15.083  20.246   4.786
46662W        W15036  12.776  31.976  14.821
46663W        W15037  17.063  26.456  10.082
46664W        W15038   7.836  35.875  14.011
46665W        W15039  29.024  35.594   0.271
46666W        W15040  40.415   4.807   2.344
46667W        W15041  29.981  39.884   0.774
46668W        W15042  24.218  17.095   2.688
46669W        W15043  10.194  19.118   1.268
46670W        W15044  32.633  17.304   1.229
46671W        W15045  28.616  16.126   1.884
46672W        W15046  20.660   9.263  13.836
46673W        W15047  11.784   2.934   4.605
46674W        W15048  16.633  36.398  14.022
46675W        W15049  27.602   9.213  12.511
46676W        W15050  27.692   9.394   4.830
46677W        W15051  30.085  28.057   3.154
46678W        W15052  43.398  41.813   2.769
46679W        W15053  13.720  10.877  12.897
46680W        W15054   7.182  14.231   2.346
46681W        W15055  27.985  36.941  11.107
46682W        W15056  11.813  16.261   3.714
46683W        W15057  21.082  11.633  12.089
46684W        W15058   5.865  29.506   9.669
46685W        W15059  24.105  13.721  14.803
46686W        W15060  39.048  18.070   2.267
46687W        W15061  21.524  24.680   2.742
46688W        W15062  15.198  43.272   2.409
46689W        W15063  16.812  40.417   3.274
46690W        W15064  11.156  27.687  11.078
46691W        W15065   3.411   7.184   4.193
46692W        W15066  14.794  11.770  10.907
46693W        W15067  42.398   8.339   0.389
46694W        W15068  44.006  35.992   4.193
46695W        W15069   9.295  19.611  14.500
46696W        W15070  44.876  14.149   4.698
46697W        W15071   6.383  39.328  14.377
46698W        W15072   3.273  40.521   0.943
46699W        W15073  12.717  27.180   2.231
46700W        W15074  11.229  27.023  14.391
46701W        W15075  36.420  26.547   0.252
46702W        W15076  10.252   3.824   1.897
46703W        W15077  27.014   5.714   0.753
46704W        W15078  12.690   5.369   4.638
46705W        W15079  26.109  43.328   4.618
46706W        W15080  16.097   0.390  13.882
46707W        W15081  27.951  23.193  13.847
46708W        W15082   4.424  14.735  10.438
46709W        W15083  30.122  33.042   3.741
46710W        W15084  35.987  27.189  11.521
46711W        W15085  16.256  40.850   4.777
46712W        W15086   7.408  34.484   2.809
46713W        W15087  29.661  26.001   0.755
46714W        W15088  21.126   7.902   4.619
46715W        W15089  35.591  10.820  13.532
46716W        W15090  23.241  15.282   3.704
46717W        W15091   3.404   5.739  13.477
46718W        W15092  42.968  22.671  11.058
46719W        W15093  37.427  29.654  11.062
46720W        W15094  26.096  38.833   4.241
46721W        W15095  11.225   9.312  14.443
46722W        W15096  24.208  16.304   4.623
46723W        W15097  30.920  39.011   4.149
46724W        W15098  11.701  18.594  10.051
46725W        W15099   5.338  10.841   2.411
46726W        W15100  39.505  25.536   3.239
46727W        W15101  33.990  25.028  10.415
46728W        W15102  41.334  15.777   1.330
46729W        W15103  11.367   2.731   0.449
46730W        W15104  25.572  17.591  12.034
46731W        W15105  27.028   3.222   0.732
46732W        W15106  27.948   9.269  14.829
46733W        W15107  15.287  22.523   0.786
46734W        W15108  39.881  24.538   2.318
46735W        W15109   0.836  16.119   0.965
46736W        W15110  30.127  44.782  10.616
46737W        W15111  15.218  32.976  14.778
46738W        W15112  12.675  12.781  11.515
46739W        W15113  28.677  16.312  11.611
46740W        W15114  30.426  13.645   3.296
46741W        W15115  41.841  27.967  11.093
46742W        W15116  37.003  14.117  13.514
46743W        W15117   5.301  42.834  12.031
46744W        W15118   1.317  38.029  13.426
46745W        W15119   4.364  25.058  11.606
46746W        W15120  39.402  31.503  12.448
46747W        W15121  38.837  23.069  10.629
46748W        W15122  32.013  22.010  13.030
46749W        W15123  22.062  17.665   3.158
46750W        W15124  11.836  18.279  14.030
46751W        W15125  44.900  15.212  13.966
46752W        W15126  10.176  24.091   2.384
46753W        W15127  31.073  18.168  11.501
46754W        W15128   3.407  22.663   1.406
46755W        W15129  39.816  26.534  12.021
46756W        W15130  33.584   0.439   0.338
46757W        W15131   6.284  43.979  10.626
46758W        W15132  35.577  43.408   2.819
46759W        W15133   7.867   5.729  12.056
46760W        W15134  38.351   2.862   0.852
46761W        W15135  34.488  18.553   2.242
46762W        W15136  33.092  10.640  10.491
46763W        W15137  30.020  21.654   4.659
46764W        W15138  18.239  34.466   0.943
46765W        W15139  38.472   9.758   2.820
46766W        W15140  43.857  32.546   2.341
46767W        W15141   1.334  39.383   4.345
46768W        W15142  33.046  34.108   0.244
46769W        W15143  26.466  21.756   1.294
46770W        W15144  13.810  42.922  14.458
46771W        W15145  34.453   9.668   1.856
46772W        W15146  27.639  13.314   2.324
46773W        W15147  24.155  26.636  10.583
46774W        W15148  22.556  35.025   3.654
46775W        W15149  18.651  34.116  12.453
46776W        W15150   1.815  29.511   1.337
46777W        W15151  31.573   4.402  12.853
46778W        W15152  42.972  14.704  11.440
46779W        W15153  30.039  21.190   4.126
46780W        W15154  35.436  35.973   1.772
46781W        W15155  31.924   3.296  12.996
46782W        W15156  36.962  17.644  10.597
46783W        W15157   7.724  43.766  14.335
46784W        W15158  27.563  20.089  13.540
46785W        W15159  43.453  11.693   2.768
46786W        W15160  43.481  27.452   2.774
46787W        W15161   6.367   5.783  10.003
46788W        W15162  30.574  20.714   4.269
46789W        W15163  27.680  10.141   1.403
46790W        W15164  32.002  34.000   1.423
46791W        W15165   4.811  44.436  14.334
46792W        W15166  16.690   3.361  13.313
46793W        W15167  12.622  24.488   3.354
46794W        W15168  33.616   3.372  13.422
46795W        W15169  39.971  33.526   3.713
46796W        W15170   7.368  17.606  11.533
46797W        W15171  24.527  42.524  12.990
46798W        W15172  18.251   7.904   0.891
46799W        W15173  37.993  35.435  14.366
46800W        W15174  20.205  27.188  12.049
46801W        W15175   4.714  13.781  10.968
46802W        W15176   6.253  23.045  11.883
46803W        W15177   6.825   7.334  13.486
46804W        W15178   4.336   0.299  13.485
46805W        W15179  44.774  34.513  12.910
46806W        W15180   2.378  15.651  11.486
46807W        W15181  41.936  11.156   0.438
46808W        W15182   7.182  31.055  14.307
46809W        W15183  41.816  38.412   2.202
46810W        W15184   3.830  39.500  10.420
46811W        W15185  28.533  20.257  13.354
46812W        W15186   4.392  32.593  13.362
46813W        W15187  12.249  29.105  14.811
46814W        W15188  41.527  42.359  13.527
46815W        W15189  13.787  21.744  10.416
46816W        W15190   9.395  40.414  11.998
46817W        W15191  21.562  10.742  13.795
46818W        W15192  36.404  20.117  11.526
46819W        W15193  33.980  25.550  12.035
46820W        W15194   2.857  13.304   2.419
46821W        W15195  41.494  30.919  12.508
46822W        W15196   9.362  22.202  12.904
46823W        W15197  17.218  25.144  10.452
46824W        W15198   1.381  25.550   2.275
46825W        W15199  27.498   8.347   3.705
46826W        W15200  44.298  11.675   2.890
46827W        W15201  22.593  22.062   4.183
46828W        W15202   6.901  42.491   1.813
46829W        W15203  20.157   8.684  11.377
46830W        W15204  22.056  11.234   1.302
46831W        W15205   0.448  36.910  11.512
46832W        W15206  29.609  14.211  13.910
46833W        W15207  44.364  26.619  14.797
46834W        W15208  22.708  13.286   4.755
46835W        W15209  11.704  28.038   0.321
46836W        W15210   0.883  30.488  14.946
46837W        W15211  35.470   7.344   0.885
46838W        W15212  22.701  10.720  12.363
46839W        W15213  14.219  32.983  12.395
46840W        W15214  44.884   3.416   2.843
46841W        W15215  40.533  37.949  13.858
46842W        W15216   9.339  10.208   2.388
46843W        W15217  21.675  33.887   1.348
46844W        W15218  14.160  26.575  12.067
46845W        W15219  24.704  34.910   3.677
46846W        W15220  20.529  35.059  11.984
46847W        W15221   7.199  38.549  13.489
46848W        W15222   2.455  43.318   3.636
46849W        W15223   0.913  19.732   5.319
46850W        W15224  37.477  12.623  12.381
46851W        W15225  29.129  33.383  10.984
46852W        W15226  13.729  27.087   3.798
46853W        W15227   7.740  24.580   4.345
46854W        W15228   4.884  13.624   1.449
46855W        W15229  44.386  33.571   3.287
46856W        W15230   7.724   4.367  14.998
46857W        W15231  30.595   8.677   2.273
46858W        W15232  32.991  12.354   1.313
46859W        W15233   9.873   7.685  14.924
46860W        W15234   6.742  13.677   0.948
46861W        W15235  25.533  38.337  12.998
46862W        W15236  30.909  24.553   4.784
46863W        W15237  16.714  11.813   0.924
46864W        W15238  41.307  38.347  11.001
46865W        W15239  22.251  31.457  11.863
46866W        W15240  27.565  25.634  10.594
46867W        W15241  33.474  24.544   4.693
46868W        W15242  11.773  13.756   1.836
46869W        W15243  10.812   7.829   2.821
46870W        W15244  35.886  25.191  12.965
46871W        W15245  29.580  31.506  13.502
46872W        W15246   3.252  41.458  14.817
46873W        W15247  23.023  14.763  12.048
46874W        W15248  14.189   9.170  12.445
46875W        W15249  42.911   4.302  10.581
46876W        W15250  28.644   6.220   2.675
46877W        W15251  14.809  41.335   2.244
46878W        W15252  20.236  38.994   0.814
46879W        W15253  14.184  36.359  14.968
46880W        W15254  20.037   9.275  13.868
46881W        W15255   1.808  20.741   0.798
46882W        W15256   7.259  36.037   3.754
46883W        W15257  17.172  37.484   0.309
46884W        W15258   8.823   9.825   0.759
46885W        W15259   9.846  17.592   2.181
46886W        W15260  37.357   8.808   4.119
46887W        W15261   4.700  44.354   1.342
46888W        W15262  22.034   3.250   5.276
46889W        W15263  29.605  16.261  12.396
46890W        W15264  15.253  29.124   2.684
46891W        W15265  43.927  30.142   0.869
46892W        W15266  10.682  33.537   3.833
46893W        W15267  25.712  44.927  12.567
46894W        W15268   3.719  17.098  11.929
46895W        W15269  22.204  36.847   1.882
46896W        W15270  35.400   0.449   4.316
46897W        W15271  31.418  13.829  14.493
46898W        W15272  17.239  30.143   0.797
46899W        W15273  32.582  28.594   0.474
46900W        W15274  32.563  26.660  12.954
46901W        W15275  12.235   2.273   3.806
46902W        W15276   4.734   0.788  14.410
46903W        W15277  41.501  44.825   0.872
46904W        W15278   6.306  14.761   0.938
46905W        W15279  10.678   7.234   1.924
46906W        W15280  41.865  19.085   0.902
46907W        W15281  42.404  11.715   1.753
46908W        W15282  39.930  31.478   4.690
46909W        W15283  23.521  39.839  14.944
46910W        W15284  38.048   2.773   4.209
46911W        W15285  20.742   3.908   3.358
46912W        W15286  38.056  34.614  10.490
46913W        W15287  43.278  12.223  14.478
46914W        W15288   7.893  27.497   1.864
46915W        W15289   0.827   0.487  12.914
46916W        W15290  25.087   4.318   3.672
46917W        W15291  38.569  14.299   3.304
46918W        W15292   9.173  27.176  14.944
46919W        W15293  12.272  37.035  11.535
46920W        W15294  17.140  28.670   1.705
46921W        W15295   3.761  32.475  14.897
46922W        W15296   4.847   3.329   2.246
46923W        W15297  34.968  38.391  10.629
46924W        W15298  20.540  25.082  11.551
46925W        W15299  39.971   7.769   2.316
46926W        W15300  24.597  18.125   0.865
46927W        W15301  19.212  15.813   2.393
46928W        W15302  20.663  18.136   0.847
46929W        W15303   5.752  35.960   4.346
46930W        W15304   1.868  26.585   1.744
46931W        W15305  11.815  16.113  11.864
46932W        W15306   6.204  12.279  11.453
46933W        W15307  29.125  29.029  14.831
46934W        W15308  39.532  15.696  13.423
46935W        W15309  15.608  25.584  10.527
46936W        W15310   2.427  20.201  13.875
46937W        W15311  43.477  29.003  12.552
46938W        W15312  18.588   5.800  12.926
46939W        W15313  43.876  10.774   1.324
46940W        W15314  37.441  23.607  11.404
46941W        W15315   0.940  37.854   4.214
46942W        W15316  36.365  21.660   4.678
46943W        W15317  33.586  16.131  10.891
46944W        W15318   4.208  39.366  13.511
46945W        W15319  13.647  25.473  10.531
46946W        W15320  14.293  22.593  11.483
46947W        W15321  24.146  17.302   1.927
46948W        W15322  33.425  43.963  12.560
46949W        W15323  30.622  39.985   4.623
46950W        W15324   6.784  16.755   2.215
46951W        W15325   5.245  41.396   1.354
46952W        W15326  16.168  18.156   2.701
46953W        W15327  23.529  22.244   0.764
46954W        W15328  25.677  22.685  14.823
46955W        W15329  13.346   3.804   3.720
46956W        W15330   5.251  30.945   3.695
46957W        W15331  40.492  10.662   4.346
46958W        W15332   3.401   6.921  13.988
46959W        W15333  23.596  23.657   3.672
46960W        W15334   3.741   5.405  13.980
46961W        W15335   4.927  30.427  14.817
46962W        W15336  31.615  18.730   1.935
46963W        W15337  43.415  11.363  12.395
46964W        W15338  18.198  37.411  13.942
46965W        W15339  41.946   3.297  14.902
46966W        W15340  21.184  36.484  14.418
46967W        W15341  37.491  13.335   0.412
46968W        W15342   3.395   5.849   0.369
46969W        W15343  41.835   0.257  12.090
46970W        W15344   7.895   6.417   4.601
46971W        W15345  18.296  16.771  12.828
46972W        W15346  43.882  35.105  12.410
46973W        W15347  36.490  11.298  11.024
46974W        W15348  36.094  11.713  12.978
46975W        W15349   4.758  39.413  13.987
46976W        W15350   7.198  24.544  11.037
46977W        W15351  42.523  39.871  14.851
46978W        W15352  30.641   0.422   2.334
46979W        W15353   2.357  15.160   4.169
46980W        W15354   8.815  30.578   9.979
46981W        W15355  13.791  19.756   2.795
46982W        W15356  30.097  18.717  14.997
46983W        W15357  17.248  23.719   4.337
46984W        W15358  16.788   2.384   1.394
46985W        W15359  39.358  31.505  13.814
46986W        W15360  17.631  37.993   4.139
46987W        W15361  10.706  39.398   4.239
46988W        W15362  28.160  37.443  14.961
46989W        W15363  21.122  12.633   0.438
46990W        W15364  15.135   8.814  10.896
46991W        W15365  33.449  13.688  14.884
46992W        W15366   1.370   7.750   2.832
46993W        W15367  15.160  13.296  11.896
46994W        W15368  37.427  23.654   3.862
46995W        W15369  40.335   7.788   4.229
46996W        W15370  24.646  27.981  13.973
46997W        W15371  31.019  43.881   1.889
46998W        W15372  22.077  10.340  13.027
46999W        W15373  21.194  39.923  14.464
47000W        W15374   2.332  31.478  12.407
47001W        W15375  21.219  26.523   2.809
47002W        W15376   7.896  42.444   0.915
47003W        W15377  29.489  35.917   5.265
47004W        W15378  17.225   9.773   1.378
47005W        W15379  21.104  41.420  10.605
47006W        W15380  25.057  19.258  13.403
47007W        W15381  18.114   6.844  14.012
47008W        W15382  30.620  31.569   0.310
47009W        W15383  19.624  17.100   3.739
47010W        W15384  40.473  39.993   0.462
47011W        W15385  27.121  37.558  13.398
47012W        W15386  40.474  42.910  14.287
47013W        W15387  32.045   8.770   4.230
47014W        W15388  12.134  18.226   0.457
47015W        W15389  43.950  43.020  13.970
47016W        W15390   1.973  23.034   3.757
47017W        W15391  25.205  42.440  13.883
47018W        W15392   8.897  26.650   1.341
47019W        W15393  36.933  42.348   1.441
47020W        W15394  42.319  38.446   1.307
47021W        W15395   2.946  30.015   1.715
47022W        W15396  19.158  13.796   1.211
47023W        W15397  39.847  25.638  10.640
47024W        W15398  29.042  16.317  14.352
47025W        W15399   8.341   8.161  12.914
47026W        W15400  36.905  16.724   4.660
47027W        W15401  22.637  39.536  12.349
47028W        W15402  38.834  42.920  12.480
47029W        W15403  25.034   4.443   3.159
47030W        W15404  21.084  37.578  11.049
47031W        W15405  42.380  27.579  12.073
47032W        W15406  44.292  11.676   5.317
47033W        W15407  37.528  16.313   0.365
47034W        W15408   1.856  19.719   4.815
47035W        W15409  35.436  32.046  11.934
47036W        W15410  31.490  23.083   2.180
47037W        W15411   1.744  26.585   4.132
47038W        W15412   6.794  30.600   2.389
47039W        W15413  18.751  41.360  12.993
47040W        W15414  30.991  30.960   4.784
47041W        W15415   2.938  34.983  13.890
47042W        W15416  43.903  28.184   1.847
47043W        W15417  11.645  11.814   2.833
47044W        W15418   1.946  35.025  11.057
47045W        W15419  25.184  20.707   3.272
47046W        W15420  29.990  11.215   1.375
47047W        W15421  31.587   5.223  13.850
47048W        W15422  15.122  43.444   0.244
47049W        W15423  34.948   8.265  11.566
47050W        W15424  43.337  44.891  13.062
47051W        W15425   1.436  22.130   4.259
47052W        W15426   2.332  19.618   4.318
47053W        W15427   1.908   0.342   0.901
47054W        W15428  36.504  27.192  10.527
47055W        W15429  28.045   6.378   3.705
47056W        W15430  40.396  11.232   3.336
47057W        W15431  42.489  44.841  10.888
47058W        W15432  21.133   1.963   3.232
47059W        W15433  36.066  24.712  11.117
47060W        W15434   9.389  12.849   2.414
47061W        W15435  26.022   1.917   0.904
47062W        W15436  32.976  44.832  13.487
47063W        W15437  13.215   0.822  13.520
47064W        W15438  44.356  14.236  14.469
47065W        W15439  28.010  23.706   0.817
47066W        W15440  39.856  27.476  10.536
47067W        W15441  12.362   9.657   0.947
47068W        W15442  24.596  15.636   5.272
47069W        W15443  25.023  16.731  14.855
47070W        W15444   7.847  31.575   2.217
47071W        W15445  30.516  43.500   3.635
47072W        W15446   7.195  35.934  13.848
47073W        W15447  23.180  10.657   2.297
47074W        W15448  37.551  42.475   2.365
47075W        W15449   1.741  22.585   1.410
47076W        W15450  36.534   9.361   3.283
47077W        W15451  18.103  12.316   0.851
47078W        W15452   8.168  26.038   2.818
47079W        W15453   2.300  36.516   0.258
47080W        W15454  34.927  20.178  13.971
47081W        W15455  15.095  21.645  14.362
47082W        W15456  26.979  41.993   1.360
47083W        W15457  29.468  27.191  14.909
47084W        W15458  22.689  25.501   1.771
47085W        W15459   9.873   2.231   4.672
47086W        W15460  22.207   5.256   4.706
47087W        W15461  27.538  44.757  12.975
47088W        W15462   1.269   7.364   4.746
47089W        W15463  29.032  44.764  11.918
47090W        W15464   0.846   8.228   4.745
47091W        W15465  37.356   7.213   2.707
47092W        W15466  22.085  27.015  14.998
47093W        W15467  23.063  10.853  11.413
47094W        W15468   5.253   7.742   0.889
47095W        W15469  32.060  14.624  10.605
47096W        W15470  44.896  15.237  12.889
47097W        W15471   5.341  41.407  13.976
47098W        W15472  14.180  30.590  11.894
47099W        W15473   3.419  30.950   3.355
47100W        W15474   9.748  23.003   4.217
47101W        W15475  24.176   1.283   1.288
47102W        W15476  26.576  18.173   2.372
47103W        W15477   4.731  37.481  14.886
47104W        W15478  19.247   4.814   1.924
47105W        W15479  18.575   3.293   1.809
47106W        W15480   4.791  31.009   1.716
47107W        W15481  29.991  36.528  13.415
47108W        W15482  43.360  15.232  11.445
47109W        W15483   5.249  10.239   2.764
47110W        W15484  21.115   2.258   0.252
47111W        W15485  40.383  21.121   9.949
47112W        W15486  23.222  14.179   3.735
47113W        W15487  25.471  33.918  10.893
47114W        W15488  35.466  33.388  11.977
47115W        W15489  16.153  23.150  14.811
47116W        W15490  39.485   0.381   1.315
47117W        W15491  41.489  27.582   3.840
47118W        W15492  31.063   3.916   0.848
47119W        W15493   4.244  22.105   4.712
47120W        W15494  23.044  24.639   1.284
47121W        W15495  20.547  22.047  12.468
47122W        W15496  16.773  11.765  13.813
47123W        W15497  17.674   6.247  11.942
47124W        W15498  17.275   8.830  14.412
47125W        W15499   7.308   8.249  14.005
47126W        W15500  31.415   4.380   1.269
47127W        W15501  22.582  23.086   3.818
47128W        W15502  35.525  38.880   2.691
47129W        W15503  41.911  27.093   4.599
47130W        W15504  31.971  37.488  11.107
47131W        W15505  23.527  27.154   0.306
47132W        W15506   9.210   7.886   2.190
47133W        W15507  44.466   8.863  11.479
47134W        W15508  23.141   0.754   0.281
47135W        W15509   5.870  29.013  12.418
47136W        W15510  34.082   1.388  14.904
47137W        W15511  41.429   7.287   0.449
47138W        W15512  19.579  28.945   2.186
47139W        W15513  36.413   9.718   4.670
47140W        W15514  38.492  42.800   0.922
47141W        W15515  37.012   2.396  13.415
47142W        W15516   6.240  16.746  10.890
47143W        W15517  34.524  25.006  11.971
47144W        W15518  22.638  38.922   2.261
47145W        W15519  27.600  22.599  14.921
47146W        W15520  18.617   8.279   1.431
47147W        W15521  39.543  12.611  13.312
47148W        W15522  22.737   0.259   1.759
47149W        W15523  24.023  17.736   2.741
47150W        W15524  17.705  13.206  12.555
47151W        W15525  44.264   2.770  13.346
47152W        W15526  34.606  13.261   0.960
47153W        W15527  31.550  34.100  12.383
47154W        W15528   5.933  40.824   1.344
47155W        W15529  15.636  23.532  10.442
47156W        W15530  21.096  42.001   3.683
47157W        W15531  35.521  39.827  13.790
47158W        W15532   0.924  39.390  11.510
47159W        W15533  33.418  41.527  11.064
47160W        W15534  20.119  36.475  12.941
47161W        W15535  12.854  22.227   3.724
47162W        W15536   5.403  11.312  14.966
47163W        W15537  10.238   8.839   1.400
47164W        W15538   3.235   3.783   4.120
47165W        W15539  44.974  32.407  14.857
47166W        W15540  37.501   7.784   3.375
47167W        W15541   6.919  24.155  12.520
47168W        W15542  33.520  10.709   0.870
47169W        W15543  20.097  12.292  12.933
47170W        W15544  22.585   8.343   3.791
47171W        W15545  37.945  29.099  13.845
47172W        W15546  15.195  15.615   4.152
47173W        W15547   0.915  38.977  14.925
47174W        W15548  40.034  23.002   1.903
47175W        W15549  13.620   2.448  11.544
47176W        W15550  12.784  22.635   4.168
47177W        W15551  38.441  14.182   1.765
47178W        W15552  29.157   8.870  14.886
47179W        W15553   5.196  33.942  10.580
47180W        W15554  25.014  10.674   3.684
47181W        W15555  11.780   2.931   1.236
47182W        W15556  22.150   9.252  14.504
47183W        W15557  14.196   0.477   0.451
47184W        W15558  37.365  20.079   0.284
47185W        W15559  17.296  39.404  13.883
47186W        W15560  26.497  26.499  12.563
47187W        W15561  17.774  20.096  13.932
47188W        W15562  13.806  34.939  13.393
47189W        W15563  26.631  17.749  14.464
47190W        W15564   5.792  40.385   2.841
47191W        W15565  25.519   0.286  12.992
47192W        W15566  21.216  21.521  10.527
47193W        W15567  40.820  41.391   4.178
47194W        W15568  38.362  15.099   3.346
47195W        W15569  21.612  16.782  10.043
47196W        W15570  21.082  29.983   3.707
47197W        W15571  18.657  35.897   5.302
47198W        W15572  39.519  35.924   0.802
47199W        W15573  11.237  36.376   0.730
47200W        W15574  33.911  25.980   0.883
47201W        W15575  23.628  13.292  14.385
47202W        W15576  37.401   3.309   2.795
47203W        W15577  40.827  22.046  12.503
47204W        W15578  32.013  32.991  13.369
47205W        W15579  20.035  11.834  10.909
47206W        W15580   5.814  40.533   1.432
47207W        W15581  42.827  28.086   5.296
47208W        W15582  34.412  23.995   0.399
47209W        W15583  40.861  14.144   4.335
47210W        W15584  43.319  33.507   3.270
47211W        W15585  10.211  17.230  13.064
47212W        W15586  44.438  15.686  14.312
47213W        W15587   1.330   9.303   0.861
47214W        W15588  18.278  37.934   2.405
47215W        W15589  13.764  16.147   3.786
47216W        W15590  12.325  13.608  10.596
47217W        W15591  40.810  14.130   5.127
47218W        W15592  26.568  44.474   3.657
47219W        W15593   4.232   5.747   1.858
47220W        W15594  31.537  24.510  13.535
47221W        W15595  38.469  27.538   4.724
47222W        W15596  17.731   7.175   3.292
47223W        W15597  27.042  12.839  11.567
47224W        W15598  10.293  10.667  12.357
47225W        W15599  36.465  44.385   1.748
47226W        W15600  44.376  36.940  13.468
47227W        W15601   5.710  30.606  12.992
47228W        W15602  40.858  24.556   4.810
47229W        W15603  43.379  37.864  13.436
47230W        W15604   4.870  18.731  10.988
47231W        W15605   7.829   4.301   1.342
47232W        W15606  12.272  21.216  12.976
47233W        W15607  42.992   9.674  12.553
47234W        W15608   6.384   6.708  11.059
47235W        W15609  18.119  16.207  12.915
47236W        W15610  31.896  13.738  11.875
47237W        W15611   3.868  15.759   0.878
47238W        W15612   6.361  42.956   3.212
47239W        W15613   3.773  42.364   1.763
47240W        W15614  16.142  42.358  13.339
47241W        W15615  39.347  13.113   1.435
47242W        W15616  23.129  13.673  13.997
47243W        W15617  28.119   6.317   4.211
47244W        W15618  15.774  26.549   2.303
47245W        W15619  22.741  41.384   3.248
47246W        W15620  11.326  31.085  10.470
47247W        W15621  10.291  41.815   2.716
47248W        W15622   3.393  43.311  12.095
47249W        W15623  44.797   3.799  12.528
47250W        W15624  39.037  39.545   2.766
47251W        W15625  28.632  24.030  13.985
47252W        W15626  16.621  10.295  11.971
47253W        W15627   6.397  14.617  13.940
47254W        W15628  28.182  25.107   0.402
47255W        W15629   3.446   9.736   3.315
47256W        W15630  29.461  41.390   3.714
47257W        W15631  23.630  25.089  13.371
47258W        W15632  31.529   1.858  12.421
47259W        W15633   6.385   8.808   4.332
47260W        W15634  14.154  36.522  10.466
47261W        W15635  39.484  16.138  12.514
47262W        W15636  33.396  22.210  12.877
47263W        W15637  12.687  12.361   0.840
47264W        W15638  12.152  15.804  12.514
47265W        W15639   5.777  28.979  10.420
47266W        W15640   8.304  35.492  10.521
47267W        W15641   9.856  22.639  12.074
47268W        W15642  22.106  11.755   1.765
47269W        W15643  14.773  12.818   2.862
47270W        W15644  34.399  44.866   1.266
47271W        W15645  23.652   7.177   2.847
47272W        W15646  26.608  27.637   3.224
47273W        W15647  28.619  38.880  11.076
47274W        W15648  15.783  27.540  11.925
47275W        W15649  22.633  32.530   0.433
47276W        W15650  10.351  27.176  10.576
47277W        W15651   9.872  24.230   0.409
47278W        W15652  25.600  22.588  11.372
47279W        W15653  16.148  18.286  11.461
47280W        W15654  39.963   3.768   0.260
47281W        W15655  34.102  31.137  12.877
47282W        W15656  38.014   1.421   0.925
47283W        W15657  39.816   5.225   2.724
47284W        W15658  17.611   4.941   2.753
47285W        W15659  41.321  31.495   4.646
47286W        W15660   0.969  42.910   0.932
47287W        W15661  10.227  25.604   1.224
47288W        W15662  27.692  31.979   1.732
47289W        W15663  30.112   1.732   3.217
47290W        W15664  23.021  43.013  12.095
47291W        W15665  26.590  21.750  12.898
47292W        W15666  27.641  37.924   2.392
47293W        W15667   6.902  21.159  12.413
47294W        W15668  23.580   9.362   3.732
47295W        W15669  38.049  25.696   4.343
47296W        W15670  34.888  35.027   3.179
47297W        W15671  20.102  22.686   2.241
47298W        W15672  32.477  14.111   1.808
47299W        W15673  25.675  18.607   1.707
47300W        W15674   7.184  24.650  14.377
47301W        W15675  12.312  25.181  11.963
47302W        W15676  26.576  38.489  10.001
47303W        W15677  10.365  14.806   0.354
47304W        W15678  12.185   6.696   1.333
47305W        W15679   4.441  24.560   1.817
47306W        W15680  13.645  13.305  11.942
47307W        W15681  16.076  14.246   4.650
47308W        W15682  38.557   2.233   1.935
47309W        W15683  16.312  24.201  12.954
47310W        W15684  22.243  35.484  13.478
47311W        W15685   6.886  35.419  12.445
47312W        W15686  24.149  44.847  14.454
47313W        W15687  31.533  14.094   5.083
47314W        W15688  39.431   9.390  12.945
47315W        W15689  44.285  39.924   2.747
47316W        W15690   6.282  15.756  13.913
47317W        W15691  29.533   2.257   4.753
47318W        W15692  36.928  43.402   1.907
47319W        W15693  33.545  33.985  13.864
47320W        W15694   0.984  15.671  10.914
47321W        W15695  25.199   1.908   1.231
47322W        W15696  21.576  25.634   0.773
47323W        W15697  26.556  32.137  13.309
47324W        W15698   4.344   3.230   3.174
47325W        W15699  34.530  30.928  12.967
47326W        W15700  24.582  28.492  11.030
47327W        W15701  22.519  33.449   0.268
47328W        W15702  40.928  43.321  11.562
47329W        W15703   1.448  18.549   4.774
47330W        W15704  33.047  34.983   2.822
47331W        W15705  24.087   7.197   4.145
47332W        W15706  23.503  24.704  14.866
47333W        W15707  39.032  17.099  14.972
47334W        W15708  18.563   5.245   2.417
47335W        W15709   3.884  21.060   3.227
47336W        W15710  24.087   7.699  12.486
47337W        W15711  16.742   0.822  10.895
47338W        W15712  21.619  23.616   1.702
47339W        W15713   9.734   1.267  12.033
47340W        W15714  12.852  40.359  11.108
47341W        W15715  12.329   3.278   2.357
47342W        W15716  32.500   1.916  10.625
47343W        W15717   0.872  29.668   1.274
47344W        W15718  33.492  26.098  14.487
47345W        W15719   9.791  34.432   0.956
47346W        W15720  12.641  40.427  14.512
47347W        W15721  42.504  26.984   3.365
47348W        W15722  11.761  23.643   4.353
47349W        W15723  34.546  44.408  12.032
47350W        W15724  39.863  32.952  11.532
47351W        W15725  26.484  10.874   0.449
47352W        W15726   6.364  41.973   3.753
47353W        W15727  31.577   1.403   2.414
47354W        W15728  37.955   2.725  13.470
47355W        W15729  43.431  38.919  10.971
47356W        W15730  42.924  11.254  11.421
47357W        W15731  23.051  10.284  12.832
47358W        W15732  26.590  23.655   0.481
47359W        W15733  13.167  37.364   1.781
47360W        W15734   5.706  36.918  13.383
47361W        W15735  41.491   5.370  10.989
47362W        W15736   4.723  31.642  13.836
47363W        W15737  21.706  19.116   0.280
47364W        W15738  19.672   6.788  14.343
47365W        W15739  33.495  27.485   0.311
47366W        W15740  18.081  37.380   2.865
47367W        W15741   9.725  41.519  11.081
47368W        W15742  36.518  10.342  10.410
47369W        W15743  33.891  43.932  12.090
47370W        W15744  17.215   3.789  12.434
47371W        W15745  16.752  39.957   3.762
47372W        W15746   8.263  23.206   2.383
47373W        W15747   0.868  36.977   2.417
47374W        W15748   3.273  44.481   3.745
47375W        W15749  11.231  18.676   3.738
47376W        W15750  20.668  17.220  12.569
47377W        W15751  24.098   0.788   4.321
47378W        W15752  18.592   2.750  14.003
47379W        W15753  42.788  11.726   2.846
47380W        W15754  25.697   8.218   0.792
47381W        W15755  38.931   2.942  12.083
47382W        W15756  20.687   5.789   0.934
47383W        W15757  12.197   1.897  14.795
47384W        W15758  39.362  18.258  11.018
47385W        W15759   9.331   5.298   9.589
47386W        W15760  22.659   8.270  12.912
47387W        W15761  30.991  44.424   0.263
47388W        W15762  16.727  27.630   0.298
47389W        W15763  14.314  31.014   3.663
47390W        W15764  27.096  10.336  13.877
47391W        W15765  17.113   0.296   4.726
47392W        W15766  30.007  27.465  13.353
47393W        W15767  24.528  21.572  14.351
47394W        W15768  28.092  33.544   0.908
47395W        W15769  15.087  33.554  13.419
47396W        W15770   9.852  29.163   5.772
47397W        W15771  23.067  24.603  13.861
47398W        W15772  35.409   7.783   4.143
47399W        W15773  20.525  12.777  10.632
47400W        W15774  14.260  18.619  10.629
47401W        W15775   8.325  43.964  10.634
47402W        W15776  43.350  25.160   1.710
47403W        W15777  31.127  21.142  12.514
47404W        W15778  32.932  34.018  14.849
47405W        W15779  30.027   3.249  12.929
47406W        W15780   6.918  43.375  10.564
47407W        W15781  39.555  44.929   0.434
47408W        W15782  34.611  21.693  10.462
47409W        W15783  26.952  37.075   4.794
47410W        W15784   3.933  11.264   3.330
47411W        W15785  26.536   7.703   3.223
47412W        W15786  29.537  36.541   2.720
47413W        W15787  27.596  42.820   3.838
47414W        W15788  23.028  27.632   3.225
47415W        W15789  43.867  33.570   3.281
47416W        W15790   9.261   2.729  10.621
47417W        W15791  36.001  37.339   3.269
47418W        W15792  29.160  43.904  13.455
47419W        W15793  12.331   9.319  10.466
47420W        W15794  10.220  14.321  12.425
47421W        W15795  20.654  15.114   0.804
47422W        W15796  44.846  40.502  13.308
47423W        W15797   8.686  27.454   2.662
47424W        W15798  15.212   8.674  10.556
47425W        W15799  13.629  25.507   1.365
47426W        W15800   7.799  25.983  11.408
47427W        W15801   8.328  37.836   1.433
47428W        W15802  31.919  23.565   0.277
47429W        W15803  38.974   8.745   4.697
47430W        W15804  18.161   3.760   3.192
47431W        W15805   8.708   0.883  10.619
47432W        W15806  40.471  24.512   3.852
47433W        W15807  44.418  40.891   0.799
47434W        W15808   7.287  28.650   1.270
47435W        W15809  14.816  27.017  10.936
47436W        W15810  18.062  15.295   3.319
47437W        W15811  21.530  44.918  14.360
47438W        W15812  17.561  34.042  14.437
47439W        W15813   6.184  11.133   3.630
47440W        W15814   2.466  14.756   3.701
47441W        W15815  30.450  12.126   4.730
47442W        W15816  28.129  26.146   0.295
47443W        W15817  17.221  13.281  11.037
47444W        W15818  25.198  41.977   4.795
47445W        W15819   9.725  13.621   2.883
47446W        W15820  12.757  19.692   5.311
47447W        W15821  39.890  14.272   2.250
47448W        W15822  16.595  24.101  13.024
47449W        W15823  28.077  34.411  14.413
47450W        W15824  11.720  13.259  14.351
47451W        W15825   7.356  34.023   0.760
47452W        W15826  29.923  28.632  10.409
47453W        W15827  30.042  44.486   3.383
47454W        W15828  41.886   7.300  12.028
47455W        W15829   5.295  26.099  14.321
47456W        W15830   4.712  40.812  10.893
47457W        W15831  26.498  20.266  12.980
47458W        W15832  39.958   8.897  14.465
47459W        W15833  14.589   2.227   3.671
47460W        W15834  14.745  18.700   3.315
47461W        W15835  31.137  32.108   2.331
47462W        W15836  22.242  21.756  13.415
47463W        W15837   5.368  20.099   4.641
47464W        W15838  42.455  10.238  14.007
47465W        W15839  22.665   2.289   4.792
47466W        W15840   1.933   3.722   4.725
47467W        W15841  36.035  43.894   1.903
47468W        W15842  38.859  10.806  14.835
47469W        W15843  30.465  35.511  11.423
47470W        W15844  40.511   7.712  13.977
47471W        W15845  16.614  35.495  13.349
47472W        W15846  32.127  36.088   0.871
47473W        W15847   7.811  37.939  10.477
47474W        W15848  42.011  15.241  11.496
47475W        W15849  27.974  31.512   2.757
47476W        W15850   1.786  38.457   4.221
47477W        W15851  39.877   8.874  12.518
47478W        W15852  23.988   3.849   4.604
47479W        W15853  43.400  17.768   3.723
47480W        W15854  38.422  13.150  13.486
47481W        W15855  16.156  12.120   0.921
47482W        W15856  31.099  31.525   1.385
47483W        W15857  29.093  28.142  13.499
47484W        W15858   0.395  29.131  13.929
47485W        W15859  19.547  19.218   1.862
47486W        W15860  32.413  14.119   2.257
47487W        W15861  33.618  32.998  10.047
47488W        W15862  33.548  32.083  12.484
47489W        W15863  15.650  19.740   0.798
47490W        W15864   1.902  11.170   0.420
47491W        W15865  33.055  35.022  12.861
47492W        W15866   7.348  27.071  10.483
47493W        W15867   7.222  28.457  13.985
47494W        W15868  34.984  42.948   0.733
47495W        W15869  33.602   9.830  12.395
47496W        W15870  26.530   7.384  11.569
47497W        W15871  14.110   3.802  13.811
47498W        W15872  25.653   3.260  10.580
47499W        W15873   8.679   1.872   0.761
47500W        W15874   6.343  27.640  12.969
47501W        W15875  32.135  41.940  11.120
47502W        W15876   9.868  20.079   3.766
47503W        W15877  44.396  22.711  14.002
47504W        W15878   2.823  39.333   2.323
47505W        W15879  39.918  19.205   1.818
47506W        W15880  40.525  10.383   3.647
47507W        W15881  34.577  38.466  14.335
47508W        W15882  42.968  34.951  10.933
47509W        W15883   8.899  11.220   4.176
47510W        W15884  14.670  22.547   4.262
47511W        W15885  39.980   7.252  14.467
47512W        W15886  27.113  16.687  14.794
47513W        W15887  22.204  19.280   4.700
47514W        W15888   5.868  37.518  13.958
47515W        W15889  25.597  26.126  14.414
47516W        W15890  22.027  16.701  10.416
47517W        W15891  33.005  15.723   4.738
47518W        W15892  19.217  20.113  13.463
47519W        W15893   9.788  30.053  13.899
47520W        W15894  16.079  13.253   4.235
47521W        W15895  43.447  34.459  12.859
47522W        W15896  22.162  35.950   2.256
47523W        W15897  30.044  32.001  13.309
47524W        W15898  18.239  37.476   0.759
47525W        W15899  35.462  18.728   2.874
47526W        W15900   7.788  27.523  13.019
47527W        W15901  10.371   1.926  11.609
47528W        W15902  26.143   1.968  11.898
47529W        W15903  32.604  29.462   0.867
47530W        W15904   2.368  28.016   2.327
47531W        W15905  20.656  33.420  11.952
47532W        W15906  33.598   0.333  13.804
47533W        W15907  19.153  44.408   0.944
47534W        W15908   7.270  37.960  14.802
47535W        W15909  10.823  14.220   4.711
47536W        W15910  30.634  23.229   1.274
47537W        W15911  18.160  21.037  12.529
47538W        W15912  10.760  31.064  12.950
47539W        W15913  17.562  15.716   2.873
47540W        W15914  39.511  10.760  13.449
47541W        W15915  42.300  34.050   3.684
47542W        W15916  12.833  27.045  13.333
47543W        W15917   5.891  29.641   1.792
47544W        W15918  33.568  24.576  11.094
47545W        W15919  19.737  10.734   1.808
47546W        W15920  23.700  22.502   1.339
47547W        W15921  30.450  15.673   3.154
47548W        W15922  44.981   7.282   0.759
47549W        W15923   9.388   2.875   1.314
47550W        W15924   0.787  35.531   0.341
47551W        W15925  31.988  17.160  11.101
47552W        W15926   1.900  44.370  10.975
47553W        W15927  40.863  36.933  13.523
47554W        W15928  12.821  16.611  14.823
47555W        W15929  15.663  41.864   2.861
47556W        W15930  18.235  14.611  14.384
47557W        W15931   0.479  25.520   2.702
47558W        W15932  24.152  23.531  12.411
47559W        W15933  24.084   5.313   4.624
47560W        W15934  35.104  26.000   0.875
47561W        W15935  39.829   7.315  12.862
47562W        W15936  32.437   8.259  13.359
47563W        W15937  37.006   1.460  11.441
47564W        W15938   9.705  29.141   0.875
47565W        W15939  25.550   4.346  10.551
47566W        W15940  33.915  13.770   2.275
47567W        W15941  30.990   5.223  14.433
47568W        W15942  32.918   9.197   2.321
47569W        W15943  13.263  25.019  14.009
47570W        W15944  12.840  13.628   3.373
47571W        W15945  10.869  37.868   1.353
47572W        W15946   2.336  21.745   1.843
47573W        W15947  28.127  32.138  13.980
47574W        W15948  37.570   9.814  11.079
47575W        W15949   6.834  36.886   2.864
47576W        W15950  21.697  35.389   0.741
47577W        W15951   7.208   8.900  14.764
47578W        W15952  30.129  25.638  12.420
47579W        W15953  44.501  28.067   2.208
47580W        W15954  24.578  14.650  11.867
47581W        W15955  10.675  32.613  14.969
47582W        W15956  18.553  10.145   0.903
47583W        W15957  25.657  26.575   2.814
47584W        W15958  19.701  27.604   3.333
47585W        W15959  44.477  36.881  11.983
47586W        W15960  30.427   0.444  11.567
47587W        W15961  10.874  19.197   3.276
47588W        W15962  13.332  27.994   9.955
47589W        W15963  41.436  41.323  12.952
47590W        W15964  31.555  37.438  12.524
47591W        W15965  38.443   6.687   4.201
47592W        W15966  30.515  37.469   3.259
47593W        W15967   8.204  27.519  13.332
47594W        W15968  23.496  27.947  12.492
47595W        W15969  42.916  39.923  14.514
47596W        W15970  21.074  41.360  10.980
47597W        W15971  16.154  24.166  14.349
47598W        W15972  39.999  29.559   3.816
47599W        W15973  17.283  16.154   2.705
47600W        W15974  36.043  17.268   1.713
47601W        W15975   1.350   0.876   1.833
47602W        W15976  38.438  17.645  14.500
47603W        W15977   2.807  38.055  11.375
47604W        W15978  14.793  13.221  12.087
47605W        W15979  31.910  37.581  12.343
47606W        W15980   5.717   2.911  11.070
47607W        W15981   1.954  28.611   2.854
47608W        W15982   4.444   4.712  13.909
47609W        W15983  30.945   4.731  13.412
47610W        W15984  16.301   1.471   1.389
47611W        W15985  10.717  40.973   3.748
47612W        W15986  26.182   2.411  10.554
47613W        W15987  21.745  11.171  12.393
47614W        W15988   9.279   0.951  14.470
47615W        W15989   5.869  18.708  14.810
47616W        W15990  30.158   9.223   0.959
47617W        W15991  31.153  31.574   2.242
47618W        W15992  40.848  37.855   0.378
47619W        W15993  44.777  35.960   1.846
47620W        W15994  24.150  41.962  12.051
47621W        W15995  21.037  20.623  10.620
47622W        W15996  27.020  37.539   2.822
47623W        W15997   6.186   3.909   0.760
47624W        W15998  34.499  19.281  13.311
47625W        W15999  32.981  29.483  11.446
47626W        W16000  16.143  32.991  11.427
47627W        W16001  27.070   4.906  13.008
47628W        W16002  32.003  28.580  14.331
47629W        W16003   1.842   5.697   4.664
47630W        W16004  27.678  12.236  12.446
47631W        W16005  25.102  11.697  13.888
47632W        W16006  17.241  39.970   3.168
47633W        W16007  44.453  16.592  12.016
47634W        W16008  11.629  15.212  12.897
47635W        W16009  12.734   4.919   1.330
47636W        W16010  40.804  11.717   1.295
47637W        W16011  34.459   6.189  12.550
47638W        W16012  43.384  12.684   2.674
47639W        W16013  10.879  30.009  14.762
47640W        W16014  28.659  24.555   3.752
47641W        W16015  24.482  25.567   1.750
47642W        W16016  39.903  21.204   4.343
47643W        W16017   4.325  40.976   1.770
47644W        W16018  30.982  38.427  14.029
47645W        W16019  38.508  42.851   0.446
47646W        W16020  33.907   9.253   3.327
47647W        W16021  23.716   6.833   0.361
47648W        W16022  26.650  12.273  11.055
47649W        W16023  41.482  27.533   3.253
47650W        W16024  30.480  33.399   3.303
47651W        W16025  28.628  14.249   2.823
47652W        W16026   7.910   7.733  14.870
47653W        W16027  33.495  18.075  11.054
47654W        W16028  10.273  12.820   0.339
47655W        W16029  30.476  41.502   2.866
47656W        W16030   2.415  16.233  12.835
47657W        W16031  31.627  38.970  11.980
47658W        W16032  18.129  17.279   2.375
47659W        W16033  31.454  14.745  13.831
47660W        W16034  19.246  18.075   0.911
47661W        W16035  30.971  16.291   1.720
47662W        W16036  17.563  10.254  11.414
47663W        W16037  24.573   0.941   3.795
47664W        W16038  35.453  37.506   0.966
47665W        W16039  44.308   9.251  13.954
47666W        W16040  32.412  32.085  14.413
47667W        W16041  35.451  38.511   2.884
47668W        W16042  32.582   4.804  13.047
47669W        W16043  16.154   3.756   4.266
47670W        W16044   4.887  14.127  14.941
47671W        W16045  15.240  20.105   1.733
47672W        W16046  10.236  22.091  10.046
47673W        W16047  18.684   7.728   1.759
47674W        W16048  23.712  33.887   4.248
47675W        W16049   6.312   2.449   0.799
47676W        W16050  23.222  36.886   2.333
47677W        W16051   0.749  19.605   0.458
47678W        W16052  25.016  32.136  10.558
47679W        W16053  23.643  18.547   2.375
47680W        W16054  36.893  24.089   3.812
47681W        W16055  21.140  38.907   2.789
47682W        W16056  32.141  21.691  11.095
47683W        W16057   5.929  29.484   2.832
47684W        W16058  44.443  10.182  13.966
47685W        W16059  20.597  25.480   0.951
47686W        W16060  42.001  27.507  13.837
47687W        W16061  43.449  17.588  12.390
47688W        W16062  35.924  35.552   0.475
47689W        W16063  42.938   9.699   4.831
47690W        W16064   6.245  34.091  12.041
47691W        W16065   5.911  37.567  11.376
47692W        W16066  35.475  41.307   0.847
47693W        W16067   4.280  43.969   4.804
47694W        W16068  22.089  22.088  12.087
47695W        W16069  15.583  13.713  14.796
47696W        W16070  34.530  29.440  14.788
47697W        W16071  25.570  38.938  14.358
47698W        W16072  10.875  15.673  11.552
47699W        W16073  11.833  30.080  11.480
47700W        W16074  22.155  37.058  10.003
47701W        W16075  32.476  36.033  11.507
47702W        W16076  32.565  35.434  11.593
47703W        W16077  34.079  40.396  11.472
47704W        W16078  31.121  25.679  12.442
47705W        W16079  26.623  23.542  10.138
47706W        W16080  32.932   1.251  11.471
47707W        W16081  21.191  40.051  13.464
47708W        W16082  26.683  38.518   3.261
47709W        W16083  41.485  39.881  10.980
47710W        W16084  16.184   1.974   2.401
47711W        W16085  26.471  27.476   2.819
47712W        W16086  11.324  15.755   2.228
47713W        W16087   1.435  21.103   0.255
47714W        W16088  28.988  33.061   0.749
47715W        W16089  33.977   1.932   3.272
47716W        W16090  26.084   3.349   4.777
47717W        W16091   5.417  17.748  13.408
47718W        W16092  20.168  27.465  10.448
47719W        W16093   5.720   3.433   1.830
47720W        W16094  42.339  15.172  14.994
47721W        W16095  24.016  33.999  10.425
47722W        W16096  27.131  20.164   2.195
47723W        W16097  34.939   0.827  14.920
47724W        W16098   5.868   7.856  12.950
47725W        W16099  37.979  35.062  10.939
47726W        W16100  36.030  38.963   3.376
47727W        W16101  33.874  26.658   4.243
47728W        W16102  26.191  26.113  12.881
47729W        W16103  27.582  23.570   0.749
47730W        W16104  30.957  35.393  11.111
47731W        W16105  16.570  37.888  12.082
47732W        W16106  16.244  26.522  14.988
47733W        W16107  19.086  29.010  12.363
47734W        W16108  20.600  38.500  14.363
47735W        W16109  25.512   8.663   1.702
47736W        W16110   8.196  30.479  13.982
47737W        W16111  28.517  16.186   3.185
47738W        W16112  40.405  32.072  14.482
47739W        W16113  26.460  41.468  14.353
47740W        W16114  23.659   9.882  11.394
47741W        W16115   1.804  19.120   3.761
47742W        W16116   2.277  28.039  10.107
47743W        W16117  38.475  17.574  11.859
47744W        W16118  13.725  28.650   2.237
47745W        W16119  21.610  43.785   4.623
47746W        W16120   0.821  40.954  13.805
47747W        W16121   2.370  11.297  12.938
47748W        W16122  26.490  17.188   0.259
47749W        W16123  12.128  34.893   4.733
47750W        W16124  23.153  43.293   0.835
47751W        W16125  20.622  27.658  11.862
47752W        W16126  20.099  18.146  14.372
47753W        W16127  21.623  42.312  12.534
47754W        W16128  14.111  26.530   2.364
47755W        W16129  23.691  25.500  13.939
47756W        W16130   1.408   2.743   4.605
47757W        W16131   4.806  16.221   3.295
47758W        W16132  36.438  23.037  14.347
47759W        W16133   4.416  34.882   0.880
47760W        W16134   1.353  43.887   4.208
47761W        W16135  33.463  24.634  14.871
47762W        W16136  26.049  13.820   0.752
47763W        W16137  18.219  26.017   4.312
47764W        W16138   4.333  32.400   3.274
47765W        W16139  42.994  37.066  11.416
47766W        W16140   9.171  44.799  14.445
47767W        W16141  39.920  35.108  14.366
47768W        W16142  18.704  15.752  13.358
47769W        W16143  23.147  17.270   1.236
47770W        W16144  34.542  14.810   2.790
47771W        W16145  37.502  36.069   4.756
47772W        W16146  37.573  32.398   3.775
47773W        W16147  36.917  10.143   0.932
47774W        W16148  38.345  19.207   1.317
47775W        W16149   7.355  41.976  12.446
47776W        W16150  40.968  42.411   4.143
47777W        W16151   1.444  13.661  12.421
47778W        W16152  32.092  42.920   2.239
47779W        W16153   8.743  16.295   3.836
47780W        W16154   4.851  40.366   2.244
47781W        W16155   3.410  28.149   3.857
47782W        W16156   7.222  25.539   3.353
47783W        W16157  29.504  12.139  12.989
47784W        W16158  40.908  32.971  11.381
47785W        W16159  38.386  13.673   1.813
47786W        W16160  36.846   2.738   0.942
47787W        W16161  25.021  39.454  14.955
47788W        W16162  15.602  27.491   2.322
47789W        W16163  13.834   1.870  12.404
47790W        W16164  20.159  23.708  10.632
47791W        W16165  43.810  28.443  11.572
47792W        W16166   1.783   8.188   1.411
47793W        W16167  26.144  30.095  14.023
47794W        W16168  36.530  40.521  14.313
47795W        W16169  34.056  35.935   4.258
47796W        W16170  26.057   2.937   1.878
47797W        W16171   0.356  25.201   4.124
47798W        W16172  33.008  29.124   3.691
47799W        W16173  16.271  24.170   4.662
47800W        W16174  14.214   0.893   5.235
47801W        W16175  25.160   2.918  11.905
47802W        W16176  19.201  25.202  13.863
47803W        W16177  18.653  21.732   1.907
47804W        W16178  18.061  32.631   2.720
47805W        W16179  28.963  35.872   4.713
47806W        W16180   9.678  10.633  13.062
47807W        W16181  42.910  15.727  14.455
47808W        W16182   2.267  44.466  10.618
47809W        W16183  32.952  44.392  10.934
47810W        W16184  23.093   9.331   4.606
47811W        W16185  18.639  43.321   3.747
47812W        W16186  35.893  25.617   4.640
47813W        W16187  35.580  30.506   2.897
47814W        W16188   8.811  20.768   4.239
47815W        W16189  22.248  25.050  14.855
47816W        W16190  40.985   9.310   1.235
47817W        W16191  12.857  25.203  12.070
47818W        W16192  43.365   8.183   3.661
47819W        W16193  27.975   1.785  12.956
47820W        W16194  44.907   9.693  13.871
47821W        W16195  42.782  37.500  12.433
47822W        W16196  36.072  14.183  11.599
47823W        W16197  37.071   5.244   0.880
47824W        W16198  26.563  10.349  10.570
47825W        W16199  23.144  21.071   4.695
47826W        W16200   7.870  29.553   3.758
47827W        W16201  37.375   0.337  12.569
47828W        W16202  35.892  44.881  14.885
47829W        W16203  29.599   1.354   0.876
47830W        W16204  35.465  25.573   2.207
47831W        W16205   6.840  39.963   0.325
47832W        W16206  16.213   3.406  14.758
47833W        W16207  20.263  18.752  13.462
47834W        W16208  35.478  20.705  10.991
47835W        W16209  38.354  44.410   4.206
47836W        W16210   5.821   6.332   1.846
47837W        W16211  44.922  43.864  12.956
47838W        W16212   1.373   2.767  10.450
47839W        W16213  32.996  28.673   1.375
47840W        W16214  22.164  33.024  13.422
47841W        W16215   3.363  13.116  12.409
47842W        W16216  28.649  24.217  14.827
47843W        W16217  40.436  32.948   3.251
47844W        W16218  22.578   8.665   4.776
47845W        W16219   1.799   6.223   4.215
47846W        W16220  30.584  32.573  13.491
47847W        W16221  35.407  32.016   4.172
47848W        W16222  38.490  29.163  14.868
47849W        W16223  14.686  40.465  13.040
47850W        W16224  13.187  34.378  10.983
47851W        W16225   0.830  28.549  10.533
47852W        W16226  31.053  42.525   2.394
47853W        W16227  23.063  41.931  11.559
47854W        W16228  14.832   5.846   2.737
47855W        W16229   1.454  32.985  10.405
47856W        W16230  41.406  32.437   4.761
47857W        W16231  26.640   2.823   0.255
47858W        W16232  24.682   6.192   1.310
47859W        W16233  24.185  28.646   3.781
47860W        W16234  28.668  37.433  12.477
47861W        W16235  27.065  24.029  11.566
47862W        W16236  29.064  30.545  12.362
47863W        W16237  30.092  32.590  13.984
47864W        W16238  29.599   7.183   5.291
47865W        W16239  14.202  41.362   1.887
47866W        W16240  42.927  23.994  12.926
47867W        W16241  29.449  25.171   0.380
47868W        W16242  35.499   3.896   3.733
47869W        W16243   2.269   6.859  12.986
47870W        W16244  33.550   2.959  10.043
47871W        W16245  20.246   9.193   3.724
47872W        W16246  38.038  30.414  14.472
47873W        W16247  44.428   3.949   4.737
47874W        W16248  44.445  28.029   2.734
47875W        W16249  29.006  27.946   4.341
47876W        W16250  44.819  24.107   1.422
47877W        W16251  16.315  35.087   4.701
47878W        W16252  11.819  15.742  13.503
47879W        W16253   4.757  36.435   2.242
47880W        W16254   2.745   6.251  12.973
47881W        W16255  30.511   7.374  13.834
47882W        W16256   2.854  40.509   1.843
47883W        W16257  28.112  40.009  10.457
47884W        W16258  35.522   3.909  12.428
47885W        W16259   4.352   8.295   1.334
47886W        W16260  14.218  22.010   2.764
47887W        W16261  39.354   8.364   4.603
47888W        W16262   8.166  35.577   0.243
47889W        W16263   8.825   7.804  13.448
47890W        W16264  13.646  32.499  12.989
47891W        W16265  24.093  39.935  13.485
47892W        W16266  29.108  37.840  11.932
47893W        W16267   1.917   1.853   0.422
47894W        W16268  17.748  33.912  13.057
47895W        W16269  17.280   1.838   2.261
47896W        W16270  28.099  19.718  11.106
47897W        W16271  35.404  38.401   4.240
47898W        W16272  38.937  44.883   4.682
47899W        W16273  43.878  12.626   2.838
47900W        W16274  31.425  40.418  14.844
47901W        W16275  44.500   3.235   5.083
47902W        W16276  31.953  16.295  10.503
47903W        W16277  36.434   2.276   4.618
47904W        W16278  28.442  42.281   0.334
47905W        W16279  39.461   2.887  11.462
47906W        W16280  36.986   6.899  13.901
47907W        W16281  13.110   6.847   0.817
47908W        W16282  13.211   5.860   3.145
47909W        W16283  28.650  34.449   0.902
47910W        W16284   2.931  13.773  14.787
47911W        W16285  39.560  43.893  12.934
47912W        W16286   1.739  15.583  13.057
47913W        W16287  11.863  37.944   3.654
47914W        W16288  39.848  22.579  13.314
47915W        W16289  25.197  32.034   4.129
47916W        W16290  40.922  28.136   4.250
47917W        W16291   1.748   3.287   2.308
47918W        W16292  25.613  33.543   2.783
47919W        W16293  37.474   7.327  14.318
47920W        W16294  28.949  13.682   1.419
47921W        W16295  33.526  28.556   3.246
47922W        W16296  22.224   1.846   2.227
47923W        W16297  14.593   7.192  12.518
47924W        W16298   6.271   1.917   3.847
47925W        W16299  29.582  13.180  12.559
47926W        W16300  28.965  37.057   0.775
47927W        W16301   4.839  29.925  12.568
47928W        W16302   1.856   0.377  11.971
47929W        W16303  43.932  30.647   2.694
47930W        W16304   8.190  29.078  14.015
47931W        W16305   1.316   4.925   3.263
47932W        W16306  12.324  28.138   0.481
47933W        W16307  33.602  11.854  14.773
47934W        W16308  31.076  26.615   4.836
47935W        W16309  25.188  32.457   4.808
47936W        W16310  14.651  29.447  11.584
47937W        W16311  40.342  37.993   2.799
47938W        W16312   4.354   5.253  14.967
47939W        W16313  40.990  44.282  13.386
47940W        W16314  27.031  23.018  10.902
47941W        W16315  17.788  28.955  12.897
47942W        W16316   1.447  13.210   2.748
47943W        W16317  18.192  14.100   4.164
47944W        W16318   5.276  12.815   4.740
47945W        W16319  43.837  40.021   2.190
47946W        W16320  32.456  23.694  13.328
47947W        W16321  18.601  36.531  11.505
47948W        W16322  31.006  17.664   2.320
47949W        W16323   3.953  17.139  13.974
47950W        W16324  42.987   0.338  11.584
47951W        W16325  29.573   2.300  11.048
47952W        W16326   4.793  24.057  13.064
47953W        W16327  13.689  11.670  14.969
47954W        W16328   0.465   1.751   4.124
47955W        W16329  25.529   6.860   1.832
47956W        W16330   8.166  35.933  10.459
47957W        W16331   2.948  40.996  14.381
47958W        W16332  24.681  19.739   2.756
47959W        W16333   2.847  28.501   0.752
47960W        W16334  34.435  24.534   0.769
47961W        W16335  14.100  10.717   4.740
47962W        W16336  36.478   9.263  11.958
47963W        W16337  19.620   2.466  10.983
47964W        W16338  17.305  28.479  12.385
47965W        W16339  19.213  35.969  13.047
47966W        W16340  26.491  14.791   0.465
47967W        W16341  12.725  29.133   2.841
47968W        W16342  23.169  37.376  10.455
47969W        W16343  33.518  37.564  11.117
47970W        W16344  15.671  22.614   2.316
47971W        W16345  25.525  30.633   2.353
47972W        W16346  40.308   1.843  11.510
47973W        W16347   0.422  10.670   3.346
47974W        W16348  30.413  27.057  14.313
47975W        W16349  33.930  22.171   3.640
47976W        W16350  23.508  24.507   0.864
47977W        W16351  34.443  21.528   2.884
47978W        W16352   4.720  18.199   4.666
47979W        W16353  19.760  30.933  11.883
47980W        W16354  44.303  42.857   4.282
47981W        W16355   3.737  27.994  11.380
47982W        W16356  25.108  25.022  12.030
47983W        W16357   7.267  39.863   4.134
47984W        W16358  13.120  38.492   1.302
47985W        W16359  31.419  44.878   1.827
47986W        W16360  38.889  43.371   1.314
47987W        W16361  27.539   4.233  10.633
47988W        W16362  27.084  43.848   0.857
47989W        W16363  25.970  30.639  13.043
47990W        W16364  13.112   3.401  14.283
47991W        W16365   1.823  43.312   0.348
47992W        W16366  29.166  26.044   4.137
47993W        W16367  11.172  42.384   0.809
47994W        W16368   5.843  24.580   5.112
47995W        W16369  44.857  12.206   2.178
47996W        W16370  20.247  23.667  14.894
47997W        W16371   5.756  11.687  12.501
47998W        W16372  17.152  17.077   3.214
47999W        W16373  44.781  35.966  14.003
48000W        W16374  14.651  16.268   2.760
48001W        W16375  18.558  38.372   0.734
48002W        W16376   4.221  21.700   3.368
48003W        W16377  20.264  29.110   3.310
48004W        W16378  10.288  38.000   4.747
48005W        W16379  42.454   1.307   1.897
48006W        W16380  29.571  36.428   1.789
48007W        W16381   5.214   5.886  11.397
48008W        W16382   6.375   9.213  10.644
48009W        W16383  39.398  41.788  14.843
48010W        W16384  43.966  20.242  11.885
48011W        W16385   0.330  16.113  11.978
48012W        W16386   4.779  37.397   2.356
48013W        W16387  38.328  25.046  11.533
48014W        W16388  41.419  11.639  13.354
48015W        W16389   8.161  15.216   4.685
48016W        W16390  40.895  33.019  10.567
48017W        W16391  10.772  15.734   2.716
48018W        W16392  31.959  13.161   4.803
48019W        W16393   5.914  32.079   3.849
48020W        W16394  27.193  36.574   0.910
48021W        W16395  31.457  19.547   0.923
48022W        W16396  29.986  27.013   1.410
48023W        W16397  18.605  28.107  10.967
48024W        W16398   6.413  17.796   4.673
48025W        W16399  13.299   9.345   4.702
48026W        W16400  24.670  29.485   9.667
48027W        W16401  44.431  19.648   1.428
48028W        W16402  19.127  39.841   2.342
48029W        W16403  16.077  38.953   3.297
48030W        W16404  23.601  20.104  10.892
48031W        W16405   1.918   2.258   1.821
48032W        W16406  31.484  16.696   0.365
48033W        W16407  32.016   8.840  11.122
48034W        W16408  38.922  36.452  10.021
48035W        W16409  35.525  40.979  11.525
48036W        W16410  32.051  36.067  12.952
48037W        W16411  26.180  19.750   0.941
48038W        W16412  32.559  25.000  11.518
48039W        W16413  31.983  13.765   1.816
48040W        W16414  33.430   8.862  11.466
48041W        W16415  10.770  23.615  13.320
48042W        W16416  16.199  42.830  12.566
48043W        W16417  43.472  16.084  12.382
48044W        W16418  42.417  34.020   3.196
48045W        W16419  21.200   4.907   2.352
48046W        W16420  26.189  34.107   2.868
48047W        W16421  17.231  40.835   4.626
48048W        W16422  44.500  35.501  10.619
48049W        W16423  11.342  33.005  12.414
48050W        W16424   3.903  40.913  12.878
48051W        W16425  31.494  28.637  14.025
48052W        W16426  28.130  10.372   2.267
48053W        W16427  15.328  27.469   4.762
48054W        W16428   8.744  20.226   0.883
48055W        W16429  13.819  32.621   2.299
48056W        W16430  29.488   4.309  10.571
48057W        W16431   3.450  11.721   4.344
48058W        W16432  28.085  19.556  10.120
48059W        W16433   9.701  36.508  13.845
48060W        W16434  14.684  36.864  14.857
48061W        W16435   7.360  39.960  11.464
48062W        W16436  10.644  28.997   0.319
48063W        W16437  10.843  35.961  11.863
48064W        W16438   5.735  38.460  10.897
48065W        W16439  33.487   1.788   4.223
48066W        W16440   5.721  24.557  12.907
48067W        W16441   0.288   1.279  13.312
48068W        W16442  21.511   2.447   0.252
48069W        W16443  29.636  22.244  12.426
48070W        W16444   0.758   7.309  12.907
48071W        W16445  30.055   2.285   4.622
48072W        W16446  20.754  29.483   0.327
48073W        W16447  12.204  30.614   4.721
48074W        W16448  44.275  10.368  11.060
48075W        W16449  35.980  34.978   0.875
48076W        W16450   3.893  39.917   3.202
48077W        W16451  15.712  25.685  11.057
48078W        W16452  33.447  36.066  10.457
48079W        W16453  15.793  36.473  10.444
48080W        W16454   5.891  39.933  11.486
48081W        W16455  18.606  23.165  12.980
48082W        W16456  27.527   1.400   2.762
48083W        W16457  44.798  21.695   3.639
48084W        W16458  34.444  23.182   4.632
48085W        W16459   0.807  38.870   4.296
48086W        W16460  32.621  19.281  13.379
48087W        W16461  34.935  36.029  14.415
48088W        W16462   5.279  24.094   0.734
48089W        W16463  31.629   0.959  13.818
48090W        W16464  16.280  31.485   3.856
48091W        W16465  34.424  40.519   3.220
48092W        W16466  14.134  36.387  12.396
48093W        W16467  33.438   2.838  12.044
48094W        W16468   0.386  35.447   3.361
48095W        W16469  36.971  15.799   0.319
48096W        W16470  20.597   8.308   4.181
48097W        W16471  21.237   9.261   3.723
48098W        W16472  23.546  20.545   1.816
48099W        W16473  13.228   5.839  12.856
48100W        W16474  31.423  15.710   2.666
48101W        W16475  17.243  42.848   1.698
48102W        W16476  40.417   2.808  11.389
48103W        W16477  29.136  25.980  13.388
48104W        W16478  24.150   1.934   2.809
48105W        W16479  30.034  25.481   3.861
48106W        W16480  15.144  26.968  11.546
48107W        W16481  22.514  12.707   9.957
48108W        W16482  20.739  42.500  12.390
48109W        W16483  13.209   5.711  11.028
48110W        W16484  36.867  30.560  13.503
48111W        W16485  44.486  42.026   4.142
48112W        W16486  38.505  15.125  10.619
48113W        W16487  28.037  32.625  11.594
48114W        W16488  15.300  28.564  10.468
48115W        W16489  14.244  21.719  14.974
48116W        W16490  11.203   0.763  12.352
48117W        W16491  15.202  20.743  11.942
48118W        W16492  14.264  14.248  13.953
48119W        W16493   6.918  40.343   4.152
48120W        W16494  10.205  38.534   1.384
48121W        W16495  38.527  16.635  10.624
48122W        W16496  11.277  37.922   2.257
48123W        W16497   8.821  26.658   3.703
48124W        W16498   8.197  17.669   1.272
48125W        W16499  40.319  31.985  11.948
48126W        W16500  12.316  39.863  11.444
48127W        W16501  17.612  23.671  11.540
48128W        W16502  22.690  40.431  10.077
48129W        W16503  10.331  25.514  10.045
48130W        W16504  19.130  17.750  12.847
48131W        W16505  42.007  35.544   4.725
48132W        W16506  15.818  43.299  13.424
48133W        W16507  23.177  10.276  10.993
48134W        W16508  40.396  36.853   1.379
48135W        W16509  24.228  33.978  14.862
48136W        W16510  35.488   7.874  10.463
48137W        W16511  31.012  15.802   4.206
48138W        W16512  34.868   0.923   0.467
48139W        W16513  15.790  38.909  12.024
48140W        W16514  12.773   3.946  12.069
48141W        W16515   0.414  13.708  13.965
48142W        W16516  16.298   3.289   3.376
48143W        W16517  39.449  19.086   0.921
48144W        W16518  36.001  44.315  14.310
48145W        W16519  31.953  15.815  12.428
48146W        W16520   1.372  33.509  13.348
48147W        W16521  39.017  17.176   1.770
48148W        W16522  29.469  38.411  13.900
48149W        W16523  12.361  42.778   1.790
48150W        W16524   9.837  11.283  10.606
48151W        W16525  30.564  36.549  13.500
48152W        W16526  24.148  11.301   0.868
48153W        W16527  12.196  11.692  11.374
48154W        W16528  19.088  27.639   1.751
48155W        W16529  25.966  23.645   0.252
48156W        W16530   9.751  15.760  10.948
48157W        W16531  16.710  13.225   1.247
48158W        W16532   6.364  33.513  14.423
48159W        W16533  34.401  30.451   0.752
48160W        W16534   6.768  22.699   4.751
48161W        W16535   6.242  34.553  13.471
48162W        W16536   9.886   6.321  13.979
48163W        W16537  35.502  23.073   4.735
48164W        W16538   2.930  27.148  14.400
48165W        W16539  35.429  10.854   1.833
48166W        W16540  16.136   6.814  14.334
48167W        W16541  26.989  24.624  12.908
48168W        W16542  16.288  21.154   4.170
48169W        W16543  11.170  26.695  11.009
48170W        W16544  13.616  28.040   2.252
48171W        W16545  12.760  40.533   5.267
48172W        W16546   4.287  25.589  12.527
48173W        W16547  35.372  37.480   2.853
48174W        W16548  12.642  21.645  13.012
48175W        W16549  42.885  25.156   1.268
48176W        W16550  42.296  29.931  13.046
48177W        W16551   3.268  19.767  12.349
48178W        W16552  29.946  21.092  14.783
48179W        W16553  22.677  38.022  14.452
48180W        W16554  38.504  44.477   1.911
48181W        W16555  27.687  34.885  11.048
48182W        W16556   8.796  43.905   4.815
48183W        W16557  18.288   8.357  12.535
48184W        W16558  14.781  21.741   1.873
48185W        W16559  31.011  36.540   2.861
48186W        W16560  18.720  17.070   1.341
48187W        W16561  25.167  28.617   4.733
48188W        W16562  29.612  18.592   1.318
48189W        W16563   2.423  18.225   4.601
48190W        W16564  13.185  13.272  11.505
48191W        W16565   8.204  33.586   4.780
48192W        W16566  28.077  23.027  12.012
48193W        W16567  16.313   7.761  13.523
48194W        W16568  26.690  15.599   2.367
48195W        W16569   9.790  40.502   0.452
48196W        W16570  44.355   2.410   1.223
48197W        W16571  37.460  41.831  11.482
48198W        W16572   8.347  18.260  12.969
48199W        W16573  44.317  31.433   1.386
48200W        W16574   4.726  13.250   5.216
48201W        W16575   4.221  34.093  11.561
48202W        W16576  33.074  34.519   3.145
48203W        W16577  31.560  19.700   3.308
48204W        W16578  28.675  26.031   1.364
48205W        W16579  27.632  41.013  14.359
48206W        W16580  17.137   7.680   3.169
48207W        W16581  23.703   5.193  12.345
48208W        W16582  10.324  30.963   3.750
48209W        W16583  25.138  38.542   4.248
48210W        W16584  10.845  33.087  14.462
48211W        W16585  36.584  38.830   2.277
48212W        W16586  13.214  31.905   9.970
48213W        W16587   9.670  15.214  12.565
48214W        W16588   9.356   9.174   2.680
48215W        W16589   5.912  42.852  13.545
48216W        W16590   8.355  22.012   1.851
48217W        W16591   1.848  31.950   4.181
48218W        W16592  17.088  19.207  11.121
48219W        W16593  11.864  12.633   1.716
48220W        W16594  32.074  39.996  13.312
48221W        W16595  25.522  30.090  10.892
48222W        W16596   6.816  13.707   0.247
48223W        W16597  42.360  19.585   0.876
48224W        W16598  27.045  39.911   1.438
48225W        W16599  29.594  21.711  13.423
48226W        W16600  40.798  30.164  12.556
48227W        W16601  11.239  30.559  11.563
48228W        W16602  36.022  15.591   2.192
48229W        W16603  10.751  25.008  10.475
48230W        W16604  38.518  43.396   0.336
48231W        W16605  24.106  18.679  12.573
48232W        W16606  42.961   3.410   4.744
48233W        W16607  26.999  43.923   5.125
48234W        W16608  15.220  15.329   1.392
48235W        W16609  35.097  12.241   1.854
48236W        W16610   2.225   4.206   0.839
48237W        W16611  33.045  18.120   4.278
48238W        W16612   7.288  35.933  13.414
48239W        W16613  44.407  32.493  14.439
48240W        W16614  20.566  14.213  11.610
48241W        W16615  16.702   9.754   2.811
48242W        W16616  42.442   7.825  14.355
48243W        W16617   7.243  24.191   2.843
48244W        W16618   2.343   8.279  12.836
48245W        W16619  28.945  18.618   3.678
48246W        W16620   9.262  38.463  13.957
48247W        W16621   9.659  31.109   4.342
48248W        W16622  24.174  20.235  11.436
48249W        W16623  37.979  32.434   0.306
48250W        W16624   0.911   8.271  11.564
48251W        W16625  27.617   3.864  12.461
48252W        W16626  17.774  32.523   1.918
48253W        W16627  25.973   1.737  12.947
48254W        W16628  36.995   7.744  12.551
48255W        W16629  40.828  37.045  11.026
48256W        W16630  43.802   3.351  13.391
48257W        W16631  24.071  14.312   0.766
48258W        W16632   9.222  11.164  12.539
48259W        W16633   9.646  10.225  13.966
48260W        W16634  10.799   3.338   2.316
48261W        W16635   5.855  18.712  11.534
48262W        W16636  33.954  22.249  10.926
48263W        W16637  17.618  44.983  12.049
48264W        W16638  19.139  22.196   1.368
48265W        W16639  29.148  21.043  10.903
48266W        W16640   9.395   4.928  11.418
48267W        W16641  11.642  37.377  12.409
48268W        W16642   4.402  35.598  13.818
48269W        W16643  30.071  30.512   1.390
48270W        W16644  30.490  43.894   3.688
48271W        W16645  43.513   3.396  14.953
48272W        W16646  21.686  41.814  11.586
48273W        W16647   6.250  32.998   3.663
48274W        W16648   8.207  13.693   1.255
48275W        W16649  31.612  44.366  12.863
48276W        W16650  26.459  29.579  14.990
48277W        W16651  33.890   5.364   4.806
48278W        W16652  17.604  28.024   0.918
48279W        W16653  11.241  14.143  10.608
48280W        W16654  29.997  17.609   2.819
48281W        W16655  36.885  20.215   4.137
48282W        W16656  25.545  38.869   0.740
48283W        W16657  33.042  25.141  10.416
48284W        W16658  26.677  28.984   1.414
48285W        W16659  40.352   1.940   4.612
48286W        W16660  34.120  17.787   0.391
48287W        W16661   3.947  31.434   4.704
48288W        W16662   9.359  35.017  13.999
48289W        W16663   2.732  16.648  13.437
48290W        W16664  19.154  30.454  10.895
48291W        W16665  15.725  38.524   3.774
48292W        W16666  35.518  21.705   1.254
48293W        W16667  34.551   1.756   0.464
48294W        W16668  32.060   1.886   1.450
48295W        W16669  43.498  41.036  13.444
48296W        W16670  30.157  40.917  14.479
48297W        W16671  17.595   1.752  11.888
48298W        W16672  19.059   0.324   1.925
48299W        W16673   3.756  13.213   4.838
48300W        W16674  26.541   2.450   1.375
48301W        W16675  18.195   9.830  11.075
48302W        W16676  26.168   0.341  12.094
48303W        W16677   3.367  34.458  12.539
48304W        W16678  36.934  21.526  13.903
48305W        W16679  44.994  29.118   1.736
48306W        W16680  15.278  11.186   1.845
48307W        W16681  14.805  10.274  12.412
48308W        W16682  23.161  37.994  13.393
48309W        W16683  19.699   2.346   0.285
48310W        W16684  35.968  11.174   4.271
48311W        W16685  32.544  24.989  12.876
48312W        W16686  10.674  14.098   0.829
48313W        W16687  15.682  36.958  10.495
48314W        W16688  29.556   5.278  11.556
48315W        W16689  24.532  31.418  10.113
48316W        W16690  28.484  40.417  10.896
48317W        W16691  39.326  17.165  12.914
48318W        W16692  28.643  13.790   0.730
48319W        W16693  33.876  36.511   1.221
48320W        W16694   4.352  42.963   0.960
48321W        W16695   1.763  40.991  14.799
48322W        W16696  44.319  22.673  14.944
48323W        W16697   5.248  20.580   4.260
48324W        W16698   5.744  30.043  10.128
48325W        W16699  28.084  16.222  13.381
48326W        W16700   7.360   1.856   2.901
48327W        W16701  36.981  25.689  11.060
48328W        W16702   8.181  11.638  13.939
48329W        W16703  11.310  28.973  13.548
48330W        W16704  35.074  36.558  12.552
48331W        W16705  14.743   0.263   3.803
48332W        W16706   8.175   0.455   2.357
48333W        W16707  27.532  32.017   4.219
48334W        W16708  20.094  35.065  13.037
48335W        W16709   7.257  29.609  12.522
48336W        W16710   5.415  42.991   2.291
48337W        W16711  33.544  21.666   2.395
48338W        W16712  29.018  31.121  11.514
48339W        W16713  33.484  32.477  13.941
48340W        W16714  39.471   1.946   0.451
48341W        W16715  35.872   4.278  10.433
48342W        W16716  28.158  42.340  10.995
48343W        W16717  40.323   6.365   1.760
48344W        W16718  26.000  26.613   9.928
48345W        W16719  38.334  26.963  10.525
48346W        W16720  19.131  42.398  13.023
48347W        W16721   0.413  24.533   4.233
48348W        W16722   8.667   5.272   4.836
48349W        W16723  33.571  10.339   2.883
48350W        W16724  12.204  22.561   3.682
48351W        W16725   9.217  25.550   4.217
48352W        W16726  44.898  12.622   0.943
48353W        W16727  15.304  31.146  14.928
48354W        W16728  24.604  41.037  10.964
48355W        W16729  33.397  30.598  11.411
48356W        W16730  32.439  32.886  12.411
48357W        W16731  30.144  17.201  11.926
48358W        W16732  10.877  21.526  10.967
48359W        W16733  12.856  14.663  11.601
48360W        W16734  16.147  27.520  14.473
48361W        W16735  36.067   3.874   0.931
48362W        W16736   0.875  40.360   4.238
48363W        W16737  42.396   9.316   4.153
48364W        W16738  22.215  41.410  14.972
48365W        W16739   4.333   7.191  13.401
48366W        W16740  16.699  38.067  13.963
48367W        W16741  39.451  44.410   3.671
48368W        W16742  21.247  41.360   0.369
48369W        W16743  43.358  23.546  10.065
48370W        W16744  11.137  10.763  11.524
48371W        W16745  21.164  14.605   5.148
48372W        W16746   5.695  11.716   1.354
48373W        W16747  11.315  13.238  13.445
48374W        W16748  44.421  29.427  12.434
48375W        W16749  14.193  19.230   4.801
48376W        W16750  18.065  23.525  12.837
48377W        W16751   8.753  44.827  14.493
48378W        W16752  40.804   1.260  12.915
48379W        W16753  32.927   3.336   4.180
48380W        W16754   7.313   7.342  10.418
48381W        W16755  41.902  16.722   1.791
48382W        W16756  25.214  12.744  13.314
48383W        W16757   7.815  25.607   3.377
48384W        W16758  36.861  26.989   2.228
48385W        W16759  14.188  32.137  11.587
48386W        W16760   3.805  21.083   2.845
48387W        W16761  26.027  25.086   0.284
48388W        W16762  11.697  13.280  11.462
48389W        W16763  39.828  17.067  12.046
48390W        W16764   6.876  23.568   5.625
48391W        W16765  31.486  18.673   3.380
48392W        W16766  31.413   7.893   4.294
48393W        W16767  38.996  21.162  11.536
48394W        W16768  37.478  26.653   2.706
48395W        W16769  13.766   0.344  14.459
48396W        W16770   4.924  28.487   0.373
48397W        W16771   4.759  30.452   3.650
48398W        W16772  33.114  26.014  14.834
48399W        W16773  41.366  21.650   2.399
48400W        W16774  10.192   7.214   1.360
48401W        W16775  14.254   4.819  10.637
48402W        W16776  19.559  10.820   4.256
48403W        W16777  26.664  36.883   1.250
48404W        W16778  19.658  29.929  12.526
48405W        W16779  26.478  36.876  14.965
48406W        W16780  10.268  17.194   5.224
48407W        W16781   2.738  40.860   4.302
48408W        W16782  17.290  43.418  14.876
48409W        W16783  12.734   0.852   4.784
48410W        W16784  41.950  43.812  14.881
48411W        W16785  27.529  22.519  10.909
48412W        W16786  35.989  41.324   0.439
48413W        W16787  33.625   9.281  10.000
48414W        W16788  28.623   3.895   4.275
48415W        W16789  43.861  10.822  11.982
48416W        W16790  20.233  40.333  12.448
48417W        W16791  36.547  14.631  10.895
48418W        W16792   8.659  14.118   2.736
48419W        W16793  31.047  20.754  10.945
48420W        W16794   8.689  18.196   4.621
48421W        W16795   8.330  33.058   0.779
48422W        W16796  19.154  26.664  14.899
48423W        W16797   7.186  14.323  12.027
48424W        W16798  19.773   6.294  12.341
48425W        W16799  30.546  15.731  11.558
48426W        W16800  43.508  43.446  12.023
48427W        W16801  13.696   3.906   0.329
48428W        W16802  19.578  27.168  11.586
48429W        W16803  44.900  35.448   1.739
48430W        W16804  36.592  39.464   2.845
48431W        W16805  12.344   7.666  11.471
48432W        W16806  40.036  14.735   2.189
48433W        W16807  37.050  44.459   4.685
48434W        W16808  19.737   5.861   2.707
48435W        W16809  23.507  20.539  14.856
48436W        W16810  23.997   1.316  10.571
48437W        W16811  18.231  39.425  11.987
48438W        W16812   9.318  27.963  12.968
48439W        W16813   3.846  40.393  11.381
48440W        W16814  23.625   0.808   4.722
48441W        W16815   9.790  11.293  13.452
48442W        W16816   3.412  39.029  12.028
48443W        W16817   6.196   1.861   1.302
48444W        W16818  39.445  27.656  11.539
48445W        W16819  43.372  25.568   4.782
48446W        W16820  37.973   4.285   4.245
48447W        W16821  24.552  22.639  13.339
48448W        W16822  10.140   1.884  10.921
48449W        W16823   1.426  30.489   3.364
48450W        W16824  12.667   4.306   0.896
48451W        W16825  37.468  20.035   1.805
48452W        W16826   0.925  29.475   1.881
48453W        W16827  21.176  34.920  13.848
48454W        W16828  43.515  44.875   2.699
48455W        W16829  10.272  39.353   1.737
48456W        W16830  12.814  30.612  12.989
48457W        W16831   1.752  44.818   1.415
48458W        W16832   4.870  25.652  13.027
48459W        W16833  17.775  43.903   2.336
48460W        W16834   6.883  38.898  12.008
48461W        W16835  37.994  39.935  12.357
48462W        W16836  11.790  34.473  12.963
48463W        W16837  15.124   4.395  12.522
48464W        W16838   1.275   5.756   1.443
48465W        W16839  11.714  16.750  12.551
48466W        W16840  12.615   6.284   1.891
48467W        W16841  22.235  36.990   2.338
48468W        W16842  37.901  24.512  12.387
48469W        W16843  41.292  29.174   2.860
48470W        W16844  33.468   9.320  11.987
48471W        W16845   3.955   5.806   1.327
48472W        W16846  44.501  34.584   0.952
48473W        W16847   0.386   2.306  10.935
48474W        W16848  34.493  44.435  10.906
48475W        W16849  33.438  18.221  13.867
48476W        W16850  29.503  38.860   4.811
48477W        W16851  10.171  21.108  11.926
48478W        W16852  25.124   8.285   4.638
48479W        W16853  20.165   4.318   4.354
48480W        W16854  11.677  19.711   3.312
48481W        W16855  10.843  15.785   1.922
48482W        W16856  18.729  24.511  12.372
48483W        W16857   3.338  13.846   1.712
48484W        W16858  31.069  15.112   4.671
48485W        W16859  16.170   0.822  14.030
48486W        W16860   6.785   1.844   2.327
48487W        W16861  10.189  34.569  12.415
48488W        W16862   5.207  16.699  13.497
48489W        W16863  11.755   5.229  13.347
48490W        W16864  30.039  11.311   4.131
48491W        W16865   5.247  19.249   3.302
48492W        W16866   5.423  22.121  12.952
48493W        W16867  31.105  18.663  14.429
48494W        W16868   0.813  37.970   2.827
48495W        W16869  20.196  24.531  11.582
48496W        W16870   6.315  32.541   2.353
48497W        W16871  33.580   5.731   1.385
48498W        W16872  39.892  18.111   2.863
48499W        W16873   5.803  32.514   4.250
48500W        W16874  24.212  26.668  12.422
48501W        W16875  14.740  23.110  14.868
48502W        W16876  32.961   8.261  13.417
48503W        W16877   2.819  35.017  12.439
48504W        W16878  18.112  41.964   0.963
48505W        W16879  33.556  19.175   1.804
48506W        W16880  38.866  11.282   4.823
48507W        W16881  12.127  18.668   0.882
48508W        W16882  30.465  42.447   3.261
48509W        W16883  24.078  34.012   4.234
48510W        W16884  36.552  36.975   2.293
48511W        W16885   8.210  34.057   4.766
48512W        W16886  28.478   5.707   3.679
48513W        W16887   0.389  40.376  10.987
48514W        W16888  29.015  43.872  13.050
48515W        W16889  18.732  19.225   4.788
48516W        W16890  22.741  38.917   2.843
48517W        W16891   4.754  27.661   2.844
48518W        W16892  11.233   7.677   2.355
48519W        W16893  39.466  22.625  10.558
48520W        W16894   4.257  21.664  12.425
48521W        W16895  17.743  40.520   2.878
48522W        W16896  22.017   8.726   1.926
48523W        W16897   8.784   0.489   2.859
48524W        W16898  27.080  43.850  10.621
48525W        W16899   3.930  14.789   3.731
48526W        W16900  15.132  16.263   2.405
48527W        W16901  25.489  36.410  13.403
48528W        W16902  20.133   2.816  10.957
48529W        W16903   2.884  36.047   2.357
48530W        W16904  26.591  25.210  10.551
48531W        W16905  41.869  35.434  12.034
48532W        W16906  34.030   7.173   1.447
48533W        W16907   1.304   2.762   0.825
48534W        W16908  25.588  20.263   2.407
48535W        W16909  24.153  34.982  12.489
48536W        W16910  32.011   8.182  11.498
48537W        W16911  24.041  23.996   4.754
48538W        W16912  33.420   4.257  11.103
48539W        W16913   0.330  36.537  14.312
48540W        W16914  17.742   2.358   3.653
48541W        W16915   8.195   1.779   1.798
48542W        W16916  11.352  21.071   2.381
48543W        W16917   4.349  28.048  12.373
48544W        W16918  43.900  12.653  12.849
48545W        W16919  29.989   5.375   1.734
48546W        W16920  21.033  39.015   2.224
48547W        W16921   4.872  16.656   3.799
48548W        W16922  42.431  32.396   4.230
48549W        W16923  17.210  19.221  12.360
48550W        W16924  11.801  14.680   1.728
48551W        W16925  28.674  14.798   0.275
48552W        W16926  10.180  33.008   1.263
48553W        W16927  29.030  23.174   3.217
48554W        W16928  29.664   8.318   2.184
48555W        W16929   3.927   3.458  12.020
48556W        W16930  13.229  10.259   9.960
48557W        W16931   5.692  32.965  10.508
48558W        W16932  16.705  33.510  12.920
48559W        W16933  28.538  35.361  12.009
48560W        W16934   0.882  25.046  10.525
48561W        W16935  36.932  31.901  11.444
48562W        W16936  18.725  39.009   1.728
48563W        W16937  22.632  44.299  12.911
48564W        W16938  18.255   6.827   3.314
48565W        W16939  21.109  22.588   0.886
48566W        W16940  43.389   7.189   4.141
48567W        W16941  23.587   5.834   1.832
48568W        W16942  18.245  10.366   3.753
48569W        W16943  37.440  19.272  10.460
48570W        W16944  37.988   2.355  11.465
48571W        W16945  22.016  22.584   0.288
48572W        W16946  40.346  26.573  10.457
48573W        W16947  32.050  13.307  12.061
48574W        W16948   6.870  26.608  13.333
48575W        W16949  29.507  22.628  13.333
48576W        W16950  42.801  34.379  12.545
48577W        W16951  23.626  24.509   1.382
48578W        W16952   2.325  36.023  12.475
48579W        W16953  26.508   4.300   3.326
48580W        W16954  39.319  25.516  12.089
48581W        W16955  38.028  35.077   2.240
48582W        W16956   1.282  13.267  11.091
48583W        W16957   2.251  23.102  14.775
48584W        W16958  16.099  31.905  13.040
48585W        W16959  41.916  30.566   0.296
48586W        W16960  13.137  32.535   4.702
48587W        W16961   8.788  21.534  14.345
48588W        W16962  41.867  34.938  12.559
48589W        W16963  32.953  12.256   2.385
48590W        W16964   2.730  42.382   2.885
48591W        W16965  20.180  38.967  12.915
48592W        W16966  40.477  36.528  10.576
48593W        W16967   9.789  29.485  10.989
48594W        W16968  28.114  16.751   1.783
48595W        W16969  40.991  30.634  13.963
48596W        W16970  22.667  36.957  12.025
48597W        W16971   2.444   3.952  13.850
48598W        W16972  28.102  25.621   0.952
48599W        W16973  20.687  40.012  11.060
48600W        W16974  15.234   7.813   0.332
48601W        W16975   7.908  10.817   1.361
48602W        W16976  25.579  41.464   4.130
48603W        W16977   6.247  13.635   1.244
48604W        W16978  30.017  35.540  10.622
48605W        W16979  12.314  11.140   3.858
48606W        W16980   6.407  21.694   4.184
48607W        W16981   5.204   8.221  12.038
48608W        W16982  20.737   8.658  13.527
48609W        W16983   6.836  11.237   2.745
48610W        W16984  34.551  10.281  14.331
48611W        W16985  17.078  43.373  11.127
48612W        W16986  35.090  39.889  13.309
48613W        W16987   7.881   8.713  14.840
48614W        W16988  16.740  32.932  14.778
48615W        W16989  38.390   1.377  10.621
48616W        W16990  43.477  25.555   1.921
48617W        W16991   8.222  25.051   4.643
48618W        W16992  38.543  33.545   2.884
48619W        W16993  17.232  25.707   4.604
48620W        W16994  40.337  43.772  13.912
48621W        W16995  18.789   7.666  10.434
48622W        W16996  38.820  37.428  11.530
48623W        W16997  17.129  27.645   3.724
48624W        W16998   5.772  37.049  14.510
48625W        W16999  12.703  31.128   0.453
48626W        W17000  43.501  31.019   4.137
48627W        W17001  26.681   4.406  14.341
48628W        W17002  32.026  27.623  14.417
48629W        W17003   9.690  15.242  14.510
48630W        W17004  31.582  29.025   0.778
48631W        W17005   0.408  30.582  14.002
48632W        W17006  23.202  25.494  14.019
48633W        W17007  17.693  26.506   0.362
48634W        W17008  39.483   1.873  14.351
48635W        W17009  41.948  12.119   2.232
48636W        W17010   8.726  24.527  10.643
48637W        W17011  37.381   2.343   3.647
48638W        W17012  30.988  23.097  12.011
48639W        W17013  23.048   9.866  11.489
48640W        W17014  28.499  21.092   3.308
48641W        W17015  15.813  16.747   4.684
48642W        W17016   3.821  24.563  10.461
48643W        W17017  22.104  12.292  11.093
48644W        W17018   7.841  40.920   0.256
48645W        W17019  42.920  34.089  14.018
48646W        W17020  16.598  12.686  11.393
48647W        W17021  29.654  20.107  13.044
48648W        W17022  23.038  29.619   5.609
48649W        W17023  33.057   4.391  14.480
48650W        W17024  24.123  10.150   3.331
48651W        W17025  30.528  34.464   1.315
48652W        W17026  39.841  30.025   2.328
48653W        W17027   6.898   7.797  14.032
48654W        W17028  21.198  11.372   3.254
48655W        W17029  23.133  26.038  14.447
48656W        W17030  18.293  16.302   1.228
48657W        W17031   3.732  11.717  10.133
48658W        W17032  21.045   0.320  13.820
48659W        W17033   9.361   6.745   4.766
48660W        W17034  11.684  26.052   0.836
48661W        W17035  17.154  43.501  11.983
48662W        W17036  44.769  17.643   2.893
48663W        W17037   7.740   6.244   3.148
48664W        W17038   5.242  15.325   4.330
48665W        W17039  34.999  16.755  11.409
48666W        W17040   9.264  34.048  10.411
48667W        W17041   6.277  16.595  12.019
48668W        W17042  18.247  14.154  14.514
48669W        W17043   2.433  14.711   0.858
48670W        W17044  40.467  22.094  13.886
48671W        W17045  39.391  14.296   1.811
48672W        W17046  31.966  40.952  12.939
48673W        W17047   7.720   1.940   0.881
48674W        W17048  22.620  25.025  12.095
48675W        W17049   5.862   9.889  13.928
48676W        W17050   7.903  16.181  13.950
48677W        W17051  36.450  39.334   1.694
48678W        W17052  28.439  34.409   4.326
48679W        W17053   2.733  10.785   3.737
48680W        W17054  28.442  41.492   4.808
48681W        W17055  21.180  15.143   4.231
48682W        W17056  26.467  41.363   3.798
48683W        W17057  12.725  11.303  10.423
48684W        W17058   8.395  42.788  10.444
48685W        W17059  35.950  16.800  12.967
48686W        W17060   3.719  17.782  13.342
48687W        W17061  12.211   0.848  13.425
48688W        W17062  21.227  44.003   2.410
48689W        W17063  41.817   8.739  13.431
48690W        W17064  16.088  12.120   1.445
48691W        W17065   5.824   2.254   4.281
48692W        W17066  20.584  34.934  14.375
48693W        W17067  42.016  26.056   3.372
48694W        W17068  22.743  44.503   4.690
48695W        W17069   7.299  36.433   2.407
48696W        W17070  29.587   8.807   5.179
48697W        W17071   2.723  11.733  13.486
48698W        W17072  39.829  12.614  13.849
48699W        W17073   0.357  29.969   2.298
48700W        W17074   2.376  24.210   2.724
48701W        W17075  17.096  32.617   2.292
48702W        W17076  29.938  24.545   4.791
48703W        W17077   2.302  35.927  10.598
48704W        W17078  23.986  10.206   1.404
48705W        W17079  24.161  13.735   2.189
48706W        W17080   6.195  26.630   0.310
48707W        W17081  41.961  19.075  11.588
48708W        W17082   1.931  11.236  14.330
48709W        W17083   4.389  11.754  13.543
48710W        W17084  24.124   4.800   0.423
48711W        W17085   4.263  16.311  12.927
48712W        W17086  14.212  17.670  12.067
48713W        W17087   7.345  24.691   2.693
48714W        W17088  14.738  43.818   1.375
48715W        W17089  31.495  23.189   0.759
48716W        W17090   1.469   7.414  14.963
48717W        W17091  34.990  27.488   2.748
48718W        W17092   1.308  31.949  14.886
48719W        W17093  44.816   8.224   3.333
48720W        W17094  18.190  26.604   0.780
48721W        W17095  22.526  28.632  13.533
48722W        W17096  26.681  36.028  11.941
48723W        W17097  30.427  24.546   0.373
48724W        W17098   0.912  32.601   9.988
48725W        W17099  28.640   3.241   1.399
48726W        W17100  32.392   4.356  12.564
48727W        W17101  22.717  33.573  14.505
48728W        W17102  36.401  17.159  11.015
48729W        W17103  22.077   2.839   4.279
48730W        W17104  29.621  12.814   3.816
48731W        W17105  25.697  37.843   3.845
48732W        W17106   8.403  20.578   1.410
48733W        W17107  10.775  44.463   4.153
48734W        W17108   6.194   7.739  11.128
48735W        W17109  36.097  38.895  12.919
48736W        W17110  13.329   4.722   2.707
48737W        W17111  36.427  28.082   3.670
48738W        W17112  10.250  23.537  10.547
48739W        W17113  12.250  35.451   1.750
48740W        W17114   0.334  24.659  13.340
48741W        W17115  41.452  35.873  13.463
48742W        W17116   3.936   0.922  10.021
48743W        W17117  44.846  34.490   3.253
48744W        W17118  18.207   0.842  14.392
48745W        W17119   6.416  41.889  14.891
48746W        W17120  10.369  13.788  14.407
48747W        W17121  27.645  40.321  12.970
48748W        W17122   6.382  14.601  14.861
48749W        W17123  34.987  24.615   0.399
48750W        W17124  12.117  27.035  12.967
48751W        W17125  40.965  33.003  14.279
48752W        W17126  26.967  20.542  11.538
48753W        W17127   3.827  10.243   4.183
48754W        W17128  19.274  10.212   0.414
48755W        W17129  14.592  17.765  14.863
48756W        W17130  39.384  20.103   0.290
48757W        W17131   0.357   8.166   0.460
48758W        W17132  15.819  10.314  14.009
48759W        W17133  33.106  23.138  13.883
48760W        W17134   6.381  19.195   2.252
48761W        W17135  28.595  37.499  12.081
48762W        W17136  15.105   9.875   1.758
48763W        W17137  15.201   1.930  14.337
48764W        W17138  15.155  10.157  12.470
48765W        W17139  15.804   1.948  10.019
48766W        W17140  28.148  35.397   3.334
48767W        W17141  19.710  36.959  12.054
48768W        W17142  23.684  12.790   2.270
48769W        W17143   8.366   6.793   4.122
48770W        W17144  23.618  19.200  14.779
48771W        W17145  28.185  35.466  13.362
48772W        W17146  27.125  26.089   4.246
48773W        W17147  30.654  25.126  11.120
48774W        W17148  33.494  26.169  13.000
48775W        W17149  20.197  23.677   3.722
48776W        W17150  37.465   2.809  10.552
48777W        W17151  18.273  12.708  13.459
48778W        W17152  12.249  41.793  11.855
48779W        W17153  44.267   0.346   0.773
48780W        W17154  17.176  44.397   2.372
48781W        W17155  16.282  32.547   2.282
48782W        W17156  23.115   8.249   3.742
48783W        W17157   2.851   4.382   1.273
48784W        W17158  30.545  27.956  10.642
48785W        W17159  10.852   0.844   3.844
48786W        W17160  19.552  40.039  14.873
48787W        W17161   2.860  26.157   3.201
48788W        W17162  43.827  27.677   2.389
48789W        W17163   6.837   3.772   4.829
48790W        W17164  26.018   3.259  13.016
48791W        W17165   3.449   3.307   0.358
48792W        W17166  27.491   6.699  13.522
48793W        W17167  16.668  29.957   2.371
48794W        W17168  40.022  38.961   4.603
48795W        W17169  38.056  15.637  13.349
48796W        W17170  29.991   7.729   2.887
48797W        W17171  36.501   0.439   2.830
48798W        W17172  39.986   9.842  11.102
48799W        W17173  33.560  40.339   2.736
48800W        W17174   9.650  32.048   3.281
48801W        W17175  28.491  19.206   0.757
48802W        W17176  24.603  15.174   4.713
48803W        W17177   5.297   6.726   1.695
48804W        W17178  22.151  35.395  11.491
48805W        W17179  34.882  38.919   4.659
48806W        W17180  40.352  14.673  11.111
48807W        W17181   8.719   0.408   1.326
48808W        W17182  11.137  36.998   4.658
48809W        W17183  35.907  34.958   2.409
48810W        W17184  39.552  44.283   2.320
48811W        W17185   1.821  22.529   4.687
48812W        W17186  27.585   1.819  14.956
48813W        W17187  29.633  26.463   3.870
48814W        W17188  25.065  20.038  14.830
48815W        W17189  31.983  32.570  10.501
48816W        W17190   7.871  22.119   0.380
48817W        W17191  40.923   8.892  10.981
48818W        W17192  42.487  27.108  13.848
48819W        W17193  16.129  13.141  11.558
48820W        W17194  42.518   2.298  12.855
48821W        W17195  16.199  20.269   4.185
48822W        W17196  38.338  35.477   0.886
48823W        W17197  41.303  12.630   3.170
48824W        W17198  26.001  36.370  12.549
48825W        W17199  13.154  25.084   4.227
48826W        W17200  42.434   4.778  13.994
48827W        W17201  39.365   7.334  14.412
48828W        W17202  22.547  38.037   4.671
48829W        W17203  37.016  39.998  11.597
48830W        W17204   9.870  40.397  13.920
48831W        W17205  35.359  26.469  14.460
48832W        W17206   3.437  39.981  13.908
48833W        W17207   9.809  44.457   1.373
48834W        W17208  33.404  21.036   2.743
48835W        W17209  41.972   9.193  13.033
48836W        W17210  22.062  14.618   3.335
48837W        W17211  19.206  33.054  13.052
48838W        W17212  24.101  29.594   0.464
48839W        W17213  43.817  11.349  11.990
48840W        W17214  26.562  13.202  13.484
48841W        W17215  37.496  30.006   2.722
48842W        W17216  12.222  28.034   0.959
48843W        W17217   7.909  17.718  10.050
48844W        W17218  14.644  21.679  13.001
48845W        W17219  24.611   4.360   3.236
48846W        W17220  33.538  10.635  12.354
48847W        W17221  15.701  13.730  14.026
48848W        W17222  42.832  42.523   3.280
48849W        W17223  28.530  30.137  14.970
48850W        W17224  28.152  35.496  14.891
48851W        W17225  33.594  13.784   1.873
48852W        W17226  40.900  38.434   2.833
48853W        W17227  42.927  35.423   4.293
48854W        W17228  43.333  44.415   2.827
48855W        W17229  41.340  33.885  12.419
48856W        W17230  30.048   0.267   0.288
48857W        W17231  17.137  11.654   1.399
48858W        W17232  20.209  30.467  12.049
48859W        W17233  26.668  12.649  10.431
48860W        W17234  27.141  16.176  10.457
48861W        W17235  15.153  33.384   2.850
48862W        W17236  24.641   1.795  11.073
48863W        W17237  16.784   3.917  12.070
48864W        W17238  19.198  12.623  14.758
48865W        W17239  41.027  43.460   0.345
48866W        W17240  36.346   0.350   1.269
48867W        W17241  44.269   1.778   2.258
48868W        W17242  25.174  18.055   0.354
48869W        W17243  36.589  35.995   0.772
48870W        W17244   2.723  18.288  14.820
48871W        W17245  44.470  28.495   3.778
48872W        W17246   8.831  17.594  11.610
48873W        W17247  17.237  36.515  14.296
48874W        W17248  41.921  15.794   2.299
48875W        W17249  43.433  18.633  13.917
48876W        W17250  41.856  13.604   3.709
48877W        W17251   7.822  31.612   4.700
48878W        W17252  15.122  35.413   2.397
48879W        W17253  32.531  40.949  14.381
48880W        W17254  25.174   9.674  13.991
48881W        W17255  32.893  41.915  14.885
48882W        W17256   1.261   9.283  11.993
48883W        W17257  20.232  21.655   4.602
48884W        W17258   4.386  37.366   2.717
48885W        W17259   9.804  39.514  13.444
48886W        W17260   8.242  30.976   3.671
48887W        W17261   4.394  36.348   3.299
48888W        W17262  11.821  33.457   3.174
48889W        W17263  41.804  34.072  14.431
48890W        W17264  33.023  32.471  11.594
48891W        W17265  32.494  18.129  12.559
48892W        W17266  18.629  43.324   1.796
48893W        W17267  10.357   9.232   3.210
48894W        W17268   3.236  44.304  10.047
48895W        W17269  34.901  19.708   9.979
48896W        W17270  42.885  34.604   1.310
48897W        W17271  38.505  12.766   3.199
48898W        W17272  10.331  41.922  14.289
48899W        W17273  36.352   2.738   3.150
48900W        W17274   3.452  27.193  10.561
48901W        W17275  34.498  43.304  10.480
48902W        W17276  16.566  28.645  12.896
48903W        W17277  33.567   1.811  12.510
48904W        W17278  19.554  13.601   1.834
48905W        W17279  31.111  12.223  11.540
48906W        W17280   2.242   6.356  11.938
48907W        W17281   7.896  24.987  11.575
48908W        W17282   6.269  37.000  12.844
48909W        W17283   0.374  19.572   4.325
48910W        W17284   8.891  13.632   2.317
48911W        W17285  26.497  35.491  10.952
48912W        W17286  26.467  16.189  14.294
48913W        W17287  16.224  12.137  12.980
48914W        W17288  44.827  26.992  13.383
48915W        W17289  33.896  28.661  12.889
48916W        W17290   2.234  13.241  14.909
48917W        W17291  40.512   3.881  14.881
48918W        W17292  23.031  20.759  13.879
48919W        W17293   7.742  44.443  13.861
48920W        W17294  28.117  35.450  10.418
48921W        W17295   7.181  27.531  11.030
48922W        W17296   2.800  23.720   2.858
48923W        W17297  16.252  15.239  12.569
48924W        W17298  32.462  31.988   1.319
48925W        W17299  18.584  33.505  10.046
48926W        W17300  31.959  42.376  12.945
48927W        W17301  24.538   5.834   2.863
48928W        W17302  22.605   1.436   4.127
48929W        W17303  26.655  33.564   1.333
48930W        W17304  15.286  27.008  13.939
48931W        W17305  36.454  15.616  13.993
48932W        W17306  15.649  21.549   0.881
48933W        W17307  37.996  15.098   1.742
48934W        W17308  34.527  20.141  13.811
48935W        W17309  23.164  26.185  13.514
48936W        W17310  20.560  39.385  12.944
48937W        W17311  28.111  37.501   1.893
48938W        W17312   9.808  40.442   3.339
48939W        W17313  32.606   2.819  13.021
48940W        W17314  17.080   4.272   0.450
48941W        W17315  31.996  20.731   0.911
48942W        W17316  27.195  41.868  11.063
48943W        W17317   2.263  30.125   1.807
48944W        W17318  40.976  39.935  11.450
48945W        W17319  19.148  10.710  11.550
48946W        W17320  13.255  35.510  14.446
48947W        W17321  15.751  20.210   1.917
48948W        W17322   4.743  15.197   4.836
48949W        W17323  12.187  15.662  11.975
48950W        W17324  20.653  41.355  13.373
48951W        W17325  15.305  11.773   2.778
48952W        W17326  38.973  15.237   3.783
48953W        W17327  29.563  43.279  14.011
48954W        W17328   2.810  18.056   3.668
48955W        W17329  31.419   8.744   4.221
48956W        W17330  41.988  26.109   2.198
48957W        W17331  19.257   6.390   2.227
48958W        W17332   6.679  21.262  13.469
48959W        W17333  23.624  28.101  10.939
48960W        W17334  20.567  21.241  10.593
48961W        W17335  14.236  14.269  11.005
48962W        W17336  13.769  16.705  12.408
48963W        W17337  30.653  24.676  10.482
48964W        W17338  21.707  22.527  14.889
48965W        W17339   0.478   9.347   4.686
48966W        W17340  27.105  41.966   3.822
48967W        W17341  10.145  11.733  11.982
48968W        W17342  34.448  32.446  12.836
48969W        W17343  27.168  26.966   1.234
48970W        W17344  26.072  36.015  12.882
48971W        W17345  37.461   0.966   2.874
48972W        W17346  36.580  41.915  10.480
48973W        W17347  16.621  27.616  12.572
48974W        W17348  24.616   7.666   3.257
48975W        W17349  26.549   4.938   0.918
48976W        W17350  44.967  12.261   3.165
48977W        W17351  16.151   5.367  12.888
48978W        W17352   0.452  44.400  12.395
48979W        W17353  39.002  10.826  12.970
48980W        W17354  20.565  22.249   3.359
48981W        W17355  42.821  11.825  12.923
48982W        W17356  10.877  37.489   1.913
48983W        W17357  34.071  39.971   2.734
48984W        W17358  27.483   3.742   4.671
48985W        W17359  26.473  14.133  14.854
48986W        W17360  36.371  12.784   0.848
48987W        W17361  10.359  29.970  10.552
48988W        W17362  10.720  36.496  10.524
48989W        W17363   8.361  41.502   1.932
48990W        W17364  10.658  41.008   0.453
48991W        W17365   9.202  19.758   1.901
48992W        W17366  43.424  31.006  12.518
48993W        W17367  36.029   8.668   0.792
48994W        W17368  35.026  38.006   2.188
48995W        W17369   8.783  27.469  13.818
48996W        W17370   1.932   8.390  13.949
48997W        W17371  36.463   8.381  11.569
48998W        W17372  37.883   1.930   4.687
48999W        W17373  30.550  12.683   4.291
49000W        W17374  27.962  10.322  12.546
49001W        W17375  16.698  39.447  11.882
49002W        W17376  42.932  17.079  13.381
49003W        W17377  29.615  26.653  11.002
49004W        W17378  33.007  37.983  11.605
49005W        W17379  21.252  19.156   3.839
49006W        W17380   7.271  17.184  13.329
49007W        W17381   8.790  37.504  10.537
49008W        W17382  27.517  39.379   3.337
49009W        W17383  33.443  28.158  10.107
49010W        W17384   5.233  32.897   4.321
49011W        W17385  31.999  26.502  12.002
49012W        W17386   5.242  13.140  11.429
49013W        W17387  43.319  18.654   0.740
49014W        W17388  14.778  24.035  13.026
49015W        W17389  22.247  44.350  12.406
49016W        W17390   6.717   1.317  10.480
49017W        W17391   1.857  29.111   1.735
49018W        W17392  10.800  41.010  14.298
49019W        W17393  31.003  13.710  11.994
49020W        W17394  17.630  27.965  13.955
49021W        W17395  16.598  16.072  13.395
49022W        W17396  16.190  20.051   3.358
49023W        W17397  14.775  41.299  11.568
49024W        W17398  38.392  11.256   2.871
49025W        W17399   5.417   9.856   3.666
49026W        W17400  20.698  33.119  11.020
49027W        W17401  14.768  22.641  11.470
49028W        W17402  14.313   8.757  13.536
49029W        W17403  13.250  23.008  10.589
49030W        W17404  44.495  22.614  10.578
49031W        W17405  43.458  42.814  14.507
49032W        W17406  44.322  22.706   5.081
49033W        W17407  41.320  36.489  14.420
49034W        W17408  39.878  43.943   2.233
49035W        W17409  19.544   6.709   1.710
49036W        W17410  39.033   4.731   2.716
49037W        W17411  20.136  13.666  14.308
49038W        W17412  32.142   3.289  13.506
49039W        W17413  26.482   5.901  12.421
49040W        W17414  10.233  29.628   4.704
49041W        W17415  13.634  30.960   0.438
49042W        W17416   1.247   7.848   0.414
49043W        W17417  17.133   5.411   2.848
49044W        W17418  13.347  28.006  12.886
49045W        W17419  39.338   5.220  14.846
49046W        W17420  16.210  34.096   1.901
49047W        W17421  35.533  15.663  12.426
49048W        W17422  44.493  38.844   4.206
49049W        W17423  23.507  15.610  11.592
49050W        W17424  43.417  20.101  11.606
49051W        W17425  33.511   1.802   3.665
49052W        W17426  31.626  31.022   4.138
49053W        W17427  34.471   9.338   0.873
49054W        W17428  10.277  37.004   9.993
49055W        W17429  21.693  27.116  13.898
49056W        W17430  23.582   9.391   4.321
49057W        W17431  24.121  16.673   2.874
49058W        W17432  18.217  24.197  12.059
49059W        W17433  14.301  29.025   4.291
49060W        W17434   5.748  38.544   4.193
49061W        W17435  25.163  33.086  13.381
49062W        W17436  20.093   7.262  14.908
49063W        W17437  19.283  44.481   2.256
49064W        W17438   3.239  31.469   1.420
49065W        W17439  16.803  40.455  11.046
49066W        W17440  19.678  12.249   0.876
49067W        W17441  30.655  27.486   1.442
49068W        W17442  31.618  23.719  12.937
49069W        W17443  23.544  12.147  13.475
49070W        W17444  44.873  26.651  11.858
49071W        W17445   0.831  12.811   3.794
49072W        W17446  25.644   4.317  11.541
49073W        W17447  44.865  44.887   3.295
49074W        W17448   2.308  31.148  14.399
49075W        W17449  33.484  20.750  12.954
49076W        W17450  13.347  36.421   1.214
49077W        W17451  33.966   0.804   4.238
49078W        W17452  32.143   9.169  13.438
49079W        W17453   1.326  44.842   1.391
49080W        W17454   6.292  33.453   3.233
49081W        W17455  17.098  32.462  10.557
49082W        W17456   3.386   9.717  10.457
49083W        W17457  40.876   7.374  11.905
49084W        W17458  16.759  31.085  12.011
49085W        W17459   8.797  27.454   0.420
49086W        W17460  24.102  19.594  14.936
49087W        W17461  38.053   9.252  12.414
49088W        W17462  30.149  15.822  10.641
49089W        W17463  17.671  11.723  10.919
49090W        W17464  34.051  23.505   3.637
49091W        W17465  41.507  34.957   4.654
49092W        W17466  34.445  29.997  11.873
49093W        W17467  16.099  38.882   3.814
49094W        W17468  42.009  10.384  10.456
49095W        W17469  44.981  15.791   9.963
49096W        W17470  14.716  23.564  13.007
49097W        W17471  31.452  14.591   2.327
49098W        W17472  33.091  25.074   4.620
49099W        W17473  36.457  16.127   1.392
49100W        W17474   9.247  44.453   4.800
49101W        W17475  11.792  40.343   2.779
49102W        W17476  16.723  10.806  13.015
49103W        W17477  13.221  34.096   1.898
49104W        W17478  20.191  14.827   3.807
49105W        W17479  43.384  10.332   0.432
49106W        W17480  23.169  37.464  10.996
49107W        W17481  17.172  33.426   1.267
49108W        W17482  11.138  19.281  14.471
49109W        W17483  18.661   1.322  12.990
49110W        W17484  30.063  39.048   1.415
49111W        W17485  37.558   1.281   1.356
49112W        W17486  27.596  43.270   4.146
49113W        W17487  29.489  16.092   2.325
49114W        W17488  36.925  22.090  12.390
49115W        W17489   9.654  18.277   9.542
49116W        W17490  25.217  17.087  14.306
49117W        W17491  37.347  39.347  10.428
49118W        W17492  22.624  14.235  12.046
49119W        W17493  17.777   4.744   4.693
49120W        W17494  32.533  26.066   4.753
49121W        W17495  19.253  14.333  11.070
49122W        W17496  20.145  29.963   3.707
49123W        W17497  31.637   9.731  10.424
49124W        W17498   8.824  17.633  11.970
49125W        W17499  13.692  36.034  13.910
49126W        W17500  41.356  30.909   3.170
49127W        W17501  38.371  13.728   2.252
49128W        W17502  14.125  11.792   2.760
49129W        W17503  42.804  22.026  10.955
49130W        W17504  20.117   3.372   0.873
49131W        W17505  42.422  24.106  10.959
49132W        W17506   8.800  22.113   4.297
49133W        W17507   9.288  22.173   4.612
49134W        W17508  14.668  24.149   0.471
49135W        W17509  37.931  32.953   1.829
49136W        W17510  11.373   5.240   4.200
49137W        W17511  17.667  32.564  11.856
49138W        W17512  44.915   2.725  10.418
49139W        W17513  42.896  34.116   0.334
49140W        W17514  31.512  37.561   4.354
49141W        W17515   2.811  32.433  13.038
49142W        W17516  20.595  24.687   3.641
49143W        W17517   1.443  34.082  14.504
49144W        W17518   7.773  32.023   4.824
49145W        W17519  39.860  38.397   4.329
49146W        W17520   4.427  18.260   1.755
49147W        W17521  30.447  40.028  14.861
49148W        W17522  41.453  23.153  11.971
49149W        W17523   5.728  44.885  14.472
49150W        W17524  16.232  42.338  14.283
49151W        W17525  31.005  30.593  10.976
49152W        W17526   4.362  32.491   2.737
49153W        W17527  41.318  15.107  10.507
49154W        W17528  27.983  31.962   0.257
49155W        W17529  31.403  39.862  11.112
49156W        W17530  43.387  28.448  12.043
49157W        W17531  37.353  24.676  14.985
49158W        W17532  37.339  43.343  12.349
49159W        W17533  35.006   4.304  14.290
49160W        W17534   1.954   9.676  13.455
49161W        W17535   3.938  39.495   0.405
49162W        W17536  20.523  37.482  11.033
49163W        W17537  21.726  10.861   4.202
49164W        W17538  32.525  33.921  10.599
49165W        W17539  11.859  25.650  13.419
49166W        W17540  31.952  44.426   0.468
49167W        W17541   2.775   0.792   4.329
49168W        W17542   6.305   2.369  12.355
49169W        W17543   8.776  18.667  11.418
49170W        W17544  40.892   5.328  10.470
49171W        W17545   5.209  10.716  13.433
49172W        W17546  23.197   2.887  10.617
49173W        W17547  13.304   9.360  14.839
49174W        W17548  10.197   1.362   2.395
49175W        W17549  14.188  32.138   4.775
49176W        W17550  35.564  24.499   3.773
49177W        W17551  40.352  27.531   0.848
49178W        W17552  19.628  41.503   3.736
49179W        W17553   3.797  39.000   3.637
49180W        W17554  27.633  25.485  12.482
49181W        W17555  10.197  10.775   3.734
49182W        W17556  35.861  29.531  13.389
49183W        W17557  25.030  35.488  11.008
49184W        W17558  26.692  20.564   0.825
49185W        W17559  28.158  11.166   4.308
49186W        W17560  11.267  27.136   0.256
49187W        W17561   2.464  23.546   1.697
49188W        W17562  19.153   9.211  11.096
49189W        W17563  37.570  16.285  10.595
49190W        W17564  17.235  31.626  12.961
49191W        W17565  20.046  29.648  10.103
49192W        W17566   8.806  26.598   4.116
49193W        W17567  23.182  43.432  13.057
49194W        W17568  40.510   1.778  13.488
49195W        W17569  29.013  44.377  14.442
49196W        W17570  24.055  43.488   1.378
49197W        W17571  12.667  14.735  10.515
49198W        W17572  17.631   6.349   0.455
49199W        W17573  36.907  42.913  13.937
49200W        W17574  20.051   3.736  14.307
49201W        W17575  27.655  17.734   2.264
49202W        W17576  23.679   3.254   0.480
49203W        W17577  35.913  32.592  12.064
49204W        W17578  37.466   8.256   4.739
49205W        W17579  18.657  23.604   3.854
49206W        W17580   8.282  44.479   4.307
49207W        W17581   1.328   3.314  10.533
49208W        W17582   0.452  33.624  11.516
49209W        W17583  43.447  34.439  10.448
49210W        W17584   0.322   1.967  12.011
49211W        W17585  29.953  16.616   4.237
49212W        W17586  27.454   2.904  11.920
49213W        W17587  17.786  16.158  10.453
49214W        W17588  19.581  35.934  13.025
49215W        W17589  19.625  17.155  13.898
49216W        W17590  39.861   8.187  10.445
49217W        W17591   7.319  11.159   1.418
49218W        W17592  13.247  40.909  13.851
49219W        W17593   4.383   0.851  13.360
49220W        W17594  44.942  31.624  13.813
49221W        W17595  19.742   5.894  14.908
49222W        W17596  33.960  34.094  11.465
49223W        W17597  27.458   3.909   1.298
49224W        W17598  23.121  29.096  11.087
49225W        W17599  19.754  28.619  12.088
49226W        W17600  32.477  10.223   4.718
49227W        W17601  17.796  10.267  13.355
49228W        W17602  41.942  14.808   2.879
49229W        W17603  20.632  33.911  11.452
49230W        W17604   6.679  43.848  12.844
49231W        W17605   0.415   6.428  14.403
49232W        W17606  38.471  35.015   2.255
49233W        W17607  30.105   8.733  14.427
49234W        W17608  32.626  42.013   1.779
49235W        W17609  25.468  39.428   3.752
49236W        W17610  33.995  44.503  10.989
49237W        W17611  30.003  25.034   3.299
49238W        W17612   5.431  39.525  14.011
49239W        W17613  18.742   1.795   1.396
49240W        W17614  10.704  29.114  14.459
49241W        W17615  11.229  30.082  12.915
49242W        W17616  35.021  37.431  10.936
49243W        W17617  19.748   8.262  14.792
49244W        W17618   4.782  44.344  11.911
49245W        W17619  35.056  17.118  14.937
49246W        W17620  26.467   5.710   3.333
49247W        W17621  24.633   1.970   2.283
49248W        W17622  11.334  20.037   3.846
49249W        W17623  35.467  11.858  13.455
49250W        W17624  34.029   9.199   0.795
49251W        W17625  12.346  30.422   2.381
49252W        W17626   8.655   1.859  10.948
49253W        W17627  39.026  21.738  10.564
49254W        W17628   0.450  25.589   4.630
49255W        W17629  19.616  16.181   1.359
49256W        W17630  16.720  19.621  12.385
49257W        W17631   2.949  17.127  14.774
49258W        W17632  26.522  21.022   0.784
49259W        W17633  43.329  23.679   4.267
49260W        W17634  26.114   6.345   4.218
49261W        W17635  22.103   1.406   2.241
49262W        W17636  21.631  32.517  13.454
49263W        W17637  29.048  30.480   0.407
49264W        W17638   7.682   5.926   1.827
49265W        W17639   7.690  11.187   1.434
49266W        W17640  35.978  23.985   1.815
49267W        W17641  12.353  22.587   0.277
49268W        W17642   7.307  14.675  11.916
49269W        W17643   9.230  28.163   4.121
49270W        W17644   7.729  39.366  11.391
49271W        W17645  42.799  34.926   3.689
49272W        W17646   2.292   2.428  10.542
49273W        W17647  35.400  15.204   1.812
49274W        W17648   8.854  10.221   3.821
49275W        W17649  43.855  37.923   2.756
49276W        W17650   5.201  16.156   2.710
49277W        W17651  44.306   5.927  13.516
49278W        W17652   1.781  31.996   4.834
49279W        W17653  39.334  23.626   4.196
49280W        W17654  10.209  34.492  13.001
49281W        W17655   3.451  30.457   3.785
49282W        W17656  16.592  33.967   3.257
49283W        W17657   3.764  16.119  13.982
49284W        W17658  19.675  43.310   2.704
49285W        W17659  26.993  41.024   0.771
49286W        W17660  16.174  36.887  12.373
49287W        W17661  28.663  36.527  10.412
49288W        W17662   1.802   5.829  10.560
49289W        W17663  38.048  15.609   0.372
49290W        W17664  42.521  22.619   4.645
49291W        W17665   0.870  19.547  14.496
49292W        W17666  30.109   5.783   0.888
49293W        W17667  24.037  18.106   0.912
49294W        W17668  13.343  39.825   4.827
49295W        W17669   9.216  18.098   5.652
49296W        W17670   4.733  23.693   2.250
49297W        W17671  42.964  18.589   2.761
49298W        W17672  12.645  26.204  14.810
49299W        W17673  17.603  26.603  10.923
49300W        W17674  28.661  32.493   4.798
49301W        W17675  41.363  18.679   3.668
49302W        W17676   2.233   0.274   4.681
49303W        W17677  21.052  24.149  11.419
49304W        W17678  25.219  42.877   5.137
49305W        W17679  30.430  43.971  12.981
49306W        W17680  40.345  22.113   3.729
49307W        W17681  26.077   9.715   4.289
49308W        W17682  24.086  29.511   5.143
49309W        W17683  10.648  37.997   4.609
49310W        W17684  23.093  41.027  12.480
49311W        W17685  14.808  39.865  10.992
49312W        W17686  14.189  19.623  12.573
49313W        W17687  29.001   4.247   3.156
49314W        W17688  26.088  20.672   3.860
49315W        W17689  36.870  27.669  11.410
49316W        W17690   5.748  10.708   1.750
49317W        W17691  19.076  25.058  11.928
49318W        W17692  14.811  40.451  11.515
49319W        W17693   6.258  11.645   3.366
49320W        W17694  36.362  27.128   1.808
49321W        W17695  32.513  25.577   0.895
49322W        W17696   4.448   2.863  14.297
49323W        W17697   8.816  11.761  13.947
49324W        W17698  22.646  17.602  11.597
49325W        W17699  29.076  38.412  13.036
49326W        W17700  33.445  25.097  13.487
49327W        W17701   6.867   8.663   1.854
49328W        W17702  20.567  22.595   2.895
49329W        W17703  36.376  23.697   3.870
49330W        W17704  35.940  22.166   1.825
49331W        W17705  33.476  44.893   4.654
49332W        W17706  30.508   6.728   4.239
49333W        W17707  13.758  15.579  14.508
49334W        W17708  34.554  39.356  10.473
49335W        W17709  32.513   1.280  11.905
49336W        W17710  10.331   0.849  13.993
49337W        W17711  11.214  16.236  11.552
49338W        W17712   9.170  40.042  12.034
49339W        W17713  29.442  31.580  13.821
49340W        W17714  38.835   8.824  12.919
49341W        W17715  30.987  11.650   5.316
49342W        W17716  30.632  30.056  13.407
49343W        W17717  23.653   1.468   2.248
49344W        W17718  15.294   9.300  11.948
49345W        W17719  14.608  35.598  12.351
49346W        W17720  43.795  24.648   1.906
49347W        W17721  10.793  12.746  13.525
49348W        W17722  14.753  43.283   1.338
49349W        W17723  38.512  25.682  12.828
49350W        W17724  23.591  10.382   1.927
49351W        W17725  36.549  20.258   2.310
49352W        W17726  26.162   8.886  10.582
49353W        W17727  16.739  43.453   0.921
49354W        W17728  14.194  22.085  13.029
49355W        W17729  17.708  30.062   1.849
49356W        W17730  39.843  40.454  11.863
49357W        W17731  19.562  14.209  11.057
49358W        W17732  32.526  17.776  14.774
49359W        W17733  33.408  16.808   0.393
49360W        W17734  28.079  19.577  12.486
49361W        W17735  25.542  23.231   2.186
49362W        W17736  15.606  13.280  14.312
49363W        W17737  12.624  22.631   3.754
49364W        W17738  12.654  26.631  12.945
49365W        W17739  13.231  39.818  11.388
49366W        W17740  39.474  35.594  12.477
49367W        W17741  36.489  25.678   2.229
49368W        W17742  16.644  12.737   1.445
49369W        W17743  41.811  30.489   1.854
49370W        W17744   9.220  31.913   3.167
49371W        W17745  16.297  38.448  11.462
49372W        W17746  17.672  32.134   3.746
49373W        W17747  33.125  22.041  14.975
49374W        W17748  37.917  26.993   2.864
49375W        W17749  18.573  19.175  13.052
49376W        W17750   1.281  34.046  12.402
49377W        W17751  19.193  23.509  10.597
49378W        W17752  35.402  23.025   2.193
49379W        W17753   8.184  27.954   1.249
49380W        W17754  22.743   5.931  14.961
49381W        W17755  31.955  32.015   1.361
49382W        W17756  36.067   8.777  14.443
49383W        W17757  16.716  25.995  12.988
49384W        W17758  12.754  36.516  10.941
49385W        W17759  12.826   3.782   4.208
49386W        W17760   7.278  17.091  14.356
49387W        W17761  33.599  12.232   0.758
49388W        W17762  28.670  28.091   3.795
49389W        W17763  11.690  22.009   0.297
49390W        W17764  18.114  13.627  12.078
49391W        W17765   7.346  35.058  11.958
49392W        W17766  15.176  44.886  12.852
49393W        W17767  17.260  29.506   2.248
49394W        W17768   7.279  42.452  13.826
49395W        W17769  11.192   5.393   2.348
49396W        W17770  19.693  40.929   2.898
49397W        W17771  42.826  32.494   1.744
49398W        W17772  24.152   3.323  11.117
49399W        W17773  36.372  23.207   0.819
49400W        W17774  23.709  41.300  10.573
49401W        W17775  28.571  19.202   4.318
49402W        W17776  24.552  20.717  14.955
49403W        W17777  26.972  39.952  14.962
49404W        W17778  15.241   8.300   3.636
49405W        W17779  16.192   2.365  10.414
49406W        W17780  13.164  16.767   1.253
49407W        W17781  42.883  22.083  12.851
49408W        W17782  15.745  29.480   0.417
49409W        W17783  26.470  17.681   1.935
49410W        W17784   1.418  33.552  11.401
49411W        W17785  17.296  28.593  13.027
49412W        W17786   8.789   5.901   4.347
49413W        W17787  43.495  22.618   1.737
49414W        W17788  41.422  19.551  10.596
49415W        W17789  40.054   0.486  14.968
49416W        W17790  15.131  12.768   1.419
49417W        W17791   1.761   0.395  10.951
49418W        W17792  43.276  15.808   4.151
49419W        W17793   1.815   6.765   2.726
49420W        W17794  37.082   8.852   9.655
49421W        W17795  43.393  16.107   1.373
49422W        W17796  17.621  10.670   4.300
49423W        W17797  25.089   2.353  10.971
49424W        W17798  27.624  10.328  12.943
49425W        W17799  42.345  15.306   3.810
49426W        W17800   6.369   8.722  13.373
49427W        W17801  40.046   5.874   4.249
49428W        W17802  18.553  16.236   2.411
49429W        W17803  17.696  14.125  11.013
49430W        W17804  32.056  44.860  12.959
49431W        W17805   7.354  31.446  11.943
49432W        W17806  25.124  43.881   2.901
49433W        W17807   7.835  35.414   0.805
49434W        W17808  17.671  12.774  13.940
49435W        W17809  24.511  38.394  14.963
49436W        W17810  43.482   4.278   0.340
49437W        W17811  43.824  11.731  14.387
49438W        W17812  37.382  16.120  11.513
49439W        W17813  16.103  35.477   0.433
49440W        W17814   3.952  33.940   2.178
49441W        W17815  39.327  35.420   3.179
49442W        W17816  13.781  43.438  11.570
49443W        W17817   1.303  33.070  13.547
49444W        W17818  21.745  41.932   1.299
49445W        W17819  29.143   5.237  14.297
49446W        W17820  20.058  37.001   1.436
49447W        W17821  30.473   2.306  14.954
49448W        W17822  38.992  12.331  13.038
49449W        W17823  21.231  18.613  10.921
49450W        W17824  24.102  35.028  11.600
49451W        W17825  43.308   7.815  11.045
49452W        W17826  17.663  35.436   2.719
49453W        W17827  18.727   2.337  12.891
49454W        W17828  33.122  27.596  11.097
49455W        W17829  13.638   7.192  13.031
49456W        W17830   1.288  32.956   2.399
49457W        W17831  32.980   8.168  10.555
49458W        W17832  25.483  19.746  11.510
49459W        W17833  30.653   6.200  14.988
49460W        W17834  13.225   4.876  12.999
49461W        W17835  41.531  11.362   0.426
49462W        W17836  42.000  41.535   0.433
49463W        W17837  14.137  18.742   3.316
49464W        W17838  13.320  37.077  10.561
49465W        W17839  26.649   9.650  10.541
49466W        W17840  10.189  15.107   4.326
49467W        W17841   5.795  11.236   1.253
49468W        W17842  40.878  16.663   1.274
49469W        W17843  22.130  23.222   4.712
49470W        W17844  30.626   0.978   1.724
49471W        W17845  44.769  40.310   4.207
49472W        W17846  39.014  24.010  14.021
49473W        W17847  37.342  14.827   4.730
49474W        W17848  36.070   4.810   3.263
49475W        W17849  32.935  13.309  13.383
49476W        W17850  40.490  40.435  14.024
49477W        W17851   9.366  30.105  14.804
49478W        W17852  34.062  26.147   2.329
49479W        W17853  18.112   6.205   1.887
49480W        W17854   3.820  12.133   3.823
49481W        W17855  10.861   7.371   3.744
49482W        W17856  24.487   0.943  13.317
49483W        W17857   2.830  38.877  12.010
49484W        W17858  42.022  16.754   1.368
49485W        W17859  13.268  40.451  13.865
49486W        W17860  38.382  11.204  11.498
49487W        W17861  19.194  37.562   2.838
49488W        W17862  28.450  14.251  14.820
49489W        W17863  34.581  32.442   0.763
49490W        W17864   8.401  40.401   0.325
49491W        W17865  36.374  16.629   0.740
49492W        W17866  25.164  38.965   1.341
49493W        W17867   3.427  40.955   2.304
49494W        W17868  26.056   9.384  12.983
49495W        W17869  10.768   9.333   0.474
49496W        W17870  24.184   7.769   1.377
49497W        W17871  27.175  17.186  10.070
49498W        W17872  22.241   3.723  11.529
49499W        W17873   2.258  31.579   1.323
49500W        W17874  38.509  10.635   1.435
49501W        W17875   4.733  15.771   5.319
49502W        W17876  11.264  12.782  12.969
49503W        W17877   5.767  43.381   0.332
49504W        W17878   5.329   0.785   2.307
49505W        W17879  27.965   9.867  11.910
49506W        W17880  42.965  42.368   2.848
49507W        W17881  16.607  21.537   3.735
49508W        W17882  27.505  20.537   3.848
49509W        W17883  43.935   0.403  13.540
49510W        W17884  34.086  42.443   2.372
49511W        W17885  31.486  33.906  14.421
49512W        W17886  19.188   3.859  10.547
49513W        W17887  12.209  14.751   0.292
49514W        W17888  40.891  37.982   4.774
49515W        W17889  14.612   2.392  11.965
49516W        W17890  28.032   2.838   1.213
49517W        W17891  18.103  41.879  11.520
49518W        W17892  18.267   3.824   1.857
49519W        W17893  29.085  39.474   4.671
49520W        W17894  13.350  17.168   1.890
49521W        W17895  32.497  13.827   2.699
49522W        W17896   9.255  40.421  13.977
49523W        W17897  35.417   8.881  13.539
49524W        W17898   2.916  16.102  12.973
49525W        W17899  32.104  14.116   5.159
49526W        W17900  13.755  20.727   0.873
49527W        W17901  18.679   5.219   3.827
49528W        W17902  17.643  42.327   4.305
49529W        W17903   4.310  18.280  11.108
49530W        W17904   2.849  11.132  11.948
49531W        W17905  36.059   0.856  11.400
49532W        W17906  26.135  19.605  14.500
49533W        W17907  39.432  37.458   3.718
49534W        W17908  15.106  39.880  13.873
49535W        W17909  13.217  27.145   2.819
49536W        W17910  38.842  35.484  14.994
49537W        W17911  16.724  40.454   2.710
49538W        W17912  26.081  33.489   2.776
49539W        W17913  23.682  43.387   0.810
49540W        W17914  35.379  15.173  11.957
49541W        W17915  33.501  31.033  11.979
49542W        W17916  32.633   4.805  12.387
49543W        W17917  26.081  26.115   2.182
49544W        W17918  42.459  36.068  11.125
49545W        W17919  22.684  14.794   3.169
49546W        W17920  37.066  37.336   0.468
49547W        W17921  31.911   9.691   2.883
49548W        W17922  32.012  19.047   4.119
49549W        W17923   9.815  15.300  13.357
49550W        W17924  25.119   4.733  10.620
49551W        W17925   0.289  26.975   3.725
49552W        W17926  44.476  36.499   2.833
49553W        W17927  42.992  15.724   2.308
49554W        W17928  40.437   0.412  13.804
49555W        W17929  37.086  41.877  10.594
49556W        W17930   1.881  10.735   3.853
49557W        W17931   4.837  38.478   1.789
49558W        W17932   1.279  17.247   4.352
49559W        W17933  26.017  21.156  14.441
49560W        W17934  39.429  15.766  11.911
49561W        W17935  32.101   9.778   0.898
49562W        W17936  40.000   3.738  14.779
49563W        W17937  44.847  13.204   3.362
49564W        W17938  28.491  40.490   3.167
49565W        W17939  34.428  15.734  14.922
49566W        W17940  33.996  40.444   1.213
49567W        W17941  24.186  35.877   3.635
49568W        W17942  35.389  24.985   3.374
49569W        W17943  25.646  13.312  14.961
49570W        W17944  14.097  20.042   4.199
49571W        W17945  23.088  17.119  11.916
49572W        W17946   2.757  24.063  12.522
49573W        W17947  24.122   8.840  11.373
49574W        W17948  22.089  17.729   3.792
49575W        W17949  31.146   5.762  11.469
49576W        W17950  10.750   3.948   2.796
49577W        W17951  39.425  37.885   4.648
49578W        W17952  25.522  26.978   2.341
49579W        W17953   4.366  12.116  13.038
49580W        W17954  12.667  20.186  13.426
49581W        W17955  35.990   3.833  12.989
49582W        W17956  33.387  35.957  13.925
49583W        W17957  28.100  24.711  13.454
49584W        W17958   5.336  34.091  14.470
49585W        W17959  19.118   9.157  12.446
49586W        W17960  13.837  13.838   0.350
49587W        W17961  43.016  35.007  12.503
49588W        W17962  16.742  31.034   2.181
49589W        W17963  39.829  19.665  14.967
49590W        W17964  43.838  43.931  11.962
49591W        W17965  39.004  39.013  10.495
49592W        W17966  11.276  41.945   0.244
49593W        W17967   4.368  12.177  13.331
49594W        W17968  40.968  33.391  12.475
49595W        W17969  35.958  14.135   1.709
49596W        W17970   4.798  35.903   2.816
49597W        W17971   4.934  24.164  14.448
49598W        W17972  38.533  28.115   0.940
49599W        W17973   0.248   6.774   0.348
49600W        W17974   5.852  39.894   2.196
49601W        W17975  30.545  27.154  13.006
49602W        W17976  17.787  14.188  13.912
49603W        W17977   0.283  26.112  13.965
49604W        W17978  26.161  29.112  14.305
49605W        W17979  27.670  33.381  10.468
49606W        W17980   7.883  44.912  12.443
49607W        W17981  21.709  14.744   3.260
49608W        W17982  32.063  31.025  13.354
49609W        W17983  23.664  16.782   2.225
49610W        W17984  25.590  15.691  11.564
49611W        W17985  16.680   6.830  13.525
49612W        W17986   7.192  41.881   0.325
49613W        W17987   5.924  28.009   4.597
49614W        W17988   8.770  16.584  11.098
49615W        W17989  24.700  26.514   2.362
49616W        W17990  17.108   2.451   4.720
49617W        W17991  18.221  41.485  14.897
49618W        W17992   1.238  42.822  12.453
49619W        W17993  32.949  25.545  11.595
49620W        W17994  42.788   1.874  11.569
49621W        W17995  10.194  37.025  10.555
49622W        W17996   6.862  16.179  10.547
49623W        W17997  31.956  34.069  10.440
49624W        W17998   1.971  14.223   3.745
49625W        W17999   8.203  19.677  13.063
49626W        W18000  22.700  32.996   3.243
49627W        W18001  23.064  40.509  11.955
49628W        W18002  39.410  12.834   0.793
49629W        W18003  38.471   0.352   2.691
49630W        W18004   5.751  44.284   4.271
49631W        W18005  35.523  29.962   3.737
49632W        W18006  19.217  32.106   9.947
49633W        W18007  33.960  10.837   2.802
49634W        W18008  18.215  14.676   2.220
49635W        W18009  25.019  10.816  10.645
49636W        W18010  31.450  14.227   4.777
49637W        W18011  40.303  28.072   2.185
49638W        W18012  42.900  11.630  14.404
49639W        W18013  14.303  11.703  13.843
49640W        W18014  15.675   5.344  11.499
49641W        W18015  42.500   5.875   2.693
49642W        W18016  37.416  24.481  13.383
49643W        W18017  10.679  40.004   4.784
49644W        W18018   3.927  30.946   1.354
49645W        W18019  12.198  14.139   4.172
49646W        W18020  22.504  26.628  13.795
49647W        W18021  44.956  17.091   0.423
49648W        W18022  14.636  38.038   2.681
49649W        W18023  33.548   5.345   4.677
49650W        W18024  15.251  22.126  14.990
49651W        W18025  14.148  40.816   2.211
49652W        W18026   6.878   5.740   3.821
49653W        W18027   4.311  25.515   2.838
49654W        W18028  10.174   7.746  11.015
49655W        W18029  12.149  11.661   2.835
49656W        W18030  10.203   3.333  11.373
49657W        W18031  24.503   4.728  12.019
49658W        W18032  23.101  31.537   5.081
49659W        W18033   2.298  25.574  10.962
49660W        W18034  39.822  29.932  12.011
49661W        W18035  36.926  42.520  12.461
49662W        W18036   2.832  11.362   3.305
49663W        W18037  35.035  29.060   0.926
49664W        W18038   6.807  10.708   2.829
49665W        W18039  20.621   1.359  11.391
49666W        W18040  24.667  27.986  13.534
49667W        W18041  10.806  28.995  12.916
49668W        W18042  30.546  19.684   2.748
49669W        W18043   8.311  44.779  11.920
49670W        W18044  40.383   3.317   4.311
49671W        W18045  19.608  32.471  11.551
49672W        W18046  24.054  44.967  10.521
49673W        W18047  23.993   0.437   0.771
49674W        W18048  19.241   2.391  11.423
49675W        W18049  32.117   4.359   3.238
49676W        W18050  16.155  39.415   1.389
49677W        W18051  40.525  27.626  14.835
49678W        W18052  29.526  42.982  13.007
49679W        W18053  25.020  24.627   1.452
49680W        W18054  26.621  30.053   0.364
49681W        W18055  30.526  23.137  13.978
49682W        W18056  42.416  20.138  10.991
49683W        W18057  30.491  11.221  10.548
49684W        W18058  14.723  28.537  13.036
49685W        W18059  32.575  29.628   1.364
49686W        W18060  30.148  39.499   4.693
49687W        W18061  15.254  31.532   4.836
49688W        W18062  29.105  13.270  14.816
49689W        W18063  10.218   1.767  12.079
49690W        W18064  37.040  36.385   3.305
49691W        W18065   3.809  44.960  13.367
49692W        W18066  38.367  20.685  13.929
49693W        W18067   3.729  11.657  12.532
49694W        W18068  20.225  25.679   1.723
49695W        W18069   9.734  16.233   4.653
49696W        W18070  40.930  15.121  14.400
49697W        W18071  27.646   9.159   4.201
49698W        W18072  17.709  39.009   4.807
49699W        W18073  40.388  27.091  14.811
49700W        W18074  32.483  44.800  11.416
49701W        W18075   6.780  20.761  14.898
49702W        W18076  13.152   5.415  12.541
49703W        W18077  17.730  32.402   3.726
49704W        W18078   2.900   2.837   0.384
49705W        W18079  11.800  31.493  10.579
49706W        W18080  22.502  32.632  11.901
49707W        W18081   5.908  37.394  14.303
49708W        W18082   4.709  32.476   3.240
49709W        W18083  39.061  21.708  10.988
49710W        W18084  28.637  22.080  14.336
49711W        W18085  31.588   5.776  12.047
49712W        W18086  13.703  15.322   2.884
49713W        W18087  24.161  11.673  14.298
49714W        W18088  31.946  43.396   3.756
49715W        W18089  29.945  10.779   3.175
49716W        W18090  41.975  16.604  13.963
49717W        W18091  30.424  15.307   2.721
49718W        W18092   4.255  30.908   2.339
49719W        W18093  28.083  25.693   4.264
49720W        W18094  36.562  32.518  11.989
49721W        W18095  33.437  23.223   4.354
49722W        W18096  37.059  42.308   3.669
49723W        W18097  13.350  28.096   1.773
49724W        W18098  39.904   1.861   0.373
49725W        W18099  12.757  41.466   1.877
49726W        W18100   8.753  31.987   3.849
49727W        W18101   5.227   3.898  12.922
49728W        W18102  22.705  17.686  14.815
49729W        W18103   0.773  20.768   0.328
49730W        W18104  31.536  24.641   2.269
49731W        W18105  26.004  19.077   4.825
49732W        W18106  14.775  16.768  12.831
49733W        W18107  44.803  20.545  12.464
49734W        W18108  18.780  39.495   4.720
49735W        W18109  13.800   8.209  12.985
49736W        W18110  42.909  31.101  14.807
49737W        W18111  32.115  21.186  11.919
49738W        W18112  28.660  32.987   2.321
49739W        W18113  27.198   9.737  13.917
49740W        W18114  17.186   5.808   4.335
49741W        W18115  24.641  39.981   3.808
49742W        W18116   3.414  15.323   2.255
49743W        W18117  30.650  30.508  11.115
49744W        W18118   1.840  44.809  13.362
49745W        W18119  32.116   4.738  14.994
49746W        W18120   8.178  14.258   2.892
49747W        W18121  21.163   9.823  14.368
49748W        W18122  32.980  18.639   4.718
49749W        W18123  31.911  36.551  14.994
49750W        W18124  28.154  34.540   1.847
49751W        W18125   2.734   0.921   1.386
49752W        W18126  30.511  40.866  11.092
49753W        W18127   6.777  28.981   4.344
49754W        W18128  43.367  43.880  14.017
49755W        W18129   2.879  40.373  11.033
49756W        W18130  44.267  13.646  13.991
49757W        W18131  34.433  25.193   3.771
49758W        W18132  11.172   7.267   1.330
49759W        W18133   2.365  33.602  12.964
49760W        W18134   7.867  32.119   9.944
49761W        W18135  41.955  26.620   4.733
49762W        W18136   1.859  33.892   0.866
49763W        W18137   4.920  33.439   3.251
49764W        W18138  34.095   5.854   1.797
49765W        W18139  14.335  16.613  12.988
49766W        W18140  31.614  29.086  10.971
49767W        W18141   3.857  38.861   0.808
49768W        W18142  18.163   3.432   3.758
49769W        W18143  38.411  25.078  13.807
49770W        W18144  27.110  24.173  10.482
49771W        W18145  40.923  33.075  14.992
49772W        W18146  19.753  35.466  12.078
49773W        W18147  32.550  29.127   1.835
49774W        W18148  42.010   0.347   3.764
49775W        W18149  25.187  34.080   0.272
49776W        W18150  30.625  22.744  13.902
49777W        W18151  13.237  41.514  13.473
49778W        W18152  34.437  19.588   4.745
49779W        W18153   1.774  22.704  11.977
49780W        W18154  39.360   9.697  10.142
49781W        W18155  17.789  31.113  13.381
49782W        W18156  18.144   9.314   1.792
49783W        W18157  28.988   6.710   1.699
49784W        W18158  34.883  36.085   4.178
49785W        W18159  25.623  25.214  11.984
49786W        W18160   9.716   8.366  13.982
49787W        W18161  34.989  43.808   2.672
49788W        W18162   7.341  36.464  11.436
49789W        W18163  21.228  23.052  14.794
49790W        W18164  40.436  43.945   1.743
49791W        W18165   0.820  29.586  11.987
49792W        W18166  33.111   4.334  10.588
49793W        W18167  29.137   9.155   1.318
49794W        W18168  41.342  15.165  13.511
49795W        W18169  38.397   9.324   5.180
49796W        W18170  33.924  29.001  13.357
49797W        W18171  12.190  29.530  12.466
49798W        W18172  24.076  24.065  14.380
49799W        W18173  16.201   7.792  14.765
49800W        W18174  44.492  23.182   1.802
49801W        W18175   9.301  36.988   0.243
49802W        W18176  42.402   4.245   2.761
49803W        W18177   3.358  41.862   2.362
49804W        W18178  11.256  17.593  14.931
49805W        W18179  44.333  11.623   0.417
49806W        W18180  37.074  38.033  10.941
49807W        W18181  37.894   6.340  14.449
49808W        W18182  21.685   1.740  12.352
49809W        W18183  12.282  39.511   0.243
49810W        W18184  13.174  42.795  10.128
49811W        W18185  23.655  11.678   3.361
49812W        W18186  15.115  12.203  13.367
49813W        W18187   8.290  22.010   4.709
49814W        W18188  14.291   2.296  14.938
49815W        W18189  11.725  13.732   0.933
49816W        W18190  38.055  41.464  10.580
49817W        W18191  34.083  27.026   2.768
49818W        W18192   8.347  28.128  12.568
49819W        W18193  12.720  31.925  13.043
49820W        W18194  20.071  36.056  13.896
49821W        W18195  23.498  36.402  10.607
49822W        W18196  32.480   8.396   1.318
49823W        W18197  35.051   8.724  13.962
49824W        W18198   0.900   1.318  13.860
49825W        W18199  32.609   9.889  14.334
49826W        W18200   5.772   9.161  14.293
49827W        W18201   4.913  14.597   4.264
49828W        W18202  17.121  12.209   4.245
49829W        W18203  18.753  36.445   3.334
49830W        W18204   7.260  35.554  11.896
49831W        W18205  23.711  42.808   4.813
49832W        W18206  33.502  24.502  14.432
49833W        W18207   2.367  37.889   3.750
49834W        W18208   3.311  19.203  13.411
49835W        W18209   6.348   2.408  12.905
49836W        W18210  36.389  38.387  14.835
49837W        W18211   4.823  35.993   4.171
49838W        W18212  10.262  16.074  10.911
49839W        W18213  17.725  30.064   4.793
49840W        W18214  20.579  35.978   3.301
49841W        W18215   1.880  18.733  13.387
49842W        W18216  33.107  25.966   1.251
49843W        W18217   9.346  25.661  11.402
49844W        W18218  37.999   4.444   1.785
49845W        W18219   3.456  36.989  14.411
49846W        W18220  43.487  36.431   2.182
49847W        W18221  24.579   7.866   4.229
49848W        W18222   9.254  36.046  12.895
49849W        W18223  17.678   3.930   1.345
49850W        W18224  27.570  37.975   4.289
49851W        W18225  26.495  40.435  11.030
49852W        W18226  10.801   3.866   0.920
49853W        W18227  37.525  18.549  12.998
49854W        W18228  13.309  23.154   2.825
49855W        W18229  26.483   4.263  13.360
49856W        W18230   6.199  16.223  12.037
49857W        W18231  42.837   7.404   0.458
49858W        W18232  21.573  30.609   4.187
49859W        W18233  39.459  36.387  14.868
49860W        W18234  25.492  12.328   3.262
49861W        W18235  29.598  38.052   2.874
49862W        W18236  16.651  33.567   4.697
49863W        W18237   4.431  12.618  11.426
49864W        W18238  25.660  34.511  13.826
49865W        W18239  42.474   2.856   2.378
49866W        W18240  31.440  23.119  11.859
49867W        W18241  25.712  44.854  14.411
49868W        W18242  28.182   9.702  11.517
49869W        W18243  44.402  19.178  11.504
49870W        W18244   9.881  41.822  11.400
49871W        W18245  10.336  14.616   3.755
49872W        W18246  17.614  20.236   0.881
49873W        W18247  25.641  22.197  10.473
49874W        W18248  43.907  36.542   1.817
49875W        W18249  44.427  17.165   3.254
49876W        W18250  35.419  14.698   4.646
49877W        W18251  38.984  16.271  13.827
49878W        W18252  19.145   3.417  11.059
49879W        W18253  12.234  21.695   4.295
49880W        W18254  41.912  28.004   3.686
49881W        W18255  10.738  17.569   1.261
49882W        W18256  13.339  20.563   2.298
49883W        W18257  13.310  12.841  10.116
49884W        W18258  10.735  15.590  11.888
49885W        W18259  39.425  26.462   3.347
49886W        W18260  23.040  38.001  12.512
49887W        W18261  25.159   5.752   0.837
49888W        W18262  28.632  31.940  13.006
49889W        W18263   3.220  10.856   4.625
49890W        W18264  14.652   0.316   0.343
49891W        W18265  40.449   1.875   2.686
49892W        W18266  29.114  22.706   3.203
49893W        W18267   9.283  43.313  14.348
49894W        W18268  36.581   8.292  10.475
49895W        W18269  12.293  27.170   4.671
49896W        W18270  26.006  13.832  13.990
49897W        W18271  26.526  24.191  13.498
49898W        W18272  43.978   0.311   3.848
49899W        W18273  39.380  10.296  10.542
49900W        W18274  25.486  41.903  13.944
49901W        W18275  42.370  20.611  10.537
49902W        W18276   7.263  23.600   4.769
49903W        W18277   1.404  23.506  10.939
49904W        W18278   7.369  41.825   2.288
49905W        W18279  35.395  10.264   1.449
49906W        W18280   8.745  23.689   2.662
49907W        W18281  22.548  16.592   1.278
49908W        W18282  12.636   4.361  13.856
49909W        W18283  35.050   1.974   2.877
49910W        W18284  42.321  39.356  11.857
49911W        W18285  17.695  16.638  11.551
49912W        W18286   6.739   4.321  11.916
49913W        W18287  17.094  19.746  14.882
49914W        W18288  41.926   5.403   4.292
49915W        W18289   3.441   5.377  11.970
49916W        W18290  43.863  36.445  13.496
49917W        W18291   6.295  25.475  10.896
49918W        W18292  34.582  14.317  12.085
49919W        W18293  40.966  27.042  12.351
49920W        W18294  25.981   0.988  13.805
49921W        W18295  14.112  43.980  14.907
49922W        W18296  28.073  29.424   0.468
49923W        W18297   0.811  32.494  13.057
49924W        W18298   3.837  38.556   2.844
49925W        W18299  28.506   7.350   0.377
49926W        W18300   5.910  12.320  12.484
49927W        W18301  19.247  35.556  14.975
49928W        W18302  39.039   1.891  10.142
49929W        W18303   5.903  20.655   3.275
49930W        W18304  28.518  10.377   0.380
49931W        W18305   6.807  31.626  10.943
49932W        W18306  20.230   7.283   2.771
49933W        W18307  24.616  40.500  12.443
49934W        W18308  27.951   1.356  14.758
49935W        W18309  23.182  34.377   2.662
49936W        W18310  20.214  41.344  13.884
49937W        W18311  21.514  41.382  14.290
49938W        W18312  11.743  36.430  12.359
49939W        W18313  28.152  14.624  11.874
49940W        W18314  23.639  35.028  13.843
49941W        W18315  14.604  18.103   2.272
49942W        W18316  22.121  17.692   4.242
49943W        W18317  36.450  33.485  14.855
49944W        W18318  12.768   3.951   3.711
49945W        W18319   7.205  28.508  10.974
49946W        W18320  14.253  20.704   1.379
49947W        W18321   5.775   8.899  10.890
49948W        W18322   1.272  40.481   1.743
49949W        W18323  15.282  34.871  10.918
49950W        W18324   5.760  36.370  10.421
49951W        W18325   7.713  30.052  13.519
49952W        W18326   0.434  19.150   2.413
49953W        W18327  28.961  20.533  11.524
49954W        W18328  28.542  24.060   3.858
49955W        W18329  17.225  31.511  11.515
49956W        W18330   0.324  38.455  13.047
49957W        W18331  19.615  18.590   0.868
49958W        W18332  29.487  10.142   1.908
49959W        W18333  31.049  13.121  12.554
49960W        W18334  15.099  22.569   2.337
49961W        W18335  29.035  13.680   0.897
49962W        W18336  29.506   8.354  12.965
49963W        W18337  11.833   0.301  11.939
49964W        W18338  26.558  44.827   1.930
49965W        W18339   4.229  42.461  14.818
49966W        W18340  39.876  27.652   0.780
49967W        W18341  41.532  27.046  14.949
49968W        W18342  23.004  28.948   3.742
49969W        W18343  43.432  18.599   3.790
49970W        W18344  24.203  32.620   9.984
49971W        W18345  14.284  22.720  14.930
49972W        W18346  20.235  36.063  11.104
49973W        W18347   1.469  35.502  12.530
49974W        W18348   6.427  44.860  14.474
49975W        W18349  44.786  21.238  12.846
49976W        W18350  38.474   0.798  12.079
49977W        W18351   0.821   4.229   1.283
49978W        W18352  25.034  29.637  11.930
49979W        W18353   3.933  16.570   1.390
49980W        W18354  30.927  13.641  13.860
49981W        W18355  29.430  33.095  13.010
49982W        W18356  24.000  42.912   0.830
49983W        W18357  41.831  44.434  11.983
49984W        W18358  12.287  35.596  10.535
49985W        W18359   8.271   2.882  14.448
49986W        W18360  30.018  21.587  14.805
49987W        W18361  25.026  35.424  12.969
49988W        W18362   2.271   1.746   2.698
49989W        W18363  18.157  39.878  14.402
49990W        W18364   8.241   3.266  10.923
49991W        W18365  42.301   3.815  11.483
49992W        W18366  23.149  18.779   0.308
49993W        W18367   2.425  38.383   3.176
49994W        W18368  27.116  21.560   1.240
49995W        W18369  22.621  30.418   3.250
49996W        W18370  35.448  10.642   3.813
49997W        W18371   4.410  13.109   4.725
49998W        W18372  10.641  27.006   0.283
49999W        W18373  37.844  39.918  14.970
50000W        W18374  33.014  25.082  14.357
50001W        W18375  18.698  25.659  13.985
50002W        W18376   7.687  44.489   4.193
50003W        W18377   6.823  17.061  11.381
50004W        W18378  35.041  21.138  13.427
50005W        W18379  40.352  37.835  12.871
50006W        W18380  15.746  22.144  11.975
50007W        W18381  13.698  42.478   0.854
50008W        W18382  34.113  15.748  13.517
50009W        W18383  18.710   7.744   4.641
50010W        W18384  26.643  21.068  12.395
50011W        W18385  42.345  39.527   0.371
50012W        W18386  20.103  44.323   4.752
50013W        W18387  13.300  19.536   4.218
50014W        W18388  23.560  19.182  10.417
50015W        W18389  16.281  43.837   0.828
50016W        W18390  29.540   4.856  14.939
50017W        W18391   2.276   7.701   1.851
50018W        W18392  33.099  40.441  12.483
50019W        W18393  43.313  41.810  10.440
50020W        W18394  23.161  23.599   1.934
50021W        W18395  29.049  19.769   0.307
50022W        W18396  40.054  16.808   1.848
50023W        W18397  15.676  25.070  10.596
50024W        W18398  40.960   3.720  14.456
50025W        W18399  42.377  40.913   1.414
50026W        W18400  42.341  44.311   1.911
50027W        W18401  10.166  40.852   1.401
50028W        W18402  36.981  34.871   2.755
50029W        W18403  30.118  32.611  11.500
50030W        W18404  42.825  28.124  13.890
50031W        W18405   1.974  11.632   3.791
50032W        W18406  16.263  31.509  12.483
50033W        W18407  21.169   3.396  13.019
50034W        W18408  44.946   6.383  10.467
50035W        W18409  15.719  14.645   4.205
50036W        W18410  20.699   3.711   4.266
50037W        W18411   2.741  16.153  12.577
50038W        W18412  29.040  22.512   4.193
50039W        W18413   2.845  20.596  13.814
50040W        W18414   2.805  22.117   1.439
50041W        W18415   9.652   3.734   4.329
50042W        W18416  43.374  44.943  11.027
50043W        W18417  17.747  18.583   2.834
50044W        W18418  15.579  31.423  12.061
50045W        W18419  21.695  44.902  11.083
50046W        W18420  40.904   9.195   2.260
50047W        W18421  44.777  41.927  14.516
50048W        W18422  24.038  14.220   2.186
50049W        W18423  43.878  13.183   4.222
50050W        W18424   7.675   2.789   5.317
50051W        W18425  37.437  36.039   4.246
50052W        W18426  42.817  14.317  10.580
50053W        W18427  27.467  28.539  14.832
50054W        W18428  43.364  39.324  13.492
50055W        W18429  23.238  10.381   0.891
50056W        W18430  24.720  34.045   0.858
50057W        W18431  15.779  37.340  12.973
50058W        W18432  10.214  36.923  12.567
50059W        W18433  26.126  15.745  13.855
50060W        W18434  20.134  42.294  11.581
50061W        W18435  27.602  16.189  14.926
50062W        W18436  26.175  29.478   1.898
50063W        W18437  11.245  38.491  14.301
50064W        W18438  10.637  24.517  11.904
50065W        W18439  18.588  13.692  13.537
50066W        W18440  12.160  25.970   2.897
50067W        W18441  27.168   0.846   4.183
50068W        W18442  14.322  18.118   2.879
50069W        W18443   9.392   6.251   9.994
50070W        W18444  15.724  39.320   3.741
50071W        W18445  41.817  18.548   2.400
50072W        W18446  25.199  26.107   3.370
50073W        W18447  10.869  20.204   3.659
50074W        W18448  39.897  39.062  12.378
50075W        W18449   7.789   1.802  14.515
50076W        W18450  18.149  10.285  12.923
50077W        W18451  16.183   2.449   4.819
50078W        W18452   2.258  32.622   0.762
50079W        W18453  23.986  12.655  11.964
50080W        W18454  37.419  19.274   2.684
50081W        W18455  25.549  14.186   5.182
50082W        W18456  15.220  37.852   0.843
50083W        W18457  36.370  13.217  14.422
50084W        W18458  35.530  25.563   3.788
50085W        W18459  21.215  41.336  13.953
50086W        W18460  33.557  20.096   3.379
50087W        W18461  26.490  23.634  14.960
50088W        W18462  18.139  35.898   1.395
50089W        W18463  32.031  18.651  14.362
50090W        W18464  40.494   8.827  12.074
50091W        W18465  33.048  25.479  13.812
50092W        W18466  30.082  39.057  11.546
50093W        W18467  26.034   6.724   4.181
50094W        W18468   2.423  12.325   0.870
50095W        W18469   6.279  36.061   1.720
50096W        W18470  17.772   5.369  12.975
50097W        W18471  10.811  17.677  11.543
50098W        W18472  38.056   1.251  13.939
50099W        W18473  42.329  21.519   0.920
50100W        W18474  41.914   6.867  10.577
50101W        W18475   5.214  39.951   3.678
50102W        W18476  29.637   9.786   1.803
50103W        W18477  22.102  15.704  10.410
50104W        W18478   7.345  24.196  12.064
50105W        W18479  20.248  10.315   5.158
50106W        W18480  29.665  40.372   3.756
50107W        W18481  13.771   0.303  11.046
50108W        W18482  42.952  17.592   0.431
50109W        W18483  11.145   5.839  13.344
50110W        W18484  22.727   9.740   0.821
50111W        W18485  23.619  26.540  14.510
50112W        W18486  20.544  31.996  11.430
50113W        W18487  42.785  30.548   4.255
50114W        W18488  17.135  23.649   3.706
50115W        W18489  33.982   7.756  14.805
50116W        W18490  35.411  30.021   1.817
50117W        W18491  17.612   8.185   2.700
50118W        W18492  17.692  20.078   2.306
50119W        W18493   9.662  40.886  12.472
50120W        W18494   8.213  41.999   4.207
50121W        W18495  24.662  17.067   1.322
50122W        W18496   2.871  14.225   4.229
50123W        W18497   2.365  21.654  14.451
50124W        W18498  38.347  41.977   3.727
50125W        W18499  42.009  25.589  10.990
50126W        W18500  36.483  16.769   0.445
50127W        W18501  21.730  24.716   3.206
50128W        W18502  36.571  35.551   3.183
50129W        W18503  36.065  19.211   2.889
50130W        W18504  30.968  16.222   2.689
50131W        W18505  31.056  26.609  12.987
50132W        W18506  25.195  15.110  13.944
50133W        W18507  41.857   4.356   2.363
50134W        W18508  37.966  32.957  10.440
50135W        W18509  25.990   2.745   3.688
50136W        W18510   0.800  42.410  13.309
50137W        W18511  21.143   8.796  12.550
50138W        W18512  10.218  11.653   1.434
50139W        W18513  43.919  36.555  12.380
50140W        W18514  31.408  23.230  11.002
50141W        W18515  44.753  16.277   1.289
50142W        W18516  12.825  30.031  14.881
50143W        W18517   4.287  29.607  13.406
50144W        W18518   6.752  31.602   4.641
50145W        W18519  27.162  37.909  14.888
50146W        W18520  41.472   0.319   0.481
50147W        W18521   9.205  28.583   0.246
50148W        W18522  43.386  36.902   3.156
50149W        W18523  19.744  29.647   0.373
50150W        W18524   9.159  42.887   4.155
50151W        W18525  10.750  27.984   2.684
50152W        W18526   2.765  41.883   0.246
50153W        W18527  21.096   2.236  13.392
50154W        W18528  42.000   2.342  10.923
50155W        W18529  10.311  25.632  12.996
50156W        W18530  40.526  31.558   2.258
50157W        W18531   7.247   5.797  11.566
50158W        W18532  16.634   4.775  14.024
50159W        W18533  10.262  40.401  13.841
50160W        W18534   6.772  25.676   0.384
50161W        W18535   8.816  43.480  14.002
50162W        W18536   6.730  38.893   2.289
50163W        W18537  16.669  42.947  13.411
50164W        W18538  21.034  42.405   3.706
50165W        W18539  32.028  36.899  13.821
50166W        W18540  20.124   0.493   4.718
50167W        W18541  10.372  18.175  14.431
50168W        W18542  42.007   3.912   4.809
50169W        W18543  24.203   2.955  12.465
50170W        W18544  11.306  23.646   1.393
50171W        W18545  36.948  42.377   0.328
50172W        W18546  15.733   2.749   4.332
50173W        W18547  29.582  15.606   3.757
50174W        W18548  34.040   4.437  11.513
50175W        W18549  14.748  39.448  13.919
50176W        W18550  35.082  41.031   4.355
50177W        W18551   8.268  16.789   4.192
50178W        W18552  40.362  34.606  11.379
50179W        W18553  11.790  32.541  12.034
50180W        W18554  29.591  23.044  13.849
50181W        W18555  28.456   9.358  12.355
50182W        W18556  11.838  25.989   3.801
50183W        W18557  39.440   9.682   4.281
50184W        W18558   2.904   1.354   0.955
50185W        W18559  13.833  26.488  10.921
50186W        W18560  21.723  43.890  10.951
50187W        W18561  35.403  40.044   3.642
50188W        W18562  18.127  31.451   3.334
50189W        W18563  23.522  12.642   1.257
50190W        W18564  42.818  23.689   3.846
50191W        W18565   9.262  33.101   1.299
50192W        W18566  24.542   4.400   3.795
50193W        W18567   1.436  11.318   3.766
50194W        W18568  12.188  14.631  14.824
50195W        W18569  34.102   8.682   4.807
50196W        W18570   2.745   4.704  11.442
50197W        W18571  41.377  27.158  14.294
50198W        W18572   0.346  27.140   2.741
50199W        W18573  13.845  11.622   2.190
50200W        W18574  26.640  39.005   2.290
50201W        W18575  34.869  32.506   2.365
50202W        W18576  42.285   5.379   3.782
50203W        W18577  42.328  40.881   2.675
50204W        W18578   7.776  36.865  13.889
50205W        W18579  28.612   0.466   4.220
50206W        W18580   9.727  13.622  13.889
50207W        W18581   6.873   1.803   4.195
50208W        W18582  21.538   1.455  11.611
50209W        W18583  21.597  16.762  14.496
50210W        W18584  38.365  44.981  10.905
50211W        W18585  22.728  43.932  14.994
50212W        W18586  37.510  29.518   3.809
50213W        W18587  32.533  20.161  10.596
50214W        W18588  34.980  26.654  10.525
50215W        W18589   2.749  35.522   0.346
50216W        W18590   2.247  31.084  12.415
50217W        W18591  36.483  37.993  13.851
50218W        W18592  18.079  13.606  11.524
50219W        W18593  37.446  31.646  11.476
50220W        W18594  13.190   8.237   2.795
50221W        W18595  39.430  17.278   4.662
50222W        W18596   8.676  44.798   1.438
50223W        W18597  27.449  29.440   0.954
50224W        W18598  36.894  27.015  11.855
50225W        W18599  28.540   1.475   5.792
50226W        W18600  41.861  27.192  10.525
50227W        W18601  44.815   9.689   2.687
50228W        W18602  41.024  28.067  10.998
50229W        W18603  19.211  25.540  11.990
50230W        W18604  18.574  41.030   2.855
50231W        W18605  21.643  29.523   3.274
50232W        W18606  36.526  27.075  14.992
50233W        W18607  40.007   7.249  14.965
50234W        W18608   1.423  21.150  10.465
50235W        W18609  44.966  28.165  12.004
50236W        W18610  17.774  37.377  12.503
50237W        W18611  31.595  30.162  11.865
50238W        W18612  44.955  21.669   0.314
50239W        W18613  22.652  37.462  14.448
50240W        W18614  33.563  36.961  13.931
50241W        W18615   5.717   2.309   0.772
50242W        W18616  29.454  24.693  10.998
50243W        W18617  41.364  33.438  13.986
50244W        W18618  38.865   9.284   1.314
50245W        W18619  13.304   5.858   0.269
50246W        W18620  44.823  27.976   0.766
50247W        W18621  41.999  34.503   4.795
50248W        W18622  10.321   5.225  12.992
50249W        W18623  24.082  13.246  10.502
50250W        W18624   0.298  34.420  14.991
50251W        W18625  16.162  31.076   0.780
50252W        W18626  41.906   8.865   3.843
50253W        W18627  13.635  10.878   5.199
50254W        W18628  42.886  28.651   3.366
50255W        W18629  39.033  24.615  14.454
50256W        W18630   4.782  44.423  11.472
50257W        W18631  14.826   0.400  13.347
50258W        W18632  10.772  40.837  10.548
50259W        W18633  42.447  29.466   1.341
50260W        W18634  12.792  18.596   4.352
50261W        W18635  28.046   0.979   2.224
50262W        W18636  25.574  15.737   1.420
50263W        W18637  14.641  11.205   1.214
50264W        W18638  27.641  29.526  14.388
50265W        W18639  14.703  12.285   1.891
50266W        W18640  20.610  25.685   1.718
50267W        W18641  31.094  29.091  11.046
50268W        W18642  39.533  22.742   4.174
50269W        W18643   1.265   0.756  10.636
50270W        W18644   7.899  34.869   2.384
50271W        W18645   6.798  28.472   5.579
50272W        W18646  44.287  14.157  12.580
50273W        W18647  25.964  30.930  13.380
50274W        W18648  32.920  10.222   1.812
50275W        W18649  43.904  32.095  13.945
50276W        W18650   5.361  18.166  10.553
50277W        W18651   5.810  28.493  12.084
50278W        W18652  13.291  12.682   1.422
50279W        W18653  43.890  17.291   2.741
50280W        W18654  43.970  12.758  10.587
50281W        W18655   1.458  27.564  12.945
50282W        W18656  29.126  33.576  14.949
50283W        W18657  33.578  24.686  11.873
50284W        W18658  16.079  21.209  10.146
50285W        W18659   7.176  11.672  12.069
50286W        W18660  16.105  22.243  10.935
50287W        W18661  29.023  37.908   0.434
50288W        W18662  21.740   9.728  14.317
50289W        W18663  40.915  11.635   0.316
50290W        W18664  23.677  17.180   0.328
50291W        W18665   5.293  27.177   4.226
50292W        W18666  39.328   6.355   1.427
50293W        W18667  29.595   5.241   3.773
50294W        W18668  32.892   7.188   0.325
50295W        W18669  44.994  21.058  10.910
50296W        W18670  44.383   8.328  14.356
50297W        W18671   7.873  40.428  13.463
50298W        W18672   9.887  25.657   3.731
50299W        W18673  26.129  11.717   4.203
50300W        W18674  38.000  33.095   3.652
50301W        W18675  42.287   6.731   3.815
50302W        W18676  17.144  20.539  14.973
50303W        W18677  38.012  23.583  12.966
50304W        W18678  31.018  13.190   4.279
50305W        W18679  21.188  10.149  12.375
50306W        W18680  11.252  11.856  14.472
50307W        W18681  37.336  32.910   9.972
50308W        W18682  18.283  40.019   0.416
50309W        W18683  33.054  18.097  10.949
50310W        W18684  18.698  11.211  11.508
50311W        W18685  36.496   7.338   1.391
50312W        W18686  30.587  24.192   4.639
50313W        W18687  15.710  34.999  13.945
50314W        W18688  12.191  42.348  13.860
50315W        W18689  35.570  38.885  14.361
50316W        W18690  25.220  18.097   2.382
50317W        W18691  25.145  10.156   2.807
50318W        W18692  38.566  26.691  14.843
50319W        W18693  11.634  43.862   1.880
50320W        W18694  24.655  41.973   3.765
50321W        W18695   0.470   3.393   1.244
50322W        W18696   7.718  14.767   0.941
50323W        W18697  43.474  14.277  11.985
50324W        W18698  43.828  36.024  11.971
50325W        W18699  38.027   4.944  12.848
50326W        W18700  12.342   7.383   2.275
50327W        W18701  29.616   0.760   3.254
50328W        W18702  13.795  36.398   4.753
50329W        W18703  20.566  25.999  13.371
50330W        W18704  25.552   8.662  13.894
50331W        W18705  36.365  12.116   0.845
50332W        W18706  36.455  26.089   2.403
50333W        W18707  15.319   5.786  14.416
50334W        W18708  27.175  37.856  13.867
50335W        W18709  12.297  12.195  13.417
50336W        W18710  34.865  31.523   4.268
50337W        W18711  13.308   9.304   3.352
50338W        W18712  44.004  13.264  14.490
50339W        W18713  36.005  28.505   4.634
50340W        W18714   0.339  26.611   0.967
50341W        W18715  42.390  38.407   1.827
50342W        W18716  23.700   2.877   4.817
50343W        W18717  44.497   5.370   0.407
50344W        W18718  39.391  41.474  12.480
50345W        W18719  38.571   7.236   9.934
50346W        W18720  44.987   4.390  10.625
50347W        W18721  42.995   4.869  12.572
50348W        W18722   5.335  44.423   1.741
50349W        W18723  41.014   8.682  14.468
50350W        W18724  31.109  44.985  14.013
50351W        W18725  13.304  26.617   4.266
50352W        W18726  15.248  30.102  10.911
50353W        W18727  20.119   8.893   2.773
50354W        W18728  36.453   7.818   0.865
50355W        W18729  29.505  31.432   3.712
50356W        W18730  19.667  14.624   4.753
50357W        W18731  11.261  34.039  10.423
50358W        W18732  14.151  29.931   2.262
50359W        W18733  13.147  29.152  14.429
50360W        W18734  12.155   1.867   4.802
50361W        W18735  22.525  14.264  13.429
50362W        W18736   4.738  28.995  10.058
50363W        W18737  38.901  37.006   3.295
50364W        W18738  44.452  16.605   1.848
50365W        W18739  19.696  10.811   3.149
50366W        W18740   7.746  25.039   2.681
50367W        W18741  34.462   7.686  14.325
50368W        W18742  10.695   4.824   4.176
50369W        W18743   8.177   0.372  12.081
50370W        W18744  35.106  38.862  14.936
50371W        W18745  17.136  40.422  12.010
50372W        W18746  30.997  16.675  10.616
50373W        W18747  37.436  36.562  14.918
50374W        W18748   6.375  36.913  14.932
50375W        W18749   1.766  19.156  12.467
50376W        W18750  44.816  32.094  14.300
50377W        W18751  11.852   9.212   3.669
50378W        W18752  27.546  25.517  10.918
50379W        W18753  31.520  32.599   2.328
50380W        W18754  37.479  23.087  11.944
50381W        W18755  34.034  28.573  10.489
50382W        W18756  39.032  39.459  10.954
50383W        W18757  14.679   5.281   2.831
50384W        W18758  34.433  41.370   4.140
50385W        W18759  16.174  41.791  14.776
50386W        W18760  34.501  41.494  14.029
50387W        W18761  42.388  21.731  14.403
50388W        W18762  28.628  13.821   1.818
50389W        W18763  25.997  28.575  10.598
50390W        W18764  28.023   5.769  13.981
50391W        W18765  38.901  15.592  11.933
50392W        W18766   7.734   2.740   4.239
50393W        W18767  32.985  36.579   4.306
50394W        W18768  11.670  38.543   0.367
50395W        W18769  43.433  31.900  12.517
50396W        W18770   7.379  28.567  10.102
50397W        W18771   6.310  44.408   4.782
50398W        W18772   9.669  28.160  14.332
50399W        W18773  22.057  10.859   2.830
50400W        W18774  15.754  42.307   3.244
50401W        W18775   0.371   3.259  12.934
50402W        W18776  18.063  30.943  12.378
50403W        W18777   1.355  26.554  14.322
50404W        W18778  28.437  20.643  10.971
50405W        W18779   1.918   4.734  11.045
50406W        W18780  38.479   9.840  10.097
50407W        W18781  24.099  12.657  12.378
50408W        W18782  15.105  27.162  11.961
50409W        W18783  33.941  13.654  14.496
50410W        W18784  23.544  15.811   5.172
50411W        W18785  35.362  19.778  12.864
50412W        W18786   7.669  29.154  11.408
50413W        W18787   4.281   3.874  13.329
50414W        W18788  40.493  10.182  14.937
50415W        W18789   5.806   4.763   5.106
50416W        W18790  30.561  35.070  11.397
50417W        W18791  24.683  23.041   4.722
50418W        W18792  38.571   8.289  13.892
50419W        W18793   3.325  41.406  13.868
50420W        W18794   4.789  14.817  12.563
50421W        W18795  32.070  30.026   4.646
50422W        W18796  38.343  40.453   1.918
50423W        W18797  14.170  34.409   3.273
50424W        W18798  10.221  27.623   5.274
50425W        W18799  26.700  33.021  10.114
50426W        W18800  39.895   2.925  12.986
50427W        W18801   8.207  19.713   3.173
50428W        W18802  14.647  28.145   0.800
50429W        W18803  20.691   7.326  12.373
50430W        W18804  44.278  32.062  11.544
50431W        W18805  17.762  44.301   0.953
50432W        W18806  14.735  39.420  12.917
50433W        W18807  12.152  22.609   2.818
50434W        W18808  16.231   9.646  13.870
50435W        W18809   8.314  16.731   1.914
50436W        W18810  22.235  29.442   0.727
50437W        W18811  43.822  36.999   0.759
50438W        W18812   8.828  20.080  10.588
50439W        W18813   0.916  43.314  12.974
50440W        W18814  15.723  42.502  14.902
50441W        W18815   4.757  21.185  10.607
50442W        W18816  33.085   4.350  14.014
50443W        W18817  35.501  27.045   4.803
50444W        W18818   8.263  26.168   1.726
50445W        W18819  10.661  29.572  10.554
50446W        W18820  18.121  10.755   0.780
50447W        W18821   0.323  44.918  10.978
50448W        W18822  11.339   9.776   2.352
50449W        W18823   9.273  29.034  13.956
50450W        W18824   6.356  40.871  13.480
50451W        W18825  12.631   7.793  11.902
50452W        W18826  15.802   3.259   1.364
50453W        W18827  44.290  18.665   4.228
50454W        W18828  32.952  36.385  13.032
50455W        W18829  33.443  41.385   1.237
50456W        W18830  41.932  27.999  13.351
50457W        W18831  37.054  36.557  11.955
50458W        W18832  33.598  21.758  13.851
50459W        W18833   4.779  24.709   3.325
50460W        W18834  38.390  34.013   2.289
50461W        W18835  31.454   2.439  14.504
50462W        W18836  19.225  21.062  12.838
50463W        W18837   6.300  28.177  14.861
50464W        W18838  19.079  27.622  13.868
50465W        W18839  35.016  28.638   4.644
50466W        W18840   3.856   0.761   1.784
50467W        W18841   1.344  12.788  10.483
50468W        W18842  13.204   1.363   3.223
50469W        W18843  39.521  19.693  13.801
50470W        W18844  43.002   3.828  13.848
50471W        W18845  24.112   1.368   1.880
50472W        W18846  42.300  10.709   2.395
50473W        W18847   7.819  20.169  11.547
50474W        W18848  19.281  19.226  12.982
50475W        W18849   1.434  25.202   1.742
50476W        W18850  13.175  28.459   3.714
50477W        W18851   0.775   3.845  13.037
50478W        W18852  19.086  24.011   2.387
50479W        W18853  40.332  43.424   2.219
50480W        W18854  20.061  38.923   5.170
50481W        W18855  31.456  43.317  11.010
50482W        W18856   1.859  44.942   2.184
50483W        W18857  32.029  34.094   4.836
50484W        W18858  43.498  44.889  14.400
50485W        W18859  10.143   6.680   0.895
50486W        W18860  34.513  13.781  13.347
50487W        W18861  14.243   7.378  13.933
50488W        W18862   4.845   1.256   0.450
50489W        W18863  19.540  22.705  10.602
50490W        W18864  37.510   2.788   3.200
50491W        W18865  15.605   6.400  14.413
50492W        W18866  36.881  14.185   2.788
50493W        W18867  14.612  41.004   2.348
50494W        W18868  34.478  19.698  13.536
50495W        W18869  42.863  34.566   4.186
50496W        W18870  19.231  43.932   3.700
50497W        W18871  16.610  41.447   4.231
50498W        W18872  23.170   0.276   1.385
50499W        W18873  19.692  13.655  14.013
50500W        W18874  25.021  42.946  11.475
50501W        W18875  15.269  25.983  11.111
50502W        W18876  41.416  13.341   3.201
50503W        W18877  24.196  40.528   1.238
50504W        W18878   7.343  27.578   5.119
50505W        W18879   2.838  36.515  12.875
50506W        W18880  39.343  35.857  11.554
50507W        W18881  31.406  23.671  11.037
50508W        W18882   1.285   0.343  13.834
50509W        W18883  29.520  33.069   2.307
50510W        W18884  41.935  21.155  14.422
50511W        W18885   7.667  10.783   0.822
50512W        W18886  33.879  20.625   4.784
50513W        W18887  18.616  33.597  13.928
50514W        W18888   2.260   3.439   4.192
50515W        W18889  39.839  27.622  12.553
50516W        W18890   0.856  41.963  14.316
50517W        W18891   4.704  37.577  10.503
50518W        W18892  19.090  19.575   0.758
50519W        W18893  14.816  23.546  13.939
50520W        W18894  12.255   7.312   0.826
50521W        W18895  33.945   9.840   2.741
50522W        W18896  42.999   1.304   4.608
50523W        W18897  35.064  14.149  14.403
50524W        W18898  20.242  24.656  14.796
50525W        W18899  22.050  42.020   1.890
50526W        W18900  13.249   4.263   0.432
50527W        W18901  24.546  29.477  13.449
50528W        W18902  41.319   0.837   0.899
50529W        W18903  30.586   0.318  14.781
50530W        W18904  16.790  10.671   4.663
50531W        W18905  19.045  28.604  13.919
50532W        W18906  18.214  31.412   2.677
50533W        W18907  24.094  31.905  12.986
50534W        W18908  24.560  39.972  14.398
50535W        W18909  12.789  17.763  10.539
50536W        W18910  23.188  29.929  14.789
50537W        W18911  42.487  40.303   3.178
50538W        W18912  25.995  23.217   3.691
50539W        W18913  31.037  17.797   3.855
50540W        W18914  32.445  28.588   1.376
50541W        W18915  39.057  41.326   4.598
50542W        W18916  37.037  39.417  10.497
50543W        W18917  27.145  36.041   0.861
50544W        W18918  35.971  30.130   3.213
50545W        W18919  20.745  26.569  14.507
50546W        W18920  20.592  42.815   5.129
50547W        W18921   8.211  15.679  12.362
50548W        W18922  25.171  36.488  11.928
50549W        W18923  33.936  17.798   0.750
50550W        W18924  11.866  26.054   0.454
50551W        W18925  41.850   2.849  14.339
50552W        W18926  32.999  18.241   3.281
50553W        W18927  18.269  20.096  10.940
50554W        W18928   3.901  15.145  11.091
50555W        W18929  38.447  29.962   2.270
50556W        W18930  20.750  40.961  12.382
50557W        W18931  26.688  18.602  14.495
50558W        W18932   5.753  29.629   0.801
50559W        W18933  35.418  34.054  11.901
50560W        W18934  17.726  43.010  12.512
50561W        W18935  14.268  44.971  12.565
50562W        W18936  20.128  38.895  11.488
50563W        W18937  22.529  39.828   2.784
50564W        W18938  35.439  40.314   2.672
50565W        W18939  27.660   2.732  12.859
50566W        W18940  32.975  23.171   4.661
50567W        W18941  28.486  28.606   4.147
50568W        W18942  44.874  39.423   2.708
50569W        W18943   0.300   8.665   0.949
50570W        W18944  13.115   2.301   3.240
50571W        W18945  44.429  39.545   3.785
50572W        W18946  24.993  43.341   3.377
50573W        W18947  35.455  11.772   2.209
50574W        W18948  10.838  13.791   4.194
50575W        W18949   4.383  37.343   4.259
50576W        W18950  34.983  41.292   1.234
50577W        W18951   8.900   2.445  12.062
50578W        W18952  13.729  43.866   4.320
50579W        W18953   2.300   2.851  11.502
50580W        W18954  43.904  11.210  13.363
50581W        W18955   1.261   6.833  13.876
50582W        W18956   3.313  34.559  10.488
50583W        W18957  17.591  25.112  14.284
50584W        W18958  13.814   2.251  13.819
50585W        W18959   5.288  30.626  14.504
50586W        W18960  37.044  21.663  14.421
50587W        W18961  26.616  16.660   4.181
50588W        W18962  34.394   9.767   3.310
50589W        W18963   5.373   4.852   4.657
50590W        W18964  36.000  27.511   1.276
50591W        W18965  38.963  11.315   3.371
50592W        W18966  17.694  39.531  12.015
50593W        W18967   7.847   0.961   5.146
50594W        W18968   2.770  16.721  14.767
50595W        W18969  27.972  39.812  12.859
50596W        W18970  44.270   1.752  10.912
50597W        W18971   7.311   3.898   4.794
50598W        W18972  10.254  38.569  11.460
50599W        W18973   1.415  29.504   2.779
50600W        W18974  26.062  29.469  11.510
50601W        W18975  30.956  11.295   3.238
50602W        W18976  22.136  32.586  14.016
50603W        W18977  10.241  29.616   0.810
50604W        W18978  21.640  31.416   2.803
50605W        W18979  42.512  36.589   2.748
50606W        W18980   0.383   1.325  13.962
50607W        W18981   0.944  23.040  13.387
50608W        W18982   2.413  20.059   1.322
50609W        W18983  31.995  24.505  11.575
50610W        W18984  23.646   9.788   0.372
50611W        W18985  27.106  34.033  14.933
50612W        W18986  35.478  14.770   0.957
50613W        W18987  19.138  11.667  13.528
50614W        W18988  40.409  23.095   3.846
50615W        W18989  41.370  37.979   2.903
50616W        W18990   2.839  42.776   4.747
50617W        W18991  16.778  40.409   0.396
50618W        W18992  16.777  12.333  12.915
50619W        W18993  42.466  37.953   3.759
50620W        W18994  32.141  38.949   4.218
50621W        W18995  43.016  43.916  14.387
50622W        W18996  29.918  39.041   2.850
50623W        W18997  21.579  12.213   2.887
50624W        W18998  18.070   0.783  13.506
50625W        W18999  15.618  27.165   0.782
50626W        W19000  29.040  16.715  13.904
50627W        W19001  25.056  12.290   1.787
50628W        W19002  18.716  33.621  10.487
50629W        W19003  44.775  25.478   4.815
50630W        W19004  24.199  37.522  12.380
50631W        W19005  40.420  18.051  10.598
50632W        W19006   7.340   3.305   1.368
50633W        W19007   0.374  29.604   2.778
50634W        W19008  17.603  23.557  13.914
50635W        W19009  32.614  28.975  14.865
50636W        W19010  24.116  28.594  11.001
50637W        W19011   3.797  15.787   0.456
50638W        W19012  14.707   6.788   0.861
50639W        W19013   3.331  11.706  13.843
50640W        W19014  28.504  26.009  14.343
50641W        W19015  37.940   8.871   3.728
50642W        W19016  44.416  31.548  12.017
50643W        W19017  10.675  11.339  12.885
50644W        W19018  30.566   3.888  12.894
50645W        W19019  21.133   3.942  11.118
50646W        W19020  43.981  29.639   0.741
50647W        W19021   0.463  26.960   0.878
50648W        W19022  32.947  15.630  14.425
50649W        W19023  28.935  32.555   4.147
50650W        W19024   0.355  30.636  10.896
50651W        W19025  44.841  32.131   4.598
50652W        W19026  33.461   1.264  10.636
50653W        W19027   1.858  39.529  12.477
50654W        W19028  29.508   5.333   0.847
50655W        W19029  17.183   3.953  12.976
50656W        W19030  22.170  15.210   2.774
50657W        W19031  37.350  24.619  12.839
50658W        W19032  41.367  32.549  13.487
50659W        W19033   5.772   6.740  10.607
50660W        W19034  29.471  16.664  11.584
50661W        W19035   8.780  15.586   2.183
50662W        W19036  34.952   7.272  12.828
50663W        W19037   0.489  23.197   4.633
50664W        W19038  13.115  16.629   0.261
50665W        W19039  24.540   1.905   0.863
50666W        W19040  25.647  43.871   1.770
50667W        W19041  12.189  23.197  13.934
50668W        W19042   3.904   8.761  13.506
50669W        W19043  25.526  40.890  12.481
50670W        W19044  15.805  15.194   4.651
50671W        W19045   1.335  15.632   2.417
50672W        W19046  18.139  18.786   4.698
50673W        W19047  42.847  11.202  12.053
50674W        W19048   2.311  42.001   2.895
50675W        W19049  15.654   5.233  12.908
50676W        W19050  14.115  40.540  13.488
50677W        W19051  18.607  19.278  12.090
50678W        W19052  34.558  15.194   1.867
50679W        W19053   8.725  34.889  11.939
50680W        W19054  34.591  13.699   2.352
50681W        W19055  30.983  19.536  12.826
50682W        W19056  21.584  22.711  13.027
50683W        W19057  32.960  14.212   4.158
50684W        W19058  16.079  39.035  12.565
50685W        W19059  42.454  30.142  13.989
50686W        W19060  22.578  11.140  12.005
50687W        W19061  43.350  14.676   1.316
50688W        W19062  22.011  26.983  14.453
50689W        W19063  41.468  16.298  11.463
50690W        W19064   7.898  39.420  10.536
50691W        W19065  29.596  34.060   0.284
50692W        W19066  42.344  22.590   0.306
50693W        W19067  37.983  33.388  14.890
50694W        W19068  36.928  39.927   0.949
50695W        W19069   5.318  24.091  11.886
50696W        W19070  15.674   4.351  14.460
50697W        W19071  19.738  42.476   4.117
50698W        W19072   8.811  39.422  14.338
50699W        W19073   7.879   8.333   0.372
50700W        W19074   4.707  44.493  12.848
50701W        W19075  11.702   7.895   2.775
50702W        W19076  34.380   6.354   1.342
50703W        W19077  29.061  44.852   0.348
50704W        W19078  22.713  10.345  14.015
50705W        W19079  22.178   2.230   0.283
50706W        W19080  36.517  12.186  14.826
50707W        W19081  29.133  29.540   3.304
50708W        W19082   0.780  38.870  14.023
50709W        W19083  34.046  10.852  11.601
50710W        W19084   5.387  37.373  12.079
50711W        W19085   6.789  20.541  13.800
50712W        W19086   1.441  25.582  13.503
50713W        W19087  37.478  24.165   1.925
50714W        W19088  17.631  29.032  13.457
50715W        W19089   5.369  10.253  13.497
50716W        W19090  16.204  33.505  14.819
50717W        W19091  31.527  20.748  11.917
50718W        W19092  31.428  24.551   3.249
50719W        W19093   2.826  15.096  11.971
50720W        W19094  28.437  36.593   2.338
50721W        W19095  10.313  20.733   5.081
50722W        W19096  38.435  36.870   1.388
50723W        W19097  43.411  41.395   4.683
50724W        W19098  30.535   8.700  12.560
50725W        W19099  23.066  10.806   4.810
50726W        W19100  32.440   1.809   0.265
50727W        W19101  32.987  15.720   4.232
50728W        W19102   7.869   6.377  11.904
50729W        W19103  28.590  11.213   3.370
50730W        W19104  12.787   9.392  11.998
50731W        W19105  21.753   3.429   1.304
50732W        W19106  15.090   8.248  10.072
50733W        W19107  20.643   3.382   4.114
50734W        W19108  18.178   7.397   2.325
50735W        W19109  33.505  22.544  13.929
50736W        W19110  37.865  43.784   0.758
50737W        W19111  12.329  12.228  12.082
50738W        W19112   6.792  22.607  11.584
50739W        W19113  39.473  44.320  12.903
50740W        W19114  18.640   3.879  13.343
50741W        W19115  16.715   0.772   1.919
50742W        W19116  42.007  19.228   2.771
50743W        W19117   0.953  31.443   0.930
50744W        W19118   6.823   3.420  10.501
50745W        W19119  20.550  23.624  11.600
50746W        W19120   1.340  36.015  13.515
50747W        W19121  30.566  27.037  12.066
50748W        W19122  13.656   7.688   0.898
50749W        W19123  10.373  13.779   3.277
50750W        W19124   4.440   0.887  14.361
50751W        W19125  43.491  44.406  12.062
50752W        W19126   2.909  24.051   2.211
50753W        W19127   6.283   2.244   5.107
50754W        W19128  29.976  14.623   3.752
50755W        W19129  37.019  16.644  12.913
50756W        W19130  39.473  32.616  13.828
50757W        W19131  41.404  24.082   3.270
50758W        W19132  43.868  42.509  14.998
50759W        W19133  18.613  37.452   1.393
50760W        W19134  12.155  32.060   3.188
50761W        W19135  43.948  20.053   0.306
50762W        W19136  23.087  43.501  11.129
50763W        W19137  19.113  29.052   2.835
50764W        W19138  38.871  10.296   2.854
50765W        W19139   9.647  21.753   2.713
50766W        W19140  28.038  22.727  14.019
50767W        W19141  10.153  29.963   0.771
50768W        W19142  32.990  30.149   0.364
50769W        W19143  32.549   8.382  12.854
50770W        W19144   8.292  44.871   3.866
50771W        W19145  36.590  27.175  13.966
50772W        W19146  29.662  18.733   3.713
50773W        W19147  24.016  10.690  13.023
50774W        W19148  15.774  32.423  14.457
50775W        W19149   2.240   2.913  13.910
50776W        W19150   2.811  20.191   4.137
50777W        W19151   0.756  28.131   3.693
50778W        W19152  32.402  35.958  12.537
50779W        W19153  27.017  36.088  12.977
50780W        W19154   0.813   9.647   1.299
50781W        W19155  31.638  12.352  14.447
50782W        W19156   0.261   2.798  10.642
50783W        W19157   3.268  18.241   2.319
50784W        W19158  14.795  36.587   1.324
50785W        W19159  26.069  29.476  10.946
50786W        W19160  20.122  44.387   2.728
50787W        W19161  36.942   7.246  10.466
50788W        W19162   9.189  24.533   3.273
50789W        W19163   1.926  34.888   3.806
50790W        W19164   4.439  26.697   2.238
50791W        W19165  39.423  13.338   3.858
50792W        W19166  20.209  41.910  10.948
50793W        W19167  20.152   4.845  10.499
50794W        W19168  43.000  17.143   2.798
50795W        W19169  12.297   8.721  14.372
50796W        W19170  43.780  26.096  14.383
50797W        W19171  10.250   2.250   3.703
50798W        W19172  25.218   9.219  14.492
50799W        W19173   0.975  24.657   3.234
50800W        W19174   2.228   9.306   2.238
50801W        W19175  33.911  22.187  11.381
50802W        W19176   4.933  39.431  12.919
50803W        W19177  34.880  41.429   2.188
50804W        W19178  31.104  38.554   4.611
50805W        W19179  19.267  37.368   3.735
50806W        W19180  13.639  14.666  14.413
50807W        W19181  25.525  24.692   4.644
50808W        W19182   3.221   3.831  11.111
50809W        W19183  19.120  37.465   1.802
50810W        W19184  19.254  23.173  12.364
50811W        W19185  24.556  30.612   0.910
50812W        W19186  31.022  43.427  13.494
50813W        W19187   3.817  14.287   2.304
50814W        W19188   0.395   1.448   3.225
50815W        W19189  13.301  31.040   1.229
50816W        W19190   8.847  16.226   0.330
50817W        W19191   0.864  12.195  14.912
50818W        W19192  11.776  40.316  13.468
50819W        W19193  41.474  18.270   4.631
50820W        W19194  34.993  26.145   0.293
50821W        W19195  27.066   1.458  11.068
50822W        W19196   3.404  33.992   0.819
50823W        W19197  26.082  38.894  12.392
50824W        W19198  30.436  24.165   2.302
50825W        W19199   4.209  44.400  11.902
50826W        W19200  38.415   9.228  10.078
50827W        W19201  11.133  23.041  13.026
50828W        W19202  36.566   0.756  14.837
50829W        W19203  39.358  38.484   2.809
50830W        W19204  30.644  16.085  14.350
50831W        W19205  29.008  10.645   0.387
50832W        W19206  44.924  40.908  11.893
50833W        W19207  20.077  35.459  13.328
50834W        W19208  23.232  40.802  11.000
50835W        W19209  25.084  24.988  10.573
50836W        W19210  16.151  14.152   4.334
50837W        W19211  11.168  20.130  12.013
50838W        W19212   4.420  33.518   0.757
50839W        W19213  38.899  41.331   9.935
50840W        W19214  18.233  33.487  13.336
50841W        W19215  11.289  11.268   3.763
50842W        W19216  38.385  29.930   4.663
50843W        W19217   0.754  13.247   5.114
50844W        W19218  31.535  26.092   0.812
50845W        W19219   7.408  37.459  13.377
50846W        W19220   3.263   7.827   1.280
50847W        W19221  18.708  31.144   1.722
50848W        W19222  41.981  19.698   0.310
50849W        W19223  11.631  27.449   1.711
50850W        W19224   0.334  42.509  14.328
50851W        W19225  27.620   7.773   3.379
50852W        W19226   7.323   9.154  13.838
50853W        W19227  23.723   1.977   0.947
50854W        W19228  26.608  20.655   0.347
50855W        W19229  29.651  27.625   0.932
50856W        W19230   2.891  13.800  10.447
50857W        W19231   8.240  37.928   2.819
50858W        W19232  20.096   6.334  10.151
50859W        W19233   5.292   3.840   3.349
50860W        W19234  17.252  24.572  13.513
50861W        W19235  42.021  21.068   5.235
50862W        W19236  27.475  32.585   1.339
50863W        W19237  19.259   8.325   2.710
50864W        W19238  41.392  36.518  11.914
50865W        W19239   7.201  11.237  14.991
50866W        W19240  15.313  24.216   0.359
50867W        W19241   3.354  34.990  11.896
50868W        W19242   9.861  24.640  10.938
50869W        W19243   8.346   1.930   4.222
50870W        W19244  19.565  38.847  11.452
50871W        W19245  13.204   7.902   3.697
50872W        W19246   1.826   3.437   1.823
50873W        W19247   8.794  13.609   1.285
50874W        W19248  13.760  35.899  12.885
50875W        W19249   9.260  15.666  14.006
50876W        W19250  39.965   2.947   0.271
50877W        W19251  22.204  29.456   3.327
50878W        W19252  28.548  21.751   0.361
50879W        W19253  12.235  30.036  11.597
50880W        W19254  25.697  29.440  13.042
50881W        W19255   9.732  43.794  13.973
50882W        W19256   5.926  41.365   3.748
50883W        W19257  23.572  32.046  14.801
50884W        W19258  34.503  35.456  12.985
50885W        W19259  15.639  38.997  10.914
50886W        W19260  43.296  21.649   2.404
50887W        W19261   2.872  24.638   4.700
50888W        W19262  26.140  20.247   1.380
50889W        W19263  36.432  10.376  12.064
50890W        W19264  41.815  37.880  12.962
50891W        W19265  43.502  24.655   1.728
50892W        W19266  32.017  30.452   1.211
50893W        W19267  23.648  28.613  12.381
50894W        W19268   4.400   9.214   0.250
50895W        W19269  38.447  32.559  13.822
50896W        W19270   4.805  21.173   0.449
50897W        W19271  11.266  33.920  12.502
50898W        W19272   8.344  38.503   1.434
50899W        W19273  43.898   7.284  12.838
50900W        W19274  25.020  21.087   3.212
50901W        W19275  43.389  43.888   1.340
50902W        W19276  26.144  39.966  11.431
50903W        W19277  23.692  33.131   0.838
50904W        W19278  35.417  28.017  14.322
50905W        W19279   8.285  24.205   3.279
50906W        W19280  11.690  32.602  12.888
50907W        W19281   8.709  13.832   3.663
50908W        W19282   0.745  36.078   1.723
50909W        W19283  26.963  19.132  10.893
50910W        W19284  39.440  41.525   2.804
50911W        W19285  30.462  11.787   3.710
50912W        W19286  22.725  24.717  13.444
50913W        W19287   3.808  39.834  11.095
50914W        W19288  22.621  23.603   1.388
50915W        W19289  26.152  39.494  14.429
50916W        W19290  22.587  22.121  10.137
50917W        W19291  13.216  16.794  11.983
50918W        W19292  18.775   4.836  13.849
50919W        W19293   2.903  16.152  11.044
50920W        W19294  22.745  41.529  13.341
50921W        W19295  42.320  36.046   3.753
50922W        W19296  28.996  38.865  10.919
50923W        W19297  40.423  41.300   5.215
50924W        W19298  20.034  37.548   4.274
50925W        W19299   3.928  41.984  14.339
50926W        W19300  19.155  44.431  13.336
50927W        W19301  43.824  35.922  14.768
50928W        W19302  13.176  34.864   4.716
50929W        W19303  36.362  31.958   2.208
50930W        W19304  22.061   1.375  12.434
50931W        W19305  37.011   5.902   0.320
50932W        W19306  37.974  33.933  14.855
50933W        W19307  30.453  18.580  12.887
50934W        W19308  19.205  20.537  14.982
50935W        W19309  16.190  25.620   0.401
50936W        W19310  33.623  28.676  14.482
50937W        W19311  12.270  43.328  14.853
50938W        W19312  25.153  42.940  10.504
50939W        W19313  27.644  44.475   1.431
50940W        W19314  39.319  43.822  12.092
50941W        W19315  25.989  35.100   3.343
50942W        W19316   9.699  24.201   2.335
50943W        W19317  15.611  42.341   3.820
50944W        W19318  29.092  24.093  12.913
50945W        W19319   3.910  11.292   0.757
50946W        W19320  38.878  14.678  10.943
50947W        W19321  21.210  12.334   3.262
50948W        W19322   6.778   5.380   1.864
50949W        W19323  26.692   0.457   2.719
50950W        W19324  18.550  23.629   0.918
50951W        W19325   0.886  31.928  10.918
50952W        W19326  14.115  41.825  10.597
50953W        W19327   1.354  24.652   1.721
50954W        W19328   4.867  22.058  13.421
50955W        W19329  32.907  13.286  10.566
50956W        W19330   4.234  34.615   2.704
50957W        W19331  10.183   5.211  12.040
50958W        W19332   4.752  28.448   2.878
50959W        W19333  16.746  10.239   3.759
50960W        W19334   3.735   7.320  11.879
50961W        W19335   6.412  27.106   2.669
50962W        W19336  37.932  37.403  10.897
50963W        W19337  10.147  38.878   0.324
50964W        W19338   1.953  39.863  12.562
50965W        W19339   0.938  28.465   3.802
50966W        W19340   8.764   5.849   4.817
50967W        W19341  29.598   8.381   0.887
50968W        W19342   9.708  11.145   2.708
50969W        W19343  35.070   3.368   1.822
50970W        W19344  40.534  25.713   3.825
50971W        W19345  21.246  26.152  14.487
50972W        W19346  36.066  27.601  11.939
50973W        W19347   1.476  20.608  13.948
50974W        W19348  13.347  39.955   1.271
50975W        W19349   9.318   6.897  14.298
50976W        W19350  42.496  38.368  14.013
50977W        W19351  20.663  28.178   4.731
50978W        W19352  28.043  22.199  14.424
50979W        W19353  14.826   8.893   5.182
50980W        W19354  28.592  18.091   0.829
50981W        W19355  26.182  29.123  14.980
50982W        W19356  27.503  37.354   4.321
50983W        W19357  14.198  31.512  14.899
50984W        W19358  43.806   0.385   0.389
50985W        W19359  28.106  38.968   1.275
50986W        W19360  10.216  10.260  14.417
50987W        W19361  18.147  19.282   2.724
50988W        W19362  31.508   5.926   1.328
50989W        W19363  43.019  42.443  14.318
50990W        W19364   5.296  34.594   3.275
50991W        W19365  34.112  35.494  10.928
50992W        W19366  23.716   4.396  14.809
50993W        W19367  32.507  12.776  12.519
50994W        W19368  34.059   7.325   0.361
50995W        W19369  40.869  41.895   0.415
50996W        W19370   2.252   6.709  13.931
50997W        W19371   4.249  43.408  11.954
50998W        W19372  10.379   4.350   4.172
50999W        W19373  34.564  23.098   3.707
51000W        W19374   3.872  23.100  11.543
51001W        W19375   7.734  36.428  14.834
51002W        W19376  41.850  23.067   3.793
51003W        W19377  26.612  16.754   0.949
51004W        W19378  35.912  38.902  13.537
51005W        W19379  26.558  35.522  14.468
51006W        W19380   5.365  31.483  10.515
51007W        W19381  15.601  35.551  12.823
51008W        W19382  37.475  28.444   2.208
51009W        W19383  13.732  41.932  13.017
51010W        W19384  16.711  20.156  12.509
51011W        W19385  20.559  18.670  14.385
51012W        W19386  28.965   8.397  10.413
51013W        W19387  23.654  44.908  14.437
51014W        W19388  42.423  16.191   1.334
51015W        W19389  33.553  23.215   1.413
51016W        W19390  14.686  10.804  12.404
51017W        W19391  13.144  35.858  12.564
51018W        W19392  28.026  39.060  13.495
51019W        W19393  39.468  25.148  11.383
51020W        W19394  39.957   5.209   4.241
51021W        W19395  36.976  13.304  11.094
51022W        W19396  23.045  17.076  11.588
51023W        W19397   7.198  22.034  10.938
51024W        W19398  11.865  42.881  13.537
51025W        W19399  25.617  37.507  10.515
51026W        W19400  11.689  18.277   3.152
51027W        W19401  27.509  40.425   0.892
51028W        W19402  43.011  27.464   0.377
51029W        W19403   7.731   1.968  10.095
51030W        W19404   1.262   5.896   2.804
51031W        W19405  29.583   9.301  14.405
51032W        W19406  23.661  43.437  14.007
51033W        W19407  27.113   3.299   1.438
51034W        W19408   0.309  17.637   0.894
51035W        W19409  16.731   7.277  10.641
51036W        W19410  21.231  26.595  13.822
51037W        W19411  10.812  18.569   4.166
51038W        W19412  17.559  27.686  10.958
51039W        W19413  14.726  16.149  11.902
51040W        W19414  31.918  23.694  11.072
51041W        W19415  36.904  11.842   3.242
51042W        W19416  21.185  29.944   2.207
51043W        W19417  44.505  17.644  12.964
51044W        W19418  38.057  20.618  11.374
51045W        W19419   3.953  40.539   3.149
51046W        W19420  26.483  12.360   1.380
51047W        W19421  38.551  32.452   4.832
51048W        W19422  33.078   1.285  10.545
51049W        W19423  14.263  14.103  12.368
51050W        W19424  28.562   7.206   2.291
51051W        W19425  40.026  37.973  10.642
51052W        W19426   5.929  40.409  10.526
51053W        W19427   6.734  23.001   3.687
51054W        W19428  24.086  15.675  10.957
51055W        W19429  28.663   8.795   1.253
51056W        W19430  28.009   6.391   2.196
51057W        W19431  20.587  35.881  13.986
51058W        W19432  20.748  16.619   2.886
51059W        W19433  28.995  28.118   0.907
51060W        W19434  21.551   4.294  13.838
51061W        W19435  21.177   7.746   1.228
51062W        W19436  31.076  41.988   1.285
51063W        W19437   0.988   1.306   2.308
51064W        W19438  27.057   3.896   3.295
51065W        W19439  42.831  44.275  11.578
51066W        W19440  23.713  31.426  13.428
51067W        W19441  34.099  25.001   1.218
51068W        W19442   6.239   2.857   3.329
51069W        W19443   1.844   8.232   2.736
51070W        W19444  35.496   7.177  11.118
51071W        W19445  14.686  39.398  13.491
51072W        W19446  38.334  15.763   0.951
51073W        W19447  22.637  13.675  12.466
51074W        W19448  31.409  41.377   0.785
51075W        W19449   1.473   7.174  12.922
51076W        W19450  39.456  10.680  12.013
51077W        W19451  44.823   6.408   1.226
51078W        W19452  28.941   4.360  13.371
51079W        W19453   8.390   5.824   2.402
51080W        W19454  21.027  30.572   3.258
51081W        W19455   6.796   7.775  13.489
51082W        W19456  40.544   0.277   0.414
51083W        W19457   3.811   5.879   1.852
51084W        W19458  21.085  21.230  14.506
51085W        W19459  18.678   2.414   0.364
51086W        W19460  44.877  20.759  13.060
51087W        W19461  20.693  14.299  14.835
51088W        W19462  43.506  34.041  13.820
51089W        W19463  19.651   9.363   3.243
51090W        W19464  26.043  39.471   3.281
51091W        W19465  44.378   7.285   3.182
51092W        W19466  30.134  30.600  11.501
51093W        W19467  39.549  32.943   1.323
51094W        W19468  13.311  28.984  10.632
51095W        W19469  22.548  36.970  11.419
51096W        W19470  22.037  16.674   0.260
51097W        W19471   8.870  24.093   1.836
51098W        W19472  40.344  16.282   1.261
51099W        W19473  42.483  38.409  10.456
51100W        W19474  13.342  30.442   1.889
51101W        W19475  15.629   2.468  13.490
51102W        W19476  16.242   4.938  10.570
51103W        W19477  37.524  22.151  11.867
51104W        W19478  13.727   8.242   3.351
51105W        W19479  17.756  40.309   1.426
51106W        W19480  17.174  42.779   1.391
51107W        W19481   9.710  37.881   3.181
51108W        W19482   0.824   2.961  12.060
51109W        W19483  12.158  17.167  10.550
51110W        W19484  25.165  31.576  14.429
51111W        W19485   7.821  19.767  13.938
51112W        W19486  35.523  40.014  10.577
51113W        W19487  41.511  26.081  12.993
51114W        W19488  14.734   3.306  12.081
51115W        W19489  37.925   5.426   2.758
51116W        W19490  35.865   7.205   0.771
51117W        W19491   9.804   5.737  10.941
51118W        W19492  31.433  44.009  12.832
51119W        W19493  24.550  15.257   5.700
51120W        W19494   8.871  42.914   0.298
51121W        W19495  26.048  37.011  13.979
51122W        W19496  24.654  32.519  14.295
51123W        W19497  29.113  24.039  10.526
51124W        W19498   5.345   2.779   3.862
51125W        W19499  14.167  11.275   1.340
51126W        W19500  37.841  25.192  13.034
51127W        W19501   6.351  28.678   4.730
51128W        W19502   5.835  20.255  12.395
51129W        W19503  44.430   7.877   1.355
51130W        W19504   1.795  11.650  13.901
51131W        W19505   7.353  13.651  11.115
51132W        W19506  31.514   6.693   3.677
51133W        W19507   1.387   6.230   1.901
51134W        W19508   2.892  20.765   4.344
51135W        W19509  17.769   6.922   1.391
51136W        W19510  24.201   5.689  10.022
51137W        W19511   4.720  10.302  11.484
51138W        W19512   9.208  39.499   2.900
51139W        W19513  43.336  33.424   4.281
51140W        W19514  19.275  34.485  10.991
51141W        W19515  23.057  19.562  11.485
51142W        W19516  29.140   0.454   3.671
51143W        W19517   4.333   0.806  14.884
51144W        W19518  33.905   4.338  14.845
51145W        W19519  28.579  33.510   0.893
51146W        W19520  41.455  17.253  11.059
51147W        W19521  13.176  36.575  13.024
51148W        W19522  24.139  18.160   5.183
51149W        W19523   6.813  24.157   3.704
51150W        W19524  16.739   9.311   9.505
51151W        W19525  19.184   9.208   1.435
51152W        W19526  37.969  34.966  14.435
51153W        W19527  36.454  14.120   0.760
51154W        W19528  29.002  44.467   4.748
51155W        W19529  10.177  35.528  14.446
51156W        W19530  36.445  14.641   1.256
51157W        W19531  34.931   0.377   1.755
51158W        W19532  27.544  13.276  14.832
51159W        W19533  44.279  31.122   2.326
51160W        W19534  39.393   3.722  10.917
51161W        W19535  32.949  21.634  13.392
51162W        W19536   7.826   8.213  10.417
51163W        W19537  39.920  12.360  13.522
51164W        W19538  36.435  23.546  11.483
51165W        W19539  13.806  18.622  11.095
51166W        W19540  29.468  42.988   0.881
51167W        W19541  37.946  18.702   1.775
51168W        W19542  28.101   8.738  14.863
51169W        W19543  18.652  21.744  11.586
51170W        W19544  14.695  26.112  14.400
51171W        W19545   5.829  14.834   4.668
51172W        W19546  39.932  26.581   5.271
51173W        W19547   8.201   6.343   3.195
51174W        W19548   6.232  43.427  10.426
51175W        W19549  10.681  32.091  13.952
51176W        W19550  37.834  12.302   0.371
51177W        W19551  27.635  43.803  10.109
51178W        W19552  14.653   5.402   4.330
51179W        W19553  20.625  29.131   0.320
51180W        W19554  37.370  40.435   1.762
51181W        W19555  22.080  31.931  11.068
51182W        W19556  39.381  35.540   2.670
51183W        W19557   5.720  24.056  11.125
51184W        W19558   7.194   3.845  11.964
51185W        W19559   5.382  15.098   4.679
51186W        W19560  32.094  23.010  12.042
51187W        W19561  38.822   4.715   1.344
51188W        W19562  14.205  37.836  11.473
51189W        W19563  13.307   0.354  11.429
51190W        W19564  15.760   2.836   4.789
51191W        W19565  28.557   5.831   2.863
51192W        W19566  33.946  22.643   3.784
51193W        W19567  13.726  40.417   0.380
51194W        W19568  13.156   6.364   3.772
51195W        W19569   6.759   1.921   0.939
51196W        W19570  10.809  32.456  12.548
51197W        W19571  10.320   3.390  12.375
51198W        W19572   9.731   8.254   0.767
51199W        W19573  40.446  14.155  14.403
51200W        W19574  12.768  39.911   0.737
51201W        W19575   7.759  10.208   0.873
51202W        W19576  41.507  21.136  12.499
51203W        W19577   0.418  20.182   2.727
51204W        W19578  20.047  29.160  11.953
51205W        W19579  38.944  39.460  13.983
51206W        W19580  12.164  37.979   0.862
51207W        W19581  27.945  37.463  10.062
51208W        W19582  36.551  29.124  10.133
51209W        W19583   7.911  14.692   3.683
51210W        W19584  36.572  26.084  14.320
51211W        W19585   7.373   2.903  10.614
51212W        W19586  38.854   4.265  13.922
51213W        W19587  26.120   0.872  14.956
51214W        W19588  38.454  28.135   0.279
51215W        W19589  21.676  22.734  12.053
51216W        W19590  17.151   7.758  11.962
51217W        W19591  28.642  40.495  12.028
51218W        W19592  21.071  36.904  13.852
51219W        W19593  34.610  31.072   3.813
51220W        W19594   6.297   6.357   2.403
51221W        W19595  13.841  21.121  11.917
51222W        W19596  36.981  37.344   2.883
51223W        W19597   1.759  44.902   3.336
51224W        W19598  17.125  11.837  14.806
51225W        W19599  29.528  38.899  12.877
51226W        W19600   6.211   6.910  10.591
51227W        W19601  20.069  43.955  13.856
51228W        W19602  44.837  11.274   4.654
51229W        W19603  39.039  16.208   3.239
51230W        W19604   4.754  22.566   0.778
51231W        W19605  43.916   4.865  14.808
51232W        W19606  39.983  34.118  12.096
51233W        W19607  17.306  15.651  12.000
51234W        W19608  30.110  27.671  10.452
51235W        W19609  41.491  27.467   1.259
51236W        W19610  19.623   5.214  12.939
51237W        W19611  14.307  41.417   0.445
51238W        W19612  20.732  26.143  10.546
51239W        W19613  32.599   1.280  11.546
51240W        W19614   2.915  12.328  11.078
51241W        W19615   0.934  44.784  11.069
51242W        W19616  20.647  18.290  12.868
51243W        W19617  36.944  25.480  13.374
51244W        W19618   1.904  12.854   1.728
51245W        W19619  26.160  18.711   3.862
51246W        W19620  14.725   8.350  10.097
51247W        W19621   6.857  26.655  10.059
51248W        W19622   5.759  15.823   2.890
51249W        W19623  20.644  40.855  13.379
51250W        W19624   5.195   0.930  11.992
51251W        W19625  36.428  41.487   0.826
51252W        W19626  31.504  25.698   0.924
51253W        W19627  15.200  10.377   5.573
51254W        W19628   8.239  10.218  10.936
51255W        W19629   4.932  33.885   0.464
51256W        W19630  42.508   1.379  12.919
51257W        W19631  42.792   5.856   0.317
51258W        W19632  12.341  19.679  10.530
51259W        W19633  29.056  13.727   4.155
51260W        W19634  12.346  12.775  13.920
51261W        W19635  38.000  25.184   2.808
51262W        W19636   2.359  30.504   4.619
51263W        W19637  24.640   6.322  13.401
51264W        W19638  32.125  12.317   0.895
51265W        W19639  32.116  33.071   1.812
51266W        W19640   7.335   8.376   4.202
51267W        W19641  19.046  23.077   0.937
51268W        W19642  20.135  42.850  13.971
51269W        W19643  21.681   7.407   2.873
51270W        W19644  27.498  30.634  14.402
51271W        W19645  11.153  13.143  11.960
51272W        W19646  31.924  33.902   2.228
51273W        W19647  19.199  17.078   4.349
51274W        W19648  13.821  35.585   4.236
51275W        W19649  19.579  42.782   1.401
51276W        W19650  28.026  13.247  10.993
51277W        W19651  22.228  39.343  14.428
51278W        W19652  32.438  18.681   1.732
51279W        W19653  36.422   2.759  12.931
51280W        W19654  20.115  18.563  10.117
51281W        W19655  12.201   2.254  13.933
51282W        W19656  28.983   5.717  14.874
51283W        W19657  25.014  33.413   2.783
51284W        W19658   0.302  22.140   0.354
51285W        W19659  24.168  40.047   1.258
51286W        W19660  39.920  27.448   3.321
51287W        W19661  16.190  24.025   3.740
51288W        W19662   0.439  29.090  10.924
51289W        W19663  39.038  11.266  13.989
51290W        W19664  22.216  25.568   2.195
51291W        W19665  38.905  43.782   0.453
51292W        W19666  26.967   7.405  14.311
51293W        W19667  44.814  10.300  11.887
51294W        W19668  35.859  26.124  12.938
51295W        W19669  42.024  27.150  13.838
51296W        W19670   9.222  41.038  13.024
51297W        W19671  14.769   0.946  12.361
51298W        W19672  33.011  19.540  11.605
51299W        W19673  16.812  28.047  12.965
51300W        W19674  38.442   4.317   2.296
51301W        W19675  20.660  11.128   1.740
51302W        W19676  40.408  27.688  11.008
51303W        W19677   9.853  16.714   4.791
51304W        W19678  40.356   8.266  12.461
51305W        W19679  38.475  24.724   4.740
51306W        W19680  12.688  39.894  12.960
51307W        W19681  22.666  32.003   9.999
51308W        W19682  10.374  12.262  10.901
51309W        W19683  33.455  11.155  11.981
51310W        W19684  15.815  24.151   1.340
51311W        W19685   6.427   1.844   0.358
51312W        W19686  21.251   6.405  12.859
51313W        W19687  35.418   2.295   1.310
51314W        W19688  34.551  26.520   0.460
51315W        W19689  36.558   8.304  12.526
51316W        W19690  29.548  38.004   4.798
51317W        W19691   9.359  31.512   3.865
51318W        W19692   1.815   7.854   0.891
51319W        W19693  21.514  29.946   1.350
51320W        W19694   1.763  14.138  11.125
51321W        W19695  34.108   4.735   2.266
51322W        W19696  29.124  25.557  14.276
51323W        W19697  42.870  19.607  10.567
51324W        W19698  44.766  14.146   1.880
51325W        W19699  18.232  41.891  11.106
51326W        W19700  16.179  38.520   2.318
51327W        W19701   7.855   4.420   4.739
51328W        W19702   8.765   5.384   1.901
51329W        W19703  36.877  25.608   4.295
51330W        W19704  29.141  14.596  12.860
51331W        W19705   3.799  14.805  11.883
51332W        W19706  21.241  28.156   5.126
51333W        W19707  11.779   3.725  13.827
51334W        W19708  23.511  38.399   5.630
51335W        W19709  14.177  20.197  11.913
51336W        W19710  28.959   3.245  13.841
51337W        W19711  32.458  42.002   4.273
51338W        W19712  11.311  15.678   0.836
51339W        W19713  18.050  36.089   0.869
51340W        W19714  36.427  30.053   3.696
51341W        W19715  17.230  38.473   2.271
51342W        W19716  32.523  40.361  12.499
51343W        W19717   6.187  24.558   1.216
51344W        W19718  37.895  39.502  12.385
51345W        W19719  38.438  29.136   1.255
51346W        W19720  12.330   2.778  13.427
51347W        W19721  18.716  10.326  13.845
51348W        W19722  34.904   9.164  14.281
51349W        W19723  21.044  36.350  12.387
51350W        W19724   2.779  11.363   0.958
51351W        W19725   0.970  28.559  14.320
51352W        W19726  32.421   8.333  14.818
51353W        W19727  13.651  32.479  13.377
51354W        W19728  24.647   8.358  11.865
51355W        W19729  44.886  18.719  12.031
51356W        W19730  33.558  42.818   0.946
51357W        W19731   7.349   0.490   3.855
51358W        W19732  27.470  41.843  13.381
51359W        W19733   0.803  13.105  14.409
51360W        W19734   3.903   3.457   0.407
51361W        W19735  20.207   8.270   0.456
51362W        W19736  35.554  31.105  11.519
51363W        W19737   0.907  27.193   4.801
51364W        W19738  10.143  29.629   4.335
51365W        W19739  37.008  10.735   2.705
51366W        W19740  37.390  23.987   2.358
51367W        W19741  32.036  22.143  12.578
51368W        W19742   5.332   8.714  13.934
51369W        W19743  38.522   1.897   3.647
51370W        W19744  30.617   0.295  13.044
51371W        W19745  42.414  34.056  10.960
51372W        W19746  37.519   7.173  11.574
51373W        W19747  39.050  23.607  11.120
51374W        W19748   1.365  23.084  13.043
51375W        W19749  34.525   3.737  12.083
51376W        W19750  43.885  41.421  11.539
51377W        W19751  16.680  41.792  14.445
51378W        W19752  15.813  24.486   2.307
51379W        W19753   0.970  17.756  11.582
51380W        W19754   7.764  28.964   1.785
51381W        W19755   9.330  11.768  11.104
51382W        W19756  28.036   4.796  14.930
51383W        W19757  20.230  31.943  13.888
51384W        W19758  21.678  35.926  12.941
51385W        W19759  43.891  44.301   1.254
51386W        W19760   2.764  30.414  12.485
51387W        W19761  25.713  34.078  11.573
51388W        W19762  22.619   0.775  12.557
51389W        W19763  35.549  39.928  12.024
51390W        W19764  25.025  37.058  12.942
51391W        W19765  11.754  41.871  11.495
51392W        W19766  12.125  21.071  14.784
51393W        W19767  28.149  24.623   3.257
51394W        W19768   2.859  39.886  13.799
51395W        W19769  32.100  18.615  13.400
51396W        W19770   9.291  36.874   2.299
51397W        W19771  25.109  31.009   0.415
51398W        W19772  21.655  30.434  12.904
51399W        W19773   9.744   9.796   3.161
51400W        W19774  41.927  28.974   1.360
51401W        W19775   2.783  43.848  14.480
51402W        W19776  11.346  29.476  13.915
51403W        W19777  42.785  36.886  12.081
51404W        W19778  41.795  34.008   2.739
51405W        W19779  29.166   0.356   2.777
51406W        W19780  30.934  37.335   3.319
51407W        W19781   7.793   1.753   3.255
51408W        W19782  43.829   7.760   3.638
51409W        W19783  13.703  43.407   1.261
51410W        W19784  37.989  35.075  12.489
51411W        W19785   5.243  24.627   2.268
51412W        W19786  30.632   7.195  11.613
51413W        W19787  13.276  13.323  12.000
51414W        W19788  18.569  19.645   2.686
51415W        W19789  36.898  11.214   1.902
51416W        W19790  39.023   0.838   2.664
51417W        W19791   5.905  36.437   0.904
51418W        W19792  20.632  22.520  12.940
51419W        W19793   0.492  37.944   2.404
51420W        W19794  29.033  34.040   1.303
51421W        W19795  40.025  18.638  11.513
51422W        W19796   7.277  13.217   1.301
51423W        W19797  27.654  33.107   4.675
51424W        W19798  24.661  26.174   1.826
51425W        W19799   8.815   4.296   3.631
51426W        W19800  15.641  23.640  11.865
51427W        W19801  32.012   4.204   1.801
51428W        W19802  31.609   5.924  11.443
51429W        W19803  21.046  44.484   2.821
51430W        W19804   3.408  42.850   2.830
51431W        W19805  29.608  33.980  13.338
51432W        W19806  41.972  22.626  13.390
51433W        W19807  14.659   6.895  13.519
51434W        W19808  20.236  13.149  14.957
51435W        W19809  28.440   7.825  14.464
51436W        W19810  23.219  43.931  13.918
51437W        W19811  14.204  37.471  10.915
51438W        W19812  36.565  42.992   0.782
51439W        W19813  16.778  32.561   2.199
51440W        W19814  13.639  37.861  12.999
51441W        W19815  15.798  41.794   1.845
51442W        W19816  29.571   6.348  13.814
51443W        W19817  33.412  26.560  13.958
51444W        W19818   3.831  11.130   2.335
51445W        W19819  13.754  34.001  12.372
51446W        W19820  20.205  29.508   0.958
51447W        W19821  27.108  18.159  14.507
51448W        W19822  27.005   9.185  11.436
51449W        W19823  32.034  28.574   4.737
51450W        W19824  37.567   6.815   1.756
51451W        W19825  22.096  32.975   3.322
51452W        W19826  13.211  27.615   3.675
51453W        W19827  33.972  17.745  13.009
51454W        W19828   3.761   2.354   2.738
51455W        W19829   3.935  33.910  14.433
51456W        W19830  16.154  14.096   3.771
51457W        W19831  41.522  37.456   3.756
51458W        W19832  38.909  16.699   4.598
51459W        W19833   3.880  20.721   0.455
51460W        W19834  13.164  38.498   0.322
51461W        W19835  20.705  18.137  11.531
51462W        W19836  11.839  35.889  11.000
51463W        W19837  28.086   7.851  11.403
51464W        W19838   5.222  30.591   1.310
51465W        W19839  13.330  33.395  13.024
51466W        W19840  40.485  36.914  11.376
51467W        W19841  17.273   5.334  10.960
51468W        W19842  34.011  34.905  14.334
51469W        W19843  24.160  15.325   4.741
51470W        W19844   3.406   5.700  13.013
51471W        W19845  31.041  10.660   2.212
51472W        W19846  30.040  18.261   4.783
51473W        W19847  35.095  24.135  10.599
51474W        W19848   6.394  39.341  12.842
51475W        W19849  38.472   5.751   4.689
51476W        W19850  15.674  44.438   2.709
51477W        W19851   4.366  44.890  14.868
51478W        W19852  14.254  30.554  12.409
51479W        W19853  17.072  18.211   2.370
51480W        W19854  12.736   8.256   3.767
51481W        W19855   7.730  16.647  14.982
51482W        W19856  31.564  34.474   2.681
51483W        W19857  28.072  44.358  11.433
51484W        W19858   2.269  23.017   1.907
51485W        W19859   9.171  29.509  12.362
51486W        W19860  40.825  37.344   2.351
51487W        W19861   9.830  12.700  13.832
51488W        W19862  14.692   7.181   4.222
51489W        W19863  40.038  36.421   4.807
51490W        W19864  28.064  38.564   4.214
51491W        W19865  40.973  30.495  14.374
51492W        W19866  32.579   5.240  10.624
51493W        W19867   1.925  20.755   3.801
51494W        W19868  10.276  19.703   3.352
51495W        W19869  30.439  15.257  14.921
51496W        W19870  18.286  43.489   0.427
51497W        W19871  24.145  18.155  12.560
51498W        W19872   4.873  27.072  12.377
51499W        W19873  30.598  21.751  13.950
51500W        W19874   3.878  12.844   3.643
51501W        W19875   9.873  35.461   1.827
51502W        W19876  25.659  30.506   0.783
51503W        W19877  26.586   8.176   3.156
51504W        W19878  18.583   2.963   3.151
51505W        W19879  19.729  20.155  12.574
51506W        W19880  19.539  22.577  12.000
51507W        W19881  30.027  44.444   0.380
51508W        W19882  14.772  19.214  13.526
51509W        W19883   2.238  13.608  12.049
51510W        W19884  37.877  17.292  14.431
51511W        W19885  35.432  35.407   3.678
51512W        W19886  41.478   8.395   3.168
51513W        W19887  37.996  23.015   2.326
51514W        W19888  23.178  12.271  14.813
51515W        W19889   1.814   5.914   2.849
51516W        W19890   2.326  31.906  14.325
51517W        W19891  25.690  34.941   2.223
51518W        W19892  28.164  33.125   4.318
51519W        W19893   1.917  42.808  12.516
51520W        W19894  35.541   9.304  14.447
51521W        W19895   6.841  42.877  14.902
51522W        W19896  20.255  44.283   0.333
51523W        W19897  24.047  16.718   0.460
51524W        W19898  22.716  19.147  11.588
51525W        W19899  16.792   8.862  12.541
51526W        W19900  17.556  28.934   2.765
51527W        W19901  39.920  20.671   3.652
51528W        W19902   4.266  26.009   4.687
51529W        W19903  32.559  12.333   3.350
51530W        W19904   5.440   7.184  13.851
51531W        W19905  31.554  28.129  12.884
51532W        W19906  22.609  37.506   2.692
51533W        W19907  12.654  32.505  10.962
51534W        W19908  22.667  11.310   4.227
51535W        W19909   7.266  13.276   4.245
51536W        W19910  13.633  12.616   3.208
51537W        W19911   4.359  42.998  10.511
51538W        W19912  33.964  36.850   0.740
51539W        W19913  43.974  41.878   1.299
51540W        W19914  29.124  26.554  13.905
51541W        W19915  43.404  10.262   1.295
51542W        W19916  19.069  17.283   3.653
51543W        W19917  10.243   4.281   3.270
51544W        W19918  14.702  35.013   0.954
51545W        W19919  26.462   3.808  12.857
51546W        W19920  33.875  41.466   0.301
51547W        W19921  13.314   8.252  10.410
51548W        W19922  29.461   9.260  14.785
51549W        W19923  14.805  26.197  13.850
51550W        W19924  33.479  41.509  13.003
51551W        W19925  42.355  34.521  12.035
51552W        W19926   6.758   0.370   3.162
51553W        W19927   8.863  39.320  11.558
51554W        W19928  23.133  11.756  14.906
51555W        W19929  22.037  12.336  10.605
51556W        W19930  12.321  11.685  13.803
51557W        W19931  11.852  40.028   2.828
51558W        W19932  40.987  30.941   2.685
51559W        W19933  13.649  40.456   2.773
51560W        W19934  34.936  40.386  11.376
51561W        W19935  38.850  14.726  14.987
51562W        W19936  36.468  18.686   4.682
51563W        W19937  34.612  22.229   2.416
51564W        W19938   2.318  22.731   3.782
51565W        W19939   1.829  24.061  11.904
51566W        W19940   9.764  23.194  13.983
51567W        W19941  14.124  12.130   0.292
51568W        W19942   6.254  28.575   3.301
51569W        W19943  35.370  23.714  10.899
51570W        W19944  11.222  15.663   3.272
51571W        W19945  29.555  12.777   1.286
51572W        W19946  28.628  35.568  11.498
51573W        W19947  21.154  40.340   0.815
51574W        W19948   9.756   0.352   3.362
51575W        W19949  26.539   5.704  13.021
51576W        W19950  43.766  31.544   0.379
51577W        W19951  10.647  42.009  11.023
51578W        W19952   1.917   2.900  11.980
51579W        W19953  11.646   8.262   2.813
51580W        W19954  34.883   5.723  10.433
51581W        W19955  16.792   9.246   3.272
51582W        W19956  11.832  35.513  13.922
51583W        W19957   9.366  39.401  12.065
51584W        W19958  31.578   4.333  11.918
51585W        W19959  22.536  12.809  13.990
51586W        W19960  22.084  18.687  13.443
51587W        W19961   5.197   8.265  13.450
51588W        W19962  37.536  12.292  13.043
51589W        W19963  18.050  41.878  12.090
51590W        W19964   8.873  32.900   4.118
51591W        W19965  23.177   3.243  12.367
51592W        W19966  18.077   0.964   0.267
51593W        W19967  25.553  39.825  10.544
51594W        W19968  13.134   7.739   2.668
51595W        W19969  16.274  11.817  12.943
51596W        W19970  34.453   8.854  13.524
51597W        W19971  15.328  19.722  13.442
51598W        W19972  16.568  36.386  14.787
51599W        W19973   8.672  33.032  12.000
51600W        W19974   0.447  29.667   3.379
51601W        W19975   2.963  44.957   4.345
51602W        W19976  22.743   3.428   3.828
51603W        W19977  14.320  10.370   4.343
51604W        W19978  28.954  10.826   3.709
51605W        W19979  26.489  18.743  10.406
51606W        W19980  19.071  29.625  12.887
51607W        W19981  35.067  16.151   1.817
51608W        W19982  14.649  17.159   4.709
51609W        W19983  38.409  35.853  14.322
51610W        W19984  27.120  22.624  12.865
51611W        W19985   7.738  30.485   3.148
51612W        W19986   9.761  27.622   0.373
51613W        W19987  28.634  41.815  14.373
51614W        W19988  20.679   8.403  14.781
51615W        W19989  17.174   4.442  10.953
51616W        W19990  41.534  38.434  12.992
51617W        W19991   7.845  26.155   4.724
51618W        W19992  12.130  29.562  13.319
51619W        W19993  18.587  29.583   3.227
51620W        W19994  21.206   9.313  14.903
51621W        W19995  38.849   8.179  10.007
51622W        W19996  41.421  22.135   0.470
51623W        W19997  24.192   1.890   4.245
51624W        W19998   3.850  29.123  11.119
51625W        W19999  39.543  32.562   0.390
51626W        W20000  31.459  12.360   4.338
51627W        W20001   0.278  30.579   2.393
51628W        W20002   6.760  23.735   1.716
51629W        W20003  25.480   7.822   5.187
51630W        W20004  22.746  12.655   0.371
51631W        W20005  10.728  17.087   0.847
51632W        W20006  41.023  12.134  13.870
51633W        W20007   0.909  36.023   4.658
51634W        W20008  27.179  40.447  14.911
51635W        W20009  41.014  26.024  13.405
51636W        W20010  11.847   3.292   1.418
51637W        W20011  12.664   2.357   3.265
51638W        W20012  12.277  23.220   2.683
51639W        W20013  24.074  37.060   3.271
51640W        W20014  16.115  23.680  10.405
51641W        W20015  28.586  27.484  13.458
51642W        W20016  34.915  41.475  13.877
51643W        W20017   3.383  34.004  10.608
51644W        W20018   6.888  27.682   0.456
51645W        W20019   7.342   6.288   0.928
51646W        W20020  41.924  34.911   3.180
51647W        W20021  31.938  26.588  13.380
51648W        W20022  21.523  23.572   4.829
51649W        W20023   6.312  38.345   1.269
51650W        W20024   8.789   3.834   4.145
51651W        W20025  39.882  29.666  11.958
51652W        W20026  37.447  35.486  12.974
51653W        W20027  27.569  20.733   0.966
51654W        W20028  41.894   9.672   1.753
51655W        W20029  31.133   2.334  11.896
51656W        W20030  43.507  10.862   3.676
51657W        W20031   7.877  11.216  12.345
51658W        W20032  43.358   7.303  12.532
51659W        W20033  24.511  13.611   1.329
51660W        W20034   6.831  10.737  12.968
51661W        W20035  21.515   0.494  13.491
51662W        W20036  10.855   4.810  13.429
51663W        W20037  24.646  39.358  12.012
51664W        W20038  35.440   9.812   1.399
51665W        W20039  26.556  28.650   2.205
51666W        W20040   7.176  30.633   1.878
51667W        W20041  34.974  39.546  12.441
51668W        W20042  21.215  30.489   3.776
51669W        W20043  39.889  25.071   4.221
51670W        W20044   1.426  44.879   2.792
51671W        W20045  36.876  36.518   4.795
51672W        W20046  26.546  44.419   1.451
51673W        W20047   6.391   5.358  14.507
51674W        W20048  43.389   3.430  12.961
51675W        W20049  35.468  38.881  11.379
51676W        W20050  38.983  17.231  11.058
51677W        W20051  32.626  16.790   3.225
51678W        W20052  26.120   9.848   0.394
51679W        W20053  39.390  39.461  10.516
51680W        W20054  17.644   4.223  11.462
51681W        W20055  29.053  37.549  11.521
51682W        W20056   0.867  18.177   0.244
51683W        W20057  25.051   3.309  10.623
51684W        W20058  38.892  39.842   4.254
51685W        W20059  19.774  19.647  10.630
51686W        W20060  22.051  28.952  13.405
51687W        W20061   6.207  17.147  13.894
51688W        W20062   6.183  38.451  10.990
51689W        W20063  44.943  44.764   4.787
51690W        W20064  14.330  34.513  11.378
51691W        W20065  44.775  34.901  10.531
51692W        W20066  28.648  25.608  13.021
51693W        W20067  30.143   7.323  11.972
51694W        W20068  14.158  22.116  11.446
51695W        W20069  26.581  42.405  12.430
51696W        W20070  39.470   7.416   2.838
51697W        W20071  10.801  11.812  12.409
51698W        W20072  13.789  16.692   0.814
51699W        W20073  37.056  31.424   0.267
51700W        W20074  32.521   4.878   4.173
51701W        W20075  11.714  21.158  11.415
51702W        W20076  29.453  30.056   1.935
51703W        W20077  37.346  21.649  10.594
51704W        W20078  17.080  36.887   0.299
51705W        W20079  20.585  32.981  11.885
51706W        W20080  28.588  20.159   4.120
51707W        W20081  26.542  37.386   2.726
51708W        W20082   7.335  19.162  13.029
51709W        W20083  18.789  40.326   4.619
51710W        W20084  29.444  43.947   4.814
51711W        W20085   8.278  15.584   2.663
51712W        W20086  14.600  16.760  14.791
51713W        W20087  13.341   8.322   0.800
51714W        W20088   6.733  20.263   2.261
51715W        W20089   9.331  39.488   3.146
51716W        W20090  36.908  39.391  11.046
51717W        W20091  32.012  11.774  11.885
51718W        W20092  41.460  26.055  10.424
51719W        W20093  43.974   0.847   4.166
51720W        W20094   4.811  27.672  10.405
51721W        W20095   8.799  38.873   4.123
51722W        W20096  14.277  33.066   1.726
51723W        W20097  21.119   5.748   0.879
51724W        W20098  21.686   0.282   3.854
51725W        W20099  31.093  26.536   0.903
51726W        W20100  21.755  41.934  10.978
51727W        W20101   6.229  10.221  12.523
51728W        W20102  33.939  25.661   3.836
51729W        W20103  14.638  18.686  13.001
51730W        W20104  40.330  22.045  10.923
51731W        W20105   9.383   5.282   0.386
51732W        W20106  27.180  21.165  12.434
51733W        W20107   8.399  24.522  13.425
51734W        W20108  15.702  10.859   2.790
51735W        W20109  28.501  40.003   0.818
51736W        W20110  35.106   9.832  12.928
51737W        W20111  22.138  37.456  13.540
51738W        W20112  25.707   4.322  12.510
51739W        W20113  32.138  30.126  11.030
51740W        W20114  25.524  15.256  12.367
51741W        W20115  42.456  13.302  11.120
51742W        W20116  36.551   4.271  13.003
51743W        W20117  10.215  38.485   4.311
51744W        W20118   5.713   7.859  13.511
51745W        W20119  21.513  14.169   1.750
51746W        W20120  34.893  17.119   1.321
51747W        W20121  12.226   8.734   1.868
51748W        W20122   2.950  14.236  12.908
51749W        W20123  39.041  12.339  10.509
51750W        W20124  37.939  13.799  11.052
51751W        W20125  28.052   5.907   2.781
51752W        W20126  22.707  19.659   3.807
51753W        W20127  23.689  34.107   2.821
51754W        W20128  34.975  36.582   0.818
51755W        W20129   3.904  13.734  13.939
51756W        W20130  23.535  28.970   0.262
51757W        W20131  11.308   5.387   4.763
51758W        W20132  43.771   4.708   1.738
51759W        W20133  21.100  18.216  12.887
51760W        W20134   7.386  17.610   4.142
51761W        W20135   8.901  14.606  11.431
51762W        W20136  39.819   8.333   0.749
51763W        W20137   3.321  25.649  14.313
51764W        W20138   8.750  17.302  13.509
51765W        W20139  27.507  22.237  12.896
51766W        W20140  31.448   1.905   0.286
51767W        W20141   8.804  33.027   2.394
51768W        W20142  36.431  24.192   2.226
51769W        W20143   4.439  39.926   4.289
51770W        W20144  10.139  28.110   3.193
51771W        W20145  16.118  43.985   4.812
51772W        W20146  13.775  15.322   1.850
51773W        W20147  12.811  30.136   0.778
51774W        W20148  21.056  31.445   4.734
51775W        W20149  27.666  31.534   1.335
51776W        W20150   1.443  26.691   0.905
51777W        W20151  21.583  21.128  14.764
51778W        W20152  30.141   8.209  13.908
51779W        W20153  23.184  42.527  10.930
51780W        W20154  15.292  39.043  12.339
51781W        W20155   4.342  44.978  13.866
51782W        W20156  11.251  29.623   2.355
51783W        W20157  33.919  27.122  14.349
51784W        W20158  40.952  44.799  12.573
51785W        W20159  30.452  37.448   0.396
51786W        W20160  31.643  39.988  10.600
51787W        W20161   2.247  27.113   4.212
51788W        W20162  41.432  27.499  14.824
51789W        W20163  38.978  27.682   4.696
51790W        W20164  22.017  40.829   1.224
51791W        W20165  28.021   0.746  13.386
51792W        W20166  17.575  44.261  10.473
51793W        W20167   1.476  40.307   4.603
51794W        W20168   4.797   6.793  10.600
51795W        W20169  37.546   4.898   1.238
51796W        W20170  14.803  29.958  11.040
51797W        W20171  19.581  28.492  14.905
51798W        W20172  13.737  22.234   1.253
51799W        W20173  16.625  43.502  10.627
51800W        W20174  14.242   9.326   0.309
51801W        W20175  12.198  16.703  13.891
51802W        W20176  20.206  20.538   2.697
51803W        W20177   3.936  22.193  14.399
51804W        W20178  41.388  23.499  14.365
51805W        W20179  37.038  21.661  13.000
51806W        W20180  17.750  26.998  12.397
51807W        W20181   5.216  38.421   3.372
51808W        W20182   2.274  42.340  11.012
51809W        W20183  40.457  35.874   1.915
51810W        W20184   1.792  13.316   1.894
51811W        W20185  14.146   8.716  10.911
51812W        W20186  40.956  14.780   4.278
51813W        W20187   5.258  28.123   0.280
51814W        W20188  32.487   1.857  12.073
51815W        W20189  24.153  17.575  11.958
51816W        W20190   9.279  12.214  11.372
51817W        W20191   9.762  13.287  11.869
51818W        W20192  16.585  37.022   1.369
51819W        W20193  36.870  17.292  11.472
51820W        W20194  38.376  15.806   4.153
51821W        W20195  31.943   8.384   3.672
51822W        W20196  43.501  44.961   4.251
51823W        W20197  13.754  23.736  12.506
51824W        W20198  18.126  41.841  12.907
51825W        W20199  12.780  36.893  12.876
51826W        W20200   7.696  29.930   2.794
51827W        W20201  42.966  14.676  14.327
51828W        W20202  27.192  30.951  10.409
51829W        W20203  33.123  32.563   0.937
51830W        W20204  35.597  22.605  12.946
51831W        W20205   4.293   5.744  11.373
51832W        W20206  40.395  14.619   4.758
51833W        W20207  13.808  24.531  11.098
51834W        W20208  30.964  31.969  11.515
51835W        W20209  10.179  25.644   1.890
51836W        W20210  14.686  11.721   1.394
51837W        W20211  19.581  23.177   0.911
51838W        W20212   9.718  29.152   2.334
51839W        W20213  40.406   7.171   2.214
51840W        W20214  19.217  26.982   1.276
51841W        W20215  11.811   5.369   0.826
51842W        W20216  23.084  19.718  13.821
51843W        W20217  32.595  28.536   3.145
51844W        W20218  19.729   8.202   1.432
51845W        W20219  34.377  25.694  12.081
51846W        W20220   6.235  30.923   0.779
51847W        W20221  43.381  13.215  11.984
51848W        W20222   5.911  15.682   3.643
51849W        W20223  28.088   0.391  12.002
51850W        W20224  18.584  35.399   2.314
51851W        W20225  16.134  31.611   4.675
51852W        W20226  29.922   3.834  13.503
51853W        W20227   9.848   3.346  13.455
51854W        W20228  37.047   4.331  10.977
51855W        W20229  10.638  21.201  12.931
51856W        W20230  37.473  30.631  11.502
51857W        W20231  25.973  32.133  14.355
51858W        W20232  19.237  27.682   2.866
51859W        W20233  17.621  35.897  13.049
51860W        W20234  15.642  23.708  13.848
51861W        W20235  18.134   7.185   2.755
51862W        W20236  40.863   4.245   1.346
51863W        W20237  42.393   1.334  14.929
51864W        W20238  37.877   8.862  12.938
51865W        W20239  24.068   9.364  14.814
51866W        W20240  24.580   7.317  13.889
51867W        W20241  17.179  14.181   4.218
51868W        W20242  40.315  15.296  14.351
51869W        W20243  24.563  29.044   3.309
51870W        W20244  23.153  42.437  11.942
51871W        W20245  18.735  30.520   5.310
51872W        W20246  34.571   7.330  11.553
51873W        W20247   8.884  15.281   3.330
51874W        W20248  24.011  35.487  12.020
51875W        W20249  41.518  29.620  13.312
51876W        W20250   0.771   6.898  11.106
51877W        W20251  17.193  42.434   0.733
51878W        W20252  23.714  26.201  13.363
51879W        W20253  33.066  33.917   0.791
51880W        W20254  13.202   1.403  11.949
51881W        W20255  30.480  44.859   2.407
51882W        W20256  44.503  44.984   0.817
51883W        W20257  14.146  42.888  13.938
51884W        W20258  11.317   3.813   2.229
51885W        W20259  36.029  35.566  14.331
51886W        W20260  32.626  15.319  10.560
51887W        W20261  26.469   0.338   1.389
51888W        W20262  31.540   0.294   0.389
51889W        W20263   3.924  20.737  10.418
51890W        W20264  44.439  44.824   2.814
51891W        W20265  21.548  14.783  13.025
51892W        W20266  26.209   3.266  13.875
51893W        W20267   2.225  20.221   4.717
51894W        W20268   6.298   8.218  13.933
51895W        W20269  10.199  23.656  11.390
51896W        W20270  12.317  43.783   2.412
51897W        W20271  27.973  18.277  14.427
51898W        W20272  41.432   6.266  12.881
51899W        W20273   5.859   8.666  11.905
51900W        W20274   1.324  24.505  12.008
51901W        W20275  24.214  41.464   4.762
51902W        W20276  42.983  13.187   5.169
51903W        W20277   0.842   5.353   2.699
51904W        W20278   4.313  34.068   2.417
51905W        W20279  14.687  11.833   0.891
51906W        W20280   5.746   5.247   4.158
51907W        W20281   0.788  26.483   1.746
51908W        W20282  16.164   5.368   3.759
51909W        W20283  40.484   5.407  13.865
51910W        W20284   8.397  43.989  11.999
51911W        W20285   3.261  37.476   0.373
51912W        W20286  18.237  42.374   1.886
51913W        W20287  15.220  24.618  13.355
51914W        W20288   1.867  27.181   1.781
51915W        W20289  40.523  33.022  11.911
51916W        W20290  29.023   2.463   0.819
51917W        W20291   7.721  18.218  10.959
51918W        W20292  24.593  35.517  10.442
51919W        W20293  26.990   4.278  12.875
51920W        W20294  40.863   6.423  14.500
51921W        W20295  34.571  25.101   2.844
51922W        W20296   8.709  12.848   2.334
51923W        W20297  12.198   5.864   1.420
51924W        W20298  37.495  44.953   0.966
51925W        W20299  38.877   9.774  12.954
51926W        W20300  13.116  11.726  14.803
51927W        W20301  13.346  21.611  14.907
51928W        W20302   3.814  17.174   1.388
51929W        W20303  24.180  19.724  10.930
51930W        W20304  26.155  20.624  11.424
51931W        W20305  43.496  34.014   1.843
51932W        W20306  37.039  16.717   1.776
51933W        W20307  23.136  38.519  11.916
51934W        W20308  28.949   6.210   1.846
51935W        W20309  35.041   1.328   0.825
51936W        W20310  14.098  35.909   1.813
51937W        W20311  43.449  43.453  12.955
51938W        W20312  32.440  34.990   2.674
51939W        W20313  34.001  35.378  12.540
51940W        W20314  12.665  16.727  12.964
51941W        W20315  44.485   6.911   0.907
51942W        W20316  21.157   1.931   4.294
51943W        W20317  13.222   8.776  14.920
51944W        W20318  26.167  11.626   1.729
51945W        W20319  15.158  28.671  14.288
51946W        W20320  22.237  44.465  10.554
51947W        W20321   6.223  38.016   4.228
51948W        W20322   6.388  16.812  14.001
51949W        W20323  32.588  30.485   0.284
51950W        W20324  15.099  11.627   4.156
51951W        W20325  20.670   6.183  14.299
51952W        W20326  21.164  32.113  11.371
51953W        W20327   8.870  20.137  10.019
51954W        W20328  30.625   2.450   4.725
51955W        W20329  36.939  25.140   4.794
51956W        W20330   5.714   1.411  13.536
51957W        W20331  42.315  24.512  11.081
51958W        W20332  20.047  32.979   0.843
51959W        W20333  31.998  13.675  14.356
51960W        W20334   0.301   5.213   2.801
51961W        W20335  30.015  42.932  11.549
51962W        W20336  39.544   1.909   4.799
51963W        W20337  31.593  31.416  12.935
51964W        W20338  40.861  10.740  12.464
51965W        W20339  44.788  41.537   0.914
51966W        W20340  20.169   3.805  10.984
51967W        W20341  34.423  36.380   3.210
51968W        W20342  41.916  33.604  10.962
51969W        W20343  23.654   0.340   1.365
51970W        W20344  30.459  40.942  13.935
51971W        W20345  33.921  33.592  13.057
51972W        W20346   7.821  20.533  11.498
51973W        W20347   4.907  32.630   1.317
51974W        W20348   0.396  38.883  12.580
51975W        W20349  12.351   9.680   3.834
51976W        W20350  23.651  27.619   1.274
51977W        W20351  24.496  31.502   4.659
51978W        W20352  28.175  42.883  14.380
51979W        W20353  34.996   0.747  11.071
51980W        W20354  39.945  31.567   2.355
51981W        W20355   0.348  43.385   1.437
51982W        W20356   3.733  21.237  12.027
51983W        W20357  41.041  38.983  14.965
51984W        W20358  35.472  32.499   1.294
51985W        W20359  44.482  23.210  12.346
51986W        W20360   6.697   1.753  13.921
51987W        W20361  18.150  34.615  12.065
51988W        W20362   7.755   3.752   3.235
51989W        W20363  25.554   3.783  14.990
51990W        W20364  20.585  32.457  14.881
51991W        W20365  42.303   3.329   0.755
51992W        W20366  22.170  31.060   2.695
51993W        W20367  43.825  13.227   1.807
51994W        W20368  38.415  29.140   2.665
51995W        W20369  12.773  12.256  13.800
51996W        W20370  26.144  17.647   4.164
51997W        W20371  24.105  37.550   1.898
51998W        W20372  36.085  19.082   1.312
51999W        W20373  44.299  15.164   4.669
52000W        W20374  38.557  12.328  11.439
52001W        W20375  19.077  41.859   2.238
52002W        W20376  12.217   6.386   1.422
52003W        W20377   5.288  13.731   0.257
52004W        W20378   5.703  16.650   0.330
52005W        W20379  25.688   5.317  13.352
52006W        W20380   0.425  12.669  13.967
52007W        W20381  38.854  16.734  14.794
52008W        W20382   0.339  15.719  11.098
52009W        W20383  43.873  42.929  12.504
52010W        W20384   2.415  38.053   4.296
52011W        W20385  36.009  11.803   3.236
52012W        W20386  39.982  13.702  12.544
52013W        W20387  27.103  12.127   4.159
52014W        W20388   5.869   1.270  14.999
52015W        W20389  33.993  38.819  13.819
52016W        W20390  44.477  38.997  12.482
52017W        W20391   4.360  10.875   0.357
52018W        W20392  15.618  30.934   4.208
52019W        W20393  13.647  23.638   2.402
52020W        W20394   2.849  25.681  14.853
52021W        W20395  41.841  28.528  10.615
52022W        W20396  25.599  39.968  12.027
52023W        W20397  32.912   0.935   1.255
52024W        W20398  29.610  28.042  11.379
52025W        W20399  35.869  30.046   2.845
52026W        W20400  31.476  20.556  11.128
52027W        W20401  19.257  37.518   4.636
52028W        W20402  30.630  14.290  12.538
52029W        W20403  33.575  44.857  13.901
52030W        W20404  33.426  38.929   1.297
52031W        W20405  15.238  37.368  14.896
52032W        W20406  18.294  41.345   3.303
52033W        W20407  36.869  15.115  10.979
52034W        W20408  10.707  35.415   3.224
52035W        W20409  33.944  36.995  14.770
52036W        W20410   5.239   6.300  13.533
52037W        W20411   5.819  30.511  10.470
52038W        W20412  26.172  23.069  10.483
52039W        W20413  18.557  31.514  14.772
52040W        W20414  16.796  31.080   1.415
52041W        W20415  19.137  27.615  11.978
52042W        W20416  27.520  34.977   1.343
52043W        W20417  35.890  32.608  12.881
52044W        W20418  35.590  27.950   4.746
52045W        W20419  43.894  24.094   0.275
52046W        W20420  39.352  31.976   4.309
52047W        W20421   7.759  36.971  11.975
52048W        W20422  18.765  36.981   2.751
52049W        W20423   7.226  38.925  10.569
52050W        W20424  12.702  24.702  11.582
52051W        W20425  10.142  26.038  12.834
52052W        W20426  32.595  21.567   4.671
52053W        W20427   8.210  35.865   2.662
52054W        W20428  24.213   1.868  13.524
52055W        W20429   2.412  12.175   1.905
52056W        W20430  40.023  20.207   4.170
52057W        W20431  36.487  30.560   9.962
52058W        W20432   7.338  40.889  10.911
52059W        W20433  22.665  17.710   4.124
52060W        W20434   3.311  11.731   5.209
52061W        W20435   9.691  24.631  11.421
52062W        W20436  37.918   7.233  11.398
52063W        W20437   5.691   1.871   3.763
52064W        W20438  13.340   3.903  11.508
52065W        W20439  17.254   2.822   1.447
52066W        W20440  36.859   9.876   2.771
52067W        W20441   5.270   3.721  11.011
52068W        W20442   5.324  17.660   4.250
52069W        W20443  10.732  18.164   4.651
52070W        W20444  12.721  24.693  14.984
52071W        W20445   9.768  27.078   1.221
52072W        W20446  19.716  34.584  13.353
52073W        W20447  31.441  25.703  11.428
52074W        W20448  44.384  19.772  14.459
52075W        W20449  25.136   6.223   0.413
52076W        W20450  32.932  23.547   2.827
52077W        W20451  35.925  32.571   0.246
52078W        W20452  10.714  12.713  11.978
52079W        W20453  34.430  34.947  12.366
52080W        W20454   3.306  10.838   3.713
52081W        W20455  29.526  12.243  13.356
52082W        W20456  44.772  13.351   4.667
52083W        W20457  37.494  38.937   2.186
52084W        W20458   1.914  40.437   0.776
52085W        W20459  14.810  15.119  13.449
52086W        W20460  10.162  20.603   2.216
52087W        W20461  16.757   5.880  14.305
52088W        W20462   4.385   5.912  12.973
52089W        W20463  40.960  33.486   2.339
52090W        W20464   5.758  38.930   1.912
52091W        W20465  33.531  27.662  11.064
52092W        W20466  27.561  14.805   1.227
52093W        W20467  31.634   4.799  13.890
52094W        W20468   8.765  29.529  12.977
52095W        W20469  16.111  29.934  10.487
52096W        W20470  19.185  24.722  14.509
52097W        W20471  18.669  42.819  12.554
52098W        W20472   5.201  37.435  11.015
52099W        W20473   1.275  35.084   0.340
52100W        W20474  21.577  17.226   1.416
52101W        W20475  44.404  39.379   0.402
52102W        W20476   5.848  31.150   4.807
52103W        W20477   0.898  18.245   4.184
52104W        W20478  29.053  37.024  10.626
52105W        W20479  30.461  31.510  12.553
52106W        W20480  10.767  21.569   2.211
52107W        W20481  39.354   6.838  11.513
52108W        W20482  22.688  33.514  10.482
52109W        W20483   6.781  40.421   2.380
52110W        W20484  36.431  41.464  12.057
52111W        W20485  43.875   8.683   0.941
52112W        W20486  41.963  16.271   4.773
52113W        W20487   1.397  29.982   3.811
52114W        W20488  23.605   5.853   3.299
52115W        W20489  38.959  18.561  14.818
52116W        W20490  20.736  36.956   2.213
52117W        W20491  34.972   7.781  10.433
52118W        W20492  23.623   2.787   2.708
52119W        W20493  23.715  39.919  14.509
52120W        W20494  20.677  38.469  11.094
52121W        W20495  16.143  16.635   4.172
52122W        W20496  39.057  20.187  12.061
52123W        W20497  15.227  39.392   1.268
52124W        W20498  30.646  23.689   2.708
52125W        W20499  35.958  25.035  11.434
52126W        W20500   7.238  34.570  11.573
52127W        W20501  14.785  34.515   2.850
52128W        W20502   8.897  30.071   2.301
52129W        W20503  37.435  16.696  11.046
52130W        W20504  11.715  14.608  14.507
52131W        W20505  44.453   5.692   3.331
52132W        W20506  26.962  38.845  12.527
52133W        W20507  38.460  28.059  12.476
52134W        W20508  27.997   1.426  12.431
52135W        W20509  24.187  36.481  11.911
52136W        W20510  28.557   8.879  11.957
52137W        W20511  20.206  15.747   4.627
52138W        W20512   5.203  23.494  11.557
52139W        W20513  43.822  20.627  13.512
52140W        W20514  16.779  20.636   1.226
52141W        W20515  43.424  39.516   2.250
52142W        W20516   9.343  38.934   2.716
52143W        W20517  17.754  40.970  14.502
52144W        W20518  26.169   6.384  10.491
52145W        W20519  42.282  11.162   1.727
52146W        W20520   9.158   0.438   3.652
52147W        W20521  28.602  25.647   3.633
52148W        W20522  41.800   1.437  12.852
52149W        W20523   9.348  44.425  13.940
52150W        W20524  15.772  40.961   2.229
52151W        W20525  11.847  35.039   3.235
52152W        W20526  34.022  33.958   2.828
52153W        W20527  18.727   9.808  11.556
52154W        W20528   6.422   6.699  11.957
52155W        W20529  20.091  31.524  13.806
52156W        W20530  44.833  21.702  14.481
52157W        W20531  38.400  13.793  14.966
52158W        W20532  16.092  27.627   0.483
52159W        W20533  33.012  29.148   4.324
52160W        W20534  36.473  31.144  13.837
52161W        W20535  21.567  44.444  14.358
52162W        W20536  42.855  39.940   3.175
52163W        W20537   7.779  38.900  13.057
52164W        W20538  25.660   7.851   2.352
52165W        W20539   4.717  39.031   5.147
52166W        W20540  34.418   0.977  11.912
52167W        W20541  19.709   3.843  13.804
52168W        W20542   1.238  37.545   4.344
52169W        W20543   2.452  20.082   3.849
52170W        W20544  32.392   6.388  12.527
52171W        W20545  36.016  31.544  11.523
52172W        W20546  13.236  31.545   0.258
52173W        W20547   3.941  23.622   2.307
52174W        W20548  41.033   8.286  10.454
52175W        W20549  26.053  17.709  11.976
52176W        W20550  27.951  44.798   4.802
52177W        W20551  14.802  20.617   0.338
52178W        W20552   9.877  30.010  10.978
52179W        W20553  25.140  33.996  14.457
52180W        W20554  16.297  44.325  10.463
52181W        W20555  41.324  36.046   3.312
52182W        W20556  35.408   7.208   3.158
52183W        W20557  27.039   2.313  14.935
52184W        W20558  31.604  20.042   4.617
52185W        W20559  19.268  37.340   2.356
52186W        W20560  21.126   9.869  12.876
52187W        W20561  24.660   4.750  13.014
52188W        W20562  32.063  43.311   1.699
52189W        W20563  11.692  34.599  10.569
52190W        W20564  29.633  30.618   9.963
52191W        W20565   6.878  19.040  14.329
52192W        W20566  13.344  15.162   0.901
52193W        W20567  16.644  44.001  12.977
52194W        W20568  19.098  32.123   3.717
52195W        W20569  28.597  43.473   4.607
52196W        W20570  19.264   2.437   0.292
52197W        W20571  20.145  43.985  10.516
52198W        W20572   7.673  17.160  13.339
52199W        W20573  28.443  37.940  11.380
52200W        W20574  28.544  15.822  12.552
52201W        W20575  28.434  29.939   1.803
52202W        W20576  25.127  22.106  12.052
52203W        W20577  10.240  40.471   1.372
52204W        W20578  32.051   4.362  13.475
52205W        W20579   4.766  15.154   4.181
52206W        W20580  14.633  15.107   0.460
52207W        W20581  11.682  12.225   2.768
52208W        W20582  11.318   9.763  14.379
52209W        W20583   7.325  37.339  12.404
52210W        W20584   5.756  40.813  11.124
52211W        W20585  38.335  37.575   4.318
52212W        W20586  18.096  19.658  12.001
52213W        W20587  17.171  20.244   4.829
52214W        W20588   1.898  11.625  12.504
52215W        W20589  22.219  16.573  13.846
52216W        W20590  42.318  18.680  11.552
52217W        W20591  29.502  43.850  11.055
52218W        W20592  16.224  17.264   0.849
52219W        W20593   5.348  25.979   5.148
52220W        W20594  14.096   0.921   0.920
52221W        W20595  19.039   1.737  14.352
52222W        W20596  43.824   7.177  11.880
52223W        W20597   7.351  35.102   2.413
52224W        W20598  31.122  34.934   1.765
52225W        W20599  10.291  39.495  13.002
52226W        W20600  17.754  11.718  15.000
52227W        W20601  30.518  40.921   3.170
52228W        W20602  33.480   0.336  14.397
52229W        W20603   7.177  15.726   1.289
52230W        W20604  39.941   6.216  14.009
52231W        W20605  25.062   1.752   0.865
52232W        W20606  15.583  27.060  14.014
52233W        W20607  19.570  15.631   1.781
52234W        W20608  30.628  23.142   2.262
52235W        W20609  19.707  30.943  11.589
52236W        W20610  17.124   9.169  14.969
52237W        W20611  14.339  37.029   1.827
52238W        W20612  33.877  38.418  14.991
52239W        W20613   2.965  25.492   2.805
52240W        W20614  38.496  16.774  11.385
52241W        W20615   0.435   0.413   3.339
52242W        W20616  35.385  34.463   4.751
52243W        W20617  38.358  31.646   3.253
52244W        W20618  18.225  43.430  13.396
52245W        W20619  25.063  23.134   2.231
52246W        W20620  37.573  32.503  13.477
52247W        W20621   8.195  14.818  14.378
52248W        W20622  43.469  18.721  14.414
52249W        W20623  17.299   4.715   1.818
52250W        W20624   7.835  21.669  13.315
52251W        W20625  23.617  41.469   1.340
52252W        W20626   8.852  21.548  12.089
52253W        W20627  12.664  17.071   1.402
52254W        W20628  17.118  26.582   4.703
52255W        W20629  12.683  22.706  11.066
52256W        W20630   8.305  26.020   3.165
52257W        W20631   2.394  33.506   5.311
52258W        W20632  39.386  28.065   1.235
52259W        W20633   5.193  27.676  14.497
52260W        W20634  14.315  25.636  14.934
52261W        W20635  34.971  22.025   1.700
52262W        W20636  17.721  11.267   0.795
52263W        W20637   3.745  33.423   0.309
52264W        W20638  11.307   3.454   1.739
52265W        W20639   0.298   4.297   4.653
52266W        W20640  21.142   6.784  11.459
52267W        W20641  28.185  36.005   4.289
52268W        W20642  34.458  21.039  11.004
52269W        W20643  36.969  34.572  14.827
52270W        W20644  32.413  11.682   4.318
52271W        W20645  21.205  40.914   1.736
52272W        W20646  20.054  27.983   3.866
52273W        W20647   8.873  23.020  11.988
52274W        W20648  19.681  41.887   4.188
52275W        W20649  26.146  17.267   1.872
52276W        W20650  31.551  32.900  12.961
52277W        W20651  29.921  28.499  13.879
52278W        W20652  23.083  13.125   3.387
52279W        W20653  41.973  37.425   1.404
52280W        W20654   7.739   9.720   2.379
52281W        W20655  43.885   2.323   1.772
52282W        W20656  42.017  13.691   1.722
52283W        W20657  28.042  18.731  11.457
52284W        W20658  38.399  12.834   0.271
52285W        W20659   8.175  36.488   3.805
52286W        W20660  39.360  40.436   2.789
52287W        W20661  38.406  19.545   3.350
52288W        W20662  15.187   2.940  14.977
52289W        W20663  24.046  38.487   1.406
52290W        W20664  20.733   0.756   0.764
52291W        W20665   5.193  28.603   3.347
52292W        W20666   7.390  30.996  13.398
52293W        W20667   8.194   5.915   3.157
52294W        W20668   8.381  37.548  10.916
52295W        W20669  39.966  42.449   3.794
52296W        W20670  38.965  33.446  11.969
52297W        W20671  39.957  33.995   3.731
52298W        W20672  10.272  10.705  10.933
52299W        W20673  15.109  13.771  13.823
52300W        W20674  12.176  10.714   2.741
52301W        W20675   1.364  17.654  14.375
52302W        W20676  38.034  34.100  13.340
52303W        W20677  30.565  41.416  14.995
52304W        W20678  11.678  31.918   1.762
52305W        W20679   7.232  42.782  10.889
52306W        W20680  20.090  27.453  11.980
52307W        W20681   0.312  40.030   3.174
52308W        W20682  10.147   7.711   2.678
52309W        W20683  12.201  18.229   3.179
52310W        W20684  43.384   8.340  10.942
52311W        W20685   3.404  13.671  13.530
52312W        W20686  13.254  31.420  10.446
52313W        W20687  36.355  33.110  12.995
52314W        W20688  25.535  22.224  14.433
52315W        W20689  20.642  40.430   2.210
52316W        W20690  14.623  12.695  12.883
52317W        W20691   0.804   8.843   4.235
52318W        W20692   0.343  14.750  13.889
52319W        W20693  17.147  40.408   3.279
52320W        W20694  38.918  15.285   2.718
52321W        W20695  40.546  34.419  12.924
52322W        W20696   6.915   0.445  10.930
52323W        W20697  15.312   8.196  13.474
52324W        W20698  23.588  32.624  12.914
52325W        W20699  18.187  24.048   1.699
52326W        W20700  16.666  26.585  13.900
52327W        W20701  15.599  39.817  10.949
52328W        W20702  32.017  28.060  12.980
52329W        W20703  32.505  15.739   2.404
52330W        W20704  42.524  44.794   3.790
52331W        W20705  18.617   0.920   4.616
52332W        W20706  43.845  13.634   1.425
52333W        W20707  23.529  17.158  13.858
52334W        W20708  24.660  14.735  13.024
52335W        W20709  28.106  24.995   3.811
52336W        W20710  20.664  11.189  12.074
52337W        W20711  11.316  39.925  14.834
52338W        W20712  35.553  44.853   1.431
52339W        W20713  16.601   9.282  14.856
52340W        W20714  11.334  29.976  14.841
52341W        W20715  35.914   5.730  12.973
52342W        W20716  23.549  10.777   0.919
52343W        W20717  17.273  34.553  12.456
52344W        W20718  15.741  10.820  11.469
52345W        W20719  19.207  20.102   3.674
52346W        W20720  24.523   8.661  12.038
52347W        W20721  32.892  41.027   2.681
52348W        W20722  13.760   9.165  14.783
52349W        W20723  15.124  28.128  13.335
52350W        W20724   3.458  22.657   4.687
52351W        W20725   1.326   9.747   1.788
52352W        W20726   9.716  41.427  13.514
52353W        W20727  16.570  17.267  12.543
52354W        W20728  41.504  10.745  14.315
52355W        W20729  37.432  43.846   0.829
52356W        W20730  36.037  38.412   4.153
52357W        W20731  18.686   7.854   4.349
52358W        W20732  14.641   5.736   2.204
52359W        W20733  44.938  43.280  11.091
52360W        W20734   1.290  23.030   2.823
52361W        W20735  44.308  40.334  14.375
52362W        W20736   4.802  23.133  11.510
52363W        W20737  36.907  13.193  14.767
52364W        W20738   1.823  26.523  10.530
52365W        W20739  38.958  28.639  14.281
52366W        W20740  20.623  18.061   2.201
52367W        W20741  14.328  24.592   2.669
52368W        W20742   1.937  22.110  11.448
52369W        W20743  40.046   8.306  13.453
52370W        W20744  32.543  17.801   1.415
52371W        W20745  39.942  30.569   4.835
52372W        W20746  29.466  22.064  14.918
52373W        W20747  39.903  43.996   3.749
52374W        W20748  14.228  31.618  12.979
52375W        W20749   7.722  19.278   4.341
52376W        W20750  36.845  44.502  13.520
52377W        W20751  23.076  31.064  11.478
52378W        W20752  26.155   0.813  13.465
52379W        W20753   0.944  21.579   3.311
52380W        W20754  27.129  16.198  11.948
52381W        W20755  41.489  32.083  10.014
52382W        W20756  20.576   8.324  12.425
52383W        W20757  26.017  42.986   2.880
52384W        W20758  39.998  33.950  13.311
52385W        W20759  35.021  11.192   0.395
52386W        W20760  40.417  27.004  10.552
52387W        W20761  27.044   4.444   1.705
52388W        W20762   3.381  31.571   0.261
52389W        W20763  19.051  43.840   4.767
52390W        W20764  28.080  41.991  11.933
52391W        W20765  35.567  18.107   3.182
52392W        W20766  18.149  20.548  13.896
52393W        W20767   8.222  36.852   1.843
52394W        W20768  31.082  43.404  10.508
52395W        W20769  42.783  29.595  12.361
52396W        W20770  37.364   7.199   4.218
52397W        W20771  12.353  18.583  12.373
52398W        W20772  15.748  19.277  11.480
52399W        W20773  40.379  29.965   1.240
52400W        W20774  22.245  32.423  14.827
52401W        W20775   1.842  24.001  14.395
52402W        W20776  39.913  22.024   0.327
52403W        W20777   6.747  40.971   2.764
52404W        W20778  29.502  10.754  12.478
52405W        W20779   4.757  26.685   3.334
52406W        W20780   8.682   9.789   0.459
52407W        W20781   1.787  29.026  14.307
52408W        W20782  35.855  43.789  13.948
52409W        W20783  41.842  26.629   2.229
52410W        W20784  42.321  18.596   1.404
52411W        W20785   5.904  24.227   3.188
52412W        W20786  28.535  38.361  13.992
52413W        W20787  41.811  10.843   2.320
52414W        W20788  18.782  29.476   1.407
52415W        W20789  39.376   5.859  11.917
52416W        W20790  17.574   9.665   2.716
52417W        W20791   1.868  21.607  10.963
52418W        W20792  38.956  43.809  13.508
52419W        W20793   3.813  12.612   0.964
52420W        W20794   9.209  32.407  12.411
52421W        W20795  14.142   5.758   2.773
52422W        W20796  39.937   9.286  12.945
52423W        W20797  43.844  18.681  11.483
52424W        W20798   5.835  36.566  13.944
52425W        W20799  11.838  38.956   0.400
52426W        W20800  10.181  36.932   3.331
52427W        W20801   6.258  44.975  13.479
52428W        W20802  22.683  20.559  13.545
52429W        W20803  29.118  28.677   3.866
52430W        W20804  44.343  44.845  14.990
52431W        W20805   2.235   9.198  14.908
52432W        W20806  31.024  34.474  10.569
52433W        W20807  11.292  29.619   0.834
52434W        W20808  22.022   4.211   1.915
52435W        W20809  23.157  14.788   4.189
52436W        W20810   5.905  36.504  11.479
52437W        W20811  11.740  38.873  12.364
52438W        W20812  31.916  24.493   0.847
52439W        W20813  29.643  44.346   3.711
52440W        W20814   9.223  24.019  13.060
52441W        W20815  19.638   1.887   3.276
52442W        W20816  40.354  41.903  12.370
52443W        W20817  25.081  19.078  13.949
52444W        W20818   6.359  41.528  10.059
52445W        W20819   3.933  22.566  12.347
52446W        W20820   6.197   9.676  14.420
52447W        W20821   3.910  11.742  10.512
52448W        W20822  36.906  21.252   2.824
52449W        W20823  30.544  26.006   3.371
52450W        W20824   6.265   4.894   1.764
52451W        W20825  38.953   4.729  11.402
52452W        W20826  33.391  43.363   4.302
52453W        W20827  14.100   4.727   2.292
52454W        W20828   5.814   2.918   3.316
52455W        W20829  19.240  25.192   2.325
52456W        W20830  38.475  28.108   2.356
52457W        W20831  19.743  41.005   1.410
52458W        W20832  19.616   9.685  14.505
52459W        W20833  10.289  35.596   3.263
52460W        W20834  37.577  42.927   1.213
52461W        W20835   3.442  25.570   4.783
52462W        W20836  27.949  31.586   3.213
52463W        W20837  25.670  26.621  13.479
52464W        W20838   0.779   1.476  14.315
52465W        W20839  17.105  20.653  11.993
52466W        W20840  26.099   1.823   1.419
52467W        W20841  35.517  11.855   1.354
52468W        W20842  36.456  10.305  12.503
52469W        W20843   3.792  31.116  12.494
52470W        W20844  28.643  11.263   1.841
52471W        W20845  43.870   8.818  13.946
52472W        W20846  29.533  42.981  10.438
52473W        W20847  25.034  13.708  11.500
52474W        W20848  39.999   1.941   2.729
52475W        W20849  17.141  11.255   3.666
52476W        W20850  25.156  42.919  14.315
52477W        W20851  11.135  25.104   1.712
52478W        W20852  33.407  39.534   4.143
52479W        W20853  35.060  30.146   1.237
52480W        W20854  43.845  25.537  11.869
52481W        W20855  14.239  10.724   3.342
52482W        W20856  44.437  27.981   3.234
52483W        W20857   3.909   9.212   3.643
52484W        W20858   2.375   0.890   4.736
52485W        W20859  41.350  33.094   1.724
52486W        W20860  44.452  24.024  11.372
52487W        W20861  11.288  40.316  14.848
52488W        W20862   0.449  20.698   2.392
52489W        W20863   5.870  27.998  11.432
52490W        W20864  25.606  37.429   0.910
52491W        W20865   8.397  23.988   9.930
52492W        W20866  29.937  12.164  10.404
52493W        W20867  28.034   9.357   1.416
52494W        W20868  32.085   1.846  14.463
52495W        W20869  20.660   2.459   0.420
52496W        W20870  11.192  29.968   3.284
52497W        W20871  10.809   4.932   3.760
52498W        W20872  32.441   2.964  13.922
52499W        W20873  30.563  13.807  12.871
52500W        W20874  28.623  16.567  13.941
52501W        W20875  22.168  42.826   2.392
52502W        W20876  10.214   3.397  10.081
52503W        W20877  26.993  13.288   4.601
52504W        W20878  31.138  18.130   9.976
52505W        W20879  13.296  22.603   1.911
52506W        W20880  37.422  10.702  10.524
52507W        W20881  34.614  26.152  12.893
52508W        W20882  22.571  10.700   1.310
52509W        W20883  25.070  27.186  10.452
52510W        W20884  25.646   3.943   4.674
52511W        W20885  14.786  44.411   3.323
52512W        W20886   5.909   1.431   4.226
52513W        W20887  37.545  21.172  11.502
52514W        W20888  32.585  25.471  10.428
52515W        W20889  31.911  13.655   4.193
52516W        W20890  10.270  44.818  13.940
52517W        W20891  22.727   4.268   3.258
52518W        W20892   7.395  39.051  14.415
52519W        W20893  17.085  41.003   2.335
52520W        W20894  31.992  33.574   3.639
52521W        W20895  23.001  23.508   4.653
52522W        W20896   8.265  17.188   0.858
52523W        W20897   7.816  20.066   3.632
52524W        W20898  21.738  25.183  10.507
52525W        W20899  22.719  44.861  14.465
52526W        W20900  15.114  29.545   1.215
52527W        W20901   7.871  11.682  14.876
52528W        W20902  13.271  24.547   1.821
52529W        W20903  29.612  18.615  11.523
52530W        W20904  18.094  34.999   2.311
52531W        W20905  37.971  34.000   1.389
52532W        W20906  12.331  27.585  13.454
52533W        W20907  39.034   4.367  12.900
52534W        W20908   8.228  13.308  13.031
52535W        W20909  34.926  37.040  12.355
52536W        W20910  24.536  26.140   4.243
52537W        W20911  32.596  13.323   0.337
52538W        W20912  39.422  44.345  14.474
52539W        W20913  32.492  31.047   0.944
52540W        W20914  29.667  33.401  11.897
52541W        W20915  23.108  26.051  12.982
52542W        W20916  12.636  21.522  12.037
52543W        W20917  44.308  41.480   3.760
52544W        W20918   4.432   9.829   3.186
52545W        W20919   2.940  40.856  13.505
52546W        W20920   8.690   0.915  14.472
52547W        W20921  28.970  20.242  10.625
52548W        W20922   6.810  24.557   3.826
52549W        W20923  24.097  33.534  12.075
52550W        W20924  23.531  27.650  10.890
52551W        W20925  28.072  14.187   0.784
52552W        W20926  38.432  41.536   1.255
52553W        W20927  31.132  33.072  10.550
52554W        W20928  12.634  25.108  10.457
52555W        W20929  15.167  10.297  10.014
52556W        W20930  25.566   0.417  14.885
52557W        W20931  36.923  25.705  13.891
52558W        W20932  32.033  10.306   4.816
52559W        W20933  32.956   6.187  11.409
52560W        W20934  35.950  34.391  13.862
52561W        W20935  31.026  40.897   2.335
52562W        W20936  15.100  28.072   4.836
52563W        W20937  15.250  15.672  11.934
52564W        W20938   0.870   7.822  12.851
52565W        W20939   3.762  25.597   1.358
52566W        W20940  28.991  20.253  12.870
52567W        W20941  24.710   2.276   3.775
52568W        W20942   0.454  17.255   1.747
52569W        W20943  41.483  22.205   0.905
52570W        W20944   7.294  18.693   0.847
52571W        W20945   3.886   4.709  12.059
52572W        W20946  33.919   4.360   1.258
52573W        W20947  12.202   5.731  11.426
52574W        W20948  15.605   2.308   4.349
52575W        W20949  29.559   8.659   1.315
52576W        W20950  16.707  41.887   0.878
52577W        W20951   1.753  10.768  11.569
52578W        W20952  26.098   9.244   3.207
52579W        W20953  22.112  24.082   1.805
52580W        W20954   8.286  40.960   3.387
52581W        W20955  44.927  40.303   0.376
52582W        W20956  19.086  41.833   0.415
52583W        W20957  20.546  24.065   0.473
52584W        W20958  34.083  28.621   4.671
52585W        W20959  27.074  20.562  14.279
52586W        W20960  31.131   6.403   2.342
52587W        W20961  10.166  44.444   0.246
52588W        W20962  20.063   9.386   2.680
52589W        W20963  10.329  23.239  13.949
52590W        W20964  21.584   9.650  10.615
52591W        W20965  26.046  16.193  10.893
52592W        W20966  21.541  25.629  12.514
52593W        W20967  39.521  14.145  10.985
52594W        W20968  36.995  22.105   1.433
52595W        W20969  41.974  24.110  14.878
52596W        W20970  39.886   7.357   0.306
52597W        W20971  38.445  38.900   1.896
52598W        W20972  34.553   4.417  10.562
52599W        W20973  37.884  10.339  10.088
52600W        W20974   2.363  18.270   3.249
52601W        W20975  20.528   7.703  11.079
52602W        W20976  13.138  42.848   5.168
52603W        W20977   8.857   0.321  14.773
52604W        W20978  10.381  42.339  13.536
52605W        W20979  23.103  16.642  11.385
52606W        W20980  43.871  39.927   1.695
52607W        W20981   3.369  39.348   4.314
52608W        W20982  23.135   4.443   4.163
52609W        W20983  38.515  14.259   2.370
52610W        W20984  32.117  37.875   4.189
52611W        W20985   4.839  43.341  12.554
52612W        W20986   5.699  26.078  12.395
52613W        W20987  28.596   9.697  14.978
52614W        W20988  13.757  40.515  11.966
52615W        W20989  44.410  10.342   3.816
52616W        W20990  13.834   0.481  10.602
52617W        W20991  29.648  26.168  13.854
52618W        W20992  23.644  30.043   3.686
52619W        W20993  27.620  40.328   4.257
52620W        W20994   2.774   0.475   4.808
52621W        W20995  24.605  42.504  13.495
52622W        W20996  11.835  43.436  11.469
52623W        W20997  28.494   8.371  11.556
52624W        W20998   4.737  31.127  12.875
52625W        W20999  14.156  33.896   2.903
52626W        W21000  11.330  10.155   3.320
52627W        W21001  34.583  13.644  11.914
52628W        W21002  19.153   9.778   0.811
52629W        W21003   7.198  37.457  10.531
52630W        W21004  27.032  37.495  12.087
52631W        W21005  11.655  13.298  11.096
52632W        W21006  41.334  12.818   4.132
52633W        W21007  19.578  35.386   2.191
52634W        W21008   9.207  10.322   0.955
52635W        W21009  42.425  29.587  12.489
52636W        W21010  31.606   9.685   1.739
52637W        W21011  25.002  22.653  12.864
52638W        W21012   5.404   7.803   3.828
52639W        W21013  19.163  15.194   1.808
52640W        W21014  29.605  23.202  14.760
52641W        W21015  33.620   0.915  11.599
52642W        W21016  29.121  40.879  14.347
52643W        W21017  39.962  36.584  11.104
52644W        W21018  17.131  39.984   2.227
52645W        W21019  41.836   2.768  12.080
52646W        W21020  26.962  23.668   3.364
52647W        W21021   6.234  40.508   0.312
52648W        W21022  32.018  44.499  12.419
52649W        W21023   0.353  14.682  11.556
52650W        W21024  30.588   5.917   4.644
52651W        W21025  23.606  38.968  11.933
52652W        W21026  35.433  30.142   0.333
52653W        W21027  41.796   1.265   4.154
52654W        W21028  38.423  10.363   0.844
52655W        W21029  33.994  17.289   3.338
52656W        W21030  26.660  25.522   2.899
52657W        W21031  11.191   5.380  13.377
52658W        W21032  17.167  25.122  13.455
52659W        W21033   8.723   6.698   2.390
52660W        W21034   9.286  19.731   2.877
52661W        W21035  27.157   9.335  11.010
52662W        W21036   2.760  44.298   2.225
52663W        W21037  16.616  43.928  13.827
52664W        W21038  28.099  18.214  13.450
52665W        W21039  38.060  11.203   2.322
52666W        W21040  13.271  18.610   0.411
52667W        W21041   5.826  18.696  11.992
52668W        W21042  34.077  28.635   4.166
52669W        W21043  19.132  43.790   3.160
52670W        W21044   5.312   4.402   3.845
52671W        W21045  27.549   3.793  14.326
52672W        W21046   7.771  35.958   2.191
52673W        W21047   3.880   6.700  12.029
52674W        W21048  26.629   3.349   2.845
52675W        W21049  14.619  39.819   0.932
52676W        W21050  22.105  30.132   4.816
52677W        W21051  17.235  35.939   4.782
52678W        W21052   2.727  25.585   4.217
52679W        W21053  10.791  44.373   3.652
52680W        W21054   6.788  17.181  10.567
52681W        W21055  15.123  10.367   4.731
52682W        W21056  28.007  34.008  14.432
52683W        W21057  10.384  16.656  12.865
52684W        W21058  42.298  40.927   3.297
52685W        W21059  35.570   0.744   1.237
52686W        W21060  32.018  15.259   2.389
52687W        W21061   5.781  35.444  11.878
52688W        W21062   7.886  15.146   1.708
52689W        W21063   8.743  17.126  14.887
52690W        W21064  41.420  18.233   1.440
52691W        W21065  40.926   9.684   1.425
52692W        W21066   2.389   9.786   0.382
52693W        W21067  22.010  29.512  12.946
52694W        W21068  13.148  44.802  14.849
52695W        W21069  24.187   6.256   0.727
52696W        W21070  32.994  28.068  12.448
52697W        W21071   1.356  27.013  12.982
52698W        W21072  32.594  30.922   2.897
52699W        W21073  20.526   4.898  12.853
52700W        W21074  35.879  33.974  14.434
52701W        W21075   5.791   7.867  11.401
52702W        W21076  32.888  28.465  14.291
52703W        W21077  23.095  15.761  13.952
52704W        W21078  16.661  40.034   0.467
52705W        W21079  18.790   3.460   5.100
52706W        W21080  34.982   7.793   4.339
52707W        W21081  24.110  28.480  12.556
52708W        W21082   2.395  43.414  13.350
52709W        W21083   3.399  42.282   4.681
52710W        W21084  42.802  38.329  12.377
52711W        W21085   7.210  36.048   0.758
52712W        W21086  21.253  32.988  13.387
52713W        W21087  19.556  16.154  11.009
52714W        W21088  14.651  31.497   4.719
52715W        W21089   3.742   2.796   3.646
52716W        W21090  39.520  29.043   3.693
52717W        W21091  22.583   1.769   4.820
52718W        W21092  40.972  36.457  14.814
52719W        W21093   1.279  12.315   0.431
52720W        W21094  27.489  17.244   4.727
52721W        W21095  44.980  32.517  10.900
52722W        W21096  24.485   2.919   1.293
52723W        W21097  19.649  19.544  13.815
52724W        W21098   9.717  19.606   0.839
52725W        W21099  14.254  26.061  10.522
52726W        W21100  11.284  13.666  13.352
52727W        W21101  20.128  43.933   1.430
52728W        W21102   2.919  41.519   3.344
52729W        W21103  15.815  41.319  14.840
52730W        W21104  34.421  23.598  14.343
52731W        W21105  22.252  31.426  13.353
52732W        W21106  23.200   9.383   2.767
52733W        W21107  38.470  41.797  11.594
52734W        W21108   3.780  20.539  14.763
52735W        W21109  36.500  10.208  11.410
52736W        W21110  38.891   1.910   4.135
52737W        W21111   3.904  25.156  12.386
52738W        W21112  17.780  16.243   0.849
52739W        W21113  31.601  34.539  10.563
52740W        W21114   9.816  29.009  14.913
52741W        W21115  22.632  42.496   9.972
52742W        W21116   6.238  33.383   4.689
52743W        W21117   7.841  38.870   4.282
52744W        W21118  11.270   9.881  11.382
52745W        W21119  16.685   0.749  12.496
52746W        W21120  43.470  13.184   2.897
52747W        W21121  36.065  37.044  11.429
52748W        W21122  33.110  34.903  11.967
52749W        W21123  28.958   1.253   3.362
52750W        W21124   9.669   8.808   1.370
52751W        W21125  21.735  43.951   1.719
52752W        W21126  44.469  17.211  14.467
52753W        W21127  14.830  19.779  13.323
52754W        W21128  26.970  12.646   2.800
52755W        W21129  37.391  19.232   1.697
52756W        W21130  44.320   9.738  13.383
52757W        W21131  42.903  39.813  10.062
52758W        W21132  43.377  33.548   9.977
52759W        W21133  39.939   6.736  11.079
52760W        W21134  29.648  21.220   1.729
52761W        W21135   8.291  20.096   4.834
52762W        W21136  44.262  21.153   0.275
52763W        W21137  10.741   2.918  12.037
52764W        W21138  30.455   8.321   1.824
52765W        W21139  15.127  41.474   2.669
52766W        W21140  10.342  24.564  14.301
52767W        W21141  35.424  24.653  14.820
52768W        W21142  10.244  42.932  13.886
52769W        W21143  39.958  23.179   2.256
52770W        W21144  23.680  15.143   5.275
52771W        W21145  15.245  38.960   1.758
52772W        W21146  24.098  37.434  13.062
52773W        W21147  38.977  11.678  12.050
52774W        W21148  43.429   5.285   2.799
52775W        W21149  13.667   6.354   0.837
52776W        W21150  16.784  44.280   4.751
52777W        W21151   0.480  11.630   1.357
52778W        W21152  44.489  13.765   3.160
52779W        W21153   3.454  29.174   2.232
52780W        W21154   3.450  12.172  14.312
52781W        W21155  11.159  33.960   3.319
52782W        W21156  25.093   2.894   3.857
52783W        W21157   9.660   4.806   0.438
52784W        W21158   2.832  29.094  12.969
52785W        W21159  37.925  41.335   5.174
52786W        W21160  24.012  30.987  10.995
52787W        W21161  40.847  36.944  14.843
52788W        W21162  33.550  44.447   2.384
52789W        W21163   1.945  16.235   0.290
52790W        W21164   9.863  39.883   2.697
52791W        W21165  22.168   7.805   1.872
52792W        W21166  29.565  10.874  12.068
52793W        W21167  26.057  35.090   3.669
52794W        W21168  18.764   1.764  10.912
52795W        W21169   8.683  29.634  13.792
52796W        W21170   9.846  41.820   2.736
52797W        W21171  18.114  38.373  12.937
52798W        W21172  14.678  17.653  13.485
52799W        W21173  35.021  12.787  11.915
52800W        W21174  30.585   5.353   3.692
52801W        W21175  36.874  22.225  11.975
52802W        W21176   8.698  37.515   0.298
52803W        W21177  36.403  29.117  13.428
52804W        W21178  16.727   2.763   2.298
52805W        W21179  15.666  14.639  14.377
52806W        W21180  33.999   5.393  14.332
52807W        W21181   7.198  18.095   5.102
52808W        W21182  39.350  16.607  14.473
52809W        W21183   7.250  25.524  14.423
52810W        W21184   7.322  31.511  13.915
52811W        W21185   5.915   0.749   2.220
52812W        W21186  28.025  31.086   1.784
52813W        W21187   7.891  40.033   2.868
52814W        W21188   2.411  23.675  11.067
52815W        W21189  28.680  24.031   3.282
52816W        W21190  44.260  43.394  13.948
52817W        W21191  10.845  32.003   2.888
52818W        W21192  24.653  18.745  13.050
52819W        W21193  24.506  39.904   0.405
52820W        W21194  41.492  24.078  13.310
52821W        W21195  11.851  18.118   1.711
52822W        W21196  28.627  13.174   2.286
52823W        W21197  25.204  29.966  12.498
52824W        W21198  22.085  10.341  10.416
52825W        W21199  16.673  41.378   0.441
52826W        W21200   1.755  23.733   3.250
52827W        W21201  36.592  44.810  12.552
52828W        W21202  21.585  13.247   2.805
52829W        W21203   7.282  21.116   2.217
52830W        W21204  35.953  12.631  13.896
52831W        W21205  27.102  23.081  12.911
52832W        W21206  40.928  10.724  13.966
52833W        W21207  13.795  26.054   0.927
52834W        W21208  42.812  25.169   1.815
52835W        W21209  25.164  28.450  14.892
52836W        W21210  31.010  12.295  12.491
52837W        W21211  19.260  40.995   1.362
52838W        W21212  35.524  23.204  12.471
52839W        W21213  30.659  19.260   0.343
52840W        W21214  39.938  11.257  13.048
52841W        W21215   8.336   8.201  11.455
52842W        W21216   3.802  29.979   4.113
52843W        W21217  32.940  37.979  13.826
52844W        W21218  17.200   4.918  11.541
52845W        W21219   6.797  40.450  13.801
52846W        W21220  31.001   8.260  14.759
52847W        W21221   7.685  15.738  10.995
52848W        W21222  11.796  13.188   1.245
52849W        W21223  35.881  14.315   2.247
52850W        W21224  38.992  29.506   0.443
52851W        W21225  19.093  13.726   1.858
52852W        W21226   3.916  14.300   0.259
52853W        W21227   0.776   5.221   4.322
52854W        W21228  22.126  16.143  13.988
52855W        W21229  29.516   3.758   3.812
52856W        W21230  26.458  25.025   4.774
52857W        W21231  36.887  44.848  14.925
52858W        W21232  23.594  14.126  12.507
52859W        W21233   0.849  28.637   4.687
52860W        W21234   4.799  40.963  13.316
52861W        W21235  37.389  11.266   4.230
52862W        W21236  35.439  21.082   1.888
52863W        W21237  20.230  34.460   2.881
52864W        W21238  40.941  43.964  14.349
52865W        W21239   1.388  27.669   4.231
52866W        W21240  16.574  27.655  12.839
52867W        W21241  19.770  18.680  13.860
52868W        W21242  13.304  38.857  14.423
52869W        W21243  22.198  11.320  14.013
52870W        W21244  11.760   8.395  11.024
52871W        W21245  18.263  26.520   1.434
52872W        W21246  35.473  27.098  14.924
52873W        W21247   0.344  11.225  12.575
52874W        W21248  34.095  32.009  12.954
52875W        W21249  24.565  17.162   3.351
52876W        W21250  29.541  44.421   5.320
52877W        W21251  36.533  20.757   4.833
52878W        W21252  44.318  33.941   1.247
52879W        W21253  26.511  36.592  11.059
52880W        W21254  40.444   2.312  14.760
52881W        W21255  22.998   2.436  12.014
52882W        W21256  31.982  27.062   1.258
52883W        W21257  44.269  44.989  12.040
52884W        W21258  26.486  36.559  12.352
52885W        W21259   1.466  37.930  14.819
52886W        W21260  36.361  20.053   4.178
52887W        W21261  32.074  32.425  12.435
52888W        W21262  27.511  29.523  10.514
52889W        W21263  29.158  30.991  10.900
52890W        W21264  21.084  43.311   2.382
52891W        W21265   2.739  38.443   1.322
52892W        W21266  36.437  21.212  12.095
52893W        W21267  39.332  28.097   2.768
52894W        W21268   3.252  37.084   3.351
52895W        W21269  33.549   3.787   1.812
52896W        W21270  17.234  26.606   2.419
52897W        W21271  26.097  19.738  11.480
52898W        W21272  41.426   2.955  14.023
52899W        W21273  44.488  17.619   2.304
52900W        W21274   6.706   8.809   0.467
52901W        W21275  38.845  35.530  13.857
52902W        W21276   7.900  19.215  13.393
52903W        W21277   3.356  43.930   0.821
52904W        W21278  39.435  42.812   0.845
52905W        W21279  14.280  22.998  13.798
52906W        W21280  18.754  30.513   4.622
52907W        W21281   2.808   4.766  13.511
52908W        W21282  29.117  33.541  10.427
52909W        W21283  24.517   8.398   3.642
52910W        W21284  40.541  39.014   0.810
52911W        W21285  25.110  24.200   0.354
52912W        W21286  25.161   2.951   4.298
52913W        W21287  36.951   1.930  13.326
52914W        W21288  33.932  35.902  13.396
52915W        W21289  34.540  16.092   3.676
52916W        W21290   5.418  42.910  10.459
52917W        W21291   8.797   4.245   2.858
52918W        W21292   5.345  42.377   3.172
52919W        W21293   7.282   1.823   0.807
52920W        W21294  23.169  37.974   9.529
52921W        W21295   9.295  34.026  12.471
52922W        W21296  10.152  24.115  12.350
52923W        W21297  20.734  44.889   2.841
52924W        W21298  12.685  27.150   0.965
52925W        W21299   4.827  22.008  11.459
52926W        W21300  15.184  18.581  11.119
52927W        W21301   7.219  20.136   0.398
52928W        W21302  16.583  42.971  13.991
52929W        W21303  29.149  14.777  12.430
52930W        W21304   1.269  30.962   2.889
52931W        W21305   7.317  26.183  11.534
52932W        W21306  40.326  41.534   3.178
52933W        W21307  39.318   8.733   9.670
52934W        W21308   4.364  32.886  11.454
52935W        W21309  11.774  43.476   1.756
52936W        W21310  25.168  27.600  11.576
52937W        W21311  28.619  37.362   5.158
52938W        W21312  12.285  44.268   0.272
52939W        W21313  13.725  33.416   3.862
52940W        W21314  35.385  29.918  14.410
52941W        W21315  44.329  38.334  13.425
52942W        W21316  22.181  31.516   4.618
52943W        W21317  15.096  37.354  14.426
52944W        W21318  29.561   7.411  12.517
52945W        W21319  16.137  33.411  13.534
52946W        W21320   7.185  11.266  12.034
52947W        W21321   3.426  20.057  14.930
52948W        W21322  40.805   3.416  10.549
52949W        W21323  21.631  22.610  10.074
52950W        W21324  36.857  15.629  12.988
52951W        W21325   5.367   0.872  11.482
52952W        W21326  16.101  40.906   1.413
52953W        W21327  38.528  13.272   0.726
52954W        W21328  43.515   7.909   1.392
52955W        W21329  23.690   3.292  13.484
52956W        W21330  16.651  11.274   3.807
52957W        W21331  42.384  14.834   1.320
52958W        W21332  11.704  26.563  11.874
52959W        W21333   3.767  29.019  11.610
52960W        W21334  36.576   6.281   0.967
52961W        W21335  24.591  42.987  11.083
52962W        W21336  13.264   2.313   2.710
52963W        W21337  35.396  15.619   0.364
52964W        W21338  24.035  19.662   0.479
52965W        W21339  30.141  27.967  12.420
52966W        W21340  42.445  38.403  11.532
52967W        W21341  36.001  41.794   1.752
52968W        W21342  38.326  44.932   4.205
52969W        W21343  25.674  36.931  14.476
52970W        W21344  23.210  13.826  14.310
52971W        W21345   7.898  21.716  14.766
52972W        W21346  44.914   8.730   4.608
52973W        W21347  10.803  32.587  14.287
52974W        W21348  44.753   2.963  12.573
52975W        W21349  28.182   4.282   3.320
52976W        W21350   1.781   4.213  14.401
52977W        W21351  36.096   6.257   4.637
52978W        W21352  22.997  44.427  11.893
52979W        W21353  38.944  42.904  11.560
52980W        W21354  41.292  35.399   3.151
52981W        W21355  26.098  36.886  11.101
52982W        W21356  33.621   3.736  13.542
52983W        W21357  35.035  23.732  10.476
52984W        W21358   9.318   5.298  10.514
52985W        W21359  32.517  29.556   0.397
52986W        W21360  42.487  33.993  14.886
52987W        W21361  12.653  24.035   2.894
52988W        W21362  37.538  10.233  11.096
52989W        W21363  33.386  38.997   0.853
52990W        W21364  36.369  30.512  13.043
52991W        W21365  22.609   1.871  13.913
52992W        W21366   0.924  17.770  13.988
52993W        W21367   7.227  24.028   1.385
52994W        W21368   2.859  16.796   2.848
52995W        W21369  20.199   4.309   2.202
52996W        W21370  20.556  23.730  14.799
52997W        W21371  11.705  36.936  10.946
52998W        W21372  18.639  43.821   4.824
52999W        W21373   3.337   6.358   4.268
53000W        W21374  37.949   9.702   1.854
53001W        W21375   6.380  36.851   1.827
53002W        W21376  22.661   4.816   0.771
53003W        W21377  20.253   6.893   2.271
53004W        W21378   6.912  20.070   4.312
53005W        W21379  22.671  24.156   2.883
53006W        W21380  22.703  23.723  12.364
53007W        W21381   2.864  40.456  14.878
53008W        W21382   5.250  37.898  14.309
53009W        W21383  14.156  40.521  14.460
53010W        W21384  14.598  13.639   0.814
53011W        W21385  42.936  38.862  14.406
53012W        W21386  17.657   1.931   0.952
53013W        W21387  12.351  28.056  10.585
53014W        W21388  27.584   6.726   2.327
53015W        W21389  10.768  32.072  12.090
53016W        W21390  38.069  38.854   1.784
53017W        W21391  44.819   8.241   4.728
53018W        W21392  24.546  37.873  14.000
53019W        W21393   2.420  31.986   3.264
53020W        W21394  31.134  35.900   4.291
53021W        W21395  17.775  37.556  11.061
53022W        W21396  24.681   2.920  13.310
53023W        W21397  14.664   2.285   4.648
53024W        W21398  20.116  12.327   3.345
53025W        W21399  41.832  18.213   0.256
53026W        W21400  30.938   2.864  13.539
53027W        W21401   2.883  18.112  10.556
53028W        W21402   6.704   5.200   1.274
53029W        W21403  24.723  31.429  13.440
53030W        W21404  38.990   8.733  10.617
53031W        W21405  21.179  42.026   1.394
53032W        W21406  40.805  19.659   4.684
53033W        W21407   9.703   8.816  13.849
53034W        W21408  19.722  14.128   0.898
53035W        W21409  27.499  42.895   2.382
53036W        W21410  31.532  21.033   3.843
53037W        W21411  15.600  15.321   1.368
53038W        W21412  41.316  20.607  11.125
53039W        W21413  27.474  31.453  13.896
53040W        W21414  30.015  21.540  11.490
53041W        W21415  38.077  33.101   1.247
53042W        W21416  36.429  19.160   4.300
53043W        W21417  38.952   1.824   5.096
53044W        W21418  36.922  25.043   2.349
53045W        W21419  16.113  17.155  14.397
53046W        W21420  22.636  37.968  12.579
53047W        W21421   6.753  26.592   1.710
53048W        W21422   9.825  39.454  14.906
53049W        W21423  29.592  38.387   1.327
53050W        W21424  28.187  14.731  14.469
53051W        W21425  24.626  22.242  14.029
53052W        W21426  30.600  15.178   3.648
53053W        W21427  30.454   1.316   0.815
53054W        W21428  14.133  28.610  13.444
53055W        W21429  34.615  33.509   1.235
53056W        W21430  40.877  38.339   1.373
53057W        W21431   3.727  19.189  12.557
53058W        W21432  23.989  37.966  11.611
53059W        W21433  36.428  41.518  12.407
53060W        W21434  14.154  23.133   1.790
53061W        W21435  17.235  33.096  12.835
53062W        W21436  15.205  12.310  10.983
53063W        W21437   6.270  35.997  13.812
53064W        W21438  22.220  13.618   2.749
53065W        W21439  39.840  25.547   0.794
53066W        W21440   9.851   4.893  10.450
53067W        W21441  17.229  31.120  12.834
53068W        W21442  32.925  17.175  12.469
53069W        W21443  16.782   3.358  11.863
53070W        W21444  32.556  35.514   2.866
53071W        W21445  32.574  26.153   0.956
53072W        W21446  39.428  44.864   3.857
53073W        W21447  13.753  23.607  13.391
53074W        W21448   6.832  34.542   4.686
53075W        W21449  44.474  36.468   1.695
53076W        W21450  26.132  41.339   2.187
53077W        W21451  17.579  24.227   1.838
53078W        W21452  39.491  37.541   0.412
53079W        W21453  22.638   9.699   9.980
53080W        W21454  22.665  35.018  11.606
53081W        W21455  22.544  20.200  12.058
53082W        W21456  12.625  35.558   0.259
53083W        W21457  27.493  27.055  12.573
53084W        W21458  35.530  29.474  14.497
53085W        W21459  27.679  36.944  12.084
53086W        W21460   2.739  21.690  12.824
53087W        W21461  34.414  26.476  14.441
53088W        W21462  41.807  44.419  12.423
53089W        W21463  14.138  30.594  12.996
53090W        W21464  10.360  43.935  10.981
53091W        W21465   4.311  30.002   4.822
53092W        W21466  19.056  25.500   3.336
53093W        W21467  10.375  42.962  10.537
53094W        W21468  20.088  25.639  12.997
53095W        W21469   8.852  33.927   0.781
53096W        W21470   0.467  44.355  12.878
53097W        W21471  10.851  44.764  13.438
53098W        W21472  18.748  43.332   3.197
53099W        W21473  19.053  12.637   3.346
53100W        W21474  35.909   6.182  14.474
53101W        W21475  40.858  33.937  11.993
53102W        W21476  11.659   1.335  13.803
53103W        W21477  34.993   0.862   0.775
53104W        W21478  22.572  29.160  12.837
53105W        W21479  30.068  26.119  11.115
53106W        W21480  22.727  31.150   0.325
53107W        W21481  25.174   1.256  12.572
53108W        W21482  10.231  35.401   2.816
53109W        W21483  44.489   4.724   1.724
53110W        W21484   6.260  43.960  13.873
53111W        W21485  41.410  35.480  12.832
53112W        W21486  13.125   8.787  11.387
53113W        W21487  23.059  40.349  10.612
53114W        W21488  19.197  16.164  12.045
53115W        W21489  37.423   3.334   0.248
53116W        W21490  27.593  30.010  11.560
53117W        W21491  39.526  40.501   4.304
53118W        W21492  25.601   1.321   2.802
53119W        W21493  35.413  43.463   4.224
53120W        W21494  25.135   9.715  12.017
53121W        W21495  44.410  41.464  10.117
53122W        W21496  42.816  33.031  14.436
53123W        W21497  44.344   8.302   0.877
53124W        W21498  27.671  36.437  10.447
53125W        W21499  11.631  40.337  12.371
53126W        W21500  37.366  39.911   1.431
53127W        W21501  18.712  39.962  10.462
53128W        W21502  21.595  34.890   0.295
53129W        W21503  15.255  42.409   0.795
53130W        W21504  15.318  16.668  14.829
53131W        W21505   7.748  34.411   0.950
53132W        W21506  35.519  29.113   4.293
53133W        W21507  12.631   2.236  13.905
53134W        W21508   3.248  20.160  12.400
53135W        W21509   8.256  15.649  13.851
53136W        W21510  13.284  21.211   1.749
53137W        W21511  30.137  40.940  12.541
53138W        W21512  17.730  29.530  14.432
53139W        W21513  10.303  19.104  13.421
53140W        W21514  36.519   6.267  13.008
53141W        W21515   0.782  23.556  12.065
53142W        W21516  34.091  26.602  14.277
53143W        W21517  16.573  37.451  12.471
53144W        W21518  20.601   5.319   2.849
53145W        W21519  26.526  40.888  11.397
53146W        W21520  27.064  18.672   1.889
53147W        W21521   5.377   0.760  10.502
53148W        W21522  35.575   0.456  11.393
53149W        W21523  24.182  13.215   5.321
53150W        W21524  37.402  18.136  11.969
53151W        W21525  37.881  22.019   4.811
53152W        W21526  25.111  29.130   0.927
53153W        W21527  35.021  31.471  13.981
53154W        W21528  24.576  34.003   0.443
53155W        W21529  10.203   3.288   1.418
53156W        W21530  32.505  32.961  11.111
53157W        W21531  23.984  20.687  14.030
53158W        W21532   6.327  33.963  11.122
53159W        W21533  35.568   3.303   0.392
53160W        W21534  32.491   9.183   0.368
53161W        W21535   4.339  37.424  13.309
53162W        W21536  25.501  30.561   4.135
53163W        W21537  11.256  36.865   4.194
53164W        W21538  27.027   4.842  11.865
53165W        W21539  11.763  20.088  11.556
53166W        W21540   0.910  36.363   2.837
53167W        W21541  11.804   8.356   0.330
53168W        W21542   7.277   9.846   2.675
53169W        W21543   5.314  12.795  13.500
53170W        W21544  26.123  43.854   2.264
53171W        W21545   8.693  23.623   4.824
53172W        W21546   5.435   1.336  13.831
53173W        W21547  36.396  36.585   0.745
53174W        W21548  20.250  20.714   3.329
53175W        W21549  41.518  42.017  11.012
53176W        W21550   2.798  21.162  11.030
53177W        W21551  35.998   9.317   1.225
53178W        W21552  35.868  42.356  11.101
53179W        W21553  20.073  21.702   1.886
53180W        W21554  44.894  15.209  12.495
53181W        W21555  30.146  39.971  14.788
53182W        W21556  21.627   8.831  13.325
53183W        W21557   6.348   9.660   4.723
53184W        W21558  44.823  28.627   2.749
53185W        W21559  37.004  29.984   3.828
53186W        W21560   5.927   5.359   1.790
53187W        W21561  25.689   3.244   2.207
53188W        W21562  19.191  34.093  14.410
53189W        W21563  17.254  39.856   2.715
53190W        W21564  21.703  15.154   3.820
53191W        W21565  37.347  41.490   3.171
53192W        W21566  40.479  32.105   2.750
53193W        W21567   6.203  32.022   0.273
53194W        W21568  43.005  10.243   0.282
53195W        W21569  23.549  22.100   1.339
53196W        W21570  13.129  18.781  12.993
53197W        W21571  19.684  39.324   0.828
53198W        W21572  23.082  26.021  11.483
53199W        W21573  26.039   4.323  12.405
53200W        W21574  36.358  23.088   4.269
53201W        W21575   2.765   1.443  13.906
53202W        W21576  26.691  27.582  14.879
53203W        W21577  38.972  39.372   1.217
53204W        W21578  35.091  37.478   0.303
53205W        W21579  25.075  10.848  14.325
53206W        W21580  29.488   1.304   4.264
53207W        W21581  17.687  17.270   2.236
53208W        W21582  39.981  13.723   4.744
53209W        W21583  10.301  20.143   4.139
53210W        W21584  12.708  43.947  14.872
53211W        W21585  40.462  43.870  10.568
53212W        W21586  36.533  20.731  11.592
53213W        W21587  31.495  43.916  11.564
53214W        W21588  12.281   4.390   4.611
53215W        W21589   8.759   0.971   3.757
53216W        W21590  17.061   8.660   2.193
53217W        W21591  12.744   2.769  13.423
53218W        W21592  34.886  26.595  10.995
53219W        W21593   3.432  21.599   3.195
53220W        W21594  40.995  43.369  10.558
53221W        W21595  40.384   9.875  14.457
53222W        W21596   5.793  35.572   4.156
53223W        W21597  43.439  32.533   3.309
53224W        W21598  10.703  31.573  11.514
53225W        W21599  38.462  15.604  14.846
53226W        W21600  39.367  29.599  12.907
53227W        W21601  44.806  26.458  12.556
53228W        W21602  18.190  31.961  13.833
53229W        W21603  26.698   4.768   2.668
53230W        W21604  23.168  32.474   2.326
53231W        W21605  40.501  43.995  14.431
53232W        W21606  28.133  19.132  14.345
53233W        W21607  10.696   3.432  11.909
53234W        W21608  10.303  33.623   0.846
53235W        W21609  11.233  21.651   3.151
53236W        W21610  25.155   4.427   2.761
53237W        W21611  31.153  14.799  12.489
53238W        W21612   6.916   8.330  13.324
53239W        W21613  24.166   4.303   2.356
53240W        W21614  10.178  33.100   2.750
53241W        W21615  34.591  13.253   2.718
53242W        W21616  13.155  41.347  14.361
53243W        W21617  28.019  30.094  13.900
53244W        W21618  20.209  10.845   3.644
53245W        W21619  37.485  31.539   3.798
53246W        W21620  13.711  43.967   2.806
53247W        W21621  34.443   6.797  13.018
53248W        W21622  13.183   8.775   3.736
53249W        W21623  34.064   3.392  13.039
53250W        W21624  29.469   2.282  13.410
53251W        W21625   4.240  37.443  10.898
53252W        W21626  11.364  40.523  10.424
53253W        W21627  21.669  38.391   0.950
53254W        W21628  36.860   9.743   9.589
53255W        W21629  11.648  44.410  14.383
53256W        W21630   5.257  37.384  13.314
53257W        W21631  40.408  28.451   0.806
53258W        W21632   7.349  24.059  11.467
53259W        W21633  20.259  10.634  12.346
53260W        W21634  39.949  40.484  11.425
53261W        W21635   4.861  10.265   2.836
53262W        W21636  12.300  30.089   4.794
53263W        W21637  38.952   1.390  13.837
53264W        W21638   4.889  26.015  13.497
53265W        W21639  22.556   1.469   3.866
53266W        W21640  18.611   0.310   0.872
53267W        W21641  19.092  37.977   0.254
53268W        W21642   7.755   9.352  12.377
53269W        W21643  39.512  16.213   0.739
53270W        W21644  21.557  22.016  12.077
53271W        W21645  16.615  42.515   3.700
53272W        W21646   0.897  19.069  11.077
53273W        W21647  13.179   2.786  12.854
53274W        W21648  23.057  34.476   4.193
53275W        W21649   1.353  18.076  12.062
53276W        W21650  24.057  26.102   4.686
53277W        W21651   0.805  30.991  10.506
53278W        W21652  43.964  31.465   2.864
53279W        W21653  43.958  29.607  10.954
53280W        W21654  28.983  10.383   1.769
53281W        W21655  17.712  18.185   0.415
53282W        W21656  31.646  35.954  12.077
53283W        W21657   7.893  37.044   4.736
53284W        W21658  11.643   9.729   1.293
53285W        W21659  38.927  12.330  14.428
53286W        W21660   2.724  30.093   3.259
53287W        W21661   8.300  43.799   2.756
53288W        W21662  42.361  34.905  13.422
53289W        W21663  40.897  34.949  10.549
53290W        W21664  24.031  30.999   5.106
53291W        W21665  10.347   4.713   1.772
53292W        W21666   8.253   5.277   3.230
53293W        W21667  14.773  25.999   2.853
53294W        W21668  42.402  29.993   2.713
53295W        W21669  28.544  15.735  10.112
53296W        W21670  35.922   2.252   1.256
53297W        W21671  36.565  25.686   1.413
53298W        W21672  41.488  31.959   4.269
53299W        W21673  14.335  14.628   4.784
53300W        W21674  33.116  42.014  12.374
53301W        W21675  36.950  31.470   2.775
53302W        W21676  21.162  31.624  10.952
53303W        W21677  35.040  32.021  11.518
53304W        W21678   4.804   6.340   3.711
53305W        W21679  31.037   9.324  10.488
53306W        W21680  20.630  13.608  13.825
53307W        W21681   9.164  27.972  14.805
53308W        W21682  37.542  19.636  11.447
53309W        W21683  16.091   8.883   1.377
53310W        W21684  25.198  29.482  10.528
53311W        W21685   0.332  30.442  10.601
53312W        W21686  43.770  38.953  10.978
53313W        W21687  19.084   2.871  14.847
53314W        W21688  19.096  43.946  14.282
53315W        W21689  29.939  24.514   1.405
53316W        W21690  43.483  35.889   3.306
53317W        W21691  34.979  18.575  14.004
53318W        W21692   3.235   2.880  14.294
53319W        W21693  41.301  13.158   4.125
53320W        W21694  43.290  33.071  12.960
53321W        W21695  35.905  28.534   2.269
53322W        W21696  26.589  38.979  10.530
53323W        W21697  28.088  27.465   1.381
53324W        W21698   6.371  19.554  10.527
53325W        W21699  37.075  38.364   1.807
53326W        W21700  15.689  33.081  10.134
53327W        W21701  38.512  30.091  14.819
53328W        W21702  24.104  18.248   2.699
53329W        W21703   8.266  30.431  14.420
53330W        W21704  32.074  10.227   2.901
53331W        W21705   0.489  24.989   2.697
53332W        W21706  39.332   5.749   2.319
53333W        W21707  30.991   1.928  14.825
53334W        W21708   3.298  30.595   4.259
53335W        W21709  37.009  25.485  10.641
53336W        W21710  37.524  16.108   3.147
53337W        W21711  10.311   7.731  10.467
53338W        W21712   7.254  39.008  12.360
53339W        W21713   6.355  29.627   0.370
53340W        W21714  26.077  39.865  11.121
53341W        W21715  33.392   7.407  10.126
53342W        W21716  22.015  30.610  11.895
53343W        W21717   4.737  33.029   3.264
53344W        W21718  44.426  12.287  13.850
53345W        W21719  23.221  37.966   5.167
53346W        W21720  42.961  15.672  14.835
53347W        W21721  14.652  38.869  11.008
53348W        W21722  40.839  21.715  14.285
53349W        W21723  18.737   3.411  13.943
53350W        W21724  24.988  30.571   0.308
53351W        W21725  37.944  35.871  11.424
53352W        W21726  29.486   4.788  10.971
53353W        W21727  42.001  19.643   4.729
53354W        W21728  41.995  18.702   4.761
53355W        W21729  25.209  11.744  13.049
53356W        W21730  28.127  39.925  11.464
53357W        W21731  39.907  40.877  13.472
53358W        W21732  43.476  22.534  12.952
53359W        W21733  19.650  25.017  14.982
53360W        W21734  44.836   6.413  14.819
53361W        W21735   7.183  29.109   9.939
53362W        W21736   3.346  24.703  13.997
53363W        W21737  37.003  19.761   3.288
53364W        W21738  24.196  42.308  13.495
53365W        W21739  11.756   2.372   3.753
53366W        W21740  34.606  22.036  10.464
53367W        W21741  30.626  10.152  12.087
53368W        W21742  18.281  38.561   1.729
53369W        W21743  19.582  34.972  10.506
53370W        W21744  14.785   6.852  13.839
53371W        W21745  26.060  27.040   1.761
53372W        W21746  23.130  14.301  10.501
53373W        W21747  20.152  39.507   1.307
53374W        W21748  33.530   5.854   4.744
53375W        W21749  31.988  40.388  12.580
53376W        W21750  40.486  21.215  14.921
53377W        W21751  42.816  16.273   2.889
53378W        W21752  21.596  42.295  10.523
53379W        W21753  15.579  20.240  13.055
53380W        W21754   7.693  29.029  11.041
53381W        W21755  21.241  30.107  12.563
53382W        W21756  36.921  38.324  10.568
53383W        W21757  11.760   5.353   1.326
53384W        W21758  43.932  23.077   2.841
53385W        W21759  23.075  13.286   3.755
53386W        W21760  31.949   1.444   1.281
53387W        W21761   4.718   9.678  14.875
53388W        W21762  13.118  34.014  11.032
53389W        W21763  18.050  40.444   0.371
53390W        W21764  23.205  42.899   3.386
53391W        W21765   0.748  31.439   3.219
53392W        W21766   6.769  25.024   0.252
53393W        W21767   5.224  35.908   0.448
53394W        W21768  24.575  15.696   1.702
53395W        W21769  31.975  27.999   3.215
53396W        W21770  13.210  13.136   1.801
53397W        W21771   4.753   9.168  13.926
53398W        W21772  37.383  16.789  13.842
53399W        W21773  31.592  10.297  14.984
53400W        W21774  10.312  16.293  12.051
53401W        W21775  35.576  22.596   4.285
53402W        W21776  29.136  15.808   3.843
53403W        W21777  33.614  13.820  11.082
53404W        W21778  28.028  43.950  14.515
53405W        W21779  25.637   1.305   0.374
53406W        W21780  19.177  16.667  14.516
53407W        W21781  22.059  29.630   9.569
53408W        W21782  36.095  30.572   0.756
53409W        W21783  42.378  13.159   4.838
53410W        W21784   1.748   9.256   0.869
53411W        W21785  17.584  12.857   2.245
53412W        W21786  28.176  15.091   4.271
53413W        W21787   9.152  35.412  10.889
53414W        W21788   2.361  35.505   1.242
53415W        W21789  27.011  44.343  14.992
53416W        W21790   8.315  27.683   0.353
53417W        W21791  31.901  42.843   0.744
53418W        W21792  35.374   6.800  14.812
53419W        W21793   6.229  30.109  12.992
53420W        W21794  40.838  40.828  13.971
53421W        W21795  14.681  10.869  10.080
53422W        W21796  37.538  13.319  14.985
53423W        W21797  42.778  25.128  12.465
53424W        W21798  22.010  20.708  10.901
53425W        W21799  38.930  22.224  11.985
53426W        W21800  44.968   8.325  12.037
53427W        W21801  38.404  31.534   0.256
53428W        W21802  19.728  34.000   0.965
53429W        W21803  26.674  29.104   3.706
53430W        W21804  15.257  18.744  14.933
53431W        W21805  34.437   6.374  13.375
53432W        W21806   7.359   3.377  10.628
53433W        W21807   6.694   2.364   9.470
53434W        W21808  41.439  26.002   3.648
53435W        W21809  27.493  38.421  13.000
53436W        W21810  24.155  33.909  14.314
53437W        W21811  44.885   1.915  14.461
53438W        W21812  35.855   1.859   3.780
53439W        W21813   2.740  42.964  12.519
53440W        W21814   1.333   4.738   0.921
53441W        W21815   8.770  32.118  11.988
53442W        W21816  44.395  31.575  11.570
53443W        W21817  30.123   0.836  11.600
53444W        W21818  25.046  32.607   1.887
53445W        W21819  29.518  40.932   3.250
53446W        W21820  23.101  43.975  11.387
53447W        W21821  14.167  18.119  13.909
53448W        W21822  38.328  11.661   0.883
53449W        W21823  25.215  21.531   3.661
53450W        W21824  11.273  31.572   3.727
53451W        W21825  11.215  43.363  12.978
53452W        W21826  15.295   1.293   3.155
53453W        W21827  33.539  36.363   2.312
53454W        W21828  25.618   8.853  12.387
53455W        W21829   9.353   3.400   9.675
53456W        W21830   0.761  38.332   4.262
53457W        W21831  38.945   0.336  11.886
53458W        W21832  12.209  38.571   1.398
53459W        W21833  31.403  20.722   4.206
53460W        W21834  11.817  28.064   1.385
53461W        W21835  21.750  29.561  14.338
53462W        W21836  29.532  39.932  12.072
53463W        W21837  33.538  15.642   0.817
53464W        W21838  30.962  36.891   4.286
53465W        W21839  35.530  19.140  14.903
53466W        W21840  17.302  43.840  12.068
53467W        W21841  34.970  42.923   3.806
53468W        W21842  36.888  22.571  13.521
53469W        W21843  15.581   9.862  11.390
53470W        W21844  37.874  20.530  12.439
53471W        W21845   8.877  30.986  12.930
53472W        W21846  13.144  13.308  10.943
53473W        W21847  13.136  24.715   3.174
53474W        W21848  25.584  43.418  13.430
53475W        W21849  14.306  22.511   3.307
53476W        W21850  39.926  17.279  11.411
53477W        W21851  43.899   2.947  12.076
53478W        W21852  26.186  36.457   2.188
53479W        W21853   9.868  41.997   0.909
53480W        W21854  21.132   7.764  11.520
53481W        W21855   4.274  29.931  11.529
53482W        W21856  39.489  38.393  14.945
53483W        W21857   2.258  35.454  12.497
53484W        W21858  14.800  21.558   0.751
53485W        W21859  41.376  35.891  10.406
53486W        W21860   8.836  40.429   1.345
53487W        W21861   7.177   3.748   2.393
53488W        W21862  26.062  38.032  14.997
53489W        W21863  21.532  42.505   1.752
53490W        W21864  26.522  31.072  12.026
53491W        W21865  30.925  41.369  12.977
53492W        W21866  37.860  29.616  13.321
53493W        W21867   9.825  33.544   1.736
53494W        W21868  33.939  44.330   4.217
53495W        W21869   1.796  43.973  12.868
53496W        W21870   0.424  19.193  13.518
53497W        W21871  12.152   9.341  12.912
53498W        W21872   1.973  44.347   0.780
53499W        W21873   2.888  37.929   0.391
53500W        W21874   7.278  30.487   3.173
53501W        W21875  43.828  21.691  14.500
53502W        W21876  12.176  44.316   0.751
53503W        W21877  27.163  27.139  10.541
53504W        W21878  28.947  29.658   3.864
53505W        W21879  27.557  30.594  10.457
53506W        W21880  33.393  16.094   4.275
53507W        W21881  26.009  35.930  10.581
53508W        W21882  27.537  27.551   4.266
53509W        W21883  23.008  19.738   1.887
53510W        W21884  26.197  19.258   3.281
53511W        W21885  24.611  31.942  13.308
53512W        W21886  44.786  19.162   2.374
53513W        W21887  43.490  22.040   3.152
53514W        W21888  35.442  35.484  12.541
53515W        W21889  26.165  28.126   0.301
53516W        W21890  23.150  18.677  13.383
53517W        W21891   7.668  26.690  11.124
53518W        W21892   7.326  43.346   0.904
53519W        W21893   1.860  36.960   4.725
53520W        W21894  26.161  16.587  10.520
53521W        W21895   6.390  30.638  12.019
53522W        W21896   3.918  44.327   0.783
53523W        W21897  38.950  27.627  11.602
53524W        W21898  30.513  22.160  13.382
53525W        W21899  10.635  14.773  12.849
53526W        W21900   5.768  27.571   4.795
53527W        W21901  16.616   1.443   3.356
53528W        W21902  14.722  26.522   3.653
53529W        W21903   3.770   9.198   4.191
53530W        W21904  31.092  38.493   3.769
53531W        W21905  10.213  29.573   2.902
53532W        W21906  12.832   3.864  14.840
53533W        W21907  26.992  27.050  11.389
53534W        W21908   1.440  41.887   2.251
53535W        W21909  16.637  38.007  12.918
53536W        W21910  29.065  41.899   3.691
53537W        W21911  42.796  44.927  11.968
53538W        W21912  24.046  15.756   1.333
53539W        W21913  24.705  43.512   3.677
53540W        W21914  12.721  32.518   2.832
53541W        W21915  19.124  14.196   0.770
53542W        W21916   8.352  12.633   0.469
53543W        W21917  12.301  33.392   1.822
53544W        W21918  27.976   7.405   1.356
53545W        W21919   0.818  18.111  13.821
53546W        W21920  17.071  10.146  13.351
53547W        W21921   4.379  17.764   1.859
53548W        W21922  26.476   6.260  12.001
53549W        W21923  19.746  24.537   4.783
53550W        W21924  34.093  28.505   2.206
53551W        W21925  16.304  13.281  12.382
53552W        W21926  38.055   8.737  14.298
53553W        W21927  43.347  41.456   3.333
53554W        W21928   3.272  31.120  13.309
53555W        W21929  33.611  27.986  14.446
53556W        W21930   6.855  40.853   3.383
53557W        W21931   0.824  17.732   2.859
53558W        W21932  36.998  35.985   4.692
53559W        W21933   5.770  21.738  12.413
53560W        W21934  25.161   3.317   4.670
53561W        W21935  41.354  27.008  12.851
53562W        W21936   2.860  14.682   4.823
53563W        W21937   5.764   3.443   3.222
53564W        W21938  30.069  24.039   2.188
53565W        W21939  28.111  35.100   5.171
53566W        W21940  12.742  41.976   1.239
53567W        W21941  30.543   4.935  14.993
53568W        W21942  34.053  30.150  14.806
53569W        W21943  24.661  18.253   4.157
53570W        W21944  14.271  21.017  12.423
53571W        W21945  37.506  19.720   1.795
53572W        W21946  34.086  25.477   0.905
53573W        W21947  15.279  23.073   3.751
53574W        W21948  22.673  11.322  12.502
53575W        W21949  39.982  19.665   0.270
53576W        W21950   9.698   8.826   3.780
53577W        W21951  15.796  15.800   1.423
53578W        W21952  23.528  18.270  13.446
53579W        W21953  37.363   5.306  10.600
53580W        W21954  12.175  22.099  11.541
53581W        W21955  29.577  32.050   2.290
53582W        W21956  22.043  28.102   4.699
53583W        W21957   1.777  38.902   2.842
53584W        W21958  16.154  44.914  10.928
53585W        W21959  30.988  34.006   1.803
53586W        W21960  24.575  11.823   3.210
53587W        W21961  29.427  17.209   0.314
53588W        W21962  20.230  20.581  14.403
53589W        W21963   5.779  16.639  13.901
53590W        W21964  14.597  27.022   2.781
53591W        W21965  14.215  10.774  10.588
53592W        W21966  30.917  13.338   3.239
53593W        W21967   4.419  18.773   4.764
53594W        W21968  38.821  38.347   9.964
53595W        W21969   8.665   4.245  13.063
53596W        W21970  35.520   7.802   3.700
53597W        W21971  12.856  43.506   3.810
53598W        W21972  29.100  41.832   4.745
53599W        W21973  22.218  32.102   9.657
53600W        W21974  15.234   7.695  12.421
53601W        W21975  21.203  22.508   1.733
53602W        W21976  16.716   3.816  10.927
53603W        W21977  23.232  12.192  10.992
53604W        W21978  25.074  22.050   4.156
53605W        W21979  13.610  44.350   1.309
53606W        W21980  35.048   2.834   3.186
53607W        W21981   0.894  15.647   3.245
53608W        W21982  42.999  32.139   3.676
53609W        W21983  43.920  31.910   3.684
53610W        W21984   4.836  10.213  14.831
53611W        W21985  31.460   4.846   2.316
53612W        W21986  14.186  19.255   0.728
53613W        W21987   5.247  42.315   1.227
53614W        W21988   2.834  23.138   0.301
53615W        W21989   8.832  10.270   0.315
53616W        W21990   1.922  38.880  11.919
53617W        W21991  28.150   4.748  13.820
53618W        W21992  43.912  43.455   2.719
53619W        W21993   7.177  21.234   1.764
53620W        W21994   3.350  13.638  10.988
53621W        W21995  33.551  33.452   2.825
53622W        W21996  41.496   8.794  10.628
53623W        W21997  18.059  34.418   4.680
53624W        W21998  26.631  25.217   3.185
53625W        W21999  31.431  32.949  14.419
53626W        W22000   7.320   4.285   1.301
53627W        W22001  37.989  21.572   0.334
53628W        W22002  38.537   6.827   3.816
53629W        W22003  11.766   9.704   0.418
53630W        W22004  26.492  21.248  10.002
53631W        W22005  21.585  10.196  12.044
53632W        W22006  33.980  18.737   3.190
53633W        W22007  19.536  32.896   4.664
53634W        W22008  16.294  35.979   1.320
53635W        W22009  28.530  43.932  14.962
53636W        W22010  33.123  44.392   4.120
53637W        W22011  29.649   9.808   2.725
53638W        W22012  29.127  35.473   4.622
53639W        W22013  29.601  19.715  10.582
53640W        W22014  25.024   9.804   1.450
53641W        W22015  41.966  39.411   0.395
53642W        W22016   3.798  40.475   0.813
53643W        W22017   0.972  34.013   4.166
53644W        W22018   4.346  14.252   2.318
53645W        W22019  10.761  30.600  14.891
53646W        W22020   4.316  44.957   2.365
53647W        W22021  37.390  44.940   3.712
53648W        W22022  12.696  16.621   1.437
53649W        W22023  15.167  32.019   2.681
53650W        W22024  30.063  27.681  12.377
53651W        W22025  36.025   6.281  10.541
53652W        W22026  10.818  37.568  11.112
53653W        W22027  43.008  23.118   0.253
53654W        W22028  13.738  23.722   1.288
53655W        W22029   3.381  42.425  13.511
53656W        W22030  21.582   8.776  11.595
53657W        W22031  38.511  43.858   1.815
53658W        W22032   8.334  15.242   3.380
53659W        W22033  19.718  13.239  13.532
53660W        W22034  39.474  30.631   4.797
53661W        W22035   2.939   5.879   2.416
53662W        W22036  13.271  15.732  12.531
53663W        W22037  36.378  29.119   0.732
53664W        W22038  32.587   4.394  14.031
53665W        W22039  35.093  44.009   3.685
53666W        W22040  33.042   6.789   3.211
53667W        W22041  43.485  39.907   3.793
53668W        W22042  42.396  29.012   4.182
53669W        W22043   4.725  44.273   4.725
53670W        W22044   5.215  35.599   1.726
53671W        W22045  10.645  36.016   2.229
53672W        W22046  43.489  36.897  13.890
53673W        W22047  40.855  25.705   1.760
53674W        W22048   4.217  21.133  14.391
53675W        W22049  40.389  17.656  12.901
53676W        W22050   8.367   4.246   3.346
53677W        W22051  33.900  42.839  14.382
53678W        W22052  12.352   7.731   3.382
53679W        W22053  22.635  13.109  11.494
53680W        W22054  28.068  19.728   4.146
53681W        W22055  16.118  21.158  14.351
53682W        W22056  16.679  44.428  14.956
53683W        W22057   9.781  43.884   3.327
53684W        W22058   4.808  20.225   3.180
53685W        W22059   4.701   6.240  13.848
53686W        W22060   9.284  39.542   0.251
53687W        W22061  35.524   7.847  13.963
53688W        W22062  24.605  14.147   3.747
53689W        W22063  20.120  18.096   0.330
53690W        W22064  20.188  44.943  13.015
53691W        W22065  13.260  13.813   0.454
53692W        W22066  21.078   9.886   4.710
53693W        W22067  12.161  24.003   2.349
53694W        W22068  35.013  24.059  14.443
53695W        W22069  20.689  42.521  11.509
53696W        W22070  17.267   7.772  10.490
53697W        W22071  37.398   2.773   4.630
53698W        W22072   2.433   4.226   1.305
53699W        W22073  35.913  14.268  12.579
53700W        W22074  32.114  27.022  13.016
53701W        W22075  42.801   3.837   3.252
53702W        W22076  26.658  40.959   0.844
53703W        W22077   4.831  40.853   2.317
53704W        W22078  15.207   9.683  14.988
53705W        W22079  21.255   6.334   3.331
53706W        W22080  14.644  34.968   2.405
53707W        W22081  23.634   2.338  14.279
53708W        W22082   2.838  39.448  14.347
53709W        W22083   6.707  25.043   2.416
53710W        W22084  30.953   1.465   4.703
53711W        W22085  34.960   4.358  14.834
53712W        W22086  10.753  24.979   2.875
53713W        W22087  14.814  22.718  10.028
53714W        W22088  41.937  41.940   3.837
53715W        W22089  34.884  28.477   1.245
53716W        W22090  33.033  40.548   1.230
53717W        W22091  35.090   8.202   3.635
53718W        W22092  33.447   2.316   2.715
53719W        W22093  36.580  40.531   0.840
53720W        W22094  40.839   2.226   0.345
53721W        W22095  37.403  25.098   2.709
53722W        W22096   2.445   3.308   0.917
53723W        W22097  11.809  22.018   2.761
53724W        W22098  14.671  17.237  11.511
53725W        W22099   2.816  34.603   4.117
53726W        W22100   2.850  23.562  13.832
53727W        W22101  16.195  33.058  10.925
53728W        W22102  30.602  42.892  11.042
53729W        W22103  42.023  42.997   3.339
53730W        W22104   9.333   7.334  10.444
53731W        W22105  16.092  32.019   1.778
53732W        W22106   7.414  21.706  12.042
53733W        W22107  21.576   7.698  11.424
53734W        W22108  11.765  34.386   4.814
53735W        W22109  36.972  44.463   2.271
53736W        W22110  10.787  19.227   1.358
53737W        W22111  40.404  26.087  11.608
53738W        W22112  22.023  39.872   5.137
53739W        W22113  37.454  20.028   2.834
53740W        W22114  17.109  39.848  10.988
53741W        W22115  23.050  12.244   4.754
53742W        W22116  22.093  22.515  11.084
53743W        W22117  35.916  24.101  13.472
53744W        W22118  21.195  13.209  10.432
53745W        W22119  38.405  24.575  11.105
53746W        W22120   4.348  15.188  12.053
53747W        W22121  17.292  22.132  10.925
53748W        W22122  22.533  25.997   2.825
53749W        W22123  12.353  26.474   4.797
53750W        W22124  41.333  13.649  13.808
53751W        W22125  18.165  29.094   3.232
53752W        W22126  30.467  12.203  12.888
53753W        W22127  39.333   6.902   3.714
53754W        W22128  17.306  13.144   4.748
53755W        W22129   9.355  31.982   4.605
53756W        W22130  43.392  37.054   3.630
53757W        W22131   0.896   1.778   2.730
53758W        W22132  34.368  39.008  13.819
53759W        W22133  33.948  20.097  11.877
53760W        W22134  20.110  38.035   0.384
53761W        W22135  31.413  20.134  14.975
53762W        W22136  17.678   6.695   3.681
53763W        W22137  22.677  29.650  11.073
53764W        W22138  23.723  21.061  11.974
53765W        W22139  33.591  43.791  11.059
53766W        W22140   0.929  32.140  13.949
53767W        W22141  27.056  36.498  13.384
53768W        W22142  12.719  41.524  11.068
53769W        W22143  24.633  35.520  11.550
53770W        W22144   2.812   4.885  10.534
53771W        W22145  32.065   0.385   0.272
53772W        W22146  12.293  34.569  11.570
53773W        W22147  19.633  23.526  11.039
53774W        W22148  14.687  32.490  13.906
53775W        W22149  21.058  39.515  12.349
53776W        W22150   4.732  32.628  12.525
53777W        W22151  26.551  30.491  10.936
53778W        W22152  25.529   7.225  13.530
53779W        W22153  31.604  25.988  10.947
53780W        W22154  11.358   2.808  11.931
53781W        W22155  30.016  10.866  13.024
53782W        W22156  40.315  23.178   3.288
53783W        W22157  29.084  37.041   4.720
53784W        W22158  18.219  28.034   4.259
53785W        W22159   0.418  25.180  10.498
53786W        W22160  37.978   3.880  13.458
53787W        W22161  39.937  12.717   4.333
53788W        W22162  31.614   8.654  11.032
53789W        W22163  42.364  14.308  14.356
53790W        W22164  19.070   1.926   1.915
53791W        W22165  41.801   9.662  12.534
53792W        W22166  17.719  41.403  13.974
53793W        W22167   6.260  28.498  10.989
53794W        W22168  12.640  30.487  11.415
53795W        W22169  27.526   2.236   4.755
53796W        W22170  28.039   6.705  11.581
53797W        W22171  30.970  31.079  11.498
53798W        W22172  28.933  36.088   1.245
53799W        W22173  12.687  18.285  14.339
53800W        W22174  30.518  37.466   1.395
53801W        W22175  14.674  28.174   1.278
53802W        W22176  26.094  25.505  10.952
53803W        W22177  30.424  40.016  13.026
53804W        W22178  31.043  19.246   4.114
53805W        W22179  39.375  20.566   1.381
53806W        W22180  36.590  31.953  10.556
53807W        W22181  42.983  18.630   1.313
53808W        W22182  10.726  12.832   3.718
53809W        W22183  43.405   4.319  12.920
53810W        W22184  30.609  26.616  13.371
53811W        W22185  16.808  38.520  13.472
53812W        W22186  27.158  18.059  13.361
53813W        W22187  15.107  43.778  12.034
53814W        W22188  17.727  33.055   3.386
53815W        W22189   0.294   9.260  10.453
53816W        W22190  19.232  18.781   3.373
53817W        W22191  30.425  43.907  13.826
53818W        W22192   6.891  32.906  12.565
53819W        W22193  15.089  36.037   2.744
53820W        W22194  34.429   0.369   3.326
53821W        W22195  28.998  16.215  12.385
53822W        W22196   6.386   1.824   2.830
53823W        W22197  21.246  41.933   3.281
53824W        W22198  36.951   4.841   4.737
53825W        W22199  12.331  28.594  12.953
53826W        W22200   0.910  30.567   1.804
53827W        W22201   3.283  17.606   4.305
53828W        W22202  32.962  29.528   4.220
53829W        W22203   2.728  12.337  11.392
53830W        W22204  32.608  11.225  14.806
53831W        W22205  37.571  34.564  12.894
53832W        W22206  41.034  11.781   3.222
53833W        W22207  31.145  37.513   2.776
53834W        W22208   9.262  44.265  10.109
53835W        W22209  26.557  35.109  14.009
53836W        W22210  37.340   9.173  14.758
53837W        W22211  42.440  12.315  12.385
53838W        W22212  20.186  13.655  13.002
53839W        W22213  34.553  24.055  13.320
53840W        W22214  40.033  23.165   3.245
53841W        W22215  12.209  16.103  11.562
53842W        W22216   1.807  30.515   1.325
53843W        W22217  41.994  20.641  12.026
53844W        W22218  29.161  12.301   1.922
53845W        W22219  25.508  28.138   0.777
53846W        W22220  37.005  23.735  11.541
53847W        W22221  30.604  32.594   2.832
53848W        W22222  29.475  38.830  10.114
53849W        W22223  35.508   3.301   2.872
53850W        W22224   8.766  44.898   4.736
53851W        W22225   0.893   6.332  12.876
53852W        W22226  22.713   7.272   3.304
53853W        W22227  43.931   9.734   2.315
53854W        W22228   7.374   7.407   1.934
53855W        W22229  16.756  26.997   3.781
53856W        W22230  33.985  21.146  14.827
53857W        W22231   4.217   0.753  11.389
53858W        W22232   1.353  21.138  13.514
53859W        W22233   1.242   6.303   1.225
53860W        W22234  22.672  28.061  12.955
53861W        W22235   1.415   6.804  11.899
53862W        W22236  11.350  28.133  14.396
53863W        W22237  44.347   6.372  13.350
53864W        W22238  11.797  44.974  13.048
53865W        W22239  39.504  15.215   4.789
53866W        W22240  12.813  21.737   3.295
53867W        W22241   8.321  38.474   0.437
53868W        W22242  18.569   7.666   2.766
53869W        W22243  39.405  43.796   0.867
53870W        W22244  25.595  39.538   1.306
53871W        W22245  13.834  24.006   1.857
53872W        W22246  31.621   3.342  11.449
53873W        W22247  41.902  20.761   2.766
53874W        W22248  32.964  29.991   4.260
53875W        W22249  32.954  25.032  11.010
53876W        W22250  38.986  17.684   1.696
53877W        W22251  32.507   2.458  12.863
53878W        W22252   1.934   3.349  10.556
53879W        W22253  30.065  21.117  14.479
53880W        W22254  44.440  10.148  12.014
53881W        W22255   3.940  14.797   1.352
53882W        W22256  32.427   6.741  12.966
53883W        W22257  42.921  25.549   4.269
53884W        W22258  14.747  37.477   3.325
53885W        W22259  41.424  32.635   0.427
53886W        W22260  21.028  15.086  10.462
53887W        W22261  24.597   0.357  11.515
53888W        W22262  38.034   6.702   5.205
53889W        W22263  16.597  11.726  13.435
53890W        W22264   0.402  33.486   2.903
53891W        W22265  26.541  32.559  13.343
53892W        W22266  35.937  31.054  10.910
53893W        W22267  37.451  43.415   1.800
53894W        W22268  36.930  11.724  14.841
53895W        W22269  31.087  40.362   0.404
53896W        W22270  11.286   9.178   0.301
53897W        W22271  33.895   7.272  11.595
53898W        W22272  37.374   1.765   1.928
53899W        W22273  23.041  27.618   1.343
53900W        W22274  12.689  42.999   4.212
53901W        W22275  17.198  21.108  11.869
53902W        W22276  20.182  37.383  14.276
53903W        W22277  21.663   3.730   4.765
53904W        W22278  12.698   8.182   1.416
53905W        W22279  12.362  13.193  10.606
53906W        W22280  12.123  23.986  14.905
53907W        W22281   4.301   6.757  14.362
53908W        W22282  21.672  44.881   0.862
53909W        W22283  41.392  31.896  10.934
53910W        W22284  43.511  20.139  14.965
53911W        W22285  12.763  44.911  14.776
53912W        W22286   2.764  12.282  12.926
53913W        W22287   7.174  35.082   3.280
53914W        W22288   7.355  20.175  13.546
53915W        W22289   2.248  17.791  13.032
53916W        W22290  14.254  14.186  14.311
53917W        W22291   9.869  44.410  10.482
53918W        W22292  13.790  16.177   1.289
53919W        W22293  29.600  28.068   0.942
53920W        W22294  23.154  23.017   4.287
53921W        W22295   2.824  18.736   1.270
53922W        W22296  28.047  29.597  10.563
53923W        W22297   5.796  25.043  11.037
53924W        W22298  25.474   9.807  14.407
53925W        W22299  20.034  34.414  11.020
53926W        W22300   0.351   6.260   0.360
53927W        W22301   2.791  20.652  10.581
53928W        W22302  13.839   1.373  14.783
53929W        W22303  32.928  23.693  13.467
53930W        W22304  23.590  19.726  13.928
53931W        W22305  13.277  14.783   3.758
53932W        W22306  29.942  24.518  12.388
53933W        W22307  21.558  42.781   1.280
53934W        W22308   9.725  27.469  13.843
53935W        W22309  11.797  13.787  14.031
53936W        W22310  20.220  21.727  14.436
53937W        W22311  43.440   3.263   4.113
53938W        W22312  35.581  32.526   0.765
53939W        W22313  38.922   5.851  11.968
53940W        W22314  10.363   1.241  10.574
53941W        W22315  28.106  35.581  10.999
53942W        W22316   5.741  39.843   3.364
53943W        W22317  25.676  19.696   3.326
53944W        W22318   7.191   3.387  11.116
53945W        W22319  24.680   3.884   1.857
53946W        W22320  24.537   1.856  11.561
53947W        W22321  16.159  17.683   4.805
53948W        W22322  28.070  42.418   0.260
53949W        W22323  19.740  22.727   4.311
53950W        W22324  10.810  30.602   1.728
53951W        W22325  31.428   9.294   1.868
53952W        W22326  23.590  40.998  13.516
53953W        W22327   9.803  33.033   0.253
53954W        W22328  18.736  13.113   0.840
53955W        W22329  22.721  36.471  14.310
53956W        W22330   4.330   1.836   2.862
53957W        W22331  33.554  33.070   2.712
53958W        W22332  34.546  15.286   3.195
53959W        W22333  26.686  19.259  10.640
53960W        W22334  25.484   5.794   0.296
53961W        W22335   3.790  31.418  11.021
53962W        W22336  19.697  28.438  12.401
53963W        W22337  38.920  24.974  13.059
53964W        W22338  16.177  18.268   1.722
53965W        W22339  16.085   2.922  12.991
53966W        W22340  20.719  26.526  13.338
53967W        W22341   8.884   5.349   9.547
53968W        W22342  20.149  28.020  14.769
53969W        W22343  43.859  32.043  12.867
53970W        W22344  28.130   8.216  13.385
53971W        W22345  34.894  29.541  11.561
53972W        W22346  15.816  32.543  12.963
53973W        W22347  30.135  28.522  14.818
53974W        W22348  26.678  22.636  13.380
53975W        W22349   2.454  18.620   3.728
53976W        W22350  37.508   0.874   4.715
53977W        W22351  21.550  33.471  13.955
53978W        W22352  22.189  29.062  14.814
53979W        W22353   3.342  29.603   0.396
53980W        W22354   6.196   4.346   9.946
53981W        W22355   3.945  43.495   0.748
53982W        W22356  32.579   2.962  14.461
53983W        W22357  18.706  35.467   1.718
53984W        W22358   0.393  44.367   0.770
53985W        W22359  30.055  39.864   3.319
53986W        W22360  38.881  32.592   3.857
53987W        W22361  25.058  23.707  11.873
53988W        W22362  43.995  36.522   0.855
53989W        W22363  41.369  15.313   2.361
53990W        W22364   9.680  32.436   3.197
53991W        W22365   9.193   3.412  12.829
53992W        W22366  12.141  10.671  14.401
53993W        W22367   8.891  13.259   0.806
53994W        W22368  16.737  39.371   3.718
53995W        W22369  32.907  24.228  14.513
53996W        W22370  28.603   8.322   1.806
53997W        W22371   4.714  19.108   4.290
53998W        W22372   7.316  42.960  11.502
53999W        W22373  15.803  40.909   3.243
54000W        W22374   4.893  22.010   4.661
54001W        W22375  12.127   6.685  10.612
54002W        W22376  34.374   6.339  13.855
54003W        W22377  42.312  23.153   1.928
54004W        W22378  25.471   9.323   0.959
54005W        W22379  25.564  17.722   0.283
54006W        W22380  43.389  35.382  14.843
54007W        W22381  29.091   6.693  14.320
54008W        W22382  15.283  26.172  13.906
54009W        W22383   7.178  10.851   1.921
54010W        W22384  43.297   3.404  13.878
54011W        W22385  24.605  23.224   1.288
54012W        W22386  24.118  13.692   3.643
54013W        W22387  30.150  27.100   0.260
54014W        W22388  29.484  17.275  14.425
54015W        W22389  26.976  23.720   4.647
54016W        W22390  36.937  28.595   2.902
54017W        W22391  18.266  15.232  14.769
54018W        W22392  38.055  36.576   2.684
54019W        W22393  44.852   8.688  13.814
54020W        W22394  31.912  35.510  12.077
54021W        W22395  23.175   3.850  11.941
54022W        W22396  21.542  23.030   1.764
54023W        W22397  24.191  27.518  11.940
54024W        W22398  16.670  17.575   1.880
54025W        W22399  34.528   6.419  10.435
54026W        W22400  39.883   7.196  12.413
54027W        W22401  41.942  13.708   0.437
54028W        W22402  37.906  13.805   1.273
54029W        W22403   9.853  17.220  13.368
54030W        W22404  10.249  31.127  13.878
54031W        W22405   0.844   3.873  13.834
54032W        W22406   0.459   7.876   1.930
54033W        W22407   8.739  44.756   0.745
54034W        W22408  27.102  39.451   3.712
54035W        W22409  40.497  24.724  12.873
54036W        W22410  34.867  38.538  10.887
54037W        W22411   9.387   7.207  11.478
54038W        W22412  23.085  32.572   4.799
54039W        W22413  34.528  26.095   2.338
54040W        W22414  25.175  38.389   1.933
54041W        W22415  42.023  16.678  12.077
54042W        W22416  38.927   3.247   3.666
54043W        W22417  25.110   5.816   4.769
54044W        W22418  16.226  37.079  11.482
54045W        W22419   2.271  24.096  14.997
54046W        W22420  44.840   5.406   4.134
54047W        W22421  16.221  24.682  14.867
54048W        W22422   5.369   1.452  14.429
54049W        W22423  28.032  13.607  10.614
54050W        W22424  40.028  34.051  11.458
54051W        W22425  10.310  36.972  12.939
54052W        W22426  11.231  25.202  10.626
54053W        W22427  33.900  42.828   0.823
54054W        W22428   6.718  42.028  10.994
54055W        W22429  32.595  37.035  11.420
54056W        W22430  14.646   0.442  11.053
54057W        W22431  15.722  28.476   0.261
54058W        W22432  13.310   2.819   3.307
54059W        W22433  37.948   2.737  12.852
54060W        W22434  39.044  22.511  10.959
54061W        W22435  34.561  40.432   3.702
54062W        W22436  21.567  31.076   3.223
54063W        W22437  12.127  35.429  13.480
54064W        W22438  21.236   0.361  11.952
54065W        W22439  32.448   8.710   3.374
54066W        W22440  44.345   4.760  14.463
54067W        W22441  37.009  13.693   1.448
54068W        W22442  39.952  42.972   1.754
54069W        W22443  21.604   0.494   3.292
54070W        W22444   0.805   6.424  14.331
54071W        W22445  16.265  17.798  12.073
54072W        W22446  40.904   2.738   4.763
54073W        W22447  21.231  19.711  13.964
54074W        W22448  19.151  14.717  10.957
54075W        W22449  13.798   2.841   1.776
54076W        W22450  16.317  37.969  11.461
54077W        W22451   5.873  29.571  12.008
54078W        W22452  28.116   1.421  11.910
54079W        W22453  42.471  39.537   0.875
54080W        W22454  12.357  27.129  10.923
54081W        W22455   2.364   1.764   0.384
54082W        W22456  18.172  19.738   4.658
54083W        W22457  19.119   8.180  14.933
54084W        W22458  37.445  24.517   0.428
54085W        W22459   4.348  38.511  13.022
54086W        W22460  30.436  20.174   4.233
54087W        W22461   9.832   8.710  14.779
54088W        W22462  31.466  10.674   2.854
54089W        W22463   3.373   6.347  12.840
54090W        W22464   0.312  26.517   9.976
54091W        W22465   4.397   1.882  13.433
54092W        W22466   1.338  31.920   4.783
54093W        W22467  14.684  13.130   1.307
54094W        W22468  39.919  44.862  12.345
54095W        W22469  37.014  40.821   1.817
54096W        W22470  30.953  14.280  11.585
54097W        W22471  23.073  19.586   2.810
54098W        W22472  36.992  44.398   3.260
54099W        W22473   8.191   0.855  13.034
54100W        W22474  40.311  35.935   4.715
54101W        W22475   5.246  16.770   1.421
54102W        W22476  11.293   2.456   0.309
54103W        W22477   8.162  44.976   1.380
54104W        W22478  41.997   1.842  13.993
54105W        W22479  12.267  27.677  14.461
54106W        W22480   1.393  31.897  10.530
54107W        W22481  33.065  30.486  10.505
54108W        W22482  22.146  28.499  11.580
54109W        W22483  35.918  19.656   0.474
54110W        W22484  37.839  36.540  13.547
54111W        W22485   1.370  40.440   1.273
54112W        W22486   3.353  42.506  12.543
54113W        W22487  43.916   6.742   3.814
54114W        W22488  19.686  41.354   4.628
54115W        W22489   2.456   6.695   3.756
54116W        W22490  36.848  31.969   4.717
54117W        W22491  35.535   4.866  11.064
54118W        W22492   5.308   7.374  12.966
54119W        W22493   4.851  20.722   3.731
54120W        W22494  24.671  25.133  12.840
54121W        W22495   8.753  32.472  12.933
54122W        W22496  39.817  41.013  13.813
54123W        W22497   3.310  29.605  10.474
54124W        W22498  30.637  30.156  10.928
54125W        W22499  18.675   7.680   3.801
54126W        W22500  18.618  44.883   4.807
54127W        W22501   5.306  41.932   3.328
54128W        W22502  37.395  33.440   2.771
54129W        W22503   2.415  43.509   1.728
54130W        W22504  41.981  13.721   3.190
54131W        W22505   1.262  32.917   1.889
54132W        W22506  23.565  31.980   9.571
54133W        W22507  24.516  27.560  14.424
54134W        W22508  38.384  15.177  12.066
54135W        W22509  10.319  18.118   4.801
54136W        W22510  16.090  32.504  12.969
54137W        W22511  32.445   1.907  12.915
54138W        W22512  34.570  27.558   4.265
54139W        W22513  28.054  36.513  14.479
54140W        W22514  40.459   3.438   3.784
54141W        W22515  36.536   3.343   0.876
54142W        W22516  43.805  12.241   0.898
54143W        W22517  21.117  20.238  14.500
54144W        W22518  22.147  30.541   4.282
54145W        W22519  24.650  44.363  11.380
54146W        W22520  42.962  21.257  10.988
54147W        W22521  13.829  11.745  11.474
54148W        W22522  27.568  36.458  12.961
54149W        W22523   1.973  36.554  13.014
54150W        W22524  33.912  15.748   0.876
54151W        W22525  32.052  27.568   1.412
54152W        W22526  37.544  43.984   1.846
54153W        W22527  22.243  14.165  11.006
54154W        W22528  27.952  33.539   1.763
54155W        W22529   0.800  13.646  10.887
54156W        W22530  33.459  24.170  14.433
54157W        W22531  22.603  36.040   3.826
54158W        W22532  43.423  21.024   2.728
54159W        W22533  20.747   1.463   4.131
54160W        W22534  22.081  37.999   4.619
54161W        W22535   9.249  21.070   0.388
54162W        W22536  13.802  27.178  13.471
54163W        W22537  25.036  12.688   3.699
54164W        W22538  39.524  41.844   3.331
54165W        W22539  19.545   8.270  12.844
54166W        W22540   3.769   9.699   4.341
54167W        W22541  25.664  28.679  14.958
54168W        W22542  34.584  29.585   0.463
54169W        W22543  38.024  40.007  10.602
54170W        W22544  43.430  39.860   3.257
54171W        W22545  36.360  11.220   3.171
54172W        W22546  41.343   3.447  10.472
54173W        W22547  43.291  20.103   2.788
54174W        W22548  37.064  29.166  13.520
54175W        W22549  18.064   6.734   2.850
54176W        W22550  11.787  32.974  12.094
54177W        W22551   4.204  28.605   3.373
54178W        W22552  44.429  35.373  13.380
54179W        W22553  37.530  18.264   1.318
54180W        W22554  32.560  19.745   1.831
54181W        W22555  16.244  10.260   0.803
54182W        W22556  11.269  39.444  10.608
54183W        W22557  13.713  33.095   3.229
54184W        W22558   9.678   7.794   2.738
54185W        W22559   5.772  13.729   1.309
54186W        W22560   1.288  13.696  13.387
54187W        W22561  29.423  11.157   3.334
54188W        W22562   3.236  42.899   1.696
54189W        W22563  34.426  11.299  12.015
54190W        W22564  22.029  25.059  11.408
54191W        W22565   7.901  38.515   4.320
54192W        W22566  12.175  14.291  14.354
54193W        W22567  26.121  15.655   4.185
54194W        W22568  36.992  28.477   0.369
54195W        W22569  26.672  13.679  10.405
54196W        W22570   7.762  40.470   5.272
54197W        W22571   6.860  17.063   4.168
54198W        W22572  30.518  44.905  14.819
54199W        W22573  24.721   1.831   1.288
54200W        W22574  22.102  30.160   0.774
54201W        W22575  43.341   5.717  12.558
54202W        W22576   9.173   7.301  12.571
54203W        W22577  15.655  32.487   5.321
54204W        W22578  25.518  19.201   3.800
54205W        W22579   7.668   2.310   1.714
54206W        W22580  14.660   1.902  13.369
54207W        W22581   8.658   9.362  13.954
54208W        W22582  12.610  26.129   3.704
54209W        W22583  30.586  22.732   2.192
54210W        W22584  41.489  13.626   0.431
54211W        W22585  18.096  19.637   0.848
54212W        W22586   7.881  26.112  13.940
54213W        W22587  42.282  36.382  14.022
54214W        W22588  19.068   1.243  14.429
54215W        W22589  32.919  33.465   1.762
54216W        W22590  35.581  25.589   3.287
54217W        W22591  18.561  12.130   3.275
54218W        W22592  37.486  23.057  11.497
54219W        W22593  20.537   5.335   2.326
54220W        W22594  31.065  17.192   4.722
54221W        W22595  33.937   6.314  11.925
54222W        W22596  44.309  31.436   2.179
54223W        W22597   9.879   9.253   1.370
54224W        W22598   6.305   8.349   2.860
54225W        W22599  43.406  18.577  14.812
54226W        W22600  32.108  26.954  11.943
54227W        W22601  18.585  44.852  14.021
54228W        W22602  44.304  21.573   3.774
54229W        W22603  37.464  14.825   2.814
54230W        W22604   8.886  39.338   1.423
54231W        W22605  21.754  36.578  14.379
54232W        W22606  16.657  19.055  11.375
54233W        W22607  11.242  38.361   3.380
54234W        W22608   1.464   7.668  11.003
54235W        W22609   3.722  35.367  10.407
54236W        W22610  28.161  25.186  14.965
54237W        W22611  22.071   6.793   1.372
54238W        W22612  31.545  39.524  10.492
54239W        W22613  39.813  28.019  11.032
54240W        W22614  10.844  36.416   2.185
54241W        W22615  13.225  39.347  13.019
54242W        W22616  24.093  42.847   2.329
54243W        W22617  18.752  19.169   0.327
54244W        W22618  14.646   4.932   4.610
54245W        W22619  41.803   4.937   2.224
54246W        W22620  14.131   7.805  12.540
54247W        W22621  23.596  24.613  13.325
54248W        W22622  17.213  16.198  14.994
54249W        W22623  27.641  10.643  14.412
54250W        W22624  20.665   1.900  10.404
54251W        W22625   1.945   1.841  14.796
54252W        W22626  44.864  40.432   1.332
54253W        W22627   4.274  21.209   1.880
54254W        W22628   7.719  23.657  10.047
54255W        W22629   6.274  31.112  12.426
54256W        W22630  25.066  43.456   1.260
54257W        W22631  43.275  18.061  13.021
54258W        W22632  31.503  36.036   0.916
54259W        W22633   1.806   1.316   3.221
54260W        W22634  32.976  20.529  10.636
54261W        W22635   2.925  17.221   4.202
54262W        W22636  38.459  24.608   1.415
54263W        W22637  38.523  19.044  12.417
54264W        W22638   2.430  29.427  11.458
54265W        W22639  29.569  44.001   0.901
54266W        W22640  42.443   1.286  14.436
54267W        W22641  12.823  21.211  14.886
54268W        W22642  43.827  22.668   3.185
54269W        W22643  39.490  24.979   4.697
54270W        W22644   0.258  24.100  12.412
54271W        W22645  20.534   9.247  13.062
54272W        W22646  39.957  33.468   1.370
54273W        W22647   9.193  17.277   3.344
54274W        W22648   2.736  38.355  12.572
54275W        W22649  14.205   3.818   2.209
54276W        W22650  21.239  37.867  14.282
54277W        W22651  39.556  38.475   2.266
54278W        W22652  15.708  17.648   0.281
54279W        W22653  10.147  39.922  10.546
54280W        W22654  24.034  13.119  11.867
54281W        W22655  11.821  26.651   0.909
54282W        W22656  27.185   7.221  13.456
54283W        W22657  33.613  22.581  12.438
54284W        W22658   8.699  43.898   0.472
54285W        W22659  43.320  42.969   4.793
54286W        W22660  26.484   6.225  14.004
54287W        W22661   5.428  40.857   1.748
54288W        W22662  14.613  19.566   5.107
54289W        W22663  27.540  14.316   1.308
54290W        W22664  10.210  30.497  12.931
54291W        W22665  10.659  42.974  11.411
54292W        W22666   3.753  42.845  13.923
54293W        W22667  33.095   0.305  14.798
54294W        W22668  10.726  15.203   4.745
54295W        W22669  24.667  12.821  11.025
54296W        W22670  36.390  22.061   2.264
54297W        W22671  32.106  20.191   2.369
54298W        W22672  37.475  20.247   3.818
54299W        W22673  19.595  32.904  11.453
54300W        W22674   4.794  11.766   1.876
54301W        W22675  20.750  21.022   1.410
54302W        W22676  33.082  31.113   4.205
54303W        W22677   3.255   1.311  12.408
54304W        W22678   9.751  34.061  12.000
54305W        W22679   7.803   8.260   0.907
54306W        W22680  20.758  23.599  12.483
54307W        W22681   3.862  16.115   1.859
54308W        W22682   1.349  31.578  13.544
54309W        W22683  17.594  35.081  12.091
54310W        W22684  34.881  10.649   4.617
54311W        W22685  42.018  29.438  12.030
54312W        W22686  26.134  19.587   5.322
54313W        W22687   3.349   1.390  14.298
54314W        W22688  19.276  37.516  14.904
54315W        W22689   6.400  43.905   2.227
54316W        W22690  18.210  38.853   3.213
54317W        W22691  43.417  24.172  14.339
54318W        W22692  23.189  29.947   2.282
54319W        W22693  43.287  29.991   0.271
54320W        W22694  41.856   0.349   1.263
54321W        W22695   9.799  34.498  12.525
54322W        W22696   3.452  12.784  10.993
54323W        W22697  16.646  41.828   2.261
54324W        W22698  12.635  31.632  10.892
54325W        W22699  25.489  27.142   3.739
54326W        W22700  16.796   5.818   3.205
54327W        W22701  41.789  42.970   4.218
54328W        W22702  41.040  44.285   1.280
54329W        W22703  37.915  29.069   1.261
54330W        W22704  21.613  13.722   1.805
54331W        W22705  33.908  35.910  14.803
54332W        W22706  30.571  18.223  12.903
54333W        W22707  24.551  24.653  14.941
54334W        W22708  14.699   5.835   1.718
54335W        W22709   6.190  35.399   4.156
54336W        W22710  32.071   6.288  11.379
54337W        W22711  39.883   5.918   1.726
54338W        W22712   9.677  27.517  10.414
54339W        W22713   2.329  15.794  13.891
54340W        W22714  16.729  11.635  14.937
54341W        W22715  23.572   9.229  12.517
54342W        W22716  25.611  33.879   4.210
54343W        W22717   6.873  37.508   4.753
54344W        W22718  35.030  15.774   4.739
54345W        W22719  31.442  10.338   1.219
54346W        W22720  21.559  12.152  13.003
54347W        W22721  14.814  36.347   1.709
54348W        W22722  37.408  20.565   4.186
54349W        W22723  18.642  22.710   2.766
54350W        W22724   7.329  23.519   2.815
54351W        W22725  34.603  31.417  10.580
54352W        W22726   0.309  23.684  12.081
54353W        W22727   5.696   9.715   0.335
54354W        W22728  28.142  43.283   3.235
54355W        W22729  16.205  13.340   0.474
54356W        W22730  20.664  25.013   2.845
54357W        W22731   6.771  34.498   2.676
54358W        W22732  41.998  39.954  13.470
54359W        W22733   0.249   1.801   2.419
54360W        W22734  29.628  29.988  11.993
54361W        W22735   6.424  35.066  11.443
54362W        W22736  25.082   2.389   3.803
54363W        W22737  32.996   5.789  11.047
54364W        W22738  17.066  44.928  10.527
54365W        W22739  34.556  12.311  11.973
54366W        W22740  30.050   9.701   1.869
54367W        W22741  14.632  10.220  10.913
54368W        W22742  34.587  32.095   0.440
54369W        W22743  16.122   3.273   4.164
54370W        W22744  43.874  39.933  10.505
54371W        W22745   4.224  29.476  11.414
54372W        W22746  35.034  28.034  11.419
54373W        W22747  28.491   0.754   0.244
54374W        W22748  13.758  41.491  11.543
54375W        W22749   8.277  28.150   5.264
54376W        W22750  27.596   9.713   2.382
54377W        W22751   4.343  44.472  11.574
54378W        W22752  14.171  10.157   4.768
54379W        W22753   0.265  26.967   4.635
54380W        W22754   9.267   2.315   4.796
54381W        W22755   0.798  42.019   2.204
54382W        W22756  19.265  14.648   3.160
54383W        W22757  26.491  36.961  12.870
54384W        W22758   3.734   0.934  10.506
54385W        W22759  22.632  33.586  10.989
54386W        W22760   4.259  44.491   0.418
54387W        W22761  42.906   4.209   3.246
54388W        W22762  15.655  12.324   0.337
54389W        W22763  13.328  37.833  13.439
54390W        W22764   6.820  16.161  13.019
54391W        W22765  13.771  36.843   1.862
54392W        W22766  27.018  43.469  11.613
54393W        W22767  14.171  42.976   2.209
54394W        W22768  43.816  19.747   2.412
54395W        W22769  36.058  37.084  13.376
54396W        W22770  19.743   7.906   2.321
54397W        W22771   9.763  13.636  10.541
54398W        W22772  21.670  40.470  14.376
54399W        W22773   4.332  35.468  11.947
54400W        W22774  27.084  23.187  11.484
54401W        W22775  36.879  18.563  14.825
54402W        W22776  17.305  40.515   1.252
54403W        W22777  30.495   2.327   2.201
54404W        W22778  32.391  30.513  13.998
54405W        W22779  22.085   3.415   0.883
54406W        W22780  33.538  25.626  12.401
54407W        W22781  14.286  22.088   1.914
54408W        W22782  34.473  20.656   2.767
54409W        W22783  18.660  30.963   4.130
54410W        W22784  30.498  13.739  12.439
54411W        W22785   4.739  26.645  12.022
54412W        W22786  14.823  36.439  13.516
54413W        W22787  21.619  36.982   0.825
54414W        W22788  29.960  28.992  14.292
54415W        W22789  40.819  11.863  12.569
54416W        W22790  42.410   8.381   4.203
54417W        W22791  19.161   3.860  14.406
54418W        W22792   2.847  37.010  14.509
54419W        W22793  27.028  15.237   2.867
54420W        W22794  12.749  14.328   3.647
54421W        W22795  30.944  31.153   1.699
54422W        W22796  12.310  14.615  11.477
54423W        W22797  23.231   8.894   2.692
54424W        W22798  15.263  18.162   4.138
54425W        W22799  14.224   4.879   2.898
54426W        W22800  27.112   7.326   4.302
54427W        W22801  23.105   6.810  11.021
54428W        W22802  17.152   2.292  12.437
54429W        W22803  44.262  41.865  13.850
54430W        W22804   4.945  29.484   0.789
54431W        W22805  14.110  37.566   1.742
54432W        W22806  43.987   5.304   1.435
54433W        W22807  25.054  10.279  14.345
54434W        W22808  42.818   4.899  13.496
54435W        W22809   9.837  20.587   0.930
54436W        W22810  21.037   9.317   1.789
54437W        W22811  37.067  28.135   1.720
54438W        W22812   4.265   2.266  13.896
54439W        W22813  12.347   6.397   2.357
54440W        W22814  25.998  17.646   4.762
54441W        W22815  25.060  23.684  14.959
54442W        W22816  41.499  19.649   3.689
54443W        W22817  10.730  11.654  11.540
54444W        W22818   8.760  17.246  12.053
54445W        W22819  32.081  24.154  13.831
54446W        W22820  39.865  39.337   0.748
54447W        W22821  27.063   4.917   0.423
54448W        W22822  30.472  18.740   2.736
54449W        W22823  28.449  35.573   3.376
54450W        W22824   4.247  10.310   4.212
54451W        W22825  17.228  36.858   2.318
54452W        W22826  36.989  44.967   2.814
54453W        W22827   4.312  38.821  10.587
54454W        W22828  32.452  28.034  10.498
54455W        W22829   6.310  24.629   2.730
54456W        W22830  15.246  34.891  12.829
54457W        W22831  32.087  15.189  14.833
54458W        W22832  32.996  15.807  13.998
54459W        W22833  33.546  15.650  10.084
54460W        W22834  42.448  28.594   1.382
54461W        W22835  21.118  30.657   4.243
54462W        W22836  29.498  38.490   2.188
54463W        W22837  27.504  22.146  12.430
54464W        W22838  14.730  35.601  13.336
54465W        W22839  29.633  40.999   1.260
54466W        W22840  37.938  28.501  13.308
54467W        W22841  14.779  43.923  14.951
54468W        W22842  29.164  42.800  13.478
54469W        W22843  22.062  20.734   3.146
54470W        W22844  43.501   6.288   0.396
54471W        W22845   4.334  12.821   2.263
54472W        W22846   5.377  32.604   1.229
54473W        W22847  15.604  17.583  11.606
54474W        W22848  40.831  28.128  12.836
54475W        W22849   6.364  25.200  14.404
54476W        W22850  36.906  14.725  13.483
54477W        W22851  30.005  26.637   1.245
54478W        W22852  12.201  18.557  11.452
54479W        W22853   0.897  41.040  14.278
54480W        W22854  26.698  24.093   0.259
54481W        W22855   9.162  28.663  11.389
54482W        W22856  43.008  37.891   4.259
54483W        W22857  16.199   5.778   3.799
54484W        W22858  25.690   6.857  12.389
54485W        W22859   7.213  35.922   0.387
54486W        W22860  31.623  33.437   2.311
54487W        W22861  11.784  24.045  14.760
54488W        W22862  18.065  25.986  14.875
54489W        W22863  33.091  37.481  14.392
54490W        W22864   4.306   4.288   2.264
54491W        W22865  26.607  16.147   0.482
54492W        W22866   6.798  17.586  10.969
54493W        W22867   2.765  21.091   3.795
54494W        W22868  40.877  36.573  12.469
54495W        W22869  18.154  18.296   1.836
54496W        W22870  38.455  29.427  13.022
54497W        W22871   8.772  29.958  13.894
54498W        W22872  34.074  16.689  10.939
54499W        W22873   8.234  25.535   1.772
54500W        W22874   5.323  28.475   3.826
54501W        W22875  15.209  27.522   3.353
54502W        W22876  11.635  23.498   1.232
54503W        W22877  20.045   7.200  14.343
54504W        W22878  11.202  30.927  13.053
54505W        W22879  37.462  31.906  14.360
54506W        W22880  16.727   3.910  14.863
54507W        W22881  42.009   9.784   3.222
54508W        W22882  28.076  13.768  14.947
54509W        W22883  43.453  34.954   3.234
54510W        W22884  25.978  16.581   3.837
54511W        W22885  39.369  28.584  10.591
54512W        W22886   4.909  15.142  11.950
54513W        W22887  13.689  18.063   2.238
54514W        W22888  12.644  25.485   2.705
54515W        W22889   6.224  22.694   1.935
54516W        W22890  22.194  17.601   4.668
54517W        W22891  37.898  42.898   4.291
54518W        W22892  32.478  29.171  14.478
54519W        W22893  23.671   2.379   3.257
54520W        W22894  15.609  27.187   3.224
54521W        W22895  17.218   2.796   1.770
54522W        W22896   6.327  31.938   3.750
54523W        W22897  15.146  19.271   2.703
54524W        W22898  38.052  25.472  13.805
54525W        W22899   0.465  31.032   2.359
54526W        W22900  18.594  36.987   0.787
54527W        W22901   4.372  32.416   0.320
54528W        W22902  18.244  27.454  12.427
54529W        W22903  10.279  16.745   0.946
54530W        W22904  43.279  18.588   2.259
54531W        W22905   5.934  23.072  14.845
54532W        W22906   3.281  21.710  11.373
54533W        W22907  23.153  24.531  13.010
54534W        W22908  42.943  15.288   0.771
54535W        W22909  33.489   2.419   4.782
54536W        W22910  16.584  23.208   1.868
54537W        W22911  24.720  14.175   4.678
54538W        W22912  25.082  18.786   5.183
54539W        W22913  28.586  42.836   2.817
54540W        W22914  29.070  33.012   2.729
54541W        W22915  32.436   7.342   1.291
54542W        W22916   0.840  19.651   0.765
54543W        W22917  15.782  40.952   0.316
54544W        W22918  13.636  40.437  13.391
54545W        W22919  14.183  14.209   4.654
54546W        W22920  14.626  27.489  14.913
54547W        W22921  18.578  28.453   1.219
54548W        W22922  26.627  34.064   4.202
54549W        W22923  35.873   4.352  10.962
54550W        W22924  20.147  31.583   3.364
54551W        W22925  25.035  16.160  14.894
54552W        W22926  44.910  25.202  10.995
54553W        W22927  21.658  39.951   4.658
54554W        W22928  38.826  27.681   4.178
54555W        W22929  16.253  12.753   0.308
54556W        W22930  19.188  33.086   3.186
54557W        W22931  10.347  32.558   4.837
54558W        W22932  37.349   8.883  11.434
54559W        W22933  40.894  17.676  12.368
54560W        W22934  35.015  27.061  12.015
54561W        W22935  17.251  15.715   0.314
54562W        W22936  36.382   0.807   2.897
54563W        W22937  44.755  16.307   1.923
54564W        W22938  30.493  20.210   1.420
54565W        W22939  34.571  38.027   1.227
54566W        W22940  32.139  39.033  14.006
54567W        W22941  36.572  30.026  13.318
54568W        W22942  35.997  30.610  13.421
54569W        W22943  14.804  20.155  11.449
54570W        W22944  31.017  18.552   3.734
54571W        W22945   1.312  24.643  13.897
54572W        W22946  30.004  44.835  11.426
54573W        W22947  18.259   5.203   4.657
54574W        W22948  16.786   8.682   3.645
54575W        W22949   0.475  41.950   1.334
54576W        W22950  42.805  20.608  12.437
54577W        W22951   5.304   2.354   4.338
54578W        W22952   4.906  29.463   3.174
54579W        W22953  39.847  16.787  12.533
54580W        W22954  19.707  18.658  12.556
54581W        W22955  43.373  12.139   1.220
54582W        W22956  14.811  42.943   4.666
54583W        W22957  11.822  11.822   4.637
54584W        W22958   8.678  30.541   3.320
54585W        W22959  41.957   5.885  13.362
54586W        W22960  32.457  20.568  11.954
54587W        W22961  10.351  21.704  12.480
54588W        W22962   1.816   6.216   2.409
54589W        W22963  16.591  27.154   3.274
54590W        W22964   1.824  25.584   4.350
54591W        W22965  11.689   2.810   3.363
54592W        W22966  34.033  28.113   2.781
54593W        W22967  17.166  12.742  14.774
54594W        W22968  44.879   1.785  13.349
54595W        W22969   4.794   6.226   5.110
54596W        W22970   5.362   8.815   5.198
54597W        W22971   6.919   3.829   1.211
54598W        W22972  44.807  29.454   1.889
54599W        W22973  31.045  23.678  12.028
54600W        W22974  26.003   5.858  14.894
54601W        W22975  20.702  26.475   5.123
54602W        W22976  35.013  36.437   0.294
54603W        W22977  26.543  11.716   2.747
54604W        W22978  12.804   5.869   3.311
54605W        W22979   3.432   2.913  12.039
54606W        W22980  42.933  15.195  14.360
54607W        W22981  33.457  28.531   4.619
54608W        W22982  38.833   7.776  14.414
54609W        W22983   4.210  24.620   9.616
54610W        W22984  24.216  12.272  14.405
54611W        W22985  21.698   3.939   3.798
54612W        W22986  33.441  20.571  11.517
54613W        W22987  21.693  36.468   4.607
54614W        W22988  42.808  43.375   2.203
54615W        W22989   6.748  30.589  13.447
54616W        W22990  41.884  44.327  13.326
54617W        W22991   4.276  41.932   3.797
54618W        W22992  25.171  14.684  14.393
54619W        W22993  22.012   6.226  11.576
54620W        W22994  18.269  14.305  11.093
54621W        W22995  22.184  44.277  12.093
54622W        W22996  10.727  32.563  10.466
54623W        W22997  29.429  24.086   4.197
54624W        W22998  43.291  42.844   4.257
54625W        W22999  33.542   2.847  11.054
54626W        W23000  20.151  33.878  10.445
54627W        W23001  14.731  14.681  11.908
54628W        W23002  17.088  38.874   5.254
54629W        W23003  20.661  11.634   1.930
54630W        W23004  32.033  37.873  11.010
54631W        W23005  20.649  25.205   0.797
54632W        W23006  19.262   7.697   0.480
54633W        W23007   9.334  30.428   2.209
54634W        W23008   8.376   4.337  10.610
54635W        W23009  12.660  43.286  10.561
54636W        W23010   5.782  25.184   2.218
54637W        W23011   3.410  15.129  14.390
54638W        W23012  20.090  16.160  14.414
54639W        W23013  40.322   1.882   1.370
54640W        W23014   8.372  38.929   4.351
54641W        W23015  32.010  38.369   2.306
54642W        W23016  27.569  31.461   4.262
54643W        W23017  35.529   8.725   4.278
54644W        W23018  17.116  21.245   2.275
54645W        W23019  40.531  13.206  11.551
54646W        W23020  37.958  35.886   5.207
54647W        W23021  34.946  38.514  13.881
54648W        W23022  19.060  29.149   3.213
54649W        W23023  35.918  37.026  12.463
54650W        W23024  22.689  18.170   0.912
54651W        W23025  31.030  38.409   4.292
54652W        W23026  19.684   5.419   2.837
54653W        W23027   3.259  10.646   0.457
54654W        W23028   6.307  16.117  14.969
54655W        W23029  21.107  21.151   4.776
54656W        W23030  19.565  44.316   2.874
54657W        W23031  24.046  40.009   1.889
54658W        W23032  20.146   7.731  11.097
54659W        W23033  27.174  36.906   2.795
54660W        W23034  35.059  28.010  13.864
54661W        W23035  40.442  17.648   1.371
54662W        W23036   8.254  35.450  11.419
54663W        W23037   0.975  25.591   4.669
54664W        W23038  19.145  26.159  13.987
54665W        W23039   0.756  31.151   2.332
54666W        W23040  34.391  36.529   3.751
54667W        W23041  26.173   9.870  14.003
54668W        W23042  25.205  13.336   1.306
54669W        W23043   7.757   5.338   2.374
54670W        W23044  18.639  39.047   2.664
54671W        W23045   8.401  43.399  13.819
54672W        W23046  34.370  38.511  11.546
54673W        W23047   1.759   4.222  12.463
54674W        W23048  43.485  12.719  14.991
54675W        W23049  33.951   6.260   4.814
54676W        W23050  17.136  32.033   0.864
54677W        W23051   3.916   4.399  10.417
54678W        W23052  25.573  15.232   9.533
54679W        W23053  38.980  22.013   1.790
54680W        W23054  43.498  43.811  13.416
54681W        W23055  35.969   6.826  12.957
54682W        W23056  42.487  36.569   1.741
54683W        W23057  19.597  18.624  11.919
54684W        W23058  20.582  23.563  13.930
54685W        W23059  16.674   6.365  10.942
54686W        W23060  43.450  35.500  11.563
54687W        W23061  42.429  37.408  12.463
54688W        W23062  44.981  22.047  14.024
54689W        W23063  42.823  34.903  11.532
54690W        W23064  11.358  27.192   3.252
54691W        W23065  18.288  41.318   4.704
54692W        W23066  15.182  41.498   3.857
54693W        W23067   5.371   2.940  10.576
54694W        W23068  32.032  28.133   1.220
54695W        W23069  21.545  24.207  10.981
54696W        W23070   9.379  14.786  13.353
54697W        W23071  25.619  41.863  14.338
54698W        W23072   4.429  39.817  13.011
54699W        W23073  36.370  15.295  11.464
54700W        W23074  28.558  42.491  10.950
54701W        W23075  40.370  30.535   3.798
54702W        W23076   2.359   6.891  14.421
54703W        W23077   2.941  30.943  12.025
54704W        W23078  22.616   3.306   2.269
54705W        W23079   1.405  43.890   3.221
54706W        W23080  28.579  36.435   0.483
54707W        W23081  31.000  41.311  14.399
54708W        W23082  26.080  41.879  14.303
54709W        W23083  28.046  43.478   9.506
54710W        W23084  21.169  42.849   1.910
54711W        W23085  11.743  21.234   5.095
54712W        W23086   4.389  20.601   3.272
54713W        W23087   2.372  38.351  14.346
54714W        W23088   6.731  33.460   0.315
54715W        W23089  25.596  17.570  14.960
54716W        W23090   2.408  16.617  11.918
54717W        W23091  11.745  17.109  11.116
54718W        W23092  30.507  44.353   1.753
54719W        W23093  12.245  31.533   0.295
54720W        W23094  35.010  27.545   1.300
54721W        W23095   4.921  32.532   0.794
54722W        W23096  35.092  41.912  14.828
54723W        W23097   0.283  19.686  14.834
54724W        W23098  20.544  36.863   3.852
54725W        W23099  22.712   5.310  11.964
54726W        W23100  29.997   5.309   3.346
54727W        W23101  32.484  28.969   3.340
54728W        W23102  30.052   4.207   3.643
54729W        W23103   7.777   3.406   3.668
54730W        W23104  11.162  43.840  14.894
54731W        W23105  42.450  24.067  14.010
54732W        W23106  32.413  31.608   2.398
54733W        W23107  36.469  37.019  11.109
54734W        W23108   5.215   1.795   2.808
54735W        W23109   4.421  34.999   3.813
54736W        W23110  11.640  37.509   2.677
54737W        W23111  37.939   3.767   1.746
54738W        W23112  21.597  11.844   4.647
54739W        W23113   7.214  30.056  10.948
54740W        W23114   9.804  15.300  10.417
54741W        W23115  32.106  16.608  11.045
54742W        W23116   6.920  19.600  10.072
54743W        W23117   4.745  43.389   0.257
54744W        W23118   2.402  43.992   1.931
54745W        W23119   0.454  40.826   2.832
54746W        W23120  36.853  38.488   2.824
54747W        W23121  33.381  23.563  11.452
54748W        W23122  24.018  31.062  11.469
54749W        W23123  10.853   0.938  10.905
54750W        W23124  12.310  24.078   4.650
54751W        W23125  13.846  20.225  14.807
54752W        W23126   9.719  37.529  11.526
54753W        W23127  38.055   6.264   0.821
54754W        W23128  26.636  11.850  11.915
54755W        W23129  10.193  33.391  14.853
54756W        W23130   5.439  41.343  10.556
54757W        W23131  35.895  29.654  14.890
54758W        W23132  23.131  39.384   0.888
54759W        W23133  15.816  44.495  13.056
54760W        W23134  32.002  32.468  14.369
54761W        W23135  12.147  19.107  10.619
54762W        W23136   6.401  35.856   3.844
54763W        W23137  27.522  43.387   2.809
54764W        W23138  15.583  34.034   1.315
54765W        W23139   4.350  22.589  12.873
54766W        W23140  39.050  42.981   1.923
54767W        W23141  34.421  18.215   0.464
54768W        W23142  11.688  10.760  10.510
54769W        W23143   1.746  14.239  13.317
54770W        W23144  22.097  42.965  13.798
54771W        W23145  20.644  23.556   1.212
54772W        W23146  42.910  18.655  11.553
54773W        W23147  23.621  22.559   4.166
54774W        W23148  19.593  29.157   1.359
54775W        W23149  11.287  35.080  13.937
54776W        W23150  34.941  32.428   0.909
54777W        W23151  14.287  30.046   1.765
54778W        W23152  27.133  23.183  13.895
54779W        W23153  42.484   7.723  11.402
54780W        W23154  27.617  44.799  12.488
54781W        W23155  17.207  31.646   2.848
54782W        W23156  15.219  23.202  14.480
54783W        W23157  15.577   5.749  13.822
54784W        W23158  26.659   4.943   3.318
54785W        W23159  44.400  21.065   4.145
54786W        W23160  25.137  31.077   5.310
54787W        W23161  17.668  31.420  14.848
54788W        W23162  19.284  42.807  11.377
54789W        W23163   0.289  28.972  12.089
54790W        W23164  23.593   3.819  10.951
54791W        W23165  44.451   9.709   1.887
54792W        W23166  21.529   7.364  12.513
54793W        W23167  40.838   4.328   4.158
54794W        W23168   3.368  23.677   3.671
54795W        W23169  22.562  39.498  14.422
54796W        W23170  14.256  42.812   4.299
54797W        W23171   5.758   6.324  12.967
54798W        W23172   5.808   1.882  13.906
54799W        W23173  29.430  24.506  12.341
54800W        W23174   6.241   2.953   3.653
54801W        W23175  28.946  39.423   0.318
54802W        W23176  15.621   4.723  12.864
54803W        W23177  43.837  37.942   3.729
54804W        W23178   1.797  27.026  13.004
54805W        W23179  24.592  19.776  10.937
54806W        W23180  39.388  19.126   3.823
54807W        W23181  18.262   1.327  13.324
54808W        W23182  33.394  19.700   1.226
54809W        W23183  16.708  38.376   3.705
54810W        W23184  19.772   9.161   4.770
54811W        W23185  19.580   6.877   2.354
54812W        W23186  33.020  22.126  11.971
54813W        W23187   7.391  25.018   3.227
54814W        W23188  15.707  21.247   4.266
54815W        W23189  42.967  42.511   3.804
54816W        W23190  32.988  34.478  11.005
54817W        W23191  25.145  26.512   4.761
54818W        W23192   1.290   1.322   3.655
54819W        W23193  30.609  34.885   1.915
54820W        W23194   8.686  23.044  12.966
54821W        W23195  26.654  24.640  13.362
54822W        W23196  13.241  34.031  13.870
54823W        W23197  27.060  30.072   1.287
54824W        W23198   5.232  36.544   2.399
54825W        W23199   4.708  23.500   0.964
54826W        W23200  29.582  12.666   1.743
54827W        W23201  35.998  37.832  13.462
54828W        W23202   6.325  30.079   1.848
54829W        W23203   8.755  43.451  10.428
54830W        W23204   7.317  14.303  13.829
54831W        W23205   8.242  36.041  11.054
54832W        W23206   1.431  32.925   0.308
54833W        W23207  28.574   9.702   4.795
54834W        W23208  27.068  20.742  13.800
54835W        W23209  36.403   5.710   2.191
54836W        W23210  31.541   6.303  14.946
54837W        W23211   3.807   2.394   2.251
54838W        W23212  39.368  28.007   3.163
54839W        W23213   2.381  44.430  13.357
54840W        W23214   0.884  40.407   3.201
54841W        W23215  22.108  36.008   3.702
54842W        W23216  13.747  22.102   3.354
54843W        W23217  31.021  30.115  11.382
54844W        W23218  18.712  25.968  11.404
54845W        W23219  24.183  37.534   2.324
54846W        W23220  31.993  44.865  10.994
54847W        W23221  25.571  24.638  10.456
54848W        W23222  29.556  30.643  13.451
54849W        W23223  23.576   2.316  11.610
54850W        W23224  11.638   2.460  14.371
54851W        W23225  43.374  25.611   4.205
54852W        W23226  26.586  24.490  14.788
54853W        W23227   8.281   4.921  14.966
54854W        W23228  19.598  22.661   0.737
54855W        W23229   5.343  10.816  11.452
54856W        W23230  12.150  40.961   0.888
54857W        W23231   1.328   4.314   2.198
54858W        W23232  44.312   9.665  14.873
54859W        W23233  32.958  14.149  12.007
54860W        W23234  20.726  13.189   3.243
54861W        W23235  34.603   3.876   3.160
54862W        W23236  27.043  27.141   1.855
54863W        W23237  29.615  36.053  12.451
54864W        W23238  10.722  35.378   1.393
54865W        W23239  15.302  22.158   2.304
54866W        W23240  27.085   2.311   0.811
54867W        W23241   9.791   4.766  13.493
54868W        W23242   3.873  41.023  13.327
54869W        W23243  33.411  17.756   4.640
54870W        W23244  14.817  21.537   1.363
54871W        W23245   7.294   2.935   3.789
54872W        W23246   6.417   8.678   4.668
54873W        W23247  27.169   8.692   3.237
54874W        W23248  23.170  39.820  10.944
54875W        W23249   3.370  28.130  12.505
54876W        W23250   3.861   5.889  13.546
54877W        W23251  22.154   3.405  10.437
54878W        W23252  22.586  28.005   3.741
54879W        W23253  12.712   2.892   3.375
54880W        W23254   1.271  37.048  14.393
54881W        W23255  26.064  10.764  11.404
54882W        W23256  10.877   2.361   1.287
54883W        W23257  30.960  31.026  11.942
54884W        W23258  17.177   8.205  13.322
54885W        W23259   8.197  42.293  11.441
54886W        W23260  44.802  44.776   0.863
54887W        W23261  34.980   4.346   0.454
54888W        W23262  28.649  41.472  12.516
54889W        W23263  28.476  12.139   2.309
54890W        W23264  22.126   9.224   1.876
54891W        W23265  31.624   4.800   4.759
54892W        W23266  35.861  12.851  13.525
54893W        W23267   4.399  17.085   2.194
54894W        W23268  27.976   7.335  11.565
54895W        W23269  42.828   0.819   0.319
54896W        W23270  34.501   4.814  11.386
54897W        W23271  35.480  31.092   3.822
54898W        W23272   1.771  16.096  11.856
54899W        W23273  16.195  16.768   3.630
54900W        W23274   2.768   2.315   3.221
54901W        W23275   8.402  19.067  14.009
54902W        W23276  37.541  31.113   1.315
54903W        W23277  40.813   4.796  12.422
54904W        W23278  36.948   4.702  12.907
54905W        W23279   7.780  44.797  11.509
54906W        W23280  11.663  40.911   4.618
54907W        W23281   7.687  39.385  13.871
54908W        W23282  44.258  34.599  11.878
54909W        W23283   4.344  18.565  13.947
54910W        W23284  18.671  27.485   2.251
54911W        W23285  36.029   0.931   3.663
54912W        W23286   4.836  36.542  14.411
54913W        W23287  27.096  42.360  14.384
54914W        W23288  41.401  37.570   0.773
54915W        W23289  10.675  35.879   2.732
54916W        W23290   7.895  36.531  12.024
54917W        W23291  17.582  37.534  12.063
54918W        W23292  15.101  12.622   2.688
54919W        W23293  27.499  31.611   3.741
54920W        W23294  36.999   9.263  13.015
54921W        W23295  20.077  19.199   0.405
54922W        W23296  35.018   6.711  12.076
54923W        W23297  16.690  37.912  12.343
54924W        W23298  42.349   9.213   3.179
54925W        W23299  39.889  29.525   1.241
54926W        W23300   1.357  11.367  14.924
54927W        W23301  24.504  19.177   0.262
54928W        W23302  35.525  17.758   4.299
54929W        W23303   0.803  13.118   1.350
54930W        W23304  26.169  18.587  14.875
54931W        W23305   9.173   4.280   5.630
54932W        W23306   9.235  20.563   9.669
54933W        W23307  41.433  28.618   4.693
54934W        W23308  44.868   9.644   2.369
54935W        W23309   6.216  17.197  13.340
54936W        W23310  13.168   1.831   1.863
54937W        W23311  40.033   9.290   2.344
54938W        W23312  17.783  11.238  12.472
54939W        W23313  10.855   9.182   3.648
54940W        W23314  27.531  25.607   2.709
54941W        W23315   1.784  36.043  13.468
54942W        W23316   3.339   7.414   3.159
54943W        W23317  38.424  29.080   4.819
54944W        W23318  24.018   9.291   4.640
54945W        W23319  18.641   3.227   3.312
54946W        W23320  12.147  37.470  12.884
54947W        W23321   9.368   4.814  13.407
54948W        W23322  22.613   7.881   4.806
54949W        W23323   2.446  22.539  10.073
54950W        W23324  37.541  27.634  14.503
54951W        W23325   0.255  35.461   2.781
54952W        W23326  29.517  28.606   3.248
54953W        W23327  31.052   7.869   0.847
54954W        W23328   3.720  22.667   9.933
54955W        W23329  34.392   5.333   2.735
54956W        W23330  10.147   8.191  13.481
54957W        W23331  34.936   5.286   2.667
54958W        W23332  27.564  13.174  10.946
54959W        W23333  40.309  18.113   1.339
54960W        W23334   1.252  12.244  12.565
54961W        W23335  29.114   7.395   1.441
54962W        W23336  22.512  19.612  13.526
54963W        W23337   7.770   6.778   4.763
54964W        W23338  13.301  13.803  10.550
54965W        W23339  12.627  31.142   1.920
54966W        W23340  24.173   5.295   3.279
54967W        W23341  39.460  23.160  10.472
54968W        W23342  28.015  35.954   0.811
54969W        W23343  39.552  20.579   2.255
54970W        W23344  44.797   7.404  11.952
54971W        W23345   5.292  28.583  11.570
54972W        W23346  31.443  32.123  13.917
54973W        W23347  33.555  27.486   4.224
54974W        W23348   3.289   4.824   5.197
54975W        W23349  16.077  18.599  12.537
54976W        W23350  28.551  27.638  11.394
54977W        W23351  31.984   1.743  13.372
54978W        W23352  21.527   5.920  13.957
54979W        W23353  37.992  15.283   1.270
54980W        W23354  33.973  29.634  11.942
54981W        W23355   7.223  40.437   3.300
54982W        W23356  16.180  30.048  12.397
54983W        W23357  11.266  28.071   2.285
54984W        W23358  34.607  39.400   1.431
54985W        W23359  13.337  17.227   1.317
54986W        W23360   2.426  21.189  12.427
54987W        W23361  29.649  39.431  14.304
54988W        W23362  27.605  43.920  13.796
54989W        W23363  34.487  34.960  14.369
54990W        W23364  18.726   0.405  14.443
54991W        W23365  36.969   3.900   1.447
54992W        W23366  31.079  21.035  11.126
54993W        W23367  24.113  44.372  14.885
54994W        W23368   1.963  33.568   1.758
54995W        W23369  37.931  34.529   0.367
54996W        W23370  35.475  21.178  14.471
54997W        W23371   0.898  13.659  14.941
54998W        W23372  20.234  13.673   1.291
54999W        W23373  23.066  31.002  11.001
55000W        W23374   2.308  33.893   1.373
55001W        W23375  10.340  38.010  13.344
55002W        W23376   1.391  27.672   2.193
55003W        W23377  42.317  17.591  14.435
55004W        W23378  39.338  34.921   0.809
55005W        W23379  31.519   8.324  13.326
55006W        W23380  25.662  21.094  13.543
55007W        W23381   7.172   6.231   2.898
55008W        W23382  18.294   8.757   1.323
55009W        W23383  25.970  26.985   2.241
55010W        W23384  38.866  18.741  11.040
55011W        W23385  12.855  26.508   3.787
55012W        W23386  40.009  14.179   0.935
55013W        W23387  44.891  34.005   2.755
55014W        W23388  40.519  25.472   3.349
55015W        W23389   5.369  31.414   0.359
55016W        W23390  18.690  13.142  13.889
55017W        W23391  27.069  12.325   3.816
55018W        W23392   3.383  20.124  14.372
55019W        W23393  13.821  43.315  13.848
55020W        W23394   4.930  41.875   2.376
55021W        W23395  20.174  30.622   1.923
55022W        W23396  33.112  23.191   2.835
55023W        W23397  24.987   1.851  11.562
55024W        W23398  22.620  29.590   9.535
55025W        W23399  13.765   8.841  10.012
55026W        W23400   0.814  15.599   4.181
55027W        W23401  34.054  11.738  12.416
55028W        W23402   7.255  39.891   1.834
55029W        W23403   0.310  26.181  10.550
55030W        W23404  25.154  31.645  13.531
55031W        W23405  43.385   5.235  12.567
55032W        W23406  24.134  22.568  12.433
55033W        W23407  33.089  27.523   2.801
55034W        W23408  42.882  43.350  14.477
55035W        W23409  14.735  37.523  14.827
55036W        W23410   8.317  24.580  14.022
55037W        W23411  40.035  40.521   3.846
55038W        W23412  23.654  39.316   9.986
55039W        W23413   3.900  17.107   2.859
55040W        W23414  28.023  29.638   2.711
55041W        W23415  30.604  25.964  11.504
55042W        W23416  33.055   7.171   4.301
55043W        W23417  29.066  42.336  14.771
55044W        W23418  39.448  31.084   1.224
55045W        W23419  13.236   8.180   0.258
55046W        W23420  36.897  16.090   4.731
55047W        W23421  42.284  35.472   2.241
55048W        W23422   5.712   8.830   2.408
55049W        W23423  15.269  35.357   2.825
55050W        W23424  44.295  28.520   4.688
55051W        W23425  28.124  12.611   2.695
55052W        W23426   8.197  18.221  11.869
55053W        W23427   2.286  10.708   3.742
55054W        W23428  23.125  25.202   0.397
55055W        W23429  37.947  25.616   2.225
55056W        W23430   9.215  37.548   0.400
55057W        W23431  19.115  26.991   2.663
55058W        W23432  28.509  26.509   4.306
55059W        W23433  28.511  20.177   3.760
55060W        W23434  16.675  23.235  13.843
55061W        W23435   6.372  36.881  12.509
55062W        W23436  18.292  35.528   1.871
55063W        W23437  19.602  43.489  11.499
55064W        W23438  17.565  18.776  10.933
55065W        W23439  21.221   6.302   5.283
55066W        W23440  10.723   1.411   2.293
55067W        W23441   2.759  13.280  12.064
55068W        W23442  21.081  28.541   3.703
55069W        W23443  23.652  22.235   3.268
55070W        W23444  12.145  39.354   0.909
55071W        W23445  40.856  30.025  13.509
55072W        W23446  36.072  13.113  14.019
55073W        W23447  33.606  22.036  12.380
55074W        W23448  23.197  22.139  13.797
55075W        W23449  28.933  13.186  12.448
55076W        W23450  11.853  32.466  11.450
55077W        W23451  33.065  20.527   4.821
55078W        W23452  12.140  30.958  11.009
55079W        W23453  38.845   9.736   5.300
55080W        W23454  28.022  37.949   3.661
55081W        W23455  41.832  36.885  14.932
55082W        W23456   5.373  24.985   0.466
55083W        W23457  12.852  29.579   0.444
55084W        W23458  37.408  37.391   1.330
55085W        W23459  19.698  10.231   1.257
55086W        W23460  12.143  35.020  13.046
55087W        W23461  26.208  17.206  11.570
55088W        W23462  19.142  32.487   4.661
55089W        W23463   8.299  18.636   3.319
55090W        W23464  24.058  23.586  13.964
55091W        W23465  42.887  20.689  11.079
55092W        W23466  12.636  23.996  13.816
55093W        W23467  18.647  42.828   3.201
55094W        W23468  20.542  42.377   1.274
55095W        W23469   1.242  27.115   2.795
55096W        W23470  40.367  25.156   9.995
55097W        W23471  34.458  38.452  13.939
55098W        W23472  38.905  37.442   1.364
55099W        W23473  37.838  28.126  11.506
55100W        W23474  28.564  33.128   0.730
55101W        W23475  23.997  41.814  13.333
55102W        W23476   6.233  29.613   5.794
55103W        W23477  20.049  29.569  11.424
55104W        W23478  12.652  10.301  13.347
55105W        W23479  41.013   7.257  13.449
55106W        W23480  40.305  22.165  14.401
55107W        W23481   7.699   9.274   4.823
55108W        W23482   7.227  25.537  11.026
55109W        W23483   1.865  26.489  13.336
55110W        W23484  44.441  42.935   2.410
55111W        W23485  25.554   0.973   1.275
55112W        W23486  33.962  14.616   1.247
55113W        W23487  13.800   2.842  10.495
55114W        W23488  39.457   7.369  11.919
55115W        W23489   4.734  35.097  13.797
55116W        W23490  37.859  36.442  13.793
55117W        W23491  40.315  15.309   2.194
55118W        W23492  27.528   9.766   3.316
55119W        W23493  28.065  38.947  12.389
55120W        W23494  31.514  22.732  11.125
55121W        W23495  35.060  25.076  14.972
55122W        W23496   9.760  16.632  13.844
55123W        W23497   9.293   5.235   1.732
55124W        W23498  32.426   4.921  13.376
55125W        W23499  21.129   3.281   4.310
55126W        W23500  11.153  35.940  14.360
55127W        W23501  29.550  38.894   1.764
55128W        W23502  18.765  38.043  13.029
55129W        W23503  43.420   0.742  10.976
55130W        W23504  29.640  23.074  14.505
55131W        W23505  25.110  15.691   2.698
55132W        W23506  43.900  37.546  12.408
55133W        W23507  30.578  38.929  11.425
55134W        W23508  26.975   0.827  10.556
55135W        W23509  42.956  42.029  10.537
55136W        W23510  41.473   4.709   4.680
55137W        W23511   8.668  26.683  11.891
55138W        W23512  25.057  39.976  13.854
55139W        W23513  33.874  36.017   0.868
55140W        W23514   2.943   3.767   4.147
55141W        W23515  15.578  42.441  10.139
55142W        W23516  13.259  11.743   1.365
55143W        W23517  28.450  10.228  11.956
55144W        W23518   8.702   4.361   0.275
55145W        W23519  33.036   4.898   2.299
55146W        W23520  10.213  24.195  13.507
55147W        W23521  30.944   6.318  10.953
55148W        W23522  37.077  11.643   1.214
55149W        W23523   7.844  35.887  14.765
55150W        W23524  19.773  42.516   1.238
55151W        W23525   9.888  27.455   4.314
55152W        W23526  40.013   9.318  11.978
55153W        W23527  35.481  27.613   3.180
55154W        W23528   3.935  32.000  12.508
55155W        W23529   3.791  40.380   0.432
55156W        W23530  39.321   9.776   5.289
55157W        W23531  12.643  18.761   1.847
55158W        W23532   2.424  22.177  13.874
55159W        W23533  19.056   6.895   2.894
55160W        W23534  28.104   3.454   2.663
55161W        W23535  24.985  28.022   2.286
55162W        W23536  36.972  41.321  11.967
55163W        W23537   5.862  10.741  12.033
55164W        W23538  26.034   6.725  11.934
55165W        W23539   2.344   4.212  14.021
55166W        W23540   3.406  10.175  11.580
55167W        W23541  38.540  29.920  13.356
55168W        W23542  35.414  16.074   4.597
55169W        W23543  24.562  16.257   2.719
55170W        W23544  36.466  33.574   9.927
55171W        W23545   9.718  14.335  11.417
55172W        W23546   3.719  21.607  12.372
55173W        W23547  26.133  15.271  10.161
55174W        W23548  36.914  29.468  10.979
55175W        W23549  21.632  18.166  11.566
55176W        W23550  16.220  35.556  14.893
55177W        W23551  39.847  34.370  14.347
55178W        W23552  21.565  30.113   5.730
55179W        W23553  37.558   6.680  13.412
55180W        W23554  37.367  43.463   0.446
55181W        W23555  30.426   7.220   0.782
55182W        W23556  16.081  16.630  12.049
55183W        W23557  15.795   0.853   2.822
55184W        W23558   2.731   0.448  11.867
55185W        W23559   7.257  40.048   4.617
55186W        W23560  44.849  31.135   4.301
55187W        W23561  32.129  21.712   4.677
55188W        W23562  10.642  30.423  10.587
55189W        W23563   6.293  18.296   1.773
55190W        W23564  18.551  12.291  13.335
55191W        W23565  37.488  43.794   2.738
55192W        W23566  38.352  13.681   0.242
55193W        W23567  30.451  10.766  11.986
55194W        W23568   5.311   1.883   3.840
55195W        W23569  36.409   8.860  10.509
55196W        W23570  23.092  10.367   4.136
55197W        W23571  35.048  39.492  14.437
55198W        W23572  30.575  22.550   0.754
55199W        W23573  25.508  12.214  14.789
55200W        W23574   5.376  42.343   4.825
55201W        W23575  25.675  22.739   1.373
55202W        W23576  42.989  16.122   0.793
55203W        W23577   2.832  37.469   1.898
55204W        W23578  18.633  10.756  12.436
55205W        W23579  23.037  33.053   3.655
55206W        W23580  16.643  27.483   1.774
55207W        W23581   5.916  21.629   2.748
55208W        W23582   4.858  22.009  11.986
55209W        W23583   3.284  37.500  13.390
55210W        W23584  24.697  26.032  13.400
55211W        W23585  29.520   2.843   1.343
55212W        W23586  29.426   8.790   2.687
55213W        W23587  21.666   9.838   4.258
55214W        W23588  19.686  28.443  10.439
55215W        W23589  38.834  34.933   0.301
55216W        W23590  12.809   9.690  13.960
55217W        W23591   7.807  19.213   0.398
55218W        W23592  29.453  36.467  12.992
55219W        W23593  38.522  42.965  12.423
55220W        W23594  24.167  14.642  14.809
55221W        W23595   2.359  15.317   2.670
55222W        W23596  11.300  35.538   3.353
55223W        W23597  22.166   1.299  13.397
55224W        W23598  21.242  36.036   2.871
55225W        W23599   1.749  25.080   1.342
55226W        W23600  35.976  20.062  14.511
55227W        W23601  42.793   8.279   4.195
55228W        W23602  11.653  35.410   4.286
55229W        W23603  35.921   3.886   2.784
55230W        W23604  26.140  14.787   3.366
55231W        W23605  35.379  10.808   4.838
55232W        W23606  43.294  32.585   1.385
55233W        W23607  20.726   7.233   4.284
55234W        W23608  41.895  34.428  12.559
55235W        W23609  27.143  44.795   1.345
55236W        W23610  10.815  31.590   3.197
55237W        W23611   9.322  14.816   1.351
55238W        W23612  22.543   5.765  11.404
55239W        W23613  41.414  44.480   3.867
55240W        W23614  15.581  41.389   3.259
55241W        W23615  32.061  36.020   2.382
55242W        W23616  40.474  41.968   0.477
55243W        W23617   1.836  42.444   4.237
55244W        W23618   7.186  26.532  12.974
55245W        W23619  14.641  32.591   3.332
55246W        W23620  30.057  30.436  12.865
55247W        W23621  40.022  28.539  11.571
55248W        W23622  12.292  22.184   3.287
55249W        W23623  33.550  12.305  14.359
55250W        W23624  14.716  19.125   4.606
55251W        W23625  16.703  30.524  14.844
55252W        W23626  35.938  40.373  14.953
55253W        W23627  12.816   1.425  10.906
55254W        W23628  25.671  26.155  11.571
55255W        W23629  15.715  44.342  14.391
55256W        W23630  41.415   6.800  10.939
55257W        W23631  10.831  27.602  11.079
55258W        W23632  37.442  10.249  11.422
55259W        W23633  43.312   9.795   4.768
55260W        W23634  28.946  16.136   2.714
55261W        W23635  44.850   7.681   3.661
55262W        W23636   3.429  29.005  14.391
55263W        W23637  29.633  33.474   4.335
55264W        W23638   8.225  35.885  13.967
55265W        W23639  42.878  33.491  10.645
55266W        W23640   8.799   8.829  10.968
55267W        W23641   4.385  21.046   3.191
55268W        W23642  30.555  17.235  12.908
55269W        W23643  29.632  11.275  10.467
55270W        W23644  44.932  32.905   2.255
55271W        W23645  10.258  11.198   2.796
55272W        W23646   5.809   3.778  10.436
55273W        W23647   3.322  10.272   4.352
55274W        W23648  12.284  39.844  13.836
55275W        W23649  17.642  37.942  14.005
55276W        W23650   5.227  11.788   1.810
55277W        W23651  10.195  41.989   1.434
55278W        W23652  40.307  11.157  14.351
55279W        W23653  29.126  14.144   0.276
55280W        W23654   8.884  40.944  14.915
55281W        W23655  12.703  28.943   0.277
55282W        W23656  41.911  30.992   0.743
55283W        W23657   4.311   2.307  10.620
55284W        W23658  40.380  37.022   0.881
55285W        W23659  38.369   7.241  14.803
55286W        W23660   1.434   9.232   3.672
55287W        W23661   7.886   5.423   1.295
55288W        W23662  31.064  11.358  13.934
55289W        W23663  21.603  39.936  10.463
55290W        W23664  27.175  29.552   4.677
55291W        W23665  20.551  15.647  11.067
55292W        W23666  35.917  15.132   4.626
55293W        W23667  43.764  33.544   4.126
55294W        W23668  26.054  34.486  14.307
55295W        W23669  32.004   6.242  12.450
55296W        W23670  23.699   2.843  11.481
55297W        W23671  19.733  26.149  11.527
55298W        W23672  37.500   6.744   3.784
55299W        W23673  44.410  43.851  13.864
55300W        W23674  16.614   4.737   4.215
55301W        W23675  19.039  19.680   0.332
55302W        W23676  18.564   6.341  13.050
55303W        W23677  27.495  32.453   3.663
55304W        W23678   6.386   4.772  14.881
55305W        W23679  36.399   8.245  10.993
55306W        W23680   7.803  18.202   9.971
55307W        W23681  27.196   6.771   3.184
55308W        W23682  38.031  42.022  12.426
55309W        W23683  16.124   5.867  10.418
55310W        W23684  12.624   3.760  13.856
55311W        W23685  31.489  33.519   1.763
55312W        W23686  27.130  28.004   3.795
55313W        W23687  29.471  17.246  11.983
55314W        W23688  42.363  17.602   4.222
55315W        W23689  43.816  41.305   3.372
55316W        W23690   4.293  11.167   1.314
55317W        W23691  22.639  42.782  11.500
55318W        W23692   0.407  32.408   1.329
55319W        W23693   2.314  35.887   2.748
55320W        W23694  16.704  14.268  11.566
55321W        W23695  32.424  21.717   1.851
55322W        W23696  30.564  25.676   4.762
55323W        W23697   9.386   2.303   2.226
55324W        W23698  36.986  38.488  13.794
55325W        W23699  35.972  41.355   0.816
55326W        W23700  44.288   2.737  11.399
55327W        W23701   3.730  19.741  12.972
55328W        W23702  21.592  34.560  14.904
55329W        W23703  23.528  23.651   0.267
55330W        W23704  32.942  35.582  10.941
55331W        W23705  34.553  44.926   3.287
55332W        W23706   8.849  29.578  13.334
55333W        W23707  40.895  12.852  13.059
55334W        W23708  28.021  20.730  13.525
55335W        W23709   2.906   9.796  11.387
55336W        W23710  27.477  18.176   1.216
55337W        W23711  18.058  23.180   2.809
55338W        W23712   5.422  25.537  10.497
55339W        W23713  23.118  29.940  14.293
55340W        W23714  42.778  13.758  13.004
55341W        W23715  22.641  19.174   4.697
55342W        W23716  19.144  18.609   4.226
55343W        W23717   4.729   9.279   5.248
55344W        W23718   6.771  26.670   0.948
55345W        W23719  12.125  12.775  13.445
55346W        W23720   1.976  30.603  11.457
55347W        W23721  28.115  18.188   2.358
55348W        W23722  39.042   5.850   0.254
55349W        W23723  43.308  42.805   1.897
55350W        W23724  29.566  30.442  11.451
55351W        W23725  35.024  41.841  13.979
55352W        W23726  31.980  18.675  11.526
55353W        W23727  10.726  44.432  14.337
55354W        W23728  18.715  23.553  12.838
55355W        W23729  16.270  35.002   0.924
55356W        W23730  17.638  20.761   2.831
55357W        W23731  23.623   8.783   2.709
55358W        W23732  34.877  44.261  14.937
55359W        W23733  44.872  40.510  11.950
55360W        W23734  32.571  16.204   0.838
55361W        W23735  26.953  44.295   0.811
55362W        W23736  19.042   8.369  13.507
55363W        W23737  31.105  21.732  14.024
55364W        W23738  42.488   7.884  10.525
55365W        W23739  12.247  16.249  12.490
55366W        W23740  16.298   8.232   4.806
55367W        W23741  36.037  33.069   4.787
55368W        W23742  34.889  22.516   1.357
55369W        W23743  10.313  28.037   0.407
55370W        W23744   8.751  17.715   3.322
55371W        W23745  32.418  44.994   0.901
55372W        W23746   8.250  27.982  13.970
55373W        W23747  23.582  34.971   3.345
55374W        W23748  38.060  14.724   0.276
55375W        W23749  31.118  35.465   2.737
55376W        W23750  36.960  38.920   1.741
55377W        W23751  26.023  26.025  12.484
55378W        W23752  42.427  11.624  10.970
55379W        W23753  26.989  31.984  10.991
55380W        W23754  22.999  23.070   1.256
55381W        W23755  12.610  38.378   3.187
55382W        W23756  22.071  19.591  12.471
55383W        W23757  12.741   9.212  11.095
55384W        W23758  34.491  12.752  14.465
55385W        W23759  41.486  20.583  10.437
55386W        W23760  25.055  13.310   4.310
55387W        W23761  30.529  44.762  11.960
55388W        W23762  24.094  31.402  14.414
55389W        W23763  24.629  17.605   3.228
55390W        W23764  31.426  30.538   0.902
55391W        W23765  17.161   9.219  14.448
55392W        W23766  37.500   7.319  10.468
55393W        W23767  28.595  20.568   0.908
55394W        W23768  34.393  22.677  12.417
55395W        W23769   4.942  37.337   0.745
55396W        W23770  11.291  25.592   4.239
55397W        W23771  27.111   2.849   3.320
55398W        W23772  12.191  23.157  14.853
55399W        W23773   9.872  42.811  12.543
55400W        W23774  12.267  34.026   1.922
55401W        W23775  25.543  20.605   4.225
55402W        W23776  14.800  32.421   3.661
55403W        W23777  39.516  36.951  10.492
55404W        W23778   6.866   0.427   1.821
55405W        W23779   0.838  24.004  13.961
55406W        W23780  21.735  37.528   0.255
55407W        W23781  44.284  35.051   3.313
55408W        W23782  29.947  39.979   1.885
55409W        W23783  23.030  36.433   3.373
55410W        W23784  30.535  30.089   3.252
55411W        W23785   6.276  44.392   0.310
55412W        W23786  27.639  42.394   2.357
55413W        W23787  26.644  39.450  10.945
55414W        W23788  19.216  28.997  12.976
55415W        W23789  14.311  26.084  13.446
55416W        W23790   0.416  25.082  12.903
55417W        W23791  40.355  32.599   2.718
55418W        W23792  27.076  36.908  12.874
55419W        W23793  37.551  29.026  12.990
55420W        W23794  19.759  16.642   3.861
55421W        W23795  34.419  30.131   4.736
55422W        W23796  41.848   9.789  12.942
55423W        W23797  31.119  24.078   1.420
55424W        W23798  34.057  12.129  13.946
55425W        W23799  42.455  42.979   0.937
55426W        W23800  10.238  20.060  10.548
55427W        W23801  27.132   0.827  10.015
55428W        W23802  15.588  30.532   4.141
55429W        W23803  41.910  35.965   1.382
55430W        W23804   9.280   2.883  12.043
55431W        W23805  20.750  13.737  11.073
55432W        W23806  33.121  30.455  12.418
55433W        W23807   6.793  21.028  14.425
55434W        W23808  44.831  15.677   1.227
55435W        W23809  25.621  22.524  10.612
55436W        W23810  33.620  18.635  14.463
55437W        W23811   0.857  20.546   1.421
55438W        W23812   7.703  35.455  13.446
55439W        W23813  22.638  27.593   3.171
55440W        W23814  34.611  16.670   4.828
55441W        W23815  10.842   7.693   2.310
55442W        W23816  41.894  12.137  11.520
55443W        W23817   3.219  31.578  11.945
55444W        W23818  38.884  12.298  13.538
55445W        W23819  41.001   0.310  13.063
55446W        W23820   5.726  21.140   3.184
55447W        W23821  13.836  10.175  10.454
55448W        W23822  17.779   8.697   3.781
55449W        W23823  24.725  19.138  13.429
55450W        W23824   7.185  22.236   3.665
55451W        W23825   8.802  41.376  12.882
55452W        W23826  29.972  41.885  10.565
55453W        W23827   0.465  32.574  11.097
55454W        W23828  26.112  27.593  13.859
55455W        W23829  17.153   5.800  14.309
55456W        W23830  27.493  26.699  14.835
55457W        W23831  43.987  27.018   1.285
55458W        W23832  13.691  28.650   4.785
55459W        W23833  40.008  23.563   3.790
55460W        W23834  16.682  20.083   4.142
55461W        W23835  23.693  18.245  11.945
55462W        W23836  32.475  28.551  10.418
55463W        W23837   9.857  24.138   4.648
55464W        W23838  15.252  17.300  12.090
55465W        W23839  23.721  20.110   2.898
55466W        W23840  30.993  11.363  14.765
55467W        W23841  43.328  34.572   0.960
55468W        W23842  29.099  42.312   1.725
55469W        W23843   0.890  11.802   1.426
55470W        W23844  18.734  38.466   0.252
55471W        W23845  32.402  40.485  13.413
55472W        W23846  17.614  23.133  12.839
55473W        W23847   7.209  36.859  11.581
55474W        W23848  38.007  23.086  11.106
55475W        W23849  33.046  16.795  12.869
55476W        W23850  11.783  23.130  10.951
55477W        W23851  18.547  16.180  12.847
55478W        W23852  19.728  11.351   0.946
55479W        W23853  37.346  30.578  10.915
55480W        W23854   6.336  34.999   2.294
55481W        W23855  38.384  17.097  12.349
55482W        W23856  40.521  17.626  10.578
55483W        W23857  35.511   9.180   0.332
55484W        W23858   1.779   1.766  10.486
55485W        W23859  23.079   1.256   1.847
55486W        W23860  19.634  38.058  12.546
55487W        W23861  27.956   9.206  11.876
55488W        W23862  19.584  31.574   0.866
55489W        W23863  24.636  39.867   0.788
55490W        W23864   1.411   2.449   2.739
55491W        W23865  31.069  29.442   0.765
55492W        W23866  39.956  31.910   3.772
55493W        W23867   9.871  32.014   1.701
55494W        W23868  16.287  10.816  13.517
55495W        W23869  21.100   7.883  13.442
55496W        W23870   1.244  26.696   4.661
55497W        W23871  17.275   8.354  10.517
55498W        W23872  26.093  32.588   4.254
55499W        W23873   6.288  44.817   1.924
55500W        W23874  21.050  22.617   3.315
55501W        W23875  18.211  31.524  13.332
55502W        W23876   6.731  38.356   1.704
55503W        W23877  20.087  38.405  13.911
55504W        W23878  27.971  41.293   1.811
55505W        W23879  38.042  43.917  14.286
55506W        W23880  27.133   3.265  11.455
55507W        W23881  27.634  20.222   1.441
55508W        W23882  34.865   1.774   4.736
55509W        W23883  30.923  30.153  13.809
55510W        W23884   8.343  21.166  12.986
55511W        W23885  27.451  39.958  13.372
55512W        W23886  15.131  23.103   1.880
55513W        W23887  19.675  42.960   4.833
55514W        W23888  20.177  26.597  14.303
55515W        W23889  25.996  25.121   4.236
55516W        W23890  31.914  25.091   1.231
55517W        W23891   5.766  38.900   4.809
55518W        W23892   6.873  41.485   1.323
55519W        W23893  37.556  18.616  13.857
55520W        W23894  40.424   4.826  10.152
55521W        W23895  12.766  14.303   4.329
55522W        W23896  34.550  30.542  11.962
55523W        W23897  18.650  35.876   4.820
55524W        W23898  38.925  14.252   0.388
55525W        W23899  34.027  13.319  11.442
55526W        W23900  27.157   3.360   4.729
55527W        W23901  24.682  36.384  14.344
55528W        W23902   5.276  29.137   2.378
55529W        W23903  17.615  40.887   3.736
55530W        W23904  39.497  24.013  11.409
55531W        W23905  42.317  12.751  13.475
55532W        W23906  29.551  39.535   4.822
55533W        W23907  27.972  35.003   4.725
55534W        W23908   4.910  21.641   0.939
55535W        W23909  44.391  35.959   3.327
55536W        W23910  44.756  29.655  11.393
55537W        W23911   8.367  22.727  13.792
55538W        W23912  26.653   4.850   4.136
55539W        W23913  21.656  43.790   4.311
55540W        W23914  15.096  17.224  11.535
55541W        W23915  18.597   0.975  12.519
55542W        W23916  39.436  26.205  10.645
55543W        W23917   9.316  32.982  14.930
55544W        W23918  23.687   1.399  12.339
55545W        W23919  44.991   5.400   2.296
55546W        W23920   4.310   0.316   0.443
55547W        W23921  40.408  12.214  12.367
55548W        W23922  31.967  37.571   0.370
55549W        W23923  13.632   3.776  11.502
55550W        W23924  31.619  31.115  12.508
55551W        W23925   6.361   6.309   3.233
55552W        W23926  36.567   8.876  10.126
55553W        W23927  35.955  31.143  10.600
55554W        W23928  28.633  43.912   2.242
55555W        W23929   6.880  38.526   0.354
55556W        W23930   4.407  33.013   4.222
55557W        W23931  44.879  36.422   0.251
55558W        W23932  44.305  31.430   4.242
55559W        W23933  14.811  34.395   4.603
55560W        W23934  30.421  28.047  12.577
55561W        W23935  13.686  30.934   1.720
55562W        W23936  27.481   9.797   4.117
55563W        W23937  33.919  13.163   4.743
55564W        W23938  44.308  11.802   1.703
55565W        W23939   7.803  31.010  12.429
55566W        W23940  42.336  43.958  12.974
55567W        W23941  32.101  38.359   0.903
55568W        W23942   8.353  30.655  11.001
55569W        W23943  34.483  13.740   1.425
55570W        W23944  30.042   8.831   1.807
55571W        W23945  34.028  12.769   4.761
55572W        W23946   8.900  36.531  14.004
55573W        W23947   7.745  36.576   2.804
55574W        W23948  20.738  17.600   2.402
55575W        W23949  16.195   7.224  12.422
55576W        W23950  34.073  29.496  11.110
55577W        W23951  35.532  14.773   4.310
55578W        W23952  27.002   4.887   2.340
55579W        W23953  15.814  40.504   0.916
55580W        W23954  36.046   1.294  12.356
55581W        W23955  27.099  14.745  13.325
55582W        W23956  28.982  22.537  13.837
55583W        W23957  19.585  27.198   4.295
55584W        W23958  10.308  27.943  11.386
55585W        W23959  32.432   6.749   2.389
55586W        W23960  34.047  21.590  11.482
55587W        W23961  42.299  24.075  14.848
55588W        W23962   4.279   8.280   2.209
55589W        W23963  12.131  43.887  14.490
55590W        W23964  14.834  41.944   3.696
55591W        W23965   9.864  11.289   1.415
55592W        W23966  17.636  41.471   4.313
55593W        W23967  29.000  40.308   3.728
55594W        W23968  30.941  24.591  12.484
55595W        W23969   1.415  16.249  13.820
55596W        W23970  14.277   3.727  14.456
55597W        W23971  38.923  19.622   1.441
55598W        W23972  12.673  13.348  13.954
55599W        W23973  14.598  15.255  10.582
55600W        W23974  41.910   2.761   2.299
55601W        W23975  21.681  13.688   0.820
55602W        W23976  23.989  15.799  12.908
55603W        W23977  23.078   8.181  12.485
55604W        W23978  32.593  36.434  12.499
55605W        W23979  33.624  15.601  12.860
55606W        W23980  35.454   3.419   1.346
55607W        W23981  10.338   9.242  14.375
55608W        W23982  29.948  31.979  10.147
55609W        W23983  15.638  12.715   1.785
55610W        W23984  35.507  17.565   3.200
55611W        W23985  29.564  33.515   4.605
55612W        W23986  36.868  15.136   3.205
55613W        W23987  41.458  42.992   2.768
55614W        W23988   2.729  36.924   4.174
55615W        W23989   3.358  30.510  10.432
55616W        W23990  21.691  26.055   3.759
55617W        W23991   0.912  24.516   0.890
55618W        W23992  16.645  12.721  10.411
55619W        W23993  37.476   3.416  12.074
55620W        W23994  31.606  41.325   2.413
55621W        W23995  15.135   6.691   4.749
55622W        W23996   9.762  30.504   0.401
55623W        W23997   2.856  42.438  11.902
55624W        W23998  17.753  35.015  11.576
55625W        W23999  13.158  15.618  11.867
55626W        W24000  30.490   6.197   3.340
55627W        W24001  12.800   8.788   5.158
55628W        W24002  38.426   8.785   3.341
55629W        W24003  28.963  33.977  12.921
55630W        W24004   2.802  27.614   4.289
55631W        W24005   0.401  24.210  10.907
55632W        W24006  40.522  40.815  10.463
55633W        W24007  19.163  20.241  14.495
55634W        W24008   6.821  27.992   3.714
55635W        W24009  35.363  19.733  13.822
55636W        W24010  17.748   7.174   4.616
55637W        W24011  25.659   0.785   1.812
55638W        W24012  36.559  37.012  12.561
55639W        W24013   1.947  17.732  14.430
55640W        W24014  16.574   1.407  13.004
55641W        W24015  11.688  15.786  13.892
55642W        W24016  34.561  10.307   2.679
55643W        W24017  24.497  34.514  14.912
55644W        W24018  20.274   9.357  11.036
55645W        W24019  28.615  35.520  14.491
55646W        W24020   0.301   5.695  12.544
55647W        W24021  30.992  24.044  14.424
55648W        W24022  11.206  26.608  13.928
55649W        W24023   7.829  36.039  10.628
55650W        W24024  36.935  27.996  12.092
55651W        W24025  27.970  25.037  12.888
55652W        W24026  38.048  32.424  13.834
55653W        W24027  14.101  37.554  13.862
55654W        W24028  21.676   6.199  11.484
55655W        W24029  38.482  30.137   1.709
55656W        W24030  30.982  12.629  14.943
55657W        W24031  44.950  27.122   4.627
55658W        W24032  17.306  41.829  14.870
55659W        W24033  13.184  11.221  10.889
55660W        W24034  18.669  40.879  10.922
55661W        W24035  34.387  15.263  12.033
55662W        W24036  44.316  12.210   1.364
55663W        W24037  18.739  34.429  12.861
55664W        W24038  37.058   1.474   2.865
55665W        W24039  42.282  27.536   3.855
55666W        W24040  23.018  10.805  10.463
55667W        W24041  20.239  22.151   4.786
55668W        W24042   5.293  29.057  11.068
55669W        W24043  13.649   8.403   0.764
55670W        W24044  29.462  10.838   3.151
55671W        W24045  13.628  28.438  10.600
55672W        W24046  41.029  18.689   3.334
55673W        W24047  38.401  20.048  11.488
55674W        W24048   4.776  24.178   4.720
55675W        W24049  40.418  13.663   2.403
55676W        W24050  22.725  25.567  11.857
55677W        W24051   0.270  36.922   2.317
55678W        W24052   5.735   7.743   4.706
55679W        W24053  27.027  13.616   2.901
55680W        W24054  11.364  44.309   3.305
55681W        W24055  12.818   4.278   1.225
55682W        W24056   8.231  35.579   3.226
55683W        W24057  15.276  13.621   0.401
55684W        W24058   3.731  20.685  11.120
55685W        W24059  23.077  44.382   2.237
55686W        W24060  41.044   3.900  14.014
55687W        W24061  24.566   8.228   0.310
55688W        W24062  33.883  26.604  14.974
55689W        W24063   1.768  36.447  14.889
55690W        W24064  10.360  20.046   5.731
55691W        W24065  15.287  22.142   4.690
55692W        W24066  11.135   3.860  13.045
55693W        W24067   9.791  35.106  13.839
55694W        W24068  13.261   8.204   3.161
55695W        W24069   3.276  31.448  12.903
55696W        W24070  40.304  33.522   0.453
55697W        W24071   0.781  36.589  10.987
55698W        W24072   7.822  19.624   0.428
55699W        W24073   3.941  15.117   0.269
55700W        W24074  27.961  38.056  10.983
55701W        W24075  21.601   0.437  11.116
55702W        W24076  12.286  43.404   2.842
55703W        W24077   6.812  34.596  11.914
55704W        W24078  29.985  37.030   1.806
55705W        W24079  22.692   2.872   0.410
55706W        W24080  13.334  21.134  14.416
55707W        W24081  42.515   5.732  14.433
55708W        W24082  16.790  14.137  12.031
55709W        W24083  28.182  26.622   4.660
55710W        W24084   5.697  30.908   1.361
55711W        W24085  24.623  28.134  12.553
55712W        W24086  30.428  44.445   3.171
55713W        W24087   5.228  24.116   2.778
55714W        W24088   9.861  43.801   4.304
55715W        W24089   5.720  20.696   4.728
55716W        W24090  15.108  29.478   3.863
55717W        W24091  35.410   5.361  12.848
55718W        W24092  10.246  25.214   2.260
55719W        W24093  35.857  34.607   3.844
55720W        W24094   9.697  23.605  14.953
55721W        W24095  17.698  25.121  14.015
55722W        W24096   0.978   2.935  13.502
55723W        W24097  23.155  13.279  10.480
55724W        W24098  38.424  18.596   3.643
55725W        W24099   7.401  44.890  11.880
55726W        W24100   3.374  26.648   3.209
55727W        W24101  15.240  14.105   3.717
55728W        W24102  17.777   8.240   1.917
55729W        W24103  41.797  32.613  11.963
55730W        W24104  34.076  11.633   2.763
55731W        W24105   6.775  25.614  12.043
55732W        W24106  10.878  39.560  12.079
55733W        W24107  20.741   0.880   1.320
55734W        W24108  10.316  35.074   2.192
55735W        W24109  39.468  39.397  11.433
55736W        W24110   0.303  20.560  11.011
55737W        W24111  13.778  20.192   0.344
55738W        W24112  16.800   0.278  11.009
55739W        W24113   8.197  41.489  11.069
55740W        W24114   5.330  20.057   4.341
55741W        W24115  37.416   3.258  12.375
55742W        W24116   0.281   5.690  11.541
55743W        W24117   0.929  19.632   2.805
55744W        W24118  23.075   1.825  14.474
55745W        W24119  12.704  42.383   0.748
55746W        W24120  32.090  27.567  13.917
55747W        W24121  42.963  37.574   2.278
55748W        W24122   8.400  34.440   2.687
55749W        W24123  28.025   0.868   3.253
55750W        W24124  20.069  34.527   4.238
55751W        W24125  25.693  16.689  11.412
55752W        W24126  19.587  33.620   1.412
55753W        W24127   9.201   6.781  11.915
55754W        W24128  40.019  26.178   4.224
55755W        W24129  19.190   4.418  10.462
55756W        W24130   9.699  18.286  12.968
55757W        W24131  15.312  27.526   0.858
55758W        W24132  15.803   3.282  13.542
55759W        W24133  23.037  29.046   9.932
55760W        W24134  40.398  13.167  12.932
55761W        W24135   8.796  32.055   2.739
55762W        W24136  27.099  30.011  13.995
55763W        W24137  35.000   3.244  12.515
55764W        W24138   6.828  16.257  11.967
55765W        W24139  12.643  29.134   2.186
55766W        W24140  35.394  39.057   2.412
55767W        W24141  29.158   1.802   1.310
55768W        W24142  37.057  30.519   2.304
55769W        W24143   8.207  38.822   3.796
55770W        W24144  19.588  34.489   2.323
55771W        W24145  32.519  29.066  10.606
55772W        W24146  31.092  31.526  12.380
55773W        W24147   0.815  31.624  10.569
55774W        W24148  44.934  24.038  12.449
55775W        W24149  35.997  11.855   4.619
55776W        W24150  13.746  32.602   2.713
55777W        W24151  44.760  41.023   4.316
55778W        W24152  17.169  31.077  14.348
55779W        W24153  16.085   0.925   2.369
55780W        W24154  32.607   3.853   2.756
55781W        W24155   0.816  31.037   2.880
55782W        W24156  10.654  43.410   1.802
55783W        W24157  28.007  40.486   3.193
55784W        W24158   1.749  19.663  11.120
55785W        W24159  24.607   2.330   1.378
55786W        W24160  25.509  39.552   1.864
55787W        W24161  30.104  15.248  10.450
55788W        W24162  40.941  35.860   1.831
55789W        W24163  19.195   7.217   3.170
55790W        W24164  11.802  21.756  13.352
55791W        W24165   4.943  18.183  14.879
55792W        W24166   9.836   0.769   3.243
55793W        W24167  29.086   8.178   1.239
55794W        W24168  18.785  35.453   0.482
55795W        W24169  38.955   9.834   4.781
55796W        W24170  34.922  39.534  13.316
55797W        W24171  44.365  41.999  11.465
55798W        W24172  38.856  17.096   9.978
55799W        W24173  21.150   1.744  11.606
55800W        W24174  13.635  43.461   0.757
55801W        W24175  26.123  13.293   1.407
55802W        W24176  18.143   0.376  14.002
55803W        W24177  13.205  10.677   3.861
55804W        W24178  32.915  36.016  14.447
55805W        W24179  26.491  28.565   2.752
55806W        W24180  39.347  29.106   2.287
55807W        W24181  26.488  30.427   1.295
55808W        W24182   1.345  41.036  11.017
55809W        W24183  10.147   3.789   9.940
55810W        W24184  22.057  24.019   2.718
55811W        W24185   2.411  30.623   2.700
55812W        W24186  20.718  29.444  12.056
55813W        W24187  10.703  32.129  14.905
55814W        W24188  32.981  41.831  10.567
55815W        W24189  30.541   3.938   2.832
55816W        W24190  36.439  28.640   2.843
55817W        W24191  36.885  41.883   4.599
55818W        W24192  32.506  41.355  14.796
55819W        W24193  20.540  30.542  13.463
55820W        W24194  22.230  19.743  13.890
55821W        W24195  13.636  34.579  13.378
55822W        W24196   1.406  22.685  11.870
55823W        W24197  16.685   1.855   3.782
55824W        W24198  37.870  20.235  12.923
55825W        W24199  41.300  37.924  11.522
55826W        W24200   1.777  24.214   5.294
55827W        W24201   0.447   5.926  12.857
55828W        W24202   5.806  24.660   0.439
55829W        W24203  42.336  35.937  11.510
55830W        W24204   4.832  37.941  11.948
55831W        W24205  43.940   0.903   1.844
55832W        W24206  18.061  36.043   2.287
55833W        W24207  36.562  31.461  11.869
55834W        W24208  29.545   0.309   5.259
55835W        W24209   3.314  41.350   0.445
55836W        W24210  38.887  28.598   3.347
55837W        W24211  22.511   3.226   4.809
55838W        W24212  28.562  12.157  12.946
55839W        W24213  31.944  44.357   4.192
55840W        W24214   7.243  36.976   0.815
55841W        W24215   9.657   7.244   2.675
55842W        W24216  36.032   8.195   1.911
55843W        W24217  28.015  40.320  12.968
55844W        W24218  24.124   3.449   3.355
55845W        W24219  41.361  28.175   0.860
55846W        W24220  30.657   1.295  12.039
55847W        W24221  14.338  33.431   4.784
55848W        W24222  27.130  25.165   4.599
55849W        W24223   9.838  40.372  14.417
55850W        W24224  33.486   1.736   9.950
55851W        W24225  14.813  28.516  11.075
55852W        W24226   4.903  32.907   4.279
55853W        W24227   6.405  26.205   0.840
55854W        W24228  24.557  34.500  10.426
55855W        W24229   3.322  40.522  12.344
55856W        W24230  26.657   9.352  13.531
55857W        W24231  14.829  20.147  14.451
55858W        W24232  32.450  33.439  11.049
55859W        W24233  42.852   6.764   2.209
55860W        W24234  42.901  44.881   0.788
55861W        W24235  24.172  10.294  13.030
55862W        W24236  36.879  35.551   0.960
55863W        W24237  32.992  21.511   1.397
55864W        W24238   5.916  12.144  12.068
55865W        W24239  32.576  27.054  13.943
55866W        W24240  22.622  15.323   0.952
55867W        W24241  37.383  23.985   4.796
55868W        W24242  36.989  24.976   1.214
55869W        W24243  24.117  13.639  12.448
55870W        W24244  43.350   8.660  13.813
55871W        W24245  39.333  35.585   0.931
55872W        W24246  24.688   6.749   2.856
55873W        W24247  13.251  39.528   3.198
55874W        W24248  41.888  40.453   3.827
55875W        W24249  24.080  17.176  13.366
55876W        W24250   0.467   3.771   4.780
55877W        W24251   6.235  39.494  11.898
55878W        W24252   9.755   7.414   2.215
55879W        W24253  22.040   7.415   3.286
55880W        W24254   2.759  42.995   3.806
55881W        W24255  26.971  19.236   4.644
55882W        W24256   2.943  37.081   2.252
55883W        W24257   9.820  31.106  11.986
55884W        W24258  22.712   1.466  11.535
55885W        W24259  37.467  36.092  12.543
55886W        W24260  35.434  36.078  13.433
55887W        W24261   9.791  17.671  11.391
55888W        W24262  15.811  10.211   1.223
55889W        W24263  21.100  20.075   2.183
55890W        W24264  38.908  19.078   1.811
55891W        W24265  28.551  25.557  13.365
55892W        W24266  40.003  22.547   4.183
55893W        W24267  19.621  34.105  10.472
55894W        W24268  17.241  33.006  12.046
55895W        W24269  23.227  35.477   3.663
55896W        W24270  33.010  41.816  14.318
55897W        W24271  15.235  29.440   0.859
55898W        W24272  33.963  30.581  10.983
55899W        W24273  43.496  41.904   4.256
55900W        W24274  17.265  34.382   4.187
55901W        W24275  13.674  44.465  10.425
55902W        W24276   7.755   7.286  14.379
55903W        W24277   0.259  30.529   3.780
55904W        W24278  36.012  44.448   0.851
55905W        W24279  26.974  21.224  12.902
55906W        W24280  25.656   0.326   0.330
55907W        W24281   7.787  22.156  13.435
55908W        W24282  18.597  27.156  11.575
55909W        W24283  25.191  39.341  11.958
55910W        W24284  36.026  38.042  10.444
55911W        W24285  11.312   5.408  12.412
55912W        W24286  13.732  18.641  13.900
55913W        W24287  14.131  38.973  13.811
55914W        W24288   0.456  12.119   3.784
55915W        W24289  29.577  19.542  14.011
55916W        W24290  24.116  23.544   2.379
55917W        W24291  23.530  33.878   2.379
55918W        W24292  40.407  16.571  14.405
55919W        W24293  26.207  19.709  12.887
55920W        W24294  17.062  18.137  13.967
55921W        W24295  25.061  11.762   1.882
55922W        W24296  37.470  27.096   2.876
55923W        W24297  12.308   7.348   0.473
55924W        W24298  14.636  13.740  11.585
55925W        W24299  16.310   4.438   4.783
55926W        W24300   5.693  22.618  14.868
55927W        W24301   7.260  29.950   2.774
55928W        W24302   2.251  35.991   1.810
55929W        W24303  29.033  15.820   4.222
55930W        W24304  24.049  10.362   2.315
55931W        W24305  15.124  43.844   1.883
55932W        W24306  42.838   2.236   1.759
55933W        W24307  43.852  10.325  12.042
55934W        W24308  12.356  17.200   1.420
55935W        W24309  14.320  31.114   0.316
55936W        W24310   6.246   5.914  13.483
55937W        W24311  38.024   2.324  12.091
55938W        W24312   6.831  39.409   2.270
55939W        W24313  20.176  34.438   1.851
55940W        W24314  38.513  28.022  12.069
55941W        W24315  23.183  16.092   0.889
55942W        W24316  22.075  38.022  11.427
55943W        W24317  23.130  10.819  12.422
55944W        W24318  34.509  37.492   2.281
55945W        W24319  35.931   9.732  12.486
55946W        W24320  27.528   9.263  13.883
55947W        W24321  17.175   4.260   1.250
55948W        W24322  37.337  15.632   0.770
55949W        W24323   2.890   7.233  11.992
55950W        W24324  32.466  42.962  12.488
55951W        W24325  13.633  25.669  12.925
55952W        W24326  23.024   1.321  10.916
55953W        W24327   7.348  44.433  14.381
55954W        W24328  13.641  33.503   2.370
55955W        W24329  31.107  20.538  13.047
55956W        W24330  16.699  12.288   0.883
55957W        W24331  22.677  10.827  10.553
55958W        W24332   8.851   7.799   5.320
55959W        W24333   2.446   1.257  12.048
55960W        W24334  10.213  42.888  10.089
55961W        W24335  19.114  23.543  11.587
55962W        W24336   8.375  40.906  13.463
55963W        W24337  30.108  14.137  11.430
55964W        W24338   3.256  17.710   0.329
55965W        W24339  10.211  12.823  14.886
55966W        W24340  11.782  24.575   4.184
55967W        W24341  15.194  42.297  12.391
55968W        W24342  20.172  37.993   9.527
55969W        W24343  41.392   8.327   3.647
55970W        W24344  31.122  24.991   1.749
55971W        W24345   3.817  43.022   0.879
55972W        W24346   4.832  23.543   5.097
55973W        W24347  28.929   5.779  13.394
55974W        W24348  38.884  42.981   4.631
55975W        W24349   8.165  42.833  14.374
55976W        W24350  20.198  32.059  14.995
55977W        W24351  42.952   3.783   4.342
55978W        W24352  11.153  42.887   0.265
55979W        W24353  16.772  26.057  12.345
55980W        W24354  25.651  24.085  11.993
55981W        W24355  38.439  40.931  11.887
55982W        W24356  30.919   3.393   4.306
55983W        W24357  30.450   8.720   4.316
55984W        W24358  11.624  14.240  10.891
55985W        W24359  10.865  25.003   5.238
55986W        W24360  21.669   6.891  11.897
55987W        W24361  12.632  35.413   3.711
55988W        W24362  36.900  10.364   1.873
55989W        W24363   0.383  12.802   1.694
55990W        W24364  42.991  40.834  13.387
55991W        W24365  15.123  39.370   2.271
55992W        W24366  33.456  24.980  12.471
55993W        W24367   8.336  32.073  11.384
55994W        W24368   2.900  17.092  12.497
55995W        W24369  28.115   1.787   2.269
55996W        W24370  15.809   2.423  11.956
55997W        W24371   0.288  22.558   4.795
55998W        W24372  43.342  37.517   0.346
55999W        W24373  14.303  14.194  11.507
56000W        W24374  30.042  40.011   0.408
56001W        W24375  41.436  31.527  10.535
56002W        W24376   2.372  30.611   1.381
56003W        W24377   4.716  22.560   4.609
56004W        W24378  32.460   9.322   2.885
56005W        W24379  17.568  22.679  11.489
56006W        W24380   7.893   8.793  13.474
56007W        W24381  21.722   9.319  12.005
56008W        W24382  22.710  37.045   3.818
56009W        W24383  38.406  16.198   0.793
56010W        W24384   4.438   6.706  12.061
56011W        W24385  24.669  31.107   2.231
56012W        W24386   1.921   4.305   2.310
56013W        W24387  15.785  27.154  12.857
56014W        W24388  39.991   0.344   3.870
56015W        W24389  16.573  35.375   3.747
56016W        W24390  27.035  28.970  11.420
56017W        W24391   9.247  27.155  10.408
56018W        W24392  41.344   1.279  11.929
56019W        W24393   8.205   6.207  11.043
56020W        W24394  24.697  42.868   2.734
56021W        W24395  41.787   0.966   0.927
56022W        W24396  44.503   1.824  11.549
56023W        W24397  10.688  36.493   4.168
56024W        W24398  42.404  18.730  14.011
56025W        W24399  29.023  13.810   2.796
56026W        W24400  25.599  26.149   0.856
56027W        W24401  27.665  35.959  10.549
56028W        W24402   4.746  26.673   2.182
56029W        W24403   2.899  39.850   4.236
56030W        W24404  32.534  17.590  13.410
56031W        W24405   6.709  16.594  13.918
56032W        W24406  32.036   6.279  10.421
56033W        W24407  42.876   5.814   3.150
56034W        W24408  32.056  38.034   2.346
56035W        W24409  38.464  13.794   2.700
56036W        W24410  10.293   6.783   3.289
56037W        W24411  20.624  31.520   1.700
56038W        W24412  32.551  24.174   2.760
56039W        W24413  35.904  26.016  13.532
56040W        W24414  12.840  10.762   3.225
56041W        W24415  36.518   7.896   3.854
56042W        W24416  38.831   5.891   0.906
56043W        W24417   2.807  28.497   3.761
56044W        W24418  27.135  28.953   4.608
56045W        W24419  40.959  26.630   2.700
56046W        W24420  44.796  23.217   3.720
56047W        W24421  26.664  19.191  14.455
56048W        W24422  33.384  31.600   0.737
56049W        W24423   6.921  16.811   4.656
56050W        W24424  22.050  14.164  10.577
56051W        W24425  42.500   0.375  12.470
56052W        W24426  14.633  23.637   1.799
56053W        W24427  25.040  44.344  11.063
56054W        W24428  35.028   3.439   3.375
56055W        W24429  36.901   9.357   3.783
56056W        W24430  28.565  21.155  12.941
56057W        W24431  21.577  44.842   0.411
56058W        W24432   4.247  25.710   2.372
56059W        W24433  10.139  18.157   4.345
56060W        W24434  11.216  37.485  10.536
56061W        W24435  42.871  32.619  10.416
56062W        W24436  25.695   2.966  11.106
56063W        W24437  39.521  29.997  10.932
56064W        W24438  39.421  12.677  14.355
56065W        W24439   7.750   3.364   1.757
56066W        W24440  27.641   6.865   1.388
56067W        W24441  33.431  29.466   1.766
56068W        W24442   6.349   5.828  12.552
56069W        W24443   3.952  18.111  12.950
56070W        W24444  38.366  38.997   4.277
56071W        W24445  10.736  16.648  13.485
56072W        W24446  43.003  34.023  13.413
56073W        W24447  34.120  11.727   4.260
56074W        W24448   2.356  34.034   2.227
56075W        W24449  25.051  27.138   4.342
56076W        W24450  34.899  41.826   1.430
56077W        W24451  14.217  13.274  13.522
56078W        W24452  37.498   5.401  14.821
56079W        W24453   4.724  15.211   5.104
56080W        W24454  44.805   3.897  13.907
56081W        W24455  27.139   3.226  14.999
56082W        W24456  28.647  18.181  10.491
56083W        W24457  39.358   9.294  14.024
56084W        W24458   8.819  22.066  10.435
56085W        W24459  42.924  20.070   1.446
56086W        W24460  15.323  21.751   4.294
56087W        W24461   9.723  26.085  14.477
56088W        W24462  36.026   7.782  10.997
56089W        W24463  39.896  39.421   3.172
56090W        W24464  25.115  34.108   3.362
56091W        W24465  40.338   8.286   5.235
56092W        W24466  43.378   9.250  10.461
56093W        W24467  27.067  10.779  11.063
56094W        W24468  12.671  44.281   0.467
56095W        W24469  27.494  43.361  10.971
56096W        W24470  26.022  35.098  11.111
56097W        W24471  31.479  14.118   2.706
56098W        W24472  15.178  10.709  14.803
56099W        W24473   9.687  41.002  13.523
56100W        W24474  21.245   4.748   4.320
56101W        W24475  21.731  28.115  10.547
56102W        W24476   1.829  42.374   1.427
56103W        W24477  14.154   0.806   3.775
56104W        W24478   3.811   4.415   1.889
56105W        W24479   0.963  44.280   3.226
56106W        W24480   4.370  18.748  14.407
56107W        W24481   3.460  11.724   0.833
56108W        W24482   7.816  24.724   2.307
56109W        W24483  27.971  41.304  13.926
56110W        W24484  35.006   1.930  11.875
56111W        W24485  44.948  14.214   0.816
56112W        W24486  41.903  40.936  11.605
56113W        W24487   3.791  44.987  13.023
56114W        W24488  11.285   0.320  14.343
56115W        W24489  32.011  40.410  11.505
56116W        W24490  38.983  33.126   0.263
56117W        W24491  22.613  25.536   2.810
56118W        W24492  17.075   7.837   4.752
56119W        W24493  15.761  26.549  11.019
56120W        W24494  31.113   0.277   3.341
56121W        W24495   8.782   8.340   2.361
56122W        W24496  21.236  18.124   1.271
56123W        W24497  26.650  17.089   2.801
56124W        W24498   9.339  10.351  12.824
56125W        W24499   8.228  25.558   0.756
56126W        W24500  20.084  13.317  12.505
56127W        W24501  36.053  30.135  12.400
56128W        W24502  37.888   7.722  11.955
56129W        W24503   2.805  10.289  10.064
56130W        W24504   5.366  14.320   4.120
56131W        W24505  30.563  40.889   3.680
56132W        W24506  12.186  37.542   0.942
56133W        W24507   7.320   9.376   1.232
56134W        W24508  26.486  11.154  13.868
56135W        W24509  38.844  13.833  14.299
56136W        W24510  20.672  42.015   3.224
56137W        W24511  32.024  30.633  11.453
56138W        W24512  30.091  38.408   1.931
56139W        W24513   0.384   9.388  13.394
56140W        W24514  32.983  28.952  13.814
56141W        W24515  35.861  40.986   2.409
56142W        W24516  32.450  25.006   4.310
56143W        W24517  19.655   3.431   4.744
56144W        W24518  25.017   2.937   2.193
56145W        W24519  42.012  38.874   0.820
56146W        W24520  20.156  28.177  13.386
56147W        W24521  11.841  20.123   3.834
56148W        W24522  14.180  19.108  14.391
56149W        W24523  34.898  16.710   2.233
56150W        W24524  24.031  14.786   0.372
56151W        W24525   0.317  33.984   2.790
56152W        W24526  42.399  43.475   3.294
56153W        W24527   7.712   6.283  10.050
56154W        W24528  21.536   2.366  13.843
56155W        W24529  22.542  20.646   2.751
56156W        W24530  39.478  30.606  11.916
56157W        W24531  24.589  21.092  12.084
56158W        W24532  19.746  35.562   3.846
56159W        W24533  16.218  17.795   3.340
56160W        W24534   4.409  28.970  12.348
56161W        W24535   2.249   9.758   3.174
56162W        W24536   3.215  23.538  13.391
56163W        W24537  26.952  43.932   2.785
56164W        W24538  11.860  25.999  12.911
56165W        W24539  18.663   8.216   0.844
56166W        W24540   5.219  33.986  11.991
56167W        W24541  18.631  20.028  11.068
56168W        W24542  21.113  12.832  14.418
56169W        W24543  39.836  15.661  11.524
56170W        W24544  10.781  16.182  12.372
56171W        W24545  16.661  25.992  10.511
56172W        W24546  23.140  39.955   3.644
56173W        W24547  33.419  15.704  14.790
56174W        W24548  10.212  27.115  13.433
56175W        W24549  25.217  14.320   4.236
56176W        W24550  40.981   5.782  14.281
56177W        W24551  24.603  35.984   2.855
56178W        W24552  39.877   1.447   4.829
56179W        W24553   4.865  23.526  14.377
56180W        W24554  21.108  43.438  11.983
56181W        W24555  26.623  40.896  13.377
56182W        W24556  39.812   7.851  13.491
56183W        W24557  15.295  44.859  14.296
56184W        W24558  31.531  44.862   4.294
56185W        W24559  32.032  35.553   2.340
56186W        W24560  17.584  44.985   3.849
56187W        W24561  13.671  38.450  13.426
56188W        W24562  13.804   9.233   9.993
56189W        W24563  38.558  10.140  13.499
56190W        W24564  10.760   2.834   4.598
56191W        W24565  25.482  12.161   3.856
56192W        W24566  33.527  23.109   4.832
56193W        W24567  28.620  20.050   2.294
56194W        W24568   6.910  30.155   0.957
56195W        W24569  26.617  37.858   2.720
56196W        W24570  21.139   7.843   0.837
56197W        W24571  19.604  43.880   2.876
56198W        W24572  33.909  42.930   1.437
56199W        W24573  23.231  36.893  11.077
56200W        W24574  31.485   1.468  13.858
56201W        W24575  43.329  32.127   0.276
56202W        W24576  37.931  13.635   3.690
56203W        W24577   0.490  16.731   4.276
56204W        W24578  41.324  22.563   1.776
56205W        W24579  13.602   5.756   1.445
56206W        W24580  43.478  23.713   3.156
56207W        W24581   4.360  18.738   3.288
56208W        W24582  10.315  11.330   1.695
56209W        W24583   6.805  32.981   0.412
56210W        W24584  26.683   9.306  11.588
56211W        W24585  11.357  28.523  12.095
56212W        W24586  36.551   2.930  14.895
56213W        W24587  17.713   7.712  14.955
56214W        W24588  15.640   5.756   5.156
56215W        W24589   8.831   2.431   2.820
56216W        W24590  32.911  18.280   1.378
56217W        W24591  19.204  41.919   4.292
56218W        W24592  38.999  41.935   3.739
56219W        W24593   1.892  17.757  13.342
56220W        W24594  19.084  26.098   3.671
56221W        W24595  36.999  14.607  10.898
56222W        W24596   5.376  22.654  13.854
56223W        W24597   1.894  33.982  14.013
56224W        W24598  30.950  44.912  11.451
56225W        W24599   1.927   5.354  14.296
56226W        W24600  10.285  23.518   2.666
56227W        W24601   5.860  32.994  11.511
56228W        W24602   8.392  40.848   4.232
56229W        W24603  20.702   6.883   0.884
56230W        W24604  12.614  13.766  13.923
56231W        W24605   1.422   4.743   4.684
56232W        W24606  41.791  35.033  13.827
56233W        W24607  33.119   7.188   3.783
56234W        W24608  41.804  21.180  13.009
56235W        W24609   8.327  12.281   0.853
56236W        W24610   4.747  44.334   2.354
56237W        W24611  21.025  43.439   1.773
56238W        W24612   8.369   3.768  11.472
56239W        W24613  44.839  10.736   2.316
56240W        W24614  14.293  23.194   4.344
56241W        W24615  31.992  39.812   3.754
56242W        W24616  33.510  41.355   5.267
56243W        W24617   5.886  27.691  13.523
56244W        W24618  36.998  36.457  14.907
56245W        W24619  14.779   8.359   3.196
56246W        W24620   8.359  39.451  11.402
56247W        W24621   7.821  23.651   3.282
56248W        W24622  18.262   5.808  13.035
56249W        W24623  33.571  18.717   1.297
56250W        W24624   8.808  41.406   4.154
56251W        W24625  20.255  25.481   3.697
56252W        W24626  12.804  13.228  12.419
56253W        W24627   6.223  42.505  10.508
56254W        W24628  39.362  30.137  13.950
56255W        W24629  11.252  19.150  12.082
56256W        W24630  37.011  28.127  14.503
56257W        W24631  11.826  17.566   1.364
56258W        W24632  40.995  30.993  14.301
56259W        W24633  16.178  15.242   1.716
56260W        W24634  41.984  20.575   1.761
56261W        W24635   6.421  37.367   2.217
56262W        W24636  16.129  25.575   2.391
56263W        W24637  29.630   5.196   4.353
56264W        W24638  27.171  24.067   1.306
56265W        W24639   9.276  20.245   4.709
56266W        W24640  41.916  35.602  11.490
56267W        W24641  20.182  16.303   0.475
56268W        W24642  15.788  32.927  12.555
56269W        W24643  19.051  40.324   4.159
56270W        W24644  25.127  40.846  12.960
56271W        W24645  34.873  34.599  13.926
56272W        W24646   6.267  38.390  10.473
56273W        W24647   4.921   4.360  11.942
56274W        W24648  42.896  31.576   4.268
56275W        W24649  37.476  25.064  11.433
56276W        W24650  17.269  28.173  12.412
56277W        W24651  24.979  20.084  10.522
56278W        W24652  17.644  42.935  14.788
56279W        W24653  22.681   4.872   3.695
56280W        W24654  20.068  12.717   2.870
56281W        W24655  15.646  14.125  14.311
56282W        W24656  11.373  39.523  11.378
56283W        W24657  14.094  41.014  14.841
56284W        W24658  44.894   5.398   1.424
56285W        W24659  19.052  24.672  14.764
56286W        W24660   6.318   2.449  11.025
56287W        W24661  18.778   6.259  14.835
56288W        W24662  14.813  30.566   1.889
56289W        W24663  28.537  29.572  11.096
56290W        W24664  13.221  35.568  14.834
56291W        W24665  43.447  39.961  10.590
56292W        W24666  29.446  16.633  13.380
56293W        W24667  10.337  43.274  12.435
56294W        W24668  21.712   6.380  10.507
56295W        W24669  36.847   4.735  13.515
56296W        W24670  24.493  42.863  10.512
56297W        W24671  22.740  25.995   1.426
56298W        W24672  41.320   2.376   2.331
56299W        W24673  43.392  21.154  13.947
56300W        W24674  33.439  17.747   2.824
56301W        W24675   0.272  19.734   1.253
56302W        W24676   0.275   5.399  11.601
56303W        W24677  11.285  44.370  11.890
56304W        W24678  10.786  39.321   0.272
56305W        W24679  38.366  29.426   2.796
56306W        W24680   8.363  24.542   4.711
56307W        W24681  39.541  41.392   4.279
56308W        W24682  20.160   8.804  12.512
56309W        W24683  26.584  29.099   3.220
56310W        W24684  34.526  21.593  14.283
56311W        W24685  18.167  31.967   3.700
56312W        W24686  42.316  44.446  11.450
56313W        W24687  35.954  30.534   0.248
56314W        W24688  20.618  14.773  12.356
56315W        W24689  23.634  33.461   2.359
56316W        W24690  24.132   9.869   2.267
56317W        W24691  18.061  33.995   0.939
56318W        W24692  34.089  19.060   3.204
56319W        W24693   3.253   9.230   0.380
56320W        W24694  39.513  15.710  11.031
56321W        W24695  11.208   8.161   4.806
56322W        W24696   6.782   0.811  11.011
56323W        W24697   9.182  44.913   2.408
56324W        W24698  40.390  43.812  11.475
56325W        W24699  30.546   5.280   4.718
56326W        W24700  22.134  33.053  13.963
56327W        W24701  21.571  34.873  14.379
56328W        W24702  11.192  22.133  12.884
56329W        W24703  20.172  21.708   3.789
56330W        W24704   1.924  21.715   3.381
56331W        W24705  11.227  10.829  12.435
56332W        W24706  42.903  19.721  12.568
56333W        W24707   7.697  44.501   1.879
56334W        W24708  29.104  41.482  11.036
56335W        W24709  33.897   8.862  11.921
56336W        W24710  34.417   7.737  11.475
56337W        W24711  11.843  38.541  11.073
56338W        W24712  24.681  18.589   1.237
56339W        W24713  13.218  30.077   2.376
56340W        W24714  17.154  28.569  14.875
56341W        W24715  16.154  43.399   3.842
56342W        W24716  23.997  40.952  12.829
56343W        W24717   2.291   2.449   4.159
56344W        W24718   9.242  36.422   3.181
56345W        W24719  32.921  12.644   3.807
56346W        W24720   2.897  43.805  10.907
56347W        W24721   5.929  40.360  11.416
56348W        W24722  10.752  33.389  10.631
56349W        W24723  17.642  26.070  14.449
56350W        W24724  33.398   0.354   3.806
56351W        W24725  19.222  37.433   3.270
56352W        W24726  38.543  39.456   1.787
56353W        W24727  15.173  37.473  10.437
56354W        W24728   3.282  11.729   2.376
56355W        W24729  42.940   3.720  14.382
56356W        W24730  16.228  44.844   1.428
56357W        W24731  17.706  36.411   3.791
56358W        W24732  17.773   8.882  13.516
56359W        W24733  20.590  33.453  12.516
56360W        W24734  44.781   0.317  11.372
56361W        W24735  19.258  25.971   2.665
56362W        W24736  18.263  18.233  11.039
56363W        W24737  26.554  31.508  11.967
56364W        W24738   3.872  32.630  13.893
56365W        W24739  16.242  24.096   4.158
56366W        W24740  24.706  13.188  13.316
56367W        W24741  20.095  19.748   4.622
56368W        W24742  27.519  19.576   1.405
56369W        W24743  11.748  21.581  10.455
56370W        W24744  21.161  40.957   3.188
56371W        W24745   9.163   8.729   3.791
56372W        W24746  20.674  28.546   0.448
56373W        W24747  16.146  13.819  10.577
56374W        W24748  11.316  43.834   2.233
56375W        W24749  13.327   9.251  10.893
56376W        W24750  12.742   7.699   0.322
56377W        W24751  28.014  20.247   3.195
56378W        W24752  21.091  13.130  14.921
56379W        W24753  17.779  30.122   3.316
56380W        W24754  36.051  11.345   0.939
56381W        W24755   1.837  28.074  11.577
56382W        W24756  33.038  30.111   0.888
56383W        W24757  12.314  10.233  11.428
56384W        W24758  43.478  32.515  14.758
56385W        W24759  15.296  44.443   3.701
56386W        W24760  39.882  22.226   0.901
56387W        W24761  27.683  14.285  14.445
56388W        W24762  38.045   9.715  11.087
56389W        W24763  40.520  40.378   2.691
56390W        W24764  13.320  16.287   4.801
56391W        W24765   1.483   9.338   4.713
56392W        W24766  10.212  34.390   3.187
56393W        W24767  33.975  18.648   4.131
56394W        W24768   6.806  11.788   1.903
56395W        W24769  25.100   3.945   2.865
56396W        W24770  32.923  39.924  11.531
56397W        W24771  12.755  38.957   3.320
56398W        W24772  33.022  17.739   2.370
56399W        W24773  26.956  44.776   3.699
56400W        W24774   2.844  32.618  11.021
56401W        W24775  13.237   0.982   2.416
56402W        W24776  41.859  25.084  11.087
56403W        W24777  27.991  28.554   2.704
56404W        W24778  25.639  32.557  10.486
56405W        W24779  37.046  17.585   2.219
56406W        W24780  41.799  32.536   4.137
56407W        W24781   9.313  40.871   0.373
56408W        W24782  29.668  30.645   0.773
56409W        W24783  19.141  23.634  14.302
56410W        W24784  43.487  40.321  13.459
56411W        W24785  39.906   3.785   2.865
56412W        W24786   3.420  31.976   2.718
56413W        W24787  36.847  12.632  10.902
56414W        W24788  13.107  18.086   3.208
56415W        W24789   3.876  13.697  14.277
56416W        W24790   4.838  10.238   2.247
56417W        W24791  41.945  33.019  10.921
56418W        W24792   2.783  39.342  10.493
56419W        W24793  32.562   8.844  13.382
56420W        W24794  11.368   8.384   2.805
56421W        W24795  20.660  16.296   2.867
56422W        W24796  37.571  27.944   0.833
56423W        W24797  34.560  20.060  14.494
56424W        W24798  41.917  27.543   3.720
56425W        W24799  19.748  14.698   0.333
56426W        W24800  14.797  33.585   1.838
56427W        W24801   8.874  22.105   4.693
56428W        W24802  17.231  28.518   2.757
56429W        W24803  28.931  29.455   1.224
56430W        W24804  13.271  20.154   2.225
56431W        W24805  17.651  10.752   3.792
56432W        W24806   0.451  14.099   1.844
56433W        W24807   6.266  16.141   2.734
56434W        W24808  32.030  35.384  14.504
56435W        W24809   5.903  35.110   2.839
56436W        W24810  21.233  20.059  10.591
56437W        W24811  44.939  18.650  13.417
56438W        W24812  34.444  18.100  12.898
56439W        W24813  18.100  24.518   2.851
56440W        W24814  31.557   8.174   2.896
56441W        W24815   8.777  11.232  12.072
56442W        W24816   2.934  35.055   2.350
56443W        W24817  12.312  10.756   3.868
56444W        W24818  42.463   8.860  13.015
56445W        W24819  20.112  36.501   2.352
56446W        W24820  34.911  30.601   1.871
56447W        W24821  35.030  23.098  13.379
56448W        W24822  32.623  17.675  14.397
56449W        W24823  42.925  17.296   2.350
56450W        W24824  44.425   6.406   4.722
56451W        W24825  28.940  13.203  11.005
56452W        W24826   6.251  19.206   2.845
56453W        W24827  42.320  28.451   2.330
56454W        W24828  41.787  44.420  14.980
56455W        W24829  24.982  26.030   1.734
56456W        W24830  29.583  27.632   1.262
56457W        W24831  18.750  26.056   4.143
56458W        W24832   6.266  21.091  13.490
56459W        W24833  10.317   1.866   1.913
56460W        W24834  44.280  14.690  13.425
56461W        W24835   5.253  29.537  12.916
56462W        W24836   1.918  32.886  11.960
56463W        W24837  32.636  44.923  12.030
56464W        W24838  24.215  29.507   9.604
56465W        W24839   8.235  21.213  14.398
56466W        W24840  35.042  15.267   3.718
56467W        W24841   2.359  39.053  12.071
56468W        W24842  39.340  41.415   3.304
56469W        W24843  24.597   0.909  11.899
56470W        W24844  11.689  12.786  12.919
56471W        W24845  15.113  21.589  10.556
56472W        W24846   4.435  11.673   2.675
56473W        W24847   4.782  33.936   1.716
56474W        W24848  25.686   7.385  10.570
56475W        W24849  14.747  37.410  10.453
56476W        W24850  36.368  15.319   1.839
56477W        W24851  13.233   7.245   3.369
56478W        W24852  24.119  13.308   1.709
56479W        W24853   5.193   2.780   2.393
56480W        W24854  21.528  41.311  13.422
56481W        W24855   7.905  28.593   3.363
56482W        W24856  36.941  41.889  14.806
56483W        W24857   2.786   7.893   1.262
56484W        W24858  33.626  11.755  14.359
56485W        W24859  21.611  39.429   1.852
56486W        W24860   8.281  15.216  14.276
56487W        W24861   0.356  23.709   3.769
56488W        W24862  16.118  16.608  13.028
56489W        W24863  13.772  31.633  12.363
56490W        W24864  14.600   9.330  12.084
56491W        W24865  20.163  38.499  12.361
56492W        W24866  32.981  37.530  13.865
56493W        W24867  43.352  28.554   0.325
56494W        W24868   6.744  16.717   2.726
56495W        W24869   6.185  12.797  11.020
56496W        W24870  36.955   9.328  14.826
56497W        W24871  38.015   3.380   1.801
56498W        W24872  11.281  42.956  14.798
56499W        W24873  26.026   9.684  12.970
56500W        W24874  25.586  33.488   2.350
56501W        W24875  29.152   1.789   3.358
56502W        W24876  32.407  18.131   0.764
56503W        W24877   4.292   0.362  12.933
56504W        W24878  43.012  29.593   0.294
56505W        W24879  31.422  29.034   2.851
56506W        W24880  17.119  27.194   2.329
56507W        W24881  23.130  40.306   2.761
56508W        W24882  21.096  20.035  13.440
56509W        W24883  41.403  30.650  13.861
56510W        W24884  37.478   2.909  12.829
56511W        W24885  40.493  41.457  13.913
56512W        W24886   7.752   7.210   4.341
56513W        W24887  43.437  22.246  12.380
56514W        W24888  15.328  10.320   1.361
56515W        W24889  32.900   8.823   1.824
56516W        W24890  37.470  17.148   2.781
56517W        W24891  26.134  32.133  11.888
56518W        W24892  31.612   0.981   2.194
56519W        W24893  39.880   0.915  13.423
56520W        W24894   0.282  31.511  11.055
56521W        W24895  14.298  33.621   1.708
56522W        W24896  19.711   0.840  11.546
56523W        W24897  20.647  36.446   1.400
56524W        W24898  19.599  35.601  13.442
56525W        W24899  10.682  21.533   4.690
56526W        W24900  27.998  34.490  11.860
56527W        W24901  38.547  25.509   3.374
56528W        W24902   8.327  34.069   1.921
56529W        W24903  27.975  41.399   5.221
56530W        W24904  35.989  38.515   3.712
56531W        W24905  17.228   9.769  12.037
56532W        W24906  31.152  34.402  12.016
56533W        W24907  19.121  14.181   1.336
56534W        W24908  36.462  37.002  14.918
56535W        W24909  15.729   7.798   3.661
56536W        W24910  14.276  23.003   4.723
56537W        W24911  44.469  39.972   1.888
56538W        W24912   5.238  27.463  13.522
56539W        W24913   3.831  35.554  11.980
56540W        W24914  14.674  36.098  13.054
56541W        W24915  42.331  24.564   2.206
56542W        W24916  41.796  35.558  14.885
56543W        W24917  20.681  20.595   3.688
56544W        W24918  28.510  36.435   0.904
56545W        W24919  20.172  31.422   1.851
56546W        W24920  27.125  15.206  14.018
56547W        W24921  25.522  21.084  12.912
56548W        W24922  43.982   8.400  12.919
56549W        W24923   8.871  41.978   1.820
56550W        W24924  11.340  43.887  10.499
56551W        W24925  42.019  34.088   4.741
56552W        W24926  11.646  22.689   3.230
56553W        W24927  31.497  17.277  13.029
56554W        W24928  43.798  33.468   4.643
56555W        W24929  42.824  18.240   2.348
56556W        W24930   0.929  40.395   3.684
56557W        W24931  38.525  18.761   3.246
56558W        W24932  17.632  33.884  13.907
56559W        W24933  29.985  15.730   2.232
56560W        W24934  11.703  22.245  10.548
56561W        W24935  38.530  13.766  11.490
56562W        W24936  22.548   4.231  12.952
56563W        W24937  14.769  15.765   2.275
56564W        W24938   0.785  22.072   2.888
56565W        W24939  16.140  36.069  11.980
56566W        W24940  32.085  35.519  12.476
56567W        W24941  28.488  18.555  11.593
56568W        W24942   9.278  10.277  10.095
56569W        W24943  14.323  30.143  12.532
56570W        W24944  12.654  12.359  11.922
56571W        W24945  12.710  42.887  12.982
56572W        W24946  34.905  23.987   1.842
56573W        W24947  23.646  18.240   0.274
56574W        W24948  36.498  15.692  10.500
56575W        W24949   2.438  38.388  10.441
56576W        W24950   6.356  19.588  11.518
56577W        W24951  38.865  16.269   4.806
56578W        W24952   5.830   0.771  13.878
56579W        W24953  12.837  42.855   3.677
56580W        W24954  39.478  32.956  13.322
56581W        W24955  12.143   4.916  13.532
56582W        W24956  26.080  44.405  14.295
56583W        W24957  37.942   2.883  11.500
56584W        W24958   2.830   9.153   4.241
56585W        W24959  21.666  28.952   4.750
56586W        W24960  36.447  19.238  11.408
56587W        W24961  13.607   1.858  14.511
56588W        W24962  16.745  41.041  11.924
56589W        W24963   1.759  19.655  13.058
56590W        W24964   6.865   6.363  11.586
56591W        W24965  28.180   2.230  10.485
56592W        W24966  14.324  36.922  13.027
56593W        W24967  25.690  11.649   1.328
56594W        W24968  19.247  12.715   0.887
56595W        W24969  11.639   6.678   4.755
56596W        W24970  14.832  38.508  12.893
56597W        W24971  32.929  25.546   1.781
56598W        W24972  26.693   9.153   1.766
56599W        W24973  40.372  37.515   3.793
56600W        W24974   4.331  22.654   0.317
56601W        W24975  21.105   8.211   4.262
56602W        W24976  18.757  43.493   1.355
56603W        W24977   5.245  41.453   1.723
56604W        W24978  40.822  44.259   2.199
56605W        W24979  31.031  35.487   3.720
56606W        W24980  12.203  22.031   0.777
56607W        W24981  11.712  17.196  10.596
56608W        W24982  20.124  27.968  10.632
56609W        W24983  24.170  29.173   3.692
56610W        W24984   0.802   6.203  14.908
56611W        W24985   0.795  40.973   1.756
56612W        W24986  25.065  23.197   0.933
56613W        W24987  24.989  19.209   4.726
56614W        W24988   2.873   3.363   1.268
56615W        W24989  34.606  27.510   0.748
56616W        W24990  31.457   5.307   2.208
56617W        W24991  20.029   3.780  13.369
56618W        W24992  20.169  27.112   4.729
56619W        W24993   7.783  10.213  14.436
56620W        W24994   0.451  14.783   3.324
56621W        W24995  13.743  13.810   1.274
56622W        W24996  11.811  13.833  13.370
56623W        W24997  35.399  14.655  12.472
56624W        W24998  41.508  34.989  12.894
56625W        W24999  44.928  10.290  12.880
56626W        W25000  38.931  41.939   2.895
56627W        W25001  33.412  19.236  10.481
56628W        W25002  14.732   3.871   3.662
56629W        W25003  41.878  18.594  13.525
56630W        W25004  38.443  19.165  14.844
56631W        W25005   1.930   1.324  12.008
56632W        W25006   1.254  32.453  14.336
56633W        W25007  34.872  43.774   3.374
56634W        W25008  37.069  36.546  10.969
56635W        W25009  38.566  39.987  13.415
56636W        W25010  37.419  42.922   0.870
56637W        W25011  29.487   5.747  11.404
56638W        W25012  23.606  42.025   1.290
56639W        W25013   8.796   2.878  11.960
56640W        W25014   1.818  34.921   0.846
56641W        W25015  12.350  26.205  11.864
56642W        W25016  14.216  13.154   1.406
56643W        W25017   1.818   2.838  14.483
56644W        W25018   9.238  10.256   3.320
56645W        W25019  20.146   6.219  11.898
56646W        W25020  16.121  19.181   0.935
56647W        W25021  20.263   0.396  12.904
56648W        W25022  28.081   6.723   3.292
56649W        W25023   4.385   1.920   0.767
56650W        W25024   5.358   6.209  12.555
56651W        W25025  42.353  18.082   4.141
56652W        W25026  31.086  19.155   2.690
56653W        W25027  32.904  44.996   3.212
56654W        W25028   2.720  10.265  10.522
56655W        W25029  37.973  17.080  13.899
56656W        W25030  22.175  44.815   0.247
56657W        W25031  40.497  44.425  14.780
56658W        W25032  32.529  43.866  14.869
56659W        W25033  30.458  42.931  11.557
56660W        W25034   1.312  41.468   4.710
56661W        W25035  14.753  44.822   1.890
56662W        W25036  24.171  30.455   2.269
56663W        W25037  37.550  39.359   1.902
56664W        W25038  28.979  27.685   1.724
56665W        W25039  21.665   7.354  13.858
56666W        W25040  15.708  36.502  14.435
56667W        W25041  15.731  43.875  12.868
56668W        W25042  24.183  28.491  11.560
56669W        W25043  42.869   8.888   4.694
56670W        W25044  20.086   0.344   0.254
56671W        W25045  27.106  23.067  14.508
56672W        W25046   5.210  30.061  10.891
56673W        W25047  30.087  19.223  11.519
56674W        W25048  38.866  38.496   1.300
56675W        W25049  32.493  14.724   2.780
56676W        W25050  26.050  27.595  12.084
56677W        W25051  20.227   4.763  10.070
56678W        W25052  36.448  18.296  10.077
56679W        W25053  40.305  16.676  14.781
56680W        W25054   8.873  18.219   3.640
56681W        W25055  20.081  16.715   0.917
56682W        W25056  33.121  30.528   4.712
56683W        W25057  28.018  40.517   0.465
56684W        W25058  11.362  18.544  14.872
56685W        W25059  23.505  39.037   9.450
56686W        W25060  17.062  17.131   0.944
56687W        W25061  12.669  18.113  11.453
56688W        W25062  33.480   6.922   3.163
56689W        W25063  41.915  44.930  13.833
56690W        W25064  21.119  36.093  11.391
56691W        W25065  25.708  29.449   1.913
56692W        W25066  32.887  44.408   2.838
56693W        W25067   9.360  35.031   0.726
56694W        W25068  17.588  25.096   1.346
56695W        W25069  44.841  15.148  11.550
56696W        W25070   4.373   9.874   1.249
56697W        W25071  35.051   4.756   4.771
56698W        W25072  27.940  44.325  12.499
56699W        W25073  31.033  33.960   3.317
56700W        W25074   8.833  41.518   0.835
56701W        W25075  27.009  33.017   0.863
56702W        W25076   4.365  43.887  13.998
56703W        W25077  32.935  14.762   2.683
56704W        W25078  22.656   0.744   4.282
56705W        W25079  35.894   9.814   3.197
56706W        W25080  12.653  43.901   1.899
56707W        W25081  16.738   5.853   2.277
56708W        W25082  22.017  31.905   2.241
56709W        W25083  44.499  12.791   4.134
56710W        W25084  29.489  33.402  11.564
56711W        W25085  11.218  30.646  14.460
56712W        W25086  37.867  32.928  12.079
56713W        W25087  31.002   9.846  10.493
56714W        W25088  29.591  36.388   0.243
56715W        W25089  41.859   1.956  12.873
56716W        W25090  20.034  37.353  11.566
56717W        W25091  22.562  37.832  14.856
56718W        W25092  14.234  10.187   1.347
56719W        W25093   4.388  29.067  13.022
56720W        W25094  12.347  33.933  11.879
56721W        W25095  11.778  42.361  13.425
56722W        W25096  37.545  37.344  12.558
56723W        W25097  42.830  40.436   5.197
56724W        W25098   2.806   6.857   3.832
56725W        W25099   4.256  32.629  12.004
56726W        W25100  40.407  12.311   3.232
56727W        W25101   4.782  13.324  12.569
56728W        W25102  24.556  27.034   2.676
56729W        W25103  30.433  30.595  13.378
56730W        W25104  11.670  10.875  12.563
56731W        W25105  18.766   4.815   1.283
56732W        W25106  12.751  13.131  10.928
56733W        W25107  32.033  30.472   3.212
56734W        W25108  35.953  30.936  13.869
56735W        W25109   9.381  33.616   3.267
56736W        W25110   6.681  25.633  12.495
56737W        W25111  41.994  12.195   1.270
56738W        W25112  14.605  37.074   4.258
56739W        W25113  43.418   7.789  11.453
56740W        W25114  35.935  29.936   1.403
56741W        W25115  42.342   3.943   4.825
56742W        W25116   7.714  19.275  11.099
56743W        W25117  30.992   8.400   1.746
56744W        W25118  31.923  26.699   4.629
56745W        W25119   2.913  11.683   4.812
56746W        W25120   4.914   4.351   1.329
56747W        W25121  35.419  19.565  14.457
56748W        W25122   2.284  38.027  14.957
56749W        W25123  40.804  37.368  13.060
56750W        W25124  12.182  33.904   2.858
56751W        W25125  19.080   0.844   2.267
56752W        W25126  32.996   3.418  14.332
56753W        W25127  18.051  12.679   0.353
56754W        W25128  21.729  44.773  14.955
56755W        W25129  36.566  19.576  10.044
56756W        W25130  38.865  19.171  11.410
56757W        W25131  18.570  33.025   4.340
56758W        W25132  13.800   4.873  12.946
56759W        W25133  36.975  18.051  12.948
56760W        W25134  15.757  16.645  12.878
56761W        W25135  35.037  24.136  11.080
56762W        W25136  38.471  32.069   4.116
56763W        W25137  10.327  29.037  14.801
56764W        W25138  40.409  36.497  14.940
56765W        W25139  34.486  16.156   0.391
56766W        W25140  13.111  12.658   0.800
56767W        W25141  30.003   1.303   3.659
56768W        W25142   5.370  25.072  11.403
56769W        W25143  16.154  28.644   4.621
56770W        W25144   6.850   5.921  14.429
56771W        W25145  15.604   8.221  11.071
56772W        W25146  27.518  35.951   2.902
56773W        W25147  44.953  42.907   3.170
56774W        W25148  29.480  40.907   2.282
56775W        W25149  40.429  29.595   9.966
56776W        W25150  26.053  40.529  12.986
56777W        W25151  30.648  20.702  11.012
56778W        W25152  12.360  20.645  11.128
56779W        W25153  30.122  29.478  12.876
56780W        W25154  13.227   4.284   2.694
56781W        W25155  29.522  31.111   1.710
56782W        W25156   5.843  18.124   2.233
56783W        W25157   0.808  26.558   2.385
56784W        W25158  40.373  29.520   5.177
56785W        W25159  14.772  39.978  10.598
56786W        W25160  12.706  32.969  10.595
56787W        W25161  43.321  38.050  11.118
56788W        W25162   7.213   9.688  14.887
56789W        W25163  41.014  37.916   1.909
56790W        W25164  18.231  36.987   2.678
56791W        W25165  38.069  33.409  11.567
56792W        W25166  36.006   4.921   3.642
56793W        W25167   5.792  26.161  10.581
56794W        W25168  26.149   1.324   2.404
56795W        W25169  14.779  33.052   1.886
56796W        W25170  25.650   3.750  13.378
56797W        W25171   7.252  39.451   2.351
56798W        W25172  18.743   5.283  12.062
56799W        W25173   3.292  37.846  12.861
56800W        W25174   5.339  19.198   1.823
56801W        W25175  35.431  33.617   0.286
56802W        W25176  20.225  27.031   3.839
56803W        W25177   3.935  30.623  14.925
56804W        W25178  10.158   8.762  14.778
56805W        W25179  30.078  23.615   4.173
56806W        W25180  15.680  41.323   5.273
56807W        W25181  41.314  15.302   1.419
56808W        W25182  13.237  22.242   3.364
56809W        W25183  41.858  24.084  13.935
56810W        W25184  28.977   4.705  12.071
56811W        W25185  30.461  34.973   2.366
56812W        W25186  18.175   2.266   1.709
56813W        W25187  44.416  32.940  13.419
56814W        W25188  10.711  34.612   0.379
56815W        W25189  28.538  43.005  11.894
56816W        W25190  28.464  26.186  13.932
56817W        W25191  21.107   0.937  11.931
56818W        W25192  28.059  15.788   0.355
56819W        W25193   6.287  32.595   1.801
56820W        W25194  22.566   3.932   1.895
56821W        W25195   2.316   3.451   1.919
56822W        W25196  44.772  17.300   2.389
56823W        W25197   3.792  21.104   0.828
56824W        W25198  10.342  16.236  14.764
56825W        W25199  31.043  16.132  12.910
56826W        W25200  40.522  10.350   2.281
56827W        W25201  30.495  40.384   2.901
56828W        W25202  28.529  35.502   0.385
56829W        W25203   0.285  20.751  13.978
56830W        W25204   0.897   5.327   1.700
56831W        W25205   6.750  17.781   0.364
56832W        W25206  29.582   9.264   2.385
56833W        W25207  43.411  35.583  13.391
56834W        W25208  38.399  40.967  14.926
56835W        W25209  23.658  43.827  12.406
56836W        W25210   3.814  34.608  13.465
56837W        W25211  35.893  35.468   3.346
56838W        W25212  12.274  43.459   3.191
56839W        W25213  23.683  16.118   1.288
56840W        W25214  30.008   4.702  13.366
56841W        W25215   6.315  12.243   4.323
56842W        W25216  24.079  41.946  14.392
56843W        W25217  35.055   5.895   2.350
56844W        W25218  18.790  24.157  10.481
56845W        W25219  26.483   0.849  10.069
56846W        W25220  10.168   2.768  14.835
56847W        W25221  11.186  44.406  13.462
56848W        W25222  43.351   6.693   2.243
56849W        W25223  29.577   8.690  11.385
56850W        W25224  36.061   9.159   3.352
56851W        W25225  18.227   6.744   1.867
56852W        W25226   4.750  15.795  11.562
56853W        W25227   1.369  33.110   1.261
56854W        W25228  40.908  44.394   1.893
56855W        W25229  33.948   7.760   4.206
56856W        W25230  38.368  20.195  14.457
56857W        W25231  16.718  33.113  11.997
56858W        W25232  12.294   2.813  13.021
56859W        W25233  37.420  13.652   2.755
56860W        W25234  31.984   1.786  13.942
56861W        W25235   5.719  15.129  13.438
56862W        W25236  28.091   6.303   5.316
56863W        W25237  24.064  17.136  12.066
56864W        W25238   3.454  32.552   1.321
56865W        W25239   8.760  41.438   2.369
56866W        W25240  35.960   3.302  13.351
56867W        W25241  13.714  40.494   3.723
56868W        W25242  26.584  16.671  11.030
56869W        W25243  26.001  14.700  12.083
56870W        W25244  24.103   1.343   2.334
56871W        W25245  44.989  18.755  11.111
56872W        W25246   5.327  17.069  14.830
56873W        W25247  18.216  32.554   0.250
56874W        W25248  17.620  30.422   3.304
56875W        W25249  10.800   1.837   0.470
56876W        W25250   3.240  39.491  14.795
56877W        W25251  32.510  43.853  12.011
56878W        W25252  29.174  22.058  13.531
56879W        W25253  19.677   3.930   1.854
56880W        W25254  18.689  17.212   4.639
56881W        W25255   1.750  25.165  12.443
56882W        W25256  42.008   4.716  10.441
56883W        W25257   7.751  38.877  13.938
56884W        W25258  29.148  11.240  14.944
56885W        W25259  31.633  37.977  14.329
56886W        W25260   8.177  24.499  12.566
56887W        W25261  25.191  40.981  12.467
56888W        W25262  32.042  10.381   0.329
56889W        W25263  36.975  39.942   0.409
56890W        W25264  41.518  27.556  10.952
56891W        W25265  35.504  15.750   2.360
56892W        W25266  37.536  36.934   4.191
56893W        W25267   7.312   6.708  12.018
56894W        W25268  28.521   4.833   1.886
56895W        W25269  20.727  32.958  14.514
56896W        W25270  34.969  13.769  12.344
56897W        W25271  19.053  31.949   1.752
56898W        W25272   9.763  11.650  14.334
56899W        W25273  18.632  32.889  12.345
56900W        W25274  15.229  31.548   1.697
56901W        W25275  43.489   2.779  14.488
56902W        W25276   2.441  22.658   0.826
56903W        W25277  41.312  27.105  11.985
56904W        W25278  24.140  35.885   4.696
56905W        W25279  44.489  43.359  10.447
56906W        W25280   9.854   0.432   0.824
56907W        W25281   3.781  20.132   2.679
56908W        W25282  25.468  15.676   0.747
56909W        W25283  24.541  10.152  10.457
56910W        W25284   1.896  44.806  13.851
56911W        W25285  12.330   9.157  12.371
56912W        W25286  13.781  38.007  11.595
56913W        W25287  25.659  34.432  11.933
56914W        W25288  20.080   2.379   4.698
56915W        W25289  13.794  10.145  10.907
56916W        W25290   3.724  36.059  12.953
56917W        W25291   1.409   5.888   3.286
56918W        W25292  20.270   5.933   2.308
56919W        W25293  18.240  31.571  12.847
56920W        W25294  38.376  26.183  11.596
56921W        W25295   4.770  42.017   3.816
56922W        W25296  36.359  12.641  11.481
56923W        W25297  35.014  25.519  14.795
56924W        W25298   2.844  28.173  10.406
56925W        W25299   7.746   2.936   0.787
56926W        W25300   6.237   8.351   3.817
56927W        W25301  10.701  10.294  13.042
56928W        W25302  16.252  28.042   2.249
56929W        W25303  34.959  42.286   4.710
56930W        W25304  28.004  20.099   0.881
56931W        W25305  26.482  38.834  13.356
56932W        W25306  16.102  14.293   3.200
56933W        W25307  13.623  30.573  12.406
56934W        W25308  43.346   4.726  11.989
56935W        W25309  28.084   5.894  12.524
56936W        W25310   3.871  27.072   3.366
56937W        W25311  41.897  42.412  10.925
56938W        W25312  18.108  14.695   4.752
56939W        W25313   8.667  43.292  14.318
56940W        W25314   2.803  32.940   1.708
56941W        W25315  36.880   3.866  13.375
56942W        W25316   1.801  30.912   4.226
56943W        W25317  42.352   3.288  10.473
56944W        W25318  16.783  16.700  12.967
56945W        W25319  11.790  43.012   0.949
56946W        W25320  33.542   3.826  14.391
56947W        W25321  43.974   6.694   1.906
56948W        W25322  28.967  18.108   4.835
56949W        W25323  23.716   4.427  12.027
56950W        W25324  18.051  35.942  10.602
56951W        W25325  18.761  20.529   3.364
56952W        W25326  26.034  21.137   0.898
56953W        W25327  33.615  22.036  13.806
56954W        W25328  13.622   5.322  12.097
56955W        W25329  38.863  40.350   0.932
56956W        W25330  14.827  13.835  10.892
56957W        W25331  35.528  25.028   1.785
56958W        W25332  19.679   7.363  10.425
56959W        W25333  26.992  10.314   3.783
56960W        W25334  38.927  17.753  14.325
56961W        W25335   3.255  10.647  13.995
56962W        W25336  40.011  25.179  14.864
56963W        W25337  37.462  12.292   0.375
56964W        W25338  34.608  16.175  12.396
56965W        W25339   2.724  20.669  14.915
56966W        W25340  41.976  44.792   0.829
56967W        W25341  23.622  18.282   1.839
56968W        W25342  36.353  32.546   1.902
56969W        W25343  18.289  33.038  13.428
56970W        W25344  30.141  42.783  14.327
56971W        W25345   2.258  33.444   1.797
56972W        W25346   3.288  19.041  11.481
56973W        W25347  32.982  16.701  11.116
56974W        W25348  34.051   8.768  13.857
56975W        W25349  26.009   4.738  14.298
56976W        W25350  20.245  43.323  12.945
56977W        W25351  35.873   6.364   3.222
56978W        W25352  28.029  36.872  14.477
56979W        W25353  12.262   5.783  10.477
56980W        W25354   7.860  10.273  12.960
56981W        W25355  42.418  41.460   1.865
56982W        W25356   4.440  12.348   2.875
56983W        W25357   9.283  44.449   2.246
56984W        W25358   4.383  17.282   3.786
56985W        W25359  25.218  17.724   0.346
56986W        W25360  13.768  26.973   3.242
56987W        W25361  17.134  34.397  14.476
56988W        W25362  20.229  29.059   4.236
56989W        W25363   2.747  18.583   3.259
56990W        W25364  43.857  21.600   4.648
56991W        W25365  31.975   1.793  12.554
56992W        W25366   0.955  38.327   3.788
56993W        W25367  40.846   9.195  10.497
56994W        W25368  33.619  19.163   3.287
56995W        W25369  20.168  12.201   2.889
56996W        W25370   1.466   3.322  12.901
56997W        W25371  22.056  23.091  12.979
56998W        W25372   7.771  33.390  13.791
56999W        W25373  16.662   0.916  14.383
57000W        W25374  34.410   4.787   2.189
57001W        W25375  31.585  22.010  11.897
57002W        W25376  18.595  39.544   2.224
57003W        W25377  16.295  20.043  12.918
57004W        W25378  44.275  26.059  14.389
57005W        W25379   2.785  24.560  11.485
57006W        W25380  19.572  37.417   0.449
57007W        W25381  33.970  20.163  13.838
57008W        W25382  34.028  21.523   3.245
57009W        W25383   4.843  25.554   0.845
57010W        W25384  24.542  30.523  13.804
57011W        W25385  15.143  35.100   2.757
57012W        W25386  41.475  26.087   1.292
57013W        W25387   5.809  26.163   5.246
57014W        W25388  28.466  25.057  12.832
57015W        W25389  27.464   8.266   1.349
57016W        W25390  12.785  18.737   5.258
57017W        W25391  34.438  22.737   0.407
57018W        W25392  23.680  12.333   0.281
57019W        W25393  38.349  40.946  14.279
57020W        W25394   6.769  37.999  14.456
57021W        W25395  11.307   6.904  11.420
57022W        W25396   8.354  19.759   0.340
57023W        W25397  38.027   4.887  12.341
57024W        W25398  37.445   6.891   9.569
57025W        W25399  41.477  16.094   1.812
57026W        W25400  15.655   7.783  10.905
57027W        W25401  35.383  26.181   2.215
57028W        W25402   6.236  31.555  12.000
57029W        W25403  12.277   6.911   3.712
57030W        W25404  34.609  41.338  13.509
57031W        W25405  26.153  14.281  11.564
57032W        W25406  42.886  10.641  12.479
57033W        W25407  17.651  35.072  10.626
57034W        W25408   6.715  32.082   2.680
57035W        W25409  39.548  28.458   4.707
57036W        W25410   2.896  17.284  11.394
57037W        W25411  27.521  27.079  14.899
57038W        W25412  21.672   2.872  11.111
57039W        W25413  26.509  17.583  14.856
57040W        W25414  25.152  17.556   2.666
57041W        W25415  22.048  29.433  11.601
57042W        W25416  29.563   5.700  10.039
57043W        W25417  25.687  11.193   0.912
57044W        W25418   7.790   8.866   1.771
57045W        W25419  11.644  26.191  10.026
57046W        W25420  26.647  32.580  10.552
57047W        W25421   0.885  37.395   0.244
57048W        W25422  18.195  29.045  10.605
57049W        W25423  38.351  10.640   0.835
57050W        W25424  20.737   7.754   3.677
57051W        W25425  39.013  21.638  14.399
57052W        W25426  11.229   7.261  13.906
57053W        W25427   8.286  22.559   1.303
57054W        W25428   9.669  15.329  12.025
57055W        W25429   4.443  23.496  12.977
57056W        W25430  31.421   1.757  12.086
57057W        W25431  10.638  23.587   3.820
57058W        W25432   7.364  16.255   3.321
57059W        W25433   1.386  16.109  11.568
57060W        W25434  44.964  38.435   3.847
57061W        W25435  31.137  30.983  10.489
57062W        W25436  17.095   2.912   0.276
57063W        W25437  12.662  39.450   0.882
57064W        W25438  34.447  14.728   0.756
57065W        W25439   9.764  16.744   0.429
57066W        W25440   0.428  26.580   3.212
57067W        W25441  15.643  36.470  12.500
57068W        W25442  13.237  33.057   1.908
57069W        W25443  37.477  19.779   3.375
57070W        W25444   6.721  14.201   2.388
57071W        W25445  10.375  18.064  12.390
57072W        W25446  28.059  21.142   0.329
57073W        W25447  24.525  41.315  13.932
57074W        W25448  18.558  36.521  12.488
57075W        W25449  30.528  35.458  10.603
57076W        W25450   3.955  25.010  11.467
57077W        W25451  16.567   7.299   1.407
57078W        W25452  23.697   4.889   3.357
57079W        W25453  35.950  37.447  10.510
57080W        W25454   4.722  40.355   4.717
57081W        W25455  16.233  26.694  13.061
57082W        W25456  23.129  32.407  14.775
57083W        W25457  15.709   2.823   3.166
57084W        W25458  44.349  35.098  13.385
57085W        W25459   7.859   1.877   3.827
57086W        W25460   5.209  40.928   0.842
57087W        W25461  28.166   3.447   0.247
57088W        W25462  34.486  33.000  12.531
57089W        W25463   5.706  36.948   3.228
57090W        W25464  40.821  36.521   2.802
57091W        W25465  11.218  42.894   3.324
57092W        W25466  43.936   9.826   0.313
57093W        W25467  34.021  33.081  13.002
57094W        W25468  35.019  12.824   4.688
57095W        W25469  40.861  26.102   0.859
57096W        W25470  19.068  17.794   1.793
57097W        W25471  15.822  42.425  12.472
57098W        W25472  39.895  23.103  10.576
57099W        W25473  37.953  20.045  11.513
57100W        W25474  42.358  32.588  14.301
57101W        W25475   6.680  14.806  11.488
57102W        W25476  13.278   2.890  12.542
57103W        W25477  32.007  20.576   2.265
57104W        W25478  19.573  24.175  13.964
57105W        W25479  21.243  38.836   1.412
57106W        W25480  28.681  18.683   2.752
57107W        W25481  34.532  23.036   2.187
57108W        W25482  31.010  40.013   3.218
57109W        W25483  26.078  10.825   3.169
57110W        W25484  30.033  18.739  13.838
57111W        W25485  38.071  10.380  11.010
57112W        W25486  43.950   3.283  12.497
57113W        W25487  44.304  23.103  13.363
57114W        W25488  33.902  38.916  10.494
57115W        W25489  28.667  10.696   2.876
57116W        W25490  15.328   9.804   2.897
57117W        W25491  39.884  29.040  13.444
57118W        W25492  10.195  42.290   3.343
57119W        W25493  11.242  17.564   2.749
57120W        W25494  20.726  17.707   0.842
57121W        W25495   2.398  23.686  12.562
57122W        W25496  18.117  27.028  11.932
57123W        W25497  19.189  11.791   0.793
57124W        W25498  22.651   8.175   3.335
57125W        W25499   6.797  25.130  11.453
57126W        W25500  41.986   7.736   3.365
57127W        W25501   8.312   8.881   0.262
57128W        W25502  39.343   0.260   0.244
57129W        W25503  32.416   9.847  12.990
57130W        W25504  31.087   5.260   4.201
57131W        W25505  27.500   0.410  13.432
57132W        W25506  43.282   6.824   4.288
57133W        W25507  23.646  13.641  13.033
57134W        W25508  27.945  19.211   4.834
57135W        W25509  11.239  14.113  12.543
57136W        W25510   3.936  12.300  10.499
57137W        W25511  13.203  19.682  12.358
57138W        W25512  40.919  26.545  14.852
57139W        W25513  11.352   6.257  12.901
57140W        W25514  14.209  21.748   0.932
57141W        W25515  36.843  26.084  14.285
57142W        W25516  29.452  28.629  10.500
57143W        W25517  41.906  43.926  12.350
57144W        W25518   0.921   5.301  13.445
57145W        W25519  27.128  14.289  12.994
57146W        W25520  24.564  31.115   0.373
57147W        W25521  33.584  33.592  10.448
57148W        W25522  36.870  35.401  14.381
57149W        W25523  18.091  23.177   4.206
57150W        W25524   1.772  21.569   4.253
57151W        W25525  34.591  19.155  10.560
57152W        W25526  30.593  36.460  12.544
57153W        W25527   3.368  14.109   3.815
57154W        W25528  18.242  23.643  14.391
57155W        W25529  31.474  16.299   0.430
57156W        W25530   5.738   4.268  10.032
57157W        W25531  28.459  41.443  12.042
57158W        W25532  13.301   1.358   4.680
57159W        W25533   7.851  24.505  10.091
57160W        W25534  11.242  21.029   2.753
57161W        W25535   5.902  43.335   1.694
57162W        W25536  26.624  35.894   2.903
57163W        W25537  15.583   7.853   4.805
57164W        W25538  22.188   5.717   2.318
57165W        W25539  43.342  39.482   1.891
57166W        W25540  36.533  38.870  10.499
57167W        W25541   2.856   9.763   3.689
57168W        W25542  40.455   8.253  11.092
57169W        W25543  38.461  42.977   2.792
57170W        W25544   1.343  24.064  14.924
57171W        W25545  22.596   3.327   1.433
57172W        W25546  17.211   3.449   0.431
57173W        W25547   7.301  34.483   4.789
57174W        W25548  26.469  33.407  12.954
57175W        W25549  40.508   7.239   0.825
57176W        W25550  40.950  19.556   1.304
57177W        W25551  37.471   4.250  13.920
57178W        W25552  16.132  10.144  13.462
57179W        W25553  38.898  39.383   4.261
57180W        W25554  30.024  44.300  11.519
57181W        W25555  29.449  12.244  14.355
57182W        W25556  29.661   3.876  10.951
57183W        W25557  17.153  22.222  12.843
57184W        W25558  31.418  25.141  12.061
57185W        W25559  29.424  16.274   0.783
57186W        W25560  42.844  36.357   0.399
57187W        W25561  12.692  21.737   0.331
57188W        W25562  40.985   3.817   4.326
57189W        W25563  32.053  36.015   3.271
57190W        W25564  34.110  37.420   1.859
57191W        W25565  13.627  10.729   9.601
57192W        W25566  25.099   8.185  13.997
57193W        W25567  19.665  24.487  14.975
57194W        W25568  32.092  18.270  11.503
57195W        W25569  36.509  22.638  11.084
57196W        W25570  14.667   9.245  13.388
57197W        W25571  31.942  30.084   3.233
57198W        W25572   5.245  31.505   4.628
57199W        W25573  41.821   8.699   2.762
57200W        W25574  19.589  39.902   3.340
57201W        W25575  36.922  10.876   3.695
57202W        W25576  32.081  16.698   1.417
57203W        W25577  12.795  19.184  11.924
57204W        W25578  13.148  35.939   3.330
57205W        W25579  36.909  43.300  13.395
57206W        W25580  11.285  39.339  10.944
57207W        W25581  16.663  12.761  12.993
57208W        W25582  37.436  18.616  11.946
57209W        W25583   5.373  25.997  12.419
57210W        W25584  35.876  39.006   4.313
57211W        W25585  40.974   8.404  14.928
57212W        W25586  39.459  36.919  14.304
57213W        W25587  30.443  36.051   1.217
57214W        W25588  26.681  40.820   0.331
57215W        W25589  22.024   8.176   2.742
57216W        W25590   6.833   8.748  13.344
57217W        W25591  42.968  36.073   4.287
57218W        W25592   3.261  41.893  13.824
57219W        W25593  13.786   3.300   3.802
57220W        W25594  16.778  37.993   1.339
57221W        W25595  13.249  19.112   0.773
57222W        W25596   0.875  28.185  13.985
57223W        W25597  15.263  20.640  11.460
57224W        W25598   7.283  36.457  10.936
57225W        W25599  31.473  20.655   1.883
57226W        W25600  16.083  39.326  12.848
57227W        W25601  21.080   4.825  10.113
57228W        W25602  23.126  39.351   0.378
57229W        W25603  15.644   6.234   4.146
57230W        W25604   0.426  15.095  13.392
57231W        W25605   4.357  37.842   1.443
57232W        W25606  40.916   3.235   1.427
57233W        W25607  38.000  19.260  13.439
57234W        W25608  10.634  39.995  13.370
57235W        W25609  43.823  26.010   3.380
57236W        W25610  44.927  30.162   3.220
57237W        W25611  15.128  29.985   1.414
57238W        W25612   5.763  28.531  11.526
57239W        W25613  16.094   0.838   1.365
57240W        W25614  16.234  38.976  10.477
57241W        W25615   7.304  36.862   4.318
57242W        W25616  27.475   8.196  11.977
57243W        W25617   2.805  42.429  14.327
57244W        W25618  40.339  31.975   5.160
57245W        W25619  35.529   9.716  11.439
57246W        W25620   1.268   5.843   4.779
57247W        W25621  30.415  18.766   0.955
57248W        W25622  26.187  14.780   1.329
57249W        W25623  42.487  43.818  13.363
57250W        W25624  21.085  26.550  11.554
57251W        W25625  26.548  25.579   4.228
57252W        W25626  25.966  10.292  10.951
57253W        W25627  13.179   1.360  13.040
57254W        W25628  39.464  37.041   4.795
57255W        W25629   9.790  18.649  12.089
57256W        W25630  32.904   8.800   1.318
57257W        W25631  38.543  12.263   0.847
57258W        W25632  29.481  27.591  11.055
57259W        W25633  10.794   7.363  10.495
57260W        W25634  15.595  33.021   4.329
57261W        W25635  25.530  13.185   2.807
57262W        W25636  28.163  32.631  12.941
57263W        W25637  40.940   5.882  10.938
57264W        W25638  39.490  37.465  12.061
57265W        W25639  24.725  12.812   0.734
57266W        W25640  12.620   4.219  13.480
57267W        W25641   2.903  20.215   1.709
57268W        W25642  29.979  20.614   0.341
57269W        W25643  41.317  41.523   2.375
57270W        W25644  15.692  10.280   4.228
57271W        W25645  28.447  37.900  14.916
57272W        W25646  12.779   4.878  14.920
57273W        W25647  34.082  21.574   2.264
57274W        W25648  44.361  34.432   4.142
57275W        W25649  41.302  40.352   0.956
57276W        W25650  15.683  18.701   4.282
57277W        W25651   3.805   3.287   2.400
57278W        W25652  18.760  32.546   3.340
57279W        W25653  31.970   0.827   4.126
57280W        W25654  20.523  11.645  13.387
57281W        W25655   2.914  16.576  10.960
57282W        W25656  39.322   6.224  11.482
57283W        W25657  38.403  36.423  14.321
57284W        W25658  26.624  24.674   0.856
57285W        W25659   7.345  27.091  12.990
57286W        W25660   0.337  21.636   2.409
57287W        W25661  16.226  36.358  13.883
57288W        W25662  22.665  10.806   4.291
57289W        W25663  34.375  21.035  10.547
57290W        W25664  22.568   8.759  13.875
57291W        W25665  17.761   3.303   3.339
57292W        W25666  25.172  13.126  14.965
57293W        W25667   4.699  29.021   2.693
57294W        W25668  20.140  29.061   0.964
57295W        W25669  41.825   3.322   1.862
57296W        W25670   9.857  19.631  13.837
57297W        W25671  10.667  32.492   1.316
57298W        W25672  38.908  19.591   2.823
57299W        W25673  39.014  23.518  11.395
57300W        W25674   4.702  29.523   0.258
57301W        W25675  11.771  39.546  10.554
57302W        W25676  24.548  42.348   1.337
57303W        W25677  44.781   1.415  13.395
57304W        W25678   9.393  40.385   2.703
57305W        W25679  33.618   2.371   3.854
57306W        W25680  21.131  18.650  12.839
57307W        W25681  17.204  28.026   4.190
57308W        W25682  34.938  41.992   3.825
57309W        W25683  12.180  27.544   3.247
57310W        W25684  21.021   9.245  12.076
57311W        W25685  42.431  20.194  11.587
57312W        W25686  28.514   9.756  12.385
57313W        W25687  15.639  17.690  14.487
57314W        W25688   2.819   7.852   3.651
57315W        W25689  15.722   1.759   1.329
57316W        W25690  19.259  41.460   1.449
57317W        W25691  24.638  31.027  13.917
57318W        W25692  13.316   2.462   2.312
57319W        W25693   6.676   3.225  10.937
57320W        W25694  22.132  10.801  12.509
57321W        W25695   8.705  23.171  11.091
57322W        W25696  28.115  28.499   0.427
57323W        W25697  23.191  27.947  13.434
57324W        W25698  37.475  24.061   4.119
57325W        W25699  26.466   0.945   0.864
57326W        W25700  44.407  17.163  11.069
57327W        W25701  18.787  28.659  11.578
57328W        W25702  43.940  18.223  11.578
57329W        W25703   3.226  36.983  13.833
57330W        W25704  13.172   6.786   3.302
57331W        W25705  39.540  38.556  10.461
57332W        W25706  12.787   3.711   2.215
57333W        W25707  23.575  12.246  12.438
57334W        W25708  16.312  11.140  12.847
57335W        W25709  11.162  22.554  14.975
57336W        W25710  18.097  27.120  13.025
57337W        W25711  31.511  14.304   3.289
57338W        W25712   8.876  19.669   4.653
57339W        W25713  34.025  37.852   3.739
57340W        W25714  19.177  35.438  14.323
57341W        W25715  31.979  31.960  12.883
57342W        W25716  23.491   8.204   2.220
57343W        W25717  39.029  44.372   5.194
57344W        W25718  19.242  18.211  14.468
57345W        W25719  43.375   5.435  11.383
57346W        W25720   3.418   6.238  12.486
57347W        W25721  14.627  26.681   0.275
57348W        W25722  23.067  16.586  13.851
57349W        W25723   2.454   2.273  12.982
57350W        W25724   2.957  39.331  14.951
57351W        W25725  34.897   2.858  14.023
57352W        W25726  13.243  39.352   2.833
57353W        W25727  14.198  33.524  11.913
57354W        W25728  29.656  17.077   1.879
57355W        W25729  13.770  13.187   3.752
57356W        W25730  40.385  13.793   0.379
57357W        W25731  33.574  19.708   9.985
57358W        W25732   5.271   4.933   5.234
57359W        W25733   0.874  40.815  14.883
57360W        W25734  31.410  30.929   2.889
57361W        W25735  36.521   3.444   1.854
57362W        W25736   3.713  23.108  12.982
57363W        W25737  26.561  36.416  11.929
57364W        W25738  40.819  17.690  11.513
57365W        W25739   4.890  24.132   2.381
57366W        W25740  21.525  15.096  14.004
57367W        W25741   1.944   7.758   1.211
57368W        W25742  19.107  38.922  13.449
57369W        W25743  32.607   1.792  13.332
57370W        W25744   4.848  19.747  10.136
57371W        W25745  38.848   3.357   3.330
57372W        W25746  19.231   4.867  14.965
57373W        W25747  23.514  34.546   4.814
57374W        W25748  38.826  32.630  12.498
57375W        W25749  28.163   4.869   1.305
57376W        W25750   8.761  15.179  14.864
57377W        W25751  14.121  13.339  13.925
57378W        W25752  13.726   9.652  13.448
57379W        W25753  14.799  16.263   2.399
57380W        W25754  42.855   2.751  13.468
57381W        W25755  22.553  42.326  11.557
57382W        W25756  36.386  24.543   1.840
57383W        W25757  12.850  22.638  14.974
57384W        W25758  21.090  35.854  13.059
57385W        W25759  13.840  19.277   1.722
57386W        W25760  18.791  21.720  14.323
57387W        W25761  30.468   4.770  13.322
57388W        W25762  30.439   0.831  14.327
57389W        W25763  14.321  37.463   4.747
57390W        W25764   0.448  31.914  12.424
57391W        W25765  41.499   0.476   2.312
57392W        W25766  37.046  25.033  13.051
57393W        W25767  41.295  25.713   4.147
57394W        W25768  10.806  36.844  11.872
57395W        W25769  33.446  40.898   0.889
57396W        W25770   0.408  23.648   2.393
57397W        W25771   8.738   0.368   4.249
57398W        W25772  33.095  24.515  13.919
57399W        W25773  19.188  41.006  14.969
57400W        W25774  33.991   6.705  13.319
57401W        W25775  19.107  31.603  10.438
57402W        W25776  12.646   7.306   1.842
57403W        W25777  37.928  11.133  12.953
57404W        W25778  10.349   4.316  11.376
57405W        W25779   0.927  16.148  12.555
57406W        W25780   5.750  20.641  14.808
57407W        W25781   8.221   6.348   1.212
57408W        W25782  24.669   6.227   2.899
57409W        W25783  23.506  44.467   3.163
57410W        W25784  26.614  24.028  12.968
57411W        W25785  39.942  26.607  14.354
57412W        W25786   0.313  31.125  11.955
57413W        W25787  19.197  32.916  10.580
57414W        W25788  19.145  27.653   2.228
57415W        W25789  38.348  27.498   1.716
57416W        W25790  21.756   5.235  12.580
57417W        W25791  32.035  13.679   3.339
57418W        W25792   2.460  11.342  13.894
57419W        W25793   3.906  32.910  11.990
57420W        W25794  13.149  32.034   4.305
57421W        W25795   3.453  43.293   2.812
57422W        W25796  17.087   7.318  13.877
57423W        W25797  11.766  12.186   4.655
57424W        W25798  36.452  14.788   4.322
57425W        W25799  14.696   4.812   2.344
57426W        W25800  39.905  35.941  12.824
57427W        W25801   0.415  37.023  13.018
57428W        W25802  13.730  10.801  10.920
57429W        W25803  21.708  31.977   2.326
57430W        W25804  38.025  30.466   2.307
57431W        W25805   5.233   8.299  11.586
57432W        W25806  38.470  23.211  14.472
57433W        W25807  10.723   7.339   0.889
57434W        W25808   7.725  44.924   3.645
57435W        W25809  12.137  23.220   0.399
57436W        W25810  20.661  13.168  11.039
57437W        W25811  30.000  12.700   1.805
57438W        W25812  15.213  43.877  12.866
57439W        W25813  32.999   6.418  12.424
57440W        W25814  14.235  18.237  10.543
57441W        W25815  37.000  44.430   2.691
57442W        W25816  44.489  33.397   0.805
57443W        W25817  36.499   0.358  12.915
57444W        W25818   5.406  37.355  13.878
57445W        W25819  34.072  39.516  13.380
57446W        W25820  42.837  20.610   2.713
57447W        W25821  20.661  39.487   0.953
57448W        W25822  25.103   7.864  12.091
57449W        W25823  41.480  23.669   4.180
57450W        W25824  16.570  16.140   2.805
57451W        W25825   5.804  15.595   2.283
57452W        W25826  30.562  42.960   3.223
57453W        W25827  33.588  24.010   3.294
57454W        W25828  29.438  10.266  12.383
57455W        W25829  24.180   2.303   4.258
57456W        W25830  15.187  31.641  11.586
57457W        W25831  16.775   4.339  14.314
57458W        W25832  39.335  44.767  14.386
57459W        W25833  12.339  24.611   2.867
57460W        W25834  23.185  12.262   2.764
57461W        W25835  14.784  28.478   4.291
57462W        W25836   0.856  34.954  13.539
57463W        W25837  10.869  11.195  14.435
57464W        W25838  12.258  26.166   3.242
57465W        W25839  44.461  11.151  14.419
57466W        W25840  31.525  16.642   4.766
57467W        W25841  20.030  40.848  11.026
57468W        W25842   8.708  10.293  13.822
57469W        W25843  40.011  11.302  12.049
57470W        W25844  39.380  20.122   4.347
57471W        W25845  26.126  17.691  10.971
57472W        W25846   5.796  39.544   3.753
57473W        W25847  39.832  17.651  14.948
57474W        W25848  43.000  31.143   3.312
57475W        W25849  39.849  40.990  12.450
57476W        W25850  19.662  35.420   4.756
57477W        W25851   8.286  11.327  12.568
57478W        W25852  30.626  21.121   4.323
57479W        W25853  25.027  15.313  11.461
57480W        W25854  39.831   8.316   3.647
57481W        W25855   5.791  28.495  10.518
57482W        W25856   2.238  43.004   3.828
57483W        W25857   8.218  27.569  14.769
57484W        W25858  34.441  18.664  12.992
57485W        W25859  27.956  37.503  14.469
57486W        W25860  13.328  33.944   4.703
57487W        W25861  26.207   7.356   1.721
57488W        W25862  22.250   3.279   1.215
57489W        W25863   1.248  13.600   1.367
57490W        W25864  28.013  38.431  14.471
57491W        W25865  18.112  43.392   4.744
57492W        W25866  22.212  44.336  13.540
57493W        W25867  42.889  43.964   0.843
57494W        W25868  15.208   6.258   0.411
57495W        W25869  17.757   9.296  13.381
57496W        W25870  40.446  27.079  12.071
57497W        W25871  21.716   0.980   3.795
57498W        W25872  40.343  16.592   3.639
57499W        W25873  14.708  36.420  14.863
57500W        W25874  37.494   0.970  12.501
57501W        W25875  24.070   7.201  14.339
57502W        W25876  10.287  36.870   4.763
57503W        W25877  34.903  35.441  10.541
57504W        W25878  31.925  39.060   1.902
57505W        W25879  37.530  43.971   3.353
57506W        W25880  40.387  23.662  13.797
57507W        W25881   3.279  14.184   2.759
57508W        W25882  32.515   7.211  14.428
57509W        W25883  22.088   9.349  13.801
57510W        W25884  41.321  42.021   0.319
57511W        W25885  26.507  41.378  14.030
57512W        W25886  23.079  26.532  12.412
57513W        W25887   6.209   7.337   3.263
57514W        W25888  33.478  21.034  13.324
57515W        W25889  34.571  13.294   4.653
57516W        W25890  37.950  27.539   3.167
57517W        W25891  11.651  40.453   0.342
57518W        W25892   2.418   3.951  10.486
57519W        W25893  42.787  20.762   3.361
57520W        W25894  31.908   7.198  13.801
57521W        W25895  44.839  31.464   2.313
57522W        W25896  34.548  25.154  12.450
57523W        W25897  38.959  18.073   3.838
57524W        W25898  33.979  19.087   1.369
57525W        W25899  15.610  30.626   3.860
57526W        W25900  20.100   7.368  11.612
57527W        W25901  34.031  22.230   0.352
57528W        W25902   0.902   7.317   3.381
57529W        W25903   8.171  30.434  10.066
57530W        W25904  26.077  18.123   1.804
57531W        W25905  44.268  26.138  13.539
57532W        W25906  13.603  30.638  12.012
57533W        W25907  29.475   4.840   4.783
57534W        W25908  32.131  22.018  14.468
57535W        W25909  11.721  29.617  11.560
57536W        W25910  40.996   4.742   1.423
57537W        W25911  15.631  10.705  12.534
57538W        W25912  15.213   8.252  14.867
57539W        W25913  31.089  31.599   4.750
57540W        W25914  38.891  18.670   4.780
57541W        W25915  25.062   3.944   4.168
57542W        W25916  30.010  44.361   9.598
57543W        W25917  25.602  28.160  13.996
57544W        W25918  25.563  27.150   1.705
57545W        W25919  32.037   8.392   3.321
57546W        W25920  41.524  22.505   4.745
57547W        W25921  29.492   3.933   1.793
57548W        W25922  22.714  31.987  12.533
57549W        W25923   8.213   4.760   5.208
57550W        W25924  21.250  10.233   4.186
57551W        W25925  22.195  25.644   2.780
57552W        W25926  40.878   3.305   4.746
57553W        W25927  10.358  11.769  13.343
57554W        W25928  36.523   6.799  14.907
57555W        W25929  15.178  31.544  14.025
57556W        W25930   2.885  33.038  11.505
57557W        W25931  14.303   5.858   1.264
57558W        W25932   8.277  12.331  13.064
57559W        W25933  34.460  16.232   1.887
57560W        W25934  13.176  25.994   1.220
57561W        W25935   0.467   3.886  12.497
57562W        W25936  38.514  17.201  10.436
57563W        W25937  16.228  20.208   2.359
57564W        W25938  32.898   0.984  14.018
57565W        W25939  39.914  23.120  13.388
57566W        W25940  37.504  12.340   0.777
57567W        W25941  25.099  16.155   1.423
57568W        W25942  38.836  22.547  12.498
57569W        W25943  27.126  44.407   1.929
57570W        W25944   1.441  32.610   0.483
57571W        W25945  22.239  18.697   4.664
57572W        W25946   5.871  18.218   1.828
57573W        W25947  35.049  19.623  14.464
57574W        W25948  34.114  26.624  12.037
57575W        W25949  26.979  35.856  11.073
57576W        W25950   3.756   0.911  13.847
57577W        W25951  41.537  26.987   3.226
57578W        W25952  16.759  43.321  12.888
57579W        W25953  21.037  16.669   3.640
57580W        W25954   2.760  38.522  13.006
57581W        W25955  36.983  27.184   4.646
57582W        W25956   1.868  22.568  11.124
57583W        W25957  21.582   7.414   1.933
57584W        W25958   7.886  29.116  10.407
57585W        W25959   3.264  35.091  14.005
57586W        W25960  31.033  25.048  10.936
57587W        W25961  23.989  17.718  12.410
57588W        W25962  15.641  25.019   3.779
57589W        W25963  12.171  31.462   2.864
57590W        W25964  30.417  10.781   1.891
57591W        W25965  35.602  39.525   4.212
57592W        W25966  23.007  43.337  13.466
57593W        W25967  34.585  29.001   0.440
57594W        W25968  42.311   9.353   0.477
57595W        W25969   3.293  20.062   2.779
57596W        W25970  27.494  39.995  14.363
57597W        W25971  14.240  36.098   0.728
57598W        W25972  33.426  15.089   4.631
57599W        W25973  39.413   2.234  12.933
57600W        W25974  36.025   0.260   0.264
57601W        W25975  13.239  21.037  11.395
57602W        W25976   8.799  14.215   0.435
57603W        W25977  23.001   9.240   0.819
57604W        W25978  21.220  38.407   2.805
57605W        W25979   9.174  20.639   3.374
57606W        W25980  33.432   7.255  11.569
57607W        W25981  15.234   8.361   2.706
57608W        W25982  25.092  36.378  14.446
57609W        W25983  37.068  17.259  14.961
57610W        W25984  12.325  38.514  11.065
57611W        W25985  22.508  39.323   1.758
57612W        W25986  13.119  28.112  13.883
57613W        W25987  15.316  19.176   2.389
57614W        W25988  33.023   4.721   4.296
57615W        W25989  25.152   2.469  12.070
57616W        W25990   3.918  25.557  12.496
57617W        W25991  38.529  43.994  13.545
57618W        W25992  39.517   3.351   2.791
57619W        W25993  13.298  37.983   4.774
57620W        W25994  15.723  36.948  11.419
57621W        W25995  40.814  10.721  14.461
57622W        W25996  24.503   0.446   0.381
57623W        W25997  19.080   0.760   3.640
57624W        W25998  21.682   4.733   3.820
57625W        W25999  24.013  35.100   1.220
57626W        W26000  27.510   9.211  13.519
57627W        W26001  34.530  30.000   0.827
57628W        W26002   3.935  25.137   1.317
57629W        W26003  44.762  16.155   4.706
57630W        W26004  18.552  40.452   1.796
57631W        W26005   1.755  26.483   3.327
57632W        W26006  10.223  30.028   2.388
57633W        W26007  41.300  13.225   1.933
57634W        W26008   8.353   8.283   0.348
57635W        W26009  25.631  27.980   1.888
57636W        W26010  44.311  13.697  12.043
57637W        W26011  26.462  32.546   1.353
57638W        W26012  10.204   0.932   4.306
57639W        W26013  29.575  41.831   4.333
57640W        W26014  23.599   3.936  11.395
57641W        W26015  22.655  27.649  10.999
57642W        W26016  30.926   6.729  10.576
57643W        W26017  40.332   1.330   1.835
57644W        W26018  39.862   0.988  10.513
57645W        W26019   0.302  10.270   1.824
57646W        W26020  24.171  21.616   0.877
57647W        W26021  38.984  20.061  10.121
57648W        W26022  34.461  36.043   0.320
57649W        W26023  31.567  39.411  11.092
57650W        W26024  19.545  40.017   3.689
57651W        W26025   3.434  13.659   4.283
57652W        W26026  40.019  34.085   0.822
57653W        W26027  22.537  21.141  11.394
57654W        W26028  34.551   0.312  12.958
57655W        W26029  22.127  18.669  14.761
57656W        W26030  44.906   5.724   2.874
57657W        W26031   6.390   8.755   3.221
57658W        W26032  14.114   3.812  12.401
57659W        W26033   2.868  33.504  12.562
57660W        W26034  37.389  39.013  10.600
57661W        W26035   6.237  11.748   3.839
57662W        W26036  39.391  30.913   3.326
57663W        W26037  44.465   7.383   3.857
57664W        W26038  22.042  30.956   5.113
57665W        W26039   2.380  37.390  10.573
57666W        W26040  29.562  32.918   4.741
57667W        W26041  21.088   3.417   3.632
57668W        W26042  33.527  38.043   3.675
57669W        W26043  37.529   0.255  10.044
57670W        W26044   5.839   6.360   0.804
57671W        W26045  25.612   6.813   0.861
57672W        W26046  14.124  32.090  14.026
57673W        W26047  10.302   2.782  10.457
57674W        W26048   6.381  18.622   1.368
57675W        W26049  12.640  26.543  13.521
57676W        W26050  21.157  12.190  12.970
57677W        W26051  26.540   6.283   1.224
57678W        W26052  40.393  34.074   0.345
57679W        W26053  36.914   1.372   0.837
57680W        W26054  17.697  19.756  11.460
57681W        W26055  29.465  35.423   3.286
57682W        W26056  13.310  20.236   2.698
57683W        W26057   4.861  29.641   4.169
57684W        W26058  34.531   3.887  11.459
57685W        W26059  38.495  39.004   1.352
57686W        W26060  40.549  34.036  14.962
57687W        W26061  23.027  43.927  12.961
57688W        W26062  29.555  39.974  13.999
57689W        W26063  30.432  10.681   3.725
57690W        W26064  23.989  33.900   0.805
57691W        W26065  18.172  22.060  11.944
57692W        W26066  42.886  33.085  14.761
57693W        W26067  44.874  12.203  11.518
57694W        W26068   1.924  10.214   0.767
57695W        W26069  19.149  20.179   1.437
57696W        W26070  44.880  37.506  11.067
57697W        W26071  15.675  27.684   4.176
57698W        W26072  38.950  16.615  10.585
57699W        W26073  20.210   2.326   4.235
57700W        W26074  11.201  31.907   2.283
57701W        W26075   4.223  19.562   3.663
57702W        W26076  24.537   0.810  11.107
57703W        W26077  28.004  20.039  13.028
57704W        W26078  21.526  11.774   1.326
57705W        W26079  36.382   0.968  13.922
57706W        W26080  34.888  14.200  12.417
57707W        W26081  17.152  32.089   4.229
57708W        W26082  23.518  26.659   4.636
57709W        W26083  30.471   2.912  13.960
57710W        W26084  15.312  18.568   1.707
57711W        W26085  37.927   8.400  13.354
57712W        W26086   4.212  24.490  11.396
57713W        W26087  30.578  12.315  14.882
57714W        W26088  38.507  19.278  10.487
57715W        W26089   8.317  33.918  11.860
57716W        W26090  35.101  33.536  10.014
57717W        W26091  16.661  24.119   1.766
57718W        W26092   7.842  10.644  13.349
57719W        W26093  23.725   9.371  13.458
57720W        W26094  24.987  42.524   2.712
57721W        W26095  11.145  29.931  12.401
57722W        W26096  43.782  28.473  13.979
57723W        W26097   3.296  21.186  14.946
57724W        W26098   7.241  18.572   4.689
57725W        W26099  34.020   3.401   4.688
57726W        W26100  14.834  16.645  11.545
57727W        W26101  39.439  44.832   1.880
57728W        W26102  41.922  12.849  11.028
57729W        W26103   3.887   2.313   1.325
57730W        W26104  38.947  17.800   4.270
57731W        W26105  14.155  16.761  12.075
57732W        W26106  38.429  41.856  13.404
57733W        W26107   4.724  27.690  12.991
57734W        W26108  17.635  18.051   3.215
57735W        W26109  25.975  21.650  14.356
57736W        W26110  41.411   4.237  13.359
57737W        W26111  25.525  25.980  12.933
57738W        W26112  15.785  11.207  10.031
57739W        W26113  19.612  14.615  13.944
57740W        W26114   9.227   5.829   0.286
57741W        W26115   7.181  18.160   3.825
57742W        W26116   6.756  29.601   3.842
57743W        W26117  32.540  35.587   3.784
57744W        W26118  33.393  43.425  12.570
57745W        W26119  20.655  29.435  11.409
57746W        W26120   2.314  35.448   2.829
57747W        W26121  18.718  16.768  14.871
57748W        W26122  14.690  35.062  11.064
57749W        W26123   1.959  22.546   0.438
57750W        W26124  28.563  18.606  14.925
57751W        W26125  13.188  26.016  11.492
57752W        W26126  39.560  27.184   2.179
57753W        W26127  14.146  14.720   4.342
57754W        W26128  23.065  23.640   0.749
57755W        W26129  38.338  35.415   1.702
57756W        W26130  43.844  13.652  11.598
57757W        W26131  20.588   1.937  12.459
57758W        W26132   3.408  16.582  12.901
57759W        W26133  43.453  22.532  13.468
57760W        W26134  37.356  32.462  11.918
57761W        W26135  35.083  29.610   4.330
57762W        W26136  39.933  22.061  11.516
57763W        W26137  20.682  15.312   1.730
57764W        W26138  24.141  20.586   1.756
57765W        W26139  38.879  23.062  13.453
57766W        W26140   0.384  41.006  14.024
57767W        W26141   9.778  26.204  13.963
57768W        W26142  33.428  20.185  10.417
57769W        W26143  14.239  29.513   4.808
57770W        W26144  21.100  35.528  13.433
57771W        W26145  38.834  15.597   0.788
57772W        W26146  38.828  15.197  14.849
57773W        W26147  20.169  44.777   2.205
57774W        W26148  26.076  19.699   1.237
57775W        W26149  27.020  20.216  10.524
57776W        W26150  42.424  38.478  13.427
57777W        W26151  40.531   4.848  13.859
57778W        W26152  16.576   6.290   2.208
57779W        W26153  36.014  31.014  14.326
57780W        W26154   6.191  21.742   2.361
57781W        W26155  25.601   6.250  10.562
57782W        W26156   4.398   2.926   3.851
57783W        W26157   9.243  37.437   1.233
57784W        W26158   3.835  26.701  14.909
57785W        W26159  39.846  44.912   4.318
57786W        W26160  30.155  34.955  10.585
57787W        W26161  33.431  43.356  13.920
57788W        W26162   5.263  22.236  13.337
57789W        W26163  37.853   1.769  12.052
57790W        W26164  43.869  42.443   1.269
57791W        W26165  31.605  35.558  11.855
57792W        W26166  23.217   4.222   0.917
57793W        W26167  32.562  42.408   4.826
57794W        W26168  23.658   7.299  11.982
57795W        W26169  10.876  38.984   4.636
57796W        W26170  41.817  30.570   4.208
57797W        W26171  27.135  44.377  10.538
57798W        W26172   3.218  23.130  12.421
57799W        W26173  11.629  39.439  12.066
57800W        W26174  12.165  44.852   1.828
57801W        W26175  36.934  31.954   2.306
57802W        W26176  40.965  27.073   4.725
57803W        W26177  30.108  34.601  11.952
57804W        W26178  37.925  40.903  14.795
57805W        W26179  35.525  19.149  10.445
57806W        W26180   5.738  39.373   0.429
57807W        W26181  24.096   9.758  11.470
57808W        W26182  33.084  31.919  11.953
57809W        W26183   2.790  35.411  14.466
57810W        W26184  22.083  16.591  11.947
57811W        W26185   3.792  24.219   3.302
57812W        W26186  16.318  34.115   2.183
57813W        W26187  16.735  22.020  14.811
57814W        W26188  10.748  13.697  12.872
57815W        W26189  24.560  33.072   2.254
57816W        W26190  21.072  39.483   3.695
57817W        W26191   1.917  41.524  14.834
57818W        W26192  37.858  41.430  13.946
57819W        W26193  22.036  22.699   2.283
57820W        W26194  17.579  40.446  12.371
57821W        W26195  11.758  40.319   0.940
57822W        W26196  41.370  17.271  12.963
57823W        W26197  40.521   5.417  11.589
57824W        W26198   5.310  26.071   3.170
57825W        W26199  37.425  25.473   4.329
57826W        W26200  17.237  30.524  11.512
57827W        W26201   0.275  29.111   2.691
57828W        W26202  39.552  22.531   3.693
57829W        W26203  40.837  19.111   4.234
57830W        W26204  18.226  35.966  13.350
57831W        W26205  34.014  24.227   4.193
57832W        W26206  29.460  16.621   4.272
57833W        W26207  22.733  28.527   0.325
57834W        W26208  39.943  16.169   2.894
57835W        W26209   1.738   2.901   0.397
57836W        W26210  34.523  35.515  10.974
57837W        W26211   2.734   9.251  12.846
57838W        W26212  43.386  34.868  14.804
57839W        W26213  37.942  11.641   1.271
57840W        W26214  34.080   3.888   4.802
57841W        W26215  17.747  19.250  11.374
57842W        W26216  21.594  26.622   1.876
57843W        W26217  11.206  15.154   2.201
57844W        W26218  32.941  41.907   2.362
57845W        W26219   5.433   7.387   4.796
57846W        W26220  12.210  22.651  12.889
57847W        W26221  13.219   9.838  10.042
57848W        W26222  37.839  36.550  11.482
57849W        W26223  35.894  13.313   1.882
57850W        W26224  42.526  25.971   0.327
57851W        W26225   8.670  29.043  14.326
57852W        W26226  40.899  28.111   3.678
57853W        W26227  12.197   0.440  11.959
57854W        W26228  40.429   9.243   1.314
57855W        W26229   8.196  11.849  11.882
57856W        W26230  34.372   3.333   3.239
57857W        W26231  10.350   6.922  11.052
57858W        W26232   3.888  21.657  13.365
57859W        W26233  33.905  15.591  14.365
57860W        W26234  24.980   7.852  10.432
57861W        W26235  18.095   0.417  12.352
57862W        W26236   3.909  38.557  11.966
57863W        W26237   6.332  23.613  14.901
57864W        W26238  44.001  27.950  14.500
57865W        W26239  26.497  10.214   3.846
57866W        W26240  23.531  40.867  14.506
57867W        W26241  20.031  17.063  12.009
57868W        W26242   7.732   0.268  12.519
57869W        W26243  24.983  37.837   0.749
57870W        W26244  11.147   4.298   2.718
57871W        W26245  18.255  10.839   3.278
57872W        W26246   1.241  26.622   0.331
57873W        W26247   9.279  35.570   1.738
57874W        W26248   9.745  19.538   4.716
57875W        W26249   8.162  13.629   0.861
57876W        W26250   5.802  34.071  10.640
57877W        W26251   2.863  34.872   4.152
57878W        W26252  31.424  16.158  14.504
57879W        W26253  41.397   9.207   2.875
57880W        W26254  18.606  23.179  11.540
57881W        W26255  28.456  13.134  12.492
57882W        W26256  17.714  18.635   4.665
57883W        W26257  13.710  20.625  10.914
57884W        W26258  15.301  34.462   4.738
57885W        W26259   9.888   0.973  10.644
57886W        W26260  30.475  39.063  13.048
57887W        W26261  17.157   4.432  14.319
57888W        W26262  20.548   3.438  11.890
57889W        W26263  23.218   3.780   2.784
57890W        W26264  40.329  31.516   1.290
57891W        W26265   8.870  27.059   0.418
57892W        W26266  15.674   9.708   2.712
57893W        W26267  23.605  37.376   1.446
57894W        W26268   1.296  29.467   1.378
57895W        W26269  39.427  22.022  13.978
57896W        W26270  44.340  20.592   9.961
57897W        W26271  28.072  31.125   0.906
57898W        W26272  18.606   5.348   4.352
57899W        W26273  41.924  33.085  14.797
57900W        W26274   6.222  24.009   4.136
57901W        W26275  28.458  29.172  13.982
57902W        W26276  10.851  10.192  13.513
57903W        W26277  20.746  20.741  11.477
57904W        W26278  29.965  25.994   2.411
57905W        W26279  41.427   8.313  13.371
57906W        W26280  18.238  27.090  11.411
57907W        W26281  39.937   7.890   5.785
57908W        W26282  18.595  22.630  10.128
57909W        W26283   1.436  15.296   3.182
57910W        W26284  14.144  32.038  10.575
57911W        W26285  22.718  16.582   3.223
57912W        W26286  25.992   6.401   2.406
57913W        W26287  40.528  31.515   4.704
57914W        W26288  29.537  18.185   3.218
57915W        W26289  10.872  20.078  11.584
57916W        W26290  24.223  12.253  11.525
57917W        W26291  38.482  19.687   0.380
57918W        W26292  41.974  34.096  10.918
57919W        W26293  11.650  40.445  11.074
57920W        W26294   3.283  22.023  10.456
57921W        W26295  41.485  39.391   3.771
57922W        W26296  28.135  22.141   1.396
57923W        W26297  44.423  17.135   0.785
57924W        W26298   7.397  44.980   1.934
57925W        W26299  12.215  31.903   1.366
57926W        W26300  32.972  44.427  14.455
57927W        W26301  21.204  44.381  10.636
57928W        W26302  40.877  15.772  11.544
57929W        W26303  21.617   0.821  14.977
57930W        W26304  37.925  17.133  10.923
57931W        W26305   0.359  30.426   1.263
57932W        W26306  36.457  32.539   3.355
57933W        W26307  29.602  42.370  13.508
57934W        W26308   4.349   8.279  14.402
57935W        W26309  25.166  27.066  14.888
57936W        W26310  11.694  29.511  10.563
57937W        W26311  12.824  24.657  12.937
57938W        W26312  23.614  27.571  13.527
57939W        W26313   4.889  43.448  12.890
57940W        W26314  21.209  26.646   4.148
57941W        W26315  44.327  27.597  14.453
57942W        W26316  15.250  21.672   0.833
57943W        W26317  12.144  20.536  13.470
57944W        W26318  42.861  36.365  14.346
57945W        W26319  38.058  31.541  12.918
57946W        W26320  13.109  42.383   2.269
57947W        W26321  15.786  19.235  14.839
57948W        W26322   7.751  35.047  14.801
57949W        W26323  22.735  26.165  10.891
57950W        W26324  32.593  32.976  13.414
57951W        W26325  27.569  11.771  13.825
57952W        W26326  17.066  32.539  13.408
57953W        W26327  31.610  38.472  12.504
57954W        W26328  23.044  23.598  14.435
57955W        W26329  23.083   4.851  14.782
57956W        W26330  29.969  29.451   3.742
57957W        W26331  14.753  21.017   2.730
57958W        W26332  29.655  27.018  11.585
57959W        W26333  44.867  11.834  11.392
57960W        W26334  22.715  36.473  14.819
57961W        W26335  21.651  19.601  12.547
57962W        W26336  30.626  44.368  10.572
57963W        W26337  16.287  42.316   1.386
57964W        W26338  28.970   5.335  13.389
57965W        W26339  18.097  13.116  10.509
57966W        W26340  43.772  41.991  11.962
57967W        W26341  44.400  22.027   1.804
57968W        W26342  35.587  19.671   4.741
57969W        W26343   1.324  43.465  13.003
57970W        W26344   9.233  22.619  13.940
57971W        W26345  42.323  43.996  14.313
57972W        W26346   6.215   8.798   1.218
57973W        W26347  18.737  21.745  10.979
57974W        W26348  38.061   2.298  12.913
57975W        W26349   0.746  42.429  13.940
57976W        W26350  14.155  38.544   4.152
57977W        W26351   8.690   0.866   1.840
57978W        W26352  18.149  35.535   0.959
57979W        W26353  28.142  11.347   3.746
57980W        W26354  28.090  19.674  11.913
57981W        W26355  10.323  13.160  11.066
57982W        W26356  38.346  27.516  11.463
57983W        W26357  16.592  26.199  11.380
57984W        W26358  32.009  31.071  13.954
57985W        W26359   1.442  33.076   3.287
57986W        W26360   9.342  18.712   2.745
57987W        W26361   3.714  27.030  11.597
57988W        W26362  25.667  13.810   2.399
57989W        W26363  17.275  34.918   0.929
57990W        W26364  34.064  26.998  13.337
57991W        W26365  11.170  32.616  12.439
57992W        W26366  30.117  25.968   0.788
57993W        W26367  41.365  12.746   2.262
57994W        W26368  32.116   3.229  13.825
57995W        W26369  10.374  35.598   0.963
57996W        W26370  13.324  22.607   2.831
57997W        W26371   5.687  43.940  13.467
57998W        W26372  35.935  42.497  14.432
57999W        W26373  39.423  25.647  13.418
58000W        W26374  27.531   6.749  11.525
58001W        W26375  37.510  40.963  13.314
58002W        W26376  18.742   1.456   3.327
58003W        W26377   4.941  42.030  14.414
58004W        W26378  10.732  42.805  11.048
58005W        W26379   2.771  24.145   4.686
58006W        W26380  44.897  25.066  14.388
58007W        W26381   2.416  40.405  12.988
58008W        W26382   0.904  25.051  11.504
58009W        W26383   4.792  36.484   5.123
58010W        W26384  11.796   5.698  11.943
58011W        W26385  23.704  32.948   3.697
58012W        W26386  29.538  20.687   4.138
58013W        W26387  25.158  20.546  13.044
58014W        W26388  36.993  14.267  14.466
58015W        W26389  42.983   8.810  13.055
58016W        W26390  12.629  42.515  14.324
58017W        W26391   9.351  34.505   3.330
58018W        W26392  30.493  18.723  11.606
58019W        W26393   4.252  27.196   0.750
58020W        W26394  13.290   3.453  11.567
58021W        W26395  16.289  18.275   0.851
58022W        W26396  36.010  32.041   4.261
58023W        W26397   6.420  30.642  13.309
58024W        W26398  23.019  44.865   3.294
58025W        W26399  33.020  12.293  12.906
58026W        W26400   4.270   6.252   0.335
58027W        W26401  28.175   8.765  10.131
58028W        W26402   8.801   7.333  12.921
58029W        W26403   7.342   1.454  13.311
58030W        W26404   5.299   3.288  13.310
58031W        W26405   0.309   7.293  12.346
58032W        W26406  11.822  28.488  11.435
58033W        W26407   9.692   9.336   2.228
58034W        W26408   6.747  22.165  14.948
58035W        W26409  33.048  39.016   3.364
58036W        W26410  10.643  21.607  12.846
58037W        W26411   5.892  41.959   2.366
58038W        W26412  10.359  27.050   4.752
58039W        W26413   7.806  12.342   4.313
58040W        W26414  41.484  29.121  14.320
58041W        W26415  38.347   3.416   0.879
58042W        W26416  22.087  16.270  12.385
58043W        W26417  35.492  36.556  10.626
58044W        W26418  29.489   4.712  14.327
58045W        W26419   4.322  43.345   4.631
58046W        W26420  39.866  26.638   2.665
58047W        W26421   6.849  11.268   4.760
58048W        W26422   7.884  19.222   4.743
58049W        W26423  35.456  23.064   0.302
58050W        W26424   4.257  42.427   4.170
58051W        W26425  42.394  36.987  10.963
58052W        W26426  16.707  23.217  14.457
58053W        W26427  11.734  13.734  11.607
58054W        W26428  39.545  18.685   2.683
58055W        W26429   9.853  33.542  10.463
58056W        W26430  32.043  42.989  13.490
58057W        W26431  23.029  37.482  12.502
58058W        W26432   2.828  36.021  13.521
58059W        W26433  23.039  44.910  12.940
58060W        W26434   4.340  20.551   1.716
58061W        W26435   7.874  41.870  11.101
58062W        W26436   0.851  43.904  12.935
58063W        W26437  40.458   7.245   0.297
58064W        W26438   8.400  43.372  10.558
58065W        W26439  20.198  25.670  11.110
58066W        W26440  11.134  31.971  14.858
58067W        W26441   4.410  24.504  12.873
58068W        W26442  29.433   4.370  11.606
58069W        W26443   4.749  15.637  13.936
58070W        W26444  34.479   8.254  12.492
58071W        W26445  38.878  38.410   3.335
58072W        W26446  20.643  16.785  14.350
58073W        W26447  40.797  33.108   0.885
58074W        W26448  24.506  42.941  14.325
58075W        W26449  10.166  18.154  12.914
58076W        W26450  29.485  13.127  14.013
58077W        W26451  28.498  37.478  11.467
58078W        W26452  26.489   1.317  13.345
58079W        W26453  15.251  23.585   2.748
58080W        W26454  38.070   2.372   3.659
58081W        W26455  27.563  35.898   3.188
58082W        W26456  14.735  22.178   1.380
58083W        W26457  42.354  25.080  14.031
58084W        W26458  21.727   8.816   5.222
58085W        W26459  27.148  19.551   1.331
58086W        W26460  21.537  10.731  11.119
58087W        W26461  31.099   5.808   4.838
58088W        W26462  37.364   7.855   0.447
58089W        W26463  26.023  27.091   0.815
58090W        W26464  39.818  41.360   4.340
58091W        W26465  43.882  33.919   1.755
58092W        W26466   0.442  11.353  10.898
58093W        W26467   6.275  14.741   3.287
58094W        W26468  38.347  32.053  14.344
58095W        W26469  20.066  37.929   0.948
58096W        W26470  18.159   6.220   4.162
58097W        W26471  27.060   8.740  13.830
58098W        W26472  23.607  27.141  10.611
58099W        W26473   9.386  21.135  10.482
58100W        W26474   4.393  35.413   0.762
58101W        W26475  34.934  24.616   2.825
58102W        W26476  40.363  36.366   4.317
58103W        W26477  43.386   9.385  11.401
58104W        W26478  36.083  10.366   3.680
58105W        W26479  24.976   5.294  12.368
58106W        W26480   3.851   2.795   2.782
58107W        W26481  21.607   3.378  13.465
58108W        W26482   1.798  31.539  13.961
58109W        W26483  36.973  18.125   4.765
58110W        W26484   3.376  30.572  11.865
58111W        W26485  42.787  41.009  11.485
58112W        W26486  35.960  22.233   0.246
58113W        W26487   7.399   7.705  13.385
58114W        W26488   3.358   6.884  14.893
58115W        W26489  23.115  29.165  13.363
58116W        W26490  44.327  42.873   1.450
58117W        W26491  42.349  13.272   1.780
58118W        W26492  19.708  44.447   3.867
58119W        W26493  37.490  43.508  11.102
58120W        W26494   7.675  15.300  14.020
58121W        W26495   6.288   2.966  11.554
58122W        W26496  12.312  19.662  11.957
58123W        W26497  10.291  14.295   3.165
58124W        W26498   7.396  16.581  13.920
58125W        W26499  20.635   3.879   1.755
58126W        W26500  42.517  43.977   2.676
58127W        W26501  31.965  25.597   0.911
58128W        W26502  43.877  16.752  11.083
58129W        W26503   0.369  20.123  13.391
58130W        W26504  42.436  15.763   3.749
58131W        W26505  42.980  16.777   1.851
58132W        W26506  42.325   0.319  14.820
58133W        W26507  24.605  14.803   5.590
58134W        W26508  40.052  42.848  10.471
58135W        W26509   0.946  21.583   3.633
58136W        W26510  24.179   6.843  14.779
58137W        W26511  39.359  22.621  11.479
58138W        W26512   7.274  25.686   3.743
58139W        W26513  27.017  39.342  13.366
58140W        W26514  18.119  33.576   4.150
58141W        W26515  11.747  25.022  14.031
58142W        W26516  17.719  28.615  11.889
58143W        W26517  11.637   7.838  14.312
58144W        W26518  37.989  37.413   4.316
58145W        W26519  41.855  26.557  13.815
58146W        W26520  21.604  39.027   3.728
58147W        W26521  19.656  15.598   0.856
58148W        W26522  27.982  41.869   4.679
58149W        W26523  16.637  28.505  14.284
58150W        W26524  13.158  43.017  10.455
58151W        W26525  28.448  17.725  13.026
58152W        W26526   8.839  23.594  11.065
58153W        W26527   7.370  31.460  12.465
58154W        W26528  11.271  42.513  10.423
58155W        W26529  13.128   8.667   3.387
58156W        W26530  26.602  21.039  11.518
58157W        W26531   8.310  41.342   3.217
58158W        W26532  37.977  20.248   2.414
58159W        W26533  11.812  14.279   1.875
58160W        W26534  40.313  30.444   1.805
58161W        W26535  27.061  11.198   3.826
58162W        W26536  29.522  17.268   3.232
58163W        W26537  28.487  30.141   0.248
58164W        W26538  29.533  43.414   2.280
58165W        W26539  20.648  36.873   4.221
58166W        W26540  41.892  12.340  10.620
58167W        W26541   1.812  14.684   1.712
58168W        W26542  20.610  11.258   2.197
58169W        W26543   9.153  11.142   0.368
58170W        W26544  37.539  42.789  10.496
58171W        W26545  43.908  15.328   2.316
58172W        W26546  38.568  24.063  13.967
58173W        W26547  44.417   1.821  12.058
58174W        W26548  27.499  28.560   0.769
58175W        W26549  14.288  23.723   3.732
58176W        W26550  38.540  44.000  14.440
58177W        W26551  16.191   2.292   3.355
58178W        W26552  28.119  37.395  12.943
58179W        W26553  31.648  20.545   4.692
58180W        W26554  19.730   2.943  11.917
58181W        W26555  20.084  24.581   2.265
58182W        W26556   5.754  29.539  10.090
58183W        W26557   2.298   5.867  12.546
58184W        W26558  34.387  43.347   4.599
58185W        W26559  21.672   5.856  13.331
58186W        W26560  11.630  23.083   2.413
58187W        W26561   7.332   6.421  12.026
58188W        W26562  18.189  32.885  12.005
58189W        W26563  33.020  23.567  12.440
58190W        W26564  16.190  12.276  13.468
58191W        W26565  23.665   3.236   4.138
58192W        W26566  42.858  28.101  14.282
58193W        W26567   5.922  20.124   2.186
58194W        W26568   7.766  24.589  11.551
58195W        W26569  17.294  27.161  12.842
58196W        W26570  36.586  30.622  11.384
58197W        W26571  29.649   5.800   0.770
58198W        W26572   7.211  27.462   3.200
58199W        W26573  33.929  40.900   3.811
58200W        W26574   6.416  18.586   4.302
58201W        W26575  19.764  28.440  13.451
58202W        W26576  27.452  16.281   2.686
58203W        W26577   5.404  31.995   1.442
58204W        W26578  20.182  30.522   5.104
58205W        W26579   9.839   5.844  14.462
58206W        W26580  33.901  15.618   3.734
58207W        W26581   7.219  19.550   4.750
58208W        W26582   4.286  10.692   1.435
58209W        W26583  11.754  25.141  14.957
58210W        W26584  10.291  21.596   9.941
58211W        W26585  26.205  28.935  10.416
58212W        W26586  36.484  30.016   4.187
58213W        W26587  17.710  35.586  10.976
58214W        W26588   4.236  40.316  13.930
58215W        W26589  44.782   6.407   3.193
58216W        W26590  42.024  19.713  10.451
58217W        W26591  34.107  39.544  14.782
58218W        W26592  25.579  19.559  10.906
58219W        W26593   5.824  32.069  10.517
58220W        W26594   6.697   2.842  12.854
58221W        W26595   7.401  23.616  13.929
58222W        W26596  35.567  13.318   3.844
58223W        W26597  44.998  39.479  13.870
58224W        W26598  34.884  12.197  12.073
58225W        W26599   2.861  28.656   4.341
58226W        W26600  13.227  30.039  11.049
58227W        W26601  10.792  26.602  14.840
58228W        W26602  23.075   8.888   1.392
58229W        W26603  40.338  29.104   2.742
58230W        W26604  25.988  39.987  13.402
58231W        W26605  33.901   0.749   2.354
58232W        W26606  16.758  40.028  12.357
58233W        W26607  27.494  16.801  13.970
58234W        W26608  36.574   6.887   2.184
58235W        W26609   7.185  24.547   4.779
58236W        W26610  19.211  21.602  13.928
58237W        W26611  26.548  10.640   4.343
58238W        W26612  13.836  27.019   2.732
58239W        W26613  22.134  18.171   1.723
58240W        W26614  26.097   0.943  10.637
58241W        W26615  21.263  16.766  10.912
58242W        W26616   2.364  38.487   1.327
58243W        W26617  40.996  34.995   3.706
58244W        W26618   4.387  26.113  13.537
58245W        W26619  15.093  10.663   5.764
58246W        W26620   0.376  34.601  12.967
58247W        W26621  12.835  38.390   1.397
58248W        W26622  37.432   9.211   3.799
58249W        W26623  28.999  25.049  14.943
58250W        W26624  11.353  21.726  13.956
58251W        W26625  34.085  44.802  14.952
58252W        W26626   9.794  18.790   0.251
58253W        W26627  34.612   6.719  14.777
58254W        W26628  14.803  27.047   4.247
58255W        W26629  12.307  24.483   1.330
58256W        W26630   0.786   5.273  14.442
58257W        W26631  10.744  23.199  13.333
58258W        W26632  37.348  10.700  14.844
58259W        W26633  39.549  18.260  14.008
58260W        W26634  12.761   1.885   1.415
58261W        W26635  16.785  10.170   0.360
58262W        W26636  25.499  36.469  14.401
58263W        W26637   4.923  40.953   0.774
58264W        W26638  23.513  10.144   3.717
58265W        W26639  27.059  33.983   1.245
58266W        W26640  30.941  31.013   3.187
58267W        W26641  28.096  37.852   1.721
58268W        W26642   4.811  28.004   3.676
58269W        W26643   6.807   6.742  13.018
58270W        W26644  12.742  43.889   3.311
58271W        W26645   6.324  36.010   0.282
58272W        W26646  10.879  33.511  13.388
58273W        W26647   5.424  16.809   2.894
58274W        W26648  32.061  28.651  14.876
58275W        W26649   1.867  25.081  12.982
58276W        W26650  35.092   2.362  13.823
58277W        W26651   2.426  41.955  14.851
58278W        W26652  15.204  11.270  13.899
58279W        W26653   6.398   8.781   0.392
58280W        W26654  33.625  32.070   3.247
58281W        W26655  40.443   8.795  13.862
58282W        W26656  21.524  25.605  13.943
58283W        W26657  37.939  42.897  11.524
58284W        W26658  40.029   0.412  10.919
58285W        W26659   3.299  15.796   1.770
58286W        W26660  30.469  33.432   5.231
58287W        W26661  20.580  37.569   2.331
58288W        W26662  20.752  10.773   3.792
58289W        W26663  26.700  30.583  13.807
58290W        W26664  25.608  11.711   3.836
58291W        W26665  31.013  32.983   4.139
58292W        W26666  15.619  21.103  13.911
58293W        W26667  23.677  40.986  10.422
58294W        W26668  16.075  29.167   5.320
58295W        W26669  11.750   6.202  12.025
58296W        W26670  33.972  34.370  13.018
58297W        W26671   8.167  17.149  13.327
58298W        W26672  10.871  17.788  13.978
58299W        W26673  39.878  34.402  12.495
58300W        W26674   1.470  18.069   2.346
58301W        W26675  34.553  33.116   0.257
58302W        W26676  38.370  37.057   0.790
58303W        W26677   1.761  20.174  12.551
58304W        W26678  27.508  16.285   4.317
58305W        W26679  11.217  23.653   4.206
58306W        W26680  26.045  25.650  12.867
58307W        W26681  37.521   4.446   0.767
58308W        W26682  40.449   7.881   0.906
58309W        W26683  32.420  34.912   3.725
58310W        W26684  32.934  17.785  10.955
58311W        W26685   1.313  28.048   1.240
58312W        W26686  23.179  26.562   2.834
58313W        W26687  40.514  37.523  12.012
58314W        W26688  15.659   3.332  10.106
58315W        W26689  33.457  25.139   3.652
58316W        W26690  42.451  44.494   1.384
58317W        W26691  28.966  34.875   1.707
58318W        W26692  40.313  34.556   1.818
58319W        W26693  37.386  26.483  14.776
58320W        W26694  35.880  41.364   1.227
58321W        W26695  24.151  27.626   0.869
58322W        W26696   1.851  35.062  13.858
58323W        W26697   0.946  36.027  10.425
58324W        W26698  24.594  24.716   4.764
58325W        W26699  39.404  19.073   4.654
58326W        W26700  20.207  41.793  14.032
58327W        W26701  13.197  38.011  10.571
58328W        W26702  29.144  19.089   3.734
58329W        W26703   4.814  32.932  12.500
58330W        W26704   8.405  11.809  12.529
58331W        W26705  31.100   5.908   1.767
58332W        W26706  22.545  39.406   0.247
58333W        W26707  26.185   6.317  11.080
58334W        W26708  23.636  27.085   2.848
58335W        W26709  27.984  42.928  11.455
58336W        W26710   5.326  35.991  12.531
58337W        W26711   9.681   2.784  10.582
58338W        W26712  21.730  11.277   2.207
58339W        W26713  31.431   7.181   4.629
58340W        W26714   5.407  43.410  11.972
58341W        W26715  14.100   6.306  14.420
58342W        W26716  13.351  31.600   1.433
58343W        W26717  14.233  20.741   2.752
58344W        W26718  29.130  41.316   1.234
58345W        W26719  27.995   5.926   1.827
58346W        W26720  19.539   5.254  11.498
58347W        W26721  37.388  10.253  11.913
58348W        W26722   8.762  22.126   1.416
58349W        W26723  34.931  37.463  13.458
58350W        W26724   4.885   9.788  13.879
58351W        W26725  27.991  44.836  11.972
58352W        W26726  18.060  26.653  11.457
58353W        W26727  22.034  33.533   4.186
58354W        W26728  35.572  33.404   4.277
58355W        W26729  44.828  38.397   0.336
58356W        W26730   1.396  39.884  12.945
58357W        W26731  32.577  18.647  14.818
58358W        W26732  32.916   1.862  13.804
58359W        W26733  12.674   1.395  12.378
58360W        W26734  12.682  18.242   1.320
58361W        W26735  11.666  24.192  12.473
58362W        W26736   9.292  16.208  11.869
58363W        W26737  23.195   9.312  11.538
58364W        W26738   2.905   4.934   3.719
58365W        W26739  28.142   6.211  10.560
58366W        W26740   1.388  13.297  13.329
58367W        W26741  34.922   6.703   4.815
58368W        W26742  18.102  44.360   3.251
58369W        W26743  17.777  30.049  11.990
58370W        W26744   1.295  28.961   4.666
58371W        W26745  29.156   7.283  14.884
58372W        W26746  34.058  39.442  11.050
58373W        W26747  21.593  44.964  12.578
58374W        W26748  18.651  33.541  12.926
58375W        W26749   2.872  27.503  10.961
58376W        W26750  13.602   6.851   0.423
58377W        W26751  20.172  22.179   4.161
58378W        W26752  16.701  20.642   2.753
58379W        W26753  38.486  13.197  12.081
58380W        W26754  26.524  23.669  14.333
58381W        W26755   8.890  38.363   2.381
58382W        W26756  28.122  20.619  11.560
58383W        W26757  31.437  36.578   3.662
58384W        W26758   4.303  18.161  14.807
58385W        W26759  36.044   2.781   3.709
58386W        W26760  28.519  31.908   0.473
58387W        W26761   6.235  30.473   1.366
58388W        W26762  23.148  32.628   1.871
58389W        W26763  42.941  41.481   2.775
58390W        W26764  25.049  40.512   0.898
58391W        W26765  44.315  27.606  12.431
58392W        W26766  34.522  38.533   0.270
58393W        W26767  38.834  41.505   0.410
58394W        W26768  38.515   1.901  12.001
58395W        W26769   2.237  27.478   0.767
58396W        W26770   6.684  16.806  14.925
58397W        W26771  14.303  37.532  10.094
58398W        W26772  35.563   3.721   4.699
58399W        W26773   0.747   4.430   1.830
58400W        W26774   7.859   4.407  12.840
58401W        W26775  14.658  26.969   0.323
58402W        W26776  40.958  26.677  13.361
58403W        W26777   9.706   7.176  13.057
58404W        W26778  33.503   5.223  11.577
58405W        W26779  14.642  14.753   1.302
58406W        W26780  34.383  30.416  10.590
58407W        W26781  32.630   6.905  13.423
58408W        W26782  40.043  41.960  12.989
58409W        W26783  37.901  33.088  13.974
58410W        W26784  26.086  24.704  13.347
58411W        W26785   9.712  14.205  14.001
58412W        W26786  20.655  22.747   4.837
58413W        W26787  39.367  10.650  11.503
58414W        W26788  14.765   4.808   3.191
58415W        W26789  10.643  33.467   1.906
58416W        W26790   0.775  27.458   3.741
58417W        W26791  44.503  26.559   2.267
58418W        W26792  24.038  19.671  10.600
58419W        W26793   9.726   8.797  10.463
58420W        W26794   5.315  29.056   0.740
58421W        W26795  23.139   2.340  14.385
58422W        W26796  35.410  38.003   3.349
58423W        W26797  21.724  12.659  12.931
58424W        W26798  30.573  14.260   0.882
58425W        W26799  24.192  35.886  12.549
58426W        W26800   6.324  19.593  13.852
58427W        W26801  42.452  44.835   1.413
58428W        W26802   4.850  30.013   2.742
58429W        W26803  18.690  23.031   2.411
58430W        W26804   5.401  42.900   2.823
58431W        W26805  35.060   5.842   3.255
58432W        W26806  44.843  44.868  11.468
58433W        W26807  39.824  28.473   3.630
58434W        W26808  17.124   1.394  12.933
58435W        W26809  12.670  20.263   1.352
58436W        W26810  10.277  42.438   3.759
58437W        W26811   8.201  33.976   3.676
58438W        W26812  42.994   1.952  11.014
58439W        W26813  40.312  11.263  11.427
58440W        W26814   2.774   0.781  11.995
58441W        W26815   8.819   5.920   2.841
58442W        W26816  24.200   2.407   2.727
58443W        W26817   2.827   1.448  14.818
58444W        W26818  18.223  19.650   1.739
58445W        W26819  16.769   8.791   5.293
58446W        W26820  24.046  38.069   3.310
58447W        W26821  35.098   9.679  14.989
58448W        W26822   9.306   6.242  12.048
58449W        W26823  41.860  39.385  14.364
58450W        W26824  14.725  12.132   2.697
58451W        W26825  24.671  22.072   3.660
58452W        W26826  35.978  27.062   1.851
58453W        W26827  12.324  40.415  10.442
58454W        W26828  43.283  30.461  13.368
58455W        W26829   8.737  38.054   1.758
58456W        W26830  42.495   9.189   2.389
58457W        W26831   4.230   2.762   0.355
58458W        W26832   0.744  35.583  10.435
58459W        W26833  32.591  26.069  14.801
58460W        W26834  44.357   8.162  11.580
58461W        W26835  34.046  19.564   2.393
58462W        W26836  23.125   0.984   1.277
58463W        W26837  15.655  32.918   2.690
58464W        W26838  21.163  24.649  12.020
58465W        W26839  34.008  42.909   1.726
58466W        W26840   7.243   9.268   3.226
58467W        W26841   5.378  43.374   1.402
58468W        W26842  32.411  41.001   3.317
58469W        W26843  23.585  11.792  12.057
58470W        W26844  21.514  25.220   1.928
58471W        W26845  41.925  39.508   1.726
58472W        W26846   0.442  34.549  10.563
58473W        W26847  12.120   3.748  14.950
58474W        W26848  43.919  24.609   4.634
58475W        W26849  23.110   5.916   1.244
58476W        W26850  15.743   4.854   1.240
58477W        W26851  30.621  19.150   4.754
58478W        W26852  27.007  11.637  11.957
58479W        W26853  38.058  43.764  14.786
58480W        W26854   9.827  38.071  12.548
58481W        W26855  27.092   8.319  14.418
58482W        W26856  39.977   5.302   3.164
58483W        W26857  16.762  12.204  14.934
58484W        W26858   7.768   8.809   4.256
58485W        W26859   1.822  41.315   4.653
58486W        W26860  37.086   7.327   5.276
58487W        W26861  26.491  23.116   3.337
58488W        W26862  34.479  42.939   4.218
58489W        W26863  12.649  44.888   0.797
58490W        W26864  40.004  41.518  12.894
58491W        W26865  14.129  29.153   4.605
58492W        W26866  31.452  17.594   0.453
58493W        W26867  41.473   0.780  13.883
58494W        W26868   3.347  24.634   3.839
58495W        W26869  44.005   4.705   1.335
58496W        W26870  13.200  24.685  12.469
58497W        W26871  30.466  29.106   0.352
58498W        W26872  40.918  40.959  14.778
58499W        W26873  39.888  40.827   4.254
58500W        W26874   0.769  28.679  14.853
58501W        W26875  20.052   8.196   4.193
58502W        W26876  22.091  40.412  13.472
58503W        W26877   7.318  14.263   3.757
58504W        W26878  33.538  37.925  12.359
58505W        W26879  29.543   6.337   1.428
58506W        W26880  44.319  27.466  11.551
58507W        W26881   6.291  14.166   1.333
58508W        W26882  13.253  12.194  12.423
58509W        W26883  23.550  11.307  12.548
58510W        W26884  18.564   8.750   1.341
58511W        W26885  19.764   1.392   2.263
58512W        W26886  36.353  32.029  12.935
58513W        W26887  28.176  12.779  11.119
58514W        W26888   7.898  12.346  12.421
58515W        W26889  10.657   6.419   2.804
58516W        W26890  23.129  41.008   0.320
58517W        W26891  13.668  16.590   4.802
58518W        W26892  36.900  37.349  13.062
58519W        W26893  36.353  15.261   0.816
58520W        W26894   0.883   8.700   3.630
58521W        W26895   6.357  43.271  13.063
58522W        W26896  39.440  24.169  12.535
58523W        W26897  14.644   6.715  14.449
58524W        W26898  17.631  10.796  12.923
58525W        W26899  32.981  43.333   1.760
58526W        W26900  10.295  24.617  11.591
58527W        W26901  25.212  39.315  11.091
58528W        W26902  30.152  17.133  12.413
58529W        W26903  18.721  16.746   4.836
58530W        W26904  22.109  40.933   0.841
58531W        W26905  20.763  11.344   0.857
58532W        W26906  13.715  23.095  14.014
58533W        W26907  24.000  21.526   4.142
58534W        W26908  41.871  42.982  14.987
58535W        W26909  33.476  33.441  14.364
58536W        W26910  44.921  36.406   3.179
58537W        W26911   7.290  31.002   1.860
58538W        W26912  42.785  21.224  13.046
58539W        W26913  25.483  12.177  13.960
58540W        W26914   3.277  21.035  12.516
58541W        W26915   1.893  37.394   3.847
58542W        W26916  22.226  27.654  14.313
58543W        W26917  15.790  36.889   2.801
58544W        W26918  33.465   2.775  12.436
58545W        W26919  25.541  21.056  11.897
58546W        W26920  30.522  11.775  12.858
58547W        W26921  19.551  38.341  12.425
58548W        W26922  18.740  43.292   4.207
58549W        W26923   2.784   7.795  14.347
58550W        W26924  34.116  11.248  11.038
58551W        W26925  23.602  25.132   3.823
58552W        W26926   2.780   7.769  10.574
58553W        W26927  23.533  28.463   4.323
58554W        W26928   4.755  43.300  10.466
58555W        W26929  33.570   8.359   3.200
58556W        W26930   9.171  31.607  13.359
58557W        W26931  36.029  33.969   3.650
58558W        W26932  15.642   1.452  14.470
58559W        W26933  23.491   9.223  12.036
58560W        W26934  42.926  33.987   3.274
58561W        W26935   2.744  12.197   2.828
58562W        W26936  12.789  26.145  12.903
58563W        W26937  42.427   7.709   1.297
58564W        W26938  19.558  41.981   2.384
58565W        W26939  16.756  15.186  11.468
58566W        W26940   9.696   2.910  14.895
58567W        W26941  10.778   4.939  10.619
58568W        W26942   0.915  43.843  14.471
58569W        W26943  36.099   5.233   2.693
58570W        W26944   5.920  41.295   1.751
58571W        W26945  40.954   6.245   0.832
58572W        W26946  36.942  42.926   1.781
58573W        W26947   6.705  24.542  11.997
58574W        W26948  22.094   3.448   0.297
58575W        W26949  33.500  36.437  14.886
58576W        W26950  11.329  38.892   3.710
58577W        W26951  22.565   1.934  10.999
58578W        W26952  40.864   6.805  10.477
58579W        W26953   4.795  26.658   2.696
58580W        W26954   4.400  34.928   1.830
58581W        W26955  34.913   1.247  12.005
58582W        W26956  23.644  28.005   0.907
58583W        W26957  41.034   9.813   2.796
58584W        W26958  10.742  33.923  11.011
58585W        W26959  37.866  28.514  11.474
58586W        W26960  42.430  23.542   4.226
58587W        W26961  42.922   2.293  11.975
58588W        W26962  19.664  38.986   0.270
58589W        W26963  41.020  27.574   0.869
58590W        W26964  10.372  15.775   1.901
58591W        W26965   2.451  24.684   3.300
58592W        W26966  34.053  36.010   2.365
58593W        W26967  35.385  21.625  12.863
58594W        W26968  19.631  20.757  14.363
58595W        W26969   7.714  28.470  11.531
58596W        W26970  35.060  32.082   5.091
58597W        W26971  40.431  26.584   0.428
58598W        W26972  28.520  19.277  10.534
58599W        W26973  37.517  44.295   0.774
58600W        W26974  42.521   2.416  14.828
58601W        W26975  24.595   7.860  12.384
58602W        W26976  30.962   9.242   3.286
58603W        W26977   3.253   9.269   1.249
58604W        W26978  43.318  12.743  13.440
58605W        W26979  11.340   1.394   4.598
58606W        W26980   1.279   5.868  12.350
58607W        W26981  16.191  31.457   4.279
58608W        W26982  13.134  21.745  11.115
58609W        W26983  36.013  35.020  14.394
58610W        W26984  13.314  15.702  14.776
58611W        W26985  40.459  41.418  10.902
58612W        W26986  24.611  10.362  13.049
58613W        W26987  39.352  27.623   1.934
58614W        W26988  35.946  27.089  11.931
58615W        W26989  22.124   2.352  10.639
58616W        W26990  28.603  30.993   2.300
58617W        W26991  41.472  11.309  13.812
58618W        W26992  17.139  33.926   0.790
58619W        W26993  18.107  27.514  14.829
58620W        W26994  20.270  15.118  11.068
58621W        W26995   3.802  44.759   2.758
58622W        W26996   5.322   8.708  11.606
58623W        W26997  33.043   1.317   3.155
58624W        W26998  41.037  41.792   2.834
58625W        W26999  27.943  39.433   1.754
58626W        W27000  44.464  44.490  14.428
58627W        W27001  43.310  32.063   0.826
58628W        W27002  28.145   2.432   2.345
58629W        W27003  13.662  28.489  14.856
58630W        W27004  43.317   9.252   0.798
58631W        W27005   3.331   4.832  11.425
58632W        W27006  43.824  31.587  14.783
58633W        W27007  13.136  33.128  11.598
58634W        W27008   6.312  12.710  11.989
58635W        W27009  12.227  43.505  10.442
58636W        W27010  20.127  20.164  11.613
58637W        W27011   5.347   5.344   1.378
58638W        W27012  22.662  34.408   2.871
58639W        W27013  24.669   6.220  13.881
58640W        W27014  13.155  25.158   2.856
58641W        W27015  10.208  19.695  14.998
58642W        W27016  13.139  10.377   3.305
58643W        W27017  39.343  18.697  11.533
58644W        W27018   9.659   2.371   2.375
58645W        W27019  39.480  28.086   4.274
58646W        W27020  21.674   9.646   0.950
58647W        W27021   6.391  34.891   3.676
58648W        W27022  14.123  25.643   4.723
58649W        W27023  37.404  23.536  10.416
58650W        W27024  35.407  30.041  10.934
58651W        W27025  29.512  31.470   0.361
58652W        W27026  28.097  36.035  14.416
58653W        W27027   9.325  34.027   2.417
58654W        W27028  31.061  36.847   2.397
58655W        W27029  18.165  23.648  13.338
58656W        W27030   0.855  36.087   0.800
58657W        W27031  41.380  23.224  13.014
58658W        W27032   6.730  31.943   1.746
58659W        W27033  41.315  12.651  13.911
58660W        W27034  23.183  16.659   1.339
58661W        W27035  36.072   8.830  14.031
58662W        W27036  17.780  17.639  12.964
58663W        W27037  24.692   0.968   2.837
58664W        W27038  22.208  21.699   2.746
58665W        W27039  38.030  41.296   1.391
58666W        W27040  14.321  15.797   4.238
58667W        W27041  25.503   9.708   1.926
58668W        W27042  39.053  27.594   9.989
58669W        W27043  43.436  34.104   2.202
58670W        W27044  37.947  41.029  12.970
58671W        W27045  42.986  31.087  12.396
58672W        W27046   6.327  36.484   3.161
58673W        W27047  26.121   4.908   0.361
58674W        W27048  13.699  43.799   0.784
58675W        W27049  32.463  38.533  11.508
58676W        W27050  22.719  32.513   3.382
58677W        W27051   3.954  38.034   3.837
58678W        W27052  42.365  24.045  12.983
58679W        W27053  31.498  39.424  14.275
58680W        W27054  35.513   8.745   0.866
58681W        W27055  42.855   1.425   2.324
58682W        W27056  41.480  39.869   0.748
58683W        W27057   1.809  31.476  11.867
58684W        W27058  24.607  33.032   1.308
58685W        W27059   0.267  20.145   4.127
58686W        W27060  20.191  37.876   4.174
58687W        W27061  27.680  18.213  12.530
58688W        W27062  23.142  39.841   5.671
58689W        W27063  39.371  44.901  11.881
58690W        W27064  22.683  15.212   1.779
58691W        W27065  25.969  24.176  13.360
58692W        W27066   4.832  21.665  13.499
58693W        W27067  20.089  13.108   2.394
58694W        W27068  35.878  21.086   1.902
58695W        W27069  16.633   3.955  13.821
58696W        W27070  43.870  35.103   0.318
58697W        W27071  27.021  31.561   0.404
58698W        W27072  11.275  44.852   2.394
58699W        W27073   1.425  11.722  11.421
58700W        W27074  28.965  37.872  11.400
58701W        W27075   2.921  43.434  10.454
58702W        W27076  41.378  44.754  13.982
58703W        W27077  17.715  32.099  11.079
58704W        W27078  13.112  14.239  12.526
58705W        W27079  17.067  24.601   0.750
58706W        W27080  10.823  15.125  14.821
58707W        W27081   6.810  18.571   3.709
58708W        W27082  20.615  25.059  13.420
58709W        W27083  21.112  15.189  11.048
58710W        W27084  11.695   5.340  12.037
58711W        W27085  41.377  43.859  14.897
58712W        W27086  38.001   7.249   5.805
58713W        W27087   7.706   3.294  10.918
58714W        W27088  42.983  11.854   0.294
58715W        W27089  36.940  23.498   4.817
58716W        W27090  26.042  38.883   2.301
58717W        W27091  25.674  15.155  11.890
58718W        W27092  31.586  43.407   3.367
58719W        W27093   5.291  19.233   2.397
58720W        W27094   6.232  27.517  10.513
58721W        W27095  15.809   8.868  14.883
58722W        W27096  20.115   5.795   3.829
58723W        W27097   0.746  15.206   4.664
58724W        W27098   2.866  35.069  11.986
58725W        W27099   1.738  27.031  14.868
58726W        W27100  16.176  28.632   4.320
58727W        W27101  37.547   2.881  11.423
58728W        W27102  30.106   0.962   4.720
58729W        W27103  26.699  24.089  11.028
58730W        W27104  33.442  38.509  10.518
58731W        W27105  11.169  24.210  13.974
58732W        W27106  42.412  42.795  12.979
58733W        W27107  42.875  31.403  12.527
58734W        W27108  42.979  18.552  12.353
58735W        W27109  39.813  44.451   4.317
58736W        W27110  24.620  41.026  14.900
58737W        W27111  36.852  32.075   0.473
58738W        W27112  14.678   0.415  13.893
58739W        W27113  26.123  44.817   0.440
58740W        W27114  27.490  24.598  11.516
58741W        W27115  41.366  35.448  11.008
58742W        W27116   5.788  33.911   1.864
58743W        W27117   9.393  34.608   0.853
58744W        W27118  22.715  29.645   4.336
58745W        W27119   3.422  30.914  11.395
58746W        W27120  15.167  32.446  14.371
58747W        W27121  35.057   2.815  14.501
58748W        W27122  29.568  24.481  11.953
58749W        W27123  21.569  40.532   5.161
58750W        W27124  43.419  39.978   4.654
58751W        W27125  12.308  18.106   4.221
58752W        W27126  41.524  15.154  14.395
58753W        W27127   1.825  23.059  14.478
58754W        W27128  17.133  13.136   2.369
58755W        W27129  44.280  26.196   1.248
58756W        W27130  15.084  41.297   1.411
58757W        W27131   6.891  44.278  13.379
58758W        W27132  36.497  36.548  11.971
58759W        W27133  28.636  11.672  14.967
58760W        W27134  32.141  41.935   0.887
58761W        W27135  26.477   6.388   2.184
58762W        W27136  14.195   0.444  14.321
58763W        W27137  27.157  16.250   0.780
58764W        W27138  28.512  41.493  13.887
58765W        W27139  22.225  29.426   0.412
58766W        W27140  36.452  29.034  12.958
58767W        W27141  24.683  18.732  13.504
58768W        W27142   2.905  17.105   3.270
58769W        W27143   1.964  23.200   3.206
58770W        W27144  19.764   8.315  12.556
58771W        W27145  11.157  27.124  10.452
58772W        W27146  10.826   9.731  12.516
58773W        W27147  25.076  40.922   1.905
58774W        W27148   8.366  37.020   4.219
58775W        W27149  40.470  44.853  12.507
58776W        W27150  44.011   2.364  14.901
58777W        W27151   9.356  22.690  10.528
58778W        W27152  43.857  23.540  10.897
58779W        W27153  15.203   6.408  11.092
58780W        W27154  26.138  25.512   1.825
58781W        W27155  35.083   4.911   0.940
58782W        W27156   7.672   4.935  11.887
58783W        W27157  32.621  19.081  12.972
58784W        W27158  13.703  44.000  14.987
58785W        W27159  11.365  14.795  12.410
58786W        W27160  42.995  23.536  13.830
58787W        W27161  37.390  38.880   2.708
58788W        W27162  18.602  11.183  13.916
58789W        W27163  41.874   3.327  10.435
58790W        W27164  39.520  29.151   4.141
58791W        W27165  38.929  13.316  10.638
58792W        W27166  16.284  24.655  12.007
58793W        W27167  16.224   6.200   3.326
58794W        W27168  28.649   3.915   1.303
58795W        W27169  41.317  22.052   1.748
58796W        W27170  14.593  44.003   4.643
58797W        W27171   5.715   1.767   3.262
58798W        W27172   9.341  32.043  13.382
58799W        W27173   9.860  44.954   2.223
58800W        W27174   5.233   9.831  13.531
58801W        W27175  14.300  44.800   1.893
58802W        W27176   5.920   1.953   0.430
58803W        W27177  41.861  41.919   2.696
58804W        W27178  23.048  35.552   1.836
58805W        W27179  19.625  24.694  10.459
58806W        W27180  16.801  13.127  12.946
58807W        W27181   1.799   5.697   0.734
58808W        W27182  42.950  18.671   4.705
58809W        W27183  29.151   2.436   1.239
58810W        W27184  28.527  29.024  14.324
58811W        W27185   1.946  42.832  14.294
58812W        W27186  34.081   8.174  11.124
58813W        W27187  12.692  19.189   3.310
58814W        W27188  13.770  31.638   2.242
58815W        W27189   1.946  39.361  11.992
58816W        W27190   3.246  43.019  11.601
58817W        W27191  27.664  25.574   2.240
58818W        W27192   8.751   6.841  14.972
58819W        W27193  41.991  26.027   3.631
58820W        W27194  39.907  26.026   2.842
58821W        W27195  27.181   6.883  14.493
58822W        W27196  37.893  12.163  14.388
58823W        W27197  15.287   8.399  14.422
58824W        W27198   1.280  42.492   4.223
58825W        W27199  39.980   4.232  11.092
58826W        W27200  18.747   3.930   4.340
58827W        W27201  28.617  11.634   3.243
58828W        W27202   6.392  16.276   4.793
58829W        W27203   7.247   6.790  12.559
58830W        W27204  27.003  42.920  10.986
58831W        W27205  41.409  13.259   3.764
58832W        W27206   7.708   3.311   1.392
58833W        W27207   9.306  15.218   4.273
58834W        W27208  22.650  26.501  11.955
58835W        W27209  23.068  43.932   4.326
58836W        W27210   0.428  35.093   1.736
58837W        W27211   8.366  29.663  12.501
58838W        W27212  34.550  20.177   3.149
58839W        W27213  31.413  34.995  13.426
58840W        W27214  27.087  20.711  10.476
58841W        W27215  30.943  31.637   0.768
58842W        W27216   2.290  16.129   2.872
58843W        W27217   0.981  10.816   0.444
58844W        W27218   3.934  33.409   2.319
58845W        W27219  38.557  19.178  13.388
58846W        W27220  13.203   2.897   3.817
58847W        W27221   0.953  27.651   3.249
58848W        W27222   8.854  42.976  14.341
58849W        W27223  18.654  38.934   5.203
58850W        W27224   5.871   2.319  11.045
58851W        W27225  34.372   1.361  13.850
58852W        W27226  40.845   5.872  12.458
58853W        W27227   3.847  17.773  12.078
58854W        W27228   0.374  15.155  12.875
58855W        W27229   8.166   9.784  13.015
58856W        W27230  38.029   7.827  12.571
58857W        W27231  28.051  16.138  14.937
58858W        W27232  28.681   4.313   1.719
58859W        W27233  40.002  29.140  13.996
58860W        W27234  13.752  21.599  11.445
58861W        W27235  30.920   1.736  13.032
58862W        W27236  25.696  29.109   1.282
58863W        W27237  28.486  43.501  11.518
58864W        W27238  43.487  31.527   3.834
58865W        W27239  34.457  24.072  12.432
58866W        W27240  17.199  21.660   2.304
58867W        W27241  18.733  14.779  11.502
58868W        W27242  16.720   9.274  11.991
58869W        W27243  24.625  36.045  13.061
58870W        W27244  24.502   3.451   1.387
58871W        W27245  40.926  33.457  14.310
58872W        W27246   6.295  30.554   3.295
58873W        W27247  31.982  33.932   0.308
58874W        W27248   7.251  21.113  14.999
58875W        W27249  24.109  16.774  13.041
58876W        W27250  11.299  36.523   1.231
58877W        W27251  33.589  12.790   4.706
58878W        W27252   7.840  19.242  14.964
58879W        W27253  34.577  19.624  10.898
58880W        W27254  23.031  17.676  12.476
58881W        W27255  22.174  12.806  12.856
58882W        W27256  40.949   9.782   2.397
58883W        W27257  33.087  32.901   3.285
58884W        W27258   8.394  16.732  13.030
58885W        W27259  25.175   5.378   1.222
58886W        W27260  26.160   3.836  10.942
58887W        W27261  38.920   2.452  10.020
58888W        W27262   6.310   6.704  11.561
58889W        W27263   4.771  40.834   1.775
58890W        W27264  43.914   7.707   2.295
58891W        W27265   0.270  19.560   4.708
58892W        W27266  41.412  11.159   3.682
58893W        W27267  32.917   2.955  14.402
58894W        W27268  41.486  44.505   4.283
58895W        W27269   5.687  24.489  11.971
58896W        W27270  30.482   2.884  14.838
58897W        W27271  20.575  12.149   1.901
58898W        W27272  19.601   6.806  11.938
58899W        W27273  38.071  10.770   4.821
58900W        W27274   4.792   7.323  14.859
58901W        W27275  22.595  23.231   0.418
58902W        W27276  30.568  36.990  11.859
58903W        W27277  21.579  19.561   1.916
58904W        W27278  15.172  33.591  10.527
58905W        W27279  13.176   9.825   9.628
58906W        W27280   0.847  39.499   4.158
58907W        W27281  43.971  33.434   2.278
58908W        W27282  28.086  12.640   3.262
58909W        W27283  32.949   7.299   3.272
58910W        W27284  19.179  18.073  12.522
58911W        W27285  25.711  19.065  10.636
58912W        W27286  44.914   9.788  14.311
58913W        W27287  35.476  26.124   4.140
58914W        W27288  43.788   5.751   4.624
58915W        W27289   6.718  22.618   2.357
58916W        W27290  36.919   3.340   3.666
58917W        W27291  18.761  41.963   1.802
58918W        W27292  15.805   4.261   3.702
58919W        W27293  26.119  21.136  13.048
58920W        W27294   9.325  37.078   3.358
58921W        W27295  22.688  39.063   0.944
58922W        W27296  11.360  44.773  12.883
58923W        W27297  29.024   6.388   2.309
58924W        W27298  41.326   5.723  13.863
58925W        W27299  31.409  21.193  13.838
58926W        W27300  21.142  41.326   9.946
58927W        W27301   5.872  16.100  13.388
58928W        W27302  31.068   0.911  10.415
58929W        W27303  19.165  30.159  11.897
58930W        W27304  20.236  39.984   2.254
58931W        W27305   2.363  41.823  13.310
58932W        W27306  22.552  23.513   5.084
58933W        W27307  33.616  33.975  13.013
58934W        W27308  43.277  42.835  11.373
58935W        W27309  30.639  22.114  13.007
58936W        W27310  16.201  43.513   0.945
58937W        W27311  44.776  22.578  11.936
58938W        W27312   9.737   2.755  12.863
58939W        W27313  44.755   7.280  13.024
58940W        W27314  39.861  15.142   1.380
58941W        W27315  43.974  31.061  11.484
58942W        W27316  21.542  26.077  10.957
58943W        W27317  11.842  17.181  13.853
58944W        W27318   7.322   2.837   3.356
58945W        W27319   3.316  25.989   2.304
58946W        W27320  33.092  15.193   0.788
58947W        W27321  39.897  39.389  14.955
58948W        W27322  21.637  42.911  11.889
58949W        W27323  33.982  36.963  13.535
58950W        W27324  16.813  17.600   4.687
58951W        W27325  20.088  40.877   2.666
58952W        W27326   4.884  33.912  14.799
58953W        W27327  35.479  20.754   1.401
58954W        W27328  27.964  14.602  13.481
58955W        W27329  37.460  26.974   0.727
58956W        W27330  12.192   9.879   1.741
58957W        W27331  40.432  28.603  11.944
58958W        W27332  11.668  25.116   2.903
58959W        W27333  40.425   0.337  11.982
58960W        W27334  40.430  36.893   0.391
58961W        W27335  34.057  40.335   2.849
58962W        W27336   5.333  24.648   3.854
58963W        W27337  20.057  32.549  11.524
58964W        W27338  26.628   3.292  12.493
58965W        W27339  33.594  29.946  12.036
58966W        W27340   5.687   7.212  11.517
58967W        W27341  11.255  32.903  13.388
58968W        W27342   2.468  12.254  13.873
58969W        W27343  14.743  17.673   0.937
58970W        W27344  43.777  30.046  10.960
58971W        W27345  24.996   6.885  13.913
58972W        W27346  10.229  30.079  14.476
58973W        W27347  29.480   3.446   3.350
58974W        W27348   7.280  34.425  12.549
58975W        W27349  41.406  31.910  13.046
58976W        W27350  28.085  37.428  13.867
58977W        W27351  20.034  26.999   0.418
58978W        W27352   8.257  24.103  12.505
58979W        W27353  24.550  22.680  12.926
58980W        W27354   7.416  21.703   3.667
58981W        W27355   1.433  15.242  11.599
58982W        W27356  10.345  30.941   1.247
58983W        W27357  34.414   4.823  13.359
58984W        W27358   3.266  21.524  12.824
58985W        W27359   5.290  21.213   1.784
58986W        W27360  17.174  19.642   1.917
58987W        W27361  33.429  43.387   3.152
58988W        W27362  41.876  32.502  10.504
58989W        W27363  20.243  30.612  10.529
58990W        W27364  37.357  11.363  12.065
58991W        W27365  32.393  19.684  14.006
58992W        W27366  29.492  35.960  11.867
58993W        W27367  16.192  30.501  14.469
58994W        W27368  17.149  44.331  12.511
58995W        W27369  24.630  17.627  13.030
58996W        W27370  34.983  29.094  12.874
58997W        W27371   2.428  16.274  11.947
58998W        W27372   7.772  28.667   2.328
58999W        W27373  32.398  21.177   4.821
59000W        W27374  32.961  15.296   4.623
59001W        W27375  11.157  32.618   0.878
59002W        W27376  13.142   9.387  13.419
59003W        W27377   7.180   8.216   3.241
59004W        W27378  11.308   2.309   4.270
59005W        W27379  29.161  29.079  11.559
59006W        W27380  38.512  41.369  10.545
59007W        W27381   5.417  41.423   4.632
59008W        W27382  19.180  22.634   0.853
59009W        W27383   4.803  10.865   3.670
59010W        W27384  39.378  14.168   2.687
59011W        W27385  26.192  43.281   0.777
59012W        W27386  43.797  43.302  14.903
59013W        W27387   5.925  43.288  12.506
59014W        W27388  36.508   7.835   9.943
59015W        W27389  27.104   7.217   1.790
59016W        W27390  39.961  10.353   0.357
59017W        W27391   9.207  38.895  13.516
59018W        W27392   4.893  31.413   2.671
59019W        W27393  18.055  40.441   2.733
59020W        W27394  17.121   3.726  13.526
59021W        W27395  33.550   9.362   0.382
59022W        W27396  15.194  39.377  14.323
59023W        W27397  31.566  29.511  10.980
59024W        W27398   3.919  22.605   0.301
59025W        W27399  29.958  29.115   3.865
59026W        W27400  33.947  16.692  11.917
59027W        W27401  23.049  13.659  13.020
59028W        W27402  13.735  37.971   0.280
59029W        W27403   5.402  33.606  13.934
59030W        W27404  36.096  32.965   2.763
59031W        W27405  16.733   4.793   1.916
59032W        W27406  21.074  22.517  14.433
59033W        W27407  43.301  43.388   4.245
59034W        W27408  28.161  12.704  10.630
59035W        W27409  27.010  35.060   3.170
59036W        W27410   4.706  29.584   4.773
59037W        W27411  12.633  11.642   1.815
59038W        W27412  16.731   9.651  10.106
59039W        W27413  18.055  33.091  12.849
59040W        W27414  16.610   6.720  12.519
59041W        W27415  23.101  22.502  11.127
59042W        W27416  37.507  11.337  14.884
59043W        W27417   4.699  10.162  14.010
59044W        W27418  21.649   9.853   4.621
59045W        W27419   3.228   4.281   0.382
59046W        W27420  17.647  15.629   4.640
59047W        W27421  15.306  28.634  12.049
59048W        W27422   7.911  40.910   4.336
59049W        W27423  35.591  22.077  13.361
59050W        W27424  25.650   8.393   1.696
59051W        W27425  14.211  20.097  14.899
59052W        W27426  11.724   3.342  13.963
59053W        W27427  37.060  27.530  12.067
59054W        W27428   7.171   5.321  13.536
59055W        W27429  32.427  26.520   1.372
59056W        W27430  42.306   5.411  11.547
59057W        W27431  24.694   5.246   3.368
59058W        W27432  13.226  42.281  10.585
59059W        W27433  43.953  15.083   0.731
59060W        W27434  34.062  34.532   2.837
59061W        W27435   1.851  12.258   4.270
59062W        W27436   1.280  17.571  10.446
59063W        W27437  41.860   8.254   2.224
59064W        W27438  27.154  40.893   0.338
59065W        W27439  11.705   8.700  14.850
59066W        W27440  26.958  24.605   1.870
59067W        W27441  40.900   2.758   1.860
59068W        W27442   3.812  23.157  11.919
59069W        W27443  24.697  12.124  12.527
59070W        W27444  30.151   2.952   4.745
59071W        W27445  40.998  12.339  10.474
59072W        W27446   9.762  44.938  11.085
59073W        W27447  25.971  11.146  14.915
59074W        W27448  36.587  24.119   4.333
59075W        W27449  11.732   4.443  13.499
59076W        W27450  10.657  21.233   2.763
59077W        W27451  12.726  14.825  11.978
59078W        W27452   6.885   9.320  12.887
59079W        W27453   2.256  36.911   4.615
59080W        W27454  39.843   7.778  12.916
59081W        W27455  24.217  43.422  10.599
59082W        W27456  28.477  19.091  13.010
59083W        W27457  31.454  23.042   4.792
59084W        W27458  40.324  36.064   0.457
59085W        W27459   7.373  33.127   1.924
59086W        W27460  16.116   2.471   2.289
59087W        W27461  33.028  37.469  12.556
59088W        W27462  38.842  38.980  12.354
59089W        W27463  44.335   9.313   1.755
59090W        W27464  33.517  24.077  10.972
59091W        W27465  16.257   4.735  12.506
59092W        W27466  44.316   2.415  11.867
59093W        W27467  14.663  27.676   4.326
59094W        W27468  42.405  16.598   3.292
59095W        W27469   0.953  37.399  10.155
59096W        W27470  33.047   2.759   3.647
59097W        W27471  23.218  27.104   3.817
59098W        W27472  42.494  36.092   3.201
59099W        W27473  26.154   0.945   0.925
59100W        W27474  36.960  20.620   3.826
59101W        W27475  31.963  32.409  13.421
59102W        W27476  29.997   4.331   1.422
59103W        W27477   7.893  42.849  14.479
59104W        W27478  28.175  40.911   3.641
59105W        W27479  21.124  21.246  11.587
59106W        W27480  13.843  19.554   1.871
59107W        W27481  29.501  14.156  12.895
59108W        W27482   9.344  39.426  11.047
59109W        W27483  10.220   9.673  11.924
59110W        W27484  11.247   9.762   2.850
59111W        W27485  32.038  37.409  14.765
59112W        W27486  14.815  32.027  10.060
59113W        W27487  21.043  17.644  11.091
59114W        W27488  40.531   5.921  12.846
59115W        W27489  10.228  20.591  10.920
59116W        W27490   2.921   0.464   1.284
59117W        W27491  40.017  17.256  12.510
59118W        W27492  25.155  35.104  14.970
59119W        W27493  29.966  12.117   0.881
59120W        W27494  29.994  19.615   3.775
59121W        W27495  43.924   8.191  11.986
59122W        W27496   4.883   2.386   2.874
59123W        W27497  21.099   3.732   2.401
59124W        W27498   0.866  19.271   0.748
59125W        W27499  11.732  10.215   2.832
59126W        W27500  35.927  29.138  10.902
59127W        W27501  34.470  22.013   4.210
59128W        W27502  11.717  38.414   3.313
59129W        W27503   3.287  44.899  11.506
59130W        W27504  23.549  34.514   3.228
59131W        W27505  25.989   5.781   3.179
59132W        W27506  34.494  31.485  10.985
59133W        W27507  27.061   1.860   2.743
59134W        W27508  44.000  40.018  12.370
59135W        W27509   0.817   6.272  11.074
59136W        W27510   6.231  19.547   0.848
59137W        W27511  37.501  20.768  11.072
59138W        W27512  13.605  31.055  12.916
59139W        W27513   9.753  42.784  11.873
59140W        W27514  10.752  25.493   2.222
59141W        W27515   6.866  18.272   4.234
59142W        W27516  13.813  22.061  11.982
59143W        W27517  16.621  36.445  12.383
59144W        W27518  29.462  16.126  11.032
59145W        W27519  21.259  10.356   0.422
59146W        W27520  11.808  19.718   5.265
59147W        W27521  44.865   4.859  10.479
59148W        W27522  26.120   8.348  14.397
59149W        W27523   6.679  41.392   3.733
59150W        W27524  30.120  34.605  14.510
59151W        W27525  21.522   7.235   3.278
59152W        W27526  17.233  36.579   0.960
59153W        W27527   7.857  14.749  10.585
59154W        W27528  20.753   7.326  14.998
59155W        W27529  33.875  26.073   1.828
59156W        W27530  37.432  22.719   1.720
59157W        W27531   5.394  26.669   0.397
59158W        W27532  32.554  40.013   1.424
59159W        W27533  38.950   9.665   5.772
59160W        W27534   7.667  28.593   1.928
59161W        W27535  36.940  16.599  10.568
59162W        W27536   8.750  26.164  14.027
59163W        W27537  23.698  26.142  14.443
59164W        W27538  34.983  44.935  12.458
59165W        W27539  29.470   1.339   4.612
59166W        W27540  44.849  18.575   4.717
59167W        W27541  31.476  13.831   2.698
59168W        W27542  22.677  29.133  11.512
59169W        W27543  18.687  44.406   2.311
59170W        W27544  20.552  39.860  11.539
59171W        W27545  20.040  41.432   2.356
59172W        W27546   6.732  29.129   2.680
59173W        W27547  35.944  41.928   0.286
59174W        W27548   1.944   9.781  12.447
59175W        W27549  17.758  32.085  12.511
59176W        W27550  40.387  19.236   2.664
59177W        W27551  38.465  11.742   2.756
59178W        W27552  33.408   5.790  12.555
59179W        W27553  12.645  16.780  12.429
59180W        W27554  43.388   0.445  11.521
59181W        W27555  35.089  15.155   0.858
59182W        W27556   1.362  34.041  14.984
59183W        W27557  23.548   9.180  14.906
59184W        W27558  15.761   0.477  10.930
59185W        W27559  21.629  35.560   0.272
59186W        W27560  32.455  28.111   2.741
59187W        W27561   1.841  28.611   2.280
59188W        W27562  44.301   3.320   3.673
59189W        W27563  16.223  26.049   2.350
59190W        W27564   4.204  26.569  12.481
59191W        W27565  26.200  44.957   2.270
59192W        W27566   3.804  22.743   1.745
59193W        W27567  33.050  33.911   3.646
59194W        W27568  32.459  18.659   0.336
59195W        W27569   8.350   5.348  11.397
59196W        W27570  10.719  27.120   2.884
59197W        W27571  29.639   8.898  13.343
59198W        W27572  13.212  18.711  13.451
59199W        W27573  21.647  22.674   4.768
59200W        W27574   8.303   5.398   9.948
59201W        W27575  24.631  11.717   0.439
59202W        W27576  31.601  36.398   1.883
59203W        W27577  22.523   9.198  14.841
59204W        W27578  27.477  36.589  14.894
59205W        W27579  26.182  18.782  14.363
59206W        W27580  24.012  15.772  10.152
59207W        W27581  26.047  34.949  13.382
59208W        W27582   6.761  33.495  14.807
59209W        W27583  16.239   8.790  10.948
59210W        W27584  11.700  25.648   1.426
59211W        W27585  33.907   6.346  14.424
59212W        W27586  21.109  25.479  13.810
59213W        W27587  29.602  42.990   4.815
59214W        W27588  11.664   0.765   0.731
59215W        W27589  37.964  15.804  11.498
59216W        W27590  26.551  40.956   4.336
59217W        W27591  32.586   6.728   4.268
59218W        W27592   9.192  37.550  13.368
59219W        W27593   8.178  23.504   1.210
59220W        W27594  28.929  10.346   3.282
59221W        W27595  12.358  34.567  10.538
59222W        W27596  33.023  36.925  12.071
59223W        W27597  38.051  20.262  12.065
59224W        W27598  25.071  11.144   0.481
59225W        W27599  34.423  23.171   4.251
59226W        W27600  24.098  41.917   1.753
59227W        W27601  10.762  29.571   1.382
59228W        W27602   9.190  32.132  10.526
59229W        W27603  17.265  20.585  10.929
59230W        W27604  26.693   7.717  12.854
59231W        W27605  36.990  36.968  10.915
59232W        W27606  31.523  36.522   0.739
59233W        W27607  22.722  21.709  11.550
59234W        W27608  12.682   9.720  13.348
59235W        W27609   0.345  35.923   2.740
59236W        W27610  39.538  40.983  11.015
59237W        W27611  32.129  21.576  12.497
59238W        W27612  29.520  29.522  14.859
59239W        W27613   2.342  32.435  10.592
59240W        W27614   2.360  13.742   2.348
59241W        W27615  34.910  20.161  10.601
59242W        W27616  22.720  33.386  12.001
59243W        W27617   8.377   6.243  13.503
59244W        W27618   7.750  16.093  10.486
59245W        W27619   2.934  39.049  14.029
59246W        W27620  44.272  24.600  11.602
59247W        W27621   4.797  35.871  12.872
59248W        W27622  38.008   3.733  14.334
59249W        W27623  32.104  37.026   2.846
59250W        W27624  41.518   2.239  10.568
59251W        W27625  35.567   4.424   0.881
59252W        W27626   9.810  26.466   0.855
59253W        W27627  38.475  27.679  11.858
59254W        W27628  23.579  22.090   2.234
59255W        W27629  26.558  33.121   0.801
59256W        W27630   9.371  19.621  11.910
59257W        W27631  12.209  39.458   3.294
59258W        W27632  37.009  23.164  11.606
59259W        W27633  22.678  40.048   3.354
59260W        W27634   9.836  27.001   3.661
59261W        W27635  32.889  34.890  14.805
59262W        W27636   5.827   8.397  10.998
59263W        W27637  15.284  38.001   1.826
59264W        W27638   6.757  24.103   3.377
59265W        W27639  37.421  31.575  12.543
59266W        W27640  26.159  11.266   1.253
59267W        W27641  26.696  13.745   0.355
59268W        W27642  20.699  25.157   5.091
59269W        W27643  32.591  20.575  13.971
59270W        W27644   6.918  15.644  12.870
59271W        W27645  44.912  33.929  12.464
59272W        W27646  43.391  41.404  12.520
59273W        W27647   1.878  41.394  13.838
59274W        W27648   9.787  44.872   1.215
59275W        W27649  39.040  24.505   2.800
59276W        W27650  33.886  12.617  12.397
59277W        W27651  15.303  26.062  13.059
59278W        W27652  31.151   7.787  10.481
59279W        W27653  13.719   0.868   2.860
59280W        W27654   7.389  37.552   1.903
59281W        W27655   6.917   1.398  11.948
59282W        W27656  42.365  36.062   1.417
59283W        W27657  19.040  29.658  10.537
59284W        W27658  33.023   5.315   1.759
59285W        W27659  26.632  15.185   1.344
59286W        W27660   2.469  43.932  11.600
59287W        W27661  31.954  30.523  14.417
59288W        W27662  15.768  32.394  11.494
59289W        W27663  11.328  32.078  10.545
59290W        W27664  44.881  31.438  11.521
59291W        W27665  16.769  39.511  13.385
59292W        W27666  39.932   0.798  11.052
59293W        W27667  19.070   8.838   3.774
59294W        W27668  42.470  25.615  11.421
59295W        W27669  24.138   6.730   4.806
59296W        W27670  24.531  20.607  12.075
59297W        W27671   9.755  43.473  12.349
59298W        W27672  34.905  20.169   1.400
59299W        W27673  15.812  42.790  12.020
59300W        W27674   9.157   8.812   3.251
59301W        W27675  11.287  39.046   2.836
59302W        W27676  21.170  27.624  12.019
59303W        W27677   9.727   9.822  12.377
59304W        W27678  34.425  12.657  11.466
59305W        W27679  26.462  29.509   4.292
59306W        W27680  44.796  35.465   0.478
59307W        W27681  19.643  28.990  11.052
59308W        W27682  11.765  38.902   1.815
59309W        W27683  12.842  26.526  12.494
59310W        W27684  24.599  43.015  13.838
59311W        W27685  14.811  43.995  10.463
59312W        W27686  38.339  15.632  11.921
59313W        W27687  24.106  27.653   2.415
59314W        W27688  42.308  26.480  11.517
59315W        W27689  17.067  42.348  13.322
59316W        W27690  15.198   8.318  12.995
59317W        W27691   7.770  34.391   4.658
59318W        W27692   6.271  43.456   4.192
59319W        W27693  23.014  36.507   0.781
59320W        W27694  16.734  23.162   4.257
59321W        W27695  41.929  24.620  14.489
59322W        W27696   6.780   0.412   1.385
59323W        W27697  12.792   8.253  12.576
59324W        W27698  40.902  24.687  12.895
59325W        W27699  11.781   2.755   3.677
59326W        W27700  43.821  32.122  14.454
59327W        W27701  36.090  24.062  14.472
59328W        W27702   3.726  42.871   1.412
59329W        W27703  35.468  40.353   4.723
59330W        W27704  34.474  23.143  14.762
59331W        W27705  34.058  39.946  11.556
59332W        W27706  11.636  27.475   3.151
59333W        W27707  21.754  34.481  10.531
59334W        W27708   5.215  11.637   4.176
59335W        W27709  37.051   7.343   9.999
59336W        W27710  42.009  15.733   3.320
59337W        W27711  28.125   9.169   3.643
59338W        W27712   4.263   8.219   3.789
59339W        W27713  43.991  31.922  11.576
59340W        W27714   2.965  41.333  10.915
59341W        W27715  15.166  32.981  11.107
59342W        W27716  24.706  27.492   4.232
59343W        W27717  19.671  21.620  13.387
59344W        W27718  36.401  25.970   1.755
59345W        W27719  44.465   0.478  12.094
59346W        W27720   5.435  35.914  14.484
59347W        W27721  19.605   6.295   1.275
59348W        W27722   8.321  25.616  10.078
59349W        W27723  39.973   5.209  12.368
59350W        W27724  43.856  27.116  11.570
59351W        W27725   4.764  20.579  12.941
59352W        W27726  20.264  34.467   0.758
59353W        W27727  14.163  29.991  11.465
59354W        W27728  43.787  18.275   1.339
59355W        W27729  13.112  31.500  12.036
59356W        W27730   9.392  27.488   2.723
59357W        W27731  10.196  35.914   3.750
59358W        W27732  25.636   3.897  14.337
59359W        W27733   7.325  37.376   0.247
59360W        W27734  25.156  11.767  11.063
59361W        W27735   0.899  35.410   2.320
59362W        W27736   3.838   0.900   3.702
59363W        W27737  37.569  40.438  11.959
59364W        W27738   4.427  10.333   4.598
59365W        W27739  30.523  37.065  13.328
59366W        W27740  15.793   7.794  14.399
59367W        W27741  30.491  27.469  13.839
59368W        W27742  11.765  17.698  11.072
59369W        W27743  10.189  11.813  11.449
59370W        W27744  43.447  21.571  13.431
59371W        W27745  30.996  27.477   0.293
59372W        W27746   3.896  31.616   1.330
59373W        W27747  39.813  35.979   0.920
59374W        W27748  30.556  36.497  10.988
59375W        W27749   5.878  23.037  12.443
59376W        W27750  37.962   4.917  10.492
59377W        W27751   4.443  39.942  11.452
59378W        W27752  38.406  10.278   5.198
59379W        W27753  30.607  33.100   3.155
59380W        W27754   5.258  30.919  14.447
59381W        W27755  30.531   9.768   2.396
59382W        W27756  30.126  33.984   4.767
59383W        W27757  33.529   2.761   2.333
59384W        W27758  14.764   1.865   0.785
59385W        W27759   6.789  16.146  14.862
59386W        W27760  44.892  44.416   3.777
59387W        W27761  33.471   0.933  13.492
59388W        W27762  16.754  12.165   4.791
59389W        W27763   2.824   8.403  10.418
59390W        W27764  38.513   4.748   0.286
59391W        W27765  23.644  25.111  11.416
59392W        W27766  13.790  24.001   2.720
59393W        W27767  10.186  32.535  14.854
59394W        W27768  36.511   1.847   3.259
59395W        W27769  11.640  11.670  14.932
59396W        W27770   4.857  26.016  10.097
59397W        W27771  30.128  19.562   0.815
59398W        W27772  32.633   0.958   0.801
59399W        W27773   5.842  31.508   1.755
59400W        W27774  24.635  23.011   4.312
59401W        W27775  40.404  16.222   1.751
59402W        W27776  26.581   7.414   3.705
59403W        W27777  33.438  27.195  11.952
59404W        W27778  11.138  20.263   2.733
59405W        W27779  22.717  43.936  13.044
59406W        W27780  14.657  31.918  11.097
59407W        W27781  36.889   3.880  14.483
59408W        W27782  44.356  40.041   0.422
59409W        W27783  24.149  40.376  13.945
59410W        W27784  41.366  19.748   0.825
59411W        W27785  29.647  31.555   1.357
59412W        W27786   5.823   1.918  11.010
59413W        W27787  38.028  29.663  12.905
59414W        W27788  12.173   2.347   0.298
59415W        W27789  41.470  39.361  10.515
59416W        W27790  30.994  14.253  13.800
59417W        W27791  40.984  13.693  11.402
59418W        W27792  10.790  12.224  13.933
59419W        W27793   4.794  11.207   2.877
59420W        W27794  17.225  44.381  14.331
59421W        W27795  39.886  15.243  10.482
59422W        W27796  14.621   7.732  13.060
59423W        W27797  33.545  44.926  10.605
59424W        W27798   1.915  32.478   4.121
59425W        W27799  23.097  15.201  13.883
59426W        W27800   7.396  27.945   1.849
59427W        W27801  32.070  14.121   2.849
59428W        W27802  34.947  44.261   4.319
59429W        W27803  20.227  10.762   3.272
59430W        W27804  31.148  15.592  12.481
59431W        W27805  33.940   1.805   4.353
59432W        W27806   1.374  21.518  14.428
59433W        W27807   4.874  11.665  13.829
59434W        W27808  34.446  23.501  12.848
59435W        W27809  16.590  39.436  14.890
59436W        W27810  18.171  29.008   0.967
59437W        W27811  43.924  37.515   3.176
59438W        W27812  27.461  33.897   4.799
59439W        W27813   2.239  37.353   1.315
59440W        W27814  28.606  14.292   3.825
59441W        W27815  37.047  37.857   4.667
59442W        W27816   4.753  12.238  11.068
59443W        W27817  15.241  27.110   2.765
59444W        W27818  24.716   7.881   4.750
59445W        W27819  22.087  11.262  14.350
59446W        W27820  23.572  34.953   3.829
59447W        W27821  33.601  26.077  10.928
59448W        W27822  44.362  38.957  11.545
59449W        W27823  16.705   9.254   5.099
59450W        W27824   0.352  40.877   2.341
59451W        W27825  21.195   4.424  14.505
59452W        W27826  43.468   4.927  13.413
59453W        W27827  14.634  11.186   9.957
59454W        W27828  17.098  37.453   2.825
59455W        W27829  22.037  29.006   9.537
59456W        W27830   4.400   0.967   1.845
59457W        W27831  19.083   5.401  13.011
59458W        W27832  21.045  23.081   4.719
59459W        W27833   4.284  31.506   4.699
59460W        W27834  36.855  37.843  13.007
59461W        W27835  42.019  23.499   5.292
59462W        W27836  41.943  24.158   3.860
59463W        W27837  10.781  27.494   1.343
59464W        W27838  38.396   7.754   2.295
59465W        W27839  29.566   3.336   3.669
59466W        W27840   5.262  29.150   3.341
59467W        W27841   7.404   1.800   2.391
59468W        W27842  13.284  19.223   3.212
59469W        W27843  39.450   1.837  11.473
59470W        W27844  22.520  11.226   3.335
59471W        W27845  27.060  23.008   1.773
59472W        W27846  34.452   6.695   3.669
59473W        W27847  18.074  12.116   3.703
59474W        W27848  27.195   4.247  11.403
59475W        W27849  24.147  29.026   1.233
59476W        W27850   0.464  16.138  12.874
59477W        W27851   8.808  30.012  10.927
59478W        W27852   7.776  24.134  10.934
59479W        W27853  24.229  42.371  12.450
59480W        W27854  24.225  35.374  13.870
59481W        W27855  13.782  17.121   3.806
59482W        W27856  33.426  43.489  14.406
59483W        W27857  44.427  43.814   3.151
59484W        W27858  24.978   4.701   3.863
59485W        W27859  19.221   9.771   0.376
59486W        W27860   4.385  16.082  10.613
59487W        W27861  33.895  18.702   1.929
59488W        W27862   1.375   8.223  13.942
59489W        W27863  21.086   8.320   3.237
59490W        W27864  14.274   1.451   3.348
59491W        W27865  23.121   7.257  12.886
59492W        W27866  40.444   8.382  13.950
59493W        W27867  39.875  44.841   2.242
59494W        W27868  10.769  27.006  13.903
59495W        W27869  38.486  41.309   3.232
59496W        W27870  41.972  14.690  11.942
59497W        W27871  11.190  15.804  10.104
59498W        W27872  18.084  42.352  12.562
59499W        W27873  28.486  34.518  14.298
59500W        W27874  38.413   7.812   2.678
59501W        W27875  32.080  20.232  14.313
59502W        W27876  23.984   6.776  10.465
59503W        W27877  17.105   5.854  14.961
59504W        W27878  38.973   9.723   3.702
59505W        W27879   6.837   3.267  10.089
59506W        W27880  27.965  26.184   1.828
59507W        W27881  10.656  21.526  11.471
59508W        W27882  11.222  41.310  14.448
59509W        W27883   3.785   4.210   1.348
59510W        W27884  10.819  44.006   4.196
59511W        W27885  33.003  21.700   2.240
59512W        W27886   2.867  34.008   4.171
59513W        W27887   9.735  29.169  13.530
59514W        W27888  39.950   7.838  14.467
59515W        W27889   6.353  10.732   4.822
59516W        W27890   9.844  44.325   0.263
59517W        W27891  25.476   0.443  12.489
59518W        W27892  17.094  23.619   3.204
59519W        W27893  39.497  22.089  12.935
59520W        W27894  43.959  15.682   4.715
59521W        W27895  34.574  23.021  14.495
59522W        W27896   7.893  21.637  13.919
59523W        W27897   1.408   0.434   3.702
59524W        W27898  36.464  10.721  13.377
59525W        W27899  21.169  35.996  11.961
59526W        W27900  34.989  15.746   3.153
59527W        W27901  16.296  36.984   2.411
59528W        W27902  34.469   1.735   2.285
59529W        W27903   3.828  36.531  11.442
59530W        W27904  40.988  33.023  13.860
59531W        W27905   3.903  23.012   3.224
59532W        W27906   3.362  33.962   2.412
59533W        W27907  19.762  24.127   1.219
59534W        W27908   9.829  43.823   2.410
59535W        W27909  24.025  16.082   0.319
59536W        W27910   8.886  11.824   1.355
59537W        W27911  43.418  28.506  12.993
59538W        W27912  16.732   6.782  14.498
59539W        W27913  14.216  39.888   3.282
59540W        W27914  33.943  23.194   1.446
59541W        W27915  22.743   1.944   4.271
59542W        W27916  23.205  25.549   3.629
59543W        W27917   5.924   1.425  11.995
59544W        W27918  32.022  20.683  11.037
59545W        W27919   4.392   5.206   3.321
59546W        W27920  28.136  40.439  14.340
59547W        W27921  25.186  25.501   5.190
59548W        W27922  44.906  38.524   0.932
59549W        W27923  20.646  29.975  10.913
59550W        W27924  39.837   8.849   2.852
59551W        W27925   5.850   5.884   1.768
59552W        W27926   9.355  36.094   5.165
59553W        W27927  34.467  41.492   0.942
59554W        W27928  44.940  11.277  12.918
59555W        W27929  23.595   7.253   0.743
59556W        W27930  17.090   7.297   4.826
59557W        W27931  15.680  40.409  12.372
59558W        W27932  32.407  32.082   3.272
59559W        W27933  39.808  44.406   0.443
59560W        W27934  26.106  36.994  14.345
59561W        W27935  39.033  36.912   2.280
59562W        W27936  11.831   6.346  12.863
59563W        W27937  44.388  14.307   3.784
59564W        W27938   0.378  42.962   2.738
59565W        W27939  29.473  43.969  11.591
59566W        W27940  38.009  18.054  14.811
59567W        W27941  27.454  20.086   2.873
59568W        W27942  28.564  20.668   4.723
59569W        W27943  36.523  23.235   4.719
59570W        W27944  34.513  44.005  13.861
59571W        W27945  12.236  25.114  13.380
59572W        W27946  34.983   6.867   4.210
59573W        W27947  26.468  10.339   1.774
59574W        W27948  28.563   9.289  12.090
59575W        W27949  39.352   2.890  10.640
59576W        W27950  33.010  26.055  13.945
59577W        W27951   8.276  11.658  14.834
59578W        W27952   3.920  40.481  13.315
59579W        W27953  19.129  12.719  14.009
59580W        W27954   9.724   6.684   2.402
59581W        W27955  42.290  37.853  12.994
59582W        W27956  20.163  24.642   1.246
59583W        W27957  16.673  19.740  14.838
59584W        W27958  40.896  41.505   2.785
59585W        W27959  33.056  38.348   0.784
59586W        W27960  33.547   3.897   3.843
59587W        W27961  15.303  19.671   2.779
59588W        W27962   7.293  29.655  13.464
59589W        W27963   6.280  39.873  11.124
59590W        W27964   7.211   6.290   3.816
59591W        W27965  27.149   9.719  13.023
59592W        W27966  19.183  43.297  10.639
59593W        W27967  28.033  32.912   2.739
59594W        W27968  38.566  40.354  11.392
59595W        W27969  27.158   1.757  12.340
59596W        W27970  17.660  35.590  10.488
59597W        W27971  19.565   7.395   2.323
59598W        W27972  27.184  23.140   4.244
59599W        W27973   5.439  35.103   2.854
59600W        W27974  21.046  36.525  11.923
59601W        W27975  18.160  18.547  14.310
59602W        W27976  23.190  35.966   3.188
59603W        W27977   6.815  25.512  10.557
59604W        W27978  11.786  19.162   3.332
59605W        W27979   5.931  42.475  14.305
59606W        W27980   6.704  43.934   3.293
59607W        W27981  42.033  10.689   1.289
59608W        W27982  18.123   3.429   3.305
59609W        W27983  33.127   4.753  14.400
59610W        W27984  33.874   8.193   3.151
59611W        W27985  17.597  12.281   2.415
59612W        W27986  12.258  37.855   4.258
59613W        W27987  39.004  37.453  14.885
59614W        W27988  21.657  30.116   3.813
59615W        W27989   3.445  38.524   2.317
59616W        W27990  32.086   5.315  14.949
59617W        W27991  43.434  23.702   1.904
59618W        W27992   7.193  33.395   0.315
59619W        W27993  31.411   1.783  11.459
59620W        W27994   7.897  10.798   1.931
59621W        W27995   2.421  43.878  14.790
59622W        W27996  26.517  23.984   1.795
59623W        W27997  23.678  10.377   2.711
59624W        W27998  16.748  27.943   4.675
59625W        W27999   9.359  30.078   0.805
59626W        W28000   7.333  10.162  14.921
59627W        W28001  34.075   6.740   1.409
59628W        W28002   1.278   2.250  12.375
59629W        W28003  44.923   0.946  12.010
59630W        W28004  20.120  26.474  14.833
59631W        W28005  25.501  39.855  11.509
59632W        W28006   1.924   6.409   1.816
59633W        W28007  21.253   7.383   2.399
59634W        W28008  21.148  41.311  12.931
59635W        W28009  42.901   9.669   3.322
59636W        W28010  11.725  19.226  14.385
59637W        W28011  35.446  25.681  14.336
59638W        W28012  20.271  37.931  14.795
59639W        W28013  20.539   9.829  12.038
59640W        W28014  35.933   2.785  13.430
59641W        W28015  28.059  17.146  14.298
59642W        W28016  15.192  29.046   1.383
59643W        W28017  13.193  24.010   1.308
59644W        W28018  37.989  26.501   3.694
59645W        W28019   4.784  35.089   1.849
59646W        W28020  42.305  26.464   0.964
59647W        W28021  39.913  14.741   1.372
59648W        W28022  31.475   6.883  10.902
59649W        W28023  33.918  31.064  14.485
59650W        W28024  36.965  44.871   0.865
59651W        W28025   5.701  40.933  12.571
59652W        W28026  40.803  15.164   1.745
59653W        W28027  34.101  17.170  10.547
59654W        W28028  12.301  25.710   1.346
59655W        W28029  24.649  38.408  12.896
59656W        W28030  20.101  10.323   2.233
59657W        W28031  35.982  13.619   2.775
59658W        W28032  10.667   1.779   4.189
59659W        W28033  10.647  38.432  13.051
59660W        W28034   7.727  31.451  11.518
59661W        W28035  29.541   2.268  13.868
59662W        W28036  34.021   7.271   1.930
59663W        W28037  38.034  10.150  12.409
59664W        W28038  34.114  14.238   2.839
59665W        W28039  42.015  40.321   5.226
59666W        W28040  22.502  22.022   1.383
59667W        W28041   8.825  35.013   0.773
59668W        W28042  27.640   4.225   4.826
59669W        W28043   2.766   5.933  11.409
59670W        W28044  28.577  11.172  13.452
59671W        W28045   5.919  30.968   4.203
59672W        W28046  27.966  22.509  12.344
59673W        W28047  29.103   1.928   3.757
59674W        W28048  17.259   5.257  12.361
59675W        W28049   0.966  44.338  12.898
59676W        W28050   4.791  44.307   0.432
59677W        W28051  12.121  24.632   0.731
59678W        W28052  28.561  37.929   1.742
59679W        W28053  27.634  14.704   3.279
59680W        W28054   2.726  17.224   0.965
59681W        W28055  15.085  14.668   2.730
59682W        W28056   7.804   1.942  12.862
59683W        W28057  34.385   1.293   3.801
59684W        W28058  28.145  22.616   1.767
59685W        W28059  29.517   3.455  12.051
59686W        W28060  41.810   4.325   0.816
59687W        W28061  36.391  41.383   5.090
59688W        W28062  43.359  10.247  14.309
59689W        W28063  12.666  13.212   1.214
59690W        W28064   3.842  33.592  11.939
59691W        W28065   1.405  27.059  14.442
59692W        W28066   7.879   2.777  12.470
59693W        W28067  12.654   7.293  11.396
59694W        W28068  16.251   7.865   2.717
59695W        W28069  34.422   0.261  13.833
59696W        W28070  26.475  42.342   4.649
59697W        W28071  40.927  14.309  12.962
59698W        W28072  34.486  20.744   0.933
59699W        W28073  18.237  27.039  12.480
59700W        W28074  19.686  32.073  13.433
59701W        W28075   2.279  33.404   4.762
59702W        W28076  26.490   0.440  10.489
59703W        W28077  32.426  20.161  10.950
59704W        W28078  35.023  32.999   4.807
59705W        W28079  39.406   0.827  10.447
59706W        W28080  18.618   6.773   3.846
59707W        W28081  15.119  22.102   1.238
59708W        W28082  37.998  32.091   1.433
59709W        W28083  25.651   2.813   2.749
59710W        W28084  14.597   7.367  14.856
59711W        W28085  42.799  15.654  11.856
59712W        W28086   8.680  36.413   5.142
59713W        W28087  31.037   5.691  13.799
59714W        W28088  41.914  23.147  10.629
59715W        W28089  25.573   6.708   3.855
59716W        W28090   8.678  36.918  12.049
59717W        W28091  32.027  25.013   3.227
59718W        W28092  35.921   0.446   0.846
59719W        W28093   5.372   5.401   3.386
59720W        W28094   6.813  20.037  13.315
59721W        W28095  18.603  40.543   2.215
59722W        W28096  34.603   3.456  12.537
59723W        W28097   5.927   6.284  12.398
59724W        W28098  38.064  14.169  14.502
59725W        W28099  40.475  32.455  13.401
59726W        W28100  27.668  28.488   2.763
59727W        W28101  13.833  27.655   4.791
59728W        W28102  37.934  27.688   2.753
59729W        W28103  13.145  36.494   2.331
59730W        W28104  13.118  13.280  13.048
59731W        W28105  36.961  33.568   0.736
59732W        W28106  11.262   0.474   1.245
59733W        W28107  17.061  15.766   3.278
59734W        W28108   9.677  19.201   5.301
59735W        W28109   6.861   0.772  13.995
59736W        W28110  13.257  19.187  13.919
59737W        W28111  30.529  43.781   2.289
59738W        W28112  26.200  37.456   0.835
59739W        W28113  26.205   7.299   0.732
59740W        W28114  41.341  37.967   0.756
59741W        W28115  24.090  18.095   3.725
59742W        W28116  24.002  23.125   2.238
59743W        W28117   6.750  34.385  13.538
59744W        W28118  22.625  13.270  11.010
59745W        W28119  13.752  33.935   3.377
59746W        W28120   6.396  10.204   2.795
59747W        W28121  27.954  13.703   0.382
59748W        W28122   0.433  10.684   2.765
59749W        W28123  22.135   7.279   2.718
59750W        W28124  14.267  32.578  11.528
59751W        W28125  25.634  21.548   4.200
59752W        W28126   1.301   2.913  14.274
59753W        W28127  38.829  10.288  12.420
59754W        W28128  16.192  22.737  10.457
59755W        W28129  31.513   6.789   0.453
59756W        W28130  39.347  11.727   4.204
59757W        W28131  24.047  12.761  14.404
59758W        W28132   7.828  25.534   3.757
59759W        W28133  39.015  28.041  10.553
59760W        W28134   1.937  18.130   3.716
59761W        W28135   0.848  32.016   2.811
59762W        W28136  17.661  42.885   2.825
59763W        W28137  14.292  41.846  11.900
59764W        W28138   8.339  31.626   5.568
59765W        W28139  44.423  10.869   4.800
59766W        W28140  24.126   3.373  12.059
59767W        W28141   7.398  30.651  14.467
59768W        W28142  20.082  26.105  10.516
59769W        W28143   8.716   4.308   3.253
59770W        W28144   3.927  43.387  14.941
59771W        W28145   2.365  25.219  12.358
59772W        W28146   5.755  14.250   4.191
59773W        W28147  15.201   5.762   4.634
59774W        W28148  25.141  44.883   3.267
59775W        W28149  22.211  42.894  10.984
59776W        W28150   1.754  35.584   0.351
59777W        W28151  28.011  36.429  14.783
59778W        W28152   9.711   5.202   2.284
59779W        W28153  33.021  32.022  12.445
59780W        W28154  17.115  23.211  12.472
59781W        W28155  16.255  12.325   3.687
59782W        W28156  31.996  29.627   1.380
59783W        W28157  27.125   5.708  12.562
59784W        W28158  23.052  28.055  12.958
59785W        W28159  25.114   3.747  14.842
59786W        W28160  22.649   5.301   3.632
59787W        W28161  37.848  27.083  10.453
59788W        W28162   2.456  23.986   0.797
59789W        W28163  14.244  12.817   2.408
59790W        W28164  24.085  17.304  13.048
59791W        W28165  29.468  23.166  11.376
59792W        W28166  36.547  18.727  12.564
59793W        W28167  33.619  35.059   0.850
59794W        W28168  19.157  27.473  13.045
59795W        W28169   5.894  25.088   0.482
59796W        W28170  18.585  13.632  10.425
59797W        W28171  21.263  20.263  11.124
59798W        W28172  34.587  27.178   4.824
59799W        W28173   8.821   5.266  13.360
59800W        W28174  19.658  44.341  14.775
59801W        W28175  33.618  25.164   4.756
59802W        W28176  38.372  37.860   1.443
59803W        W28177  38.983   1.285   2.786
59804W        W28178  24.675  40.993  13.461
59805W        W28179  37.042   9.282   2.732
59806W        W28180  35.956  43.453  13.870
59807W        W28181  26.606  36.394  14.376
59808W        W28182  27.050  37.463   4.661
59809W        W28183   7.252  12.158  12.052
59810W        W28184   4.751   0.454  12.833
59811W        W28185  14.709  30.048   2.708
59812W        W28186  11.799  14.615  12.034
59813W        W28187  30.601  17.731   0.792
59814W        W28188  31.408   0.851  14.831
59815W        W28189  28.935   1.395   1.861
59816W        W28190  23.711  27.952   2.403
59817W        W28191  23.097  11.854   2.230
59818W        W28192  26.634  23.186   0.897
59819W        W28193  40.459  13.833   1.697
59820W        W28194   5.250  24.214   3.194
59821W        W28195  32.501  37.567   1.347
59822W        W28196  36.035  38.545  11.882
59823W        W28197  37.003  14.766  12.572
59824W        W28198  41.347   4.788  10.596
59825W        W28199   1.379  23.110  11.915
59826W        W28200  10.814  39.867  12.944
59827W        W28201  13.217  14.647  12.870
59828W        W28202   5.367   6.271  10.973
59829W        W28203  32.954  32.089  12.869
59830W        W28204   0.330  39.053  13.904
59831W        W28205  10.315   2.764  13.862
59832W        W28206  44.006  34.545  10.471
59833W        W28207  17.714  19.199   0.354
59834W        W28208   1.386  40.848   4.239
59835W        W28209  44.925  44.959  13.850
59836W        W28210  15.199  39.528   0.420
59837W        W28211  42.419  41.949  14.977
59838W        W28212  37.395  35.600   2.196
59839W        W28213  42.296  15.625  14.011
59840W        W28214  26.151  11.194   2.370
59841W        W28215  38.872   9.355  14.354
59842W        W28216  32.538  31.409  13.481
59843W        W28217  28.028  31.902  13.339
59844W        W28218  35.004  36.550   3.256
59845W        W28219  13.234   7.377  11.909
59846W        W28220   4.234  24.481   3.815
59847W        W28221  22.115   3.453   3.356
59848W        W28222  36.898   9.802   4.642
59849W        W28223  37.048  16.146  12.932
59850W        W28224  22.638  35.856   0.262
59851W        W28225   8.253  40.816  12.897
59852W        W28226  11.793  21.183   4.805
59853W        W28227  33.383  26.113  12.355
59854W        W28228   8.338   1.243  13.367
59855W        W28229  22.224   0.896   1.220
59856W        W28230  35.992   6.351  11.019
59857W        W28231   2.944  30.005   1.235
59858W        W28232  37.409  27.597   4.610
59859W        W28233  12.203  14.317  10.919
59860W        W28234  18.129   3.379  10.517
59861W        W28235  21.137  29.038  13.877
59862W        W28236  29.106   1.956   2.271
59863W        W28237  34.576  13.768   4.711
59864W        W28238  15.222  10.663   3.371
59865W        W28239  12.239  28.944  13.023
59866W        W28240  10.812  43.306  14.332
59867W        W28241   7.729  38.332  13.476
59868W        W28242   8.683   9.783  14.927
59869W        W28243  17.798   5.706   4.155
59870W        W28244  29.514  36.043  13.420
59871W        W28245  24.608  30.587  10.932
59872W        W28246  26.476   8.827   4.143
59873W        W28247  28.653  34.899  11.098
59874W        W28248   1.959  17.748  12.042
59875W        W28249  26.536  36.496   4.818
59876W        W28250  17.644   3.413   5.228
59877W        W28251  39.450  35.047  13.328
59878W        W28252  16.706   9.336  10.036
59879W        W28253  12.331  12.665   4.778
59880W        W28254  43.332  14.123   3.788
59881W        W28255   8.254  43.953  13.454
59882W        W28256   3.725   6.239  11.419
59883W        W28257  41.415   6.743  10.628
59884W        W28258  31.464  23.048  13.384
59885W        W28259  42.300  35.012  11.410
59886W        W28260  14.190  33.475   3.280
59887W        W28261   4.368  28.950   3.173
59888W        W28262  37.529  22.050   0.442
59889W        W28263  14.257   4.780  14.370
59890W        W28264  18.552   6.332   2.900
59891W        W28265   9.756   8.227  12.988
59892W        W28266  16.641   2.347  14.977
59893W        W28267  43.836  42.439   0.840
59894W        W28268  13.699  39.015   3.737
59895W        W28269  37.535   4.766   3.753
59896W        W28270  13.794  42.807   4.257
59897W        W28271  32.910   1.807   0.854
59898W        W28272   4.748   1.360   4.241
59899W        W28273  43.420  13.657   2.691
59900W        W28274  39.998  24.024  13.956
59901W        W28275  32.588  28.548  12.341
59902W        W28276   8.889   9.265   3.320
59903W        W28277  20.079  32.117   0.304
59904W        W28278   3.921  36.398   4.206
59905W        W28279  38.010  22.638   1.933
59906W        W28280  28.669  23.518  11.462
59907W        W28281  14.679  41.946  14.944
59908W        W28282  41.031  10.715  13.474
59909W        W28283  21.696   0.796   2.233
59910W        W28284  34.424  11.797   2.722
59911W        W28285  37.909  16.644   2.884
59912W        W28286  27.995   7.706  14.372
59913W        W28287   6.782  40.391   0.799
59914W        W28288  15.798  27.991  11.559
59915W        W28289  12.756  22.085  14.811
59916W        W28290  14.678  14.127   5.296
59917W        W28291   4.424   7.794   0.470
59918W        W28292   0.935  36.432   0.369
59919W        W28293  32.961  25.637   0.254
59920W        W28294  39.552  36.401  11.386
59921W        W28295  31.908  38.070  10.541
59922W        W28296  36.384  38.000   2.336
59923W        W28297   1.407  28.939   1.883
59924W        W28298  25.971  11.265  12.998
59925W        W28299  31.637   2.400  10.606
59926W        W28300  14.607   7.409  10.901
59927W        W28301  34.511   4.448  11.403
59928W        W28302  39.891  42.810   4.782
59929W        W28303  15.768   2.905  11.466
59930W        W28304  10.265   3.365  12.963
59931W        W28305   7.910  31.617   3.316
59932W        W28306  22.129  12.349   3.303
59933W        W28307  43.465  34.992   2.355
59934W        W28308  43.844  19.089  13.877
59935W        W28309   0.296  23.649   4.134
59936W        W28310  11.654  12.667   4.259
59937W        W28311  13.108   3.748   0.339
59938W        W28312  44.920  32.115   1.377
59939W        W28313  17.755   3.400  14.308
59940W        W28314  37.894  41.360  10.999
59941W        W28315   2.960   9.290   3.371
59942W        W28316  22.060  18.288  11.444
59943W        W28317  40.896  35.922   4.170
59944W        W28318   7.776  38.075   4.114
59945W        W28319  30.566  35.003  14.419
59946W        W28320   6.732  26.552   4.187
59947W        W28321   0.347   8.671   1.855
59948W        W28322  29.948  19.673   3.334
59949W        W28323  43.496  18.236  13.427
59950W        W28324   3.745  32.960   0.891
59951W        W28325  29.976  29.976   2.192
59952W        W28326  26.462  20.225  14.287
59953W        W28327  29.562  32.526   0.746
59954W        W28328   0.858  32.080  10.009
59955W        W28329   3.297  12.224   4.228
59956W        W28330  30.043  12.663   2.191
59957W        W28331  40.970  21.528   4.818
59958W        W28332   3.300   2.394  11.058
59959W        W28333  16.200   3.796  13.355
59960W        W28334   6.260   9.887  13.898
59961W        W28335  37.082  14.615  14.443
59962W        W28336  43.367  15.609   0.353
59963W        W28337  39.861  13.670   1.822
59964W        W28338   9.805   7.688  11.084
59965W        W28339  28.021  34.116  14.921
59966W        W28340  36.846  31.586  13.364
59967W        W28341  32.627   8.676   2.241
59968W        W28342  35.477  39.355   3.668
59969W        W28343  27.449   0.465  13.900
59970W        W28344  17.633  12.695   0.818
59971W        W28345  14.269  13.351   0.410
59972W        W28346  36.587  14.799   3.285
59973W        W28347  17.685  39.863   0.341
59974W        W28348  16.154  43.429  14.501
59975W        W28349  19.108   3.765  14.932
59976W        W28350  27.076  24.989   5.248
59977W        W28351  18.740  21.044   4.707
59978W        W28352   8.370   4.894  12.385
59979W        W28353  17.258   5.778   0.847
59980W        W28354  17.125  30.086  13.335
59981W        W28355  44.931  26.550   4.223
59982W        W28356  11.310  15.653  11.072
59983W        W28357  19.693   2.730   2.735
59984W        W28358   2.378   8.398  11.576
59985W        W28359  35.066  27.022   0.264
59986W        W28360   9.257  31.533   2.738
59987W        W28361  35.008  18.774  11.463
59988W        W28362   7.206   6.824  12.836
59989W        W28363  23.602   3.815  13.370
59990W        W28364  44.795  36.070   1.233
59991W        W28365  24.222   4.289   2.668
59992W        W28366  36.360  42.962  13.806
59993W        W28367  30.566  25.058  13.414
59994W        W28368  31.111  19.267  10.569
59995W        W28369  19.560   4.843  12.415
59996W        W28370  21.583  10.217   1.243
59997W        W28371  11.721   0.820   1.882
59998W        W28372  42.326  26.617  12.967
59999W        W28373   0.360  42.412  11.936
60000W        W28374  44.298  29.055   1.727
60001W        W28375  21.555   8.168  11.476
60002W        W28376  20.703  41.325   1.278
60003W        W28377  13.605  22.514   3.157
60004W        W28378  34.479  36.460   2.263
60005W        W28379  41.476  16.768  12.026
60006W        W28380  15.810  11.838   1.233
60007W        W28381  38.444   8.853   0.373
60008W        W28382  32.953  20.595   3.781
60009W        W28383  20.700  28.646   2.799
60010W        W28384  31.943  11.644  11.536
60011W        W28385   7.187  32.099  13.884
60012W        W28386  14.161  18.152   2.377
60013W        W28387  32.100  21.645   0.866
60014W        W28388  25.659  44.310   1.753
60015W        W28389   2.309  40.423  12.517
60016W        W28390  42.952   7.732   3.849
60017W        W28391  40.976  22.010  13.512
60018W        W28392  11.708  21.142   2.235
60019W        W28393  41.805  17.592   3.712
60020W        W28394  26.475  12.743   4.680
60021W        W28395   4.807  43.839   4.818
60022W        W28396  19.655  39.401   1.240
60023W        W28397  19.673  11.677   3.357
60024W        W28398  12.117  28.112  13.885
60025W        W28399  30.061  39.879   1.217
60026W        W28400  36.542  31.643  10.905
60027W        W28401  22.043   5.229  11.978
60028W        W28402  42.022  17.662   4.650
60029W        W28403  17.793  23.132  14.956
60030W        W28404  37.066   6.198  14.862
60031W        W28405  42.377  26.658  12.065
60032W        W28406   8.737   8.317  13.793
60033W        W28407  30.915  15.233  10.520
60034W        W28408  43.978  13.611   3.280
60035W        W28409  41.801  24.165  11.519
60036W        W28410  18.058   2.300   3.869
60037W        W28411  18.707   6.392  10.917
60038W        W28412   3.781  11.172   4.297
60039W        W28413   4.215   2.831   0.960
60040W        W28414  38.385   7.744  13.935
60041W        W28415  37.034  32.890  12.438
60042W        W28416  32.011  29.979   4.214
60043W        W28417  41.027  24.071   0.731
60044W        W28418  23.156  37.085  14.279
60045W        W28419   9.226   9.350   3.855
60046W        W28420  24.589  26.511   0.481
60047W        W28421  18.579  20.674   0.374
60048W        W28422   6.852  14.173   4.749
60049W        W28423  37.336  40.499  13.406
60050W        W28424  29.983  14.125  14.972
60051W        W28425  14.184  39.492   3.350
60052W        W28426  32.108   7.194   2.838
60053W        W28427  18.594  24.999   0.920
60054W        W28428  27.680  13.624  14.499
60055W        W28429  37.986   8.874   1.728
60056W        W28430  13.336   5.265   2.338
60057W        W28431   2.750  29.447  14.764
60058W        W28432  10.270   3.722  13.881
60059W        W28433   5.380   8.710  10.634
60060W        W28434   4.439  21.089   4.206
60061W        W28435  13.601  31.578   3.817
60062W        W28436  42.299  36.575   3.746
60063W        W28437  17.177  38.923  12.401
60064W        W28438  29.520  24.178   1.321
60065W        W28439   0.804  33.948  11.377
60066W        W28440   2.831  12.148   0.796
60067W        W28441  12.634  43.297   4.252
60068W        W28442  31.403  33.461   2.719
60069W        W28443  16.191  18.226  10.594
60070W        W28444   5.374   2.924  13.047
60071W        W28445  31.431  28.649   3.705
60072W        W28446  40.341  27.976   0.397
60073W        W28447  26.070  19.194   0.809
60074W        W28448   3.424  18.763   1.404
60075W        W28449  27.545  17.594  10.936
60076W        W28450   2.354  21.094   2.310
60077W        W28451  10.812  17.651  10.546
60078W        W28452  17.689  19.625   1.890
60079W        W28453  12.692  12.338   3.284
60080W        W28454  34.931   1.301   3.790
60081W        W28455  43.954  11.368   4.805
60082W        W28456   6.379  40.950   3.202
60083W        W28457  43.823   5.401  14.763
60084W        W28458  42.349   2.723  11.476
60085W        W28459  27.482  28.038   2.355
60086W        W28460  17.645   8.273  11.594
60087W        W28461  14.720   0.360  12.523
60088W        W28462  21.158  16.569  13.446
60089W        W28463  11.837   6.234   3.665
60090W        W28464  35.377  28.158   2.218
60091W        W28465  12.681  13.175  14.846
60092W        W28466   0.773  15.814  13.914
60093W        W28467  39.386   9.865   9.569
60094W        W28468   3.942  32.417   4.256
60095W        W28469  40.384  15.145   0.880
60096W        W28470  38.947  17.694   2.773
60097W        W28471   0.931  40.466   0.437
60098W        W28472  17.156  29.512   5.113
60099W        W28473  36.489  29.992  10.991
60100W        W28474  38.962  22.137  10.035
60101W        W28475  38.512  11.199   4.720
60102W        W28476  21.725  16.273   0.256
60103W        W28477   9.226  27.662   3.723
60104W        W28478   7.687   3.226   2.666
60105W        W28479  22.520  30.101  13.538
60106W        W28480   6.239  13.194   5.283
60107W        W28481  33.885   6.328   0.299
60108W        W28482  44.797  20.082  10.948
60109W        W28483  15.317   6.868  12.068
60110W        W28484   3.433  26.129  14.933
60111W        W28485  30.520  36.397   2.731
60112W        W28486  26.634  26.492  11.419
60113W        W28487   7.835   4.443  13.486
60114W        W28488   9.852  35.361   1.406
60115W        W28489  11.163  25.126  12.903
60116W        W28490  27.972  14.310  14.486
60117W        W28491  33.538  40.378   3.781
60118W        W28492  17.774  31.015   2.741
60119W        W28493  20.220   1.829   3.677
60120W        W28494   4.887  19.217  12.348
60121W        W28495   2.381  32.011   9.963
60122W        W28496  20.536  37.367  10.638
60123W        W28497   7.685   3.310  12.832
60124W        W28498   5.746  18.050   0.926
60125W        W28499  22.519  26.679   5.258
60126W        W28500  22.573  14.299  12.470
60127W        W28501  41.453  34.477   4.275
60128W        W28502  13.734   8.375   4.832
60129W        W28503  32.056  34.550  14.358
60130W        W28504  19.145  14.807  13.316
60131W        W28505   8.875  42.462   0.756
60132W        W28506  29.100  24.531  10.643
60133W        W28507  35.559  32.018   3.859
60134W        W28508   6.310  40.531  13.529
60135W        W28509  40.045   8.346  13.052
60136W        W28510   8.861   4.450   4.701
60137W        W28511  22.717  25.151   3.240
60138W        W28512  12.215  39.033  12.505
60139W        W28513  21.695   4.261  12.977
60140W        W28514  27.512  28.148  11.594
60141W        W28515  16.312  32.553   4.800
60142W        W28516  24.099  34.032  12.919
60143W        W28517   1.396  41.377   2.213
60144W        W28518  16.747  19.226  13.987
60145W        W28519  23.643  17.151   2.798
60146W        W28520   2.809   4.310   1.914
60147W        W28521  16.076  19.181  11.396
60148W        W28522   0.825  30.939   3.721
60149W        W28523   9.711  36.078  11.537
60150W        W28524  38.042  28.989   2.248
60151W        W28525  30.525  26.953  14.869
60152W        W28526  16.644   9.860  14.863
60153W        W28527  11.675  26.032  13.381
60154W        W28528  23.507  10.834   4.327
60155W        W28529  41.400  27.176  10.913
60156W        W28530  36.395  24.556  13.925
60157W        W28531  13.828   7.666   2.221
60158W        W28532  39.929  43.423   1.334
60159W        W28533  11.711  25.608   2.823
60160W        W28534  29.632   1.937  12.045
60161W        W28535  15.770  11.318   0.382
60162W        W28536   5.435  11.739   3.799
60163W        W28537  12.656   7.902  11.456
60164W        W28538  44.958  12.333  11.030
60165W        W28539  41.465  10.167  14.317
60166W        W28540  43.327  23.216  13.848
60167W        W28541  39.486  20.530  14.490
60168W        W28542   1.804  16.174  13.064
60169W        W28543  14.164  42.332   1.729
60170W        W28544   3.306  23.590  13.918
60171W        W28545  11.681   1.769   2.211
60172W        W28546  43.945  37.439  14.465
60173W        W28547   9.364   3.713  11.504
60174W        W28548  24.138   7.324   3.213
60175W        W28549  22.639  18.220   3.372
60176W        W28550  36.074  16.793  11.608
60177W        W28551  26.061  39.440  11.489
60178W        W28552  44.800  13.734  11.046
60179W        W28553  24.695   3.734  12.343
60180W        W28554  16.752  10.788  11.050
60181W        W28555  32.586  16.099  12.440
60182W        W28556   4.226   4.744   2.187
60183W        W28557  37.933   6.702  11.096
60184W        W28558  32.062  16.778   3.749
60185W        W28559  23.625   1.929   3.155
60186W        W28560  33.076  42.455   2.853
60187W        W28561  14.129  37.348   3.712
60188W        W28562  33.934  18.547  12.515
60189W        W28563  18.069  32.028  12.843
60190W        W28564   8.671  41.809   2.416
60191W        W28565  37.406   2.426  10.580
60192W        W28566  35.049  16.813  14.337
60193W        W28567  22.104  15.133   0.752
60194W        W28568  26.068   0.321   5.638
60195W        W28569  41.335   6.876  13.444
60196W        W28570  37.377   6.255  10.906
60197W        W28571  35.984  18.553  13.407
60198W        W28572   0.286  18.699  13.362
60199W        W28573   4.294   4.714   3.161
60200W        W28574  35.972   5.748   0.463
60201W        W28575  44.332  26.702   2.744
60202W        W28576   6.249  25.039  11.021
60203W        W28577  33.013   6.220  12.852
60204W        W28578  28.146   3.241   1.822
60205W        W28579   8.781  32.988   0.884
60206W        W28580  43.857  17.698   2.782
60207W        W28581  28.499  34.961   4.319
60208W        W28582  38.989  32.520   4.180
60209W        W28583   8.176  10.689   0.337
60210W        W28584  28.168   8.406   3.804
60211W        W28585  42.012   2.906   3.762
60212W        W28586   3.363  40.852  13.850
60213W        W28587  38.004   3.439  10.969
60214W        W28588  11.658   3.398  10.504
60215W        W28589  21.698  41.484   3.834
60216W        W28590  36.063   3.830  10.588
60217W        W28591  44.766  21.120  10.090
60218W        W28592  35.562  11.325   0.747
60219W        W28593  30.150  15.790  14.275
60220W        W28594   9.280   2.749  13.968
60221W        W28595   1.800  21.700  12.379
60222W        W28596  43.971  30.643   1.301
60223W        W28597  18.790  34.944   2.709
60224W        W28598  19.278   4.863   3.381
60225W        W28599  35.449  19.728  11.605
60226W        W28600  13.163  17.179   4.803
60227W        W28601  13.300  44.393  10.576
60228W        W28602  12.623  41.418   0.332
60229W        W28603   1.745  14.099   3.255
60230W        W28604   1.942  20.608   1.878
60231W        W28605  37.370  40.343  10.525
60232W        W28606  34.542  42.838  13.000
60233W        W28607  13.233  25.630   0.729
60234W        W28608  36.034   6.760   0.459
60235W        W28609   4.224  36.426   3.848
60236W        W28610  31.443  20.634  14.344
60237W        W28611  10.743   2.800   2.824
60238W        W28612  25.529  25.599  11.458
60239W        W28613  31.509  17.073  10.629
60240W        W28614  11.650  35.040   5.294
60241W        W28615   7.806   9.167   2.672
60242W        W28616  36.868  36.894   3.753
60243W        W28617  16.569  27.112  10.479
60244W        W28618  23.663   8.365   4.140
60245W        W28619  44.879   9.235   2.200
60246W        W28620  18.657   8.896  11.607
60247W        W28621  43.831  14.779   3.659
60248W        W28622  15.744  14.197   3.859
60249W        W28623  12.664  20.651  10.477
60250W        W28624  18.748  17.594   4.329
60251W        W28625  24.529  32.114  12.370
60252W        W28626  22.231  39.874  14.775
60253W        W28627  13.785  25.681   4.810
60254W        W28628   0.752  26.116  10.479
60255W        W28629  34.375  15.675  14.029
60256W        W28630   4.883  37.535   4.230
60257W        W28631   4.323  23.134  10.411
60258W        W28632  40.522   1.322  10.945
60259W        W28633  44.941  33.386  12.984
60260W        W28634  32.400  31.915  13.916
60261W        W28635   9.165  11.232  12.056
60262W        W28636  19.225  12.634  12.430
60263W        W28637  36.088   1.939   0.908
60264W        W28638  34.544  33.935   1.819
60265W        W28639  39.043  23.673  13.321
60266W        W28640  20.634  37.986   4.205
60267W        W28641  22.513   3.319   0.865
60268W        W28642  18.282  12.835   0.891
60269W        W28643   6.351   7.773   3.196
60270W        W28644   6.856   4.884  10.907
60271W        W28645  11.228  38.466  13.844
60272W        W28646  28.596  31.576   0.771
60273W        W28647  21.715  32.083  14.004
60274W        W28648  28.097   8.766  10.503
60275W        W28649  38.007  33.605  10.593
60276W        W28650  13.697  31.106  13.439
60277W        W28651   9.222  26.093   0.467
60278W        W28652  38.903  18.233  13.832
60279W        W28653  10.705  24.550   2.316
60280W        W28654  40.805  23.695  11.435
60281W        W28655   8.165  43.994  13.917
60282W        W28656  34.889   6.209   1.425
60283W        W28657   6.270  28.980  12.562
60284W        W28658  44.989   3.438   1.362
60285W        W28659  38.867  41.979   5.176
60286W        W28660  18.775  10.229   3.238
60287W        W28661   4.277  11.170   4.170
60288W        W28662   0.270  20.727   0.346
60289W        W28663   2.454   4.313   4.125
60290W        W28664   3.913  41.496  10.920
60291W        W28665  40.385  39.869   0.878
60292W        W28666   6.218  39.955   3.340
60293W        W28667  26.040  40.047   1.752
60294W        W28668   4.944  38.556  10.475
60295W        W28669   4.708  32.970  12.089
60296W        W28670   1.334  20.135  11.405
60297W        W28671   0.473  40.014  12.416
60298W        W28672  10.208  33.978   3.314
60299W        W28673   5.420  32.926  12.367
60300W        W28674  12.623   0.872   2.348
60301W        W28675   9.863  30.525  13.830
60302W        W28676  24.101  12.794   0.817
60303W        W28677  44.903  35.967  11.421
60304W        W28678  29.106  28.126  11.531
60305W        W28679   6.871  26.116   5.659
60306W        W28680  19.673  18.632   1.248
60307W        W28681   9.376  37.908   4.611
60308W        W28682  44.388  16.768  11.605
60309W        W28683  31.539   0.393   2.414
60310W        W28684  28.083  23.722   2.720
60311W        W28685   3.452   8.225  12.485
60312W        W28686  43.770  24.085   3.668
60313W        W28687  38.344   7.241   0.404
60314W        W28688  38.945   2.722  12.423
60315W        W28689  41.460  26.101   0.418
60316W        W28690  40.318  31.466   3.836
60317W        W28691  31.019   0.874   2.678
60318W        W28692   9.746  38.017   1.212
60319W        W28693  31.947   1.945   4.787
60320W        W28694  38.022  39.970  12.921
60321W        W28695  23.559  20.123  12.430
60322W        W28696  10.716  40.441  13.420
60323W        W28697   2.731   0.812  10.611
60324W        W28698  44.776  38.958  11.965
60325W        W28699  19.637  31.572  11.981
60326W        W28700  11.153  36.864  10.533
60327W        W28701  36.507  15.735   5.092
60328W        W28702  41.410   7.885  13.320
60329W        W28703  32.537  24.721   0.783
60330W        W28704   8.253  18.088  11.451
60331W        W28705  44.806  35.505   3.837
60332W        W28706  20.552   3.338   3.251
60333W        W28707  43.433  24.673   3.201
60334W        W28708  13.656  12.699   4.316
60335W        W28709  26.989  44.337  10.078
60336W        W28710  22.687  32.449   3.660
60337W        W28711  35.458  24.622   0.440
60338W        W28712  41.340  30.076   0.321
60339W        W28713  16.271   5.349   2.902
60340W        W28714  12.683  19.163   0.362
60341W        W28715  36.383  25.572  13.864
60342W        W28716  11.792  13.236   3.680
60343W        W28717  29.651   5.892  11.913
60344W        W28718  37.988  37.416  14.381
60345W        W28719   5.689  29.128   4.186
60346W        W28720  42.902   7.305  12.404
60347W        W28721  31.579  27.636   3.703
60348W        W28722  19.585   7.809  14.428
60349W        W28723  37.527   2.790  14.993
60350W        W28724  33.988   1.970   0.362
60351W        W28725  21.745  24.138  10.612
60352W        W28726   6.781  43.471   2.784
60353W        W28727  14.750   7.902  12.415
60354W        W28728  15.674  16.109  12.365
60355W        W28729  37.391  42.913   0.413
60356W        W28730   7.804  25.534  10.101
60357W        W28731  14.761  12.704  12.412
60358W        W28732  14.135  34.020   3.265
60359W        W28733  36.465  15.301  12.521
60360W        W28734  42.482  10.769  11.015
60361W        W28735  24.108  14.788  11.923
60362W        W28736  40.869  37.516   2.715
60363W        W28737  34.051  21.688   4.328
60364W        W28738  29.950  36.969   4.277
60365W        W28739  41.396  24.502   1.421
60366W        W28740  31.125   6.852   0.244
60367W        W28741  26.965   2.329   3.698
60368W        W28742  13.341   6.351   2.208
60369W        W28743  18.089   8.375   3.164
60370W        W28744  25.070   1.419   1.396
60371W        W28745  44.800  26.484  14.406
60372W        W28746  33.381  36.508  12.037
60373W        W28747  41.512  15.641   2.192
60374W        W28748  14.753   2.321  14.911
60375W        W28749  35.530  23.558  11.911
60376W        W28750  33.884   2.869  11.575
60377W        W28751   6.891  26.983  10.042
60378W        W28752  22.051  12.318  13.052
60379W        W28753   3.257  12.739  14.292
60380W        W28754  44.280   6.859   2.376
60381W        W28755   7.311   5.926   3.303
60382W        W28756  30.063  12.614   3.204
60383W        W28757  29.628  40.022   0.305
60384W        W28758  10.687  24.214   4.250
60385W        W28759  31.488  26.614   3.372
60386W        W28760  16.154  26.562  11.984
60387W        W28761   7.352  24.521   3.330
60388W        W28762  41.926  24.610   4.273
60389W        W28763  37.530  26.956   1.342
60390W        W28764  16.287  21.190  10.509
60391W        W28765  37.411  28.566   4.237
60392W        W28766  14.174  33.439  12.843
60393W        W28767  40.546  32.042  11.577
60394W        W28768  19.534  13.329   2.890
60395W        W28769   6.896  20.039   2.713
60396W        W28770  20.144  43.022  14.394
60397W        W28771  18.277  31.899  11.039
60398W        W28772   1.820  35.533  12.522
60399W        W28773  26.035  42.833   3.659
60400W        W28774  28.508  22.617  11.870
60401W        W28775   8.315  30.004   0.276
60402W        W28776  28.476  43.377  13.355
60403W        W28777  34.547  41.952   2.861
60404W        W28778  25.607   8.189   3.207
60405W        W28779  26.702  16.660  10.624
60406W        W28780  23.496  14.241   0.279
60407W        W28781   1.287  22.186   1.905
60408W        W28782   4.327   4.286   0.261
60409W        W28783  24.551   1.429   4.643
60410W        W28784  20.684  16.615   0.788
60411W        W28785  13.174  15.719  14.406
60412W        W28786   6.343  37.878  14.867
60413W        W28787   7.323   8.885   2.265
60414W        W28788   0.447   2.229   1.352
60415W        W28789  27.571   9.807   4.722
60416W        W28790  18.092   0.483  14.813
60417W        W28791   1.765   0.279  14.412
60418W        W28792  22.599  15.748   0.268
60419W        W28793  42.909  20.630   3.832
60420W        W28794  24.678   4.214  11.424
60421W        W28795  11.840  37.342  13.307
60422W        W28796  13.293   9.875   5.127
60423W        W28797  15.204  16.632   4.823
60424W        W28798  41.297  10.814   0.911
60425W        W28799  33.447   7.777   1.895
60426W        W28800  39.000  33.583   0.408
60427W        W28801  21.642  36.415  11.394
60428W        W28802  42.390  11.138   2.865
60429W        W28803  15.250  41.966  14.388
60430W        W28804  32.559  41.522   3.385
60431W        W28805   1.388  17.194   2.205
60432W        W28806  14.771  40.824   3.825
60433W        W28807  33.995  26.613  10.492
60434W        W28808  15.145  16.634  11.440
60435W        W28809  40.829  23.605  13.995
60436W        W28810  43.839  18.719   0.732
60437W        W28811  38.838  32.900  12.071
60438W        W28812  15.311  12.340  12.009
60439W        W28813   3.441  20.769  10.415
60440W        W28814  28.011  26.468   3.183
60441W        W28815  22.508  21.260   4.255
60442W        W28816  43.917  43.497  12.919
60443W        W28817  24.502  40.340  10.590
60444W        W28818  41.803  28.552  12.956
60445W        W28819  12.206  13.734  13.466
60446W        W28820  28.932  11.622   0.476
60447W        W28821  25.097  20.613  10.570
60448W        W28822  27.620  28.055   3.274
60449W        W28823  23.694   0.274  13.476
60450W        W28824  10.365  22.525  13.971
60451W        W28825  33.041  43.329  10.530
60452W        W28826  30.492  20.202  12.580
60453W        W28827   5.206  31.523   2.694
60454W        W28828  35.997  39.942   3.321
60455W        W28829   7.730  18.180  14.001
60456W        W28830   8.262  35.436  13.886
60457W        W28831  38.028  18.058   2.187
60458W        W28832   6.249  32.570  12.963
60459W        W28833  26.955   0.384  11.515
60460W        W28834   5.425  27.466  12.826
60461W        W28835  33.102  19.109   4.701
60462W        W28836  22.077   8.275  11.881
60463W        W28837  42.032  29.011  13.536
60464W        W28838  41.949  25.126   1.784
60465W        W28839  12.817   9.336  13.444
60466W        W28840  18.621  18.279   2.244
60467W        W28841  23.693  17.118  11.376
60468W        W28842  40.906   5.785   2.797
60469W        W28843  13.249  22.582   0.826
60470W        W28844  14.315  41.976  13.342
60471W        W28845  25.696   5.201   4.640
60472W        W28846  23.216  24.585  10.969
60473W        W28847  25.177  36.521   0.848
60474W        W28848   8.726  29.431  11.068
60475W        W28849  38.459  21.050  12.348
60476W        W28850  37.849  29.491  10.545
60477W        W28851   7.905  39.515  14.347
60478W        W28852  21.528  12.341   2.337
60479W        W28853  29.534   6.770  11.507
60480W        W28854  41.313   0.794   2.301
60481W        W28855  40.333  31.102   2.867
60482W        W28856  16.300   3.289   3.711
60483W        W28857  31.614  25.702   3.162
60484W        W28858  16.731  23.536  13.446
60485W        W28859  41.299  21.127   2.251
60486W        W28860   5.723  34.591  11.561
60487W        W28861  39.931  27.650  11.414
60488W        W28862  33.477  30.949  11.544
60489W        W28863  40.032   0.370   1.909
60490W        W28864  20.198   8.719   4.257
60491W        W28865  39.915  32.405   2.701
60492W        W28866  13.653  37.351   4.718
60493W        W28867  34.914  37.963  14.476
60494W        W28868  36.515  37.506   2.315
60495W        W28869  35.097  36.408  13.792
60496W        W28870   0.778  36.026  12.498
60497W        W28871  13.842  41.425  13.912
60498W        W28872  36.927  17.621  12.891
60499W        W28873  35.557   4.714  12.862
60500W        W28874  44.369  19.267   1.694
60501W        W28875   3.291   0.248  11.399
60502W        W28876  22.735  30.537  14.956
60503W        W28877  42.420  40.305  12.929
60504W        W28878   7.309  35.575   2.329
60505W        W28879  24.549   0.808  10.453
60506W        W28880  40.884  30.461   3.361
60507W        W28881  10.346  43.910   0.964
60508W        W28882   4.290  31.110   4.647
60509W        W28883  30.960  39.979  12.419
60510W        W28884  18.261  36.502   0.400
60511W        W28885  25.669  44.335  11.087
60512W        W28886   7.185  31.464   1.228
60513W        W28887  19.092  23.665   0.765
60514W        W28888  38.076  31.486  11.047
60515W        W28889  13.308  44.444   0.855
60516W        W28890  24.050  37.043   0.930
60517W        W28891   7.307  14.176  10.470
60518W        W28892  44.839   1.893   1.702
60519W        W28893   0.358  20.073  11.481
60520W        W28894  30.123   1.956  14.019
60521W        W28895  36.975  24.140  10.566
60522W        W28896  23.646  23.635  13.870
60523W        W28897  27.945   0.305  10.049
60524W        W28898  17.133  13.643  14.018
60525W        W28899  36.998  32.461  10.544
60526W        W28900  27.981   0.918   4.162
60527W        W28901  43.875   0.449  14.853
60528W        W28902  11.162  26.024  11.016
60529W        W28903  44.884  34.548  10.508
60530W        W28904   9.885  44.443   3.705
60531W        W28905  15.236  20.736   2.833
60532W        W28906  21.216   5.388  10.600
60533W        W28907  17.125  38.371   1.790
60534W        W28908   9.190   8.229  14.761
60535W        W28909  42.950   8.822  14.941
60536W        W28910  28.034  35.057   2.853
60537W        W28911  14.173  22.515  11.892
60538W        W28912  15.720  35.929   3.712
60539W        W28913   2.893  36.498  12.410
60540W        W28914   6.776  41.033   4.743
60541W        W28915  42.328  39.910   0.748
60542W        W28916  25.172  34.452  13.465
60543W        W28917   0.821  44.411   0.930
60544W        W28918  27.583  12.720  11.555
60545W        W28919   7.307  17.085   3.367
60546W        W28920  26.567  17.125  13.036
60547W        W28921  44.786   7.877  11.870
60548W        W28922  44.968  14.646   0.459
60549W        W28923   2.930  18.686  14.765
60550W        W28924  38.544  18.631  13.019
60551W        W28925  44.293  39.809  14.425
60552W        W28926   7.737  34.423   3.656
60553W        W28927  39.987  17.099  12.873
60554W        W28928  35.968   5.376   0.260
60555W        W28929  23.201   4.389  13.454
60556W        W28930  37.016   4.227  14.774
60557W        W28931  19.147   1.250   1.872
60558W        W28932  39.332   4.710   0.792
60559W        W28933   6.729  17.785   2.294
60560W        W28934  25.011  10.252   4.742
60561W        W28935  28.086  21.519  11.900
60562W        W28936   9.288  38.907  11.983
60563W        W28937  15.187   1.776  11.976
60564W        W28938  22.742  44.828  14.006
60565W        W28939   2.778  25.622   3.174
60566W        W28940   2.853  36.350   1.697
60567W        W28941  15.725  43.996  14.413
60568W        W28942   7.681  36.007   1.790
60569W        W28943  26.180   3.275   3.729
60570W        W28944  27.567   9.716  14.389
60571W        W28945  11.770   1.964   4.140
60572W        W28946  32.083   6.394  13.013
60573W        W28947   5.285   4.286   9.975
60574W        W28948  18.079  34.907   1.389
60575W        W28949  40.913   4.847  13.474
60576W        W28950   5.407  10.372   1.814
60577W        W28951  18.547  26.703   2.186
60578W        W28952  16.710  33.448  13.914
60579W        W28953  12.748  35.891  10.964
60580W        W28954  39.420  20.194   3.798
60581W        W28955  40.876   1.884  11.547
60582W        W28956  27.953  26.555   3.748
60583W        W28957   1.904  21.669  11.487
60584W        W28958  26.583  13.209  13.903
60585W        W28959  10.642  23.196   2.817
60586W        W28960  27.194  40.887   1.425
60587W        W28961   4.240  26.139   0.358
60588W        W28962  11.367  27.048   1.822
60589W        W28963  14.238  28.070   2.679
60590W        W28964  10.150  15.751   3.698
60591W        W28965   6.918  37.518   3.338
60592W        W28966  20.724  18.552   0.955
60593W        W28967  20.200  44.935  13.525
60594W        W28968  24.723  15.131   1.428
60595W        W28969  21.066  33.111  10.996
60596W        W28970  25.108  27.001   3.710
60597W        W28971  34.914  20.193  14.867
60598W        W28972  32.453  18.733   3.656
60599W        W28973  39.401   6.753  10.972
60600W        W28974  42.450  32.409   0.298
60601W        W28975   8.304  18.550  14.369
60602W        W28976  19.551  25.199  11.469
60603W        W28977  16.172   6.852   3.340
60604W        W28978  16.707   4.933  12.957
60605W        W28979   4.754   8.901   3.856
60606W        W28980  43.462  11.350   2.285
60607W        W28981  40.925  25.026   3.313
60608W        W28982  26.146  34.511   0.850
60609W        W28983  10.262  40.517  11.100
60610W        W28984   0.981  42.891   5.093
60611W        W28985  10.660  17.102   4.649
60612W        W28986  27.604   3.831   2.769
60613W        W28987   5.746  18.700   2.688
60614W        W28988  40.518  30.909  11.122
60615W        W28989   6.357   9.735   2.254
60616W        W28990   2.944  33.571   0.429
60617W        W28991  33.425  26.099  13.809
60618W        W28992   2.736  19.739   3.836
60619W        W28993   0.362  39.379   4.600
60620W        W28994  39.908   3.368   1.747
60621W        W28995  26.621  39.423   2.819
60622W        W28996  14.140  29.487   2.803
60623W        W28997  27.166  10.154   2.206
60624W        W28998   2.910   4.357  14.843
60625W        W28999  44.454  22.635  13.022
60626W        W29000  14.177  25.122   4.261
60627W        W29001  39.393   9.809  11.528
60628W        W29002  24.225  13.711  13.316
60629W        W29003   1.812  38.456   2.770
60630W        W29004  39.889   4.330   2.244
60631W        W29005  34.463  27.022  10.522
60632W        W29006  32.891  19.599   2.886
60633W        W29007  44.396  35.418   0.858
60634W        W29008  17.132  27.188   4.796
60635W        W29009  29.968  15.747   1.789
60636W        W29010  13.172  13.306   2.857
60637W        W29011  18.581  35.589  11.922
60638W        W29012   3.328  32.443  13.467
60639W        W29013  32.524  16.170   3.665
60640W        W29014  22.039   5.278  13.354
60641W        W29015  26.467  27.591   1.799
60642W        W29016   8.806  10.771   2.207
60643W        W29017  21.659   8.746   1.256
60644W        W29018  13.293  31.946   1.904
60645W        W29019  44.414  38.907   0.448
60646W        W29020  30.153  31.480   4.760
60647W        W29021   4.448  16.677  11.476
60648W        W29022  32.008  43.795   2.370
60649W        W29023   1.310  31.150  10.994
60650W        W29024  37.978   2.313  13.385
60651W        W29025  24.153  18.093   1.434
60652W        W29026  35.366  26.626   1.377
60653W        W29027  39.942   5.435   2.266
60654W        W29028  32.396  13.779  13.449
60655W        W29029  44.332  29.116  13.516
60656W        W29030  41.307  21.571  14.877
60657W        W29031   1.375  44.410   0.798
60658W        W29032  34.050   5.362  13.523
60659W        W29033  25.088  38.427   3.770
60660W        W29034  12.691  20.176   4.346
60661W        W29035  43.349  17.070  13.453
60662W        W29036  20.625  40.887  13.793
60663W        W29037  17.646  22.665   4.730
60664W        W29038   9.161  18.592   4.288
60665W        W29039  22.219  40.454   3.339
60666W        W29040  34.993  35.465  12.412
60667W        W29041  28.959  28.439  14.023
60668W        W29042  44.878  25.020  10.451
60669W        W29043  25.000  13.664  10.467
60670W        W29044  15.285  38.842   0.742
60671W        W29045  26.182  20.631  12.886
60672W        W29046  35.604  26.627   3.371
60673W        W29047  37.043  12.294   2.205
60674W        W29048  20.247  28.579  13.443
60675W        W29049  37.072  35.483  14.783
60676W        W29050  44.276   3.232  10.573
60677W        W29051  14.192  19.559   0.268
60678W        W29052  41.804  41.418   4.302
60679W        W29053   4.292   7.689   0.954
60680W        W29054  28.621  18.769  13.989
60681W        W29055  12.342  30.131  14.464
60682W        W29056  42.911   7.714  11.527
60683W        W29057  29.058   2.461   4.806
60684W        W29058  37.404   0.481  14.926
60685W        W29059  43.502  32.141   2.679
60686W        W29060  23.207  34.093   4.253
60687W        W29061  10.216  17.770  13.493
60688W        W29062  16.240   9.299   3.234
60689W        W29063  24.090  24.720   2.259
60690W        W29064  18.715  40.412  12.048
60691W        W29065  31.111  17.122  12.089
60692W        W29066  38.066  24.610  14.442
60693W        W29067  17.616  15.679  11.904
60694W        W29068   0.248  25.077   1.284
60695W        W29069  20.040  38.545   2.334
60696W        W29070   8.741  44.451   5.262
60697W        W29071   3.271  20.600  10.914
60698W        W29072  32.111   7.249   3.175
60699W        W29073  37.942  25.645  13.451
60700W        W29074  25.639  33.386  11.448
60701W        W29075  33.975  32.498   0.378
60702W        W29076   5.434  26.051  13.996
60703W        W29077  34.492  13.133   3.318
60704W        W29078  40.344  15.791  12.390
60705W        W29079  38.554  13.637  13.811
60706W        W29080  24.005  38.912   4.762
60707W        W29081  12.214  38.512  14.960
60708W        W29082  35.080   8.848   5.185
60709W        W29083   8.849  26.042   3.764
60710W        W29084  12.342  23.550   0.338
60711W        W29085  14.592  23.568  11.003
60712W        W29086  32.021  36.372   4.597
60713W        W29087  41.870  41.510   0.740
60714W        W29088  11.266  22.628  11.943
60715W        W29089  25.536   7.689   1.395
60716W        W29090   1.355  33.552  13.820
60717W        W29091  24.085  16.687  11.948
60718W        W29092  21.133   2.790   0.960
60719W        W29093   4.704   1.869   0.373
60720W        W29094  28.614  31.641  10.442
60721W        W29095  15.223  41.978   3.765
60722W        W29096  23.526  31.914  13.003
60723W        W29097   3.829  42.800  10.051
60724W        W29098  25.537  24.075  14.010
60725W        W29099   2.357  21.047   9.981
60726W        W29100  28.095  43.388   2.326
60727W        W29101   9.668  32.918   2.285
60728W        W29102  36.542  42.399   2.197
60729W        W29103  29.068  41.421  13.967
60730W        W29104  14.605   2.836   4.658
60731W        W29105   9.645  26.600   3.847
60732W        W29106  32.948  29.105  14.921
60733W        W29107   7.836  37.523  14.935
60734W        W29108  29.019  36.097   3.678
60735W        W29109  29.967  30.593  13.931
60736W        W29110  19.255  41.917   4.671
60737W        W29111  10.683  19.224  13.932
60738W        W29112  22.066  37.481  12.875
60739W        W29113  37.035  36.004  10.540
60740W        W29114  44.422  20.232  13.055
60741W        W29115  31.930  12.167   1.358
60742W        W29116  12.639   2.958  12.542
60743W        W29117  32.926   0.390   0.344
60744W        W29118  18.573  31.960  13.511
60745W        W29119  40.367   4.940   1.212
60746W        W29120  36.467  18.669   3.775
60747W        W29121   0.489   6.394   3.643
60748W        W29122  36.980  37.904   2.187
60749W        W29123  15.233   0.462  12.558
60750W        W29124   7.816  27.118   3.781
60751W        W29125   2.411  33.597  14.379
60752W        W29126  39.009   8.375  11.962
60753W        W29127  43.460   4.762   1.849
60754W        W29128   6.408  24.168   2.845
60755W        W29129  25.475   0.821  12.879
60756W        W29130   6.305   9.812  13.333
60757W        W29131  26.003  27.689   4.720
60758W        W29132  17.172  10.234   4.815
60759W        W29133  10.181   0.846  11.071
60760W        W29134  36.450  11.655  11.463
60761W        W29135  14.795  41.966  10.929
60762W        W29136  16.133  43.513   3.274
60763W        W29137   3.411  25.976  13.915
60764W        W29138  36.843   5.807  10.580
60765W        W29139  19.239  29.582   3.707
60766W        W29140  10.809   3.276   1.855
60767W        W29141  32.397   0.902   0.329
60768W        W29142  33.520  16.637   3.733
60769W        W29143  18.169  32.601   1.765
60770W        W29144  25.509  38.991   9.999
60771W        W29145  21.020   7.282  10.941
60772W        W29146  31.969  29.555   3.331
60773W        W29147  26.659   7.244   3.371
60774W        W29148  40.354   3.289  11.889
60775W        W29149  20.059   5.233  13.797
60776W        W29150   5.419   4.824   1.764
60777W        W29151  41.874  41.915  13.534
60778W        W29152  14.304  12.158  13.997
60779W        W29153  30.419   6.317   1.811
60780W        W29154  26.149  15.702   1.284
60781W        W29155  35.506  10.163  13.944
60782W        W29156   1.945  24.618  11.608
60783W        W29157  23.169  37.083   3.820
60784W        W29158   9.831  13.840   0.835
60785W        W29159  19.046  39.964  12.535
60786W        W29160  41.440  29.600   1.261
60787W        W29161  22.645  10.813   2.367
60788W        W29162  41.454  27.633  13.900
60789W        W29163  27.463   6.404  10.920
60790W        W29164  35.946   7.868  11.488
60791W        W29165  24.599  25.048  14.456
60792W        W29166  31.485  37.574   3.657
60793W        W29167  14.272  21.599  10.548
60794W        W29168  23.139  17.796   1.747
60795W        W29169  30.503  27.983  13.493
60796W        W29170   7.236  32.572  10.569
60797W        W29171   1.898  16.588   3.363
60798W        W29172  10.647  15.327   2.756
60799W        W29173  23.112   8.369  12.953
60800W        W29174  10.716  28.558   0.417
60801W        W29175   8.246   6.339  12.348
60802W        W29176   2.892  31.898   3.708
60803W        W29177  15.788   8.278   2.888
60804W        W29178  43.777  41.402  12.440
60805W        W29179  19.045  22.622   2.713
60806W        W29180  11.839   8.298  11.493
60807W        W29181  27.990  17.292  12.398
60808W        W29182  27.656  11.296   4.733
60809W        W29183  35.096   9.763   4.351
60810W        W29184   4.339  11.843   2.325
60811W        W29185  32.964   6.309   3.633
60812W        W29186   9.286  29.150  14.758
60813W        W29187   1.817  36.586   2.857
60814W        W29188  38.069  17.193   1.807
60815W        W29189  10.273  20.651  11.539
60816W        W29190   2.236   8.656   5.180
60817W        W29191  32.469  33.385  11.442
60818W        W29192  32.550   4.745  10.420
60819W        W29193  26.685  19.705   2.705
60820W        W29194  22.591   8.347   0.409
60821W        W29195  42.851  40.508   3.383
60822W        W29196  20.199  32.512   0.787
60823W        W29197  38.361  28.619  13.887
60824W        W29198   8.774   4.892   3.688
60825W        W29199  10.738  13.648  14.490
60826W        W29200  31.909  10.335   2.304
60827W        W29201  35.377   8.300  11.104
60828W        W29202  42.776  25.578  11.966
60829W        W29203  33.511  31.497   4.802
60830W        W29204  15.117  20.274   3.273
60831W        W29205  35.594  18.280   2.800
60832W        W29206   7.748   6.261   5.122
60833W        W29207  32.060   6.243  14.458
60834W        W29208  38.405  40.893  10.453
60835W        W29209  22.217  40.924   4.707
60836W        W29210  35.895   1.292  12.901
60837W        W29211  36.498  37.912  11.869
60838W        W29212  30.526   6.198   4.176
60839W        W29213  30.983  32.569  12.837
60840W        W29214  33.517  37.866   3.340
60841W        W29215  33.124  36.357  12.478
60842W        W29216   6.393  22.183   1.409
60843W        W29217  26.568  18.117  12.933
60844W        W29218   9.348  16.317   2.377
60845W        W29219  39.836  14.808  12.580
60846W        W29220  18.082   4.444   0.855
60847W        W29221  21.055  44.290  13.006
60848W        W29222   2.436  24.639  11.860
60849W        W29223  10.142   5.350  14.369
60850W        W29224  38.517   9.864   5.147
60851W        W29225  34.566  44.379   1.698
60852W        W29226  18.649  40.846   3.181
60853W        W29227  26.532  11.286  12.554
60854W        W29228   8.782  41.374   1.254
60855W        W29229  30.476  31.508  14.506
60856W        W29230   1.343  41.432  11.542
60857W        W29231  10.688  34.381   4.283
60858W        W29232  15.191  17.698  14.295
60859W        W29233  30.597  41.343   4.260
60860W        W29234  23.176  23.506   2.328
60861W        W29235  26.205  28.548   3.148
60862W        W29236  37.084  17.156   4.254
60863W        W29237  22.699  36.374   1.438
60864W        W29238  40.384  17.112   4.285
60865W        W29239  30.068  27.094  10.545
60866W        W29240  26.616   1.783   0.274
60867W        W29241  26.091  26.090   3.198
60868W        W29242  13.750  18.741  11.885
60869W        W29243  22.228  34.015  11.058
60870W        W29244  39.503  17.706  13.863
60871W        W29245  38.999  40.814   2.668
60872W        W29246  16.230  25.654  11.038
60873W        W29247   7.307  21.517   2.870
60874W        W29248   0.982  18.157   4.800
60875W        W29249  41.520   8.807  11.129
60876W        W29250  35.942   9.792   3.823
60877W        W29251  21.086  22.698  12.559
60878W        W29252  10.315  34.001   3.769
60879W        W29253  34.393  42.463  12.391
60880W        W29254  43.882  10.353  10.962
60881W        W29255  10.712  37.461  14.789
60882W        W29256  26.612  40.386  14.889
60883W        W29257  44.978  10.188   1.750
60884W        W29258  35.063   9.380  12.903
60885W        W29259  17.227  30.991  13.798
60886W        W29260   0.946  34.601  12.983
60887W        W29261  12.179  30.993  10.417
60888W        W29262  23.540  20.664   2.216
60889W        W29263  36.504   7.707   2.702
60890W        W29264  30.947  14.717   1.257
60891W        W29265  26.016  24.223   2.320
60892W        W29266  41.349  20.108  14.280
60893W        W29267  27.162  37.540   5.091
60894W        W29268  25.984  39.429  12.071
60895W        W29269  13.839  16.765  11.452
60896W        W29270  32.932  36.579  12.057
60897W        W29271  29.615  19.752   4.249
60898W        W29272   0.909  34.609  11.508
60899W        W29273  44.497  20.595  14.361
60900W        W29274  43.947  44.283  12.510
60901W        W29275  14.639   9.785   3.302
60902W        W29276  22.155  40.338   4.157
60903W        W29277  12.780  12.748  11.893
60904W        W29278  15.277  37.449   5.258
60905W        W29279  31.977  23.497  11.574
60906W        W29280  38.949   0.792   0.344
60907W        W29281  36.019  25.495   1.827
60908W        W29282  27.025  42.823  10.504
60909W        W29283   6.816  21.124   0.846
60910W        W29284  24.641  12.825  13.054
60911W        W29285  19.610  43.497   3.159
60912W        W29286   4.225  23.673  11.374
60913W        W29287  13.128  13.812   1.303
60914W        W29288  22.096  29.609   2.235
60915W        W29289  17.067  36.876   2.841
60916W        W29290   1.769  32.434  12.431
60917W        W29291  15.797  11.251   2.247
60918W        W29292  25.134  43.288  14.369
60919W        W29293   9.791  22.009  11.982
60920W        W29294  35.063  41.439  14.941
60921W        W29295  32.030  44.769   3.286
60922W        W29296  31.937  41.793  12.841
60923W        W29297  21.585  25.181   2.842
60924W        W29298  27.182  38.389   0.465
60925W        W29299  13.607  20.655  10.607
60926W        W29300  34.598  31.644  14.493
60927W        W29301  13.117  28.056  13.354
60928W        W29302  36.571  17.556   4.741
60929W        W29303   2.289  18.648  13.858
60930W        W29304  38.380   1.471   1.234
60931W        W29305   3.921   6.336   0.866
60932W        W29306  24.614  37.019   4.333
60933W        W29307   0.866  30.429   2.883
60934W        W29308  13.193  33.105  11.126
60935W        W29309  18.772  17.619   0.295
60936W        W29310  24.022  41.835   2.848
60937W        W29311   3.755  13.761   1.715
60938W        W29312  17.638  24.714  11.420
60939W        W29313   2.234  27.977   3.169
60940W        W29314   8.705  37.360   9.937
60941W        W29315  17.161  11.134   4.832
60942W        W29316  19.559  19.599  12.923
60943W        W29317  44.296   0.822  11.065
60944W        W29318  41.427  29.130  13.430
60945W        W29319  34.876  32.951  11.001
60946W        W29320  34.876  25.672   3.807
60947W        W29321  36.400  15.583  10.035
60948W        W29322  16.206  21.708  13.880
60949W        W29323  18.622  27.570   3.682
60950W        W29324  42.350   2.462   3.637
60951W        W29325  24.623  34.496   2.893
60952W        W29326   7.358  16.314  11.002
60953W        W29327  28.532  30.475   4.698
60954W        W29328  30.509   6.391  13.941
60955W        W29329   5.847   2.256   2.292
60956W        W29330   5.306  24.688  14.996
60957W        W29331   9.835   4.365   3.346
60958W        W29332  41.820  11.730   1.429
60959W        W29333  19.135  28.488   0.419
60960W        W29334  34.037   9.822   0.361
60961W        W29335  16.085   1.324  13.980
60962W        W29336   7.892  23.595   4.228
60963W        W29337  23.071  24.594  12.089
60964W        W29338  41.802  43.508  10.890
60965W        W29339  39.854  22.678  11.925
60966W        W29340  37.835   8.299   3.252
60967W        W29341  41.370  32.548   0.834
60968W        W29342  15.624  22.711   1.332
60969W        W29343  41.797  20.042   3.222
60970W        W29344   8.789  12.817  12.367
60971W        W29345  31.026   2.422  13.988
60972W        W29346  16.788  29.470   1.389
60973W        W29347   1.244  16.163   4.727
60974W        W29348   6.782  35.004  14.344
60975W        W29349  18.650  25.584  12.934
60976W        W29350  31.007  36.424   4.115
60977W        W29351  31.038  24.641   0.404
60978W        W29352  44.284  27.053  10.463
60979W        W29353  44.268   1.263  11.910
60980W        W29354  26.687  21.753   1.901
60981W        W29355   7.379  21.132   4.290
60982W        W29356  27.165  26.687  12.999
60983W        W29357   9.300   7.811   0.876
60984W        W29358  20.554  12.211  14.379
60985W        W29359  15.179  18.054   2.281
60986W        W29360  14.637   0.475   2.902
60987W        W29361   9.206  29.982   3.837
60988W        W29362  32.492  26.665  10.513
60989W        W29363  38.448  41.807  14.782
60990W        W29364   2.798  38.343   4.208
60991W        W29365  16.784  36.850  11.923
60992W        W29366  18.098  44.496   3.805
60993W        W29367  41.991   4.207   4.828
60994W        W29368   8.344   3.461   2.377
60995W        W29369  37.404  43.437   0.753
60996W        W29370  15.760  19.254  10.002
60997W        W29371   9.823  27.138   0.869
60998W        W29372  21.203  40.510  10.915
60999W        W29373  41.863  25.657  13.797
61000W        W29374  16.162  40.325   3.771
61001W        W29375  26.593  31.579   5.117
61002W        W29376  19.180   0.453  12.928
61003W        W29377  38.492   3.221   1.915
61004W        W29378  18.139  39.966  11.954
61005W        W29379  35.971  29.933  14.511
61006W        W29380   8.280  12.249   4.301
61007W        W29381   9.838   1.294   2.796
61008W        W29382  12.172   2.866  11.483
61009W        W29383   7.255  26.173  13.343
61010W        W29384  22.247  15.290  11.422
61011W        W29385  44.503   3.342   4.633
61012W        W29386  23.616  38.514   3.329
61013W        W29387  16.202  40.845  11.879
61014W        W29388  16.248  22.118   1.911
61015W        W29389  36.012  27.012   2.882
61016W        W29390   0.764  32.481  14.851
61017W        W29391  41.328  32.908   3.794
61018W        W29392   2.284   5.703  13.857
61019W        W29393  34.106  16.104  14.322
61020W        W29394  35.075   3.391   3.736
61021W        W29395   6.223  20.034   3.791
61022W        W29396  42.819   3.379   1.843
61023W        W29397  41.492  22.177   4.332
61024W        W29398  27.043  15.752   3.825
61025W        W29399   4.932  30.076  10.551
61026W        W29400  44.903   1.389   3.722
61027W        W29401  32.627  37.059   2.263
61028W        W29402   1.398  42.847   4.598
61029W        W29403  33.413   8.196  13.870
61030W        W29404   1.882  25.194   0.929
61031W        W29405  14.246  28.441  13.959
61032W        W29406  18.672  24.136  10.916
61033W        W29407  25.641  10.699  13.536
61034W        W29408  34.490  31.428   2.392
61035W        W29409   9.645  39.402   4.673
61036W        W29410   6.423   8.722  12.484
61037W        W29411  29.630  24.085   4.679
61038W        W29412  35.447  24.089  13.920
61039W        W29413   9.318  10.165  14.838
61040W        W29414  20.525  26.579   4.166
61041W        W29415  21.022  22.599   2.356
61042W        W29416   8.319  24.704  12.918
61043W        W29417  41.794   9.384   1.217
61044W        W29418  21.073   5.351   1.325
61045W        W29419  36.438  40.954   4.644
61046W        W29420  22.586   4.756   2.373
61047W        W29421  11.798  12.348   0.275
61048W        W29422  29.923  26.197   3.633
61049W        W29423  37.936  19.673   4.266
61050W        W29424  10.143  14.798   1.821
61051W        W29425  37.953   1.783  11.053
61052W        W29426  43.982  21.184  12.090
61053W        W29427  40.511  29.603  11.533
61054W        W29428  12.821   7.359  14.914
61055W        W29429  28.615   7.269  10.410
61056W        W29430  14.601  17.570  11.908
61057W        W29431  25.977   4.916  13.822
61058W        W29432  31.512  35.024  11.897
61059W        W29433  11.735  26.614   2.342
61060W        W29434  24.627  24.565  13.509
61061W        W29435   3.943  38.846  13.998
61062W        W29436  15.580  42.905  11.052
61063W        W29437  31.593  11.729  13.034
61064W        W29438   0.786  28.140   4.650
61065W        W29439  43.809  17.259  11.890
61066W        W29440  11.741  30.461   1.411
61067W        W29441  29.141  25.526   3.817
61068W        W29442  10.794  41.014  10.896
61069W        W29443   5.437  18.590  12.540
61070W        W29444  43.818  38.559  14.011
61071W        W29445   6.708  42.894   4.819
61072W        W29446  11.785  42.504   0.845
61073W        W29447  33.948   5.244  10.451
61074W        W29448  41.995  35.495   4.150
61075W        W29449  30.949  29.155  12.946
61076W        W29450   4.327  10.326   2.261
61077W        W29451  21.222  37.924  11.956
61078W        W29452  43.966  23.534  12.079
61079W        W29453  38.522  44.473  14.368
61080W        W29454  12.290   7.195  12.027
61081W        W29455  34.396   2.769  11.025
61082W        W29456  30.563  40.827   4.838
61083W        W29457  21.020  17.650   0.960
61084W        W29458  10.750  41.852  13.818
61085W        W29459   0.328  17.219  12.455
61086W        W29460  21.699   7.201   3.735
61087W        W29461  32.391  15.112   4.267
61088W        W29462   3.945   1.460   3.181
61089W        W29463  36.461  27.464  10.055
61090W        W29464  34.992  35.977   1.733
61091W        W29465  14.134  23.132  12.564
61092W        W29466  27.448  27.132   2.219
61093W        W29467  32.544  40.883  13.827
61094W        W29468  26.555  16.620  12.879
61095W        W29469  21.572  15.641  11.975
61096W        W29470  42.385  14.124  11.046
61097W        W29471  31.057   9.318  12.432
61098W        W29472  35.569   6.225   0.922
61099W        W29473   2.363  43.284  12.991
61100W        W29474  42.868  33.557   4.169
61101W        W29475  30.478  18.583   3.381
61102W        W29476  22.199   5.890   3.197
61103W        W29477   7.292   0.252  13.407
61104W        W29478  13.601  11.191   4.139
61105W        W29479  38.037   1.795  11.435
61106W        W29480  27.187  13.147   0.793
61107W        W29481   6.340   5.234   3.170
61108W        W29482  42.287  42.485   1.391
61109W        W29483  42.303  43.905   4.835
61110W        W29484   9.645  44.819   0.349
61111W        W29485  11.168  26.121   4.776
61112W        W29486  10.336  44.496   3.330
61113W        W29487  32.885   6.903   0.307
61114W        W29488  26.045  44.821  12.036
61115W        W29489  11.242  18.182  12.950
61116W        W29490  19.169  35.565   0.946
61117W        W29491  34.560   9.889  11.449
61118W        W29492   5.855  39.823  13.005
61119W        W29493  36.058  18.750   2.672
61120W        W29494  37.954  23.551   3.706
61121W        W29495  28.490  36.016   3.295
61122W        W29496  21.263   6.309  10.483
61123W        W29497  27.042  36.054   2.242
61124W        W29498   7.412  29.617  14.964
61125W        W29499  27.091   4.886  13.815
61126W        W29500   7.878  39.991   1.418
61127W        W29501  31.971  41.512   0.352
61128W        W29502   4.706  28.985  13.934
61129W        W29503  39.542  26.086  11.374
61130W        W29504   1.252  37.033   2.198
61131W        W29505  30.161  10.224  14.363
61132W        W29506  21.696   9.258   4.204
61133W        W29507  31.454  39.844  11.583
61134W        W29508   3.444  43.951   3.854
61135W        W29509  28.529  10.634   4.821
61136W        W29510  20.086  17.102   3.217
61137W        W29511  38.416   9.245  14.951
61138W        W29512  35.883  24.159  13.936
61139W        W29513  23.190  18.254   0.344
61140W        W29514  22.245   3.802  14.425
61141W        W29515  32.135   1.821  10.467
61142W        W29516  12.121  21.512   2.862
61143W        W29517  21.641  34.493  11.022
61144W        W29518   6.726  18.221  13.970
61145W        W29519  13.272  42.437  11.889
61146W        W29520  40.520   2.805   2.856
61147W        W29521  20.164  18.126  13.914
61148W        W29522  14.154   1.922  13.357
61149W        W29523  44.345  37.517   4.350
61150W        W29524   8.822  18.759   4.645
61151W        W29525  13.793   9.274   1.335
61152W        W29526   7.729  35.567   2.729
61153W        W29527  11.811  27.157  14.003
61154W        W29528  31.896  32.620   3.327
61155W        W29529  40.042  12.614   2.683
61156W        W29530  23.638  38.514  10.563
61157W        W29531   4.942  28.953   3.770
61158W        W29532  12.127   6.343   0.768
61159W        W29533  38.979  41.843  13.800
61160W        W29534  37.365  18.641  12.544
61161W        W29535  27.983  42.288   4.137
61162W        W29536  30.491   0.874   3.728
61163W        W29537  35.070   5.410   1.767
61164W        W29538  32.996  42.488  12.838
61165W        W29539   5.781  39.897  14.483
61166W        W29540  17.218  15.120   3.696
61167W        W29541  15.284  24.552  10.517
61168W        W29542  17.106  17.283  11.588
61169W        W29543  36.523   3.318  14.510
61170W        W29544  30.612  43.864   1.926
61171W        W29545  16.252   4.900  12.996
61172W        W29546  29.140  24.682   0.747
61173W        W29547  10.722  39.349   4.754
61174W        W29548   1.795  19.252   2.349
61175W        W29549  18.158  28.462  13.889
61176W        W29550   7.752  18.553  10.929
61177W        W29551   1.904   7.888  12.409
61178W        W29552  24.104  22.066   1.439
61179W        W29553  11.198  22.592   0.917
61180W        W29554  36.053   3.932   3.297
61181W        W29555  44.852  39.988  11.928
61182W        W29556  11.835   9.334   2.255
61183W        W29557  33.587  34.548  11.489
61184W        W29558   6.715  36.382  13.897
61185W        W29559  40.545  33.876   1.865
61186W        W29560  18.734  20.588  14.982
61187W        W29561  44.903  28.932   2.371
61188W        W29562  11.313  11.660  12.975
61189W        W29563  19.611  19.634   2.747
61190W        W29564  37.342  20.621   0.930
61191W        W29565  24.115  36.519   2.722
61192W        W29566  14.660  34.377   3.690
61193W        W29567  28.061  18.163  11.965
61194W        W29568  15.741  38.426  10.428
61195W        W29569  39.996   2.934   1.396
61196W        W29570  22.178  27.570   3.676
61197W        W29571   0.941  32.937  14.967
61198W        W29572   4.311   8.187   4.169
61199W        W29573  23.076  10.181  11.860
61200W        W29574   7.232  13.166  11.387
61201W        W29575  21.239  29.099   4.819
61202W        W29576  32.940  37.531  10.919
61203W        W29577  43.884  27.020   0.401
61204W        W29578   1.255  19.179   2.224
61205W        W29579  23.661   0.932  12.544
61206W        W29580  21.191  15.656  13.413
61207W        W29581  26.170  19.659   3.308
61208W        W29582  41.365   8.844   2.220
61209W        W29583   9.375  35.955  10.500
61210W        W29584   5.230  44.892   0.480
61211W        W29585   3.810  38.412  14.297
61212W        W29586  21.671  28.973   1.800
61213W        W29587  15.627   4.745  12.095
61214W        W29588  40.878  43.456   1.244
61215W        W29589  24.564  17.168  12.547
61216W        W29590  40.372  33.613   4.262
61217W        W29591   6.272  28.659   5.201
61218W        W29592  24.694  36.985   0.345
61219W        W29593   2.879  11.849  11.891
61220W        W29594  12.301  32.628   2.837
61221W        W29595  20.055  43.381   1.314
61222W        W29596  39.064   2.245   4.762
61223W        W29597  43.784  32.908  13.800
61224W        W29598  34.864  12.619  13.905
61225W        W29599  23.535  40.469   4.233
61226W        W29600  11.723   9.168   4.777
61227W        W29601  22.710  41.826   1.451
61228W        W29602  35.855   0.275   4.301
61229W        W29603  17.182  11.132  14.966
61230W        W29604   7.888   7.665  10.897
61231W        W29605  17.203  33.125  14.779
61232W        W29606  14.616  33.486  14.378
61233W        W29607  24.135  30.969  14.322
61234W        W29608  13.645  24.650  14.469
61235W        W29609  29.558  33.567   9.926
61236W        W29610   4.239  35.410   2.246
61237W        W29611  37.920  14.783  12.908
61238W        W29612  23.997  40.006   2.314
61239W        W29613  42.935   1.917  13.521
61240W        W29614  24.526  21.591   4.665
61241W        W29615   7.807  20.174   1.310
61242W        W29616  22.173   5.840   4.705
61243W        W29617  28.664   3.842  11.426
61244W        W29618  11.134  27.951  14.909
61245W        W29619  31.048  37.976   3.372
61246W        W29620  13.713  14.200   0.417
61247W        W29621   4.707  23.138   2.226
61248W        W29622  30.975  22.017  14.765
61249W        W29623  42.456  15.772   0.402
61250W        W29624  20.247  21.737  12.544
61251W        W29625  16.234   9.152  10.436
61252W        W29626  44.918  17.732   3.332
61253W        W29627  20.716  28.082   4.308
61254W        W29628  43.824  29.467   0.396
61255W        W29629  11.365  43.849  11.856
61256W        W29630   0.298  10.340  14.326
61257W        W29631  38.027  16.766   4.124
61258W        W29632   7.253  38.994   4.775
61259W        W29633  23.106  16.125   2.223
61260W        W29634  37.942   5.344   4.248
61261W        W29635  19.080  12.708   1.749
61262W        W29636   7.399  25.478   0.347
61263W        W29637   5.782  19.690   2.340
61264W        W29638  10.683  30.482  11.925
61265W        W29639  10.660   2.432   0.482
61266W        W29640  16.080  38.956   2.389
61267W        W29641  40.908  41.445   4.704
61268W        W29642  17.681  19.732  13.950
61269W        W29643  24.500  19.090   3.365
61270W        W29644  37.036  27.945   0.926
61271W        W29645  43.923  18.644  13.990
61272W        W29646  25.176  13.256   3.309
61273W        W29647  41.428  10.741  13.386
61274W        W29648   4.898  36.866  13.015
61275W        W29649  10.636  29.066   3.629
61276W        W29650  10.276  11.204   3.686
61277W        W29651  37.837  14.300   3.712
61278W        W29652  13.235  21.735   3.726
61279W        W29653  43.938  37.401  10.994
61280W        W29654  24.186  16.751   3.724
61281W        W29655  21.259  44.260  14.766
61282W        W29656  29.513  29.648   4.834
61283W        W29657  14.260  37.462  14.469
61284W        W29658   8.362   5.419  14.353
61285W        W29659  40.920  37.076  12.977
61286W        W29660  40.474   4.233  14.498
61287W        W29661  27.689  19.195   0.433
61288W        W29662  23.641  21.637  12.340
61289W        W29663  34.443  23.575   1.899
61290W        W29664  25.655  18.149  14.887
61291W        W29665   6.228  33.085  11.006
61292W        W29666   1.918   2.911   1.746
61293W        W29667   7.279  34.035  12.006
61294W        W29668   9.248  35.502  14.886
61295W        W29669  24.597  23.017  14.861
61296W        W29670   2.462  22.241   0.249
61297W        W29671  44.417  12.161   1.920
61298W        W29672  29.480  21.141  13.321
61299W        W29673  11.290  21.581   2.194
61300W        W29674  33.073  31.099   2.820
61301W        W29675  21.050  39.554  14.302
61302W        W29676   8.235   1.351   1.347
61303W        W29677  11.799   2.411  11.429
61304W        W29678  14.145  19.098  11.470
61305W        W29679  36.522  19.040   1.330
61306W        W29680  42.320  31.539  11.592
61307W        W29681  27.037  10.144  11.947
61308W        W29682  42.527  40.999  13.974
61309W        W29683   0.853  39.433   2.279
61310W        W29684   8.693   1.411  11.425
61311W        W29685  19.596  36.989   2.736
61312W        W29686  10.218  23.620  12.897
61313W        W29687  43.854   5.717  13.402
61314W        W29688  30.927  44.946  12.362
61315W        W29689  10.869  34.986   2.823
61316W        W29690  44.917   6.845   4.259
61317W        W29691   8.227  38.444   3.755
61318W        W29692  30.110  36.892   1.303
61319W        W29693  37.462   0.434  11.425
61320W        W29694  14.127  42.013  14.807
61321W        W29695   8.299  26.600   2.814
61322W        W29696  39.432  40.438  11.474
61323W        W29697  43.479  34.014   0.250
61324W        W29698  21.043  37.055   0.288
61325W        W29699  41.875   2.925  12.525
61326W        W29700  35.554  34.382   2.817
61327W        W29701  24.655  18.631  11.965
61328W        W29702  20.218  28.503   2.832
61329W        W29703   0.284  40.881   4.634
61330W        W29704  15.710  37.476   5.304
61331W        W29705  37.993  10.798  11.578
61332W        W29706  28.099  40.002   1.356
61333W        W29707  42.907  33.399   1.291
61334W        W29708  29.157  26.134  12.448
61335W        W29709   8.379  12.701   1.780
61336W        W29710  43.964   4.743   3.629
61337W        W29711  26.549  28.596  14.937
61338W        W29712  31.474  24.175  13.500
61339W        W29713  13.194  33.131   0.381
61340W        W29714  31.947   8.700  12.998
61341W        W29715   4.915  18.098  13.400
61342W        W29716  29.003   3.310   3.752
61343W        W29717  42.791  16.748   4.645
61344W        W29718  17.084  17.580   3.235
61345W        W29719  10.854  20.672  13.879
61346W        W29720  22.677  39.992   9.991
61347W        W29721  27.637  34.999  12.529
61348W        W29722  28.005  30.062   1.739
61349W        W29723  40.863  35.365   2.193
61350W        W29724  10.763   6.418   1.220
61351W        W29725  28.534  21.664  13.896
61352W        W29726  29.428  35.556  11.955
61353W        W29727  34.613  34.063   3.716
61354W        W29728  16.086  44.363   1.302
61355W        W29729  43.303   7.348  11.585
61356W        W29730  44.352   3.457   4.253
61357W        W29731   6.337  22.188   4.248
61358W        W29732  27.033   6.350   3.758
61359W        W29733  22.726  21.154   0.349
61360W        W29734  14.646   2.941  13.395
61361W        W29735   1.739  28.102   3.308
61362W        W29736  11.369  30.992  14.366
61363W        W29737  27.138  21.087   4.674
61364W        W29738  10.168  42.509  11.498
61365W        W29739   3.252   3.434  13.532
61366W        W29740  26.027  44.929   5.157
61367W        W29741  14.288  17.210   2.686
61368W        W29742  35.379   1.298  12.090
61369W        W29743  33.888  43.490   3.671
61370W        W29744  43.297   5.883   4.175
61371W        W29745  12.146  22.704   4.827
61372W        W29746  41.414   3.317   4.254
61373W        W29747  30.128  31.945  14.993
61374W        W29748   9.868  31.635  10.457
61375W        W29749   1.294  19.263  14.374
61376W        W29750   9.169  39.852   9.967
61377W        W29751  17.565  17.083  13.950
61378W        W29752  36.882  38.393   3.221
61379W        W29753  41.507  21.050  11.064
61380W        W29754  20.676  20.735   0.756
61381W        W29755  23.082  43.390   1.816
61382W        W29756  23.048  39.063   4.161
61383W        W29757  39.372  12.219   2.840
61384W        W29758  38.400  33.933  14.878
61385W        W29759   0.979  34.079   1.366
61386W        W29760  32.565  10.300  13.525
61387W        W29761  14.776  18.098  13.000
61388W        W29762   7.253  13.733  11.398
61389W        W29763  17.595  41.880  12.857
61390W        W29764  11.697  33.933   3.285
61391W        W29765   4.901  26.981   0.882
61392W        W29766   4.369   4.297   4.146
61393W        W29767  36.577  41.327  10.463
61394W        W29768   5.302  39.443   3.828
61395W        W29769  36.053   4.350  14.935
61396W        W29770   4.429  21.256  12.029
61397W        W29771  41.458  44.831  11.903
61398W        W29772   2.287  21.147   4.640
61399W        W29773  25.113  43.292  10.618
61400W        W29774   3.426   6.380   1.324
61401W        W29775  39.055  16.772  14.465
61402W        W29776   4.222  36.021   4.236
61403W        W29777  15.104   7.325   5.632
61404W        W29778  34.078  20.526  13.339
61405W        W29779  32.909   0.311   3.868
61406W        W29780  21.673  32.415   4.823
61407W        W29781  29.034  29.437   4.616
61408W        W29782  44.929   8.330  14.405
61409W        W29783   3.752  33.505   1.820
61410W        W29784  19.545  40.513   4.205
61411W        W29785  40.332   1.254  10.490
61412W        W29786  20.235  26.589  11.040
61413W        W29787   8.664  21.151   4.639
61414W        W29788  44.764  41.432  10.608
61415W        W29789  16.626  13.213   4.319
61416W        W29790  17.114  38.443  13.979
61417W        W29791  19.218  38.936  14.918
61418W        W29792  32.039   0.410   3.640
61419W        W29793   3.843  24.091   4.807
61420W        W29794  27.522  32.134   0.446
61421W        W29795  15.690  23.050  13.430
61422W        W29796  33.071  34.882   4.781
61423W        W29797  37.487  41.381  13.047
61424W        W29798   5.286  42.384  14.006
61425W        W29799  27.591  25.966  11.065
61426W        W29800  22.612  32.589   2.827
61427W        W29801   9.177   6.345  11.526
61428W        W29802   6.905  25.029  13.025
61429W        W29803  33.619  26.688   4.141
61430W        W29804   1.862  37.855  14.480
61431W        W29805  21.068  39.556   2.751
61432W        W29806  23.141  30.495   2.741
61433W        W29807  41.321  30.967   4.235
61434W        W29808  21.645  34.542  12.910
61435W        W29809  38.412  36.863   0.287
61436W        W29810  26.642  33.493  11.924
61437W        W29811  27.180   5.767   0.375
61438W        W29812  36.983   5.886  12.476
61439W        W29813  30.587  36.546  10.638
61440W        W29814  17.306  33.079  13.325
61441W        W29815  22.585   2.903   3.750
61442W        W29816  40.496  33.001  10.616
61443W        W29817   9.215   7.268   5.145
61444W        W29818  40.005  38.834  10.574
61445W        W29819  35.600  35.986   4.197
61446W        W29820   8.199  39.490  13.059
61447W        W29821  33.444  13.828   3.819
61448W        W29822  27.099  25.612   4.270
61449W        W29823  17.221   3.782   4.272
61450W        W29824  36.060  22.020   2.873
61451W        W29825  14.116  21.040   4.812
61452W        W29826  36.374  22.234   3.833
61453W        W29827   3.406  41.811  13.006
61454W        W29828   5.330  43.366   2.202
61455W        W29829  30.594  27.660  10.456
61456W        W29830  25.082   4.212  14.480
61457W        W29831  25.486  31.408   2.730
61458W        W29832   3.837  19.593   0.387
61459W        W29833  41.367  36.361   2.245
61460W        W29834  16.181   1.418   2.877
61461W        W29835   3.939  38.515  13.914
61462W        W29836  13.704  35.890  13.351
61463W        W29837  33.957  40.407   0.729
61464W        W29838  22.010  17.264  13.838
61465W        W29839  15.200  16.784   0.751
61466W        W29840  40.364  44.914  14.787
61467W        W29841  20.729  35.602  12.088
61468W        W29842  41.979   6.872  13.887
61469W        W29843  40.931  37.086  12.578
61470W        W29844  16.128  20.031   0.799
61471W        W29845  30.139  33.608   0.963
61472W        W29846  27.952  30.454   3.677
61473W        W29847  31.080  12.785   0.475
61474W        W29848  41.460  14.329   2.895
61475W        W29849  10.308   8.664   2.377
61476W        W29850  28.092  33.914  12.049
61477W        W29851  37.519  39.956  13.449
61478W        W29852  10.722   8.280  10.603
61479W        W29853  18.054  20.053   4.821
61480W        W29854   3.425  31.923  13.379
61481W        W29855  36.420   1.294  13.444
61482W        W29856  34.396   2.741  11.547
61483W        W29857  10.220  19.556   2.290
61484W        W29858  12.126  37.456   2.414
61485W        W29859  39.552   0.424  11.576
61486W        W29860  18.681  13.174  11.988
61487W        W29861  27.114  33.092  14.007
61488W        W29862   4.423  38.878  10.896
61489W        W29863  14.618  39.458  11.506
61490W        W29864  42.381  35.988  12.553
61491W        W29865  25.156  37.358  14.891
61492W        W29866  38.057  41.383  12.000
61493W        W29867  10.726  29.451  14.333
61494W        W29868  22.734  20.722   0.733
61495W        W29869  12.135  14.768   2.890
61496W        W29870   5.372   4.248   1.212
61497W        W29871  16.121  15.660   3.354
61498W        W29872   1.869  21.178   2.902
61499W        W29873   7.861   7.680   3.317
61500W        W29874  18.592  16.758  13.380
61501W        W29875  19.096  12.351   3.333
61502W        W29876  12.826  22.535   2.680
61503W        W29877  28.480  14.672  11.468
61504W        W29878   2.426   3.814   3.785
61505W        W29879  30.550  23.164  10.458
61506W        W29880  32.981  38.854  11.012
61507W        W29881  26.649  27.686  13.894
61508W        W29882  32.130  38.822   5.232
61509W        W29883   2.940  23.133  14.971
61510W        W29884  34.070  22.183   2.324
61511W        W29885  30.926  24.107   1.765
61512W        W29886   3.321  27.074   0.726
61513W        W29887   4.370  10.307  12.891
61514W        W29888  27.062  26.578  10.451
61515W        W29889  34.383  29.124  13.938
61516W        W29890   0.263  40.944   3.340
61517W        W29891  35.369   6.372   1.298
61518W        W29892  22.635  43.817  10.960
61519W        W29893  40.402  24.710  13.383
61520W        W29894  43.913  28.982  10.596
61521W        W29895  35.513   5.760   0.448
61522W        W29896  41.861   5.806  11.977
61523W        W29897  21.251  38.443  14.353
61524W        W29898   7.802  23.669  12.923
61525W        W29899  43.779  37.887   1.390
61526W        W29900  22.540  40.379  11.118
61527W        W29901  17.603  33.971   2.691
61528W        W29902   4.921   3.298  11.586
61529W        W29903  28.564  12.360   0.369
61530W        W29904   8.689  42.372   1.380
61531W        W29905  44.906  39.043   4.214
61532W        W29906  16.652  37.976   4.352
61533W        W29907  27.155   0.820  12.891
61534W        W29908  24.695  35.911  14.288
61535W        W29909   3.721  38.821   1.856
61536W        W29910  40.990  21.685   3.734
61537W        W29911  37.352  34.971   0.876
61538W        W29912  11.357  21.659  12.053
61539W        W29913  28.082  19.582  14.827
61540W        W29914  43.512  13.247   1.851
61541W        W29915  11.747  20.137  12.361
61542W        W29916  34.441  26.571   1.272
61543W        W29917   0.334   8.770   2.384
61544W        W29918  37.070  27.097   3.778
61545W        W29919  38.565  34.949   3.333
61546W        W29920  32.401   5.861  13.792
61547W        W29921   8.714  27.964  11.119
61548W        W29922  33.130  25.055  11.926
61549W        W29923  18.157  10.150  10.617
61550W        W29924  21.201  36.537  13.896
61551W        W29925  23.066  29.049   1.845
61552W        W29926  32.977  30.531  11.950
61553W        W29927  35.416  20.200   0.911
61554W        W29928  25.992  27.125  11.450
61555W        W29929  33.548  27.185   4.236
61556W        W29930  19.633   8.691   2.250
61557W        W29931   4.446  32.062  11.595
61558W        W29932  14.318  21.083   0.944
61559W        W29933  21.236  30.030  10.920
61560W        W29934  23.669  12.777  14.445
61561W        W29935   2.372  31.503   2.381
61562W        W29936  27.134  33.540   1.729
61563W        W29937  31.553  10.137  10.466
61564W        W29938  11.209  26.994   4.781
61565W        W29939  42.873   8.392  12.075
61566W        W29940  44.359  26.485  10.624
61567W        W29941  36.455  39.554  14.463
61568W        W29942  42.817  23.734   3.364
61569W        W29943  35.458   6.805   4.598
61570W        W29944  38.434   8.376  14.847
61571W        W29945  18.668  10.701   2.870
61572W        W29946   8.878  19.144   1.221
61573W        W29947  40.986  23.230   1.763
61574W        W29948  35.509  44.318  14.784
61575W        W29949  39.996   5.383  11.511
61576W        W29950   6.914  31.647   3.686
61577W        W29951  16.073  13.291   1.843
61578W        W29952  36.051  17.616   4.317
61579W        W29953  18.273  20.125  11.497
61580W        W29954  42.779  25.974   4.816
61581W        W29955  33.056  41.351  12.529
61582W        W29956  30.446  14.241   2.669
61583W        W29957  20.124   1.378  11.494
61584W        W29958  16.619  37.440  13.798
61585W        W29959  40.424  43.513  13.351
61586W        W29960  40.533  22.605   1.265
61587W        W29961  19.236  38.511   0.873
61588W        W29962   2.819  25.163  11.941
61589W        W29963  44.278  37.540  14.772
61590W        W29964  20.606  41.812  14.029
61591W        W29965  34.543  24.187  14.431
61592W        W29966  34.925  42.395   1.863
61593W        W29967  17.103  41.306  13.348
61594W        W29968  13.119  19.199   1.248
61595W        W29969  19.203   7.245  14.276
61596W        W29970  24.011  29.975  14.312
61597W        W29971  25.624  22.181  13.528
61598W        W29972  20.257  23.128   1.211
61599W        W29973  38.027  30.419   3.214
61600W        W29974  14.677  40.937  14.450
61601W        W29975  27.479  23.019   3.645
61602W        W29976  38.827   2.279  12.526
61603W        W29977   6.253  26.059   4.701
61604W        W29978   7.234   9.227   0.825
61605W        W29979  37.359  10.195   1.814
61606W        W29980   8.271  42.492  14.425
61607W        W29981   9.171   5.202  14.422
61608W        W29982   5.746  20.144  11.062
61609W        W29983  24.624  42.507  11.382
61610W        W29984  30.617  21.240   0.852
61611W        W29985  32.554  38.327   3.194
61612W        W29986  41.338  31.915   2.752
61613W        W29987  27.129  13.162  13.525
61614W        W29988   8.323   0.331   1.355
61615W        W29989  31.603  15.308  13.439
61616W        W29990   9.648  19.179   0.844
61617W        W29991  26.625  13.624   0.871
61618W        W29992  37.481   2.379   5.091
61619W        W29993  15.629  44.810  12.472
61620W        W29994  21.608  25.009   2.347
61621W        W29995  41.989   6.745  12.090
61622W        W29996  24.125   3.256   4.640
61623W        W29997   5.431  38.356   2.185
61624W        W29998  16.208   1.885   5.134
61625W        W29999   5.253   4.859  10.110
61626W        W30000   8.863  38.830   0.257
61627W        W30001  19.714  24.711  11.550
61628W        W30002  41.926  20.583  14.854
61629W        W30003  21.675  15.740  13.016
61630W        W30004   2.433  36.572   2.706
61631W        W30005  38.045   6.313   9.660
61632W        W30006  16.702  25.011   0.841
61633W        W30007  18.565  29.562   0.360
61634W        W30008   8.702   1.927  12.453
61635W        W30009  32.092  19.714   1.776
61636W        W30010  37.453  11.861   5.266
61637W        W30011  39.539  23.107  11.091
61638W        W30012  23.682  39.475  11.971
61639W        W30013  17.570  26.599   1.715
61640W        W30014  26.173  36.871   4.266
61641W        W30015  19.648  26.485   1.870
61642W        W30016  16.632  28.948   3.848
61643W        W30017   9.362  36.505  11.418
61644W        W30018  11.152  34.863   1.311
61645W        W30019   3.797  44.762  11.014
61646W        W30020  15.266   0.455   4.800
61647W        W30021  15.696   2.277  11.097
61648W        W30022  38.389   3.779   0.476
61649W        W30023   4.407   3.459  13.865
61650W        W30024   7.877  24.571   3.221
61651W        W30025  42.874   8.769   1.706
61652W        W30026  38.915   7.769  14.866
61653W        W30027  38.842  22.504  13.391
61654W        W30028  41.834   9.702   1.252
61655W        W30029  42.947  33.057  11.505
61656W        W30030   7.851  14.804   1.775
61657W        W30031  25.086  18.690  11.529
61658W        W30032  29.495  31.447  14.285
61659W        W30033   0.315  24.154  14.487
61660W        W30034  44.815   9.753  11.860
61661W        W30035  29.652  32.510  12.852
61662W        W30036   3.250  11.857  14.364
61663W        W30037  16.301  26.642  10.521
61664W        W30038  21.635   2.961   4.155
61665W        W30039   9.263   6.240  13.016
61666W        W30040  23.694  36.042   4.820
61667W        W30041   9.225  27.072   1.350
61668W        W30042  25.516  32.028  14.825
61669W        W30043  38.857  14.664  10.477
61670W        W30044   3.919  37.436   4.702
61671W        W30045   5.689  43.426  14.926
61672W        W30046  18.555  29.123  12.505
61673W        W30047  40.886  38.940   1.834
61674W        W30048  21.669  41.898  13.335
61675W        W30049  34.905  24.103   0.469
61676W        W30050  25.695  18.677   5.124
61677W        W30051  18.205  30.984   3.814
61678W        W30052  17.659  30.131  10.932
61679W        W30053  40.009   8.305   1.784
61680W        W30054  35.069  18.741   1.880
61681W        W30055  15.803  16.275  10.980
61682W        W30056  35.376  20.713   1.886
61683W        W30057  44.949  24.127  12.826
61684W        W30058  10.240  39.532   0.916
61685W        W30059  16.669  14.691  14.017
61686W        W30060  42.811  22.096  10.445
61687W        W30061  19.098  29.488  12.548
61688W        W30062  33.389  17.675   1.222
61689W        W30063   3.416  35.475   0.727
61690W        W30064  28.984  30.923  13.493
61691W        W30065  22.540  28.612  10.100
61692W        W30066  32.097   8.894  14.326
61693W        W30067  16.087  22.110   3.328
61694W        W30068  11.197  32.605   2.280
61695W        W30069  42.294   1.946   2.772
61696W        W30070  20.576  15.270   2.760
61697W        W30071  37.071  12.243  13.494
61698W        W30072  44.434  15.118  11.585
61699W        W30073  16.177   0.319   2.748
61700W        W30074  36.982  35.939  10.904
61701W        W30075  43.954  20.139  13.307
61702W        W30076  21.136  43.374  11.033
61703W        W30077  24.490  29.031   4.799
61704W        W30078  36.415  23.597  10.996
61705W        W30079  44.001  16.625  11.904
61706W        W30080   4.916  26.010  12.993
61707W        W30081  27.618  23.212  12.898
61708W        W30082  33.381   4.914  10.506
61709W        W30083  44.855  27.173  10.470
61710W        W30084   9.819  28.648   2.224
61711W        W30085  20.626   9.236  10.965
61712W        W30086  42.385  41.419  10.483
61713W        W30087  32.614  30.603  14.845
61714W        W30088   9.877  16.779  14.424
61715W        W30089  39.060  29.105   1.250
61716W        W30090  36.516  14.110  13.347
61717W        W30091  32.547  10.260   1.238
61718W        W30092  21.071   7.224  11.987
61719W        W30093   1.271  18.595  13.405
61720W        W30094  38.032  26.588   4.826
61721W        W30095  33.976  37.075  14.417
61722W        W30096  39.498  20.736   0.817
61723W        W30097  36.929   3.826  10.528
61724W        W30098  35.100  34.898   1.885
61725W        W30099  18.218  14.593   3.817
61726W        W30100   8.198  31.912  13.828
61727W        W30101  25.991  23.584  13.793
61728W        W30102  33.515  15.097  13.495
61729W        W30103   9.809   5.790  11.887
61730W        W30104   0.468   0.907  14.301
61731W        W30105  11.810  11.138  10.967
61732W        W30106  29.060  18.075  13.370
61733W        W30107  26.990  34.555   1.418
61734W        W30108  12.345  24.646   3.660
61735W        W30109  29.583   6.888   4.627
61736W        W30110   7.682  42.290  10.434
61737W        W30111  35.893  40.910   4.147
61738W        W30112  15.752  32.053   1.925
61739W        W30113  16.658  21.170  13.933
61740W        W30114  27.589  34.926   3.347
61741W        W30115  19.254  15.636  14.468
61742W        W30116  40.387  11.216   2.180
61743W        W30117  37.430  24.083  14.878
61744W        W30118  41.427  10.322  11.561
61745W        W30119  20.172  31.901   1.304
61746W        W30120   8.254  33.041  14.924
61747W        W30121  18.734  14.155  14.760
61748W        W30122  19.160   3.368  13.049
61749W        W30123  18.785  10.357  11.377
61750W        W30124  11.265  16.100   3.651
61751W        W30125  43.404   2.301  13.818
61752W        W30126  22.617  16.645  14.833
61753W        W30127   3.786   1.468   3.699
61754W        W30128   0.876  22.112   4.605
61755W        W30129   8.163  34.897   2.779
61756W        W30130   4.406  13.629  14.821
61757W        W30131   1.286  21.255   3.170
61758W        W30132  31.149  40.934  13.411
61759W        W30133  13.235  16.770   4.210
61760W        W30134  26.630  15.688   4.151
61761W        W30135  41.929  42.414  14.922
61762W        W30136  24.686  16.673  10.599
61763W        W30137  22.083  20.144  12.900
61764W        W30138   0.474  19.544   1.911
61765W        W30139  28.443   6.425  10.608
61766W        W30140  44.410   9.729   1.387
61767W        W30141  25.968   3.349  11.411
61768W        W30142  20.730  31.090   3.734
61769W        W30143  23.133  12.762  13.353
61770W        W30144  42.286   1.265   2.697
61771W        W30145  42.776  37.004   3.228
61772W        W30146  37.530   2.770   4.193
61773W        W30147  28.986   3.438  14.947
61774W        W30148  16.098  32.553   3.789
61775W        W30149  40.434  16.107  12.867
61776W        W30150   5.384  21.697   3.183
61777W        W30151  18.592  43.490  11.550
61778W        W30152  22.175  18.728  14.475
61779W        W30153  41.802  34.089  12.926
61780W        W30154  34.961  40.466   0.794
61781W        W30155  12.211  44.413  14.976
61782W        W30156  22.515   2.780  13.058
61783W        W30157  14.666   8.898   2.258
61784W        W30158  13.736  15.588  10.998
61785W        W30159  29.965   4.241  12.414
61786W        W30160  24.013  25.112   3.236
61787W        W30161  19.093  13.798  12.052
61788W        W30162  34.955  22.573  14.921
61789W        W30163  21.587  39.851   9.502
61790W        W30164  31.150  19.273  13.369
61791W        W30165  27.585  19.665   4.607
61792W        W30166  36.387  27.996  13.370
61793W        W30167  36.439  31.950   0.368
61794W        W30168  42.364   8.277   0.898
61795W        W30169  21.749   3.916  10.558
61796W        W30170  20.112  15.190  12.461
61797W        W30171  32.043  14.278  12.471
61798W        W30172  16.312  30.541  10.975
61799W        W30173  43.388  36.098   2.281
61800W        W30174   4.762   3.319   5.129
61801W        W30175  13.201  27.468  11.529
61802W        W30176  44.957  17.758   4.758
61803W        W30177  38.830  20.030   4.293
61804W        W30178  41.490   4.372  12.495
61805W        W30179  24.036  30.152  13.007
61806W        W30180  35.917  41.841  11.583
61807W        W30181  21.666  44.336  13.956
61808W        W30182  25.129  37.869   2.760
61809W        W30183  40.417  12.815   4.304
61810W        W30184  18.075  38.553   2.683
61811W        W30185  34.442  14.198   0.458
61812W        W30186  12.198   9.337  14.931
61813W        W30187  16.172  23.097  10.603
61814W        W30188  19.591  13.657   3.814
61815W        W30189  38.897  37.371  10.087
61816W        W30190  27.541  21.241  14.346
61817W        W30191   4.222  42.000   2.363
61818W        W30192  24.103  13.601   1.250
61819W        W30193  38.433  23.683  14.987
61820W        W30194  18.726   7.678   0.735
61821W        W30195  18.644   3.242  14.808
61822W        W30196  20.651  26.953  13.931
61823W        W30197  19.108  22.229   2.412
61824W        W30198  33.976   1.924  12.483
61825W        W30199  27.606   4.940  13.447
61826W        W30200  14.759  33.082  14.995
61827W        W30201  22.160  36.893  11.490
61828W        W30202  28.991  29.555  12.998
61829W        W30203  12.243   7.288   3.324
61830W        W30204  43.003  40.420  12.876
61831W        W30205   7.707   6.777  12.928
61832W        W30206  12.659  20.122  14.410
61833W        W30207   3.310  39.833   1.354
61834W        W30208   7.746  35.482  12.574
61835W        W30209  17.758   9.661  10.638
61836W        W30210  32.906  39.835  12.517
61837W        W30211  40.010  34.107  13.981
61838W        W30212  19.758   9.880   0.435
61839W        W30213  29.458  13.321   3.785
61840W        W30214  37.465  12.359  10.928
61841W        W30215  19.710   0.476  11.525
61842W        W30216  37.514  37.571  14.021
61843W        W30217  25.563  22.140   0.851
61844W        W30218  38.033  11.761  14.790
61845W        W30219   5.696  22.247   1.851
61846W        W30220  39.372  14.195  12.856
61847W        W30221  14.772  33.073  13.980
61848W        W30222  26.566   0.478   2.326
61849W        W30223  21.154   8.745  10.063
61850W        W30224  29.526  39.345  11.120
61851W        W30225  24.691  22.630  13.986
61852W        W30226  25.569  36.443   0.397
61853W        W30227   7.719  36.559   3.743
61854W        W30228  37.071  39.922   4.231
61855W        W30229  13.612  13.839   4.264
61856W        W30230  44.288  36.969   2.875
61857W        W30231  17.579  35.412  13.485
61858W        W30232  20.614  27.153  10.580
61859W        W30233   6.729  22.588   0.879
61860W        W30234  37.972  33.491  12.977
61861W        W30235  39.033  26.115   4.655
61862W        W30236   0.353  31.076  13.332
61863W        W30237  42.296   5.402  10.964
61864W        W30238  22.535  32.437  10.628
61865W        W30239   1.905  39.486   4.771
61866W        W30240   3.912  42.420   4.781
61867W        W30241   2.226  30.937   2.865
61868W        W30242  12.797  27.000  11.480
61869W        W30243  13.705  11.672  10.483
61870W        W30244   9.200  25.085  13.905
61871W        W30245  23.516  33.940   1.354
61872W        W30246  34.601  41.030   2.364
61873W        W30247  40.975  43.447   2.731
61874W        W30248   4.249  14.202   3.764
61875W        W30249  14.805  17.667  14.441
61876W        W30250  41.375  22.616  10.892
61877W        W30251  35.561   1.240  14.786
61878W        W30252  12.708  36.478   0.411
61879W        W30253  24.176   5.857   2.864
61880W        W30254  38.958   5.890  14.299
61881W        W30255  40.029  37.873   2.386
61882W        W30256   3.839  30.161  11.057
61883W        W30257   0.956  25.194   4.185
61884W        W30258  20.526  40.327   0.425
61885W        W30259  35.099   7.398   2.255
61886W        W30260  41.913  35.576   1.729
61887W        W30261  10.643  21.120  13.437
61888W        W30262  41.878   6.861   4.316
61889W        W30263   7.222  29.614   1.935
61890W        W30264  44.417  35.386   1.869
61891W        W30265  30.991   5.735  13.326
61892W        W30266  35.919   8.737   0.404
61893W        W30267  26.149  38.911  11.539
61894W        W30268  36.514  33.436  12.471
61895W        W30269  39.470  12.133   0.955
61896W        W30270   4.407  33.519  14.884
61897W        W30271  42.518  31.474  11.059
61898W        W30272  22.701  33.099   1.723
61899W        W30273  40.476  37.345  14.865
61900W        W30274   2.443  18.589   0.889
61901W        W30275  19.534  18.673   0.314
61902W        W30276  25.020  13.621  11.868
61903W        W30277  30.653  18.098  14.486
61904W        W30278   9.792  16.800   2.371
61905W        W30279  31.995   9.294  12.398
61906W        W30280  23.167  26.011  13.897
61907W        W30281  25.570  30.948   5.267
61908W        W30282   6.416  20.235   1.804
61909W        W30283  43.857  28.096  10.496
61910W        W30284  33.495  44.930   2.208
61911W        W30285  28.011  17.162   1.796
61912W        W30286  14.660  20.164   1.931
61913W        W30287  11.692  35.581  11.118
61914W        W30288  11.298  30.057  12.003
61915W        W30289  19.231  34.112   0.392
61916W        W30290   5.211  36.468  11.881
61917W        W30291   8.750  11.699  14.924
61918W        W30292   9.170   4.784   0.754
61919W        W30293  42.965   7.292   1.933
61920W        W30294   2.762  31.055   1.324
61921W        W30295  28.024  36.436  11.993
61922W        W30296  25.978   8.658   4.328
61923W        W30297  16.244  25.687  13.970
61924W        W30298  10.384  38.404  11.981
61925W        W30299  39.056  20.663  12.543
61926W        W30300   8.169  11.254  11.008
61927W        W30301   2.272   3.338   3.361
61928W        W30302  15.731  43.912   3.295
61929W        W30303  30.955  22.061   0.768
61930W        W30304   2.287   1.260   0.274
61931W        W30305  21.666   8.866   0.442
61932W        W30306   1.344  18.761  10.413
61933W        W30307  32.416  32.936  10.506
61934W        W30308  12.622   5.704   2.822
61935W        W30309  36.490  44.373   3.260
61936W        W30310  28.451   2.930   1.364
61937W        W30311  40.026  25.674  13.389
61938W        W30312  18.108  33.083   0.315
61939W        W30313  34.516  24.129  10.888
61940W        W30314  44.983  25.709   2.331
61941W        W30315  36.848  16.716   4.209
61942W        W30316  15.639  38.979   0.831
61943W        W30317  39.989  10.253  14.805
61944W        W30318  43.765  16.582  14.292
61945W        W30319  40.904  12.144   3.315
61946W        W30320  31.065  23.568   4.295
61947W        W30321   7.237  16.729   2.219
61948W        W30322  10.690  44.856  13.008
61949W        W30323  32.098  33.566  14.849
61950W        W30324  37.010  12.268   3.341
61951W        W30325  34.042  30.587   0.911
61952W        W30326   3.810  12.799  12.349
61953W        W30327  14.637  44.338  10.143
61954W        W30328  23.551  17.307   9.950
61955W        W30329   2.958  28.039   3.310
61956W        W30330  32.535  24.704  12.039
61957W        W30331  24.999   9.201   0.459
61958W        W30332  24.592  13.252   1.336
61959W        W30333  17.670  18.127   2.896
61960W        W30334  12.683   5.847  14.848
61961W        W30335  32.527   8.718  10.590
61962W        W30336  30.419   4.223   3.171
61963W        W30337  30.084  18.583  11.443
61964W        W30338   3.388  37.943   3.732
61965W        W30339  24.551  25.195   2.821
61966W        W30340  37.526   9.190  12.564
61967W        W30341  29.948  35.015   1.387
61968W        W30342  10.784   7.192  14.291
61969W        W30343  36.954  35.895  11.960
61970W        W30344  30.153  14.119   1.844
61971W        W30345   7.281  15.323  11.118
61972W        W30346  22.056  35.383  14.388
61973W        W30347  26.979  39.998   2.681
61974W        W30348  37.522  33.512  14.431
61975W        W30349   8.323   3.373   2.721
61976W        W30350  36.349  19.708   3.150
61977W        W30351  37.946  24.051   0.791
61978W        W30352  27.483  23.699  10.566
61979W        W30353   2.734  27.654   2.869
61980W        W30354  10.230  39.459   4.720
61981W        W30355  42.326   9.828  10.891
61982W        W30356   2.453   1.772  14.945
61983W        W30357  33.034  19.137   1.308
61984W        W30358  17.565   4.891  10.537
61985W        W30359  16.166  26.970  14.452
61986W        W30360  41.314  43.387   3.711
61987W        W30361  11.694  11.661   5.140
61988W        W30362  35.441  43.919  10.986
61989W        W30363  12.645  14.161   2.776
61990W        W30364  12.615   6.682   3.379
61991W        W30365   8.382   6.319  13.878
61992W        W30366  10.268  41.295  13.920
61993W        W30367   7.716  28.600   3.860
61994W        W30368  36.372  43.927  14.862
61995W        W30369  37.940  40.830  10.421
61996W        W30370   9.167   2.842  11.053
61997W        W30371  16.774  31.475  12.945
61998W        W30372  16.193  34.061  13.327
61999W        W30373  15.621  14.659   3.686
62000W        W30374  40.820   6.216   4.292
62001W        W30375  14.142  11.265  11.947
62002W        W30376   1.922  18.613  14.765
62003W        W30377  12.205   3.748   0.871
62004W        W30378  38.339  31.965  14.883
62005W        W30379  23.225  42.785  14.466
62006W        W30380  14.656  37.899  11.414
62007W        W30381  28.124  36.020  14.860
62008W        W30382  36.485  21.749  12.064
62009W        W30383  38.507  42.866  10.408
62010W        W30384  28.441  22.532  14.848
62011W        W30385  13.238  41.352   0.346
62012W        W30386  32.533  27.947  13.851
62013W        W30387  44.306  27.649  14.789
62014W        W30388  42.365  29.011   3.740
62015W        W30389  16.260  24.994  11.976
62016W        W30390  26.544  44.435  12.923
62017W        W30391  39.978  21.065   3.849
62018W        W30392  36.008  38.909  13.849
62019W        W30393  37.408  33.416   5.142
62020W        W30394   1.412   8.318  10.429
62021W        W30395  39.557  26.576  11.935
62022W        W30396  17.641  43.298  14.882
62023W        W30397  22.570  21.712   1.451
62024W        W30398  30.458  31.076  12.987
62025W        W30399   3.396   1.901   1.420
62026W        W30400  23.098  22.610  11.951
62027W        W30401  34.078  42.383   3.686
62028W        W30402  31.438  40.962  12.084
62029W        W30403  44.849  22.708   1.306
62030W        W30404  14.254  28.105   2.223
62031W        W30405  31.418  26.650  11.503
62032W        W30406  33.574   5.694  11.600
62033W        W30407  21.120   2.919  10.631
62034W        W30408   1.972  44.430  13.444
62035W        W30409  18.051   0.441  12.041
62036W        W30410  11.828  27.599  13.895
62037W        W30411  12.156  17.771  11.453
62038W        W30412  10.813  30.538   0.944
62039W        W30413   0.901  27.653   1.390
62040W        W30414  15.103  31.572  10.632
62041W        W30415  18.281  37.882   4.265
62042W        W30416  23.490  35.444  13.878
62043W        W30417   8.745  19.699  10.001
62044W        W30418  16.120   2.863  13.448
62045W        W30419  34.396  23.671  11.086
62046W        W30420  23.643  23.624   2.669
62047W        W30421  41.915  30.548   2.767
62048W        W30422  15.210   7.752   9.958
62049W        W30423  26.570  35.064  11.102
62050W        W30424  11.852  43.802  10.409
62051W        W30425  37.063  33.540  13.427
62052W        W30426  19.763  41.040  13.462
62053W        W30427   5.761  26.172   4.279
62054W        W30428  42.959  36.457   1.734
62055W        W30429  19.268   4.758  14.493
62056W        W30430  21.701  23.231  10.996
62057W        W30431   5.861  13.739  11.605
62058W        W30432  41.010   5.783   0.864
62059W        W30433  18.632   7.704  13.892
62060W        W30434  40.379  30.634   1.324
62061W        W30435  20.761  37.918   5.567
62062W        W30436  40.533  19.269   4.261
62063W        W30437   0.988   5.263  13.888
62064W        W30438  17.171  31.597   4.137
62065W        W30439  18.091  41.360   4.274
62066W        W30440   4.205  35.853  12.891
62067W        W30441  14.288   4.272  12.417
62068W        W30442   0.446  38.441   4.339
62069W        W30443   0.962  11.764   0.470
62070W        W30444  39.891  43.883   2.725
62071W        W30445   3.767  30.918  10.934
62072W        W30446  44.994  37.926   2.833
62073W        W30447  18.742  37.547   3.650
62074W        W30448  18.140  10.736  11.589
62075W        W30449   0.934  11.138  14.799
62076W        W30450  14.115  44.968   4.609
62077W        W30451   0.444   0.393   2.689
62078W        W30452  33.928  24.126  14.892
62079W        W30453   9.691  34.958  12.383
62080W        W30454  28.985   4.855   2.342
62081W        W30455   2.887  43.353  14.818
62082W        W30456   0.319  44.827   3.776
62083W        W30457  35.901   5.888   3.720
62084W        W30458  10.639  17.230  12.032
62085W        W30459  23.662  32.412  13.808
62086W        W30460  26.190  19.141  12.464
62087W        W30461  19.767   8.303  13.907
62088W        W30462  40.810  21.698   0.480
62089W        W30463  30.149   2.464  13.482
62090W        W30464  17.621  21.593  12.483
62091W        W30465   4.313   5.243   4.781
62092W        W30466  25.714  27.118   4.184
62093W        W30467  21.673   4.926  11.405
62094W        W30468  16.654  34.868   2.297
62095W        W30469  36.076  24.210   0.891
62096W        W30470   7.715  23.521  11.447
62097W        W30471  34.981  19.112   0.918
62098W        W30472  24.006  41.350  14.799
62099W        W30473  22.648  39.020  12.032
62100W        W30474   6.293  41.523  12.427
62101W        W30475   8.654   1.970   4.128
62102W        W30476   7.848  14.671  14.759
62103W        W30477  18.145  40.949   4.126
62104W        W30478  32.477  44.284  11.462
62105W        W30479  13.682  15.273   2.252
62106W        W30480  25.190  23.176  14.291
62107W        W30481  35.019  23.505   1.227
62108W        W30482   6.319  24.027   1.321
62109W        W30483  37.948  22.174  14.829
62110W        W30484  24.063  14.704   1.286
62111W        W30485  39.345  43.271  14.382
62112W        W30486  34.065  13.310  14.888
62113W        W30487  11.316  35.020   2.869
62114W        W30488  26.969  31.035   2.272
62115W        W30489   8.401  35.061  14.940
62116W        W30490  28.050  44.870   1.428
62117W        W30491  31.039  17.062   3.339
62118W        W30492  33.914  37.426  11.096
62119W        W30493  13.155  44.371   2.407
62120W        W30494  25.053  42.404  14.987
62121W        W30495   5.239  16.178   1.370
62122W        W30496  36.533  23.034  12.401
62123W        W30497  42.804  34.964  11.991
62124W        W30498  24.005  27.168   1.889
62125W        W30499   6.287  17.296  10.547
62126W        W30500  29.038  31.570  10.642
62127W        W30501  39.978   9.778   4.836
62128W        W30502   3.387  43.997  13.324
62129W        W30503  35.940  21.518  14.771
62130W        W30504  26.539  20.260   3.305
62131W        W30505   5.841  15.613  12.371
62132W        W30506   9.234  31.405  14.935
62133W        W30507  29.453  20.556  13.414
62134W        W30508  19.563  11.322  14.766
62135W        W30509  39.893  14.100   1.771
62136W        W30510  15.607  36.938   3.852
62137W        W30511  13.341  13.635  14.373
62138W        W30512   2.394  32.608   2.781
62139W        W30513  19.741  20.034   1.371
62140W        W30514   2.296  41.432  10.436
62141W        W30515  23.691   8.844  12.455
62142W        W30516  11.272  41.406   4.234
62143W        W30517  31.130  22.167   2.745
62144W        W30518  10.666  20.531   3.292
62145W        W30519   1.737  42.375  11.435
62146W        W30520  38.542  13.195  14.465
62147W        W30521  23.095   2.397   0.435
62148W        W30522   6.311  31.086   2.750
62149W        W30523   7.251  36.518  14.357
62150W        W30524  39.058  44.783   0.374
62151W        W30525  29.039  42.938   2.678
62152W        W30526  36.449  15.620  11.556
62153W        W30527  35.874  28.058  14.425
62154W        W30528   6.205  40.937  13.059
62155W        W30529  32.964   9.162   1.434
62156W        W30530   7.800   0.462  11.958
62157W        W30531  39.503  15.697  14.955
62158W        W30532  30.928   8.761  11.539
62159W        W30533   5.799  39.498   2.231
62160W        W30534  19.270   8.861   3.281
62161W        W30535  19.245  36.521   3.338
62162W        W30536  44.920   2.736  14.287
62163W        W30537  36.448  10.215   3.791
62164W        W30538  39.452  34.016   0.253
62165W        W30539  42.785  27.056   1.295
62166W        W30540  26.191  40.384   3.768
62167W        W30541  15.588  23.134   1.877
62168W        W30542  25.709  40.385   0.953
62169W        W30543   1.821  11.790  14.954
62170W        W30544  41.969   7.756   4.223
62171W        W30545  33.882  34.375   2.330
62172W        W30546  29.655  35.048  10.108
62173W        W30547   6.376  10.790   4.156
62174W        W30548  42.315  24.583   1.368
62175W        W30549   1.417  36.350   1.396
62176W        W30550   9.814  11.173   0.760
62177W        W30551  20.571  30.471   0.803
62178W        W30552  19.183  23.614   2.277
62179W        W30553  12.167   9.328   1.233
62180W        W30554  17.615  19.195   4.722
62181W        W30555  12.719  44.948   3.323
62182W        W30556  21.610  27.449  11.124
62183W        W30557  33.438   4.794   0.920
62184W        W30558  29.425   3.235  12.531
62185W        W30559  21.738  44.322   3.869
62186W        W30560  15.620  38.940   4.652
62187W        W30561  20.189   6.860  14.990
62188W        W30562  33.094  30.164   3.798
62189W        W30563  33.411  33.557   1.374
62190W        W30564  33.478   0.883   1.881
62191W        W30565  22.233  30.029  11.938
62192W        W30566  23.160  24.988   0.891
62193W        W30567  36.372  24.978   2.863
62194W        W30568  30.080  17.798   1.841
62195W        W30569  21.170  44.925   3.240
62196W        W30570  32.066  43.848   3.210
62197W        W30571   4.309  11.697  11.558
62198W        W30572  20.759  20.526   4.323
62199W        W30573  43.269  24.678  10.969
62200W        W30574  27.446  10.819  11.989
62201W        W30575  43.897  20.100   2.202
62202W        W30576  29.027   4.733  14.778
62203W        W30577   9.772  13.142  11.102
62204W        W30578   2.722   6.775  13.443
62205W        W30579  23.191  18.714  14.336
62206W        W30580  44.933   6.307   4.331
62207W        W30581   9.229   3.879  12.572
62208W        W30582  29.973  30.571   3.342
62209W        W30583   6.350  16.164   0.933
62210W        W30584  29.486   2.409   1.342
62211W        W30585  13.148  37.004  13.014
62212W        W30586  16.786  13.797   3.853
62213W        W30587   3.251  35.929  10.541
62214W        W30588  15.809  20.053   2.278
62215W        W30589  30.157  11.368   3.776
62216W        W30590  35.539  15.641  13.452
62217W        W30591  40.991   7.699   1.346
62218W        W30592  34.417  37.063   1.749
62219W        W30593  16.628  18.789   4.752
62220W        W30594  26.538  15.158   4.343
62221W        W30595  20.267  42.905   0.884
62222W        W30596   4.828  44.341   3.639
62223W        W30597   1.864  15.301   0.753
62224W        W30598  36.942  34.440   2.735
62225W        W30599  15.285   9.217   1.902
62226W        W30600  32.075   2.255   0.852
62227W        W30601  15.764  40.345   4.119
62228W        W30602  44.471  30.110   4.632
62229W        W30603  32.466  43.497  13.320
62230W        W30604  39.061  19.583  10.508
62231W        W30605  32.943   8.663  14.004
62232W        W30606  39.812  10.181  13.920
62233W        W30607  21.131  43.297   0.792
62234W        W30608   2.913   1.421  10.957
62235W        W30609  41.492  38.955   0.402
62236W        W30610  26.480   8.197   1.403
62237W        W30611  38.821  29.164   2.828
62238W        W30612  28.016  15.757  10.937
62239W        W30613  29.441  22.170   3.631
62240W        W30614  30.090  36.940   4.656
62241W        W30615   3.332  32.515   1.862
62242W        W30616  13.339   8.234   2.277
62243W        W30617   3.411  36.508   0.396
62244W        W30618  15.289  33.955  10.914
62245W        W30619   7.372  39.020  11.450
62246W        W30620   2.934  17.286  12.996
62247W        W30621  11.212   9.812   3.316
62248W        W30622   6.742  29.511  14.830
62249W        W30623  39.994   8.666   4.183
62250W        W30624   8.229  24.999  11.590
62251W        W30625  32.962  14.752   3.385
62252W        W30626   4.758   0.922   5.101
62253W        W30627  35.081   6.838   2.878
62254W        W30628  34.436   7.843   4.759
62255W        W30629  16.781  40.038   1.846
62256W        W30630  28.510  27.952  13.954
62257W        W30631  18.136  34.597   0.282
62258W        W30632   3.457   9.324  11.058
62259W        W30633  19.535  28.980  12.573
62260W        W30634  43.512   0.928   3.353
62261W        W30635  28.523  34.884  12.342
62262W        W30636  32.916  37.569   3.181
62263W        W30637  40.019   6.325   3.684
62264W        W30638  14.106  13.663  12.867
62265W        W30639  19.187  39.840   3.773
62266W        W30640  20.674   3.385  12.529
62267W        W30641   4.212  38.553  10.561
62268W        W30642   6.719  27.668  10.473
62269W        W30643  20.222  30.126  11.020
62270W        W30644  42.313  27.470  11.056
62271W        W30645  19.689  28.651   0.443
62272W        W30646  42.807  11.672   0.813
62273W        W30647  34.984  30.987   0.844
62274W        W30648  27.581  11.742  11.444
62275W        W30649  14.311  18.098  12.928
62276W        W30650  12.195   3.394  12.969
62277W        W30651  26.461  11.366   0.262
62278W        W30652   8.399  12.303   2.317
62279W        W30653  28.060   1.273   5.221
62280W        W30654  27.631  28.012  13.984
62281W        W30655  14.611  12.175   4.147
62282W        W30656  16.773  23.543   4.755
62283W        W30657   9.856  37.949   0.421
62284W        W30658  18.074  33.566  14.906
62285W        W30659  18.081  42.443  13.813
62286W        W30660  12.691  20.717  11.592
62287W        W30661  37.364   5.786  13.971
62288W        W30662  21.160  13.165   3.257
62289W        W30663   0.384  40.829   0.866
62290W        W30664  41.334   7.242   4.787
62291W        W30665   9.370   6.901  12.885
62292W        W30666  39.519  17.298   2.411
62293W        W30667   2.858  31.064   4.337
62294W        W30668   4.781  42.439  14.418
62295W        W30669  14.176  12.210  12.978
62296W        W30670  29.957  42.338  10.502
62297W        W30671  25.066  14.786  12.035
62298W        W30672   0.262  26.492  14.011
62299W        W30673  37.498  27.999  14.927
62300W        W30674  17.629  24.504   4.753
62301W        W30675  15.145  15.686  12.898
62302W        W30676  19.648   1.330  12.506
62303W        W30677  35.408  37.980  12.024
62304W        W30678  27.547  43.505  14.465
62305W        W30679  21.263  20.200  13.806
62306W        W30680   3.868  22.686   1.406
62307W        W30681  21.526  40.391  14.862
62308W        W30682  22.139  38.444  14.854
62309W        W30683   2.367  25.553   2.341
62310W        W30684   8.793  14.766   1.877
62311W        W30685  12.192  12.813   2.695
62312W        W30686  21.087  34.556   1.811
62313W        W30687   8.686  31.458  11.387
62314W        W30688   6.747   3.739   2.291
62315W        W30689  28.072  11.830   4.611
62316W        W30690  14.255  20.242   3.786
62317W        W30691  26.553  27.467  14.507
62318W        W30692  21.753  20.531   4.680
62319W        W30693  20.627   8.388   2.290
62320W        W30694  25.542  35.991  12.825
62321W        W30695  17.629  40.900  11.611
62322W        W30696  40.850  35.940   0.949
62323W        W30697   7.687  13.317   2.871
62324W        W30698  44.915  35.912   4.186
62325W        W30699  30.941  25.523  11.087
62326W        W30700  14.713  22.731  10.997
62327W        W30701   0.804  18.255  13.047
62328W        W30702   0.744  12.799  13.850
62329W        W30703  41.389   8.709   1.413
62330W        W30704  25.988   3.949  14.355
62331W        W30705   1.349   5.818   3.740
62332W        W30706  40.924   0.297  10.576
62333W        W30707  31.500  21.062  10.512
62334W        W30708  37.347  14.750  10.467
62335W        W30709  40.380   5.781   0.421
62336W        W30710  32.601  33.450  14.802
62337W        W30711  17.088  15.205   0.820
62338W        W30712  38.964  11.710   4.692
62339W        W30713  39.940   6.362  10.601
62340W        W30714  27.596  17.142   3.358
62341W        W30715  29.931  33.981  12.999
62342W        W30716  21.075   5.241  13.383
62343W        W30717  26.626  36.362  13.428
62344W        W30718   3.833  36.534  12.501
62345W        W30719  15.241  21.170   2.285
62346W        W30720  21.661   3.455   0.423
62347W        W30721   6.712  30.641  10.901
62348W        W30722  23.702  40.926   3.656
62349W        W30723  39.896  30.502  11.941
62350W        W30724  20.059  44.347  14.011
62351W        W30725   6.735  27.147  12.358
62352W        W30726  13.606  42.357   1.859
62353W        W30727  19.246   8.302  14.343
62354W        W30728  19.090  21.566  12.580
62355W        W30729  18.199   9.216  13.475
62356W        W30730   3.359   5.431  14.986
62357W        W30731  13.127  43.001  13.812
62358W        W30732  43.916  37.978   0.798
62359W        W30733  44.793  26.144  11.105
62360W        W30734  34.988   1.358  11.398
62361W        W30735   4.822  41.321  10.610
62362W        W30736  18.050  42.927   3.320
62363W        W30737  20.622  25.641   2.852
62364W        W30738  11.220  20.583  12.055
62365W        W30739   2.825   6.334   1.694
62366W        W30740  44.499  18.759  11.945
62367W        W30741   8.242   2.915   0.962
62368W        W30742  17.702   4.239  12.947
62369W        W30743  28.024  19.087   0.246
62370W        W30744  42.421  39.909  14.481
62371W        W30745   8.392  13.294  14.030
62372W        W30746  31.134  26.967   2.815
62373W        W30747  17.145  18.122  14.996
62374W        W30748  23.002  20.749  14.893
62375W        W30749   1.909  20.225   4.710
62376W        W30750  34.400  17.120  11.562
62377W        W30751  11.325  15.172  13.973
62378W        W30752  25.161  13.273  13.521
62379W        W30753  27.637  38.023   3.159
62380W        W30754  20.149   1.243   2.329
62381W        W30755  13.647  13.768  11.951
62382W        W30756  36.549  26.617  11.394
62383W        W30757  35.072  42.322   0.816
62384W        W30758  10.209  42.905   2.815
62385W        W30759  11.318  34.888   4.738
62386W        W30760  28.578  22.665  12.545
62387W        W30761  22.506  30.998   4.290
62388W        W30762   9.325   8.286   4.628
62389W        W30763  33.409  41.928   4.202
62390W        W30764   4.246  15.780  11.020
62391W        W30765  40.980  34.003  14.287
62392W        W30766  36.489   6.303   1.267
62393W        W30767  36.568  16.305   3.308
62394W        W30768  27.953  15.686   2.875
62395W        W30769  37.019   6.922   1.903
62396W        W30770   0.390  22.602   3.286
62397W        W30771  11.210  11.806  12.095
62398W        W30772   0.489  22.675  13.499
62399W        W30773   1.917   9.257  12.425
62400W        W30774  28.013  24.183   3.867
62401W        W30775  38.033  11.206  13.358
62402W        W30776  37.916  35.020  14.841
62403W        W30777  43.301  32.143   1.339
62404W        W30778  43.847  30.120   1.891
62405W        W30779   4.274  36.874   3.813
62406W        W30780  26.114  26.027   1.885
62407W        W30781  31.959  25.214  11.864
62408W        W30782  17.127  23.231   1.819
62409W        W30783  24.609  31.934  10.608
62410W        W30784  22.228  43.804   4.137
62411W        W30785  23.721  20.141  10.636
62412W        W30786  43.853  27.593   3.298
62413W        W30787  30.079  27.571   4.806
62414W        W30788   6.805   5.234  14.006
62415W        W30789  36.858  31.954   3.711
62416W        W30790   1.383  12.162   3.777
62417W        W30791   3.818   7.717   1.901
62418W        W30792  23.582  31.486  12.944
62419W        W30793  22.102  34.387  13.016
62420W        W30794  18.607   2.303   3.673
62421W        W30795  12.726  10.845   0.881
62422W        W30796  20.654  12.327   3.149
62423W        W30797   7.397  41.030   4.818
62424W        W30798   8.678  20.673   5.166
62425W        W30799  14.824  27.569   2.345
62426W        W30800  22.065  40.366  12.852
62427W        W30801  16.303  12.793  12.867
62428W        W30802  25.647  13.314  13.454
62429W        W30803  16.646   7.407   3.824
62430W        W30804   1.876  12.309  12.522
62431W        W30805  14.832  21.231   1.397
62432W        W30806  12.222  35.573   2.309
62433W        W30807  44.907  20.036   3.762
62434W        W30808   5.771  41.344  13.026
62435W        W30809  21.646  21.727   0.856
62436W        W30810  17.087  36.454   0.366
62437W        W30811  26.968  44.878  10.100
62438W        W30812  19.230  24.045   3.788
62439W        W30813   7.247   0.464  14.876
62440W        W30814  39.420  30.947   1.860
62441W        W30815   2.334  32.039   2.807
62442W        W30816  24.503  12.209  13.842
62443W        W30817  26.619  17.281  10.974
62444W        W30818   7.817  33.535  14.287
62445W        W30819  12.783   7.692  12.341
62446W        W30820  20.611  36.436  10.630
62447W        W30821   8.355  13.677   2.880
62448W        W30822  21.689  21.258   1.837
62449W        W30823  37.836  32.592  13.535
62450W        W30824  28.067  42.779  10.460
62451W        W30825  25.214  18.660   3.635
62452W        W30826  38.977  25.659  10.614
62453W        W30827   4.357  32.007  12.530
62454W        W30828   2.347  10.251   2.703
62455W        W30829  31.916  43.889  12.004
62456W        W30830  37.030  32.105   1.243
62457W        W30831  16.776  20.634  12.491
62458W        W30832  43.393  14.782  14.425
62459W        W30833  16.612   6.704   0.452
62460W        W30834  15.609  40.474   2.220
62461W        W30835  41.882  41.898   4.173
62462W        W30836  38.559  12.718   2.406
62463W        W30837  17.557  41.345   2.306
62464W        W30838  44.831   9.861   4.149
62465W        W30839  29.959  17.282   0.282
62466W        W30840   3.215  31.568   4.281
62467W        W30841  34.900   2.261  14.953
62468W        W30842  35.094  22.206  10.105
62469W        W30843   4.704   2.309   1.703
62470W        W30844  27.954   6.255   1.709
62471W        W30845  24.491  11.868  12.955
62472W        W30846  14.813  37.085   2.326
62473W        W30847  29.440  33.009  12.543
62474W        W30848   8.289   8.736  13.427
62475W        W30849   8.666   8.166  12.845
62476W        W30850  39.943  27.071  11.978
62477W        W30851  27.175  17.153  12.565
62478W        W30852   1.837  13.801   1.287
62479W        W30853  18.775  27.448   4.170
62480W        W30854  26.022  29.103  13.049
62481W        W30855  41.791   2.374  14.022
62482W        W30856  38.033  24.494   0.257
62483W        W30857   4.396   6.243   4.738
62484W        W30858  26.157  29.093   0.951
62485W        W30859  20.109   8.233  13.502
62486W        W30860  32.895  23.106  12.865
62487W        W30861  36.498  12.175   3.695
62488W        W30862  32.938   2.346   0.271
62489W        W30863  36.516   9.725   2.698
62490W        W30864  44.389  28.484  13.938
62491W        W30865   5.406  14.633  12.484
62492W        W30866   9.823  34.974   1.697
62493W        W30867  27.106  36.364   2.703
62494W        W30868  41.418  16.197   1.391
62495W        W30869   1.411  43.954  11.068
62496W        W30870  22.103  22.138   1.439
62497W        W30871  32.506  21.190   2.256
62498W        W30872  28.998  14.756  11.976
62499W        W30873  20.603  33.051   1.351
62500W        W30874  21.585  28.659  14.282
62501W        W30875  17.743  42.895  12.876
62502W        W30876   8.194  24.718  14.298
62503W        W30877  11.244  40.326   2.693
62504W        W30878   2.901  42.810   4.258
62505W        W30879  33.060  18.248  12.448
62506W        W30880  12.724  12.704  11.046
62507W        W30881  28.122  29.149  14.899
62508W        W30882  35.002  38.899   9.976
62509W        W30883  23.023  44.992   0.304
62510W        W30884  28.674  33.535   2.258
62511W        W30885  22.233  33.070   2.185
62512W        W30886  32.524  21.714  14.495
62513W        W30887  10.346   1.349  11.110
62514W        W30888  37.917  44.452   1.760
62515W        W30889   8.761  26.507  10.011
62516W        W30890  14.194   9.209  10.029
62517W        W30891   7.309  33.417   0.815
62518W        W30892  11.291  15.172  13.384
62519W        W30893  22.617  30.540   1.879
62520W        W30894  17.731  39.973  12.368
62521W        W30895  24.015  37.425   2.821
62522W        W30896  38.465  13.187   0.337
62523W        W30897   7.822  23.650  13.952
62524W        W30898  36.074  12.170   3.711
62525W        W30899  11.786  13.770   1.264
62526W        W30900  27.549  15.125   3.754
62527W        W30901   6.198  30.652   0.912
62528W        W30902   6.402  42.866  10.587
62529W        W30903  36.071  40.830  14.771
62530W        W30904  12.773  42.442  11.988
62531W        W30905  30.451  27.095   3.636
62532W        W30906  22.715  15.636   1.334
62533W        W30907  26.184  22.595  12.431
62534W        W30908  15.729  41.496  12.560
62535W        W30909  44.323  27.547   3.155
62536W        W30910  36.042  43.305   4.332
62537W        W30911  10.656  38.356  11.510
62538W        W30912  10.148  43.420   3.763
62539W        W30913  11.699  42.517  11.901
62540W        W30914  17.254  10.351  13.838
62541W        W30915  21.164  22.051  12.396
62542W        W30916  39.918  11.621  13.834
62543W        W30917  37.885   0.929   4.679
62544W        W30918  15.618  20.635  11.560
62545W        W30919  26.024  37.047   1.785
62546W        W30920  18.231  22.509   1.698
62547W        W30921  41.917  41.538   1.262
62548W        W30922   4.936  10.789  11.091
62549W        W30923   3.423  12.774  10.025
62550W        W30924  31.039   3.864   1.893
62551W        W30925   0.820  12.228   0.456
62552W        W30926  10.672  24.027   0.808
62553W        W30927  41.977  29.563  12.467
62554W        W30928  17.104   6.867   1.317
62555W        W30929  44.767  39.955  14.435
62556W        W30930  13.659  43.848   1.712
62557W        W30931  15.182  38.564   2.283
62558W        W30932  41.886   8.346   0.368
62559W        W30933   6.923  17.114  12.059
62560W        W30934  30.616  39.896  11.439
62561W        W30935   4.433  37.460   0.257
62562W        W30936  16.615  27.122  13.978
62563W        W30937  33.436  18.117  14.936
62564W        W30938  24.146  40.384  12.848
62565W        W30939   9.210   3.920   4.647
62566W        W30940  13.764   1.970  12.833
62567W        W30941  13.756  35.510  11.484
62568W        W30942   2.891  40.961   2.184
62569W        W30943  18.687   9.382  12.538
62570W        W30944  38.336  25.709  13.998
62571W        W30945  15.717   8.333   4.779
62572W        W30946  21.569  26.098  12.943
62573W        W30947  12.831  17.645  11.400
62574W        W30948  22.064  43.335   3.293
62575W        W30949  34.391   4.782  12.389
62576W        W30950  30.647   0.895   4.697
62577W        W30951  20.133  44.958  11.437
62578W        W30952  16.806  34.992  12.500
62579W        W30953  17.281  23.651   2.739
62580W        W30954   1.325  15.267   2.708
62581W        W30955  21.163  25.097   3.296
62582W        W30956  43.411  13.199  14.945
62583W        W30957   0.453   2.902   0.885
62584W        W30958  21.228  26.522   0.785
62585W        W30959  17.273  35.991  10.464
62586W        W30960  26.187  24.994  12.843
62587W        W30961  24.225   1.350  14.360
62588W        W30962   8.810  37.383   1.376
62589W        W30963   3.882   0.283  14.449
62590W        W30964  14.715  32.100   1.320
62591W        W30965  35.551  43.876  11.390
62592W        W30966  18.707  28.051  10.146
62593W        W30967  16.317  10.715  11.553
62594W        W30968   5.331   7.884  14.409
62595W        W30969  23.544  31.929   1.223
62596W        W30970  32.590  25.622  12.828
62597W        W30971  43.826  41.932   2.671
62598W        W30972   9.350  17.741   1.247
62599W        W30973  38.345  10.208   2.236
62600W        W30974  20.664  42.022  12.078
62601W        W30975  38.834  30.457  14.514
62602W        W30976  35.604  30.066  14.765
62603W        W30977  26.063  33.130   2.782
62604W        W30978  29.164  14.782   3.840
62605W        W30979  29.949  44.404  14.513
62606W        W30980  24.008  15.310   9.527
62607W        W30981  23.083  20.733  10.637
62608W        W30982  36.429  25.068   0.796
62609W        W30983  21.521  14.675   0.809
62610W        W30984  21.097  15.263   2.370
62611W        W30985  14.745  38.498   2.401
62612W        W30986  22.017  17.606   2.762
62613W        W30987  26.687  22.684   3.804
62614W        W30988  25.469  18.280   5.297
62615W        W30989  40.921  20.747  11.980
62616W        W30990   6.370  43.280   3.314
62617W        W30991  43.982  23.235  14.894
62618W        W30992  13.340  28.995   1.254
62619W        W30993  32.065  16.257   0.347
62620W        W30994  28.157  42.382  13.473
62621W        W30995  36.355  31.564   2.403
62622W        W30996   5.887  40.970  13.886
62623W        W30997  16.099  17.608  14.354
62624W        W30998   4.722   6.335  13.325
62625W        W30999  28.588  26.695  10.986
62626W        W31000   6.922   1.438   0.335
62627W        W31001  22.206  37.510  13.799
62628W        W31002  43.481  20.748   0.321
62629W        W31003  17.598  40.004  14.954
62630W        W31004   9.761  26.151   3.381
62631W        W31005  16.226  19.771  14.330
62632W        W31006  26.169  41.358   0.937
62633W        W31007  24.499  27.112  13.929
62634W        W31008  17.169   8.307   2.193
62635W        W31009  21.539  14.281  11.554
62636W        W31010   7.730  40.921  12.437
62637W        W31011  42.345  34.454  14.005
62638W        W31012  22.562   1.854   1.923
62639W        W31013   3.744  28.486   0.808
62640W        W31014  32.059  40.447  12.095
62641W        W31015  26.700  41.859   1.309
62642W        W31016  35.369   0.891  11.079
62643W        W31017  23.651  22.022  14.497
62644W        W31018  39.816  20.705   1.926
62645W        W31019  14.721  44.264   4.749
62646W        W31020  23.701  17.715  14.761
62647W        W31021   8.366  22.729  10.491
62648W        W31022   3.823  11.654   4.606
62649W        W31023  43.430  11.282  12.986
62650W        W31024  30.526   4.353  12.514
62651W        W31025   9.838   1.865  14.765
62652W        W31026  39.867  16.689  11.034
62653W        W31027   3.460  25.033  13.790
62654W        W31028   5.773  28.158   2.773
62655W        W31029   3.226   2.891   3.332
62656W        W31030   3.324  16.153  12.485
62657W        W31031  12.614  32.605  12.566
62658W        W31032  31.555  41.350   1.727
62659W        W31033  20.766  44.337   1.306
62660W        W31034  14.658  14.113  14.881
62661W        W31035  43.369  26.458  14.403
62662W        W31036  13.339  36.942   1.761
62663W        W31037   4.418  44.405  10.056
62664W        W31038   0.850  20.168  12.557
62665W        W31039   4.798   8.351   2.299
62666W        W31040   1.974  33.993   2.231
62667W        W31041  15.282   6.841  11.093
62668W        W31042  40.033  37.417  14.492
62669W        W31043  44.808  25.144   5.182
62670W        W31044  31.057  20.265   2.816
62671W        W31045  24.073  23.559  14.422
62672W        W31046  39.060  37.062   0.900
62673W        W31047   7.819  33.039  14.353
62674W        W31048  18.214  36.354  12.055
62675W        W31049  24.716  33.548   4.729
62676W        W31050  22.537  41.514  14.418
62677W        W31051   8.354  42.896   1.905
62678W        W31052  33.031  28.674   0.342
62679W        W31053  28.980   1.972  11.580
62680W        W31054  33.450   0.477  12.478
62681W        W31055  37.978  30.659   4.235
62682W        W31056   2.965  31.420   2.696
62683W        W31057  28.505  29.934   0.939
62684W        W31058  27.514  43.505   1.392
62685W        W31059  17.096  33.003  11.519
62686W        W31060  29.572  18.608   3.305
62687W        W31061   9.269  35.551   1.401
62688W        W31062   5.804  38.884  12.411
62689W        W31063  37.044   5.357  10.535
62690W        W31064  13.675  14.185  10.441
62691W        W31065  15.294  37.887  14.936
62692W        W31066   3.792  10.160  13.983
62693W        W31067  11.241   1.395  12.429
62694W        W31068  25.668  33.092  13.441
62695W        W31069   1.399  42.790  10.537
62696W        W31070   7.819  15.734   2.190
62697W        W31071  29.150  37.548  11.122
62698W        W31072  44.808  41.483  11.974
62699W        W31073  11.810  35.868  11.437
62700W        W31074  31.588  37.464  10.969
62701W        W31075  31.556  44.461   2.806
62702W        W31076  21.599  28.468  12.046
62703W        W31077  25.639  12.676  14.958
62704W        W31078  26.960  16.082   1.784
62705W        W31079   2.293   5.250   0.251
62706W        W31080   8.662   6.330   0.435
62707W        W31081   0.328  29.136  10.451
62708W        W31082   9.862  39.866  12.898
62709W        W31083  44.477  33.549   1.727
62710W        W31084   6.335  41.031   3.695
62711W        W31085  40.380  32.515   1.759
62712W        W31086  29.467  23.154   3.865
62713W        W31087   4.736  39.063  14.362
62714W        W31088  43.992   0.318  10.554
62715W        W31089  33.420   6.330   0.923
62716W        W31090  18.758  28.559  14.852
62717W        W31091  38.380   4.749   4.216
62718W        W31092  38.384  38.527  12.416
62719W        W31093  38.442  41.975   1.913
62720W        W31094  29.511  11.844   0.355
62721W        W31095   6.718   3.302   4.173
62722W        W31096  22.015  27.187   3.312
62723W        W31097  39.526  28.651  13.456
62724W        W31098  38.379  23.616  12.049
62725W        W31099  32.484   6.280  11.990
62726W        W31100  44.496  17.784  12.351
62727W        W31101   2.826  30.648  13.953
62728W        W31102  41.493  15.103  12.452
62729W        W31103  39.443  11.853   2.733
62730W        W31104   3.771  26.546  14.461
62731W        W31105  39.971  27.542  11.124
62732W        W31106   5.880  24.011   2.288
62733W        W31107  12.647  10.741   4.219
62734W        W31108  27.028  24.153   0.770
62735W        W31109  10.327  17.090   1.899
62736W        W31110  32.915   7.718   0.477
62737W        W31111  27.001  24.575  10.453
62738W        W31112   3.412   1.750  10.986
62739W        W31113   5.431  17.261   2.232
62740W        W31114  19.579  12.174   0.432
62741W        W31115   5.828  22.605   4.700
62742W        W31116  28.523   1.941  11.457
62743W        W31117  22.225  32.961  10.460
62744W        W31118   7.700  14.219   5.261
62745W        W31119  32.982  15.643  12.340
62746W        W31120  20.089  16.305   1.224
62747W        W31121   3.808  37.524   3.342
62748W        W31122  37.963  16.144   3.218
62749W        W31123   0.287  43.943  12.573
62750W        W31124  10.172  15.083  12.409
62751W        W31125  32.119   9.857  11.411
62752W        W31126  15.230   6.207  13.823
62753W        W31127  18.571  32.931   3.809
62754W        W31128  22.083  13.116   3.379
62755W        W31129  30.494  31.024  14.824
62756W        W31130  37.391   6.841  14.340
62757W        W31131  40.492  35.956   4.347
62758W        W31132  42.797  26.106   3.775
62759W        W31133   7.893  14.670   4.286
62760W        W31134  31.957  35.073  14.807
62761W        W31135  26.688  21.055  14.426
62762W        W31136  19.157  38.922   1.855
62763W        W31137  28.570  33.405   4.814
62764W        W31138  32.927  37.393   4.637
62765W        W31139  16.744  15.725  10.571
62766W        W31140  36.538  24.049   1.395
62767W        W31141  17.734   6.707   4.205
62768W        W31142  19.144  17.681  13.974
62769W        W31143  21.746  12.701   2.887
62770W        W31144   3.765  13.662   3.151
62771W        W31145  17.199  32.400   3.296
62772W        W31146  16.604  10.754  10.102
62773W        W31147  32.922  22.019  11.426
62774W        W31148  21.213   4.939  14.004
62775W        W31149  44.476  33.122   3.232
62776W        W31150   2.409  26.575   4.799
62777W        W31151   5.907   2.824   5.104
62778W        W31152  12.328   3.419   0.903
62779W        W31153  10.238  33.089  13.055
62780W        W31154  27.661  27.523   1.264
62781W        W31155  14.104  13.346   4.249
62782W        W31156  12.171  36.874  12.939
62783W        W31157  13.186  17.741   1.366
62784W        W31158   4.428  29.018   1.765
62785W        W31159  24.518  33.518   0.438
62786W        W31160  32.459  40.907  11.459
62787W        W31161   6.401  37.955   2.241
62788W        W31162  43.924  28.016  13.968
62789W        W31163  31.012  39.471  13.485
62790W        W31164  27.123  25.052  11.517
62791W        W31165  22.713  25.055   0.354
62792W        W31166  42.919   9.645   0.744
62793W        W31167  17.094  31.537  13.811
62794W        W31168  36.035   8.862   5.122
62795W        W31169  42.879  43.376  11.412
62796W        W31170  16.774  38.392   3.239
62797W        W31171  32.501  15.251  12.038
62798W        W31172  15.243  29.132  11.041
62799W        W31173  31.959  25.066   4.618
62800W        W31174   7.907  31.131  13.943
62801W        W31175  20.540   1.834   4.798
62802W        W31176  12.201  12.809   0.957
62803W        W31177  10.363  34.011  12.572
62804W        W31178   2.297  39.999   0.817
62805W        W31179  15.159   5.329  12.920
62806W        W31180  37.969  40.354   4.204
62807W        W31181  14.149  37.563   4.193
62808W        W31182  39.551  23.044   1.729
62809W        W31183   1.951  27.649  12.018
62810W        W31184   3.822   5.337   1.916
62811W        W31185   8.666  23.027   1.849
62812W        W31186  35.384  18.084   3.703
62813W        W31187  31.511   0.249   3.306
62814W        W31188  11.352   0.469   4.686
62815W        W31189  36.021   3.733   4.654
62816W        W31190  41.804   5.350   3.224
62817W        W31191  24.616  41.478   0.728
62818W        W31192  30.566   4.786   2.814
62819W        W31193  20.755  22.552   3.702
62820W        W31194  24.003  40.815   0.965
62821W        W31195  39.957  22.687   2.311
62822W        W31196  38.438  43.497  12.873
62823W        W31197  34.439  21.681   3.358
62824W        W31198   4.879  38.964   1.427
62825W        W31199   6.704  35.453   1.783
62826W        W31200  31.986   8.681   3.242
62827W        W31201  19.583  15.780  10.586
62828W        W31202  40.902   7.358   0.245
62829W        W31203   9.820   9.659   1.372
62830W        W31204   6.426  24.982  10.611
62831W        W31205   2.928  30.466   0.448
62832W        W31206  38.342  43.859   2.209
62833W        W31207  33.444  16.079   2.824
62834W        W31208  37.406   3.375  10.893
62835W        W31209  43.487   0.432   0.881
62836W        W31210  39.465  31.597   2.882
62837W        W31211  40.804  11.309  12.489
62838W        W31212  11.730  34.472  11.030
62839W        W31213  10.852  22.619   1.221
62840W        W31214  29.432  11.701  12.934
62841W        W31215   1.462  14.687  12.937
62842W        W31216  28.943  15.174   1.364
62843W        W31217   5.268  17.129  13.388
62844W        W31218   5.790   6.720   0.860
62845W        W31219   2.445   7.318   3.747
62846W        W31220  36.078  33.609  14.370
62847W        W31221  43.278  37.911   3.809
62848W        W31222  40.330  39.052   0.302
62849W        W31223  24.230  14.141   5.270
62850W        W31224   7.310  18.561   3.638
62851W        W31225   8.191  33.098   0.402
62852W        W31226  19.120   2.959   1.805
62853W        W31227  35.423  29.569  10.547
62854W        W31228  29.000  14.126  13.881
62855W        W31229  44.822   4.831  11.123
62856W        W31230  34.030  29.039  11.416
62857W        W31231  14.685  29.969  12.905
62858W        W31232   3.775  11.678  13.496
62859W        W31233  28.078   1.367  13.973
62860W        W31234  24.042  40.548  13.473
62861W        W31235  20.678  30.916  12.518
62862W        W31236  23.034  34.937   0.743
62863W        W31237  33.420   5.789   9.932
62864W        W31238  21.740  38.066   9.475
62865W        W31239  12.627   2.290   0.947
62866W        W31240  42.401  31.056   0.454
62867W        W31241  26.591  30.035   2.865
62868W        W31242  30.657  27.661   4.671
62869W        W31243  42.424  11.824  14.824
62870W        W31244   0.774  36.414  14.938
62871W        W31245  14.261  23.596   2.207
62872W        W31246   5.421  23.579  14.930
62873W        W31247   8.389  31.426   4.656
62874W        W31248  35.054  31.582   1.889
62875W        W31249  25.043  32.436   0.806
62876W        W31250  26.977  17.704  12.552
62877W        W31251  29.944   2.951  14.418
62878W        W31252   7.750  15.183  14.963
62879W        W31253  18.781  25.168  10.460
62880W        W31254   7.681  29.658  13.429
62881W        W31255  33.912  11.178  13.454
62882W        W31256  30.447  17.713  11.101
62883W        W31257  17.165  35.374  13.544
62884W        W31258   8.847  43.943  14.333
62885W        W31259   2.447  40.474   2.262
62886W        W31260  25.574  34.554  11.438
62887W        W31261  12.822   4.230  11.529
62888W        W31262  36.490   9.678  12.380
62889W        W31263  34.871  20.148   2.771
62890W        W31264  32.611  44.971  10.893
62891W        W31265  26.547   2.442  14.420
62892W        W31266  33.441   8.857  11.037
62893W        W31267  15.089  41.018   3.354
62894W        W31268  37.500   0.247   0.304
62895W        W31269  41.840   5.727   0.374
62896W        W31270  41.840  21.599   3.318
62897W        W31271   8.310  16.295  14.795
62898W        W31272  40.361   6.292  14.402
62899W        W31273  41.965  24.655   4.790
62900W        W31274  14.200  17.145  11.941
62901W        W31275   0.762  35.027   4.321
62902W        W31276   0.302  33.582  12.905
62903W        W31277  16.095   5.774  12.980
62904W        W31278   6.325  38.545   0.277
62905W        W31279  10.172   3.451   3.779
62906W        W31280  21.125  22.242   1.330
62907W        W31281   7.709   9.752   3.205
62908W        W31282  26.184   9.747   2.732
62909W        W31283  36.086  25.994  14.016
62910W        W31284  17.560  40.353   2.338
62911W        W31285  19.283  20.767   2.726
62912W        W31286  27.133  14.312   0.339
62913W        W31287  10.318  43.879  12.455
62914W        W31288  14.246  36.423  13.406
62915W        W31289   6.244   5.355  14.812
62916W        W31290  43.000  36.856  13.924
62917W        W31291  39.325  20.614  12.013
62918W        W31292  25.974  36.013   1.387
62919W        W31293  12.210  19.054   3.789
62920W        W31294  18.107  23.680   4.239
62921W        W31295   8.811  36.460  14.989
62922W        W31296   3.723  23.527  12.488
62923W        W31297   5.326  34.608  10.457
62924W        W31298  27.613  13.726  13.318
62925W        W31299  30.052  36.586   0.953
62926W        W31300  14.715  36.010  13.486
62927W        W31301  43.900   7.692  11.493
62928W        W31302  19.780  18.196   3.836
62929W        W31303  30.473  17.115   5.255
62930W        W31304   5.265  11.663  11.982
62931W        W31305  39.008   6.388   3.772
62932W        W31306  43.774  40.454  13.428
62933W        W31307  36.965  27.575   3.169
62934W        W31308  24.684  17.062   5.713
62935W        W31309  44.970  35.972   5.110
62936W        W31310   4.758  19.760   3.362
62937W        W31311  27.509  15.198   4.641
62938W        W31312  13.693  22.047   4.682
62939W        W31313  24.660  23.661   2.364
62940W        W31314  42.025   3.345   4.179
62941W        W31315  27.560  23.234   4.255
62942W        W31316  10.380  36.377   1.337
62943W        W31317  17.691  15.091   4.740
62944W        W31318  40.038   4.755  13.509
62945W        W31319  34.059  13.281  12.445
62946W        W31320  37.836  11.715  13.980
62947W        W31321  26.110  11.653  12.040
62948W        W31322  15.802   2.299   2.395
62949W        W31323  22.999  34.022  14.004
62950W        W31324  23.005   6.261   4.681
62951W        W31325   1.456  28.485  12.057
62952W        W31326  37.847   7.347   1.396
62953W        W31327  14.662  37.951  13.941
62954W        W31328  31.493  10.285   9.990
62955W        W31329  19.119   5.924   2.794
62956W        W31330  18.123  25.578  13.505
62957W        W31331   5.760  30.581  11.915
62958W        W31332  21.720  12.199  11.970
62959W        W31333  28.985  36.429   4.325
62960W        W31334  14.613  16.796  11.876
62961W        W31335  26.667  37.471  12.340
62962W        W31336  12.722  40.990  11.864
62963W        W31337  37.976  15.595  11.113
62964W        W31338   8.656   3.774   0.903
62965W        W31339  31.561  19.113  12.087
62966W        W31340  12.121   8.372  11.375
62967W        W31341  15.819  12.638  13.527
62968W        W31342  15.213  15.167   3.194
62969W        W31343  13.253  27.629   0.385
62970W        W31344  40.938  26.025   3.295
62971W        W31345  19.767   2.361  12.476
62972W        W31346  33.532  40.912  13.819
62973W        W31347  32.903  33.895  13.372
62974W        W31348  19.180  24.649  11.524
62975W        W31349  30.587  34.402   0.354
62976W        W31350  43.996  16.134   3.146
62977W        W31351  16.211   9.870   1.214
62978W        W31352  43.488  42.359  11.484
62979W        W31353  20.620  27.097   0.276
62980W        W31354  41.298  33.993  12.865
62981W        W31355  28.143   6.365  12.042
62982W        W31356  31.081   9.795   3.639
62983W        W31357  35.518  32.939   2.343
62984W        W31358   7.734  42.299   4.169
62985W        W31359  12.139   8.736   3.696
62986W        W31360  18.665  10.186   2.204
62987W        W31361  14.773  34.092   1.365
62988W        W31362  29.480   2.923  14.936
62989W        W31363   6.223  43.931   3.632
62990W        W31364   9.657  18.193   3.188
62991W        W31365  38.426  35.361  14.507
62992W        W31366  23.175  38.830  14.464
62993W        W31367   8.745   8.181   4.683
62994W        W31368  13.316  28.591   0.907
62995W        W31369  28.502   4.773  12.576
62996W        W31370  28.006  14.123   4.342
62997W        W31371  19.717  31.990  13.886
62998W        W31372  10.193   5.860  13.308
62999W        W31373  41.935  29.576   3.729
63000W        W31374  19.617  44.879   1.730
63001W        W31375  15.325  39.900  10.961
63002W        W31376   2.407  36.462   1.879
63003W        W31377  40.855  34.486   3.818
63004W        W31378  44.395  32.023  12.066
63005W        W31379  14.660  43.442   4.688
63006W        W31380  18.105  18.054   3.185
63007W        W31381  30.003  36.443  12.385
63008W        W31382  39.948   2.869  11.439
63009W        W31383   9.739   5.922  12.971
63010W        W31384  29.032   7.845   1.856
63011W        W31385  42.489  40.903  11.114
63012W        W31386   4.857   5.260   1.368
63013W        W31387  32.476  11.680   1.333
63014W        W31388  34.496  24.202  14.824
63015W        W31389   8.342  18.205   5.247
63016W        W31390  16.598  16.676   1.745
63017W        W31391  12.772  37.358  13.053
63018W        W31392   4.276  38.846   4.330
63019W        W31393  19.202  42.939  10.501
63020W        W31394   1.466  25.168  10.633
63021W        W31395  27.508  16.726   1.774
63022W        W31396  16.079   5.858   1.792
63023W        W31397   3.356  27.522  13.900
63024W        W31398  37.341  14.592  12.459
63025W        W31399  25.080   4.273   1.920
63026W        W31400  35.414  42.812  10.439
63027W        W31401  21.720  38.561   3.287
63028W        W31402  18.628  18.070   1.281
63029W        W31403  15.710  43.009   1.849
63030W        W31404  37.017  19.652   4.792
63031W        W31405  29.588  14.745   1.787
63032W        W31406  19.694  29.093   1.723
63033W        W31407  22.006  23.490  11.067
63034W        W31408  29.516  28.066   5.171
63035W        W31409   2.929  10.825   0.259
63036W        W31410  11.366  31.942   1.748
63037W        W31411  23.199  40.355   1.707
63038W        W31412   7.673  41.418   5.178
63039W        W31413  32.446   4.817  11.118
63040W        W31414  21.546  40.407   2.221
63041W        W31415   9.741   7.869  11.443
63042W        W31416  34.078   4.373   4.816
63043W        W31417   4.738  20.567   1.934
63044W        W31418  31.527  26.565   1.247
63045W        W31419  25.524  33.913   0.824
63046W        W31420  41.949   6.684   3.158
63047W        W31421  32.943  43.420  13.449
63048W        W31422  18.636  38.432  11.612
63049W        W31423  17.136  10.794   4.669
63050W        W31424  18.228   5.828  12.476
63051W        W31425  19.606  44.402   4.677
63052W        W31426  34.058  44.783   4.724
63053W        W31427  38.393  26.609   3.862
63054W        W31428   3.714  21.251   2.180
63055W        W31429  31.582  36.374   1.222
63056W        W31430  27.566  22.025  14.027
63057W        W31431  18.582  19.688   1.227
63058W        W31432  29.532  37.542  12.479
63059W        W31433  42.834  16.573   2.849
63060W        W31434   5.251   1.905   4.676
63061W        W31435   8.832  21.578   1.848
63062W        W31436  27.492  38.830   4.715
63063W        W31437  30.962   3.842  13.466
63064W        W31438  29.084  39.495   2.296
63065W        W31439  19.185  26.460   3.852
63066W        W31440  16.118  35.874   3.326
63067W        W31441  21.107   2.470   1.718
63068W        W31442  24.010  23.719   1.853
63069W        W31443  40.035  31.937   3.335
63070W        W31444  36.391  12.193   2.271
63071W        W31445  20.081   2.814  14.780
63072W        W31446  11.845  39.846   1.259
63073W        W31447  36.088   0.953  13.972
63074W        W31448   5.821  44.339   3.731
63075W        W31449  11.676  13.118   0.397
63076W        W31450  14.331   7.736  14.468
63077W        W31451   0.920  31.607  11.099
63078W        W31452  17.262  18.288   0.831
63079W        W31453   5.414   2.810   4.743
63080W        W31454  37.512   5.837  10.622
63081W        W31455   4.450  41.515   2.828
63082W        W31456  41.829  33.927   4.231
63083W        W31457  28.980  29.157  13.379
63084W        W31458   7.694  43.433  11.435
63085W        W31459  38.070   3.737   0.894
63086W        W31460  26.623  16.179   4.770
63087W        W31461  42.282   2.870   0.315
63088W        W31462  44.407  20.608   1.369
63089W        W31463   0.449  25.181  14.869
63090W        W31464   2.914  16.220  14.363
63091W        W31465  43.371  26.541   3.768
63092W        W31466   3.873  28.574   1.929
63093W        W31467  40.416  11.235  12.406
63094W        W31468  13.641  34.560  13.871
63095W        W31469  21.123   2.850   2.666
63096W        W31470  42.869  38.936  10.129
63097W        W31471   1.238  28.141   3.237
63098W        W31472   3.313  25.473   2.809
63099W        W31473   0.829  11.196  13.353
63100W        W31474  21.633   4.906  14.405
63101W        W31475  42.996  13.658   0.362
63102W        W31476  43.873   0.933   4.806
63103W        W31477  40.866   7.332  11.113
63104W        W31478  43.356  34.372   1.323
63105W        W31479  29.659   3.279  13.395
63106W        W31480  43.343   2.872   0.780
63107W        W31481  15.213  11.246   5.240
63108W        W31482  27.100   4.406   0.827
63109W        W31483  26.513  30.100  10.490
63110W        W31484  32.615  41.987  14.771
63111W        W31485  10.820  11.209  10.639
63112W        W31486  28.575  33.938  10.935
63113W        W31487  39.999  10.821  14.383
63114W        W31488  41.969   2.389   3.255
63115W        W31489  42.818  23.619  12.487
63116W        W31490  41.965  31.580   3.216
63117W        W31491   5.900  27.519   2.850
63118W        W31492  31.034  38.352   1.934
63119W        W31493  44.364  39.452   2.715
63120W        W31494  27.164   4.873  13.450
63121W        W31495  24.066  38.851   1.387
63122W        W31496   6.798  35.392  10.533
63123W        W31497  22.202  43.447   2.854
63124W        W31498  43.308  35.965   1.331
63125W        W31499  31.582  22.017  13.509
63126W        W31500  35.413  30.114   4.355
63127W        W31501  12.131   9.299  13.853
63128W        W31502  23.074  38.855   2.814
63129W        W31503  22.720  13.800   3.768
63130W        W31504   6.814  27.490   3.273
63131W        W31505   1.247  12.717   1.223
63132W        W31506   5.798  21.697   0.430
63133W        W31507  27.675   9.178  11.529
63134W        W31508  41.794  44.289   1.236
63135W        W31509  39.504  38.959   3.709
63136W        W31510  10.681  35.431   2.224
63137W        W31511   9.389  44.920  10.622
63138W        W31512  12.761  32.427  11.869
63139W        W31513  31.538  10.805  12.869
63140W        W31514  28.135   3.757   4.637
63141W        W31515  35.949  19.116   4.255
63142W        W31516  41.508  12.718  12.873
63143W        W31517  32.094   7.866   0.286
63144W        W31518  19.743   8.233   0.427
63145W        W31519   5.245  23.052  14.017
63146W        W31520  10.342  40.504   0.734
63147W        W31521  11.199  28.084   0.296
63148W        W31522  32.460  39.877  10.559
63149W        W31523   2.429  34.983  10.628
63150W        W31524  19.542  31.449   0.295
63151W        W31525  33.970   4.750  13.047
63152W        W31526  15.617  28.630   2.791
63153W        W31527   8.737  14.252   1.848
63154W        W31528   5.890  35.852  13.867
63155W        W31529   5.763  33.530  11.385
63156W        W31530  33.880  19.566  13.960
63157W        W31531  19.125  17.779  11.521
63158W        W31532  20.677   3.937   4.826
63159W        W31533  36.973  16.194   0.932
63160W        W31534   1.416  41.846  12.538
63161W        W31535  16.596   0.790   4.251
63162W        W31536  30.612  13.744   4.647
63163W        W31537  44.453  42.451   1.445
63164W        W31538   3.392  10.226  12.419
63165W        W31539   5.784  42.321  14.776
63166W        W31540  29.095  14.108  10.929
63167W        W31541  34.931  32.055   9.921
63168W        W31542  10.810   0.428  11.901
63169W        W31543  36.968  36.419  13.949
63170W        W31544  24.645  32.610   3.152
63171W        W31545  22.526  43.447  11.110
63172W        W31546  38.402   3.929  10.952
63173W        W31547  27.143   7.820   0.416
63174W        W31548   5.231  42.813  14.278
63175W        W31549  39.365  14.711  14.789
63176W        W31550  42.984  12.236   0.387
63177W        W31551  11.715  32.585   1.275
63178W        W31552  27.017  43.918   9.992
63179W        W31553  11.280  23.725   2.306
63180W        W31554   0.318   5.271  12.949
63181W        W31555  34.941  19.594   4.264
63182W        W31556  36.420  24.701  14.980
63183W        W31557  13.253   3.335   0.264
63184W        W31558  30.529  32.545  12.014
63185W        W31559  39.034  39.427   4.718
63186W        W31560  19.137   8.160   3.706
63187W        W31561  44.349  35.878   4.771
63188W        W31562  18.191   6.868   4.767
63189W        W31563   1.810  23.056  12.032
63190W        W31564  20.687  33.917   0.753
63191W        W31565  25.536   6.851  11.481
63192W        W31566  24.001  27.578   3.313
63193W        W31567   3.357   6.899  10.416
63194W        W31568  33.087  44.277  13.470
63195W        W31569  11.809  22.741  12.488
63196W        W31570  25.054  35.039  11.924
63197W        W31571  19.543   5.347   3.723
63198W        W31572  31.134   8.171   0.959
63199W        W31573  14.627  32.069  12.049
63200W        W31574  25.074  24.020   3.295
63201W        W31575  34.402  40.373   4.700
63202W        W31576  30.488  27.989   4.191
63203W        W31577  17.782  32.514  12.959
63204W        W31578  27.682  38.463   2.891
63205W        W31579  32.511  25.577   2.342
63206W        W31580   3.342  42.474   3.779
63207W        W31581  41.496  30.102  11.010
63208W        W31582   5.824  44.830  13.009
63209W        W31583   0.831  23.222   2.716
63210W        W31584  32.069  22.708  14.918
63211W        W31585  14.240   0.869  13.876
63212W        W31586   4.211  24.018  10.562
63213W        W31587   6.899  30.145  10.461
63214W        W31588  12.334  15.125   4.245
63215W        W31589  21.703  17.299  11.927
63216W        W31590  21.563   4.875  14.782
63217W        W31591  10.792   5.688  10.588
63218W        W31592  21.661   3.460  10.557
63219W        W31593  36.027   8.854  11.031
63220W        W31594   2.746  30.466  13.014
63221W        W31595  16.649  24.008  12.411
63222W        W31596  43.434  19.609   1.917
63223W        W31597   6.349   7.840   3.776
63224W        W31598  16.171   0.384  10.408
63225W        W31599   4.789  14.819  14.399
63226W        W31600  25.127  39.467   4.263
63227W        W31601  30.567  41.833   1.232
63228W        W31602  34.995  44.454  12.432
63229W        W31603  12.135  30.597  11.576
63230W        W31604  29.120  21.616   4.722
63231W        W31605  29.146  15.631  10.516
63232W        W31606   2.784  42.293  11.541
63233W        W31607  10.660  20.602  11.600
63234W        W31608  23.062  37.505   4.772
63235W        W31609   8.840  26.529   4.627
63236W        W31610   0.975  15.193  13.998
63237W        W31611  42.839  22.557  10.525
63238W        W31612  28.598  42.344  12.950
63239W        W31613  26.614  43.983  12.477
63240W        W31614  13.614   1.416   0.390
63241W        W31615  24.497  23.570  12.057
63242W        W31616  26.638   1.804   5.273
63243W        W31617  40.423  34.925  13.801
63244W        W31618  25.472  40.035   2.792
63245W        W31619  29.605  29.580   3.151
63246W        W31620  39.970  18.259   1.265
63247W        W31621   7.824  12.661   0.774
63248W        W31622   9.158  12.673  10.024
63249W        W31623  15.645  35.585   0.831
63250W        W31624   1.415  44.777  14.778
63251W        W31625  42.509   4.833   3.777
63252W        W31626   8.327  10.315  12.916
63253W        W31627  18.249  36.487   3.835
63254W        W31628   8.669   7.811  14.786
63255W        W31629  18.272  22.139   1.213
63256W        W31630   5.279  29.157  12.044
63257W        W31631  23.549   5.877  10.518
63258W        W31632  27.126  12.261  12.905
63259W        W31633   1.290  31.137  12.408
63260W        W31634  27.572  18.151   4.698
63261W        W31635  18.226  36.923  14.426
63262W        W31636   8.277  37.966  11.887
63263W        W31637  13.120   4.712   4.725
63264W        W31638  22.581  33.382   2.211
63265W        W31639  43.828   0.958  12.906
63266W        W31640  33.009  37.893  12.473
63267W        W31641  12.610  22.034  12.364
63268W        W31642   7.832  18.736  13.853
63269W        W31643  42.815  33.129  11.076
63270W        W31644   3.348  13.602   3.205
63271W        W31645  22.703  26.541  11.610
63272W        W31646  26.642  34.509  13.000
63273W        W31647  22.171  21.177   0.868
63274W        W31648   9.836  29.453  11.933
63275W        W31649   9.339  40.468   4.771
63276W        W31650   8.346  40.501  11.482
63277W        W31651  15.114  10.177   1.727
63278W        W31652   6.842  12.303  12.542
63279W        W31653   9.643  18.145   5.187
63280W        W31654  31.414  25.512   4.619
63281W        W31655  37.857  43.472  10.930
63282W        W31656  31.567  41.371  12.558
63283W        W31657  15.717   2.381  13.996
63284W        W31658  13.166   3.952  10.980
63285W        W31659  11.764   8.892   1.879
63286W        W31660  11.743  25.680  12.960
63287W        W31661  37.564   4.430   1.414
63288W        W31662   7.805  40.810  12.096
63289W        W31663  21.139  42.471  11.856
63290W        W31664  12.666   6.912   3.844
63291W        W31665  38.529  32.396   1.858
63292W        W31666  29.010  22.054  12.556
63293W        W31667  12.133  12.854  10.990
63294W        W31668  12.240   5.853   2.412
63295W        W31669  25.668  37.358  12.085
63296W        W31670  40.494  37.895   4.740
63297W        W31671   8.838   4.829   4.124
63298W        W31672  42.463  30.084  13.529
63299W        W31673  13.654   6.323  10.601
63300W        W31674  11.656  30.959   1.930
63301W        W31675  15.618  18.581   0.837
63302W        W31676  41.312   1.818  12.383
63303W        W31677  33.119  32.121   4.628
63304W        W31678  19.778  29.979   2.247
63305W        W31679   1.270  29.438   2.232
63306W        W31680  28.647  11.310  12.485
63307W        W31681  27.150   2.457   0.252
63308W        W31682  37.037   7.711  11.053
63309W        W31683   4.850  28.959  12.351
63310W        W31684   6.859  29.953  13.360
63311W        W31685  37.375   1.436  14.819
63312W        W31686  13.106  29.142   1.897
63313W        W31687  33.438  44.467   0.369
63314W        W31688  28.547   1.379  12.366
63315W        W31689   6.355  19.213  13.470
63316W        W31690  39.542  35.536  13.017
63317W        W31691  35.941  38.512   3.377
63318W        W31692  38.836  23.702  12.578
63319W        W31693  25.520  16.576  12.063
63320W        W31694  35.040   3.445   2.371
63321W        W31695  35.482  38.536   4.641
63322W        W31696  22.617  20.701  11.530
63323W        W31697  19.203  43.348   1.895
63324W        W31698   6.250   4.840   5.575
63325W        W31699   2.830  26.009   2.411
63326W        W31700   2.337  28.582  13.948
63327W        W31701  17.252  15.133  12.070
63328W        W31702  14.758   6.396  12.508
63329W        W31703  44.758  28.018  14.995
63330W        W31704  35.887  12.670   3.665
63331W        W31705  26.065   8.311   1.272
63332W        W31706  28.660   8.191   2.378
63333W        W31707  10.165  12.762   2.664
63334W        W31708  24.688   4.852   2.847
63335W        W31709  10.837   0.925   3.260
63336W        W31710  37.081  22.147  10.941
63337W        W31711  14.720  11.173   2.737
63338W        W31712   0.874  13.603   0.296
63339W        W31713  38.984  29.087  14.482
63340W        W31714  11.806  42.820  11.587
63341W        W31715  16.147   8.760   0.242
63342W        W31716  35.107  42.338   1.421
63343W        W31717  25.603  23.153   3.693
63344W        W31718  20.749   9.821   4.640
63345W        W31719   9.757  28.180   2.251
63346W        W31720   2.881  25.023  10.510
63347W        W31721  27.476   5.881   1.367
63348W        W31722   1.458   9.371   4.318
63349W        W31723   1.884   0.764  14.352
63350W        W31724  37.511  27.488   1.227
63351W        W31725  35.870  43.401   1.878
63352W        W31726   5.875   5.711  11.464
63353W        W31727  29.012  13.277   2.306
63354W        W31728  18.768  42.298  11.900
63355W        W31729  31.039  42.864   3.711
63356W        W31730  34.118   1.468   0.380
63357W        W31731  39.850  26.153  11.583
63358W        W31732  19.605  39.977   1.793
63359W        W31733  32.103  20.247   4.248
63360W        W31734  30.926  10.655  13.533
63361W        W31735  42.789   2.258   5.212
63362W        W31736  25.188  20.548   0.466
63363W        W31737  44.496  36.063   9.927
63364W        W31738  42.907   3.725  11.581
63365W        W31739  29.169  39.972  12.473
63366W        W31740  25.135  15.226   0.949
63367W        W31741  16.800  31.549  10.583
63368W        W31742  25.038  41.476   4.715
63369W        W31743  21.135  19.625  12.526
63370W        W31744  39.428  33.088   2.274
63371W        W31745  24.173  33.521   1.343
63372W        W31746   8.330  37.955  11.483
63373W        W31747  15.716  21.133   3.165
63374W        W31748  24.484  32.036   5.322
63375W        W31749  21.017  28.677   2.732
63376W        W31750  22.598  18.078   1.252
63377W        W31751  22.609  25.089   1.839
63378W        W31752  11.271  24.583   2.314
63379W        W31753  40.442  34.991  14.388
63380W        W31754  44.465   1.304   2.708
63381W        W31755   2.306  37.370  14.950
63382W        W31756   3.754  25.475   1.900
63383W        W31757  39.346  12.712  10.476
63384W        W31758  27.025   2.931  10.997
63385W        W31759  40.915  43.912   4.224
63386W        W31760  12.240  16.762   1.848
63387W        W31761  13.766  16.758   2.881
63388W        W31762  36.072   9.310  10.064
63389W        W31763  38.027   0.277   0.853
63390W        W31764  44.284   7.328  10.132
63391W        W31765   2.862  35.536  11.998
63392W        W31766  22.145   2.910  12.887
63393W        W31767  42.929   4.811  10.499
63394W        W31768  13.209   2.820   1.773
63395W        W31769  21.205  34.918  11.892
63396W        W31770  39.848  27.634   2.749
63397W        W31771  13.178   1.750   4.277
63398W        W31772  44.804  24.561   3.231
63399W        W31773   5.829  23.702   9.622
63400W        W31774  30.069  26.664  10.923
63401W        W31775  22.583  33.935  11.984
63402W        W31776  33.128  37.994   2.873
63403W        W31777  29.143  34.370   3.314
63404W        W31778  40.938  22.714   0.483
63405W        W31779  40.333   4.902   0.874
63406W        W31780  25.479  41.898   0.444
63407W        W31781   4.271  44.006   1.733
63408W        W31782  11.163  26.471   0.244
63409W        W31783   9.222  28.152  12.482
63410W        W31784  11.337   1.799  12.432
63411W        W31785   2.225  27.684  10.464
63412W        W31786   3.433  44.272   1.763
63413W        W31787   8.169  41.846   1.414
63414W        W31788  35.065  22.655   5.096
63415W        W31789  37.877  17.749   1.856
63416W        W31790  42.393  42.798  11.484
63417W        W31791  42.001  41.015  12.486
63418W        W31792  17.292  43.477  14.405
63419W        W31793   0.936   2.279  14.761
63420W        W31794  29.658  38.006   3.654
63421W        W31795  37.470  22.682   4.211
63422W        W31796  22.618  41.524   0.432
63423W        W31797  31.548  25.608   1.308
63424W        W31798   9.215  36.986   2.814
63425W        W31799  20.758  20.168  12.023
63426W        W31800  22.601   9.688  14.376
63427W        W31801   7.213   6.913   0.743
63428W        W31802   4.411  39.553  11.522
63429W        W31803   7.187  22.239   3.316
63430W        W31804  10.329  24.206   3.295
63431W        W31805  19.251  44.403  10.550
63432W        W31806  27.620  38.049  12.965
63433W        W31807  15.736  29.101  13.466
63434W        W31808  20.048   3.730  13.063
63435W        W31809  13.341   9.805  13.825
63436W        W31810   9.263  16.255  11.424
63437W        W31811  17.092  43.007  13.548
63438W        W31812  21.204  10.226  12.001
63439W        W31813   6.270  41.346   2.694
63440W        W31814  42.910   7.260  11.397
63441W        W31815  28.996  37.886   1.413
63442W        W31816  38.030   0.887   1.281
63443W        W31817  14.762  39.912   1.776
63444W        W31818   7.780   8.843  11.969
63445W        W31819  16.148  10.329  14.447
63446W        W31820  39.384   6.724  12.531
63447W        W31821   5.299  42.788   9.921
63448W        W31822   5.706  41.013  10.642
63449W        W31823  15.147  26.128   3.269
63450W        W31824  37.074  35.882  13.507
63451W        W31825  38.439  25.592   1.778
63452W        W31826  24.111   3.356  10.606
63453W        W31827  35.941  44.405   2.236
63454W        W31828  44.804  10.270   2.338
63455W        W31829  10.771   8.191   4.345
63456W        W31830   8.885  22.679  12.355
63457W        W31831  29.067  12.347   0.343
63458W        W31832  43.427  31.111  13.360
63459W        W31833  26.462  15.678   3.720
63460W        W31834  44.464   9.651  11.508
63461W        W31835   8.294  35.060  10.556
63462W        W31836  12.350   3.891  11.484
63463W        W31837  41.412  44.792  12.429
63464W        W31838  36.400   4.783   2.841
63465W        W31839  33.428   3.821  11.923
63466W        W31840  21.728  44.958   4.720
63467W        W31841  26.512  16.110   3.231
63468W        W31842  35.041  26.661   3.662
63469W        W31843   4.877  19.590  12.002
63470W        W31844  25.581   2.248  11.044
63471W        W31845  29.478  39.040  13.963
63472W        W31846  31.117  22.731   1.751
63473W        W31847  14.288  44.828   0.748
63474W        W31848   1.262  27.960   2.664
63475W        W31849  10.816  10.204  11.036
63476W        W31850   8.749  33.896  14.498
63477W        W31851  20.134  44.847  12.013
63478W        W31852  32.954   7.806   2.680
63479W        W31853   4.905  22.672  13.520
63480W        W31854   7.375  33.908   4.791
63481W        W31855  42.479  13.144   3.296
63482W        W31856  14.296  42.921  10.097
63483W        W31857  39.836   3.311   0.370
63484W        W31858  30.657  29.950  14.967
63485W        W31859  11.359   9.846   0.745
63486W        W31860  36.497  25.686  14.792
63487W        W31861   1.859  37.532  13.986
63488W        W31862  10.765   0.762   2.847
63489W        W31863  19.276  21.677  10.631
63490W        W31864  38.554  39.391   3.316
63491W        W31865  16.154  31.919   5.143
63492W        W31866  28.090  15.256  11.400
63493W        W31867  23.532  24.975   3.299
63494W        W31868   0.795   8.857  11.388
63495W        W31869  13.234   1.748   1.217
63496W        W31870   7.277   2.471   4.814
63497W        W31871   8.377  13.220   2.797
63498W        W31872  19.611  15.584  14.015
63499W        W31873  41.795  35.053  10.420
63500W        W31874  29.665  20.649  14.880
63501W        W31875   1.856  25.705   0.377
63502W        W31876  36.478  43.416   3.812
63503W        W31877  32.008  34.486   3.181
63504W        W31878  29.109  21.133   0.337
63505W        W31879  26.997  38.945   0.944
63506W        W31880  28.502  42.451   1.736
63507W        W31881  28.058  10.670  10.972
63508W        W31882  35.035  17.166  11.963
63509W        W31883  32.603  34.934  14.803
63510W        W31884  17.560   8.696   4.309
63511W        W31885  24.038  12.636   4.707
63512W        W31886  14.640  33.042   0.411
63513W        W31887  15.806  41.407   9.935
63514W        W31888   3.867  29.470   3.309
63515W        W31889  41.891   4.870   4.683
63516W        W31890   3.909  12.762   2.827
63517W        W31891  44.989   4.763  14.427
63518W        W31892  22.205   6.384  14.960
63519W        W31893  24.207  40.002  11.608
63520W        W31894  35.951  21.595  13.865
63521W        W31895  23.548  22.640   3.851
63522W        W31896  20.607  33.604  13.995
63523W        W31897  35.365  16.169   2.769
63524W        W31898   4.244  21.261   0.313
63525W        W31899  28.965  26.567  12.432
63526W        W31900  23.201   2.328  13.412
63527W        W31901  11.370  44.483   0.263
63528W        W31902  32.035  38.072   1.901
63529W        W31903  12.135  11.648   0.376
63530W        W31904  40.054  16.141  12.952
63531W        W31905   5.710   7.205  13.314
63532W        W31906  10.175  38.066   1.262
63533W        W31907   1.255  28.674  13.320
63534W        W31908  16.722   7.756  12.014
63535W        W31909  40.903  10.286   3.726
63536W        W31910  15.207  11.740  13.453
63537W        W31911   6.850  38.030   1.859
63538W        W31912  27.497  11.692  11.022
63539W        W31913  21.727  14.195   4.284
63540W        W31914  25.164  35.058   4.276
63541W        W31915  33.915  17.112   2.814
63542W        W31916  27.069  31.620  14.878
63543W        W31917   2.326  33.118   3.788
63544W        W31918  28.672  23.115   4.812
63545W        W31919  31.576   1.364  12.054
63546W        W31920   8.680  23.511  10.498
63547W        W31921  12.121  18.674   4.240
63548W        W31922   3.416  38.077   5.223
63549W        W31923   8.247   0.464   3.261
63550W        W31924  30.089  15.620  10.996
63551W        W31925   5.208   2.865   3.292
63552W        W31926   7.891  18.646  14.329
63553W        W31927   6.420  25.210   3.207
63554W        W31928  10.155  23.504   3.227
63555W        W31929  10.760   5.889   0.872
63556W        W31930  35.983  24.131  12.428
63557W        W31931   7.730  25.098   4.197
63558W        W31932  10.151  20.589   3.348
63559W        W31933  24.169  28.053   9.994
63560W        W31934  12.205  30.108  14.911
63561W        W31935  41.315  23.010  13.388
63562W        W31936  21.604  43.384  13.802
63563W        W31937   4.405  30.984  14.887
63564W        W31938   9.231  11.629  12.447
63565W        W31939  42.901  26.608  14.365
63566W        W31940  26.986   0.423   4.343
63567W        W31941  29.080  28.598   2.849
63568W        W31942   4.873  44.330   3.151
63569W        W31943  40.909  41.428  12.052
63570W        W31944   7.308  16.604   4.324
63571W        W31945   5.351  31.417  14.976
63572W        W31946  42.291  15.214   4.684
63573W        W31947  15.329  34.607   0.837
63574W        W31948  39.345  38.543   1.734
63575W        W31949  24.165  43.016   3.752
63576W        W31950  16.712   3.230  10.534
63577W        W31951  21.130   5.838   4.321
63578W        W31952  42.986  38.546  14.400
63579W        W31953   8.812  32.395  13.939
63580W        W31954  28.584  16.780  14.354
63581W        W31955  22.583  28.552  12.570
63582W        W31956  34.513  14.300   1.230
63583W        W31957  10.842  22.554   3.761
63584W        W31958  13.135  15.754  11.090
63585W        W31959   3.936  29.525  11.858
63586W        W31960   2.875  11.335   2.826
63587W        W31961   9.218  33.879  14.417
63588W        W31962  28.108   1.837  10.919
63589W        W31963  40.391  32.547   0.870
63590W        W31964   9.881   8.891  11.415
63591W        W31965  42.936   1.779   3.727
63592W        W31966  39.488  29.498   1.699
63593W        W31967  18.570  32.087   2.778
63594W        W31968  44.309  30.113   2.414
63595W        W31969  12.616  33.420   1.267
63596W        W31970  38.390  25.617   2.823
63597W        W31971   2.234  26.639  10.063
63598W        W31972  31.595  27.659  14.870
63599W        W31973  34.080  38.076  14.018
63600W        W31974   2.408  12.202  10.534
63601W        W31975  17.108  26.578  14.374
63602W        W31976   6.305  38.488   0.769
63603W        W31977  22.015   4.882  13.875
63604W        W31978  17.699  12.647   3.191
63605W        W31979  11.766   1.365   0.300
63606W        W31980  39.485   1.281   4.188
63607W        W31981  27.471  10.639   4.338
63608W        W31982  40.830  38.501  10.465
63609W        W31983   9.850   0.836   1.931
63610W        W31984  11.692  38.440  13.851
63611W        W31985   2.912  28.675   3.336
63612W        W31986  14.607  18.730   4.771
63613W        W31987  32.962  33.005  13.809
63614W        W31988   5.924  16.589  10.917
63615W        W31989  14.677  27.629   1.867
63616W        W31990  14.802  39.390   2.418
63617W        W31991  26.150   6.862   1.911
63618W        W31992   4.722  31.012  10.576
63619W        W31993  38.839   4.725   2.323
63620W        W31994  43.012  11.810   1.263
63621W        W31995   9.306  31.491   3.284
63622W        W31996  25.468  10.691   3.248
63623W        W31997  29.108  29.016   0.939
63624W        W31998  33.936   3.733   1.403
63625W        W31999   6.205  28.565  12.971
63626W        W32000   2.373  21.093  11.483
63627W        W32001  43.274  15.164   3.210
63628W        W32002   9.294  33.560   1.280
63629W        W32003   0.766  28.609  11.519
63630W        W32004  38.550  25.122   4.724
63631W        W32005   8.885   8.765   2.684
63632W        W32006  23.211  20.644   3.763
63633W        W32007  34.054  24.609   1.902
63634W        W32008  15.810  22.590   1.926
63635W        W32009  42.878  31.898  14.406
63636W        W32010  34.429  38.883  14.361
63637W        W32011  11.268  21.616   1.745
63638W        W32012  31.986  42.933   4.718
63639W        W32013   0.780  20.715   1.837
63640W        W32014   3.441  30.604  11.054
63641W        W32015  41.000  29.165  11.946
63642W        W32016  29.015  19.173  13.991
63643W        W32017   2.433  12.837   0.753
63644W        W32018  29.151  24.012  13.876
63645W        W32019  43.440  25.165  10.988
63646W        W32020  20.029  37.424   5.141
63647W        W32021   8.720  23.987  10.419
63648W        W32022  37.939  35.953   4.772
63649W        W32023   4.294   8.291  14.885
63650W        W32024  14.761  35.012   3.653
63651W        W32025  30.972  41.815   0.387
63652W        W32026  41.850  19.126   2.339
63653W        W32027   9.744   7.854   1.286
63654W        W32028   2.245  36.017   3.214
63655W        W32029  12.223  35.925  13.479
63656W        W32030   7.274  10.162   3.148
63657W        W32031  25.641  27.599  11.595
63658W        W32032  36.507  21.071   3.809
63659W        W32033   4.303  14.600  13.960
63660W        W32034  14.214  42.031   1.428
63661W        W32035  30.645  12.685   1.914
63662W        W32036  13.758  14.109  14.792
63663W        W32037  25.004  13.829   4.698
63664W        W32038   5.693  35.923  14.409
63665W        W32039  18.740   1.468   3.654
63666W        W32040   5.277  20.754   2.849
63667W        W32041  40.338  22.690  10.486
63668W        W32042  34.540  12.271   1.362
63669W        W32043  21.648  40.938  11.522
63670W        W32044  37.884  12.178  12.369
63671W        W32045  11.272  28.447   1.793
63672W        W32046  26.044  32.410   2.716
63673W        W32047  41.366  31.635  12.965
63674W        W32048  37.043  24.695  11.407
63675W        W32049  41.932  22.702  10.076
63676W        W32050  28.181   9.275  10.027
63677W        W32051   6.415   5.347   2.707
63678W        W32052  42.991   4.831   2.664
63679W        W32053  42.474  24.219   4.723
63680W        W32054  32.046   5.739   4.340
63681W        W32055  25.523   3.287   3.838
63682W        W32056  42.800  23.528   4.752
63683W        W32057  21.710   0.355   4.261
63684W        W32058  40.429  43.289   4.705
63685W        W32059   4.416  17.657  14.929
63686W        W32060  14.763  26.081   4.645
63687W        W32061  13.145  42.362   4.316
63688W        W32062  32.457  17.789  12.046
63689W        W32063   8.179  18.710  10.908
63690W        W32064  20.757   8.758   0.442
63691W        W32065  19.682   4.899  13.919
63692W        W32066  27.586  23.016  11.909
63693W        W32067  18.226  40.046   4.674
63694W        W32068   1.468   1.471  10.483
63695W        W32069   6.411   7.226  10.031
63696W        W32070  30.945  20.259  13.823
63697W        W32071  26.184  37.966  12.561
63698W        W32072  38.993  13.286   2.236
63699W        W32073  18.560  22.092   4.247
63700W        W32074   7.846  41.410   3.753
63701W        W32075  24.501   1.835   3.168
63702W        W32076  21.161  40.823  11.414
63703W        W32077   8.782  28.171  12.442
63704W        W32078   1.735  32.529   1.766
63705W        W32079   9.857  19.060   3.797
63706W        W32080  32.124   3.433  12.074
63707W        W32081  33.468  42.827  11.415
63708W        W32082  22.197  29.043   0.749
63709W        W32083  29.635  44.769   0.876
63710W        W32084  38.436   0.386  12.533
63711W        W32085  35.006  10.335  11.049
63712W        W32086  18.769   0.260   3.359
63713W        W32087  40.455  16.761   1.295
63714W        W32088  14.293  20.060  13.343
63715W        W32089  42.331   2.241  12.523
63716W        W32090  20.653  36.074   2.404
63717W        W32091  38.847  22.542   5.201
63718W        W32092  40.948  11.805  14.808
63719W        W32093  20.164   3.784   2.416
63720W        W32094  39.031  33.970   4.699
63721W        W32095  41.525  22.553  14.404
63722W        W32096   1.385  41.893   3.218
63723W        W32097  35.439  29.610   4.281
63724W        W32098  42.800  39.849  11.113
63725W        W32099  31.418   5.688  14.282
63726W        W32100  32.063  28.653  11.901
63727W        W32101  31.937  42.510   0.383
63728W        W32102   3.952  31.039   0.396
63729W        W32103  13.269  33.408   1.378
63730W        W32104  17.248  42.030  11.891
63731W        W32105  40.314  10.867  12.410
63732W        W32106   5.430  29.939  13.009
63733W        W32107  33.967  13.666  10.505
63734W        W32108  14.273  40.453   0.332
63735W        W32109   5.701  38.969  10.923
63736W        W32110  28.523  41.421  11.549
63737W        W32111   5.242  14.773   4.191
63738W        W32112  42.390   4.750  13.459
63739W        W32113  31.437  21.730   0.383
63740W        W32114   1.265  21.732  12.839
63741W        W32115  22.088  13.163   0.343
63742W        W32116  36.375   3.230   4.766
63743W        W32117   0.911  12.169  12.497
63744W        W32118   9.245  32.505   1.747
63745W        W32119   3.808   5.213  13.468
63746W        W32120  13.822   9.852   5.107
63747W        W32121  40.888  18.181  10.463
63748W        W32122  11.622  34.901   1.857
63749W        W32123  37.842  18.791   4.830
63750W        W32124  21.590   9.764  13.522
63751W        W32125  28.579  36.053   0.763
63752W        W32126  28.982  19.690  11.907
63753W        W32127  31.064  30.941  12.875
63754W        W32128  24.068  29.041  10.485
63755W        W32129  30.567  43.992   2.705
63756W        W32130  38.957   3.411  11.976
63757W        W32131  33.476  42.961   1.312
63758W        W32132  32.087  24.675   4.654
63759W        W32133  27.113   3.825  11.860
63760W        W32134  19.592  24.974   3.684
63761W        W32135  27.472  28.475   3.239
63762W        W32136  19.225  32.588  14.841
63763W        W32137  10.696  38.391  13.863
63764W        W32138  38.828   9.700  10.133
63765W        W32139  37.038  10.263  12.085
63766W        W32140   6.884  25.664  14.994
63767W        W32141   3.927  43.448  12.410
63768W        W32142  18.053  41.452  11.912
63769W        W32143  28.056   9.276   2.862
63770W        W32144  29.641  37.904   1.777
63771W        W32145  36.934  37.842   3.637
63772W        W32146   0.749  10.192   0.379
63773W        W32147  37.962  11.712  13.364
63774W        W32148  38.536  12.689  10.475
63775W        W32149  43.797  26.637  10.415
63776W        W32150  42.964  15.242   1.901
63777W        W32151  19.765   6.377  13.842
63778W        W32152  15.706  18.275  13.896
63779W        W32153  14.605  17.630  12.538
63780W        W32154   5.341  17.794  14.983
63781W        W32155   4.724  44.938  13.534
63782W        W32156  19.264  33.527  12.865
63783W        W32157  36.358  10.819   3.178
63784W        W32158  17.222  40.028   1.819
63785W        W32159  37.582   2.745  12.391
63786W        W32160  12.143  43.991   1.222
63787W        W32161  40.354  19.541   1.247
63788W        W32162  22.186  36.399  13.435
63789W        W32163  11.155  21.685   4.604
63790W        W32164  33.083  12.643   2.311
63791W        W32165   4.766  29.575  14.338
63792W        W32166  24.980   0.756  13.515
63793W        W32167  37.075   6.189  14.408
63794W        W32168   9.883  34.888  12.031
63795W        W32169  27.642  37.531   2.857
63796W        W32170  11.738   0.810  11.382
63797W        W32171  17.302  34.429   4.658
63798W        W32172  40.378   3.385   3.230
63799W        W32173   3.869  41.496  14.283
63800W        W32174  31.603   0.939   3.324
63801W        W32175  23.659  37.459  14.388
63802W        W32176  41.510  29.608   4.758
63803W        W32177  36.405  23.507   3.163
63804W        W32178  27.497  28.972   2.762
63805W        W32179  44.784  32.594   1.775
63806W        W32180  16.109  20.576   4.271
63807W        W32181  23.503  10.236  11.014
63808W        W32182   2.764   9.812  12.027
63809W        W32183  40.824   0.289  12.032
63810W        W32184  16.214   6.729   0.397
63811W        W32185  31.963  25.536  12.425
63812W        W32186  34.006   5.732  11.537
63813W        W32187  23.017   8.176   2.248
63814W        W32188  33.425  43.847  10.424
63815W        W32189  20.093  13.795   4.130
63816W        W32190  16.765  20.533  14.024
63817W        W32191   9.205  11.318  11.492
63818W        W32192   9.222  17.277  14.864
63819W        W32193  32.429   4.264  12.911
63820W        W32194  38.393  14.753  12.365
63821W        W32195  13.762  43.843   1.394
63822W        W32196  28.972  15.790  11.031
63823W        W32197  38.499  29.021  14.471
63824W        W32198  29.463  28.038   3.698
63825W        W32199  43.888  19.218   1.800
63826W        W32200  25.615  18.682  13.427
63827W        W32201   9.702   3.456   1.326
63828W        W32202   4.286  29.540  13.991
63829W        W32203  29.932  43.450   2.708
63830W        W32204  12.671   2.898   4.157
63831W        W32205   3.886  38.545   3.216
63832W        W32206  25.506  41.316  14.776
63833W        W32207  17.117  32.008  13.040
63834W        W32208  32.504   9.873   2.396
63835W        W32209   3.927  17.174  14.354
63836W        W32210  13.674  16.614   4.245
63837W        W32211  34.106   4.438  11.119
63838W        W32212  13.641   9.867  11.407
63839W        W32213  28.521  22.558  10.980
63840W        W32214  42.996  21.720  14.281
63841W        W32215  14.289   7.315  13.013
63842W        W32216  23.539  20.214   4.154
63843W        W32217  12.676  25.192   2.810
63844W        W32218   9.825  23.573  13.880
63845W        W32219  14.806   8.218   2.309
63846W        W32220  32.027   1.302   0.314
63847W        W32221  32.033  37.448   5.205
63848W        W32222  29.985  34.459  13.544
63849W        W32223  37.510  29.537  13.435
63850W        W32224  22.203  37.995  14.867
63851W        W32225   6.903   2.946  11.464
63852W        W32226  31.909   3.908  13.007
63853W        W32227  34.505  23.223  10.518
63854W        W32228  41.961  28.650   2.414
63855W        W32229  42.868   5.708   4.615
63856W        W32230  26.573  42.346  10.560
63857W        W32231  15.721  40.440  13.867
63858W        W32232  22.563  41.326   4.670
63859W        W32233  22.678  23.001  14.017
63860W        W32234  39.321  14.138  13.516
63861W        W32235  35.540  39.022   0.382
63862W        W32236  40.381  38.524   3.742
63863W        W32237  41.501  28.126   4.186
63864W        W32238  44.968  37.397   2.772
63865W        W32239   1.875   8.731  13.329
63866W        W32240  13.701  39.999   3.271
63867W        W32241   8.881  37.910   3.706
63868W        W32242   0.900   0.347   1.915
63869W        W32243  38.476  21.745   2.728
63870W        W32244   5.921  43.383   4.754
63871W        W32245  32.037   0.988  10.918
63872W        W32246  32.462  10.784   4.331
63873W        W32247  40.952  20.130  12.856
63874W        W32248   6.754   6.845  12.563
63875W        W32249  31.902  20.552  15.000
63876W        W32250  15.278  42.888   0.464
63877W        W32251  19.713  10.863  13.816
63878W        W32252   9.330  30.471  10.578
63879W        W32253   2.360   4.767   0.920
63880W        W32254  34.408  11.753   0.777
63881W        W32255  15.780  10.354  12.539
63882W        W32256  32.898  27.522   4.203
63883W        W32257  33.608  14.724   0.281
63884W        W32258   2.387  36.448  13.436
63885W        W32259  14.676   3.823   1.328
63886W        W32260  11.761  21.562  12.433
63887W        W32261  16.578  31.961   4.192
63888W        W32262  15.756  30.417   1.867
63889W        W32263  28.090  41.476   0.727
63890W        W32264  25.983  14.628  13.828
63891W        W32265  29.001  26.025   3.172
63892W        W32266  10.772  25.564   0.746
63893W        W32267  28.142  15.775  11.964
63894W        W32268  19.057  13.607  10.514
63895W        W32269  31.111  30.103  11.935
63896W        W32270  16.300  27.988  11.973
63897W        W32271  28.493  15.696   0.864
63898W        W32272  41.307  27.578  14.412
63899W        W32273   6.687  38.923  10.538
63900W        W32274  19.600  10.676   2.209
63901W        W32275  20.705  19.570   5.238
63902W        W32276  35.859  19.568  13.825
63903W        W32277  12.194   4.230  11.058
63904W        W32278   1.764   1.440   4.749
63905W        W32279  41.455  29.945   3.713
63906W        W32280  33.415  42.942   1.902
63907W        W32281  32.486   7.718  11.377
63908W        W32282  29.017   7.794  12.020
63909W        W32283  17.635  15.106  13.374
63910W        W32284  24.050  41.977   0.828
63911W        W32285   0.342  31.609  13.951
63912W        W32286   0.773  14.201  11.457
63913W        W32287   1.759  12.360  12.932
63914W        W32288   6.786  14.262   0.805
63915W        W32289  20.186  13.178  13.524
63916W        W32290  40.007  11.675   4.694
63917W        W32291  14.799  38.349  13.431
63918W        W32292  28.489   8.678   2.263
63919W        W32293  14.105  33.130  10.461
63920W        W32294  38.525   0.263  12.987
63921W        W32295  10.862  31.932  12.894
63922W        W32296   0.835   4.793  12.945
63923W        W32297   2.964  37.457  10.581
63924W        W32298  14.113  27.046   2.885
63925W        W32299  21.209  31.527   3.637
63926W        W32300  13.659  29.108  14.862
63927W        W32301  43.888  29.501  14.495
63928W        W32302  16.267  14.698   3.747
63929W        W32303  41.906  21.240  13.897
63930W        W32304  41.873  42.811  10.916
63931W        W32305  11.154  30.083  11.488
63932W        W32306  33.445  11.850   0.329
63933W        W32307  32.583  43.327  14.845
63934W        W32308   7.179   1.436  14.323
63935W        W32309  15.157  12.307   1.447
63936W        W32310  42.892   8.893  13.459
63937W        W32311  26.103  18.221  14.395
63938W        W32312  33.621  11.246   0.934
63939W        W32313  31.515  40.026   0.257
63940W        W32314  33.405  28.187  13.526
63941W        W32315  31.006  23.579  13.862
63942W        W32316   9.172  21.607  11.999
63943W        W32317  28.563  26.573  11.444
63944W        W32318  41.418  11.668  11.389
63945W        W32319  40.047  30.021   3.721
63946W        W32320  41.339  24.000   4.785
63947W        W32321  27.195  22.181   3.787
63948W        W32322  38.045   3.376  12.957
63949W        W32323  40.941  31.407   2.267
63950W        W32324  35.417  40.355   0.819
63951W        W32325  17.217   9.191  12.854
63952W        W32326  40.992  28.130   4.631
63953W        W32327  35.497  30.474   2.407
63954W        W32328   2.272  36.044  11.862
63955W        W32329  10.790   4.913   2.356
63956W        W32330  21.545   5.369  12.072
63957W        W32331   2.268  22.695   1.754
63958W        W32332   8.794   6.220   0.941
63959W        W32333  43.439   0.426  13.983
63960W        W32334  22.139   7.375  11.502
63961W        W32335  18.282  10.768  12.077
63962W        W32336  29.999   8.718  13.881
63963W        W32337  35.913   9.172  14.026
63964W        W32338  19.639   3.759  14.946
63965W        W32339  18.630  41.002  12.936
63966W        W32340  16.740  10.345  14.964
63967W        W32341  30.030  30.528  11.985
63968W        W32342  30.649  11.821   1.215
63969W        W32343   1.471  30.107  12.575
63970W        W32344  18.276  28.974  10.965
63971W        W32345  23.146   6.742   4.167
63972W        W32346   0.957   5.776   4.275
63973W        W32347  21.517   5.339  14.873
63974W        W32348   8.696   7.906  13.035
63975W        W32349  31.583  29.940   1.341
63976W        W32350   4.437  29.611   0.959
63977W        W32351  40.921  21.690  10.610
63978W        W32352  23.990  42.521   0.258
63979W        W32353  16.149  30.585   1.710
63980W        W32354  36.072  23.201   1.743
63981W        W32355   6.892  19.276  11.043
63982W        W32356   7.400  28.620   3.207
63983W        W32357  14.791  40.385   0.321
63984W        W32358  18.174  12.197   0.385
63985W        W32359  34.606  33.123   1.868
63986W        W32360  24.998  18.734   0.792
63987W        W32361  18.743  18.272  12.571
63988W        W32362  29.595  21.125  14.796
63989W        W32363  11.736  40.898  10.983
63990W        W32364  44.259  22.726   0.384
63991W        W32365   1.761  18.141  10.640
63992W        W32366  31.109  16.246  14.922
63993W        W32367  41.858  20.057  12.399
63994W        W32368  19.070  36.473  11.888
63995W        W32369  32.115  10.722   4.259
63996W        W32370  29.925  38.426   0.482
63997W        W32371  30.496  22.601   4.678
63998W        W32372   0.835  30.955   4.685
63999W        W32373  11.230  43.002  10.626
64000W        W32374  44.265  20.634  13.840
64001W        W32375  34.113  36.911   4.344
64002W        W32376   2.726  16.763  12.915
64003W        W32377  34.596  18.127  11.038
64004W        W32378  24.058  12.140   4.725
64005W        W32379  27.453  23.565   4.206
64006W        W32380  30.022  37.936  13.413
64007W        W32381  10.792  23.039  14.840
64008W        W32382   7.733  36.514  11.563
64009W        W32383   5.742   0.396  13.310
64010W        W32384  13.341   3.869   3.249
64011W        W32385   2.258  36.525  11.091
64012W        W32386  31.068   8.807   1.276
64013W        W32387  20.220  38.471  13.367
64014W        W32388  14.257  13.812  13.455
64015W        W32389   4.846  41.319  12.081
64016W        W32390  26.068   9.294  13.951
64017W        W32391  22.699  41.440  12.894
64018W        W32392  17.069   4.732   1.231
64019W        W32393  41.008  35.857  14.972
64020W        W32394  15.222  26.188  14.900
64021W        W32395   7.805  25.682   5.090
64022W        W32396  13.791  10.237  13.441
64023W        W32397  22.723   6.765   2.878
64024W        W32398   0.896  31.947  11.595
64025W        W32399  19.758  32.506   4.745
64026W        W32400  13.245   2.260   1.423
64027W        W32401  34.510  11.199   1.304
64028W        W32402  32.117  25.058   3.774
64029W        W32403   7.732  13.110  12.377
64030W        W32404  29.061   5.276   1.418
64031W        W32405  39.557  30.641  11.021
64032W        W32406  31.593  10.789  12.413
64033W        W32407  32.089  31.437   1.778
64034W        W32408  19.616  16.230  12.452
64035W        W32409  37.527  30.558  12.428
64036W        W32410  23.597  35.417   3.794
64037W        W32411  20.212   5.213   4.297
64038W        W32412  34.382  18.152   0.746
64039W        W32413  11.836   0.362   4.259
64040W        W32414  34.392  18.254   2.694
64041W        W32415  20.669  19.748  14.364
64042W        W32416  30.100  20.260  12.428
64043W        W32417  10.788  12.825   1.351
64044W        W32418  30.995  22.508  10.442
64045W        W32419  17.208   5.748   4.648
64046W        W32420  15.140  14.241  13.899
64047W        W32421  17.581  11.817   2.192
64048W        W32422  25.034   1.744  12.515
64049W        W32423  37.442  25.499   3.290
64050W        W32424   5.237   3.377   1.695
64051W        W32425   5.691  20.760  12.846
64052W        W32426   5.294  31.438  12.849
64053W        W32427   9.697  16.689  11.491
64054W        W32428  32.413   1.383  14.762
64055W        W32429   6.230  22.504  11.524
64056W        W32430   9.785  29.549   0.432
64057W        W32431   0.789  24.673  13.954
64058W        W32432   2.918   3.860   2.681
64059W        W32433  35.476  22.092   1.216
64060W        W32434  39.323  22.519   1.694
64061W        W32435  43.945  42.846  14.433
64062W        W32436  43.871  33.917  13.328
64063W        W32437   3.333  44.490   3.343
64064W        W32438  34.483   1.353   1.395
64065W        W32439  33.972  25.476   4.742
64066W        W32440  37.362  40.409  13.935
64067W        W32441   9.888  10.153   1.352
64068W        W32442   2.451  31.567   1.790
64069W        W32443  29.540  13.308  11.520
64070W        W32444  17.194  13.122   1.723
64071W        W32445  31.033  12.633   3.371
64072W        W32446  41.959   0.791  13.897
64073W        W32447  44.481  16.278   4.331
64074W        W32448   2.276   9.741  14.857
64075W        W32449  11.371  32.956   1.818
64076W        W32450   5.302  22.650   4.631
64077W        W32451  32.007  21.168   1.748
64078W        W32452  20.692  34.083  12.871
64079W        W32453  36.510   4.322  10.510
64080W        W32454  28.467  42.896  12.919
64081W        W32455  32.957  39.880  13.900
64082W        W32456  44.269  34.082  13.911
64083W        W32457   6.239   0.746  14.391
64084W        W32458  28.152  28.458  11.945
64085W        W32459  44.455  24.126   1.216
64086W        W32460  42.515  32.030   2.317
64087W        W32461  31.425  19.171  11.022
64088W        W32462   1.932  31.997  10.413
64089W        W32463  26.968  27.622   1.912
64090W        W32464  12.856  24.583  13.340
64091W        W32465   9.857  38.073  10.475
64092W        W32466  42.988  13.632  12.514
64093W        W32467  38.397  42.931   3.700
64094W        W32468  31.402  26.127   4.287
64095W        W32469  28.672  32.048   3.306
64096W        W32470  25.594   0.445   2.714
64097W        W32471  11.336   5.410  11.079
64098W        W32472  15.091  17.611  12.449
64099W        W32473  31.047  31.023   2.835
64100W        W32474  14.224  43.996  12.418
64101W        W32475  17.771  39.815  13.446
64102W        W32476   2.931  23.685  12.365
64103W        W32477  28.984   5.740   1.759
64104W        W32478  14.302  21.674   1.853
64105W        W32479  36.566   6.818  11.419
64106W        W32480  35.372  25.608  11.457
64107W        W32481  31.447  43.823   4.765
64108W        W32482  34.501  11.205   0.954
64109W        W32483  20.541   7.778   1.285
64110W        W32484  36.412   6.789   1.307
64111W        W32485  25.013  29.508  11.079
64112W        W32486  36.441  32.936   3.342
64113W        W32487   6.334  15.647   0.801
64114W        W32488  10.247  35.081  14.342
64115W        W32489  26.474  13.276   5.131
64116W        W32490   4.897  28.089   5.124
64117W        W32491  33.539  32.565   2.258
64118W        W32492  28.977  34.564   4.156
64119W        W32493  26.648  25.179   1.761
64120W        W32494  41.827  16.228  13.312
64121W        W32495  17.565  32.617  13.477
64122W        W32496  42.461   8.841  11.397
64123W        W32497  22.659  43.499  13.384
64124W        W32498  43.303  38.822  13.023
64125W        W32499   1.817  20.698   0.441
64126W        W32500  43.826  22.213  12.353
64127W        W32501  36.523  19.696   5.288
64128W        W32502  29.539   7.892   3.235
64129W        W32503   5.723  38.973  10.610
64130W        W32504  38.507  36.428   0.937
64131W        W32505  39.426  40.964  10.436
64132W        W32506  40.887   2.230  14.460
64133W        W32507  34.515  25.170   1.806
64134W        W32508   0.872  31.118   0.243
64135W        W32509  42.465  27.949   1.799
64136W        W32510  14.121   8.387   3.293
64137W        W32511  38.470   8.688   1.310
64138W        W32512  41.802  16.643  14.366
64139W        W32513  14.300  36.087  14.327
64140W        W32514   3.845  33.425  14.015
64141W        W32515  13.339  27.670   1.273
64142W        W32516  43.879   6.762   3.279
64143W        W32517  34.010  34.961   2.665
64144W        W32518  32.396   0.342  11.935
64145W        W32519  18.263   0.452  11.116
64146W        W32520  21.091  13.735   1.440
64147W        W32521  16.312  15.753   0.415
64148W        W32522  38.359  44.371  13.961
64149W        W32523  26.697  37.039  11.101
64150W        W32524  26.506  38.034   2.303
64151W        W32525  23.727  27.624   4.172
64152W        W32526  39.460  28.072  11.069
64153W        W32527  28.607  43.847   0.254
64154W        W32528  37.034  26.126  13.804
64155W        W32529  17.173  21.561  13.826
64156W        W32530  42.815  10.778  14.428
64157W        W32531  11.660  19.660   2.178
64158W        W32532  28.462  25.555  10.578
64159W        W32533  31.508  33.913   3.697
64160W        W32534  15.282   2.416   0.918
64161W        W32535  20.043   7.863   2.216
64162W        W32536  28.491   1.442  13.987
64163W        W32537  29.053  44.892  13.847
64164W        W32538  18.246  36.996  13.864
64165W        W32539  42.444  24.490   0.946
64166W        W32540  24.714   4.435  14.487
64167W        W32541  16.251  16.125  13.325
64168W        W32542  39.509  24.068   0.732
64169W        W32543  14.633   2.367  14.501
64170W        W32544  24.174  31.976   4.216
64171W        W32545  25.500  11.164   3.828
64172W        W32546  10.847  10.326   4.350
64173W        W32547  25.134  42.347   2.257
64174W        W32548   1.359  15.187  13.426
64175W        W32549   1.251  23.624   3.679
64176W        W32550  37.022  19.744  11.971
64177W        W32551  14.613   4.936  13.826
64178W        W32552  34.017  43.345   0.960
64179W        W32553  43.972   7.199   2.342
64180W        W32554  11.269   4.305   1.433
64181W        W32555   1.476  30.512   4.203
64182W        W32556  34.381  14.794  12.860
64183W        W32557  34.606  31.433  13.329
64184W        W32558  14.807  13.159  14.385
64185W        W32559  35.070  17.170  11.550
64186W        W32560   6.379  38.051  10.406
64187W        W32561   8.237  13.132   4.176
64188W        W32562  31.525  35.939  10.478
64189W        W32563  24.643  13.162  10.489
64190W        W32564  39.456   3.877  13.500
64191W        W32565  39.357  37.974   0.248
64192W        W32566  27.603   9.341  11.886
64193W        W32567  30.552  26.600   4.158
64194W        W32568  16.084   5.259   4.183
64195W        W32569  15.785  17.750  13.396
64196W        W32570   1.339  44.894   1.773
64197W        W32571   1.972  13.679   4.820
64198W        W32572  34.998  11.823  10.044
64199W        W32573  18.731  40.526  13.046
64200W        W32574  44.481  18.191   1.922
64201W        W32575  26.677  35.030   2.899
64202W        W32576  27.632   7.685  14.801
64203W        W32577  24.701   4.909  14.283
64204W        W32578  28.571   1.874  13.835
64205W        W32579   9.240  40.332  10.436
64206W        W32580  32.099  22.233  14.830
64207W        W32581   0.756   7.770   1.269
64208W        W32582  36.984  43.945   2.209
64209W        W32583   1.405  41.334   0.752
64210W        W32584  16.792  21.667   3.162
64211W        W32585  30.134  39.496   3.299
64212W        W32586  33.050  35.532  13.947
64213W        W32587  12.765  16.205   4.780
64214W        W32588  23.573  40.819   1.764
64215W        W32589  26.630  12.317   4.694
64216W        W32590  25.468  25.500  12.480
64217W        W32591   2.411  13.318   3.789
64218W        W32592  34.595  25.658  11.536
64219W        W32593  20.581   3.297  13.859
64220W        W32594  37.952   7.704   1.715
64221W        W32595   0.789  37.397   3.743
64222W        W32596  26.523  40.312   5.310
64223W        W32597  44.773   4.436   3.727
64224W        W32598  21.756  39.880   0.355
64225W        W32599  29.113   9.857   0.945
64226W        W32600  22.185  39.406   4.138
64227W        W32601  10.379   5.748   9.977
64228W        W32602   0.877  27.146  13.806
64229W        W32603   6.283  43.490  13.330
64230W        W32604  39.560   0.346  10.604
64231W        W32605   2.873  10.226   1.418
64232W        W32606   2.743   1.435   0.345
64233W        W32607  18.256   1.441  12.486
64234W        W32608  41.369   1.916   2.179
64235W        W32609  27.030  43.333   0.911
64236W        W32610  24.981   4.761   5.250
64237W        W32611  43.948  17.088  11.551
64238W        W32612  21.612  32.037   0.306
64239W        W32613  22.147  12.141  11.983
64240W        W32614  22.705  31.983  13.841
64241W        W32615   7.825  22.085   3.305
64242W        W32616  33.127  36.367   2.311
64243W        W32617  38.854  25.085   1.299
64244W        W32618   4.341  36.405   1.286
64245W        W32619  32.461  36.479   0.246
64246W        W32620  21.033  42.020   1.758
64247W        W32621  14.217  24.974   0.875
64248W        W32622  44.873   9.697  11.084
64249W        W32623  28.626  22.506   3.340
64250W        W32624   8.384  10.155  13.951
64251W        W32625  27.641   7.891  11.056
64252W        W32626   6.710  29.670   0.253
64253W        W32627  18.063  24.144   0.244
64254W        W32628  43.923  28.984   1.792
64255W        W32629  38.917  27.992  11.443
64256W        W32630  32.464  21.228   1.436
64257W        W32631  15.113  25.171  14.948
64258W        W32632  20.268   7.677   4.680
64259W        W32633  40.443  31.105  12.865
64260W        W32634  30.610  26.572  11.498
64261W        W32635  28.157  13.158   2.259
64262W        W32636   8.809  31.464  12.880
64263W        W32637   6.879  20.537  13.016
64264W        W32638  43.475  19.667  10.579
64265W        W32639   0.423  29.633   0.355
64266W        W32640  33.932   8.206   3.719
64267W        W32641  15.246  24.548   0.821
64268W        W32642   4.232   4.229  13.972
64269W        W32643  20.722  44.002  13.453
64270W        W32644  10.711  13.158   4.245
64271W        W32645  21.185  22.743  13.458
64272W        W32646  15.790  18.670   2.336
64273W        W32647  11.807  41.929   0.271
64274W        W32648  17.119   7.711  14.483
64275W        W32649  38.015  26.200   3.381
64276W        W32650  25.628  44.836  13.362
64277W        W32651  22.206  43.958  13.499
64278W        W32652  17.562  38.021  10.506
64279W        W32653   2.231  34.881  12.548
64280W        W32654  19.176  19.687   4.145
64281W        W32655  23.704   0.891   3.766
64282W        W32656  13.225   3.929  14.857
64283W        W32657  24.724  16.791   4.347
64284W        W32658   3.441   6.421   0.359
64285W        W32659   5.392   2.735   4.117
64286W        W32660  38.016  33.963  12.842
64287W        W32661  23.639  19.089  13.793
64288W        W32662  44.902  28.504  12.533
64289W        W32663   9.834  22.238   0.398
64290W        W32664  15.124  24.651   3.855
64291W        W32665  38.849  34.912   3.842
64292W        W32666  30.920   5.279  13.049
64293W        W32667   3.455   0.470   0.869
64294W        W32668  37.454  31.050   3.269
64295W        W32669  21.522  43.903  13.835
64296W        W32670  33.382   0.889   2.400
64297W        W32671  44.494  26.664   4.667
64298W        W32672   3.749  32.034   3.705
64299W        W32673  31.916  10.834  10.971
64300W        W32674  36.476  23.675   2.889
64301W        W32675  21.242  10.688   1.757
64302W        W32676  30.548   9.336   3.287
64303W        W32677  39.853  31.028  11.121
64304W        W32678  21.616  16.186  11.464
64305W        W32679  38.413  21.700   0.311
64306W        W32680  34.029  36.879   3.254
64307W        W32681   8.381  32.948  13.351
64308W        W32682  12.854  37.843  14.845
64309W        W32683  17.109  21.666   0.454
64310W        W32684  42.478  29.440   1.864
64311W        W32685   7.221  39.003   5.149
64312W        W32686  16.633  26.464  12.942
64313W        W32687  22.652  36.476  13.328
64314W        W32688  10.333  36.586  13.945
64315W        W32689   9.784  32.132  14.796
64316W        W32690  33.054  36.412   1.403
64317W        W32691  36.560  39.959   2.247
64318W        W32692  12.692   5.895   0.962
64319W        W32693  32.951  10.211  13.909
64320W        W32694  35.030  37.924  13.810
64321W        W32695  25.638  17.727   1.769
64322W        W32696  43.943   9.268   1.351
64323W        W32697   3.289  16.081  13.795
64324W        W32698  43.807  32.528   3.365
64325W        W32699  10.840  37.438  14.006
64326W        W32700  32.900   0.763   2.344
64327W        W32701  44.376   2.960   4.656
64328W        W32702  19.662  41.875  13.471
64329W        W32703   2.281  42.942   0.800
64330W        W32704  16.567   1.415  11.611
64331W        W32705  39.967  33.959   3.268
64332W        W32706  43.843   6.197   2.864
64333W        W32707  11.188  22.675   2.374
64334W        W32708  32.141   7.294  12.006
64335W        W32709  23.032  32.966   1.768
64336W        W32710  21.729  10.860   0.729
64337W        W32711  35.459  18.728   1.883
64338W        W32712  32.904  25.043   3.170
64339W        W32713  35.378   0.332   1.285
64340W        W32714   3.821  11.856   3.327
64341W        W32715  11.749  19.224  12.465
64342W        W32716  42.376  19.169   3.666
64343W        W32717  19.135   5.359  10.493
64344W        W32718   3.216  38.489   1.441
64345W        W32719  11.715  44.416   4.677
64346W        W32720  27.029  26.955   4.803
64347W        W32721   8.656  29.048  10.964
64348W        W32722  31.103  19.607  14.358
64349W        W32723  29.625  30.919   1.386
64350W        W32724  39.456  22.201  12.433
64351W        W32725  20.727   7.323   1.750
64352W        W32726  35.590   7.762   0.452
64353W        W32727  34.410   9.659  10.927
64354W        W32728  39.023  33.951  11.503
64355W        W32729   8.890  42.355   2.417
64356W        W32730  42.523  25.984   4.647
64357W        W32731  36.439  28.102   3.340
64358W        W32732  31.580   7.777  12.562
64359W        W32733   0.882  35.531  11.386
64360W        W32734  37.397  30.018  14.371
64361W        W32735  20.713  31.622   4.713
64362W        W32736   9.228  23.159  14.831
64363W        W32737  35.479  11.250  13.525
64364W        W32738  18.775  44.289  13.510
64365W        W32739  33.052   0.422  10.942
64366W        W32740   4.935  34.496  14.516
64367W        W32741  16.736  14.253  10.572
64368W        W32742  17.251   5.358  13.952
64369W        W32743  27.970  32.978  10.623
64370W        W32744   3.421  23.725  11.971
64371W        W32745   9.827  43.939   0.286
64372W        W32746  39.919  27.990   0.741
64373W        W32747  30.466  38.901   1.855
64374W        W32748  44.369  44.335  13.420
64375W        W32749  26.003  26.500   4.618
64376W        W32750  11.798  44.444  10.607
64377W        W32751  40.865  29.146   3.321
64378W        W32752  42.964   8.302  12.895
64379W        W32753   3.933  40.045   0.329
64380W        W32754  13.312   9.203   5.186
64381W        W32755  18.647   7.229  10.441
64382W        W32756   6.741  11.325  13.849
64383W        W32757  10.747   6.793   1.386
64384W        W32758  11.641   4.813   0.737
64385W        W32759   8.895   4.444  12.070
64386W        W32760  37.952  10.754  12.076
64387W        W32761  13.624  39.988  11.121
64388W        W32762  37.563   5.728   5.112
64389W        W32763   6.316   6.713  14.430
64390W        W32764  43.353  42.425  13.894
64391W        W32765   6.829  25.145  14.301
64392W        W32766   9.811   5.762   0.751
64393W        W32767  35.989  27.606  13.468
64394W        W32768  44.275  25.076  10.466
64395W        W32769  25.612  12.194   2.319
64396W        W32770  32.087  14.162  11.596
64397W        W32771  32.927  18.267  14.984
64398W        W32772  37.391  21.154  14.937
64399W        W32773   9.259  41.298   3.803
64400W        W32774  31.924  41.003  14.765
64401W        W32775   3.915  41.467   3.654
64402W        W32776  33.929  43.870   4.158
64403W        W32777  40.502  35.046   9.924
64404W        W32778  36.473  20.714  10.602
64405W        W32779  26.128   2.923  11.993
64406W        W32780  15.119   3.357   2.792
64407W        W32781  38.349  40.310   0.353
64408W        W32782   8.812  17.574  14.425
64409W        W32783  11.261   0.425   4.330
64410W        W32784  18.707  15.188  11.607
64411W        W32785   3.447  35.464  11.969
64412W        W32786   5.278  44.985   1.443
64413W        W32787  39.416   9.862  14.863
64414W        W32788  20.197   6.721   4.216
64415W        W32789  26.128   8.346  12.353
64416W        W32790  44.914  13.818   0.473
64417W        W32791  39.410  38.957  14.445
64418W        W32792  17.793  26.633   0.845
64419W        W32793  12.816  39.818  12.556
64420W        W32794  15.581  42.959   0.305
64421W        W32795  37.391  27.012   3.816
64422W        W32796  26.636  42.397   2.321
64423W        W32797  35.939   0.357  13.037
64424W        W32798  15.287  26.145  10.466
64425W        W32799  39.888  24.111   3.296
64426W        W32800   3.225  13.147   5.148
64427W        W32801  17.679  11.623   2.755
64428W        W32802   2.430  37.041  10.999
64429W        W32803  34.947  35.531   1.212
64430W        W32804  23.562  15.316  13.367
64431W        W32805  13.815  17.226  10.976
64432W        W32806  42.441   7.840   0.306
64433W        W32807  19.042  23.492  14.817
64434W        W32808  27.102   1.957   4.724
64435W        W32809  41.832   6.224  10.448
64436W        W32810   2.306   7.751  13.451
64437W        W32811  12.710  14.732  13.446
64438W        W32812  40.343   5.884   0.942
64439W        W32813  16.792  38.498   0.284
64440W        W32814   0.251  37.487   4.691
64441W        W32815  40.989  31.921   3.259
64442W        W32816  40.423  43.457  12.417
64443W        W32817  43.397  39.946  13.947
64444W        W32818  10.240  16.182  12.971
64445W        W32819  25.581  19.060   1.356
64446W        W32820   5.401  39.893  10.587
64447W        W32821  41.881   4.927   0.314
64448W        W32822   8.811  37.514  14.437
64449W        W32823  28.147  22.658   4.132
64450W        W32824  32.509  35.982   0.772
64451W        W32825  38.440  36.080  13.917
64452W        W32826   2.844  42.329   1.259
64453W        W32827  20.741  29.084   4.732
64454W        W32828  23.570  43.774   4.682
64455W        W32829  43.408  18.666   3.224
64456W        W32830  36.407  35.102  13.843
64457W        W32831  18.290  13.789   2.733
64458W        W32832   3.738   8.182   2.838
64459W        W32833  38.952  23.681   1.400
64460W        W32834  19.699  30.480  10.576
64461W        W32835   9.321  32.595   3.718
64462W        W32836  34.375  28.504  12.946
64463W        W32837  30.498  24.615  12.886
64464W        W32838  20.082   9.858   1.271
64465W        W32839   8.310   9.195  10.414
64466W        W32840  39.314  44.275   1.228
64467W        W32841  44.895  39.016   3.292
64468W        W32842   1.827   9.217  10.536
64469W        W32843  10.824  38.024   0.784
64470W        W32844  20.122  31.417   2.761
64471W        W32845   6.796  19.121  10.108
64472W        W32846   3.840  11.794   2.347
64473W        W32847  39.386  39.314  14.335
64474W        W32848  17.081  14.806  13.004
64475W        W32849  37.373   6.734   4.696
64476W        W32850  40.867  22.554   2.218
64477W        W32851  29.051  18.089   3.319
64478W        W32852   9.310   7.261  11.066
64479W        W32853   2.953  31.014  11.591
64480W        W32854  15.244   8.187   9.596
64481W        W32855  15.324  37.493  13.846
64482W        W32856  20.580   6.311   0.369
64483W        W32857  43.001  11.719   2.396
64484W        W32858  23.616  29.488  10.964
64485W        W32859  16.149  13.683   2.386
64486W        W32860  20.206  15.149  14.933
64487W        W32861   0.480  14.732   4.829
64488W        W32862  30.625  22.578  13.400
64489W        W32863   9.335  34.525  10.481
64490W        W32864  38.330  29.622  10.542
64491W        W32865  21.571  32.923  10.476
64492W        W32866  30.512   9.321   5.186
64493W        W32867  33.087   9.842   0.462
64494W        W32868  26.652  31.949   3.721
64495W        W32869  42.793  17.567  14.472
64496W        W32870  41.907  34.879   1.933
64497W        W32871  38.517  35.089   4.214
64498W        W32872   0.841   9.222  12.460
64499W        W32873  26.686  24.186  11.927
64500W        W32874  16.713  16.075   3.659
64501W        W32875   1.296  23.192  11.083
64502W        W32876  32.552  35.550   0.774
64503W        W32877  39.441   4.757   2.738
64504W        W32878  14.264  27.136   4.712
64505W        W32879  29.446  36.486  14.433
64506W        W32880  35.018  31.596  10.515
64507W        W32881  25.211  19.759  10.966
64508W        W32882  40.535   5.729  11.026
64509W        W32883  34.570  25.622   4.321
64510W        W32884  13.321   6.853  12.890
64511W        W32885  21.254  32.135  13.021
64512W        W32886  11.194  32.938   3.736
64513W        W32887  14.305  18.744   3.677
64514W        W32888  13.110  32.913  11.949
64515W        W32889  43.802  13.216  10.500
64516W        W32890  24.013  36.940   4.626
64517W        W32891  35.378  16.600  13.373
64518W        W32892   5.221   3.793   5.244
64519W        W32893   3.422  23.611  12.857
64520W        W32894   6.705   0.965   0.883
64521W        W32895  33.517  23.056   2.792
64522W        W32896  11.154  24.554  12.049
64523W        W32897  23.496  36.081  14.352
64524W        W32898  29.994   2.261  10.628
64525W        W32899  12.644  39.842   3.798
64526W        W32900  36.521   3.392   2.812
64527W        W32901  14.706   2.272   2.282
64528W        W32902  25.984  32.582   0.302
64529W        W32903   9.332   8.365  12.942
64530W        W32904  27.540   1.734   3.268
64531W        W32905   8.836  31.515   2.256
64532W        W32906  21.628  39.014  10.123
64533W        W32907  25.010  22.677  11.929
64534W        W32908  15.640  35.362   3.767
64535W        W32909  36.441  43.318  13.311
64536W        W32910   9.299  23.491   0.432
64537W        W32911  12.172   4.254   1.809
64538W        W32912  11.837  22.681  11.451
64539W        W32913  12.153  13.720  12.564
64540W        W32914  23.200  14.298   4.833
64541W        W32915  32.533  43.451   1.360
64542W        W32916  24.082  30.438   1.882
64543W        W32917  37.426  14.612   1.884
64544W        W32918   7.278  36.906   3.289
64545W        W32919  34.897  30.493   0.946
64546W        W32920  41.925   4.298  14.427
64547W        W32921  42.465  12.638   2.763
64548W        W32922  22.537  40.538   4.646
64549W        W32923  44.291  42.827  14.019
64550W        W32924  16.782  24.492  10.968
64551W        W32925  43.901  39.889   2.731
64552W        W32926  20.704   0.425   0.468
64553W        W32927  40.329  39.401   1.255
64554W        W32928  13.698  15.643   1.398
64555W        W32929   5.916   5.376  13.450
64556W        W32930   7.298   8.403   2.294
64557W        W32931   2.282  26.664   2.859
64558W        W32932  17.589  28.464  14.392
64559W        W32933  19.042  34.386  12.360
64560W        W32934  10.358  18.260  12.045
64561W        W32935  15.667  17.254  14.391
64562W        W32936   4.424  13.599   0.242
64563W        W32937  36.844   3.771  12.973
64564W        W32938   3.347  41.444  13.348
64565W        W32939  10.772  27.460   2.724
64566W        W32940   3.401  19.202   2.819
64567W        W32941   1.337   2.921   3.633
64568W        W32942   3.776  39.362  11.855
64569W        W32943  35.368  42.947  12.913
64570W        W32944  25.997  41.958   2.717
64571W        W32945  22.053  17.247  11.399
64572W        W32946  40.882   6.828  14.941
64573W        W32947  12.749  38.927  13.455
64574W        W32948  18.604  41.297  10.021
64575W        W32949  30.929  15.245  13.948
64576W        W32950  24.634  10.795   0.918
64577W        W32951   2.258  20.635   3.840
64578W        W32952   5.375  25.989   2.680
64579W        W32953   2.916   8.658  12.420
64580W        W32954  42.001  43.368  12.448
64581W        W32955  17.284  22.624   4.213
64582W        W32956   9.358   0.455  10.587
64583W        W32957   0.366  15.149   0.282
64584W        W32958   4.943  19.161  11.894
64585W        W32959  16.726  44.425  11.476
64586W        W32960  42.386  14.687   0.281
64587W        W32961  12.319  37.915   3.804
64588W        W32962  33.905  20.636   0.923
64589W        W32963  36.358  39.472   2.309
64590W        W32964  13.143  19.167  13.532
64591W        W32965  23.127  23.604   1.295
64592W        W32966   9.682  23.087  13.439
64593W        W32967  15.701  44.492   1.935
64594W        W32968  34.101  36.064  14.356
64595W        W32969  43.791   7.294  14.770
64596W        W32970  41.979  34.562  10.085
64597W        W32971  34.873  29.154  10.578
64598W        W32972  16.596  36.586  12.864
64599W        W32973  26.641  18.225  13.331
64600W        W32974  37.062  13.291   1.768
64601W        W32975  20.234  35.105   3.759
64602W        W32976   8.363  38.883  10.405
64603W        W32977  11.249  19.589  13.311
64604W        W32978  25.105  16.193   0.256
64605W        W32979  27.084  41.534   4.817
64606W        W32980  29.922  18.785  12.373
64607W        W32981  43.350  13.837   2.368
64608W        W32982  37.926  12.703  14.368
64609W        W32983  16.793  44.365   3.780
64610W        W32984  20.611  24.020  13.806
64611W        W32985  38.475  16.792   4.325
64612W        W32986  35.381   9.808   4.116
64613W        W32987  39.983  17.178   3.813
64614W        W32988  14.759   4.801  11.019
64615W        W32989  24.165  43.849   0.889
64616W        W32990   3.317  43.944   3.198
64617W        W32991  11.802  22.029   3.191
64618W        W32992  40.925  38.045  13.958
64619W        W32993  18.283  15.801  12.398
64620W        W32994   6.830  44.942  13.044
64621W        W32995  22.512  42.965   5.212
64622W        W32996  36.936  26.553   3.375
64623W        W32997   1.799  44.922  11.034
64624W        W32998  10.763  13.332  12.083
64625W        W32999  14.323  16.619  11.095
64626W        W33000  31.004  41.475  13.414
64627W        W33001   1.868  30.414   3.270
64628W        W33002  37.390  16.730  12.930
64629W        W33003  16.245   1.405   0.392
64630W        W33004   1.315  39.510   2.887
64631W        W33005  20.752   2.275  14.468
64632W        W33006  38.901   5.367   4.307
64633W        W33007   7.878  40.382  10.134
64634W        W33008  30.051   5.922  11.481
64635W        W33009  15.802  18.279  14.497
64636W        W33010  17.132  44.395   3.766
64637W        W33011  29.148  37.039  13.048
64638W        W33012  13.828  21.143  10.534
64639W        W33013   4.768  39.939  10.550
64640W        W33014  21.625  41.971   4.289
64641W        W33015  21.097  43.868  13.461
64642W        W33016  37.382  19.544  10.967
64643W        W33017   8.763   2.391  12.482
64644W        W33018  17.114  12.145   2.214
64645W        W33019   2.925  24.636   3.847
64646W        W33020  36.986  30.974  11.894
64647W        W33021   2.336  38.344   2.266
64648W        W33022  33.971  15.221   3.786
64649W        W33023  34.112   3.340  14.360
64650W        W33024  14.248  18.287  14.280
64651W        W33025  43.847   9.691  13.809
64652W        W33026  29.175  35.925  11.989
64653W        W33027   7.862  43.316   1.303
64654W        W33028  21.262  22.534   4.641
64655W        W33029  21.175   4.805   3.781
64656W        W33030  13.258  34.599  13.489
64657W        W33031  35.006  27.560  13.450
64658W        W33032   2.376  42.392   1.822
64659W        W33033  18.087   4.879   2.350
64660W        W33034  16.683  32.938   2.256
64661W        W33035  43.500  28.164   1.862
64662W        W33036  35.958  12.347   2.711
64663W        W33037  21.072  16.752   1.914
64664W        W33038  23.187  38.926   1.449
64665W        W33039  43.423   0.353   1.742
64666W        W33040  42.951  43.861  13.842
64667W        W33041   0.413  41.830   4.235
64668W        W33042  27.073  42.947  13.993
64669W        W33043  15.681   3.814  13.012
64670W        W33044  33.483  33.971  11.394
64671W        W33045  17.700  37.019   0.906
64672W        W33046   8.745  26.018   2.888
64673W        W33047  23.706   6.720   2.683
64674W        W33048   5.820  27.565  12.973
64675W        W33049   3.798  35.021   2.689
64676W        W33050  19.574  43.855  14.815
64677W        W33051   7.825   8.809  14.322
64678W        W33052  27.603  16.721  10.931
64679W        W33053  27.645  27.620  14.379
64680W        W33054  24.076  16.589   3.168
64681W        W33055  35.383  21.597  12.489
64682W        W33056   7.666  43.279  10.574
64683W        W33057  27.191  10.159   2.903
64684W        W33058  26.583  25.537   5.121
64685W        W33059  38.915  28.138   4.146
64686W        W33060  17.596  26.058  10.538
64687W        W33061  24.090  18.594   4.697
64688W        W33062  35.437  21.049  10.932
64689W        W33063  30.523  27.998   1.430
64690W        W33064  35.442  41.357   2.377
64691W        W33065  32.498  28.444   2.814
64692W        W33066   2.918  12.632   0.242
64693W        W33067  29.006  10.863  12.875
64694W        W33068  23.565  39.954   2.194
64695W        W33069  43.292  36.537  13.799
64696W        W33070  18.076  12.761   4.267
64697W        W33071  43.389  12.714  10.537
64698W        W33072  18.742  25.216  12.027
64699W        W33073  16.298  16.291  11.403
64700W        W33074   4.813  19.232   2.900
64701W        W33075  41.857   3.286  11.950
64702W        W33076  43.929  28.018   4.126
64703W        W33077   9.886  36.348  12.983
64704W        W33078  24.170  44.480  10.121
64705W        W33079  12.682  19.591   0.790
64706W        W33080  22.096  12.688   2.764
64707W        W33081   6.759  22.638   3.789
64708W        W33082   9.874  22.612  14.997
64709W        W33083   3.763  44.444   1.891
64710W        W33084  16.155  18.197  13.804
64711W        W33085  39.558   0.810   3.184
64712W        W33086  16.606   5.772  13.806
64713W        W33087  34.576  19.671   4.152
64714W        W33088  44.339  28.607   0.395
64715W        W33089  41.506  14.318   4.828
64716W        W33090   9.744  25.219  11.124
64717W        W33091   2.727  31.513  14.486
64718W        W33092  29.493  42.316   0.280
64719W        W33093   5.254  29.456   4.278
64720W        W33094  40.427  25.994   3.162
64721W        W33095  29.950  38.422   4.681
64722W        W33096   4.866  29.634  13.019
64723W        W33097  36.523  43.981  11.102
64724W        W33098  20.194   5.757  11.970
64725W        W33099   5.366   8.829   2.702
64726W        W33100  35.508   2.723  11.468
64727W        W33101  23.184  33.475   0.307
64728W        W33102  43.464   6.729  13.828
64729W        W33103   3.877  18.070  11.515
64730W        W33104  23.524   6.832  10.484
64731W        W33105  38.373  34.380   0.338
64732W        W33106  16.130   3.773   2.271
64733W        W33107  20.220   1.294  11.087
64734W        W33108  16.192   3.251  12.365
64735W        W33109  28.662  36.532   2.711
64736W        W33110  24.163   8.197  14.874
64737W        W33111  31.001  41.472   0.335
64738W        W33112  28.125   9.186   3.161
64739W        W33113   9.760  42.468   2.312
64740W        W33114  33.910  24.150  10.454
64741W        W33115  13.697  13.341  13.479
64742W        W33116  13.346  34.563  10.512
64743W        W33117  18.740  15.202   2.829
64744W        W33118  27.485  41.476  14.861
64745W        W33119  42.856  16.126  13.444
64746W        W33120  13.807  26.092  14.759
64747W        W33121  37.950  36.572  10.480
64748W        W33122  40.052  32.094   4.699
64749W        W33123  20.586   8.767   4.222
64750W        W33124  14.292  21.612   1.437
64751W        W33125   1.912  37.024  12.073
64752W        W33126  42.299  30.061   4.603
64753W        W33127  21.139   4.248   4.701
64754W        W33128  43.997   3.437   0.735
64755W        W33129  15.612  41.846  13.021
64756W        W33130  32.041  10.204  11.575
64757W        W33131  33.624   8.387   2.212
64758W        W33132   9.887  14.142   1.742
64759W        W33133  40.487  33.442   5.230
64760W        W33134  10.744  21.569  14.284
64761W        W33135  17.597  39.317  14.028
64762W        W33136  37.345   3.262   3.852
64763W        W33137   7.672  20.200  10.483
64764W        W33138  16.598   6.361  13.487
64765W        W33139   5.716  25.130   1.259
64766W        W33140  12.632   3.841   1.804
64767W        W33141  17.066  22.524   2.798
64768W        W33142  30.508  36.406   2.308
64769W        W33143  41.814  21.607  13.391
64770W        W33144   5.405  11.354   2.758
64771W        W33145   1.296   7.264   2.350
64772W        W33146  29.606  25.130  10.527
64773W        W33147  18.701  25.000   1.754
64774W        W33148   4.768  10.732   2.326
64775W        W33149  33.533   2.946   1.823
64776W        W33150  17.608  29.938   4.289
64777W        W33151  31.532   9.186   4.143
64778W        W33152  21.738  13.805  14.401
64779W        W33153  17.622  16.603  10.939
64780W        W33154  17.246  12.827  12.476
64781W        W33155  29.015  43.825  12.070
64782W        W33156  25.652  19.728   4.247
64783W        W33157  42.408  25.640   0.429
64784W        W33158  39.529   7.680   0.935
64785W        W33159   6.776  31.444   4.126
64786W        W33160  33.890  38.399  11.002
64787W        W33161  14.820  18.752  13.489
64788W        W33162  10.826   5.228   0.945
64789W        W33163  16.688  41.510   0.859
64790W        W33164   7.820  13.287   2.297
64791W        W33165  19.604  19.594   3.221
64792W        W33166  39.862  24.673   4.796
64793W        W33167  15.774  26.184   2.386
64794W        W33168  26.188   2.810   2.736
64795W        W33169  40.806  25.193   2.210
64796W        W33170   6.384  21.530  12.344
64797W        W33171  10.221  14.607  11.048
64798W        W33172  39.917  35.024   2.317
64799W        W33173  28.648  43.427   4.301
64800W        W33174  21.566   1.365   1.312
64801W        W33175  20.222  10.265   4.338
64802W        W33176  40.952  18.220   3.161
64803W        W33177  42.462  34.544  14.417
64804W        W33178  15.173   0.470   3.349
64805W        W33179  44.402  30.932   3.839
64806W        W33180  39.534  31.574   4.778
64807W        W33181   2.812   2.395   0.284
64808W        W33182  14.280  17.267   0.867
64809W        W33183   8.842  20.042  11.611
64810W        W33184  43.470  22.742  10.507
64811W        W33185  15.648  36.978  13.435
64812W        W33186  30.111   8.347  10.565
64813W        W33187   0.916  22.735  10.541
64814W        W33188  25.590  26.542  10.487
64815W        W33189   3.795  32.931  14.939
64816W        W33190  11.823  41.345  10.921
64817W        W33191  27.525  16.593   4.742
64818W        W33192  11.291   4.254  12.382
64819W        W33193  13.799  23.225  12.076
64820W        W33194   8.869  27.582   4.159
64821W        W33195  10.869  39.473  12.955
64822W        W33196  42.372  43.499   2.898
64823W        W33197  30.057  29.649  14.418
64824W        W33198  39.450  38.015  10.643
64825W        W33199  12.191  40.846  13.514
64826W        W33200  15.755  36.454   0.793
64827W        W33201  39.869  44.317   1.868
64828W        W33202  36.463  33.475  13.840
64829W        W33203  16.790  39.920  12.053
64830W        W33204  29.128  27.540   1.375
64831W        W33205  41.381  39.935  11.478
64832W        W33206  29.469  19.723  11.874
64833W        W33207  16.164  43.328  11.380
64834W        W33208  31.439  13.620   3.765
64835W        W33209  19.598  35.435  12.958
64836W        W33210   7.396  35.578   4.731
64837W        W33211   2.908  37.568   2.672
64838W        W33212  33.384  39.980   1.717
64839W        W33213  28.601  40.992   3.198
64840W        W33214  34.082  35.881  10.493
64841W        W33215  39.973  28.184  11.447
64842W        W33216   3.242  40.980  12.949
64843W        W33217  28.461  21.633  12.946
64844W        W33218  16.672  38.853  14.341
64845W        W33219  32.044   8.279   2.266
64846W        W33220  30.620  31.104   3.789
64847W        W33221  12.680  42.371   4.828
64848W        W33222   6.757  37.367  14.421
64849W        W33223  29.159   0.762   3.715
64850W        W33224  34.411   9.356   3.161
64851W        W33225  25.674  22.597   4.222
64852W        W33226  18.116  43.977  12.355
64853W        W33227   7.202  13.668   2.233
64854W        W33228   7.311  26.149   3.332
64855W        W33229  35.953  44.307  13.516
64856W        W33230   0.395  18.678  11.971
64857W        W33231  20.567   4.851  11.926
64858W        W33232   8.284   4.897   0.466
64859W        W33233  28.601  35.013  13.401
64860W        W33234  21.570   5.716   4.625
64861W        W33235  43.399  21.130   4.716
64862W        W33236  15.813  44.289   4.750
64863W        W33237  14.195  13.190  14.339
64864W        W33238  43.429  23.623   5.315
64865W        W33239  39.403   8.324   3.692
64866W        W33240  10.197  18.653   1.821
64867W        W33241  31.647   3.880   0.762
64868W        W33242  18.103  18.108  10.451
64869W        W33243  10.833  41.450  11.897
64870W        W33244  33.948  29.554   4.724
64871W        W33245  31.945   6.838  12.433
64872W        W33246  44.425  35.564  12.351
64873W        W33247   3.712  27.947  10.558
64874W        W33248  22.582   5.356   3.305
64875W        W33249  34.448  38.392   2.204
64876W        W33250  44.480   8.818   4.119
64877W        W33251  42.416   2.938  14.424
64878W        W33252  15.640  21.511   5.210
64879W        W33253  20.733  37.026  11.493
64880W        W33254   9.387  17.794   0.811
64881W        W33255   9.772  13.295  13.922
64882W        W33256  17.745  12.186  13.838
64883W        W33257   8.678   3.795  11.930
64884W        W33258  44.398  19.588  10.009
64885W        W33259   5.214  12.746  12.507
64886W        W33260  41.002  21.574  13.390
64887W        W33261  29.616  44.387  12.847
64888W        W33262  34.934  13.690  11.058
64889W        W33263  39.325   0.435  10.916
64890W        W33264  32.003   6.760  11.967
64891W        W33265   7.323   8.836  13.390
64892W        W33266  35.978  25.669   0.861
64893W        W33267  22.537  10.696   1.761
64894W        W33268  35.407  34.407  11.420
64895W        W33269   9.307  22.661   0.405
64896W        W33270  14.688  12.319  10.960
64897W        W33271  30.578  30.127   0.742
64898W        W33272  34.914   5.715   0.286
64899W        W33273  32.042   9.245   2.406
64900W        W33274   1.414  42.510  13.380
64901W        W33275  23.573  43.366   3.291
64902W        W33276  20.066  40.468   0.964
64903W        W33277  25.532  12.645  11.954
64904W        W33278   1.465  22.018  14.026
64905W        W33279   1.415   9.684   2.285
64906W        W33280  12.146  17.231   1.822
64907W        W33281  29.944  40.474   2.262
64908W        W33282  32.567  14.789   3.234
64909W        W33283  31.053  21.610   4.268
64910W        W33284  31.024   2.437   0.873
64911W        W33285  18.242   9.650  12.394
64912W        W33286  27.192  36.039   4.669
64913W        W33287  10.836  12.740   4.609
64914W        W33288  32.950  17.699   3.753
64915W        W33289  22.641  43.020   3.643
64916W        W33290  37.946   7.832  13.904
64917W        W33291  12.843  35.568   2.215
64918W        W33292  28.615  34.025   2.761
64919W        W33293  40.831  21.655   4.149
64920W        W33294  43.481  20.634  12.066
64921W        W33295  40.842  44.375  12.489
64922W        W33296  25.156  26.987  13.473
64923W        W33297  27.574  23.503   3.256
64924W        W33298  30.458  37.861  14.789
64925W        W33299  28.619  32.907  12.905
64926W        W33300  26.523  44.347   2.754
64927W        W33301  34.952  16.135   0.917
64928W        W33302  17.113  20.563  10.619
64929W        W33303  22.146  18.200  12.858
64930W        W33304  12.617  15.327   4.320
64931W        W33305  23.728   3.884   0.772
64932W        W33306  29.067  17.649   3.746
64933W        W33307  44.005  44.415  11.103
64934W        W33308  19.699  28.039  14.472
64935W        W33309  23.489  15.196   3.853
64936W        W33310  42.863  20.102  11.062
64937W        W33311  10.252  17.243   0.482
64938W        W33312  41.884  34.889   3.688
64939W        W33313  36.480  25.018   1.215
64940W        W33314  14.230  27.602  10.476
64941W        W33315  11.195  15.782   3.784
64942W        W33316   2.870  19.278   2.716
64943W        W33317  33.466   5.258   1.308
64944W        W33318  34.591   2.865   4.259
64945W        W33319  18.735  44.817   0.940
64946W        W33320  40.374  40.462  11.863
64947W        W33321  42.502  34.496   3.644
64948W        W33322  11.770  23.055  10.526
64949W        W33323   2.887  26.138  13.539
64950W        W33324  23.522  23.191   1.387
64951W        W33325   8.663   0.438  10.002
64952W        W33326   3.744  21.626   1.785
64953W        W33327  35.896  38.542  14.027
64954W        W33328  18.084  18.649  12.458
64955W        W33329  35.945  23.017   0.414
64956W        W33330  31.430   3.458  12.579
64957W        W33331  33.524  39.460  14.344
64958W        W33332  20.121  28.170   0.835
64959W        W33333   7.822   7.352   2.880
64960W        W33334  15.726  19.579  12.414
64961W        W33335  21.036  22.019  13.900
64962W        W33336  18.626  20.644  10.454
64963W        W33337  36.357  30.427  13.917
64964W        W33338  39.340  19.550   2.260
64965W        W33339  31.008   6.733   0.731
64966W        W33340  23.031  25.983   4.723
64967W        W33341  23.586  16.239  12.012
64968W        W33342  13.318  30.075  13.505
64969W        W33343  11.641  28.127   2.869
64970W        W33344  15.100  35.399  11.458
64971W        W33345  35.919  34.105   0.454
64972W        W33346  44.825  12.157   4.713
64973W        W33347  32.617  42.505   2.225
64974W        W33348  21.171  44.995  11.116
64975W        W33349   4.377  34.940  13.850
64976W        W33350  24.176  27.154   0.776
64977W        W33351   6.721   1.404   3.841
64978W        W33352   5.402  18.199  11.935
64979W        W33353   3.224   5.418   2.287
64980W        W33354   2.766  23.729   0.937
64981W        W33355  15.692  27.655  14.828
64982W        W33356   9.303  34.464  14.493
64983W        W33357   5.787   7.911  14.957
64984W        W33358  14.163  44.363   2.677
64985W        W33359  33.613  21.679   3.836
64986W        W33360  18.725  22.592  13.898
64987W        W33361  37.382  20.713   3.690
64988W        W33362  17.299   3.752   2.413
64989W        W33363  40.354  21.217  13.950
64990W        W33364  22.133  15.294  13.485
64991W        W33365  10.786  15.585  14.978
64992W        W33366   0.367  12.206  14.320
64993W        W33367   7.725   5.380   9.613
64994W        W33368  21.580  32.099  12.043
64995W        W33369  18.151  24.126   3.686
64996W        W33370   4.940  23.684  12.402
64997W        W33371  33.945   2.362  13.033
64998W        W33372  16.585  23.576  14.513
64999W        W33373   1.247  28.440  14.410
65000W        W33374   5.372  25.199   1.408
65001W        W33375  29.955   2.291   3.860
65002W        W33376  39.020  12.268  11.374
65003W        W33377  25.072  21.032  14.935
65004W        W33378   7.886  34.965  11.988
65005W        W33379  35.904  33.439  12.955
65006W        W33380   9.712  15.327  11.605
65007W        W33381   9.337  22.679  14.892
65008W        W33382  24.223   0.844   1.223
65009W        W33383   0.316  26.608   2.679
65010W        W33384  32.616   0.438   2.689
65011W        W33385   4.311  40.983  13.376
65012W        W33386  10.686  39.986  10.591
65013W        W33387  35.394  40.375   3.179
65014W        W33388   4.362   9.719  11.855
65015W        W33389   2.880  38.372  14.889
65016W        W33390  15.584   4.812  14.490
65017W        W33391  32.964  13.711   1.838
65018W        W33392  13.625   9.174  13.794
65019W        W33393  33.482   8.729   2.314
65020W        W33394  42.984  14.677  12.949
65021W        W33395  27.449   1.251   4.266
65022W        W33396  33.027  22.036  12.904
65023W        W33397  42.792  36.089  12.922
65024W        W33398  15.683   8.771   4.265
65025W        W33399   4.277   4.798  12.408
65026W        W33400  31.466  10.657  13.529
65027W        W33401  18.213  28.166   0.274
65028W        W33402   9.235  25.207  14.294
65029W        W33403  16.270   6.387  10.978
65030W        W33404  28.494  34.484   0.246
65031W        W33405  20.600  16.308  13.981
65032W        W33406  20.551  32.506   3.656
65033W        W33407  17.746  35.568   4.810
65034W        W33408   2.887   3.361   4.683
65035W        W33409   6.804  10.852   4.167
65036W        W33410  39.942  21.204  14.029
65037W        W33411  14.147  13.704   4.765
65038W        W33412  40.895  14.220  11.473
65039W        W33413  44.412  34.908   5.306
65040W        W33414  21.617  27.092   4.179
65041W        W33415  17.088  29.079  14.824
65042W        W33416  42.948   4.292  12.022
65043W        W33417  40.449  40.841   2.768
65044W        W33418   4.781  10.197   1.395
65045W        W33419  33.520   2.778   3.847
65046W        W33420   8.307  43.479  14.509
65047W        W33421  40.323  18.220   3.773
65048W        W33422  31.127   8.886  11.959
65049W        W33423  21.105  11.675   2.190
65050W        W33424  32.885  40.976  12.055
65051W        W33425  42.464  28.017  14.504
65052W        W33426  20.164  38.383  10.049
65053W        W33427  34.883  15.660  12.543
65054W        W33428  19.062  28.492   2.835
65055W        W33429  41.815  43.286   1.238
65056W        W33430  42.931  29.129   2.333
65057W        W33431   8.762   9.201  13.450
65058W        W33432  32.460  39.843   4.735
65059W        W33433  10.859  11.704  12.921
65060W        W33434  44.837   1.462   4.234
65061W        W33435  17.769  37.360   2.854
65062W        W33436   0.375   3.340   0.843
65063W        W33437  35.857  42.334  11.599
65064W        W33438   8.827  24.085  13.825
65065W        W33439   3.918   3.829  14.997
65066W        W33440   2.234  36.993  12.826
65067W        W33441  30.058  20.531  11.048
65068W        W33442  36.866  32.087   4.267
65069W        W33443  23.059  18.278  14.280
65070W        W33444   4.792  36.924   0.924
65071W        W33445   9.727  20.131   1.259
65072W        W33446  22.201  33.978  13.901
65073W        W33447  21.114   5.852  10.930
65074W        W33448  23.119  30.081   0.938
65075W        W33449   0.795  11.801  11.124
65076W        W33450   1.897  34.589   0.473
65077W        W33451  22.015  17.742  12.515
65078W        W33452  30.915  26.499  10.577
65079W        W33453  42.004  38.548   4.117
65080W        W33454   8.732  37.343  13.440
65081W        W33455  23.494  37.559   0.727
65082W        W33456  10.869  23.537   2.325
65083W        W33457  43.397  12.764   0.249
65084W        W33458  28.047  35.469   0.292
65085W        W33459  19.157  35.072  12.065
65086W        W33460  35.479  36.444  11.402
65087W        W33461  11.659  43.273   0.342
65088W        W33462  19.070  11.758   0.434
65089W        W33463  25.155  30.017   2.409
65090W        W33464  44.758  39.044  10.062
65091W        W33465   1.443  39.433  10.602
65092W        W33466  27.989  34.455  13.041
65093W        W33467  42.492   4.320   4.214
65094W        W33468  44.762  36.088  10.620
65095W        W33469  32.422  38.407  14.911
65096W        W33470  15.290   9.807   0.799
65097W        W33471  28.516  30.422  12.963
65098W        W33472  32.040   2.964  12.828
65099W        W33473  44.446  29.044  10.948
65100W        W33474  40.964  20.176   0.417
65101W        W33475  43.314  12.775  11.948
65102W        W33476  29.482  39.973   3.812
65103W        W33477  35.386  39.015   0.919
65104W        W33478  29.038  10.157  14.007
65105W        W33479   7.346  29.059  12.491
65106W        W33480  41.850   2.460  10.614
65107W        W33481  28.955  28.017   4.739
65108W        W33482   1.797  35.525  13.350
65109W        W33483  28.064  27.526   2.874
65110W        W33484  22.172  39.533   3.674
65111W        W33485   1.252   2.433  14.392
65112W        W33486  42.902   1.422  11.068
65113W        W33487  43.464  32.545   0.839
65114W        W33488  16.757   6.301   2.859
65115W        W33489  26.066  10.698   1.909
65116W        W33490  18.590  31.075  10.452
65117W        W33491  11.173  26.509   3.709
65118W        W33492   8.690  29.076   3.671
65119W        W33493  21.117  20.118   4.603
65120W        W33494  42.509  21.021  10.972
65121W        W33495  13.740  31.918   4.814
65122W        W33496  41.916  42.801   5.215
65123W        W33497  16.284  33.553   0.729
65124W        W33498  37.486  39.872  10.050
65125W        W33499  44.754  38.555  13.404
65126W        W33500  15.621   2.413   2.709
65127W        W33501  16.256  41.487   3.808
65128W        W33502  17.257  27.670  12.419
65129W        W33503  11.237  23.102   1.743
65130W        W33504   3.274  23.715   0.326
65131W        W33505   0.974  39.983   0.945
65132W        W33506  34.887  21.746   1.419
65133W        W33507  23.140   0.332  10.552
65134W        W33508   1.891  11.807   2.818
65135W        W33509  15.599  44.441  13.427
65136W        W33510  18.556   8.355  10.437
65137W        W33511  27.659  39.462  10.906
65138W        W33512  17.303  14.639  14.381
65139W        W33513  38.551   5.262  14.464
65140W        W33514  29.573  28.962  13.862
65141W        W33515  25.044  26.523  11.427
65142W        W33516  18.736  34.514   3.256
65143W        W33517   7.676   5.730  14.029
65144W        W33518  17.244  42.010   4.620
65145W        W33519  19.770   3.716   0.728
65146W        W33520  10.653  25.566  14.990
65147W        W33521  15.721  30.068   3.822
65148W        W33522   6.343  32.925   1.900
65149W        W33523  13.282  35.601  10.496
65150W        W33524  13.188  37.417  12.382
65151W        W33525   7.363   7.840  14.985
65152W        W33526  26.666  25.065  10.021
65153W        W33527  32.482  39.527   3.742
65154W        W33528  30.141  37.026   0.295
65155W        W33529  10.725  34.430  11.456
65156W        W33530  21.673   9.327   1.789
65157W        W33531  15.695  20.740  14.947
65158W        W33532  37.444  17.226   4.673
65159W        W33533  41.429  28.614   3.749
65160W        W33534  35.095  28.097   1.231
65161W        W33535  31.465  12.227  12.942
65162W        W33536  35.093   0.369  10.597
65163W        W33537  22.694  38.989  10.595
65164W        W33538  40.353  20.677   1.217
65165W        W33539   9.845  35.537   0.457
65166W        W33540  41.855   5.695  13.854
65167W        W33541  22.726  27.051   3.253
65168W        W33542  39.329  24.514  13.421
65169W        W33543  23.112   1.323  14.488
65170W        W33544  25.049  36.418   2.661
65171W        W33545  35.460  37.830  13.320
65172W        W33546   2.895  11.267   1.347
65173W        W33547  25.213  26.568  10.546
65174W        W33548  38.403  16.644  14.386
65175W        W33549  12.238  40.979  11.916
65176W        W33550  38.401   2.428   3.317
65177W        W33551  19.565  24.226   4.336
65178W        W33552  11.628  30.147   1.709
65179W        W33553  29.568  34.894   1.231
65180W        W33554   4.334  44.275  12.911
65181W        W33555  14.122  22.500  13.401
65182W        W33556  19.709  35.420   2.766
65183W        W33557  11.719  12.193   1.828
65184W        W33558  21.086  42.918  11.051
65185W        W33559  29.596  33.964  13.041
65186W        W33560  19.620  12.644   4.692
65187W        W33561  30.591   0.452   4.317
65188W        W33562   2.254  23.025  10.489
65189W        W33563   7.179  23.688  11.049
65190W        W33564   9.676  24.009  10.519
65191W        W33565  39.433  25.088   1.886
65192W        W33566  30.490  21.594  12.083
65193W        W33567  28.003   0.824   9.977
65194W        W33568  17.616   7.730  11.942
65195W        W33569  30.470  28.531   2.275
65196W        W33570  14.827  22.558   0.442
65197W        W33571  15.636  28.674  13.481
65198W        W33572   3.333  16.292  11.513
65199W        W33573  25.604  22.202   0.300
65200W        W33574  42.834  27.120  10.932
65201W        W33575  21.168  15.734  14.003
65202W        W33576  15.616   1.427   3.200
65203W        W33577  19.592   8.722  12.830
65204W        W33578  19.159  23.179  14.764
65205W        W33579  27.182  42.431  12.861
65206W        W33580  28.591  27.668  13.004
65207W        W33581  35.045   3.234  13.496
65208W        W33582  27.108  39.450   4.115
65209W        W33583  25.022  31.591   0.255
65210W        W33584  41.890  18.255   2.273
65211W        W33585   2.280  41.360  14.342
65212W        W33586   1.858  23.707   2.271
65213W        W33587  13.174  22.092   0.844
65214W        W33588  12.183  16.201   0.728
65215W        W33589  32.397  36.942   0.316
65216W        W33590  41.522  19.609  12.077
65217W        W33591  30.009  39.031  13.405
65218W        W33592  15.731  41.513  11.864
65219W        W33593  33.520  27.587  11.400
65220W        W33594  28.641   8.874  11.022
65221W        W33595  22.073   4.340  12.363
65222W        W33596   2.349  37.530   2.279
65223W        W33597  43.888  43.329   3.796
65224W        W33598   8.901  18.282   4.354
65225W        W33599  33.454  40.868  12.023
65226W        W33600  38.072  30.506   1.359
65227W        W33601  33.885   2.292  14.816
65228W        W33602   6.922  40.926  13.868
65229W        W33603  35.536  13.186   2.840
65230W        W33604   1.846  27.573  10.502
65231W        W33605   6.905   7.283   3.247
65232W        W33606  31.900   5.718  12.873
65233W        W33607  34.875  14.639  13.008
65234W        W33608  37.487  41.005   2.739
65235W        W33609   5.751  39.839  13.372
65236W        W33610  32.097  32.995   3.694
65237W        W33611  20.710   8.887   4.697
65238W        W33612  11.350   2.348  11.034
65239W        W33613  24.693  26.471  12.526
65240W        W33614   8.734   0.860  14.868
65241W        W33615  15.741  36.544   3.296
65242W        W33616  24.177  36.959   2.732
65243W        W33617  19.664  12.254  11.009
65244W        W33618  40.374  29.623  11.983
65245W        W33619  39.518   2.873   2.692
65246W        W33620  10.297  40.053  11.040
65247W        W33621  33.114   7.903  13.003
65248W        W33622  30.526  36.007   2.417
65249W        W33623   5.426  27.690  12.556
65250W        W33624  43.977  37.994  14.311
65251W        W33625  36.855  30.951  10.442
65252W        W33626  39.540  40.545   3.265
65253W        W33627  43.968  16.746  14.848
65254W        W33628  34.868  23.578   2.780
65255W        W33629  39.824  28.452  11.877
65256W        W33630  22.598  26.089  11.560
65257W        W33631  42.921  22.143   3.738
65258W        W33632  44.996  33.579   2.213
65259W        W33633  33.906  15.209  11.928
65260W        W33634   2.880  12.810   1.346
65261W        W33635  12.744   7.718  13.482
65262W        W33636  14.241  13.148   2.861
65263W        W33637  14.758  21.155   0.457
65264W        W33638   8.718  34.478  12.858
65265W        W33639  18.621  31.560   1.839
65266W        W33640  15.090   7.725  13.518
65267W        W33641  18.669  30.027   3.155
65268W        W33642   6.227  26.163   5.146
65269W        W33643  10.873  11.864   2.286
65270W        W33644  44.267  14.292   4.726
65271W        W33645   9.326   6.713   0.783
65272W        W33646  31.620  15.650  14.986
65273W        W33647  26.572   2.906  12.080
65274W        W33648   7.900  23.722   1.216
65275W        W33649  21.207  29.077   4.328
65276W        W33650   6.892  44.933   3.727
65277W        W33651   0.381  30.487   4.693
65278W        W33652  22.118  29.124   2.770
65279W        W33653  24.621   6.238   2.192
65280W        W33654   0.803  37.568  11.491
65281W        W33655  24.529  10.636  11.859
65282W        W33656   4.917  21.541   2.814
65283W        W33657   7.259  44.759  13.864
65284W        W33658  19.203   0.282  13.391
65285W        W33659  15.167  21.151   4.812
65286W        W33660  31.924   5.319  12.057
65287W        W33661   3.946  41.484  13.039
65288W        W33662  20.105  24.579  10.617
65289W        W33663   6.423  11.831  13.061
65290W        W33664  10.752  25.575   2.787
65291W        W33665   1.815   2.778   1.287
65292W        W33666   6.762  36.564  10.434
65293W        W33667  35.888   5.346   2.359
65294W        W33668  21.064   0.842   4.252
65295W        W33669  10.744   4.253  10.566
65296W        W33670  27.975  21.562   4.150
65297W        W33671  18.721   9.271   1.210
65298W        W33672  37.539  41.026  13.006
65299W        W33673  13.182  43.865  10.557
65300W        W33674  31.576   9.191   0.862
65301W        W33675   2.750  41.989   0.758
65302W        W33676   9.279  18.650   4.614
65303W        W33677  38.069  14.284  11.866
65304W        W33678  30.100  24.994  11.595
65305W        W33679  23.607  29.639   9.658
65306W        W33680   7.785  32.980   2.868
65307W        W33681   7.289  44.403  10.600
65308W        W33682  35.979   1.391   3.266
65309W        W33683   8.219  41.354  11.531
65310W        W33684  37.870   4.404  11.396
65311W        W33685   3.219  15.641   5.252
65312W        W33686  13.130  13.608  12.355
65313W        W33687  37.490   9.845  13.986
65314W        W33688  13.179  43.483  14.984
65315W        W33689  24.581   4.768  12.454
65316W        W33690  29.054  15.754  14.315
65317W        W33691  41.005  43.934  13.504
65318W        W33692  21.113  14.193   9.981
65319W        W33693  29.501   7.223   2.341
65320W        W33694  12.760   0.768   4.139
65321W        W33695  35.590  38.881  12.408
65322W        W33696  38.537  22.629  14.846
65323W        W33697  14.796  40.513   3.830
65324W        W33698  21.254  18.550  11.986
65325W        W33699  13.639  35.357   1.379
65326W        W33700  13.681  41.376  14.397
65327W        W33701  18.212  11.760   4.199
65328W        W33702  24.619  25.962   1.404
65329W        W33703  33.608  11.318  11.560
65330W        W33704  32.558  21.157   0.946
65331W        W33705  29.045  22.600   0.450
65332W        W33706  23.626  31.045   4.270
65333W        W33707   1.749   1.813  14.031
65334W        W33708  40.457  16.631   4.796
65335W        W33709  11.172  14.334   3.762
65336W        W33710  20.755  38.354  13.477
65337W        W33711   7.783  30.638   0.274
65338W        W33712  35.092  21.173   0.784
65339W        W33713  40.404   8.696   4.139
65340W        W33714   5.806  10.724  13.437
65341W        W33715  20.122  44.311   3.182
65342W        W33716  13.243  10.349   2.233
65343W        W33717  43.017  13.766   1.429
65344W        W33718  15.756   4.216   1.348
65345W        W33719  24.543  29.063   2.391
65346W        W33720  26.107   4.208   3.741
65347W        W33721  26.993  13.756   2.312
65348W        W33722   3.745   4.729  11.075
65349W        W33723   8.762  40.367   5.214
65350W        W33724   4.396  27.637   1.838
65351W        W33725  23.498  42.470  11.062
65352W        W33726  35.924  23.100  11.452
65353W        W33727  30.164   0.792  12.556
65354W        W33728  23.145   8.297  13.908
65355W        W33729  13.789  42.448   2.393
65356W        W33730  29.489  40.900  10.567
65357W        W33731  30.623   4.838  11.946
65358W        W33732  40.368  44.486  12.011
65359W        W33733  31.983  16.635   3.303
65360W        W33734   3.397  33.889  11.464
65361W        W33735  42.882  41.481   3.830
65362W        W33736  13.178  23.541   3.232
65363W        W33737  33.427   4.220   2.757
65364W        W33738   1.295  21.171  13.961
65365W        W33739  33.620  37.017   3.159
65366W        W33740  14.153  19.165  12.960
65367W        W33741  31.952  20.645   3.793
65368W        W33742  38.049   3.840  12.539
65369W        W33743  36.999   6.334   2.770
65370W        W33744  33.604   0.988   4.766
65371W        W33745  25.623  14.749   1.237
65372W        W33746  19.745  33.988   1.711
65373W        W33747  30.924  25.091  11.422
65374W        W33748  35.905   2.779   0.279
65375W        W33749  17.106  34.928   4.206
65376W        W33750  14.664   8.365   1.826
65377W        W33751   3.233  38.538   4.353
65378W        W33752   3.347  41.988  11.529
65379W        W33753  40.978  30.650  13.400
65380W        W33754  12.324  32.066   0.339
65381W        W33755  36.876   8.880   1.917
65382W        W33756   0.848  41.435   4.287
65383W        W33757  11.218  27.518   0.283
65384W        W33758   4.867  27.453  10.995
65385W        W33759  37.841   9.157   9.937
65386W        W33760   8.204  16.755  12.437
65387W        W33761   4.864  12.611  11.372
65388W        W33762  20.207  28.129  14.364
65389W        W33763  11.365  40.527  11.564
65390W        W33764   4.913   5.351   4.303
65391W        W33765  42.336  42.990   3.705
65392W        W33766   1.891  22.511   5.156
65393W        W33767   0.960  28.108   1.418
65394W        W33768  15.615  12.680  14.017
65395W        W33769   0.395  26.657  14.960
65396W        W33770  20.260   5.289   3.674
65397W        W33771   7.244  12.634  11.562
65398W        W33772  28.093  44.778  14.781
65399W        W33773  32.436   3.228  14.845
65400W        W33774   8.377  24.005  14.497
65401W        W33775  28.581  10.172  13.016
65402W        W33776  30.996   4.819  14.408
65403W        W33777  16.137  36.447   1.421
65404W        W33778  44.478  22.646   2.747
65405W        W33779  30.992  21.259   4.345
65406W        W33780  31.115  40.481   4.151
65407W        W33781  31.056  28.476   0.407
65408W        W33782  24.522  30.142   4.230
65409W        W33783  29.561  24.045   0.820
65410W        W33784  26.137  44.321   3.700
65411W        W33785  36.574  33.566  11.101
65412W        W33786   7.183  16.624  13.058
65413W        W33787   3.385  22.641   3.311
65414W        W33788  24.692  40.535  14.281
65415W        W33789  27.123   8.213   1.298
65416W        W33790  22.564  32.634  12.828
65417W        W33791   7.175  41.432   4.123
65418W        W33792  44.808   1.831  12.908
65419W        W33793   2.931   2.827  14.495
65420W        W33794  36.998  13.748   3.261
65421W        W33795  33.529  10.867  10.472
65422W        W33796  19.632  29.615   1.442
65423W        W33797  23.160  43.010   4.638
65424W        W33798   9.333   9.258   3.171
65425W        W33799  19.270  32.076  12.533
65426W        W33800  14.713   2.953  13.899
65427W        W33801  23.697  28.933   5.786
65428W        W33802  24.707   6.771  12.906
65429W        W33803  20.214  11.640   0.777
65430W        W33804  26.683  16.759  13.375
65431W        W33805  15.176  21.132   3.851
65432W        W33806  15.797   6.871   0.877
65433W        W33807   5.800  13.764   4.765
65434W        W33808  30.522  12.811  14.311
65435W        W33809   2.745  36.041   4.600
65436W        W33810  29.113  37.964  12.377
65437W        W33811  38.423  36.390   2.806
65438W        W33812  26.595  35.939  14.807
65439W        W33813  32.010  11.200  11.122
65440W        W33814  12.288   4.914  12.444
65441W        W33815  29.059  37.407   4.677
65442W        W33816  20.119  10.658   1.896
65443W        W33817  22.538  11.632   1.364
65444W        W33818  32.036  33.484  11.913
65445W        W33819  16.187  44.839   4.621
65446W        W33820  24.538   5.718   1.391
65447W        W33821  32.942   0.276   3.330
65448W        W33822  11.140   6.304   2.261
65449W        W33823  38.408  34.425   4.178
65450W        W33824  20.090   7.909   4.230
65451W        W33825  18.587  14.612   1.814
65452W        W33826  16.229   9.232  12.913
65453W        W33827   3.441  21.058   0.886
65454W        W33828  18.281   6.275   0.808
65455W        W33829   1.245  37.439  11.446
65456W        W33830  12.173   7.204   3.705
65457W        W33831   2.832  19.554  11.539
65458W        W33832   1.777  13.157   0.456
65459W        W33833  18.708  11.372  14.315
65460W        W33834  27.599  34.491  12.028
65461W        W33835   0.805  17.074   4.346
65462W        W33836  33.115  41.903  12.838
65463W        W33837   7.876   4.920  11.422
65464W        W33838  10.212  28.461  12.919
65465W        W33839  43.869   4.330   2.814
65466W        W33840   0.791  13.728   1.370
65467W        W33841  34.547  15.325  12.549
65468W        W33842  41.935  29.650   0.399
65469W        W33843   3.950   6.843   2.775
65470W        W33844  25.175  38.409  12.039
65471W        W33845  34.006  29.617  14.982
65472W        W33846  41.995  22.526   1.410
65473W        W33847  19.624   9.287  11.109
65474W        W33848  24.613  33.470   1.925
65475W        W33849   1.733  19.102   3.322
65476W        W33850   2.470   0.287  10.549
65477W        W33851  27.076  16.595  10.967
65478W        W33852  10.788  11.796  14.817
65479W        W33853  15.790  18.622  12.517
65480W        W33854   1.327  11.708   2.865
65481W        W33855  15.686  42.879  14.997
65482W        W33856  20.274  40.337  11.531
65483W        W33857  30.942  26.077  11.510
65484W        W33858  37.837  22.745  13.323
65485W        W33859  41.888  14.622   4.353
65486W        W33860   9.248  19.758   0.416
65487W        W33861  17.794   2.744   2.849
65488W        W33862  43.818  17.768  11.410
65489W        W33863  39.413  17.132   3.849
65490W        W33864  18.773  36.584   3.779
65491W        W33865  11.198  25.484   2.307
65492W        W33866  42.861  23.541  14.394
65493W        W33867  31.539  11.326   4.613
65494W        W33868   4.742  37.444  13.465
65495W        W33869  30.548  16.626  12.515
65496W        W33870  13.233  33.426   0.407
65497W        W33871   8.211   4.409   3.781
65498W        W33872  28.530   6.233   4.627
65499W        W33873  29.106   0.278  13.920
65500W        W33874  44.388   0.359   4.770
65501W        W33875   3.355   7.780  13.337
65502W        W33876   0.968  24.504   1.788
65503W        W33877  23.655  20.240   3.359
65504W        W33878  10.660   8.168  11.454
65505W        W33879  23.713  11.190   3.195
65506W        W33880  43.319   8.344   1.373
65507W        W33881  17.557  26.693   3.191
65508W        W33882  33.113  32.516  14.401
65509W        W33883  42.976  44.271   0.363
65510W        W33884  33.553  34.993  11.102
65511W        W33885  43.486  43.850  14.923
65512W        W33886  41.511  36.450   0.908
65513W        W33887   3.923  27.487   0.454
65514W        W33888  17.152  31.911   0.382
65515W        W33889   7.171  18.728   1.424
65516W        W33890  10.232  20.081   3.687
65517W        W33891  21.596  42.918   2.306
65518W        W33892  26.673  12.143  10.416
65519W        W33893   9.250  22.252   3.173
65520W        W33894  30.597   7.334  11.944
65521W        W33895  37.555  39.440  13.360
65522W        W33896  16.168  43.418  11.971
65523W        W33897   8.294  34.925  13.047
65524W        W33898  10.721  33.488   0.827
65525W        W33899  36.429  21.605  14.347
65526W        W33900  23.990  24.637  14.334
65527W        W33901  37.988  27.686  13.364
65528W        W33902  10.863  18.675   0.336
65529W        W33903  18.260   7.192   4.310
65530W        W33904  18.186  16.188   4.819
65531W        W33905   4.906  34.588  12.867
65532W        W33906   3.949  15.783  12.401
65533W        W33907  34.595  44.819  14.893
65534W        W33908  11.360  21.547  10.522
65535W        W33909  28.555  24.661  10.579
65536W        W33910  35.003  17.571  11.431
65537W        W33911  36.968  43.899   1.413
65538W        W33912  26.493   9.184  10.548
65539W        W33913  29.555  37.474   0.945
65540W        W33914  23.559  43.399  11.998
65541W        W33915   1.787  43.996  14.851
65542W        W33916  38.827   2.435   0.895
65543W        W33917   9.381  38.941  13.815
65544W        W33918  17.739   3.803  11.441
65545W        W33919  41.815  31.137  10.638
65546W        W33920  37.928  12.789   2.241
65547W        W33921  22.206  14.671  12.027
65548W        W33922  41.450   7.343  12.825
65549W        W33923  12.704   2.865  10.963
65550W        W33924  13.246  18.165   2.266
65551W        W33925  39.889   2.450   4.132
65552W        W33926   6.418  14.216   0.473
65553W        W33927  44.317  35.076  11.036
65554W        W33928  42.882   7.767   0.747
65555W        W33929  29.055  12.187   3.820
65556W        W33930  37.421   2.444  13.060
65557W        W33931   5.863  34.874   3.675
65558W        W33932  29.659  30.916  14.491
65559W        W33933  23.027  12.296   0.888
65560W        W33934  39.819  19.063   2.744
65561W        W33935  16.568   3.780   4.809
65562W        W33936  11.274  41.324  13.448
65563W        W33937   9.292  20.722  13.506
65564W        W33938  37.500  25.177  12.927
65565W        W33939   9.273  25.985  13.929
65566W        W33940  26.488   7.184  12.014
65567W        W33941   9.305  30.092   1.774
65568W        W33942   6.737  16.241   1.711
65569W        W33943  40.467   0.767   2.726
65570W        W33944  29.661  11.695   2.315
65571W        W33945  44.813   6.234  11.464
65572W        W33946  36.409  17.776   2.273
65573W        W33947  10.639  20.616  10.465
65574W        W33948   8.668  22.636  10.980
65575W        W33949  40.998  13.304   3.368
65576W        W33950  31.526  26.689  11.866
65577W        W33951  40.986  43.917   1.322
65578W        W33952  34.875   7.336  10.585
65579W        W33953  41.898  36.577  10.935
65580W        W33954  38.464  36.085   3.272
65581W        W33955  16.261   5.426  13.923
65582W        W33956  26.182  21.188  13.962
65583W        W33957  44.491   1.959  14.329
65584W        W33958   2.901  19.620   1.275
65585W        W33959   5.432  18.576  14.486
65586W        W33960  12.226  24.640   4.120
65587W        W33961   0.785  29.451   2.190
65588W        W33962  28.668   4.434   0.940
65589W        W33963  11.208  38.926   2.373
65590W        W33964  14.249   0.347   1.725
65591W        W33965  42.363  12.774  12.829
65592W        W33966  25.211  39.367  12.561
65593W        W33967  13.187  26.010   2.818
65594W        W33968   5.355  20.627   0.314
65595W        W33969  18.093   8.670  12.879
65596W        W33970  18.193   7.696  14.331
65597W        W33971   1.320  37.395  12.465
65598W        W33972  24.631  41.383  13.059
65599W        W33973  17.254  44.403   4.327
65600W        W33974  40.391  21.176   0.410
65601W        W33975  31.137  14.151  10.635
65602W        W33976  12.763  24.687  14.017
65603W        W33977  11.131  28.016  10.532
65604W        W33978  12.192  10.817   1.717
65605W        W33979  43.910  23.182   4.621
65606W        W33980   5.208  37.016   3.695
65607W        W33981  31.994  19.150  11.462
65608W        W33982  16.194  15.737   2.769
65609W        W33983  39.392  15.324   3.272
65610W        W33984  18.648  24.102  12.502
65611W        W33985  42.866  29.009  10.927
65612W        W33986  34.056  37.857   0.757
65613W        W33987  25.038  42.776   4.630
65614W        W33988   9.244   0.257   0.377
65615W        W33989  31.035  37.516  10.968
65616W        W33990   7.379  15.212   1.278
65617W        W33991   5.391  20.649  10.476
65618W        W33992  10.153   7.185  13.966
65619W        W33993   2.886  12.243   2.405
65620W        W33994   9.831  37.440  13.028
65621W        W33995  10.288  18.701  14.859
65622W        W33996   1.777  44.503  10.615
65623W        W33997  42.342   5.894  11.485
65624W        W33998  30.004  24.685  11.066
65625W        W33999   6.774  41.807  13.974
65626W        W34000   7.769  27.968   5.292
65627W        W34001  13.200   1.883   0.287
65628W        W34002  23.629   7.906  12.995
65629W        W34003  14.256  17.652   1.926
65630W        W34004   1.281  22.711   2.264
65631W        W34005   7.203  43.931  13.471
65632W        W34006  39.544  23.178   0.472
65633W        W34007  43.286  33.459  10.532
65634W        W34008  26.165  42.015   0.896
65635W        W34009  22.720  36.579   3.374
65636W        W34010  33.427  20.599   1.750
65637W        W34011  11.723   1.437   2.887
65638W        W34012   3.264   0.858  10.522
65639W        W34013  21.095  15.220  13.529
65640W        W34014  31.507  29.926  11.408
65641W        W34015  43.980  33.062   0.321
65642W        W34016   9.237  27.544   0.425
65643W        W34017  32.928  36.512  14.774
65644W        W34018  20.213   8.851  13.059
65645W        W34019  40.498   2.293  14.277
65646W        W34020  14.801  30.108  12.557
65647W        W34021  31.071  21.248  11.992
65648W        W34022  31.531  10.271   4.668
65649W        W34023  13.339  45.000  10.971
65650W        W34024   7.680  29.121  14.447
65651W        W34025   6.838  23.056   4.148
65652W        W34026   2.451  31.058   0.291
65653W        W34027   1.349  10.205   0.428
65654W        W34028   9.175   9.796  13.440
65655W        W34029  43.290  14.621   4.820
65656W        W34030  36.077  19.728   1.812
65657W        W34031  20.658  37.479  13.930
65658W        W34032   4.388   1.277   3.632
65659W        W34033  10.185  22.670  14.991
65660W        W34034  15.634  12.255   1.291
65661W        W34035   3.231  25.142   4.706
65662W        W34036  24.101  16.734  13.913
65663W        W34037  40.915  28.436   0.913
65664W        W34038  41.303  31.896   1.362
65665W        W34039  38.538  17.072   0.243
65666W        W34040  25.984  30.574  10.452
65667W        W34041   9.855  37.454   3.710
65668W        W34042   6.411  29.575   5.254
65669W        W34043  23.513  14.338   1.296
65670W        W34044   5.856  42.993   0.337
65671W        W34045  28.001   4.839   4.673
65672W        W34046  12.290   1.737  11.611
65673W        W34047   8.195  15.796   3.330
65674W        W34048  19.557  11.760   2.704
65675W        W34049   0.982  20.259  14.840
65676W        W34050  23.068   4.839   0.460
65677W        W34051  13.194  43.279   4.294
65678W        W34052  14.591  10.305  10.095
65679W        W34053  36.990  36.845  10.485
65680W        W34054   3.917  28.070   1.709
65681W        W34055  22.159  11.349  14.806
65682W        W34056   6.764  41.972   0.304
65683W        W34057  37.511  23.720  10.081
65684W        W34058  28.582  42.870   5.729
65685W        W34059   3.285  13.175  14.853
65686W        W34060  12.269   6.852  14.448
65687W        W34061   9.319  44.755  10.939
65688W        W34062  31.419  35.022  14.506
65689W        W34063   6.814  21.675   3.161
65690W        W34064  22.512  35.026  10.516
65691W        W34065  21.196  20.568   2.678
65692W        W34066  26.988  40.517  13.427
65693W        W34067  13.730  23.048   2.252
65694W        W34068  31.930   6.352  11.014
65695W        W34069  41.320   9.202   3.233
65696W        W34070  11.698  24.532  11.419
65697W        W34071  43.895  14.672  14.995
65698W        W34072  13.803  19.084   4.199
65699W        W34073  14.328  30.437   0.351
65700W        W34074  41.362  26.523   4.191
65701W        W34075   8.711  33.574   0.812
65702W        W34076  16.577  28.533   3.795
65703W        W34077   3.747  29.945   1.408
65704W        W34078  21.092  37.945  10.896
65705W        W34079   5.356  21.225   4.815
65706W        W34080  38.560   2.957  12.831
65707W        W34081  14.161   1.469  13.839
65708W        W34082  42.004  17.733  11.069
65709W        W34083   5.758  41.786   3.787
65710W        W34084  15.695  37.343  14.363
65711W        W34085  41.029  39.361  14.909
65712W        W34086  27.081  44.996   2.751
65713W        W34087   6.229  40.386   3.272
65714W        W34088  28.561  11.662  10.482
65715W        W34089  33.982  36.910   1.781
65716W        W34090   5.838  11.306  13.997
65717W        W34091  20.175  28.609  13.898
65718W        W34092  18.634  33.121  10.990
65719W        W34093   7.212   9.247  13.525
65720W        W34094  28.469  26.096   4.833
65721W        W34095  36.857  11.211   3.658
65722W        W34096  20.765  12.129  13.848
65723W        W34097  26.666   1.753  12.891
65724W        W34098  32.607  37.991  12.911
65725W        W34099  18.117  19.164  11.919
65726W        W34100   6.901  16.135  11.600
65727W        W34101  42.464  15.689   0.901
65728W        W34102  13.770   3.796  14.855
65729W        W34103  11.819   1.830  13.460
65730W        W34104   2.282  26.075   2.799
65731W        W34105  43.459   7.275  13.459
65732W        W34106  39.978   7.289   1.348
65733W        W34107  30.967  16.216   0.797
65734W        W34108   9.211  20.668   2.715
65735W        W34109   1.788   9.350   3.697
65736W        W34110  17.635   0.807   2.783
65737W        W34111   6.834  38.415   1.390
65738W        W34112   6.409  28.149  13.946
65739W        W34113  17.071   4.707  13.320
65740W        W34114  34.550  42.394   3.821
65741W        W34115  25.646   9.765  12.978
65742W        W34116   5.716   1.869   2.234
65743W        W34117   0.758  17.147  12.038
65744W        W34118  18.592  21.072  12.344
65745W        W34119  13.629  37.517  11.598
65746W        W34120   3.793   3.417  11.494
65747W        W34121  10.146  16.091  13.868
65748W        W34122  18.197  10.258   3.180
65749W        W34123   3.427  25.481   0.326
65750W        W34124  35.060  13.311   4.330
65751W        W34125  42.315   8.780  14.913
65752W        W34126  15.750   5.297   1.872
65753W        W34127   2.901  40.355  14.299
65754W        W34128  27.624  17.090  13.476
65755W        W34129   3.350   6.381  10.594
65756W        W34130  28.077  23.032  11.484
65757W        W34131  35.091  36.580   2.245
65758W        W34132   5.908  13.157  11.890
65759W        W34133   4.225  36.851  10.591
65760W        W34134  22.152   3.902   4.342
65761W        W34135  31.540  34.519   4.757
65762W        W34136  19.760  43.372  13.489
65763W        W34137  12.135  37.005   3.632
65764W        W34138  31.638   5.929  13.457
65765W        W34139  23.034  30.494   2.300
65766W        W34140  15.120  11.152   3.691
65767W        W34141   0.786  32.481  11.398
65768W        W34142  17.776  37.032   4.821
65769W        W34143  12.725  19.039   3.781
65770W        W34144  36.546  10.732  11.524
65771W        W34145  21.079   1.292  13.391
65772W        W34146  27.519  23.151   0.459
65773W        W34147  34.429   2.379   3.787
65774W        W34148   8.753  13.754  14.513
65775W        W34149   0.867  31.450  13.019
65776W        W34150  14.640  30.940  11.931
65777W        W34151  23.614  20.741  10.903
65778W        W34152  17.274   1.416   4.245
65779W        W34153  21.602  38.432   5.297
65780W        W34154   0.904  43.907  12.390
65781W        W34155   9.689  38.925  11.975
65782W        W34156   7.403  26.670  13.988
65783W        W34157  26.959  23.029   2.804
65784W        W34158   4.708  31.058   4.279
65785W        W34159   2.892  22.726   3.794
65786W        W34160  41.379  10.230   3.717
65787W        W34161  37.017  29.513   0.418
65788W        W34162  35.936  43.960  12.436
65789W        W34163  40.463  28.038   1.305
65790W        W34164  11.722  35.910   1.435
65791W        W34165  38.365  14.302  11.120
65792W        W34166  29.640  26.022   2.380
65793W        W34167   1.277  21.218   2.366
65794W        W34168  30.472  44.834   1.248
65795W        W34169  20.706  37.501   2.781
65796W        W34170  21.043  34.509   2.704
65797W        W34171  25.661  16.105   3.656
65798W        W34172   0.838  30.000  13.407
65799W        W34173  14.765  28.971  12.835
65800W        W34174  38.016  32.439   4.248
65801W        W34175  36.923  42.404  11.906
65802W        W34176  12.233  30.088  13.385
65803W        W34177  36.938  44.965   3.651
65804W        W34178  23.490  41.009   2.221
65805W        W34179  21.518  41.507   3.189
65806W        W34180  11.693  28.488  11.975
65807W        W34181  36.938   0.252  12.872
65808W        W34182   4.823  32.607   1.830
65809W        W34183  33.476  42.301  10.147
65810W        W34184   9.705  30.114   0.455
65811W        W34185   9.392  21.756  13.849
65812W        W34186   4.740  21.142  10.951
65813W        W34187  23.174  43.508   1.314
65814W        W34188  42.480  14.769   0.954
65815W        W34189   4.423  13.633   3.218
65816W        W34190  26.148  39.338  10.533
65817W        W34191  23.113  25.574   1.270
65818W        W34192  10.281  43.910  13.925
65819W        W34193  17.689   9.381  13.796
65820W        W34194   2.827  37.938   1.323
65821W        W34195  35.912  18.699   3.741
65822W        W34196  32.031  37.490   4.778
65823W        W34197  36.881  24.629  10.943
65824W        W34198  19.779  30.962   4.764
65825W        W34199   6.187  18.726   2.752
65826W        W34200  25.654  35.994   4.669
65827W        W34201   5.763  43.889   0.744
65828W        W34202   0.253   4.836  11.425
65829W        W34203  23.626  42.488  14.383
65830W        W34204  41.373  31.948  14.772
65831W        W34205  36.049  23.529  11.875
65832W        W34206  21.261   6.194   3.827
65833W        W34207  38.988  20.261  14.366
65834W        W34208   3.332  38.060   0.795
65835W        W34209   1.977  32.617   2.323
65836W        W34210   7.686   5.765   2.730
65837W        W34211  19.185   3.215   4.287
65838W        W34212  42.401  22.233  10.930
65839W        W34213  39.950  24.996   1.348
65840W        W34214   1.280  13.764   2.879
65841W        W34215  28.030  12.278  13.988
65842W        W34216  30.065  42.499   2.415
65843W        W34217  26.571  36.000  13.901
65844W        W34218  14.677  18.775  14.375
65845W        W34219  12.736  18.129  13.432
65846W        W34220  29.432  44.757   4.676
65847W        W34221  23.560  40.001  11.409
65848W        W34222   0.768  22.046  12.888
65849W        W34223  20.542  24.663   2.388
65850W        W34224  42.463  17.657  13.005
65851W        W34225  11.363  16.691  13.009
65852W        W34226   9.819   9.857   4.790
65853W        W34227   1.794   7.191  13.395
65854W        W34228   8.161   4.797   1.835
65855W        W34229   9.850   8.277  12.400
65856W        W34230  25.132  19.043   0.835
65857W        W34231  36.918  16.637  13.488
65858W        W34232   6.768  24.190  14.758
65859W        W34233  42.986  20.085  13.966
65860W        W34234  27.529  38.405   0.752
65861W        W34235  38.532  12.624   2.734
65862W        W34236  23.551   2.247   0.243
65863W        W34237  34.464  23.083   1.801
65864W        W34238  40.393  25.508   4.161
65865W        W34239   4.321  11.638  14.766
65866W        W34240   7.266  26.684  14.366
65867W        W34241  29.490  36.416  12.043
65868W        W34242  10.199  40.423   1.793
65869W        W34243  19.166  27.041  12.855
65870W        W34244  33.086  41.878  11.044
65871W        W34245  35.877  29.037  13.019
65872W        W34246  26.035  41.401  13.446
65873W        W34247  28.570  21.184  14.895
65874W        W34248  22.534  27.156  11.442
65875W        W34249  21.645  12.686   3.633
65876W        W34250  44.462  11.646  14.461
65877W        W34251  28.978   2.341  11.380
65878W        W34252   5.901  39.839  10.531
65879W        W34253  37.869   0.848  12.559
65880W        W34254  40.401  10.703   1.440
65881W        W34255   9.356  41.478   0.412
65882W        W34256   2.396  20.612   2.336
65883W        W34257  17.239  26.549  13.940
65884W        W34258   4.731  30.620  14.030
65885W        W34259  29.506   6.906  12.881
65886W        W34260  22.995  33.569   4.612
65887W        W34261  19.230   3.815   3.638
65888W        W34262   6.188  29.099  10.986
65889W        W34263   9.290   3.352  12.358
65890W        W34264   8.172  41.411  10.406
65891W        W34265  13.704  39.826  12.866
65892W        W34266  42.368  34.591   1.352
65893W        W34267  29.970  34.405   0.342
65894W        W34268  25.100  43.504  12.081
65895W        W34269  28.947  40.532   0.961
65896W        W34270  14.708   7.789   0.763
65897W        W34271  40.939   0.373  14.856
65898W        W34272  24.609   4.239   1.838
65899W        W34273  38.352  10.668   2.271
65900W        W34274  39.557   9.183  14.859
65901W        W34275  38.058  11.825   4.129
65902W        W34276  24.984  38.470  11.439
65903W        W34277  31.486   2.837   2.738
65904W        W34278  22.076   4.926   2.874
65905W        W34279  44.850  13.134  13.903
65906W        W34280   1.902  12.805  13.348
65907W        W34281  15.230   9.777  12.871
65908W        W34282  28.586  40.035  10.436
65909W        W34283  43.930  16.659  13.061
65910W        W34284  19.744  21.032  13.380
65911W        W34285   0.854   2.809  11.037
65912W        W34286   7.873  14.150  14.007
65913W        W34287   9.815  30.118  12.553
65914W        W34288  15.745   1.326   0.425
65915W        W34289  33.911  10.277   0.299
65916W        W34290  37.530  22.038  10.519
65917W        W34291   1.965  22.625   3.732
65918W        W34292  42.366  31.088  12.855
65919W        W34293  42.793  33.048  11.943
65920W        W34294  44.901  43.013   0.475
65921W        W34295  13.130  22.077   4.638
65922W        W34296   0.764  35.478  11.018
65923W        W34297  23.611   2.274  13.863
65924W        W34298  43.860  39.433  11.987
65925W        W34299  16.311  17.066  14.830
65926W        W34300   5.431  24.700  12.404
65927W        W34301  22.616   2.924   3.251
65928W        W34302  16.762   3.389   3.820
65929W        W34303   8.229  14.324   0.778
65930W        W34304  11.367   3.236   4.201
65931W        W34305  27.975   0.859   1.379
65932W        W34306  20.053  42.981  12.845
65933W        W34307  23.107  15.631  10.469
65934W        W34308  30.492   4.759   1.717
65935W        W34309  12.327  31.919  14.884
65936W        W34310  11.265  43.013   1.397
65937W        W34311  23.010  23.580  10.413
65938W        W34312  21.107  38.074  11.448
65939W        W34313  13.804  36.951   3.638
65940W        W34314  42.870  42.316   4.156
65941W        W34315   1.960   4.750  11.885
65942W        W34316  17.574  43.977  13.359
65943W        W34317  11.339  19.661   2.398
65944W        W34318  17.569  20.523  10.542
65945W        W34319  35.580  39.988  11.565
65946W        W34320  15.670  10.282  10.435
65947W        W34321  36.369  37.519  12.845
65948W        W34322   9.366   9.885   0.446
65949W        W34323   8.198  39.985  10.930
65950W        W34324  38.352  39.468   0.814
65951W        W34325   5.779   7.222   2.250
65952W        W34326  43.986  23.568   1.426
65953W        W34327  44.939  21.181   3.255
65954W        W34328   6.425  42.294   4.129
65955W        W34329   4.390  40.884  13.872
65956W        W34330  21.228  27.187   3.750
65957W        W34331  28.147   1.888  14.023
65958W        W34332  39.860  42.425   2.394
65959W        W34333  24.148  42.964   2.734
65960W        W34334  28.995  19.697  14.959
65961W        W34335   3.749  39.903  14.499
65962W        W34336  14.251   0.743   2.824
65963W        W34337  13.652  44.443   0.843
65964W        W34338  40.375  28.573   2.240
65965W        W34339  15.189   8.345  11.553
65966W        W34340  41.492  18.217  13.807
65967W        W34341  16.084   7.359  11.433
65968W        W34342  17.279  10.741  11.394
65969W        W34343   7.878  17.219   3.385
65970W        W34344   5.398  18.177   4.697
65971W        W34345  16.073   8.236   0.455
65972W        W34346  14.716  33.405   4.655
65973W        W34347  36.024   4.906  11.597
65974W        W34348  34.970  22.223   4.665
65975W        W34349  35.394  27.020  10.492
65976W        W34350  20.716  40.028   5.113
65977W        W34351  13.137  29.966   1.887
65978W        W34352  15.242  36.465  14.412
65979W        W34353  13.264   3.457  10.550
65980W        W34354  33.993  35.933  13.874
65981W        W34355  26.028  21.183  11.041
65982W        W34356  26.662   7.316   1.227
65983W        W34357   4.449   7.823   3.782
65984W        W34358  43.984  44.924  11.057
65985W        W34359  21.125   3.377   1.238
65986W        W34360   2.854  12.711   4.741
65987W        W34361  40.042  33.984   0.451
65988W        W34362  33.561  35.587  13.975
65989W        W34363   9.316  34.074   0.454
65990W        W34364  30.944  11.134  13.507
65991W        W34365  38.025   9.834   0.427
65992W        W34366   0.271  24.046   4.828
65993W        W34367  16.735  44.269  13.926
65994W        W34368   9.882   8.780   2.806
65995W        W34369  31.139  32.410   0.865
65996W        W34370  26.066  14.298   4.156
65997W        W34371  42.516  44.994   4.641
65998W        W34372  19.752  17.148  13.453
65999W        W34373  39.958  13.262  13.509
66000W        W34374  34.097  24.487   3.214
66001W        W34375   6.328   3.445  11.405
66002W        W34376  10.333  35.544  10.963
66003W        W34377  19.696  17.089   4.259
66004W        W34378  43.499   4.853  13.047
66005W        W34379  29.131  11.761  12.880
66006W        W34380  18.569  39.816   4.250
66007W        W34381  36.447  21.249   1.433
66008W        W34382   7.730  15.210   2.855
66009W        W34383   7.698   0.862  14.005
66010W        W34384  16.164  15.093  14.400
66011W        W34385   6.258  33.993  13.495
66012W        W34386   2.377  44.774  12.356
66013W        W34387  22.084  31.636  14.915
66014W        W34388  15.266  25.072   0.929
66015W        W34389  36.387  41.864  14.403
66016W        W34390  24.701  24.637  11.969
66017W        W34391  36.414   7.677   4.789
66018W        W34392  35.489  26.197  13.966
66019W        W34393  36.872  38.379   0.866
66020W        W34394  10.686   3.391   3.843
66021W        W34395  19.548   7.783  11.382
66022W        W34396  15.580   9.768  10.644
66023W        W34397  23.996   2.793  11.022
66024W        W34398  22.562  41.356   2.807
66025W        W34399  30.951  43.400   3.319
66026W        W34400   7.305  21.521  11.060
66027W        W34401  20.728   3.852   3.793
66028W        W34402  11.352  40.360  11.112
66029W        W34403  28.007  16.089   1.258
66030W        W34404  10.319  11.200  12.374
66031W        W34405  25.209  18.692  11.055
66032W        W34406   7.289   2.730   9.987
66033W        W34407  27.186  40.947  14.929
66034W        W34408  11.845   7.228   2.879
66035W        W34409  25.186  34.489   0.436
66036W        W34410  40.533  29.642  10.925
66037W        W34411  41.436  35.051  12.569
66038W        W34412  20.697   9.247   4.620
66039W        W34413  44.458   4.288  13.889
66040W        W34414  27.456   5.378   4.208
66041W        W34415  10.651   6.807  14.974
66042W        W34416  41.806  39.832   0.763
66043W        W34417   3.331  28.442  11.107
66044W        W34418  22.067  12.140  14.022
66045W        W34419   6.386  12.651   4.171
66046W        W34420  26.158  20.153   2.376
66047W        W34421  25.581   5.696  12.431
66048W        W34422   7.783   2.826  10.411
66049W        W34423  32.637  39.492  13.538
66050W        W34424  20.649  10.214  12.495
66051W        W34425  33.877  42.471   0.373
66052W        W34426  39.008  44.968   3.795
66053W        W34427  40.974   8.691   3.690
66054W        W34428  44.950  44.387  13.878
66055W        W34429   2.963  39.887   4.787
66056W        W34430  13.798  25.638  11.020
66057W        W34431  31.101   2.354  14.417
66058W        W34432   4.822  30.518  14.481
66059W        W34433  13.168   7.774  14.769
66060W        W34434  31.486  15.148  12.862
66061W        W34435   3.397  12.664   0.770
66062W        W34436  22.730  40.903  13.899
66063W        W34437  36.995   7.727   3.328
66064W        W34438  11.159   7.349   4.200
66065W        W34439  43.853  33.493  12.035
66066W        W34440  36.584  19.596   1.339
66067W        W34441   9.231  20.057   5.274
66068W        W34442  34.119  16.218  10.895
66069W        W34443   7.403  35.530  13.969
66070W        W34444  25.552  35.539  13.408
66071W        W34445  16.107  34.388  13.008
66072W        W34446  40.337  27.082   2.861
66073W        W34447  25.187   4.896  12.856
66074W        W34448   6.803  27.455   4.183
66075W        W34449  34.559  26.061   0.909
66076W        W34450  42.928  24.562  13.369
66077W        W34451   6.834  25.598   3.347
66078W        W34452  11.844  22.173   1.929
66079W        W34453  26.109  39.941  11.968
66080W        W34454  36.952  16.724  11.538
66081W        W34455  10.164  25.670  11.997
66082W        W34456  40.968  16.106  13.424
66083W        W34457  17.206  26.128   0.877
66084W        W34458  17.787   4.776  14.486
66085W        W34459  20.635  42.944   4.226
66086W        W34460  30.452  19.070  10.575
66087W        W34461   4.246  30.990  13.918
66088W        W34462   3.292  21.159   0.370
66089W        W34463  41.358  14.150  10.465
66090W        W34464  15.820  24.616   0.750
66091W        W34465  36.550   0.923   4.143
66092W        W34466  14.141   9.830   4.140
66093W        W34467  10.800  23.986  13.368
66094W        W34468  36.982  17.559  13.919
66095W        W34469  36.435   0.327   4.349
66096W        W34470  40.332  44.828   4.793
66097W        W34471  37.056  14.678  11.894
66098W        W34472  26.644  37.945   1.869
66099W        W34473  12.147  26.554  10.990
66100W        W34474   4.914  33.429  10.610
66101W        W34475   9.296  30.970   5.215
66102W        W34476  22.104   0.333  14.394
66103W        W34477   9.853  38.528   4.838
66104W        W34478  27.609  26.661  11.884
66105W        W34479   2.349  17.758   3.346
66106W        W34480  32.900   9.699  14.853
66107W        W34481   3.300   9.238  10.571
66108W        W34482  24.500   3.434  11.597
66109W        W34483  28.588  41.450  14.370
66110W        W34484  25.516  24.052   5.085
66111W        W34485  20.034  15.651  14.350
66112W        W34486  36.496   4.825   1.271
66113W        W34487  11.868  26.516  11.417
66114W        W34488  17.691  15.235  12.520
66115W        W34489  11.246  11.796  10.508
66116W        W34490  28.628  39.037  12.026
66117W        W34491  44.808  28.545   2.356
66118W        W34492  38.332   3.411  13.035
66119W        W34493  24.716   5.254  13.381
66120W        W34494   4.220  30.575  14.995
66121W        W34495  27.676   0.743  13.844
66122W        W34496  21.694  19.539   2.271
66123W        W34497   3.461  29.127   1.733
66124W        W34498  26.556  27.610  13.009
66125W        W34499  28.003  36.042  10.595
66126W        W34500  33.411   0.796   1.372
66127W        W34501  19.540  11.344   4.149
66128W        W34502  10.349  18.113   1.705
66129W        W34503   1.940  37.969  13.452
66130W        W34504   3.903  42.826  13.438
66131W        W34505   7.903   9.705   0.851
66132W        W34506  10.325   4.834  10.075
66133W        W34507  13.238  35.903  13.421
66134W        W34508  27.666  29.918  10.453
66135W        W34509  10.661   4.922   0.939
66136W        W34510  32.617  31.902  10.153
66137W        W34511  33.441  18.778   1.837
66138W        W34512   6.428  34.040  14.463
66139W        W34513   4.334  37.048   4.145
66140W        W34514  33.924  30.913  13.476
66141W        W34515   7.872  25.213   3.727
66142W        W34516  28.983   9.793  14.948
66143W        W34517   7.707  24.182   0.462
66144W        W34518  24.124  31.422   1.822
66145W        W34519  17.708  32.952   2.321
66146W        W34520   0.852  41.448  11.918
66147W        W34521  40.030  10.765   2.849
66148W        W34522  25.529  41.458  10.576
66149W        W34523  28.461  24.563  12.532
66150W        W34524  25.511  32.624  12.997
66151W        W34525  34.053  28.949   0.738
66152W        W34526  29.579  37.037  13.540
66153W        W34527  40.475  23.490   4.158
66154W        W34528   9.849  38.970   2.686
66155W        W34529  21.536  23.198  14.942
66156W        W34530  14.295   0.457   1.439
66157W        W34531  34.063  28.092  12.061
66158W        W34532  44.264  20.133   3.224
66159W        W34533  35.030  31.023   2.384
66160W        W34534  24.060  16.304   3.734
66161W        W34535  32.600  24.713   2.345
66162W        W34536   6.826   3.739  12.420
66163W        W34537  41.913  33.518   2.205
66164W        W34538  23.084   8.172   4.838
66165W        W34539  17.209  40.994   0.729
66166W        W34540  18.746  35.410  14.359
66167W        W34541   2.465  13.813  14.868
66168W        W34542   9.289   2.912   1.798
66169W        W34543  27.551  31.022  13.522
66170W        W34544  19.630  40.806  10.461
66171W        W34545  28.114   8.658   1.736
66172W        W34546  16.782  38.435   1.731
66173W        W34547  23.092  20.181   2.220
66174W        W34548  34.444   5.857  12.360
66175W        W34549  34.014  37.547  12.354
66176W        W34550   6.263  23.726  10.138
66177W        W34551  29.078   4.418  12.395
66178W        W34552  11.667  34.510  14.995
66179W        W34553  21.091  13.690   3.166
66180W        W34554   9.693  18.585  11.527
66181W        W34555  25.075  26.076  12.544
66182W        W34556   1.367  16.767   0.865
66183W        W34557  22.647  19.573  10.410
66184W        W34558  38.457  14.756   2.214
66185W        W34559  27.583  40.916   0.312
66186W        W34560  41.476  18.779  14.460
66187W        W34561  13.335  15.741   5.287
66188W        W34562  40.527  10.292   4.667
66189W        W34563  44.800  41.962   1.842
66190W        W34564  34.533  14.229   2.901
66191W        W34565  20.081  37.849  11.091
66192W        W34566  30.950   6.912   1.445
66193W        W34567  29.010   5.707   1.215
66194W        W34568  11.250  35.560  11.495
66195W        W34569  17.794  17.086  12.864
66196W        W34570   9.727   5.908  14.939
66197W        W34571  43.887  11.798  14.758
66198W        W34572   8.250  11.142   1.918
66199W        W34573   7.715   3.384   5.248
66200W        W34574  20.577  30.046  12.887
66201W        W34575  15.763  37.534  12.567
66202W        W34576   0.293  41.435  11.466
66203W        W34577  17.785  30.652  13.391
66204W        W34578   2.353   0.859   3.686
66205W        W34579   9.320  17.266   4.636
66206W        W34580  30.503  15.759  14.778
66207W        W34581  33.919  34.100   1.273
66208W        W34582   3.430  28.956  12.031
66209W        W34583  43.277   6.342  14.275
66210W        W34584  21.057  42.512  14.029
66211W        W34585  27.163  10.702   2.725
66212W        W34586   1.875  12.839  13.828
66213W        W34587  26.074  20.083  12.434
66214W        W34588  31.987  14.117   4.139
66215W        W34589  26.973  19.144  11.581
66216W        W34590  40.836  23.510   0.900
66217W        W34591  30.939  39.843   0.760
66218W        W34592  32.123  16.228   2.245
66219W        W34593  40.012  36.022  11.889
66220W        W34594  33.899  17.271   2.237
66221W        W34595  10.323  26.621   4.720
66222W        W34596  32.506  43.377   2.713
66223W        W34597  11.766  20.739   3.818
66224W        W34598  18.591  37.569  13.357
66225W        W34599  43.802   4.832  14.446
66226W        W34600  10.246  26.469   1.889
66227W        W34601  34.948  38.826   3.868
66228W        W34602   9.649  17.802  12.062
66229W        W34603   4.849  18.734   0.406
66230W        W34604  27.948  16.306   4.628
66231W        W34605  36.020  20.673   2.832
66232W        W34606  36.015  12.776   4.323
66233W        W34607  16.595   5.743  11.940
66234W        W34608   2.419  17.277  13.050
66235W        W34609  29.002   9.811   4.150
66236W        W34610  12.324  17.281   4.257
66237W        W34611  25.178   1.855  14.948
66238W        W34612  37.865  18.069  13.533
66239W        W34613   0.455   4.343  13.854
66240W        W34614  10.740  43.484  11.563
66241W        W34615  12.154  29.494   0.909
66242W        W34616  13.631  18.074  13.409
66243W        W34617  15.821  35.875   4.310
66244W        W34618  30.451  23.109   4.689
66245W        W34619  22.555  14.802   4.807
66246W        W34620   4.296  17.619   1.428
66247W        W34621  31.418  26.485  13.345
66248W        W34622  29.150  32.428  12.524
66249W        W34623  24.129   6.774   2.268
66250W        W34624  40.051  16.723   2.812
66251W        W34625  27.561  27.534   0.938
66252W        W34626  27.500  31.018  13.907
66253W        W34627   0.790  21.236   5.239
66254W        W34628  29.105  32.416  11.033
66255W        W34629  29.625  23.534  13.813
66256W        W34630  28.578  18.175  13.454
66257W        W34631   9.819  44.447  10.028
66258W        W34632  21.195  38.358  12.076
66259W        W34633  11.262  35.932  10.590
66260W        W34634  15.781  18.070   0.863
66261W        W34635  12.747  41.519  11.528
66262W        W34636  10.784  26.672   3.809
66263W        W34637  30.980   2.750  12.825
66264W        W34638  33.539  24.120   3.862
66265W        W34639  35.380  20.150  10.465
66266W        W34640  29.946  22.620  14.448
66267W        W34641  26.520   3.901  12.094
66268W        W34642  18.116  16.581   1.833
66269W        W34643  10.262  42.308   1.718
66270W        W34644   5.352   0.959   0.251
66271W        W34645  18.070  23.096   0.367
66272W        W34646  24.576  10.700   3.823
66273W        W34647  12.790  10.771  10.441
66274W        W34648   3.290   6.718  13.535
66275W        W34649  43.466  38.997   2.336
66276W        W34650  12.211  22.159   1.434
66277W        W34651  27.666  33.088   4.299
66278W        W34652  14.699  26.660   9.946
66279W        W34653  10.365  26.596  13.954
66280W        W34654  37.061  42.978  14.930
66281W        W34655  31.133  27.969  14.335
66282W        W34656   4.812  36.378  12.343
66283W        W34657  19.186  39.485   0.806
66284W        W34658  26.461  29.158  10.951
66285W        W34659   9.370  37.912  11.457
66286W        W34660  24.717  41.798  12.424
66287W        W34661   5.894   5.715  10.563
66288W        W34662   1.939  32.049   3.682
66289W        W34663   5.720   7.741  14.307
66290W        W34664   0.393  33.493  13.919
66291W        W34665  38.941   6.231   4.610
66292W        W34666  39.854  29.626  14.026
66293W        W34667  15.720   5.722   4.331
66294W        W34668  24.572  24.597   1.364
66295W        W34669  24.135  38.023   4.621
66296W        W34670  33.436  20.115  12.829
66297W        W34671  28.447  44.334   3.795
66298W        W34672  25.529  13.183  13.895
66299W        W34673   5.754  22.078   0.871
66300W        W34674   5.931  15.113  11.961
66301W        W34675  24.031  30.613   4.700
66302W        W34676   7.888  22.060  12.883
66303W        W34677   3.915   4.723   2.400
66304W        W34678  24.649  17.720   4.621
66305W        W34679  33.958  12.296   2.396
66306W        W34680  13.107  12.809  10.902
66307W        W34681  38.457  21.631   3.865
66308W        W34682  15.276   2.728   2.774
66309W        W34683  28.634   7.366   4.307
66310W        W34684  35.922  21.116   1.269
66311W        W34685  36.472  21.607   2.299
66312W        W34686  15.591  25.194  14.025
66313W        W34687  41.446   4.811   0.736
66314W        W34688  28.568  44.308  10.437
66315W        W34689  10.258   6.208   3.261
66316W        W34690  16.586  24.077  13.918
66317W        W34691  14.759  32.604   1.921
66318W        W34692  14.811  20.120   1.354
66319W        W34693  10.786   4.314   0.728
66320W        W34694   4.703  36.354   1.822
66321W        W34695   6.288  28.041   4.731
66322W        W34696  24.984  10.195  14.010
66323W        W34697  34.603  29.159  14.424
66324W        W34698  25.169  43.513   2.194
66325W        W34699  13.229   5.311  13.438
66326W        W34700  13.178  17.762   0.797
66327W        W34701  29.473  15.772   0.848
66328W        W34702  22.183   0.895   4.325
66329W        W34703  14.816  16.716  13.946
66330W        W34704  29.946   0.272   3.195
66331W        W34705  23.003  40.365  13.901
66332W        W34706  34.578  33.497   4.723
66333W        W34707   6.832  32.022   0.278
66334W        W34708  39.882  34.543   3.763
66335W        W34709  41.907  14.193   0.324
66336W        W34710  20.063  43.784  10.888
66337W        W34711   0.406  15.715   1.901
66338W        W34712  42.786  39.024   3.235
66339W        W34713  39.352  12.173  12.045
66340W        W34714  23.222  42.777  12.356
66341W        W34715  19.610   5.727  10.485
66342W        W34716  22.067  42.311   3.722
66343W        W34717  34.013  19.597  12.910
66344W        W34718  31.549  41.828  14.783
66345W        W34719   6.280  17.213   4.766
66346W        W34720  38.026  44.958   1.268
66347W        W34721  23.215  24.093   0.925
66348W        W34722  38.945  11.750   2.810
66349W        W34723  17.702  33.938   4.745
66350W        W34724  39.444   0.746   2.888
66351W        W34725  22.627   3.785   3.145
66352W        W34726  16.283  17.598  11.373
66353W        W34727   7.892  39.477   4.118
66354W        W34728  13.664  23.622   2.738
66355W        W34729  33.483  24.664   4.334
66356W        W34730   5.698  27.197  11.976
66357W        W34731  40.863  16.788   0.379
66358W        W34732  12.135   2.450  14.853
66359W        W34733  15.605  14.206   2.249
66360W        W34734   3.220  41.793  13.384
66361W        W34735  15.698  15.283   2.236
66362W        W34736   9.813  17.764   2.872
66363W        W34737  39.033   9.696  11.127
66364W        W34738  38.051  16.657  11.521
66365W        W34739  38.871  30.053  12.831
66366W        W34740  27.056  18.289  11.109
66367W        W34741  20.028   2.379  12.423
66368W        W34742   8.834  11.180   2.187
66369W        W34743  43.507  12.662   2.384
66370W        W34744  34.868  35.367  14.795
66371W        W34745   2.870  15.775  12.881
66372W        W34746  28.157   8.286  11.972
66373W        W34747  23.065   6.713   4.781
66374W        W34748  30.007  43.795   3.866
66375W        W34749   4.366  13.806   4.632
66376W        W34750   9.820  38.479   2.669
66377W        W34751   5.389   6.700   0.885
66378W        W34752  18.697  34.441  10.608
66379W        W34753   8.207   8.276   1.311
66380W        W34754  39.470  37.014  11.865
66381W        W34755   4.743   3.720   3.793
66382W        W34756  40.819  15.203  11.907
66383W        W34757   0.420  11.157   1.702
66384W        W34758  40.807  10.826   3.366
66385W        W34759   2.889  26.503  10.932
66386W        W34760   2.322   0.860  14.976
66387W        W34761  30.475  13.665  14.418
66388W        W34762  23.517  34.913   4.608
66389W        W34763  44.762  36.931  10.600
66390W        W34764  31.964  27.626   0.439
66391W        W34765  23.688  35.402   0.878
66392W        W34766  27.957  39.830  12.346
66393W        W34767  21.749  24.688   4.799
66394W        W34768  18.742  16.653   0.255
66395W        W34769  40.831  11.253  14.444
66396W        W34770  16.602   9.761   4.288
66397W        W34771  35.939  42.898  10.961
66398W        W34772   1.798   4.899   1.276
66399W        W34773   2.791  37.480  13.874
66400W        W34774  15.097  36.954   0.343
66401W        W34775   6.378  31.600  12.421
66402W        W34776  26.081  43.467   0.404
66403W        W34777  39.552  37.502  14.378
66404W        W34778  23.562   2.920   3.671
66405W        W34779   3.373   5.840  10.102
66406W        W34780  16.717  25.199   3.735
66407W        W34781  39.880   3.795  13.901
66408W        W34782  42.859   6.415   0.260
66409W        W34783  35.916  32.091   1.425
66410W        W34784  16.091  40.422  12.937
66411W        W34785  21.555   5.885  12.376
66412W        W34786  10.295   2.421   0.823
66413W        W34787  19.253  13.835  13.850
66414W        W34788   7.367  16.196   2.859
66415W        W34789  18.252  21.125   0.474
66416W        W34790  35.475  18.713  13.418
66417W        W34791  44.482  44.296  10.551
66418W        W34792   2.318  18.186   1.796
66419W        W34793   6.208  36.503   4.838
66420W        W34794  19.041  26.124  11.531
66421W        W34795  23.617   5.895   0.423
66422W        W34796  44.800  39.060   1.840
66423W        W34797  27.941  24.674   4.627
66424W        W34798   8.886  37.461  12.049
66425W        W34799  12.724  11.823   0.967
66426W        W34800  43.768   8.725   2.797
66427W        W34801   5.427  14.795   2.901
66428W        W34802  33.072  44.869  14.799
66429W        W34803   2.758   8.760  12.871
66430W        W34804  37.062  26.993  14.971
66431W        W34805  41.364   1.846  13.422
66432W        W34806  43.301  21.258   4.313
66433W        W34807  30.493  31.600  12.866
66434W        W34808  29.444  21.174   4.794
66435W        W34809  43.329  44.273  13.853
66436W        W34810  27.011  15.095   3.374
66437W        W34811  34.013   7.872   0.814
66438W        W34812  12.793  26.697  10.416
66439W        W34813  27.008   2.313  10.519
66440W        W34814   1.334   5.699   4.292
66441W        W34815  12.270   3.323  11.579
66442W        W34816  10.647  27.025   0.911
66443W        W34817  22.519  43.831  13.418
66444W        W34818  33.604  38.357  12.093
66445W        W34819  39.925  21.105  11.902
66446W        W34820  32.406  30.477  10.407
66447W        W34821  21.033  23.609  14.387
66448W        W34822  32.966  23.065  10.636
66449W        W34823   2.826  33.425   0.733
66450W        W34824  44.969  31.626   0.842
66451W        W34825  44.774  28.107  12.519
66452W        W34826   5.220  13.731   4.306
66453W        W34827   3.954  14.657   2.670
66454W        W34828  24.677  19.108   2.857
66455W        W34829  26.536  16.212  12.393
66456W        W34830  19.121   6.757   0.839
66457W        W34831  13.285  42.396  14.906
66458W        W34832  37.426  28.488  14.763
66459W        W34833  42.430   0.334   0.857
66460W        W34834  25.061  38.822  13.912
66461W        W34835   8.886  14.719  11.902
66462W        W34836  16.204   0.932   0.869
66463W        W34837  19.204  42.026  14.767
66464W        W34838   2.786   9.166   0.887
66465W        W34839  15.154  10.233   0.351
66466W        W34840  34.555  11.323  11.591
66467W        W34841  19.084  20.535   4.270
66468W        W34842  32.955  41.371  14.809
66469W        W34843   8.236  32.088  12.824
66470W        W34844  35.447  23.018   2.698
66471W        W34845  15.760  26.496   4.242
66472W        W34846   8.237  30.105   0.767
66473W        W34847   2.780   5.220  13.342
66474W        W34848  30.001  44.902   4.297
66475W        W34849  26.620   9.876   4.255
66476W        W34850  31.898  10.294  11.858
66477W        W34851  20.122   3.888   3.146
66478W        W34852   4.848  41.933   4.303
66479W        W34853  25.514  23.729   3.184
66480W        W34854  13.156   4.751  11.601
66481W        W34855  36.588  34.390   4.347
66482W        W34856  16.299  35.416   2.381
66483W        W34857  44.463   0.325  11.395
66484W        W34858  33.596  35.015   3.856
66485W        W34859  29.927  11.278  14.296
66486W        W34860  28.034  30.120   3.293
66487W        W34861  22.147  33.072   1.365
66488W        W34862   9.188   4.228   2.253
66489W        W34863   3.301   7.696  12.060
66490W        W34864  39.553  44.493   0.406
66491W        W34865  38.884  28.125  13.424
66492W        W34866   2.726  26.196  14.349
66493W        W34867   8.737   6.868  13.442
66494W        W34868  15.786  42.467   4.801
66495W        W34869  27.187  20.214  14.279
66496W        W34870  14.718  44.404  13.542
66497W        W34871  24.122   6.407   0.457
66498W        W34872  19.169  14.112   4.624
66499W        W34873  44.895  39.041  13.491
66500W        W34874   4.432  18.650   2.380
66501W        W34875   1.744  29.956   1.889
66502W        W34876  39.435  22.167   4.674
66503W        W34877  31.098  20.056   0.807
66504W        W34878  21.748  41.903  13.960
66505W        W34879  13.309  32.482   3.338
66506W        W34880  21.653  40.910   5.089
66507W        W34881  13.751  34.406   2.329
66508W        W34882  14.756  37.380  11.577
66509W        W34883  32.489   5.816   0.727
66510W        W34884  29.670  28.969  14.940
66511W        W34885  30.051   4.418  12.838
66512W        W34886  18.556  44.387  14.276
66513W        W34887  11.153  23.572   2.813
66514W        W34888  16.216   5.813   0.422
66515W        W34889  25.203  23.493   4.116
66516W        W34890   5.841   6.182  11.870
66517W        W34891  38.552  22.504   1.896
66518W        W34892  42.987  24.154   1.287
66519W        W34893  42.998  19.220  11.594
66520W        W34894   6.890  26.508   0.282
66521W        W34895   3.912   4.720  12.919
66522W        W34896  14.601   5.725  13.425
66523W        W34897  16.185  25.020   2.865
66524W        W34898   5.370  23.199   0.881
66525W        W34899  24.610  32.631   0.884
66526W        W34900   5.215  17.592  13.815
66527W        W34901  31.539  11.137  11.021
66528W        W34902  32.536   4.834   3.151
66529W        W34903   9.855  23.712  12.483
66530W        W34904  43.888  19.260  14.930
66531W        W34905   3.914  28.071   3.772
66532W        W34906   4.720  11.261  13.047
66533W        W34907  10.785  34.883   1.239
66534W        W34908  41.503  22.229  11.494
66535W        W34909  18.271  44.407   4.136
66536W        W34910   8.361  18.698  12.448
66537W        W34911  29.938  30.131   2.900
66538W        W34912  10.269  44.877   0.419
66539W        W34913  37.556  16.179  12.926
66540W        W34914  17.071  38.851   2.751
66541W        W34915  31.563  23.554  11.457
66542W        W34916  29.593  38.867   3.635
66543W        W34917  23.515  13.331   3.360
66544W        W34918  20.620  13.610   4.641
66545W        W34919  26.473   3.424   4.342
66546W        W34920  33.046  43.767   3.371
66547W        W34921  41.835  36.914  11.539
66548W        W34922  31.021  35.444   0.861
66549W        W34923  13.298  39.028   5.319
66550W        W34924  25.486  10.773  14.447
66551W        W34925  40.805   3.932  14.866
66552W        W34926  38.946  34.970  12.549
66553W        W34927  42.886  11.852  13.793
66554W        W34928  26.988  30.640  12.896
66555W        W34929  16.667   8.190  12.540
66556W        W34930   2.304  25.046   5.121
66557W        W34931   7.695  21.061   2.186
66558W        W34932   8.238  35.973   0.922
66559W        W34933  33.431  39.550  14.924
66560W        W34934  15.228  28.146   0.738
66561W        W34935  40.805  38.380  14.809
66562W        W34936  27.190  39.512   0.808
66563W        W34937   5.697  14.211  10.451
66564W        W34938  16.600  14.268   3.312
66565W        W34939   1.251  19.251  12.826
66566W        W34940   1.471  44.902   2.392
66567W        W34941  14.126   5.697   2.385
66568W        W34942  26.953  44.764  14.900
66569W        W34943  29.096  27.999  10.546
66570W        W34944   8.669   4.230   4.198
66571W        W34945  37.416   4.787   2.846
66572W        W34946  13.344  21.694   2.326
66573W        W34947  34.411   2.792  10.419
66574W        W34948   4.879  41.833   1.753
66575W        W34949  36.489  16.142   2.258
66576W        W34950  13.784  29.097   1.719
66577W        W34951  29.449   9.284   2.674
66578W        W34952  27.668  35.007   4.248
66579W        W34953  37.894  29.989  10.493
66580W        W34954  28.524  23.078   2.737
66581W        W34955  26.566  32.081   2.882
66582W        W34956   7.872  43.353   0.768
66583W        W34957  10.633  34.442   3.155
66584W        W34958  12.749  29.540   3.842
66585W        W34959  11.740  25.546   4.280
66586W        W34960  20.155  37.433   2.178
66587W        W34961   5.355   0.835   4.159
66588W        W34962  21.236  37.865  10.428
66589W        W34963   1.772   9.747   3.797
66590W        W34964  37.441  40.313  14.288
66591W        W34965  15.109  30.930  10.544
66592W        W34966   7.391  31.995   1.423
66593W        W34967  19.164  31.458  13.411
66594W        W34968  28.628  10.333  14.497
66595W        W34969  31.637  17.237   1.729
66596W        W34970  33.030  42.925   1.274
66597W        W34971   9.354  25.032  11.048
66598W        W34972  42.875  14.594  12.461
66599W        W34973  30.028  35.382  11.502
66600W        W34974  15.189  42.870   4.335
66601W        W34975  35.975  11.303  10.444
66602W        W34976  18.151   8.828  12.480
66603W        W34977  24.562   7.872   0.266
66604W        W34978  27.940  23.716  13.806
66605W        W34979  37.866  12.320   3.170
66606W        W34980   3.430  32.559   4.248
66607W        W34981  10.662   4.211   0.446
66608W        W34982   0.474  32.579   1.837
66609W        W34983   5.237  44.829   1.903
66610W        W34984  41.351   3.261   2.886
66611W        W34985  20.568  29.034   2.338
66612W        W34986   8.276  18.772  14.791
66613W        W34987   8.221  40.985  13.988
66614W        W34988  38.946  17.073   4.701
66615W        W34989  21.678  12.217   1.879
66616W        W34990  21.216  30.049  14.931
66617W        W34991  29.439  28.181  11.005
66618W        W34992  43.849   4.847  12.404
66619W        W34993   6.405  24.153  13.371
66620W        W34994   7.819  32.904  13.959
66621W        W34995  36.033  22.612  11.538
66622W        W34996  35.483  35.091   1.783
66623W        W34997  24.671  36.856   1.293
66624W        W34998  13.605  39.924  14.322
66625W        W34999  17.613  15.667  10.891
66626W        W35000  29.633   3.425  14.450
66627W        W35001   5.196  32.020  14.025
66628W        W35002  32.430  29.015  13.532
66629W        W35003   3.393  11.350   1.747
66630W        W35004   3.893  29.508   1.349
66631W        W35005  15.231  19.672  12.862
66632W        W35006  21.512  29.159  10.967
66633W        W35007  38.844  40.382  14.997
66634W        W35008  32.121  42.307  14.901
66635W        W35009  36.016  34.585  12.824
66636W        W35010  32.993   7.866   2.366
66637W        W35011  20.527  17.253  10.424
66638W        W35012  23.132   0.883  11.875
66639W        W35013  11.631  35.553   0.921
66640W        W35014   6.356   4.300  13.910
66641W        W35015   6.294  14.150   2.415
66642W        W35016  18.608   7.754   2.263
66643W        W35017  15.246  40.440   4.824
66644W        W35018   2.727   7.241  14.451
66645W        W35019  30.121  26.573  13.493
66646W        W35020  15.085  39.933   4.311
66647W        W35021  43.374  10.268   2.391
66648W        W35022  31.464  41.020  14.373
66649W        W35023   9.761  28.475  12.498
66650W        W35024  26.560  35.459  13.989
66651W        W35025  19.685  11.779  11.943
66652W        W35026  27.110  30.539  13.535
66653W        W35027  22.997   4.265   3.161
66654W        W35028   2.255  18.669  13.494
66655W        W35029  16.221  13.684  12.530
66656W        W35030   1.460  14.235   2.696
66657W        W35031  38.403   5.276  11.126
66658W        W35032  42.919  38.903   4.299
66659W        W35033  34.532   1.761  12.469
66660W        W35034  36.459   7.270   5.169
66661W        W35035  38.560  39.893   0.472
66662W        W35036  19.192  32.485  13.865
66663W        W35037  16.128  22.557  12.422
66664W        W35038  29.939  32.037  10.931
66665W        W35039  13.763  13.672  12.417
66666W        W35040  40.457  20.106  10.959
66667W        W35041  20.162  14.186   1.846
66668W        W35042   5.425  39.996  11.952
66669W        W35043  39.508  15.618  13.972
66670W        W35044  21.036  39.332  13.885
66671W        W35045   0.298  39.361  10.405
66672W        W35046   1.917  40.936   2.178
66673W        W35047  13.628  10.141   4.307
66674W        W35048  37.388   2.304   2.288
66675W        W35049  23.705  19.660   4.154
66676W        W35050  43.473   2.842   2.345
66677W        W35051  13.114  15.219  11.121
66678W        W35052  36.362  25.154   2.313
66679W        W35053  17.770  39.824   4.609
66680W        W35054  40.421   9.158   4.672
66681W        W35055  10.747  12.750   1.845
66682W        W35056  17.574   3.293   2.662
66683W        W35057   6.387  30.659  12.340
66684W        W35058  16.080  26.188  12.506
66685W        W35059   3.736  17.172  11.485
66686W        W35060  23.617  41.015  11.053
66687W        W35061  38.047  37.066  10.563
66688W        W35062  34.506  32.598   0.301
66689W        W35063  26.627  12.785   4.316
66690W        W35064  41.890   8.323  13.852
66691W        W35065  22.700  13.787   2.736
66692W        W35066   5.395  30.102   4.632
66693W        W35067  35.954   8.822   4.318
66694W        W35068  43.421  16.773  11.064
66695W        W35069   3.433  14.306  10.629
66696W        W35070  44.829  41.519  11.607
66697W        W35071  39.354  37.489  13.045
66698W        W35072  31.561  15.329  13.973
66699W        W35073  29.610  27.624   0.460
66700W        W35074  25.186  26.076  12.857
66701W        W35075  19.764  29.004  14.024
66702W        W35076  27.158  34.392   4.762
66703W        W35077  10.345  14.100   1.442
66704W        W35078  27.532   4.766  11.048
66705W        W35079  34.394  31.899  11.981
66706W        W35080   7.243  25.016   2.221
66707W        W35081  12.296  25.131   4.224
66708W        W35082  34.063  18.284   3.843
66709W        W35083  32.393  31.100   2.244
66710W        W35084  39.810  31.117  12.363
66711W        W35085  18.295  30.019  12.444
66712W        W35086  20.536  15.291   4.319
66713W        W35087  25.111  39.401  12.883
66714W        W35088  12.757  18.615  14.020
66715W        W35089  13.807  40.823   1.700
66716W        W35090   6.734   8.225  11.111
66717W        W35091  17.679  27.044  11.427
66718W        W35092   5.371  41.813  12.345
66719W        W35093  41.920  37.364   4.169
66720W        W35094  38.067  14.728   0.746
66721W        W35095  24.148  11.855  12.907
66722W        W35096  23.073  14.329   1.281
66723W        W35097  25.492  36.461  11.001
66724W        W35098   9.689  16.708  11.037
66725W        W35099   3.758  10.214   3.341
66726W        W35100  12.349  44.327   3.172
66727W        W35101  37.965  36.869  11.477
66728W        W35102  13.727  31.947  12.377
66729W        W35103  36.876  43.401  11.592
66730W        W35104  36.967  33.604  11.960
66731W        W35105  20.261  14.618   3.262
66732W        W35106  14.681  31.001   3.831
66733W        W35107  24.544   7.238   4.649
66734W        W35108  24.117  20.633  13.436
66735W        W35109  42.468   9.653  14.818
66736W        W35110  19.625  10.781   1.321
66737W        W35111  27.655  22.737   4.839
66738W        W35112  11.761  43.315   3.815
66739W        W35113   2.878   4.884  13.849
66740W        W35114   7.905  18.278   2.310
66741W        W35115  36.063  31.915   2.881
66742W        W35116   2.895   8.681   2.345
66743W        W35117  40.469   6.274   3.163
66744W        W35118  32.507  44.812   3.297
66745W        W35119  37.336  35.002   2.673
66746W        W35120  43.769  38.512   0.934
66747W        W35121  42.021  10.633  12.007
66748W        W35122  18.736  14.101   1.912
66749W        W35123   7.876  36.415  12.921
66750W        W35124   4.902  31.500   0.741
66751W        W35125  31.575  41.791  11.107
66752W        W35126  44.911  30.468   4.800
66753W        W35127   9.767  11.160   0.483
66754W        W35128   7.314  11.675   1.873
66755W        W35129  16.638  27.451   0.823
66756W        W35130  18.772  15.646   0.455
66757W        W35131  17.628  31.612  10.525
66758W        W35132  16.269  21.243  12.028
66759W        W35133   5.860  31.048   0.352
66760W        W35134  23.724  43.915   3.800
66761W        W35135  36.452   2.442   0.339
66762W        W35136  39.925  22.231  14.905
66763W        W35137  33.388  33.498   1.933
66764W        W35138   9.723  31.912   4.230
66765W        W35139   0.485  17.622   1.837
66766W        W35140   9.372  38.328  13.457
66767W        W35141  18.789  40.516   4.226
66768W        W35142  30.511  38.524   1.211
66769W        W35143  25.046  18.200   3.864
66770W        W35144  21.721   9.319  14.361
66771W        W35145  38.393  14.597   3.797
66772W        W35146  15.597   9.856   1.714
66773W        W35147  33.547   7.802  14.312
66774W        W35148  33.556  35.563  10.562
66775W        W35149  27.079   2.826  11.964
66776W        W35150  39.522  30.597  14.296
66777W        W35151  15.637  19.545   1.841
66778W        W35152  16.661  12.215  13.345
66779W        W35153  11.704  11.792  10.143
66780W        W35154  39.927   4.261  12.445
66781W        W35155  43.488  42.803  10.514
66782W        W35156   6.365   2.293   2.240
66783W        W35157  17.120  26.675   0.408
66784W        W35158  37.920  20.033  13.978
66785W        W35159   7.826   8.403   3.237
66786W        W35160   1.798  38.034  10.450
66787W        W35161  19.617  44.984  14.282
66788W        W35162  25.701  20.667  13.446
66789W        W35163   1.791  35.580  12.039
66790W        W35164  24.133  16.206   5.313
66791W        W35165  39.554  25.010   2.388
66792W        W35166  26.462  22.568  14.905
66793W        W35167  26.976   8.298  11.431
66794W        W35168  42.327  33.565  10.469
66795W        W35169  32.094  19.055  10.568
66796W        W35170  33.612   6.322  10.966
66797W        W35171  11.304  17.568   0.843
66798W        W35172   0.274  21.626   0.863
66799W        W35173   5.343  13.660   2.394
66800W        W35174  26.141   7.412   4.165
66801W        W35175   0.323  39.859  13.343
66802W        W35176  21.565   4.370   1.791
66803W        W35177  33.485  35.444  10.934
66804W        W35178  33.409  27.591  13.884
66805W        W35179  17.779  12.260   4.668
66806W        W35180  21.072   7.740   4.214
66807W        W35181  27.575  21.681  10.447
66808W        W35182  24.483  15.820  13.925
66809W        W35183  16.227  37.439  11.883
66810W        W35184   9.682  39.021  13.921
66811W        W35185  13.225  31.447   4.796
66812W        W35186  38.827   4.357  11.123
66813W        W35187  35.559  42.896   1.697
66814W        W35188  42.970  44.796   0.361
66815W        W35189  39.541  18.639  10.938
66816W        W35190  17.560  38.959   2.759
66817W        W35191   3.283  21.603  10.526
66818W        W35192  11.788  38.054  11.440
66819W        W35193  18.684   9.278   4.161
66820W        W35194   4.721   7.373   2.248
66821W        W35195  17.770  25.032  11.502
66822W        W35196  22.218  15.800   3.343
66823W        W35197  37.529  20.680  14.484
66824W        W35198  31.971  21.186  13.809
66825W        W35199  35.389  41.471  13.531
66826W        W35200  29.490   5.395   1.356
66827W        W35201  18.638  30.009  12.471
66828W        W35202  31.117  29.920  10.546
66829W        W35203  41.346   6.868   0.916
66830W        W35204  16.082  37.486   4.733
66831W        W35205  41.980  36.589  14.833
66832W        W35206  11.183  44.753   0.329
66833W        W35207  31.469  38.481   0.954
66834W        W35208  23.493  36.588   4.740
66835W        W35209  26.165  21.522   1.373
66836W        W35210   4.236   3.888   0.862
66837W        W35211  28.109  39.339  10.990
66838W        W35212  14.811  36.582   3.312
66839W        W35213  21.067   8.657   0.351
66840W        W35214  36.061  18.783   4.260
66841W        W35215  16.760   7.676  12.892
66842W        W35216   1.472  23.577   4.718
66843W        W35217  24.228  37.444  11.564
66844W        W35218  22.743  14.154  13.906
66845W        W35219  42.851  26.165  11.890
66846W        W35220  11.804  37.353  14.920
66847W        W35221   5.304  40.316  14.314
66848W        W35222  25.667   8.838   1.393
66849W        W35223  27.656   8.790   3.697
66850W        W35224   4.398  27.955   3.149
66851W        W35225   6.817  37.566   0.948
66852W        W35226  27.671  44.858   2.698
66853W        W35227   4.909   1.745  11.917
66854W        W35228   4.217  43.846   3.207
66855W        W35229  21.227  27.154  14.327
66856W        W35230   4.419   9.672   4.749
66857W        W35231  17.122  32.605  11.919
66858W        W35232   8.299   0.831   2.764
66859W        W35233  38.871   1.733  13.014
66860W        W35234  41.462  43.911  10.437
66861W        W35235  43.975  37.909  12.891
66862W        W35236  38.851  14.191   1.420
66863W        W35237  18.561  44.339   1.267
66864W        W35238  24.637  35.957  12.465
66865W        W35239  31.572  40.308  11.512
66866W        W35240  11.756  39.370  12.896
66867W        W35241  36.851   0.826  13.313
66868W        W35242  33.542  39.874  14.458
66869W        W35243  17.202  38.050   0.311
66870W        W35244   9.182  22.605  13.357
66871W        W35245  42.385  16.191   2.283
66872W        W35246   1.887  10.194   0.282
66873W        W35247  33.090  44.297   1.418
66874W        W35248  12.701  12.692  12.964
66875W        W35249  10.857  42.458  10.591
66876W        W35250   3.430   4.850   1.826
66877W        W35251  37.964   2.914  13.955
66878W        W35252  43.336  33.573   1.793
66879W        W35253  41.506  25.189   2.395
66880W        W35254  28.532   1.423  13.519
66881W        W35255  44.355  22.198   4.765
66882W        W35256  25.625  31.987   0.465
66883W        W35257  17.719   8.765  12.381
66884W        W35258   7.390  13.213   1.758
66885W        W35259   9.284  38.904   2.396
66886W        W35260  39.506  10.846   4.304
66887W        W35261  23.131  31.062   1.935
66888W        W35262  23.188  30.598   4.730
66889W        W35263  21.216  11.135   2.400
66890W        W35264  40.349  23.633  10.575
66891W        W35265  25.612   9.780   2.844
66892W        W35266  12.254   3.243  13.450
66893W        W35267  16.186  38.426   1.845
66894W        W35268  11.686  41.416  14.021
66895W        W35269  18.682  37.425   0.398
66896W        W35270  42.466  13.335   4.158
66897W        W35271  31.515  44.404   3.233
66898W        W35272   4.317  29.932   3.377
66899W        W35273  21.608  37.499   3.175
66900W        W35274  36.359  19.622   0.856
66901W        W35275  25.064  32.582  12.437
66902W        W35276  13.783   0.774   4.626
66903W        W35277  26.506  28.532  11.050
66904W        W35278  34.036  44.342  13.929
66905W        W35279  32.043  18.087  13.000
66906W        W35280  21.165  40.977   5.259
66907W        W35281  26.003  42.883  12.489
66908W        W35282  42.883  13.279  12.916
66909W        W35283  27.637  43.784  10.524
66910W        W35284  27.533  26.500   1.751
66911W        W35285   5.277  36.895   0.272
66912W        W35286  11.713  39.992   4.689
66913W        W35287  40.385  39.315  11.550
66914W        W35288   1.418  30.076   2.678
66915W        W35289   8.232  42.475   4.245
66916W        W35290  41.388  36.041  14.281
66917W        W35291  34.017  11.146  13.886
66918W        W35292  40.427  18.679   0.247
66919W        W35293  27.567   4.917   1.902
66920W        W35294  21.115   4.282  12.420
66921W        W35295  38.015  28.557  14.508
66922W        W35296   0.322  41.925  11.487
66923W        W35297  13.207  25.972  10.467
66924W        W35298   0.884  13.266   0.848
66925W        W35299  31.151  23.655   2.738
66926W        W35300  21.175  24.523   1.242
66927W        W35301  16.737  32.990   0.274
66928W        W35302  41.909  26.092   1.706
66929W        W35303  35.896   2.427  11.044
66930W        W35304  17.654  12.139  14.953
66931W        W35305  43.407  40.388  13.888
66932W        W35306  19.133  30.083  12.401
66933W        W35307  20.617  43.843   2.851
66934W        W35308  34.059  11.340   1.419
66935W        W35309  24.534   4.288   2.678
66936W        W35310  28.105  21.036  14.385
66937W        W35311   4.855  11.315   1.415
66938W        W35312  31.642  17.717   3.170
66939W        W35313  27.093   6.208  14.356
66940W        W35314  34.929  37.430   1.909
66941W        W35315   1.303  36.006   4.813
66942W        W35316  14.227  21.164  14.369
66943W        W35317   3.351  29.934   1.748
66944W        W35318  35.503   7.743   2.883
66945W        W35319  16.310   8.160  12.440
66946W        W35320  16.298  25.699   2.858
66947W        W35321  20.255  21.586  10.622
66948W        W35322  41.027   4.829   3.745
66949W        W35323   9.811  31.092   1.781
66950W        W35324  16.667  35.541   3.252
66951W        W35325   5.812  38.884   0.920
66952W        W35326  25.560  30.620   3.727
66953W        W35327  10.727  44.393   1.892
66954W        W35328  10.872   9.784  11.867
66955W        W35329   4.908  33.583   1.352
66956W        W35330  40.980   1.789  13.005
66957W        W35331  42.834  10.204   5.282
66958W        W35332  36.067  25.657  14.510
66959W        W35333  35.026   1.816   3.848
66960W        W35334  10.634   3.224  12.966
66961W        W35335  37.539  30.047  13.049
66962W        W35336  16.089  39.519  10.496
66963W        W35337   2.877  42.422   4.682
66964W        W35338  21.526   7.782   2.702
66965W        W35339  26.486   3.734   4.642
66966W        W35340  10.152   7.878  13.862
66967W        W35341   2.337  15.741   3.810
66968W        W35342   1.411  10.162   3.808
66969W        W35343  24.021  31.037   0.336
66970W        W35344  22.997  20.111  12.869
66971W        W35345  25.516  30.492   1.903
66972W        W35346  24.105  20.552  10.989
66973W        W35347  40.968  39.845   0.799
66974W        W35348   8.678   6.204   1.420
66975W        W35349   3.247  16.132  12.923
66976W        W35350  17.742  24.187  11.398
66977W        W35351  27.119  28.150   0.906
66978W        W35352   0.827   7.248  14.758
66979W        W35353   3.311  22.076   0.749
66980W        W35354  34.935   9.199   1.242
66981W        W35355  21.558   6.395  14.410
66982W        W35356   0.748  42.316  11.007
66983W        W35357  23.545  12.815  11.535
66984W        W35358   6.863   9.215  13.501
66985W        W35359  17.587  36.921   4.215
66986W        W35360  41.928  37.969   4.633
66987W        W35361  41.495  36.386  12.382
66988W        W35362  16.759  19.672  11.915
66989W        W35363   1.965  41.297   1.259
66990W        W35364   0.931   7.271   0.457
66991W        W35365  40.459  30.635   2.843
66992W        W35366   7.274  30.991  13.813
66993W        W35367  23.128   1.739  10.902
66994W        W35368  35.562  39.317  10.595
66995W        W35369  30.553  35.936   3.763
66996W        W35370  14.151  35.963   1.356
66997W        W35371   9.785  24.491   4.634
66998W        W35372  12.804  23.230   4.671
66999W        W35373  34.411   2.465  14.838
67000W        W35374   4.409  10.241   1.229
67001W        W35375  29.099  41.832  12.834
67002W        W35376  29.124  33.614   4.284
67003W        W35377  18.086  44.481  11.886
67004W        W35378  24.025  18.084   0.415
67005W        W35379  20.034  21.178   1.741
67006W        W35380  29.665  13.806  14.380
67007W        W35381   1.459  25.557   1.814
67008W        W35382  11.847  27.512  14.805
67009W        W35383  35.915   6.916  11.907
67010W        W35384  26.050  27.554   3.288
67011W        W35385   9.726  11.774   4.728
67012W        W35386  12.216  11.130   3.245
67013W        W35387   1.912  31.443   4.755
67014W        W35388  28.679   6.370   3.641
67015W        W35389   3.899   8.324   1.389
67016W        W35390  33.393  27.510  10.560
67017W        W35391  34.063  42.300   1.311
67018W        W35392  31.413   7.173   2.247
67019W        W35393  17.234  11.850   0.733
67020W        W35394  32.945  40.380   4.168
67021W        W35395   4.383  22.196   0.935
67022W        W35396   5.787  32.551  12.921
67023W        W35397  24.034  31.944   2.893
67024W        W35398  27.140  13.672   0.856
67025W        W35399   4.879  44.299  10.957
67026W        W35400  17.088  20.051  11.075
67027W        W35401  32.049  20.272   1.228
67028W        W35402  28.073  25.558  14.302
67029W        W35403  44.994  40.924   3.665
67030W        W35404  41.371  17.752   0.302
67031W        W35405   8.208   8.685  14.937
67032W        W35406  29.555  27.573  10.596
67033W        W35407  33.991  26.456  11.602
67034W        W35408   9.791   4.418  13.003
67035W        W35409   1.445  22.667  10.558
67036W        W35410   5.315   6.377   0.751
67037W        W35411  30.979  23.026  13.321
67038W        W35412   2.880  32.016   0.317
67039W        W35413   4.813  13.193  14.762
67040W        W35414  38.032  36.888  14.511
67041W        W35415  31.552  17.634  12.339
67042W        W35416  30.125  20.037  11.437
67043W        W35417  37.052   5.808  10.996
67044W        W35418  21.094   5.740  10.612
67045W        W35419  25.164  14.704   3.276
67046W        W35420  22.747  26.181  12.465
67047W        W35421   2.846  19.122  11.547
67048W        W35422   6.385   5.832   0.339
67049W        W35423  39.063   2.932   3.164
67050W        W35424  42.909  42.368  13.962
67051W        W35425  16.203   1.971  11.908
67052W        W35426  29.624  26.503  11.562
67053W        W35427  33.599  19.628  13.350
67054W        W35428  40.501  38.519   2.217
67055W        W35429  12.127  40.368  12.505
67056W        W35430  35.859  42.018   4.148
67057W        W35431  16.617  28.445  12.526
67058W        W35432  17.793  44.807  13.362
67059W        W35433   2.889   6.751  11.993
67060W        W35434  20.743  38.858  14.346
67061W        W35435  37.948  29.585   2.179
67062W        W35436  34.900  17.255   4.709
67063W        W35437   1.306  20.049  10.601
67064W        W35438  37.482  29.018   4.597
67065W        W35439  38.527  19.669   3.865
67066W        W35440  25.175  31.443  10.441
67067W        W35441  42.903   9.228   4.644
67068W        W35442   7.259  39.846   0.339
67069W        W35443  19.643  30.579   2.385
67070W        W35444  11.752  26.623   2.827
67071W        W35445  13.257  39.375   1.372
67072W        W35446  24.630  20.630   1.250
67073W        W35447  44.797  20.122  12.087
67074W        W35448  42.283  23.067  11.925
67075W        W35449  44.390  27.155  13.980
67076W        W35450  24.550  35.085   2.229
67077W        W35451  40.387  21.675   4.654
67078W        W35452   9.202  17.588   3.192
67079W        W35453  15.284  44.340  13.821
67080W        W35454  22.641  35.491   0.858
67081W        W35455  22.508  22.617  14.812
67082W        W35456  34.387  20.545   4.227
67083W        W35457  25.604  28.518   1.417
67084W        W35458  19.150  21.606  14.803
67085W        W35459  34.499  26.643   3.647
67086W        W35460  17.593  44.887  10.466
67087W        W35461  10.785  18.679  10.069
67088W        W35462  19.231  17.120   0.960
67089W        W35463  43.978  25.137   1.816
67090W        W35464  12.838   4.315  14.944
67091W        W35465   1.921  42.294  12.946
67092W        W35466  38.948  35.583   1.395
67093W        W35467  30.650  22.508   4.236
67094W        W35468  17.203  34.544  11.551
67095W        W35469   7.901  36.385  11.035
67096W        W35470   0.969  41.292  13.885
67097W        W35471  16.722  32.595  14.300
67098W        W35472  12.236  38.920  11.491
67099W        W35473  22.112  32.016   2.720
67100W        W35474  10.756  13.137  12.994
67101W        W35475  21.073  42.318   5.164
67102W        W35476  13.817  22.570  14.876
67103W        W35477  44.398  42.830  12.039
67104W        W35478  39.539  21.101  12.921
67105W        W35479  39.343  28.458  11.038
67106W        W35480   4.819  16.568  13.001
67107W        W35481  33.966  13.207  11.940
67108W        W35482  15.625  40.881   2.832
67109W        W35483  43.009  20.535   4.766
67110W        W35484  22.114  41.369   4.204
67111W        W35485  16.309  33.996  10.418
67112W        W35486  22.685  29.580   1.273
67113W        W35487  29.995  13.681   2.765
67114W        W35488  24.047  38.440  14.394
67115W        W35489  19.083  31.607   1.262
67116W        W35490  36.997  32.974  10.503
67117W        W35491  29.147   8.170   0.254
67118W        W35492  43.303  12.751   1.423
67119W        W35493  36.468  25.130  10.024
67120W        W35494  20.241  21.204  11.385
67121W        W35495  35.857   6.814  10.458
67122W        W35496  30.594  38.054  12.068
67123W        W35497   5.201  19.591   2.859
67124W        W35498   4.829  14.230   4.126
67125W        W35499  41.311   6.737   4.283
67126W        W35500   2.915  24.641  11.940
67127W        W35501  23.213  38.876   9.965
67128W        W35502  18.748  40.886   4.246
67129W        W35503  39.413  14.791  13.976
67130W        W35504  34.552  20.717   4.791
67131W        W35505  21.045   8.292  12.829
67132W        W35506   6.694  22.130  12.399
67133W        W35507  13.128   6.358   0.322
67134W        W35508  24.142  12.622   1.377
67135W        W35509  24.216  20.655  12.851
67136W        W35510   3.711   5.302  10.606
67137W        W35511  11.213  33.892   2.378
67138W        W35512   8.853  19.198  12.448
67139W        W35513   2.897  28.037   2.328
67140W        W35514  39.559  19.558  14.858
67141W        W35515  19.542  34.971  14.290
67142W        W35516  20.047  18.186  13.508
67143W        W35517  41.498   0.319  14.377
67144W        W35518  32.425  43.854   3.808
67145W        W35519  26.621   7.862   1.926
67146W        W35520   8.330  17.705  13.884
67147W        W35521  15.781  17.736   3.793
67148W        W35522  31.636  27.666  10.996
67149W        W35523  33.950  16.649   4.780
67150W        W35524  40.828   9.868   4.277
67151W        W35525  31.620   2.262   3.771
67152W        W35526  32.497  35.010   1.930
67153W        W35527   7.298  27.197   1.870
67154W        W35528  36.967  17.595   4.758
67155W        W35529   5.718   1.928  13.395
67156W        W35530  39.475   4.417   0.908
67157W        W35531  26.188  17.200   0.297
67158W        W35532  21.537  44.952   2.758
67159W        W35533  23.188  37.529  13.359
67160W        W35534  41.805  30.449   5.171
67161W        W35535  42.799  38.536   2.743
67162W        W35536  26.061  10.290  14.009
67163W        W35537  14.210  22.139   3.281
67164W        W35538  19.662   8.742   1.800
67165W        W35539  30.038  15.633  13.020
67166W        W35540  25.478  24.590   1.385
67167W        W35541  38.331  16.149  13.942
67168W        W35542  39.923  33.577  12.362
67169W        W35543  31.500  43.842   1.713
67170W        W35544   1.330  20.191  12.350
67171W        W35545  28.077  16.770   4.299
67172W        W35546  25.139  31.479  11.899
67173W        W35547   2.835  25.680   0.398
67174W        W35548  35.529  28.519  14.391
67175W        W35549  18.105   7.181  14.892
67176W        W35550   8.338  26.970   0.864
67177W        W35551  10.648  10.305  11.492
67178W        W35552  24.605  26.638   1.718
67179W        W35553   2.246  10.366   4.833
67180W        W35554   4.924   8.366   4.666
67181W        W35555  14.284  15.296  13.842
67182W        W35556  41.904  13.188  13.348
67183W        W35557  15.133  41.967   0.873
67184W        W35558  38.536  17.098   1.396
67185W        W35559  12.687  22.694  11.893
67186W        W35560   3.394  32.026  11.585
67187W        W35561   8.285   7.319   3.310
67188W        W35562   7.294   7.765   3.754
67189W        W35563  44.276  31.591  14.832
67190W        W35564  44.864  17.151  12.989
67191W        W35565   1.751  39.436  10.589
67192W        W35566  36.051  11.709   2.381
67193W        W35567  34.563  18.751  11.027
67194W        W35568  28.654  40.811  14.001
67195W        W35569   4.928   7.709  11.036
67196W        W35570  35.933   9.837   4.680
67197W        W35571  33.432   6.201   3.344
67198W        W35572  37.397  41.992   0.293
67199W        W35573  17.174  17.159   0.313
67200W        W35574  26.698   5.764  13.491
67201W        W35575  35.919  44.275  11.520
67202W        W35576  19.731  29.457  13.850
67203W        W35577  42.422  35.376   0.964
67204W        W35578  28.151  34.374   2.883
67205W        W35579   9.374  24.131   0.343
67206W        W35580  29.987  12.213   4.611
67207W        W35581  39.441  13.254  14.932
67208W        W35582  21.229  26.532  14.296
67209W        W35583  33.461  29.547   4.331
67210W        W35584   2.886  41.309  14.461
67211W        W35585  33.130  17.240   3.194
67212W        W35586  39.322  42.332  13.966
67213W        W35587   9.750  24.505  14.317
67214W        W35588  33.547  36.350   4.345
67215W        W35589  43.467  40.490   3.760
67216W        W35590  24.572  36.897   4.762
67217W        W35591   5.263  34.429  14.479
67218W        W35592  11.341  23.134  13.936
67219W        W35593  35.532   1.239   2.774
67220W        W35594   1.245  38.869   4.608
67221W        W35595   2.409  17.653  12.505
67222W        W35596  28.090  21.750   0.412
67223W        W35597  40.414   2.851   1.432
67224W        W35598  38.914  28.476   2.369
67225W        W35599  41.022   4.204   3.280
67226W        W35600  13.234   1.862  11.050
67227W        W35601  13.195   0.293  14.362
67228W        W35602  19.278   3.801   3.240
67229W        W35603  13.828  27.607  12.850
67230W        W35604   9.219  23.570   3.314
67231W        W35605  32.111  26.128   2.200
67232W        W35606  30.519  17.647  12.455
67233W        W35607  12.643   8.709  12.440
67234W        W35608  10.239  13.771   3.723
67235W        W35609   6.807  21.568  12.412
67236W        W35610  10.314  28.444   1.378
67237W        W35611   6.749  28.512   0.299
67238W        W35612  27.503  25.012   0.812
67239W        W35613  32.415  43.851  13.022
67240W        W35614   4.228   5.353  14.424
67241W        W35615  11.865   2.418  14.921
67242W        W35616  17.577  14.192  11.559
67243W        W35617   3.440  12.615   1.311
67244W        W35618  22.591   5.777   4.820
67245W        W35619  39.936   3.442  12.342
67246W        W35620  39.508   9.181   3.780
67247W        W35621  40.512   3.794  13.373
67248W        W35622  40.927  21.124   4.281
67249W        W35623  22.189  25.175  10.943
67250W        W35624  10.351  17.794   1.828
67251W        W35625  41.828  17.649   4.192
67252W        W35626   8.378  25.468   0.396
67253W        W35627  20.677  25.970   4.640
67254W        W35628  39.952   7.860   1.822
67255W        W35629   7.208  12.633  12.867
67256W        W35630  34.607  19.183  14.826
67257W        W35631  22.533  16.232  14.884
67258W        W35632  38.402  31.618  10.504
67259W        W35633   5.256  15.748   4.278
67260W        W35634  27.109  41.011   2.777
67261W        W35635  31.526  33.918  13.327
67262W        W35636   3.247  32.544   3.814
67263W        W35637   6.772  43.438   1.221
67264W        W35638  38.343  33.569   1.417
67265W        W35639   8.688  37.034   1.935
67266W        W35640  16.785  32.401   2.814
67267W        W35641  38.392  21.175   4.695
67268W        W35642  13.278  43.429   4.728
67269W        W35643  29.461  36.883   1.916
67270W        W35644  43.929  20.526  12.505
67271W        W35645  39.924   3.821   2.210
67272W        W35646  11.255  13.716  10.525
67273W        W35647  43.277  12.159  11.995
67274W        W35648  34.976  20.152  11.372
67275W        W35649  13.171   7.260   3.870
67276W        W35650   4.714   5.274  10.454
67277W        W35651  35.075  40.815   3.654
67278W        W35652  25.596   2.331  13.404
67279W        W35653  39.473   5.326   1.864
67280W        W35654  43.873  19.741   4.354
67281W        W35655   6.900  34.919  14.014
67282W        W35656  10.167  44.829   1.873
67283W        W35657  30.969  17.138   4.200
67284W        W35658  43.390  33.106   2.200
67285W        W35659  18.054  30.008  10.921
67286W        W35660  16.617  43.013  10.628
67287W        W35661   7.403   5.733   4.228
67288W        W35662  40.845  18.687   3.676
67289W        W35663  13.206   1.931  11.438
67290W        W35664  33.102  19.605   0.470
67291W        W35665  21.066  31.434   2.216
67292W        W35666   1.952  30.951  12.410
67293W        W35667   4.737  14.304   3.638
67294W        W35668  39.388  17.722  12.465
67295W        W35669  38.014   2.896   1.758
67296W        W35670  41.464  28.161   2.840
67297W        W35671  34.581  29.115  13.324
67298W        W35672  26.630  25.567  12.578
67299W        W35673  31.086   4.821   2.736
67300W        W35674  22.140   2.458   0.918
67301W        W35675  23.135  39.548   3.213
67302W        W35676  44.904  16.208  13.009
67303W        W35677  19.675  24.156   0.743
67304W        W35678  44.328   0.482   4.162
67305W        W35679   6.270  12.157   2.328
67306W        W35680  20.136  44.502   2.325
67307W        W35681  11.141  16.616   1.816
67308W        W35682  29.154  25.074   0.285
67309W        W35683  38.914  12.808   1.313
67310W        W35684  10.783  29.506   4.169
67311W        W35685   8.737  10.633  11.550
67312W        W35686   0.842  21.227   4.723
67313W        W35687  19.057   6.273   2.729
67314W        W35688  34.863  34.549  10.526
67315W        W35689  30.028  13.311  11.106
67316W        W35690  22.635   3.833  11.876
67317W        W35691  14.159  14.653  13.870
67318W        W35692  32.906  20.055  11.430
67319W        W35693  32.628  12.793   1.744
67320W        W35694  26.175   1.419  11.400
67321W        W35695   3.880  18.115   0.292
67322W        W35696   4.340   6.267   3.241
67323W        W35697  12.611  41.913  13.863
67324W        W35698  38.556  34.377  13.399
67325W        W35699  25.194  13.151  12.407
67326W        W35700  29.597   3.303  13.909
67327W        W35701   2.919  29.447   3.335
67328W        W35702  34.407   8.206  13.336
67329W        W35703  37.880  18.198  10.507
67330W        W35704  17.216  33.094  10.972
67331W        W35705  44.332  43.449   1.749
67332W        W35706  14.774  40.333   4.777
67333W        W35707  44.814  35.912   3.738
67334W        W35708  14.233  44.456  14.016
67335W        W35709  21.191  23.140  14.331
67336W        W35710  20.650  44.979   3.208
67337W        W35711  37.033   1.419   1.816
67338W        W35712   4.818  22.557   4.125
67339W        W35713  34.114   8.221   4.630
67340W        W35714  18.605   2.835  12.982
67341W        W35715  37.849  23.155  13.942
67342W        W35716   7.332  17.660   2.682
67343W        W35717  23.226  26.552   3.629
67344W        W35718  14.163  29.441  14.823
67345W        W35719   8.880   7.822   1.378
67346W        W35720   8.218  18.283   3.801
67347W        W35721  20.733  36.983   1.303
67348W        W35722  24.058  25.111  14.929
67349W        W35723  30.068  44.347   5.120
67350W        W35724  31.104   1.756   1.288
67351W        W35725  40.978  32.497   1.385
67352W        W35726  30.483  29.003  12.059
67353W        W35727  39.420  32.617  12.558
67354W        W35728  28.177  36.439   0.955
67355W        W35729  25.562   8.812   4.333
67356W        W35730  22.191   1.374   1.831
67357W        W35731  25.104  37.465   0.937
67358W        W35732  36.866  33.484   1.295
67359W        W35733  12.328  33.066  14.498
67360W        W35734  37.915   5.219   1.386
67361W        W35735  37.475  31.051  11.886
67362W        W35736  20.599   5.837  13.952
67363W        W35737   2.322  17.169  14.857
67364W        W35738  20.166   8.179  11.003
67365W        W35739  24.019   3.440  12.959
67366W        W35740  42.777  41.839  13.353
67367W        W35741  12.156  18.654   3.730
67368W        W35742  19.237  22.069   3.383
67369W        W35743  18.683  20.219  11.606
67370W        W35744  10.340  13.667   0.420
67371W        W35745   9.736  42.416   1.703
67372W        W35746   5.791  21.247   0.781
67373W        W35747  30.957   3.379  14.488
67374W        W35748  30.474  44.893  14.001
67375W        W35749  14.105   2.900   0.849
67376W        W35750  41.384   2.820  13.324
67377W        W35751  36.375   4.807  10.489
67378W        W35752  19.775   6.769   0.266
67379W        W35753   5.913   9.671  10.968
67380W        W35754  34.049   6.890   3.858
67381W        W35755  17.730  21.519  11.882
67382W        W35756   0.767  42.410   4.605
67383W        W35757   0.385  30.003  14.774
67384W        W35758  22.113  38.380   3.756
67385W        W35759  18.128   1.843  13.405
67386W        W35760  25.583  43.864   2.742
67387W        W35761   5.315  39.493  11.051
67388W        W35762  26.490  14.216  10.542
67389W        W35763  31.492   2.343   4.606
67390W        W35764   3.448   2.466   4.716
67391W        W35765   8.898  30.071  14.422
67392W        W35766  20.679  31.621   3.308
67393W        W35767  13.780  36.407   3.296
67394W        W35768   3.760  21.556   4.820
67395W        W35769  32.127  22.229  11.929
67396W        W35770   6.258   0.320  12.045
67397W        W35771  40.925  30.613   2.228
67398W        W35772  22.656  10.866  13.403
67399W        W35773  19.080  36.046   2.857
67400W        W35774   8.300  19.537  10.575
67401W        W35775  40.504   1.319   0.416
67402W        W35776  34.425   4.848   3.640
67403W        W35777  16.291  25.493  14.825
67404W        W35778   1.798   9.282  13.907
67405W        W35779   3.285  10.795  13.470
67406W        W35780  21.706   5.688   4.208
67407W        W35781  39.973  29.555  12.468
67408W        W35782  16.196  21.740  12.351
67409W        W35783  14.149  39.356  12.032
67410W        W35784  30.655  18.282   4.176
67411W        W35785  23.688  32.494  11.870
67412W        W35786  32.579  28.174  11.065
67413W        W35787   7.263   8.750   4.325
67414W        W35788  44.829  15.732  12.396
67415W        W35789  29.670  41.322   1.319
67416W        W35790  40.837  22.032   2.742
67417W        W35791  34.373  13.230  11.115
67418W        W35792   7.375  35.944  12.860
67419W        W35793  10.206  29.964   2.748
67420W        W35794  14.226  22.154   0.358
67421W        W35795  22.200  38.547  12.027
67422W        W35796  27.118  13.670  12.485
67423W        W35797  32.953   8.170   1.325
67424W        W35798   0.845   1.934   2.197
67425W        W35799  36.966  43.982  13.476
67426W        W35800   8.892   2.723  13.056
67427W        W35801   4.836  12.691   2.274
67428W        W35802  11.289  14.766  14.999
67429W        W35803  43.331  26.470   0.359
67430W        W35804  17.299  11.827   3.233
67431W        W35805  10.794  38.034  14.977
67432W        W35806   7.744  32.434   2.283
67433W        W35807  17.187  29.568  12.043
67434W        W35808  27.470  36.036  10.916
67435W        W35809  30.589   3.896  11.971
67436W        W35810  35.415  23.987  14.398
67437W        W35811   5.297  30.016  12.500
67438W        W35812  23.001   0.266   3.699
67439W        W35813  19.745  21.539   3.327
67440W        W35814  38.455   4.935   2.320
67441W        W35815  13.235   5.722  12.025
67442W        W35816  19.218  43.021   3.850
67443W        W35817  25.117  19.542   3.634
67444W        W35818  24.150  23.507   0.293
67445W        W35819   5.873   1.880   1.725
67446W        W35820  29.108  35.466  14.356
67447W        W35821   7.903  25.169   4.813
67448W        W35822   1.820  19.272  14.786
67449W        W35823  10.279  36.367   0.877
67450W        W35824  33.465  16.306   0.335
67451W        W35825  37.085   7.329  12.914
67452W        W35826   8.277  32.910   2.310
67453W        W35827  30.057  30.946   3.804
67454W        W35828  10.782   1.928  14.455
67455W        W35829   2.255  41.988   0.431
67456W        W35830  20.267  12.663  14.288
67457W        W35831  41.979  24.054   0.385
67458W        W35832  39.376  26.621  11.592
67459W        W35833  29.066  24.226  14.785
67460W        W35834  18.127  16.159   0.376
67461W        W35835  21.077   4.234   1.933
67462W        W35836  22.651   1.769  13.402
67463W        W35837   3.341  21.729   2.280
67464W        W35838  36.574  27.459  14.322
67465W        W35839  23.187  16.781  10.093
67466W        W35840  40.476  40.040  14.449
67467W        W35841  43.445   1.307  10.458
67468W        W35842  26.105  38.425   2.695
67469W        W35843  22.701  24.229  12.948
67470W        W35844  29.968  15.320   4.268
67471W        W35845  35.471  26.099   3.255
67472W        W35846  13.333  30.131  11.570
67473W        W35847  31.602  35.050  12.990
67474W        W35848  16.162  40.437  11.114
67475W        W35849  10.288  34.547   4.144
67476W        W35850   1.351  38.976   2.280
67477W        W35851  33.473  39.528   2.714
67478W        W35852  37.544  17.200   1.386
67479W        W35853  28.183  43.958   0.434
67480W        W35854  28.020  30.511  10.405
67481W        W35855  43.866  22.030   2.249
67482W        W35856  43.271  42.344   2.705
67483W        W35857  21.032  34.063  13.862
67484W        W35858  40.902   0.819   4.132
67485W        W35859  32.098  23.017  14.857
67486W        W35860   0.886  44.353  13.971
67487W        W35861  18.741  11.825   4.303
67488W        W35862  20.073  35.990  14.414
67489W        W35863   8.764   3.746  11.452
67490W        W35864  32.496  44.913   4.246
67491W        W35865  21.180   5.909  12.996
67492W        W35866  20.162  41.455  12.072
67493W        W35867  28.674   0.469  11.941
67494W        W35868  32.509  39.511  13.949
67495W        W35869  30.605  38.537  13.802
67496W        W35870  22.676  36.896   2.823
67497W        W35871  39.041  15.729  14.998
67498W        W35872  35.067  30.656  13.521
67499W        W35873  13.260  32.623  12.092
67500W        W35874  43.010  10.773   0.332
67501W        W35875   0.963  34.004  12.354
67502W        W35876  28.131   4.906  12.463
67503W        W35877  28.070  34.441  10.954
67504W        W35878  14.614  15.758  11.860
67505W        W35879  40.860  39.334   3.281
67506W        W35880  23.180   4.883   3.798
67507W        W35881   9.246  12.758   0.459
67508W        W35882  33.559  22.680   1.448
67509W        W35883   1.800  15.329  13.427
67510W        W35884   0.339  31.602  10.460
67511W        W35885  30.142  37.533  11.427
67512W        W35886   4.368  15.169   4.809
67513W        W35887  11.218   2.738   3.216
67514W        W35888  28.056  28.480  10.618
67515W        W35889  11.858   4.825  13.516
67516W        W35890   1.955  25.643   0.934
67517W        W35891  10.325   5.787   3.790
67518W        W35892  36.545   6.808  14.342
67519W        W35893  31.020  20.573   1.925
67520W        W35894  19.754  32.485  12.499
67521W        W35895  30.519  35.526  12.351
67522W        W35896  18.632  28.526  10.911
67523W        W35897  39.480  41.043   3.735
67524W        W35898   6.416  11.799  10.535
67525W        W35899   3.308  21.167   1.845
67526W        W35900  33.415  16.188   3.805
67527W        W35901   8.747  14.177   1.411
67528W        W35902  21.242  11.164  13.048
67529W        W35903  39.515  30.048  12.829
67530W        W35904  40.445   4.844  10.592
67531W        W35905  22.215   6.879  14.350
67532W        W35906   7.742  18.185  12.548
67533W        W35907  30.033  23.684   3.309
67534W        W35908  31.473  22.609   1.442
67535W        W35909   7.723  34.035   0.423
67536W        W35910  20.261  33.891   3.717
67537W        W35911  27.144  27.982  12.877
67538W        W35912  40.405  18.113  10.900
67539W        W35913  39.545  28.476   4.242
67540W        W35914  21.554  17.140  11.403
67541W        W35915  11.225  42.374  14.288
67542W        W35916   0.903  40.413  11.091
67543W        W35917  12.144  40.868   3.252
67544W        W35918  30.100  21.565  10.457
67545W        W35919   0.404   4.274  11.954
67546W        W35920  17.157  11.352   0.470
67547W        W35921   3.735  15.586   5.291
67548W        W35922   9.262  18.153  10.501
67549W        W35923   7.865   8.314  14.405
67550W        W35924  16.209  15.305  13.496
67551W        W35925  42.809  11.360   4.622
67552W        W35926  18.196  20.643  13.022
67553W        W35927   2.808   5.426  10.993
67554W        W35928   2.869  25.152  13.504
67555W        W35929   8.782   2.763  10.518
67556W        W35930  16.714  35.984   4.739
67557W        W35931  11.661  21.111  13.425
67558W        W35932  31.464   3.950   0.311
67559W        W35933  42.913   7.677  10.975
67560W        W35934  41.531  30.449   4.203
67561W        W35935   1.475  30.512  11.977
67562W        W35936  19.111  32.080   3.188
67563W        W35937  34.418   9.741   4.772
67564W        W35938  41.027  21.133   0.367
67565W        W35939  15.313  25.698   2.862
67566W        W35940  17.739   8.766   1.927
67567W        W35941  32.925   3.909  14.498
67568W        W35942  43.769  27.088  10.892
67569W        W35943   5.248   7.782  13.989
67570W        W35944  26.027  31.982   2.266
67571W        W35945   8.895  24.549  13.444
67572W        W35946  21.240   8.248   2.290
67573W        W35947  11.315   6.888   4.119
67574W        W35948  25.596  32.437   3.657
67575W        W35949  41.030  23.047  10.903
67576W        W35950  36.894  30.963   3.733
67577W        W35951  13.321  44.429   3.822
67578W        W35952   1.236  38.446   4.740
67579W        W35953  23.000  13.236  13.396
67580W        W35954  41.908   1.886   5.284
67581W        W35955  29.946   1.829  12.860
67582W        W35956  41.400   8.403   4.665
67583W        W35957  18.606  10.373   2.861
67584W        W35958  35.524   2.369   3.671
67585W        W35959  14.696   3.718   0.753
67586W        W35960  10.720   9.227   3.210
67587W        W35961  38.827  28.480  10.905
67588W        W35962  19.717   3.840   5.289
67589W        W35963  14.209   3.456  11.056
67590W        W35964   7.904   0.785  12.429
67591W        W35965   1.743   0.898  11.988
67592W        W35966  33.447  35.488   3.847
67593W        W35967   9.311  35.936  12.407
67594W        W35968   7.665  33.592   1.213
67595W        W35969  35.875  12.734  10.515
67596W        W35970  39.839  33.439   1.701
67597W        W35971  13.756  38.546   2.178
67598W        W35972  16.715   8.766  10.413
67599W        W35973  35.032  37.065  11.959
67600W        W35974  43.503  24.018   1.357
67601W        W35975   3.778  32.020   2.860
67602W        W35976  38.544  30.554   2.728
67603W        W35977  37.885   8.232   0.869
67604W        W35978  18.177  28.999   0.261
67605W        W35979   3.917  42.994   3.777
67606W        W35980   2.227  28.532  12.460
67607W        W35981  42.855  43.005  11.864
67608W        W35982  28.678  10.713   1.789
67609W        W35983  25.983  29.992   4.781
67610W        W35984  39.045  34.081   2.385
67611W        W35985  43.983  28.681   1.353
67612W        W35986  42.453   1.444  11.895
67613W        W35987  35.372  11.831  10.521
67614W        W35988  40.833  18.089  11.890
67615W        W35989  27.587  33.592  14.008
67616W        W35990  32.572  23.717   4.711
67617W        W35991  25.045  20.248  11.907
67618W        W35992  31.900  32.008   0.331
67619W        W35993  26.554   0.808   3.648
67620W        W35994  28.103  15.124  12.044
67621W        W35995  12.182   6.258  14.446
67622W        W35996  11.658   1.358  11.582
67623W        W35997  43.772  36.915   4.614
67624W        W35998  32.459  44.880   1.799
67625W        W35999  29.612  40.433   4.679
67626W        W36000  26.515  19.118   1.858
67627W        W36001  19.771  27.070   1.338
67628W        W36002   8.291  21.135   0.378
67629W        W36003  15.602  18.131   0.420
67630W        W36004  10.678   7.327   4.602
67631W        W36005  25.017  16.218  11.062
67632W        W36006  25.664  33.887  13.846
67633W        W36007  10.166  17.715   2.797
67634W        W36008  39.046   7.770   1.762
67635W        W36009  41.314  36.864   2.417
67636W        W36010  24.502  34.606  14.292
67637W        W36011  44.323  25.504  13.962
67638W        W36012  13.829   7.877  12.956
67639W        W36013   9.351   4.213   1.824
67640W        W36014  14.696  24.684  10.594
67641W        W36015  30.098  25.512  14.920
67642W        W36016  15.587  39.460  11.565
67643W        W36017  33.998  38.904   0.766
67644W        W36018  42.429   0.955   3.308
67645W        W36019   6.271  40.360  10.896
67646W        W36020  10.678  35.415  14.960
67647W        W36021  39.981  23.718   4.301
67648W        W36022  27.074  21.196  10.628
67649W        W36023  13.186  23.035  12.558
67650W        W36024  34.033  44.903   3.677
67651W        W36025  15.168  10.366   3.651
67652W        W36026   3.898  16.625  12.514
67653W        W36027  15.581  44.359  13.799
67654W        W36028  24.014  27.074   0.336
67655W        W36029   6.843  35.452   3.652
67656W        W36030   0.825   4.727  11.382
67657W        W36031  29.439   7.213  14.461
67658W        W36032  42.362  43.494  12.950
67659W        W36033  33.392  15.625  13.547
67660W        W36034  29.529   4.871  11.379
67661W        W36035  35.008  38.888  11.043
67662W        W36036  31.101  38.036  14.000
67663W        W36037  16.579  34.566  12.560
67664W        W36038  23.539   9.323  10.911
67665W        W36039  20.713  30.978   1.885
67666W        W36040  16.700  36.842   0.945
67667W        W36041  16.617   9.244   2.390
67668W        W36042  33.456  41.375   0.962
67669W        W36043  22.701   2.956   4.174
67670W        W36044  17.201  17.663  11.427
67671W        W36045   0.885   5.867  10.466
67672W        W36046   3.319  37.419   2.337
67673W        W36047  44.308  44.449  12.474
67674W        W36048   3.906   4.901   2.771
67675W        W36049   7.366  42.923  13.379
67676W        W36050  40.014  21.681  11.026
67677W        W36051  24.075  14.703  10.492
67678W        W36052   7.314   1.405   2.292
67679W        W36053  38.986  20.080   1.249
67680W        W36054   0.950  28.040   9.997
67681W        W36055  19.576   7.212  10.892
67682W        W36056  13.168  19.190   2.694
67683W        W36057  13.695  23.059  14.825
67684W        W36058   2.313  26.031  13.536
67685W        W36059  12.754   8.716   4.263
67686W        W36060  31.960  40.429  10.407
67687W        W36061  12.131  37.386   3.162
67688W        W36062  38.043   9.204  10.643
67689W        W36063  31.642  33.939   2.701
67690W        W36064  39.314  26.625  12.844
67691W        W36065  40.363   8.736  11.020
67692W        W36066  29.036  38.941  13.403
67693W        W36067  22.539  24.207  13.519
67694W        W36068  30.981  33.990  14.927
67695W        W36069   6.698  25.096   3.662
67696W        W36070  42.496  20.697  14.490
67697W        W36071  27.555  24.725   4.117
67698W        W36072  21.038   8.731  10.645
67699W        W36073  40.882  19.095  10.991
67700W        W36074  24.539  44.844   4.310
67701W        W36075  30.519  20.737   1.333
67702W        W36076  13.685   7.361   3.173
67703W        W36077   0.986  12.649  10.109
67704W        W36078  20.230  39.373   1.884
67705W        W36079   7.296  42.477   0.377
67706W        W36080  19.167  20.708  14.415
67707W        W36081  34.503  36.593  10.622
67708W        W36082  15.608  30.096  11.387
67709W        W36083  27.088  21.709  10.487
67710W        W36084  19.154  14.129   4.349
67711W        W36085  29.075  26.100   2.299
67712W        W36086   0.924  12.142  11.503
67713W        W36087   0.250  34.935   4.178
67714W        W36088  43.893   5.199  10.618
67715W        W36089  18.285   9.268  10.555
67716W        W36090  14.721  13.349   2.182
67717W        W36091  31.596  30.916  11.466
67718W        W36092  37.940  26.517   2.255
67719W        W36093  34.479  41.501  10.984
67720W        W36094  37.999   6.334   9.967
67721W        W36095   5.872  32.563   1.764
67722W        W36096   7.326  44.331   1.307
67723W        W36097  27.114  39.467  12.497
67724W        W36098  25.535  40.478  10.915
67725W        W36099  36.096  36.450  14.020
67726W        W36100  39.967   1.259  11.435
67727W        W36101   7.846  11.779  13.925
67728W        W36102  24.573  21.602  13.005
67729W        W36103  27.493  43.957   3.352
67730W        W36104  10.269  15.126  10.611
67731W        W36105  18.126   9.275   0.242
67732W        W36106  30.939   4.306  12.356
67733W        W36107  27.087  16.658  12.366
67734W        W36108  43.496  44.971  14.022
67735W        W36109   6.828  38.072  11.480
67736W        W36110  11.709  19.205  11.044
67737W        W36111   6.903  38.865   0.829
67738W        W36112  29.927  40.034  14.495
67739W        W36113  15.229   2.288  13.446
67740W        W36114  22.020   7.883   2.280
67741W        W36115  32.952  15.819  12.900
67742W        W36116   4.409  21.531  14.502
67743W        W36117  26.029  23.665  11.893
67744W        W36118   9.844  39.861  14.512
67745W        W36119   5.695   9.301   2.804
67746W        W36120   1.927  30.028  10.553
67747W        W36121  39.482  36.541  13.898
67748W        W36122  28.123   7.762   2.262
67749W        W36123  14.678  25.705  13.394
67750W        W36124  25.969  32.127   3.189
67751W        W36125   9.827  37.855   2.358
67752W        W36126  40.923  26.465  10.987
67753W        W36127  19.636  15.819   2.324
67754W        W36128   0.444  21.644  14.933
67755W        W36129   6.777  20.594   3.746
67756W        W36130  12.302  20.692  11.608
67757W        W36131  44.261  11.778  10.459
67758W        W36132  25.642   5.848   1.389
67759W        W36133  15.786  29.609   2.767
67760W        W36134  30.514   1.818   4.771
67761W        W36135  16.588  12.719   4.748
67762W        W36136  19.152  18.076   2.388
67763W        W36137   6.705  12.234  12.899
67764W        W36138  40.508   4.858  12.435
67765W        W36139  41.341   1.480  12.538
67766W        W36140  19.236  43.318  13.408
67767W        W36141  23.585  40.929  13.868
67768W        W36142  18.163  14.697   2.777
67769W        W36143   1.951  17.731   2.816
67770W        W36144  15.239  22.174   0.792
67771W        W36145   2.368   4.932  12.919
67772W        W36146   1.398   4.342   2.871
67773W        W36147  33.127  17.069  13.859
67774W        W36148   5.341  23.194  11.086
67775W        W36149  21.081  19.547  11.899
67776W        W36150  36.917  22.722   4.776
67777W        W36151   0.289  24.561  11.881
67778W        W36152  38.397  27.651  13.882
67779W        W36153  23.047  31.584   4.252
67780W        W36154   3.765  21.617  11.445
67781W        W36155  26.985   8.709   0.928
67782W        W36156  17.177  26.177  11.958
67783W        W36157   4.427  32.114  10.639
67784W        W36158  21.062   8.846   0.852
67785W        W36159  22.090  31.080   3.274
67786W        W36160  17.132  12.233  11.378
67787W        W36161  12.692  31.108  14.771
67788W        W36162  34.980  13.754   4.309
67789W        W36163  17.216  12.744   2.303
67790W        W36164  44.279  10.746   4.349
67791W        W36165   7.671  24.583  13.427
67792W        W36166  24.679  15.242   4.173
67793W        W36167  28.566  42.902   9.608
67794W        W36168  33.029   8.836   3.298
67795W        W36169  14.149  10.262   2.360
67796W        W36170  44.263   4.222  13.463
67797W        W36171   8.798  13.242  13.319
67798W        W36172  33.532   1.472   4.183
67799W        W36173  41.341  22.167  14.278
67800W        W36174  19.107  44.283   0.332
67801W        W36175  10.160  27.966  11.939
67802W        W36176  17.142  11.136  13.486
67803W        W36177  32.043  28.471   0.796
67804W        W36178   2.786   5.863   3.361
67805W        W36179  22.574   0.969   1.276
67806W        W36180  27.483  14.772  10.951
67807W        W36181  14.125  39.963  10.936
67808W        W36182   7.900  42.956  14.960
67809W        W36183  32.604  32.600   1.700
67810W        W36184  19.166  10.794   4.762
67811W        W36185   2.409   6.690   4.634
67812W        W36186  40.911  38.001  12.474
67813W        W36187  14.186  29.159   1.696
67814W        W36188  26.567  31.932   0.811
67815W        W36189  32.986  37.868  10.919
67816W        W36190  21.157  16.698  12.837
67817W        W36191  34.117  43.010   0.342
67818W        W36192  31.039  13.631  14.814
67819W        W36193  12.251   4.342  13.476
67820W        W36194  11.712  32.927   4.784
67821W        W36195  20.687   9.658  13.307
67822W        W36196  40.850  29.594  11.075
67823W        W36197  20.072   5.868  13.890
67824W        W36198  10.326  12.763   3.269
67825W        W36199   0.823   7.216   1.433
67826W        W36200   3.724   9.275  11.083
67827W        W36201   1.395  24.562  10.624
67828W        W36202  41.965   4.419   1.434
67829W        W36203  14.267  28.654   1.727
67830W        W36204  25.968  11.293   4.127
67831W        W36205  29.533  26.132  13.444
67832W        W36206   2.331  18.700   4.613
67833W        W36207   4.780  43.351   1.840
67834W        W36208   6.868   6.182  11.951
67835W        W36209  33.505  32.975   1.338
67836W        W36210   5.418   6.713   0.474
67837W        W36211  32.403  10.798  14.760
67838W        W36212  23.579  19.763   3.156
67839W        W36213  14.227  43.788   1.401
67840W        W36214  27.183  11.776   1.743
67841W        W36215  13.766  25.590   3.262
67842W        W36216  14.673  35.032   5.159
67843W        W36217  28.510   8.689  12.842
67844W        W36218  35.916  25.022   1.219
67845W        W36219  38.054  36.905   4.737
67846W        W36220  42.900  40.042  13.810
67847W        W36221  18.294  38.354  11.573
67848W        W36222  30.132  27.557  11.866
67849W        W36223  19.650   7.266  14.421
67850W        W36224  36.907  43.829   3.739
67851W        W36225  25.531  42.452  10.588
67852W        W36226  20.724  19.247  13.462
67853W        W36227  31.408  44.948  13.804
67854W        W36228  44.937  39.914   3.168
67855W        W36229  20.562   9.647  10.632
67856W        W36230  30.423  11.771  13.460
67857W        W36231  43.453  43.316   0.332
67858W        W36232  25.007  11.189  10.450
67859W        W36233   2.922  27.470  12.824
67860W        W36234  16.605  10.163  10.637
67861W        W36235  38.560  22.707  10.563
67862W        W36236  24.168  43.307   0.783
67863W        W36237  40.429   8.833   3.799
67864W        W36238  37.868  31.018   3.735
67865W        W36239  29.143  28.124  10.952
67866W        W36240   4.748  25.646  14.785
67867W        W36241  21.511  10.656   0.360
67868W        W36242  35.026   7.395   1.873
67869W        W36243  11.249  18.198  13.973
67870W        W36244  15.137  31.546   3.765
67871W        W36245  37.901   1.813   1.793
67872W        W36246   7.778  41.894   0.429
67873W        W36247  23.718  28.977  11.125
67874W        W36248  30.981   3.829  14.317
67875W        W36249   4.334  27.940  13.871
67876W        W36250  12.616  22.678  14.423
67877W        W36251  29.611  15.233   4.811
67878W        W36252  32.959   4.226  10.966
67879W        W36253  31.638  27.042   1.330
67880W        W36254  11.808  24.675   0.957
67881W        W36255  25.014  41.986  13.496
67882W        W36256   7.666   0.330   1.816
67883W        W36257  13.798  24.084   4.123
67884W        W36258  14.136  33.996  14.309
67885W        W36259  24.490  33.420  14.888
67886W        W36260   1.754  37.466  11.935
67887W        W36261  18.220   1.443  14.986
67888W        W36262  12.644  24.102   1.407
67889W        W36263   3.216   5.242   4.140
67890W        W36264   4.901  40.311  11.089
67891W        W36265  15.673  37.509   1.307
67892W        W36266  27.460  28.128  14.422
67893W        W36267  44.926   0.282  12.068
67894W        W36268  34.612  29.170  10.928
67895W        W36269  33.902  33.113  13.495
67896W        W36270  27.015  27.076   3.788
67897W        W36271  44.303  27.019   1.390
67898W        W36272   4.797   3.870  10.410
67899W        W36273  40.017   9.389   3.721
67900W        W36274  32.626  43.404   4.653
67901W        W36275  23.553  42.415   2.840
67902W        W36276  26.140  33.011  11.386
67903W        W36277  38.436  15.794  12.485
67904W        W36278   1.405  11.776  14.290
67905W        W36279   4.853   8.215  11.918
67906W        W36280  17.141  32.084  14.995
67907W        W36281  22.141  33.950   4.688
67908W        W36282  39.063  14.303  10.080
67909W        W36283  29.575  35.484  14.387
67910W        W36284  14.279  36.987  11.504
67911W        W36285  26.182   4.740  12.085
67912W        W36286  29.611  11.626  13.861
67913W        W36287   3.714  17.671  13.952
67914W        W36288   2.858  24.996  12.520
67915W        W36289  13.769  42.916   0.801
67916W        W36290  13.818   8.352  13.880
67917W        W36291  31.525  29.097  14.848
67918W        W36292  37.996  23.577   4.328
67919W        W36293  42.311  38.555   3.202
67920W        W36294   6.916  25.162   1.366
67921W        W36295  12.300  11.257  12.401
67922W        W36296   0.746  13.677  13.335
67923W        W36297  14.650  39.364   0.383
67924W        W36298   8.320  25.672   3.711
67925W        W36299  19.639  39.371  12.529
67926W        W36300   7.413  18.102  13.980
67927W        W36301  32.029   6.811  14.327
67928W        W36302  23.583  13.600   0.916
67929W        W36303   5.244  27.469   3.240
67930W        W36304   7.750  38.835  10.967
67931W        W36305   4.278  44.450   0.823
67932W        W36306  22.144  30.641   3.867
67933W        W36307   1.406  14.193  14.307
67934W        W36308  40.377   4.398  14.894
67935W        W36309  43.873  27.170   1.799
67936W        W36310   1.440  26.139   0.374
67937W        W36311  21.261  44.759   2.198
67938W        W36312  13.661  22.057  14.801
67939W        W36313  13.727  16.279   1.702
67940W        W36314   9.840  32.410   4.610
67941W        W36315  35.387  27.651   4.692
67942W        W36316  33.897  29.084   2.680
67943W        W36317   9.215   5.283  11.065
67944W        W36318   2.743  33.985   2.748
67945W        W36319  30.626  39.409   1.319
67946W        W36320   2.330  16.813  14.420
67947W        W36321  29.113  14.134   1.426
67948W        W36322  38.348   8.689   4.815
67949W        W36323  33.606   0.914  12.568
67950W        W36324   7.240  11.156   1.823
67951W        W36325  37.481  28.476   0.933
67952W        W36326  29.522  16.247  12.884
67953W        W36327   2.353  23.625   4.784
67954W        W36328  23.538  30.056  13.460
67955W        W36329  21.160  13.716  13.024
67956W        W36330  20.194  11.786   2.207
67957W        W36331   5.388  22.541  12.850
67958W        W36332  42.496  27.962   4.786
67959W        W36333  29.961   5.414   2.666
67960W        W36334   6.226   5.709  15.000
67961W        W36335  17.275  37.505  13.501
67962W        W36336  23.643   3.378   1.839
67963W        W36337  43.422  36.535  14.760
67964W        W36338  30.558  28.633   4.835
67965W        W36339  21.263  21.140  12.398
67966W        W36340  19.576  14.186  12.579
67967W        W36341   2.272  29.656   1.242
67968W        W36342  26.667  39.966   0.797
67969W        W36343   8.318  31.005  11.466
67970W        W36344   1.272  15.114   3.662
67971W        W36345   7.198  10.309   3.763
67972W        W36346  12.262   4.781  13.001
67973W        W36347  32.414   2.903   4.204
67974W        W36348  27.605  35.565  12.998
67975W        W36349  17.174  25.530  11.379
67976W        W36350  22.516   7.693  11.608
67977W        W36351  19.161   4.818  12.835
67978W        W36352  42.450  28.093  13.537
67979W        W36353   4.305  26.974  12.511
67980W        W36354  14.174  43.333   0.775
67981W        W36355  24.592  24.491  11.429
67982W        W36356  33.529  19.587   2.857
67983W        W36357  42.282  44.869  11.965
67984W        W36358  24.079  13.263  11.575
67985W        W36359   9.299   1.829  13.004
67986W        W36360  37.565  28.104  10.568
67987W        W36361  44.846  43.284  12.021
67988W        W36362   4.406  38.919  13.027
67989W        W36363  17.098  32.413  13.911
67990W        W36364   1.238  17.196  14.428
67991W        W36365  31.489  23.021   3.866
67992W        W36366  25.141   3.906   2.271
67993W        W36367  34.117   0.965   4.721
67994W        W36368  16.287   7.880   0.251
67995W        W36369  34.519  25.622   0.372
67996W        W36370   3.739  40.955   4.687
67997W        W36371  29.154  20.611  14.408
67998W        W36372   2.358  21.704  11.065
67999W        W36373  18.094  24.213   3.251
68000W        W36374  35.059  27.668   4.635
68001W        W36375  21.223   3.459  10.949
68002W        W36376  28.548  35.420   1.860
68003W        W36377  31.416  37.989   4.612
68004W        W36378   6.739   6.849   1.238
68005W        W36379  17.105  18.764  13.470
68006W        W36380  34.883   4.817  14.985
68007W        W36381  14.197  28.957  14.032
68008W        W36382   6.820  42.948   3.221
68009W        W36383  26.172  37.926  11.509
68010W        W36384  28.590  34.596   2.750
68011W        W36385  17.198   7.831   1.823
68012W        W36386  37.044  18.552   3.318
68013W        W36387  18.774   2.416  10.493
68014W        W36388  25.198  38.053   1.386
68015W        W36389  43.499  11.237   4.115
68016W        W36390  32.470  18.057   5.183
68017W        W36391  24.637   9.167  11.126
68018W        W36392  21.720   2.238   4.781
68019W        W36393   3.786  10.813  14.897
68020W        W36394  13.841  15.789   2.252
68021W        W36395  20.046  40.486   0.382
68022W        W36396  37.950  14.802   3.634
68023W        W36397  41.513  12.318  14.493
68024W        W36398  21.204   1.921  12.352
68025W        W36399  27.088  41.397   5.194
68026W        W36400  43.945   2.920  11.604
68027W        W36401   1.268  15.670   2.748
68028W        W36402   4.942  16.766   5.142
68029W        W36403  37.449  25.139  12.416
68030W        W36404  11.719  30.952   3.751
68031W        W36405  14.639  21.715   2.181
68032W        W36406  30.057   6.680  14.903
68033W        W36407  39.358   3.266   0.287
68034W        W36408  38.537  31.976  13.436
68035W        W36409  12.623   5.356  10.971
68036W        W36410  34.965  19.727  13.335
68037W        W36411  18.781  28.013  12.032
68038W        W36412  38.456   6.193   0.389
68039W        W36413  12.710  12.713  14.891
68040W        W36414  44.427   0.875  12.070
68041W        W36415  19.246  13.287   2.229
68042W        W36416   1.939  41.788   1.854
68043W        W36417  25.150  12.199  10.549
68044W        W36418  43.316  37.834  13.946
68045W        W36419  26.658   9.348  14.318
68046W        W36420  28.028  35.090   3.385
68047W        W36421  34.053  13.658  13.338
68048W        W36422   3.735  44.403   4.705
68049W        W36423  40.479  26.511  14.379
68050W        W36424  20.169  16.220   4.120
68051W        W36425  15.202  22.233  10.621
68052W        W36426  41.492  21.085  14.458
68053W        W36427   6.421   1.387  14.964
68054W        W36428   3.741  19.535  10.021
68055W        W36429  28.511  32.536   2.702
68056W        W36430   8.836  41.042  11.115
68057W        W36431  28.174  26.516  12.070
68058W        W36432  28.446  22.125   2.409
68059W        W36433  32.977  12.749  14.843
68060W        W36434  33.589   9.880   4.204
68061W        W36435  12.611  41.436   0.860
68062W        W36436  36.361  38.012  12.885
68063W        W36437   4.843  13.254   4.197
68064W        W36438  33.387  40.798   3.675
68065W        W36439  39.433  32.614  13.359
68066W        W36440  31.031  34.422  14.501
68067W        W36441  38.820  33.593  13.395
68068W        W36442  38.991  20.128   1.813
68069W        W36443  38.418  17.725   0.810
68070W        W36444  29.947  17.740   2.408
68071W        W36445   3.747  17.295   0.873
68072W        W36446  20.756  23.179   3.356
68073W        W36447  33.099  40.808   2.248
68074W        W36448  22.662  13.288  13.036
68075W        W36449  19.236   8.403   1.824
68076W        W36450  18.624  17.610  14.347
68077W        W36451  42.347  22.671   1.911
68078W        W36452  30.127  13.659   2.182
68079W        W36453  20.588  39.825   4.720
68080W        W36454  42.372  22.085  10.409
68081W        W36455  17.785   3.291   1.719
68082W        W36456  30.962   6.321   0.258
68083W        W36457  14.121  36.043   2.710
68084W        W36458  44.793  34.430  11.580
68085W        W36459  13.202   2.391  13.891
68086W        W36460   4.916  11.813   0.243
68087W        W36461   1.881  12.638  14.285
68088W        W36462  19.745   8.171  11.941
68089W        W36463  16.150  40.986  10.948
68090W        W36464  42.403  40.862  14.418
68091W        W36465  11.201  26.098  14.019
68092W        W36466   0.348  15.721  13.828
68093W        W36467  25.559  43.979  11.591
68094W        W36468   8.244  39.869  12.946
68095W        W36469  21.684   7.350  10.944
68096W        W36470  33.934   2.887   0.887
68097W        W36471  24.996  29.103  13.539
68098W        W36472  28.603   9.881   0.797
68099W        W36473  13.274  10.142   5.085
68100W        W36474  10.368  13.159   1.716
68101W        W36475  37.364  12.222  14.371
68102W        W36476  23.016  17.143   0.305
68103W        W36477  38.391   4.362   3.342
68104W        W36478  43.009  12.795  14.448
68105W        W36479   6.241  36.071   4.680
68106W        W36480  23.627  31.937   3.336
68107W        W36481  32.619  24.159   1.378
68108W        W36482  11.740   7.178  13.526
68109W        W36483  14.129   6.373   4.317
68110W        W36484  19.166   1.450   3.147
68111W        W36485  36.404  27.674  10.576
68112W        W36486  41.004  13.702  14.336
68113W        W36487   2.389  38.950   0.923
68114W        W36488  12.755  30.548   2.215
68115W        W36489  33.997  32.629   4.274
68116W        W36490   8.848  35.531   1.826
68117W        W36491  30.979  37.437   1.400
68118W        W36492  24.007  38.526  12.422
68119W        W36493  28.677  40.804   3.714
68120W        W36494  41.831  36.419  14.002
68121W        W36495  30.448  22.057   2.890
68122W        W36496  36.993  19.116  10.933
68123W        W36497  20.203  22.554   4.209
68124W        W36498  11.778  27.002  11.510
68125W        W36499   9.164   6.857   0.443
68126W        W36500  17.240  30.953  10.544
68127W        W36501   3.790  42.502  10.644
68128W        W36502  23.130  21.715  11.975
68129W        W36503  27.578  16.689  14.464
68130W        W36504   1.341   0.338   3.236
68131W        W36505  23.721  28.452  10.543
68132W        W36506   9.731  37.985  10.916
68133W        W36507  28.473  14.239  10.600
68134W        W36508  33.960  22.083  14.461
68135W        W36509  38.404  39.517   4.752
68136W        W36510  27.528   4.357  11.919
68137W        W36511  43.860  37.345   2.722
68138W        W36512  29.665  32.583   3.728
68139W        W36513  13.209  30.958  10.478
68140W        W36514   1.276  44.296   1.751
68141W        W36515  23.223  19.228  12.003
68142W        W36516  29.157   1.759   1.917
68143W        W36517   7.347  38.997   0.244
68144W        W36518   0.820  38.861  12.965
68145W        W36519  32.513  21.514  14.958
68146W        W36520   0.397   1.248   3.760
68147W        W36521  13.225  44.007   0.355
68148W        W36522  36.094  16.652   4.785
68149W        W36523  20.737   3.306  11.407
68150W        W36524   3.719  13.836   3.742
68151W        W36525  31.418  38.525  14.831
68152W        W36526  31.121  28.593   0.749
68153W        W36527  25.104  23.724   4.702
68154W        W36528  19.102  25.482   2.393
68155W        W36529  33.537  11.360  11.094
68156W        W36530   6.329  31.036   1.741
68157W        W36531  10.702   2.785  12.532
68158W        W36532  18.121  22.612  12.937
68159W        W36533  22.657  38.529  11.059
68160W        W36534   4.379  19.136   1.266
68161W        W36535  24.582  10.327  12.074
68162W        W36536   9.163   5.904  11.492
68163W        W36537  22.680  39.899   2.314
68164W        W36538  40.817   1.386  14.023
68165W        W36539  31.004  12.174  13.842
68166W        W36540  13.154   4.887  11.039
68167W        W36541   1.440  22.525   0.876
68168W        W36542  33.032  35.855   0.789
68169W        W36543  26.700  16.659   1.890
68170W        W36544  23.988  35.418   3.717
68171W        W36545  18.610   4.219   2.726
68172W        W36546  40.998  28.468  12.467
68173W        W36547   8.365   3.278  10.025
68174W        W36548  13.629   1.445  10.404
68175W        W36549  16.577  23.108   0.319
68176W        W36550   7.193  27.517   0.247
68177W        W36551  23.541  40.962  12.007
68178W        W36552  15.098  26.061   4.698
68179W        W36553  28.168  40.480   2.895
68180W        W36554   1.887   5.217   4.331
68181W        W36555  24.488  39.501  11.036
68182W        W36556  29.592  19.186  10.930
68183W        W36557   8.702   8.808   1.757
68184W        W36558  35.865  37.878  11.974
68185W        W36559  12.660  35.867  11.441
68186W        W36560   6.268  31.505  14.386
68187W        W36561  38.011  15.141  14.481
68188W        W36562   5.828  22.601   2.329
68189W        W36563  31.003  21.145   2.258
68190W        W36564   0.307  43.321   4.669
68191W        W36565  14.796  18.569  12.501
68192W        W36566  25.537  18.244  12.011
68193W        W36567  10.305  42.381   4.705
68194W        W36568  36.845  23.162  10.963
68195W        W36569  12.200   3.301  10.550
68196W        W36570   2.242  22.193  11.031
68197W        W36571  30.060   2.339   1.297
68198W        W36572  21.703  43.334  12.854
68199W        W36573  28.517  15.152   0.865
68200W        W36574   3.283  14.699   0.463
68201W        W36575  16.729  39.864  11.024
68202W        W36576  15.303   6.345  14.913
68203W        W36577  28.131  23.173   0.927
68204W        W36578  10.217   1.460   1.214
68205W        W36579  23.735  36.519  13.435
68206W        W36580  24.172  39.331   4.751
68207W        W36581  28.155  22.606  14.788
68208W        W36582   0.374  25.575  14.381
68209W        W36583   5.737   7.219   3.343
68210W        W36584  36.067  22.117   0.925
68211W        W36585  26.972  19.665   2.902
68212W        W36586   3.287   8.862   4.216
68213W        W36587   3.791   1.336   0.821
68214W        W36588  22.625  19.135  14.805
68215W        W36589  19.130  12.706   2.897
68216W        W36590  34.482   8.684   4.256
68217W        W36591  43.879  12.273  12.845
68218W        W36592  27.156   9.751  11.087
68219W        W36593  40.945  41.295  14.395
68220W        W36594  22.614  37.505   4.306
68221W        W36595  18.561  24.123   1.836
68222W        W36596  28.134  22.186  13.402
68223W        W36597  16.257  13.306   3.837
68224W        W36598  37.078  21.186  13.966
68225W        W36599   7.878  28.447   0.254
68226W        W36600  14.716  36.447   4.617
68227W        W36601  12.263  28.606   2.812
68228W        W36602  37.034   0.417   3.279
68229W        W36603  14.792  35.066   0.322
68230W        W36604  34.896   2.276   4.305
68231W        W36605  37.867  29.597   4.725
68232W        W36606   3.786  28.602   2.808
68233W        W36607   1.911   2.392   0.912
68234W        W36608  12.638  26.161   3.229
68235W        W36609   7.263   4.223  12.445
68236W        W36610  43.807   1.927  15.000
68237W        W36611  28.138  39.450  13.921
68238W        W36612  28.512   9.774   0.269
68239W        W36613  27.195   8.855   1.748
68240W        W36614   5.789  26.206   0.780
68241W        W36615  21.544  17.649   1.340
68242W        W36616  36.374  24.034   4.633
68243W        W36617   1.966  10.285  10.548
68244W        W36618  25.193  40.018   1.282
68245W        W36619  20.253  41.363   0.260
68246W        W36620  33.039  14.229   4.665
68247W        W36621  18.714  42.811   3.780
68248W        W36622  38.824  14.678  11.964
68249W        W36623   2.399  23.096  13.343
68250W        W36624  24.674   4.838  10.630
68251W        W36625  35.510  17.179   0.954
68252W        W36626   6.778   8.328   2.180
68253W        W36627  22.645   9.754  11.496
68254W        W36628  25.140  24.115   0.811
68255W        W36629  43.358  37.961   2.666
68256W        W36630   6.202  42.995  13.456
68257W        W36631  14.143  44.347   3.729
68258W        W36632  17.151  31.969   1.244
68259W        W36633  36.045  39.974  14.834
68260W        W36634  44.910  41.899   2.749
68261W        W36635   7.758  22.160   0.867
68262W        W36636  43.458   0.754  14.279
68263W        W36637   5.861  32.979   4.229
68264W        W36638  42.786  31.107   3.741
68265W        W36639   3.833   5.296   4.223
68266W        W36640  22.616   8.289   1.890
68267W        W36641  21.543  11.349  14.310
68268W        W36642  16.100  26.150   0.278
68269W        W36643   7.304  29.438   2.234
68270W        W36644   3.272  22.726  14.976
68271W        W36645  29.128   3.317  10.613
68272W        W36646  18.063  11.835   0.763
68273W        W36647  12.249  44.406  10.524
68274W        W36648  34.502   8.398   1.247
68275W        W36649  19.555  40.466   2.235
68276W        W36650  36.495  13.628   1.697
68277W        W36651  20.544   9.325  14.506
68278W        W36652  19.554  18.657   4.772
68279W        W36653   9.236  42.858  14.287
68280W        W36654  36.865  43.366   2.820
68281W        W36655   1.744   3.336   2.825
68282W        W36656  19.158  18.136  10.559
68283W        W36657  26.656  37.530   3.854
68284W        W36658  10.376  10.370   1.710
68285W        W36659   9.706  30.002   5.089
68286W        W36660  14.228  17.698   0.278
68287W        W36661  37.431  11.262  14.416
68288W        W36662  23.048  41.421  11.513
68289W        W36663   5.774  14.234   1.312
68290W        W36664  24.651  39.983   2.769
68291W        W36665  36.571  39.825  14.470
68292W        W36666  11.766  16.311   0.872
68293W        W36667  23.578  27.583   0.748
68294W        W36668  24.035   9.345  12.868
68295W        W36669  22.234  14.628  11.502
68296W        W36670   4.295  14.809  12.374
68297W        W36671  12.257  44.988   2.750
68298W        W36672  12.276  27.567   0.296
68299W        W36673   5.745  12.187   4.308
68300W        W36674  12.820  40.912  11.514
68301W        W36675   5.229  36.376   1.431
68302W        W36676  10.722  14.309  10.533
68303W        W36677  25.662  43.908   2.226
68304W        W36678  42.982  18.292   3.304
68305W        W36679  12.666   4.818  12.997
68306W        W36680  35.910  19.063   3.724
68307W        W36681  39.345  43.950  10.641
68308W        W36682  31.017  14.759   4.348
68309W        W36683  41.942  40.808  11.866
68310W        W36684  37.014   9.649  11.121
68311W        W36685  41.309   2.237  11.037
68312W        W36686  44.958  20.250   4.727
68313W        W36687  14.336  37.982  13.880
68314W        W36688  19.754  26.513  11.436
68315W        W36689  15.762  21.628   4.804
68316W        W36690  42.296   2.273   1.891
68317W        W36691  12.214  25.714   2.736
68318W        W36692  35.964  16.567  11.915
68319W        W36693  11.845  29.143   2.217
68320W        W36694  20.608  25.076   1.410
68321W        W36695  42.913  12.761   2.757
68322W        W36696   0.803  23.009   4.227
68323W        W36697  17.273  28.480   4.221
68324W        W36698  25.658  44.487   0.444
68325W        W36699  28.027  10.740   0.328
68326W        W36700  31.508  44.776  11.498
68327W        W36701  13.600  28.583  13.540
68328W        W36702   8.201  29.971   2.824
68329W        W36703  24.547  13.614   0.291
68330W        W36704  16.199  38.020  13.454
68331W        W36705  22.087   6.684   4.150
68332W        W36706  35.103  35.441   1.794
68333W        W36707   6.334  17.166   1.898
68334W        W36708  14.258  40.438  10.983
68335W        W36709   8.773  44.368   3.234
68336W        W36710  42.842   5.869  10.573
68337W        W36711  36.564  40.048   1.730
68338W        W36712  25.971  40.871  14.431
68339W        W36713  39.959  28.552   0.259
68340W        W36714  23.988  37.862  13.935
68341W        W36715   9.700  19.076   2.675
68342W        W36716  41.360  37.508   2.275
68343W        W36717   1.237  39.394  11.941
68344W        W36718   5.860  28.046   0.281
68345W        W36719  27.540  40.038   2.416
68346W        W36720  27.471  20.147   0.478
68347W        W36721  26.038  39.971   3.223
68348W        W36722   5.910  41.326  13.856
68349W        W36723  21.148   1.310   5.304
68350W        W36724   3.788  22.693   2.748
68351W        W36725   6.875  34.522  11.496
68352W        W36726  15.091  37.526  10.943
68353W        W36727   1.858  38.354  12.545
68354W        W36728  27.072  17.100   3.344
68355W        W36729  30.940  13.699   2.843
68356W        W36730  25.632  27.467  13.324
68357W        W36731  34.614  34.458  12.000
68358W        W36732  23.512  40.363  11.422
68359W        W36733  24.149  39.914  13.023
68360W        W36734  37.830  20.613   3.164
68361W        W36735  43.286   8.703   2.797
68362W        W36736  25.525   2.376  14.851
68363W        W36737  28.443  18.738   2.283
68364W        W36738   1.864  23.585  13.995
68365W        W36739  35.581  11.795  12.578
68366W        W36740  35.596  29.141   4.598
68367W        W36741   5.728  10.349   0.462
68368W        W36742   0.279  21.601  14.466
68369W        W36743  12.730  33.889   1.284
68370W        W36744  37.493  28.558   1.275
68371W        W36745   0.906   7.247  10.551
68372W        W36746  29.115  17.618  13.808
68373W        W36747  18.617  17.195  14.450
68374W        W36748  29.487  15.747   0.483
68375W        W36749  17.163  23.079  14.424
68376W        W36750   7.400  19.588   5.592
68377W        W36751  10.341   4.841  14.966
68378W        W36752  11.307   3.431  14.782
68379W        W36753   5.381  15.610  12.056
68380W        W36754   4.322  37.452  14.875
68381W        W36755  21.551  27.141  11.045
68382W        W36756  10.236  33.476   5.159
68383W        W36757   7.364  19.161   0.850
68384W        W36758  10.874   8.698  12.478
68385W        W36759   4.422  34.487  11.074
68386W        W36760  31.145   3.329  12.384
68387W        W36761  19.672  30.141  10.599
68388W        W36762  33.436  19.258  11.532
68389W        W36763  33.554  22.502   4.651
68390W        W36764  24.641   8.736   3.784
68391W        W36765  36.901  31.071  13.848
68392W        W36766  28.934   4.234   3.776
68393W        W36767   0.908  15.772   3.827
68394W        W36768  26.637  38.364   2.360
68395W        W36769  25.664   3.287   3.176
68396W        W36770  28.062  21.693   2.277
68397W        W36771  38.395  42.371   4.663
68398W        W36772  17.263  23.095  11.454
68399W        W36773   4.247   1.893   1.397
68400W        W36774  34.116  34.056  10.517
68401W        W36775   0.271  24.525   3.820
68402W        W36776   6.387  28.555  13.548
68403W        W36777   7.850  24.994  11.944
68404W        W36778  37.001  21.186   1.877
68405W        W36779  37.036   0.359  12.385
68406W        W36780  11.222  37.919   1.756
68407W        W36781  32.073  32.070  12.075
68408W        W36782  14.703   9.676   1.430
68409W        W36783  37.528   2.348  13.353
68410W        W36784  22.091  29.086  10.620
68411W        W36785  21.109  41.449   3.693
68412W        W36786   1.261  18.599  11.506
68413W        W36787  19.716  16.223  13.343
68414W        W36788  31.047  17.663  14.931
68415W        W36789  10.160  23.660   4.714
68416W        W36790  23.562   4.790  14.424
68417W        W36791  44.263  18.274   3.213
68418W        W36792   0.468  24.724  11.417
68419W        W36793   9.347  30.940   3.744
68420W        W36794   1.939  39.355  14.763
68421W        W36795  13.160  16.121   1.821
68422W        W36796  20.755  18.720   1.888
68423W        W36797   2.851  13.758  14.410
68424W        W36798  31.046  35.602   1.376
68425W        W36799  11.156  13.167   4.267
68426W        W36800  31.611  31.489   2.739
68427W        W36801   8.711   5.364  11.017
68428W        W36802  19.657  34.555  14.371
68429W        W36803  13.832  10.753   3.200
68430W        W36804  29.970   1.799  13.469
68431W        W36805   3.409  12.265   3.373
68432W        W36806  42.938  16.587   1.442
68433W        W36807  15.169  25.989  12.058
68434W        W36808  16.575   6.344  12.904
68435W        W36809  41.953  11.650  10.993
68436W        W36810  34.470  23.097  11.020
68437W        W36811  19.669   4.291   0.801
68438W        W36812  11.853  15.150  11.941
68439W        W36813  16.176  44.808  13.465
68440W        W36814  40.861  38.843  13.496
68441W        W36815  10.359  32.014   1.899
68442W        W36816  14.327  29.115  12.342
68443W        W36817  30.510  38.911  10.572
68444W        W36818  37.941  31.542   4.211
68445W        W36819  34.880   8.884  10.487
68446W        W36820  23.202  18.708   1.808
68447W        W36821  10.742  28.608   1.934
68448W        W36822  29.947  10.253   2.344
68449W        W36823  16.084  36.358  11.581
68450W        W36824  42.940  34.990   2.724
68451W        W36825   2.775  17.156   2.885
68452W        W36826   3.218  14.662  12.580
68453W        W36827   2.905  28.679  13.828
68454W        W36828  27.167  15.198  14.845
68455W        W36829  35.554  21.251  11.470
68456W        W36830  21.599  11.172   0.750
68457W        W36831  38.543  25.191   2.754
68458W        W36832  39.375   7.367  13.812
68459W        W36833   2.730  20.539   1.902
68460W        W36834   8.269  11.146   4.339
68461W        W36835  27.604  26.067  14.980
68462W        W36836  28.465  34.045  12.557
68463W        W36837  19.755  23.138   2.798
68464W        W36838  34.034  42.022   2.706
68465W        W36839  16.781   1.470   4.185
68466W        W36840   2.453   3.422  14.483
68467W        W36841  34.475  28.174  10.953
68468W        W36842  33.065  42.377   4.772
68469W        W36843   7.697  41.358   3.154
68470W        W36844  20.622  36.546  12.909
68471W        W36845  19.734  19.127   0.799
68472W        W36846   1.967  39.002  12.469
68473W        W36847   7.723  23.545  12.456
68474W        W36848  17.567   3.922   3.340
68475W        W36849  33.445  15.151   4.131
68476W        W36850  15.605  32.965  14.790
68477W        W36851  30.918  40.985  11.022
68478W        W36852  15.588   7.843  11.608
68479W        W36853  25.495  44.392  10.544
68480W        W36854   8.364  22.661  12.030
68481W        W36855  30.134  36.450   0.396
68482W        W36856  32.534  21.038   3.717
68483W        W36857  33.914  18.253   4.262
68484W        W36858  11.140  36.588  11.519
68485W        W36859  36.546  25.622  12.947
68486W        W36860  19.213  12.814  11.599
68487W        W36861  15.303   2.867   2.314
68488W        W36862  12.247  25.061   1.875
68489W        W36863  14.265  31.918  11.927
68490W        W36864  22.646  29.098   1.796
68491W        W36865  22.240  12.290  14.327
68492W        W36866  35.521  33.386  14.275
68493W        W36867   1.264   4.343  10.643
68494W        W36868  19.623  34.877   4.800
68495W        W36869  23.212  15.720   4.122
68496W        W36870  44.798  40.925   1.251
68497W        W36871  16.142  29.569  14.017
68498W        W36872   0.867   6.739   1.844
68499W        W36873  40.394   8.876  14.430
68500W        W36874  27.033  44.003  11.447
68501W        W36875  15.645  22.635  11.384
68502W        W36876  36.031  32.981  14.029
68503W        W36877   2.269  37.063   4.319
68504W        W36878   9.764  32.913  11.428
68505W        W36879  13.800  27.513   3.362
68506W        W36880  30.528  44.781  10.953
68507W        W36881  17.564  31.998   4.838
68508W        W36882  21.718  29.515  12.484
68509W        W36883  20.604  15.707   3.382
68510W        W36884   6.406   3.909  10.460
68511W        W36885  41.475  33.884   3.769
68512W        W36886  41.994  39.014   0.477
68513W        W36887  44.388  21.526   4.731
68514W        W36888  29.473  39.344   0.413
68515W        W36889  32.028   6.235   4.783
68516W        W36890   0.904  29.605   0.312
68517W        W36891  17.305  38.473   4.779
68518W        W36892   6.343   4.361   0.967
68519W        W36893   8.721  28.007   0.284
68520W        W36894  38.828   0.423   2.314
68521W        W36895  23.653   1.874  14.947
68522W        W36896  30.116  19.113  14.280
68523W        W36897  23.630  44.923   3.382
68524W        W36898  27.591   2.236  12.079
68525W        W36899  31.064  17.254  14.936
68526W        W36900  31.404  42.310   2.879
68527W        W36901  30.069  40.420  11.394
68528W        W36902  33.884  36.493   3.300
68529W        W36903   3.333  15.158  12.838
68530W        W36904  43.874  15.701   1.273
68531W        W36905  25.530  14.679   2.319
68532W        W36906   0.452  37.512  13.043
68533W        W36907  12.677  14.644  14.996
68534W        W36908  24.045   4.229  13.061
68535W        W36909  43.349  34.602   4.115
68536W        W36910  42.431  11.148  13.921
68537W        W36911  11.315   2.762  13.042
68538W        W36912  40.324  30.471   9.984
68539W        W36913  15.821  28.128   4.198
68540W        W36914  15.699  10.649   0.403
68541W        W36915  18.102   5.370   3.284
68542W        W36916  18.614  23.684   4.761
68543W        W36917  27.549  38.899  13.964
68544W        W36918  11.788   7.401   2.286
68545W        W36919  30.106  42.451   1.787
68546W        W36920  33.929  19.665   0.367
68547W        W36921  40.845  13.147  12.094
68548W        W36922  38.891  34.083   5.163
68549W        W36923  12.307  44.308  11.966
68550W        W36924  33.467  38.900  14.964
68551W        W36925   4.786  14.236   0.861
68552W        W36926  30.555  23.542  14.992
68553W        W36927  14.754   9.149  14.886
68554W        W36928  33.421  26.554  12.555
68555W        W36929  14.235  25.468   1.298
68556W        W36930   8.340  20.237   2.798
68557W        W36931  44.822   7.778   2.240
68558W        W36932  40.031  13.747   2.788
68559W        W36933  11.646  38.530  14.308
68560W        W36934  27.631  22.740  13.545
68561W        W36935   9.330   1.930  14.934
68562W        W36936  32.483  35.390  14.809
68563W        W36937  26.011  34.549  11.416
68564W        W36938  35.941  28.952   4.281
68565W        W36939  28.143  11.297   4.706
68566W        W36940  22.534  21.173  12.354
68567W        W36941  40.823  30.982  13.826
68568W        W36942  16.721  43.964   4.625
68569W        W36943  41.865   8.705   1.276
68570W        W36944  13.795   7.900  13.879
68571W        W36945  37.393  40.909   3.351
68572W        W36946   9.810  37.545  10.525
68573W        W36947  39.035  39.393   2.255
68574W        W36948  25.996  29.951   2.798
68575W        W36949   8.188  27.955  13.470
68576W        W36950   9.316   6.791   1.373
68577W        W36951  43.770  11.314   2.882
68578W        W36952  18.052  18.589  11.552
68579W        W36953  31.937  22.108   3.820
68580W        W36954  18.050  14.179  12.385
68581W        W36955   6.678  15.168   2.855
68582W        W36956  30.925  28.533   2.719
68583W        W36957  18.726  22.716  14.889
68584W        W36958   7.248   8.306  10.967
68585W        W36959  40.467  21.628   0.799
68586W        W36960   6.708   3.428   4.785
68587W        W36961  36.864  12.853   3.227
68588W        W36962  27.084   7.340   4.804
68589W        W36963  22.605  32.944   2.712
68590W        W36964   4.762  15.637  12.403
68591W        W36965   2.966  38.528   3.212
68592W        W36966   2.340  38.821  11.402
68593W        W36967  15.607  14.677  11.410
68594W        W36968  29.147  39.526  11.071
68595W        W36969  23.555  11.301   3.811
68596W        W36970  11.253  43.405   4.194
68597W        W36971   5.857  14.173  14.913
68598W        W36972  43.865  40.846  13.857
68599W        W36973   0.784  16.243  13.026
68600W        W36974   0.942  25.547   0.264
68601W        W36975  15.752  20.564   4.739
68602W        W36976  23.648   1.847  13.914
68603W        W36977  31.418  10.755   4.302
68604W        W36978  34.025   9.172   1.823
68605W        W36979  28.655  10.369  10.479
68606W        W36980  15.643  27.525  10.073
68607W        W36981  38.051  18.563   0.899
68608W        W36982  44.388  23.653  11.883
68609W        W36983  15.732  28.130   2.748
68610W        W36984   1.377  17.613   1.321
68611W        W36985  21.147  39.515   1.831
68612W        W36986   7.894  37.366  11.442
68613W        W36987  18.692  37.431   5.314
68614W        W36988   5.917  44.371  11.051
68615W        W36989  11.845  38.403   2.708
68616W        W36990  26.476  40.915  12.357
68617W        W36991   3.345  32.522   2.417
68618W        W36992  32.939  21.017  12.075
68619W        W36993   0.442  29.475  12.407
68620W        W36994  35.102   7.871   1.900
68621W        W36995  13.243  32.103   1.429
68622W        W36996  18.688  34.603  12.062
68623W        W36997   2.466  37.057   0.365
68624W        W36998  15.668  21.176  14.800
68625W        W36999  41.406   1.368  14.787
68626W        W37000  26.511  29.001  11.489
68627W        W37001   2.255  39.522  14.471
68628W        W37002  13.711  37.427   3.153
68629W        W37003  41.294  10.307  12.381
68630W        W37004  23.058   1.883  13.313
68631W        W37005  44.427   9.306   2.890
68632W        W37006  16.673  26.624   0.797
68633W        W37007  15.272  10.304  12.033
68634W        W37008   3.764  37.462  11.484
68635W        W37009  16.231  20.660   4.701
68636W        W37010  25.473  39.987  12.483
68637W        W37011  28.023   0.357   5.293
68638W        W37012  25.097  27.681  14.962
68639W        W37013  37.445  39.555   1.376
68640W        W37014  22.136  35.044   4.300
68641W        W37015  28.018  33.392  10.156
68642W        W37016  27.111  39.382  13.829
68643W        W37017  11.672  30.953   0.324
68644W        W37018  34.486  21.717  12.095
68645W        W37019  36.012  16.615  13.882
68646W        W37020  44.498  41.301  13.965
68647W        W37021  43.919  36.061  11.586
68648W        W37022  36.431  30.546  14.381
68649W        W37023  15.195  19.692  10.979
68650W        W37024  39.877  41.793  10.542
68651W        W37025   8.866   3.416  11.606
68652W        W37026   9.275  24.996   0.752
68653W        W37027  33.455  27.967   4.238
68654W        W37028   8.687  11.179   1.442
68655W        W37029  29.139  10.287  10.961
68656W        W37030  30.113   8.795  14.904
68657W        W37031  11.694  22.590  13.413
68658W        W37032  21.225  18.065  10.580
68659W        W37033  16.086  28.474   2.721
68660W        W37034  28.963  21.629  14.815
68661W        W37035  31.558  33.620   3.658
68662W        W37036  31.540  42.457  13.005
68663W        W37037  36.478  17.184  10.579
68664W        W37038   7.172   4.705   3.175
68665W        W37039  29.669  34.493   4.185
68666W        W37040  30.096  44.785  12.852
68667W        W37041  13.750   6.297  14.377
68668W        W37042  18.196  37.082   3.762
68669W        W37043  43.316   1.409  12.440
68670W        W37044  30.152  43.964   1.365
68671W        W37045   3.330  11.305  11.495
68672W        W37046  44.457  24.138   2.710
68673W        W37047  19.721   8.336  13.517
68674W        W37048  28.151  12.729   0.412
68675W        W37049  29.965   3.902  12.395
68676W        W37050  44.365  35.521   3.160
68677W        W37051  29.612   4.928  13.459
68678W        W37052  43.920   9.314   0.481
68679W        W37053  14.610   7.846  11.439
68680W        W37054  21.255   0.890   3.661
68681W        W37055  37.974  21.247   5.282
68682W        W37056  43.434  20.642   1.260
68683W        W37057  39.898  38.921  11.385
68684W        W37058  40.898  22.081  14.760
68685W        W37059  31.566  23.678   2.245
68686W        W37060  12.146  31.121   1.389
68687W        W37061  29.097  37.377  13.024
68688W        W37062   4.754  25.109   2.217
68689W        W37063  35.886  32.053  13.052
68690W        W37064  32.022  44.839   2.376
68691W        W37065   7.831   6.890  14.280
68692W        W37066  16.143  26.993   4.633
68693W        W37067  28.485  41.858  13.346
68694W        W37068  23.017  36.536  11.599
68695W        W37069  11.263  28.613  13.996
68696W        W37070   8.815  24.124   0.898
68697W        W37071  25.962  22.097  14.909
68698W        W37072  38.364  25.984   1.443
68699W        W37073  31.147  32.917   2.309
68700W        W37074   3.893  39.956   1.307
68701W        W37075  19.159  18.259   4.663
68702W        W37076  36.952   6.730  11.611
68703W        W37077  26.663  26.566   1.287
68704W        W37078  33.496  10.306   0.743
68705W        W37079  40.963  28.958   4.265
68706W        W37080  23.151  19.271   0.461
68707W        W37081  25.701  17.187   1.899
68708W        W37082  13.805  41.374   4.279
68709W        W37083  24.513  35.978  13.349
68710W        W37084  34.396  17.567   2.199
68711W        W37085   6.696   2.463  12.038
68712W        W37086  21.550  25.076   0.416
68713W        W37087  28.601  21.544  12.575
68714W        W37088  19.762  41.816  11.051
68715W        W37089   5.838  17.657   4.196
68716W        W37090  29.524  34.546  12.984
68717W        W37091   7.329  29.943  13.437
68718W        W37092  27.524  42.953  11.373
68719W        W37093  17.703   9.316  13.035
68720W        W37094  27.985   5.298  11.382
68721W        W37095  15.803   6.901   2.308
68722W        W37096  13.132   3.787  10.621
68723W        W37097   8.321  28.608  11.406
68724W        W37098  18.750   8.889   0.907
68725W        W37099   6.733  37.975  13.038
68726W        W37100  19.570  25.007  14.373
68727W        W37101  40.315  43.855  12.826
68728W        W37102  19.699  17.720   2.687
68729W        W37103  25.536  20.263   0.864
68730W        W37104  15.770  10.658   1.213
68731W        W37105  39.001  32.019  10.579
68732W        W37106  33.452  30.546   4.785
68733W        W37107  15.141   4.752   1.252
68734W        W37108  38.983  23.024  14.779
68735W        W37109  10.372  33.035   1.898
68736W        W37110  33.573   1.359   1.785
68737W        W37111  11.319  29.115   2.234
68738W        W37112  30.045  17.194   2.671
68739W        W37113  23.160  25.217  11.079
68740W        W37114  27.683  29.989  10.962
68741W        W37115  18.281  18.238  12.573
68742W        W37116   6.726  34.110  14.903
68743W        W37117   3.803  18.251  10.581
68744W        W37118  28.069  29.461  11.508
68745W        W37119  37.463  26.163  12.018
68746W        W37120  28.518  41.330  14.963
68747W        W37121  27.175  30.121   3.246
68748W        W37122  33.913  15.107  14.968
68749W        W37123  44.889  33.949   3.221
68750W        W37124  30.649  37.908   3.148
68751W        W37125  16.664  19.653  14.009
68752W        W37126  20.158  36.513  13.473
68753W        W37127  42.427   3.808   0.899
68754W        W37128   8.795  13.160  14.948
68755W        W37129  40.380   1.750   0.738
68756W        W37130  15.270  28.033  10.510
68757W        W37131  27.153   0.448   1.410
68758W        W37132  44.293  19.776  13.474
68759W        W37133  28.111  16.633  14.486
68760W        W37134  34.459  38.382   3.289
68761W        W37135   5.715  41.396  12.453
68762W        W37136  13.796   2.864  11.396
68763W        W37137  43.430  15.800   3.170
68764W        W37138  41.795  40.500   3.213
68765W        W37139  25.635  27.995   9.974
68766W        W37140  39.016   4.883  13.538
68767W        W37141  24.520   8.839  13.414
68768W        W37142  25.143  37.837  11.896
68769W        W37143   9.317  44.360  14.409
68770W        W37144  34.964  26.046   2.901
68771W        W37145  13.238  29.523   2.408
68772W        W37146  24.691  10.365  13.929
68773W        W37147  28.181  14.133  13.948
68774W        W37148  19.550  21.531  14.357
68775W        W37149  39.854   1.304   2.861
68776W        W37150  37.520  34.035  13.515
68777W        W37151  36.408   6.709   0.386
68778W        W37152  28.948   0.418  12.560
68779W        W37153  10.816  31.029   2.844
68780W        W37154  20.133  21.572   0.245
68781W        W37155  36.045  16.234   3.818
68782W        W37156   1.378   1.317  12.890
68783W        W37157  25.499  24.689   4.341
68784W        W37158  43.899  20.545   0.438
68785W        W37159  28.066  40.000   3.199
68786W        W37160  37.541   7.823  14.019
68787W        W37161  42.949  17.637  14.806
68788W        W37162  38.862   2.417  11.459
68789W        W37163  30.643  18.107  10.952
68790W        W37164  44.829  31.598  11.912
68791W        W37165  15.694  25.546   3.723
68792W        W37166  31.912  42.016  13.369
68793W        W37167  11.793  34.924  11.491
68794W        W37168  33.463  11.310   3.735
68795W        W37169  31.603  34.987   1.813
68796W        W37170  38.912  26.158  12.020
68797W        W37171  22.013   3.904   0.348
68798W        W37172   8.727  31.530  10.950
68799W        W37173  31.503  11.770   2.780
68800W        W37174  29.540   4.363   3.192
68801W        W37175  33.623  41.865   1.373
68802W        W37176   8.358  32.921   1.715
68803W        W37177  34.425  43.330  14.031
68804W        W37178  32.970  38.915   2.664
68805W        W37179  15.155  10.763  13.925
68806W        W37180  37.503  43.011  11.415
68807W        W37181   7.325   3.824   1.893
68808W        W37182   5.378  43.302  14.396
68809W        W37183  11.308  18.244  11.466
68810W        W37184   3.766  32.012  13.520
68811W        W37185  22.501  24.114   0.344
68812W        W37186  30.480   2.954   2.196
68813W        W37187  35.067   0.784   1.451
68814W        W37188  32.611  38.424   0.371
68815W        W37189   8.371  17.608   5.304
68816W        W37190   7.314   5.690   2.261
68817W        W37191  36.932  19.544  13.803
68818W        W37192  24.513   9.229   2.402
68819W        W37193  33.530  35.436  11.611
68820W        W37194  33.455  26.641  12.826
68821W        W37195  37.435  23.099   0.391
68822W        W37196  10.251  39.998   1.711
68823W        W37197  32.006   8.747   0.389
68824W        W37198  31.506   3.726   3.263
68825W        W37199   5.393  18.649   1.347
68826W        W37200  34.925  39.844  10.591
68827W        W37201  13.330  31.437   2.883
68828W        W37202  43.416  33.611  14.908
68829W        W37203  38.514  44.412  12.410
68830W        W37204  17.745  14.759  12.906
68831W        W37205  27.196  16.245  11.415
68832W        W37206  41.843  12.623   0.794
68833W        W37207  42.833  11.203  10.586
68834W        W37208   9.272  23.052   2.224
68835W        W37209  21.753   5.223  14.305
68836W        W37210   9.384   4.240   5.111
68837W        W37211  35.008   8.252  12.996
68838W        W37212  43.889  10.232   0.900
68839W        W37213  39.017   6.232   4.223
68840W        W37214  26.556  44.934   5.255
68841W        W37215  20.241  28.604   4.321
68842W        W37216  40.363  25.122   2.290
68843W        W37217  18.628  37.021  10.548
68844W        W37218  15.252  31.537   2.898
68845W        W37219  33.509  27.457  12.943
68846W        W37220  31.558   8.363   0.944
68847W        W37221  12.133  18.094  12.900
68848W        W37222   0.491  28.575  11.582
68849W        W37223  23.105  20.709   1.848
68850W        W37224  23.123   1.891   3.668
68851W        W37225  15.638  39.879  13.501
68852W        W37226  39.947  35.499   2.414
68853W        W37227  17.779  23.619   2.897
68854W        W37228   4.878  21.200  14.966
68855W        W37229   9.885  32.905  13.830
68856W        W37230  22.625  13.143   1.401
68857W        W37231  18.729  24.112   2.884
68858W        W37232  14.685  30.630   0.446
68859W        W37233   2.822  40.962   4.718
68860W        W37234  21.573  39.417  11.012
68861W        W37235  38.529  30.085   3.339
68862W        W37236  23.596  37.466  13.905
68863W        W37237  42.965   0.404  13.929
68864W        W37238   1.376  39.412  11.001
68865W        W37239  39.453   2.822   4.748
68866W        W37240  32.022  27.493   4.738
68867W        W37241  25.542   3.428  14.484
68868W        W37242  39.010  10.657   3.379
68869W        W37243   1.378  28.476  14.998
68870W        W37244   0.839   2.229  12.444
68871W        W37245  14.202   7.241  11.489
68872W        W37246  19.743  38.354   2.297
68873W        W37247   4.804  25.678   1.724
68874W        W37248  35.970  10.747  12.942
68875W        W37249  28.946  24.617   4.605
68876W        W37250  16.192  37.517  13.337
68877W        W37251   1.781   7.852  13.467
68878W        W37252   2.962   8.845   0.843
68879W        W37253  44.777  42.328   0.870
68880W        W37254   0.943   0.366   4.837
68881W        W37255  21.524  42.947   4.141
68882W        W37256  29.463  30.972   3.243
68883W        W37257   3.731  24.518  11.863
68884W        W37258  16.590   9.839  11.998
68885W        W37259  32.002  31.534  14.856
68886W        W37260  39.890  20.743  13.979
68887W        W37261  43.918  41.409   0.835
68888W        W37262   8.388  25.039  10.636
68889W        W37263  35.462  13.341   1.711
68890W        W37264   4.837  31.573  14.984
68891W        W37265  43.019  29.591   3.297
68892W        W37266  16.156  21.051  11.472
68893W        W37267  11.767  43.966   0.894
68894W        W37268  19.245  31.411   4.599
68895W        W37269   5.759  13.749  12.855
68896W        W37270  44.885  12.167   1.852
68897W        W37271  36.042  18.627   2.359
68898W        W37272   6.703  15.692   0.315
68899W        W37273  40.355  14.729  12.568
68900W        W37274  39.892  18.710  14.403
68901W        W37275  37.345  35.951  13.897
68902W        W37276  21.750   5.298   2.889
68903W        W37277  10.363   9.665  10.441
68904W        W37278  21.021  34.051  11.375
68905W        W37279  24.482  24.664   4.143
68906W        W37280  35.058   7.291  12.084
68907W        W37281  27.629  44.324   2.898
68908W        W37282  20.033  28.551   3.348
68909W        W37283   1.405  29.110   1.365
68910W        W37284  30.047  30.613  10.579
68911W        W37285  37.027  15.102   1.850
68912W        W37286   7.721  19.241   3.723
68913W        W37287  30.503   0.266   3.669
68914W        W37288  26.034  14.301   2.329
68915W        W37289  17.719  14.728   2.774
68916W        W37290  29.997  31.634   2.343
68917W        W37291  42.352  43.384  13.442
68918W        W37292  16.224   8.694   2.719
68919W        W37293  22.555  16.736  14.478
68920W        W37294  17.599  33.908   3.308
68921W        W37295  26.127  22.203   4.331
68922W        W37296  26.137  18.112  11.412
68923W        W37297  12.335  35.976  12.974
68924W        W37298   8.379   8.783   0.781
68925W        W37299   1.468  27.658   1.398
68926W        W37300  31.046  32.927   1.886
68927W        W37301  10.334   3.748   2.792
68928W        W37302   2.377  31.574   0.344
68929W        W37303  40.499  13.203  10.905
68930W        W37304  29.518  34.574  12.424
68931W        W37305  25.513  33.581   5.195
68932W        W37306  11.202  17.780   2.215
68933W        W37307  13.697  30.023   1.314
68934W        W37308  14.822  22.728   3.814
68935W        W37309  39.888   5.736  11.530
68936W        W37310   1.856  34.001  11.535
68937W        W37311  29.535  15.297   1.870
68938W        W37312   8.275  37.046  12.016
68939W        W37313  34.931  36.543  12.933
68940W        W37314   0.866   9.265  11.083
68941W        W37315  28.463  20.227   0.287
68942W        W37316  44.315  15.670  14.852
68943W        W37317  30.020  31.902  11.596
68944W        W37318  25.645  30.487  11.933
68945W        W37319  13.255  20.260  11.412
68946W        W37320   1.845  11.132   2.402
68947W        W37321  26.461  14.829   1.270
68948W        W37322  41.340   5.763   2.350
68949W        W37323   6.678  32.597   0.772
68950W        W37324  37.062  42.835   3.747
68951W        W37325  36.955  42.896  12.516
68952W        W37326  31.440  37.530   1.438
68953W        W37327  16.224  43.826   2.204
68954W        W37328  29.648   7.810  12.841
68955W        W37329  36.095   4.849  12.025
68956W        W37330   0.434   5.780   0.361
68957W        W37331  26.655  11.357   3.721
68958W        W37332  11.860  39.003   5.109
68959W        W37333  32.101   0.900  11.575
68960W        W37334  26.050  43.785   9.465
68961W        W37335   3.255  21.658  13.357
68962W        W37336  38.375   6.862  13.969
68963W        W37337  36.354  24.527  14.490
68964W        W37338  35.364  25.546  11.986
68965W        W37339  18.267  38.404   4.200
68966W        W37340  31.010   2.954   0.300
68967W        W37341  24.137  37.849  14.515
68968W        W37342   8.350  12.787   4.699
68969W        W37343  43.310  23.995   0.433
68970W        W37344  13.789  18.279  10.632
68971W        W37345  27.623  22.556  13.877
68972W        W37346   7.768  17.285   5.302
68973W        W37347  12.356  34.955  13.413
68974W        W37348  37.488  27.944   4.165
68975W        W37349  12.189  12.813   4.352
68976W        W37350  36.551  30.149   1.212
68977W        W37351  41.908  22.151   4.280
68978W        W37352   0.348   0.419  11.435
68979W        W37353   6.812  40.383   3.164
68980W        W37354  43.514  37.345  14.937
68981W        W37355  22.249  21.534   0.284
68982W        W37356  29.608  23.490  12.070
68983W        W37357  33.894  43.274  13.461
68984W        W37358   9.212  29.971  10.978
68985W        W37359   9.176   1.791  11.872
68986W        W37360   4.227  34.559   0.417
68987W        W37361  17.104  33.987  14.825
68988W        W37362  38.008  31.122  12.509
68989W        W37363  31.405  20.757  13.444
68990W        W37364   3.792  28.998   1.279
68991W        W37365  38.501  23.201   4.764
68992W        W37366  24.070  13.203  11.039
68993W        W37367  42.471   5.201   3.369
68994W        W37368  33.551   6.380   4.229
68995W        W37369  36.364  37.574   4.726
68996W        W37370  37.343  43.785  14.435
68997W        W37371  17.077  13.718   2.347
68998W        W37372   9.706  10.709   0.359
68999W        W37373  23.559   7.896  12.396
69000W        W37374  28.063  27.048   0.782
69001W        W37375  27.582  23.686  11.454
69002W        W37376   6.705  41.317  10.583
69003W        W37377  28.981  38.043   2.408
69004W        W37378   6.829  14.717   3.745
69005W        W37379  31.078  42.789   0.923
69006W        W37380  37.010  43.989   0.384
69007W        W37381  15.237   4.325  13.801
69008W        W37382  43.829  35.418  14.938
69009W        W37383  30.160  24.519   1.917
69010W        W37384  34.435  22.637   3.152
69011W        W37385  44.921  25.166   1.901
69012W        W37386  29.048  24.681  13.458
69013W        W37387  38.424  39.539  12.075
69014W        W37388  41.479  29.571  13.957
69015W        W37389  19.119   5.312   2.705
69016W        W37390   6.808  17.689   0.766
69017W        W37391   7.272  14.277  14.806
69018W        W37392  41.422  15.250  14.945
69019W        W37393  44.776  16.769   0.738
69020W        W37394   9.736   0.406   1.887
69021W        W37395  16.302  31.111  14.810
69022W        W37396  18.077  37.447  11.533
69023W        W37397  25.156  11.178  11.926
69024W        W37398  18.727  42.804   4.714
69025W        W37399  34.108  29.008   1.315
69026W        W37400  15.688  36.586   2.283
69027W        W37401  28.985  40.314   3.233
69028W        W37402  24.593   7.892  12.881
69029W        W37403  31.074  17.180  11.102
69030W        W37404  31.528  14.658  12.432
69031W        W37405   7.365  44.887  14.477
69032W        W37406   4.304  33.008  12.500
69033W        W37407  38.463  30.437  13.446
69034W        W37408  23.146  43.509  11.935
69035W        W37409   1.475  42.985   1.702
69036W        W37410  20.129  19.214  13.012
69037W        W37411  14.219  25.489   0.826
69038W        W37412  14.216  44.488   1.914
69039W        W37413  42.995   2.852  14.017
69040W        W37414  34.879  17.219   5.170
69041W        W37415  33.880  27.166   3.641
69042W        W37416  18.690   1.396   4.715
69043W        W37417  13.209  41.955  10.598
69044W        W37418  26.103  32.901  11.966
69045W        W37419   8.836  32.111  11.041
69046W        W37420   6.778  31.487  13.435
69047W        W37421  39.469  23.527  11.120
69048W        W37422   3.245   0.413   0.286
69049W        W37423  36.988  41.341   0.857
69050W        W37424   8.857  31.006  10.893
69051W        W37425   9.382  27.676  14.384
69052W        W37426   0.788  40.980   3.720
69053W        W37427  33.980  23.042   3.767
69054W        W37428   0.970  37.570  12.074
69055W        W37429   4.240   8.241  13.844
69056W        W37430  13.743  33.893   3.779
69057W        W37431  24.065  30.629   4.161
69058W        W37432   1.897  30.937  11.124
69059W        W37433  29.607   2.918   4.135
69060W        W37434  10.647  17.303   3.192
69061W        W37435  27.038  23.511  14.510
69062W        W37436  34.878  40.462  12.024
69063W        W37437  36.951  10.329  14.418
69064W        W37438   3.796  33.408  13.448
69065W        W37439  25.569  44.260  11.570
69066W        W37440  23.209  42.496  13.372
69067W        W37441  31.993  15.169   0.892
69068W        W37442  43.337  14.298   4.681
69069W        W37443  30.958   0.934  11.958
69070W        W37444  30.973  14.723   2.366
69071W        W37445  35.858  40.355   2.343
69072W        W37446   3.949  12.663  10.408
69073W        W37447  20.589  35.507  14.802
69074W        W37448  29.443  40.452   4.191
69075W        W37449  42.895   7.246  14.401
69076W        W37450  38.418   0.973   4.728
69077W        W37451  23.583  32.123   3.680
69078W        W37452  35.862  27.574  13.839
69079W        W37453   6.798  35.944   3.273
69080W        W37454  31.031   8.783  10.517
69081W        W37455  13.717  27.677  13.930
69082W        W37456  25.123  21.683   0.789
69083W        W37457   1.465  42.323  11.586
69084W        W37458  33.018  16.263  12.833
69085W        W37459   1.924  20.584   4.627
69086W        W37460  36.045   5.832  14.828
69087W        W37461  33.127  25.487  13.472
69088W        W37462   7.846  31.096  14.771
69089W        W37463   3.310  43.948   4.624
69090W        W37464  25.193  25.545   1.237
69091W        W37465  24.038   2.878  12.092
69092W        W37466  33.397  11.835  12.456
69093W        W37467  28.130  33.424  12.093
69094W        W37468  39.367  24.108  10.557
69095W        W37469  11.647   4.942   1.340
69096W        W37470   6.810  14.627   3.331
69097W        W37471   6.691  15.092   3.358
69098W        W37472  23.642  42.313  13.894
69099W        W37473  40.957  23.710   1.720
69100W        W37474  15.613   6.263   5.277
69101W        W37475  25.601  29.538  11.967
69102W        W37476  38.399   5.901   2.698
69103W        W37477  33.506  16.119  11.509
69104W        W37478  27.506  19.045   3.267
69105W        W37479  23.589  31.478   4.696
69106W        W37480  20.126  34.999   0.759
69107W        W37481  32.600  44.462   0.290
69108W        W37482  44.970  37.361  14.773
69109W        W37483  39.549  19.133  13.810
69110W        W37484   0.949  28.447   1.341
69111W        W37485  17.571  41.467  12.879
69112W        W37486   1.357   5.415   0.838
69113W        W37487  34.865  33.020  12.959
69114W        W37488  39.870  28.032  13.472
69115W        W37489  23.117  23.098  11.535
69116W        W37490  35.381  18.761   3.662
69117W        W37491  22.582  42.887  11.876
69118W        W37492  38.502  37.840  11.875
69119W        W37493  29.620  11.152  13.309
69120W        W37494  23.156  21.095  10.948
69121W        W37495  28.483  21.234  10.461
69122W        W37496   4.859   2.427  13.853
69123W        W37497  31.475  20.665   3.827
69124W        W37498   4.869  27.946   1.430
69125W        W37499  29.492  15.253   4.339
69126W        W37500  44.413  13.739  12.948
69127W        W37501  41.326   9.648  10.965
69128W        W37502  41.438   8.335  10.963
69129W        W37503  28.008  23.497  14.960
69130W        W37504  26.535  29.664  10.457
69131W        W37505  34.001  33.923  12.411
69132W        W37506  27.517  23.122   1.886
69133W        W37507   5.411  20.255  11.538
69134W        W37508   0.456   8.740  12.556
69135W        W37509  43.405  22.014  11.487
69136W        W37510  39.457  36.900   0.839
69137W        W37511  36.939  25.506   3.767
69138W        W37512  20.143   3.796   0.443
69139W        W37513  32.503   0.854   1.301
69140W        W37514  42.939   8.285   3.331
69141W        W37515  15.138  19.163  12.979
69142W        W37516  12.199  36.350   3.280
69143W        W37517  38.503  42.479   2.738
69144W        W37518  43.430   1.258  12.021
69145W        W37519  34.970   7.350  13.515
69146W        W37520  31.035  40.403   2.722
69147W        W37521  33.484  13.123  11.063
69148W        W37522  11.210  24.168   1.340
69149W        W37523   9.190  41.301   1.815
69150W        W37524  23.686  28.057  14.932
69151W        W37525  22.553  39.873   5.185
69152W        W37526  31.519   1.967   2.227
69153W        W37527  21.100  37.965   5.148
69154W        W37528  40.317  24.012  13.484
69155W        W37529  29.989  11.322   0.869
69156W        W37530  42.796   7.411   2.257
69157W        W37531   8.720  32.453  11.602
69158W        W37532  12.342  16.793   0.761
69159W        W37533  40.047  31.459   3.742
69160W        W37534  30.982  39.386  10.931
69161W        W37535  26.055  44.843   0.902
69162W        W37536   4.309  25.163   0.340
69163W        W37537  29.521  42.286   1.295
69164W        W37538  24.558  12.257  10.614
69165W        W37539  16.180   2.251  11.465
69166W        W37540  42.400   8.204  13.974
69167W        W37541  22.549   8.344  12.047
69168W        W37542  31.103   1.426  13.892
69169W        W37543  28.076  37.011   0.392
69170W        W37544   3.945  43.885  14.492
69171W        W37545  38.837   8.736   2.234
69172W        W37546  41.869  28.123  14.406
69173W        W37547  33.557  37.866  12.054
69174W        W37548  39.353  41.986   4.267
69175W        W37549  13.710  22.635   2.204
69176W        W37550   5.369  29.121  12.381
69177W        W37551  24.709  12.174   2.281
69178W        W37552  15.728  36.921  13.930
69179W        W37553  30.148  44.955  12.480
69180W        W37554  16.614  10.798   1.288
69181W        W37555  41.880  33.900   3.695
69182W        W37556  14.705  22.630   2.388
69183W        W37557  42.923  13.142  14.497
69184W        W37558  10.747  28.945   2.896
69185W        W37559  40.467   0.932   0.331
69186W        W37560  43.441  27.568  10.911
69187W        W37561   1.810  13.199  14.302
69188W        W37562  21.688  21.232   0.751
69189W        W37563  26.703  26.528   2.278
69190W        W37564  25.553  37.349   3.693
69191W        W37565   7.350  30.020   3.740
69192W        W37566   7.902   9.258  14.425
69193W        W37567   7.749   2.363  10.552
69194W        W37568  36.946  11.156  13.326
69195W        W37569  31.495  34.573  11.058
69196W        W37570  10.291  35.044  12.849
69197W        W37571  36.057  23.514  14.981
69198W        W37572  10.318  29.597  12.885
69199W        W37573   9.875  26.642  14.800
69200W        W37574  32.406   5.804   2.764
69201W        W37575  34.582  13.257  11.982
69202W        W37576  35.535  44.892   3.255
69203W        W37577  24.104  34.490  11.013
69204W        W37578  23.150   7.178   4.324
69205W        W37579  39.406  15.103  11.571
69206W        W37580  11.350  29.571  10.967
69207W        W37581   7.349  43.986  10.442
69208W        W37582  33.979  36.384  11.553
69209W        W37583   9.705  15.797   1.310
69210W        W37584  40.023  13.309   3.324
69211W        W37585  40.841  18.635  13.048
69212W        W37586  17.575   9.391   3.262
69213W        W37587   1.969  34.096  10.588
69214W        W37588  14.614   6.917   3.239
69215W        W37589   8.341   1.855  14.437
69216W        W37590  30.440  38.013   0.884
69217W        W37591  42.510   2.800   1.794
69218W        W37592  41.416  36.902   4.119
69219W        W37593   3.876   4.872  13.362
69220W        W37594  33.107  28.049   2.736
69221W        W37595   2.751  22.648   2.242
69222W        W37596   5.687  27.117  11.064
69223W        W37597  39.062  26.676   5.187
69224W        W37598  30.653   6.256  11.438
69225W        W37599  41.902  11.778   3.642
69226W        W37600  43.011  29.605   2.358
69227W        W37601   5.404  24.149  12.463
69228W        W37602  12.665  32.902  12.403
69229W        W37603  21.525  36.941   9.582
69230W        W37604  23.700  24.077   4.632
69231W        W37605   9.178  18.734   1.893
69232W        W37606  14.617  10.779   1.866
69233W        W37607  34.553   7.868  14.990
69234W        W37608   2.446  40.890   2.336
69235W        W37609  24.086   0.263   1.704
69236W        W37610  18.571  34.964   1.319
69237W        W37611  40.461  25.993   3.784
69238W        W37612  34.979  17.750  13.859
69239W        W37613   5.930  41.025  13.482
69240W        W37614  39.902  19.599   1.718
69241W        W37615  38.922  30.604  12.551
69242W        W37616   4.424  29.075  11.371
69243W        W37617  41.855  21.049   0.767
69244W        W37618  23.678  34.446   1.260
69245W        W37619  33.085   9.866  13.011
69246W        W37620  24.094  35.544   2.817
69247W        W37621  28.471   6.343  14.511
69248W        W37622  18.170  32.460  10.972
69249W        W37623  40.017  42.512  14.773
69250W        W37624  23.529  34.453  10.499
69251W        W37625  44.315   9.241  11.581
69252W        W37626  34.001  22.656   4.818
69253W        W37627  25.164  35.413  12.455
69254W        W37628   4.303  18.591   2.861
69255W        W37629  12.276   0.347  10.616
69256W        W37630  23.024   0.893  11.443
69257W        W37631  30.515  11.777   0.274
69258W        W37632  15.597  25.036  13.459
69259W        W37633  24.053  24.135   2.218
69260W        W37634  27.665  16.680  12.512
69261W        W37635  10.372  29.050   5.213
69262W        W37636   1.418  35.452  14.348
69263W        W37637  18.777  23.166  13.489
69264W        W37638  20.736  39.375   3.203
69265W        W37639  39.375  25.649   2.665
69266W        W37640  40.335  30.458   5.198
69267W        W37641  24.538  43.486  14.335
69268W        W37642  33.396  15.319   0.361
69269W        W37643  38.933  38.918   1.437
69270W        W37644  32.597  10.227   2.747
69271W        W37645  25.987  11.337  11.446
69272W        W37646   4.342  39.389   3.637
69273W        W37647  21.158  21.730   0.867
69274W        W37648  12.755  22.582   0.383
69275W        W37649  44.322   4.915  10.968
69276W        W37650  25.579  13.132  11.081
69277W        W37651  23.698  32.605   0.894
69278W        W37652  36.454  13.206  13.805
69279W        W37653   2.454   0.934   2.212
69280W        W37654   8.253  24.564   1.427
69281W        W37655  11.711  31.938   0.477
69282W        W37656  44.999   9.157   1.743
69283W        W37657   0.886  18.670  11.945
69284W        W37658  11.284  35.060  13.022
69285W        W37659  32.598  17.234  13.412
69286W        W37660   7.369  19.755   1.770
69287W        W37661  20.195  36.025   3.684
69288W        W37662  37.401  14.772   3.295
69289W        W37663  15.705  38.830   1.420
69290W        W37664  24.626   9.321   2.692
69291W        W37665  38.556   6.883   2.339
69292W        W37666  28.017  31.949  10.957
69293W        W37667  37.472   5.876   2.405
69294W        W37668   5.835   2.749  12.884
69295W        W37669  26.024   3.437   1.383
69296W        W37670  17.276  37.029  12.547
69297W        W37671  37.938   6.753  10.525
69298W        W37672  42.912  32.140   5.283
69299W        W37673   4.766  13.600   0.386
69300W        W37674  42.972  26.165   0.728
69301W        W37675  38.396  14.833   2.883
69302W        W37676  23.599   5.237  10.914
69303W        W37677  16.781  14.224   1.312
69304W        W37678  28.536   3.300  12.366
69305W        W37679  32.978  38.869   4.172
69306W        W37680   0.749  11.653  12.989
69307W        W37681   8.317  30.547  12.023
69308W        W37682  19.595  15.151  14.916
69309W        W37683  25.031  33.025  14.478
69310W        W37684  32.120  30.962   2.881
69311W        W37685  29.985  33.478   4.231
69312W        W37686  15.591  29.014   3.334
69313W        W37687  31.915  17.126   2.331
69314W        W37688  42.777   6.317   3.364
69315W        W37689  20.272   6.902  13.002
69316W        W37690  22.056  26.611   2.824
69317W        W37691  17.257  41.411  11.953
69318W        W37692   5.292   4.802   3.643
69319W        W37693  43.804  16.717   3.336
69320W        W37694   8.324  24.113  13.043
69321W        W37695  44.821  24.047  14.030
69322W        W37696  17.178  36.944  14.874
69323W        W37697  19.615  32.992  14.760
69324W        W37698  28.658   9.284   0.356
69325W        W37699  25.085  20.108   2.219
69326W        W37700  24.532   6.324  12.400
69327W        W37701   3.330  33.556  10.892
69328W        W37702   0.881  43.428   1.360
69329W        W37703   7.349  34.399   4.256
69330W        W37704  29.162   8.293   2.797
69331W        W37705  28.619  42.409  11.607
69332W        W37706   6.377  29.508  14.774
69333W        W37707   1.280  17.137   1.707
69334W        W37708  15.723   1.397  12.346
69335W        W37709  42.851  18.209  13.996
69336W        W37710  32.398  29.522  12.970
69337W        W37711  16.304   7.171   0.779
69338W        W37712  12.693  42.295   1.715
69339W        W37713  18.664  33.590   3.302
69340W        W37714   8.763  40.850   1.405
69341W        W37715   7.692  25.088   9.933
69342W        W37716   3.274  35.572   2.843
69343W        W37717  23.586  40.304   0.385
69344W        W37718  31.410  40.362  12.010
69345W        W37719  13.190  21.550   4.750
69346W        W37720  25.207   0.798   3.688
69347W        W37721   4.281  26.696  12.874
69348W        W37722  15.751  19.265   3.258
69349W        W37723  10.799   3.851  12.348
69350W        W37724   0.477  23.562  13.512
69351W        W37725  36.037  34.866  10.613
69352W        W37726  32.543  27.165   1.444
69353W        W37727  29.573  30.142  12.972
69354W        W37728  10.816   2.458  12.835
69355W        W37729   8.214  41.471  13.929
69356W        W37730  25.485  44.823   1.860
69357W        W37731  31.008  26.669  11.477
69358W        W37732   9.207  21.750  10.152
69359W        W37733  12.662  33.595   1.896
69360W        W37734  38.939  10.769   3.712
69361W        W37735   9.313   0.293  12.968
69362W        W37736  41.885  15.248  10.620
69363W        W37737  44.971  15.103   2.749
69364W        W37738  44.825  18.674   3.261
69365W        W37739  44.419  25.043  10.150
69366W        W37740  43.916  36.051   4.831
69367W        W37741  19.730  40.927   2.285
69368W        W37742  37.913   9.775  10.556
69369W        W37743   2.341  44.921   4.124
69370W        W37744   1.844  17.572   0.796
69371W        W37745  30.075  25.218  13.919
69372W        W37746  15.634  28.619  13.914
69373W        W37747   4.331  33.909   0.356
69374W        W37748  35.506  26.467  12.570
69375W        W37749   0.797  41.842  13.834
69376W        W37750  20.667  11.822   4.326
69377W        W37751  20.197   8.866   4.605
69378W        W37752  26.647  36.850   3.244
69379W        W37753   4.710  15.084  14.906
69380W        W37754  24.208  33.527   3.188
69381W        W37755  15.723  13.626  12.519
69382W        W37756  22.589   9.254   3.176
69383W        W37757   9.207  40.376  11.007
69384W        W37758  29.922  18.291  10.516
69385W        W37759  33.975  33.439   3.668
69386W        W37760   0.927   5.856  10.934
69387W        W37761  15.644  29.666   4.610
69388W        W37762  42.887  18.133  11.481
69389W        W37763   0.799  31.404   3.766
69390W        W37764  34.572   8.355   0.778
69391W        W37765  22.099  40.861  11.889
69392W        W37766  36.878  36.960  12.990
69393W        W37767  19.199   7.783   1.850
69394W        W37768  29.654  15.191  13.522
69395W        W37769  20.199   0.895   4.296
69396W        W37770  18.143  15.178   0.370
69397W        W37771  41.375  22.191  13.985
69398W        W37772  25.710  31.549   2.322
69399W        W37773  14.796  28.976   0.728
69400W        W37774  41.393  39.401  12.377
69401W        W37775  14.763   0.898  14.383
69402W        W37776   4.844  42.484   0.474
69403W        W37777   3.330  28.604  14.493
69404W        W37778   5.778  36.536  14.985
69405W        W37779  13.644  21.696   2.773
69406W        W37780  12.780   6.695  13.865
69407W        W37781   5.225  21.535  10.921
69408W        W37782  25.983   0.899  12.985
69409W        W37783  14.789  34.990  14.313
69410W        W37784  29.468  38.435  14.360
69411W        W37785  19.196  18.552   4.612
69412W        W37786  12.248  30.050  12.923
69413W        W37787   8.180  38.964   1.874
69414W        W37788   9.229  38.959   0.931
69415W        W37789  17.724  23.169  10.597
69416W        W37790  41.843  14.329   5.296
69417W        W37791  34.405  44.951  13.979
69418W        W37792  37.559  37.535  12.908
69419W        W37793   9.880  21.066   2.392
69420W        W37794  19.710  33.471  10.432
69421W        W37795   3.779  13.141   2.870
69422W        W37796  22.713   8.853   4.305
69423W        W37797  31.524  40.883   1.738
69424W        W37798  27.045  29.928   3.692
69425W        W37799  27.576  36.916  11.562
69426W        W37800  32.007  38.859   3.273
69427W        W37801  22.613  26.690   0.953
69428W        W37802  25.036   3.445  12.372
69429W        W37803   7.860  41.513  12.069
69430W        W37804  39.918  34.430  13.842
69431W        W37805   7.269  15.127   4.825
69432W        W37806   7.185  12.773  14.831
69433W        W37807   4.778  15.298  11.024
69434W        W37808  11.229  43.979   4.113
69435W        W37809  15.204  26.090   2.789
69436W        W37810  13.289  30.583  14.904
69437W        W37811  34.473   1.442   4.757
69438W        W37812  29.558  25.145   3.358
69439W        W37813   7.212  34.108  11.371
69440W        W37814   4.772  30.658   2.680
69441W        W37815  44.962  19.202   2.804
69442W        W37816  39.063  23.561   2.826
69443W        W37817   5.276  30.012   3.738
69444W        W37818   0.402  12.685   2.756
69445W        W37819  30.120  32.466   3.802
69446W        W37820  20.740   5.203   0.414
69447W        W37821  19.678  44.910  13.919
69448W        W37822   1.476  34.547   2.268
69449W        W37823   8.208  17.661   3.361
69450W        W37824  27.627  26.112   0.867
69451W        W37825  42.882  16.628  10.470
69452W        W37826  33.473  41.926  13.395
69453W        W37827  18.703  14.590  10.963
69454W        W37828  25.978   0.397  13.910
69455W        W37829  39.987  38.466   2.220
69456W        W37830  18.589   4.419   3.151
69457W        W37831  18.648  34.510  13.509
69458W        W37832  41.916  24.596   1.353
69459W        W37833  17.756  25.669  14.789
69460W        W37834  44.316   6.798  14.811
69461W        W37835  25.204  36.842   0.391
69462W        W37836  35.956  37.554   0.461
69463W        W37837   6.207   8.879  12.093
69464W        W37838  42.337  30.974  13.486
69465W        W37839  16.640  43.787   4.218
69466W        W37840  10.733  23.148   4.707
69467W        W37841  16.760   4.912   3.335
69468W        W37842  29.998  36.421   3.304
69469W        W37843   1.787  17.153  12.045
69470W        W37844   0.907  20.656  10.578
69471W        W37845  21.736   3.457   3.155
69472W        W37846   2.349  19.190  12.377
69473W        W37847  12.660  31.439  13.062
69474W        W37848   8.401   1.239  10.563
69475W        W37849  35.437   6.417  14.977
69476W        W37850  11.671   5.376  12.384
69477W        W37851  36.447   7.669  10.468
69478W        W37852   4.933  21.609   3.215
69479W        W37853  24.995  31.097   9.673
69480W        W37854   7.284  40.356  11.008
69481W        W37855  31.421  32.586   3.718
69482W        W37856  19.553  11.655  13.801
69483W        W37857  26.156  35.546  12.518
69484W        W37858  10.358  44.771  14.930
69485W        W37859  23.068   5.716  11.539
69486W        W37860  32.513  38.052   1.383
69487W        W37861  11.858   6.748  11.478
69488W        W37862   0.464   2.271   2.667
69489W        W37863  15.740  22.578  14.329
69490W        W37864  30.936  13.309  12.920
69491W        W37865  41.367  44.296  14.972
69492W        W37866  12.700  10.716   2.868
69493W        W37867  11.621  11.654   1.367
69494W        W37868  37.571  27.115   4.215
69495W        W37869  14.125  32.031  10.957
69496W        W37870  43.292  41.943  11.578
69497W        W37871  41.802  22.555   1.930
69498W        W37872  15.645  24.635   3.220
69499W        W37873   4.756  39.988  12.904
69500W        W37874  43.799  42.432   4.649
69501W        W37875  24.675  31.490  11.420
69502W        W37876  11.308  16.083   0.778
69503W        W37877   3.449  39.981   4.322
69504W        W37878   9.335  15.300  12.847
69505W        W37879  16.615  28.995  10.482
69506W        W37880  44.471   8.270   1.748
69507W        W37881  19.616  31.111  10.572
69508W        W37882  16.810   1.961  10.521
69509W        W37883  14.722  10.781   0.436
69510W        W37884  15.086  27.972   1.928
69511W        W37885  23.704  37.891   2.802
69512W        W37886   3.378   5.740   1.930
69513W        W37887  40.338  15.731   3.835
69514W        W37888   3.312  14.166  12.956
69515W        W37889  17.556   0.448  11.596
69516W        W37890   3.786   7.171  10.441
69517W        W37891   2.807   3.381   2.888
69518W        W37892  44.441  11.755   1.413
69519W        W37893   7.823  10.363   3.686
69520W        W37894  42.467  40.802   0.389
69521W        W37895  32.999  40.546  13.356
69522W        W37896   9.694  22.237   4.811
69523W        W37897  11.218  14.095   2.405
69524W        W37898  35.915  16.291   2.289
69525W        W37899   1.246  18.274  12.430
69526W        W37900   7.812  23.735   5.783
69527W        W37901  16.652  15.242   1.445
69528W        W37902   0.894  42.980   3.646
69529W        W37903  43.326  33.076  13.818
69530W        W37904  36.512  41.787   4.600
69531W        W37905  26.141  15.168   5.610
69532W        W37906  13.286  43.877  11.006
69533W        W37907  28.472  22.251  11.397
69534W        W37908  24.978  32.998  12.007
69535W        W37909  38.555  20.253   4.766
69536W        W37910  24.985  25.709   4.788
69537W        W37911   1.356  24.545   3.164
69538W        W37912   4.430  27.071   4.665
69539W        W37913  30.627  19.591   4.686
69540W        W37914  16.661  16.240   4.777
69541W        W37915  27.531  22.995  13.314
69542W        W37916  21.569  36.040   0.962
69543W        W37917  27.941  11.737  13.382
69544W        W37918  12.349  35.494   4.641
69545W        W37919  13.821  10.376   4.625
69546W        W37920  27.529  10.184   0.248
69547W        W37921  29.042  38.406  12.041
69548W        W37922   5.310  11.782   3.323
69549W        W37923  27.131  16.709   1.740
69550W        W37924  31.951   1.783  12.055
69551W        W37925  42.990  33.591   1.856
69552W        W37926  39.530   1.763   4.184
69553W        W37927  41.314  25.034   0.800
69554W        W37928  32.563  24.193  14.934
69555W        W37929   4.842  34.508   2.813
69556W        W37930   0.397  40.493   0.299
69557W        W37931  30.162  19.102  12.442
69558W        W37932  19.260   3.217   0.272
69559W        W37933   9.648  24.122   1.233
69560W        W37934   2.374   9.266  12.385
69561W        W37935  37.039   2.724   3.756
69562W        W37936  15.191  31.942   1.439
69563W        W37937  12.631   4.272   0.296
69564W        W37938  23.139  30.961   2.685
69565W        W37939  33.581   9.358  13.452
69566W        W37940   7.390  17.578   3.830
69567W        W37941  21.188  43.327   0.366
69568W        W37942  14.266  22.504   3.714
69569W        W37943  40.864  43.774   2.676
69570W        W37944  18.260  23.718   2.178
69571W        W37945   7.889  27.170   0.404
69572W        W37946  20.091  40.017   2.732
69573W        W37947  22.534   4.831  12.869
69574W        W37948  44.393  17.124  11.532
69575W        W37949   0.859  33.610   0.295
69576W        W37950   0.491  34.398   0.733
69577W        W37951   4.781  38.900  12.491
69578W        W37952  31.018  44.920  12.985
69579W        W37953   4.719   4.211  11.550
69580W        W37954   4.916  19.578  14.901
69581W        W37955  12.721  35.912   2.837
69582W        W37956  40.512  23.553   3.314
69583W        W37957  25.469  42.361  14.785
69584W        W37958  10.870  10.157   2.889
69585W        W37959  23.679  35.016  14.865
69586W        W37960   0.848   3.944   1.856
69587W        W37961  26.703  44.497   4.790
69588W        W37962   8.779  16.150   3.276
69589W        W37963  27.138  17.138  13.048
69590W        W37964  44.898  34.885  12.897
69591W        W37965   6.697   7.197  12.524
69592W        W37966  10.297  39.518  11.547
69593W        W37967  21.669  15.741   0.857
69594W        W37968  27.635  11.176  12.963
69595W        W37969  28.533   2.417  13.440
69596W        W37970  36.472  25.005  14.473
69597W        W37971   6.881  41.988  13.035
69598W        W37972  40.421  33.023   1.879
69599W        W37973  44.905   5.804  14.463
69600W        W37974   0.407  15.804   2.814
69601W        W37975  20.044  31.549  11.565
69602W        W37976  38.397  31.410  14.306
69603W        W37977  27.147  20.030  12.910
69604W        W37978   4.450   1.341  12.380
69605W        W37979  28.559   7.715   2.343
69606W        W37980   6.375  37.021  13.512
69607W        W37981  37.964  14.668   2.799
69608W        W37982  27.565   1.757  12.894
69609W        W37983  26.990   8.291  14.827
69610W        W37984  30.615   9.382   0.770
69611W        W37985  23.230  24.566   3.790
69612W        W37986   4.256   6.329  12.440
69613W        W37987  28.025  16.626   0.431
69614W        W37988  27.182  35.034   4.121
69615W        W37989  44.355  30.602  11.513
69616W        W37990  29.923   7.410  13.911
69617W        W37991  18.696  20.724   2.801
69618W        W37992  21.262  18.586  13.792
69619W        W37993   0.349   7.297  13.909
69620W        W37994   2.914  11.802  11.517
69621W        W37995  26.958  44.384  13.035
69622W        W37996  39.458  23.144  12.939
69623W        W37997  19.059  40.836  14.475
69624W        W37998  35.559   5.699  12.488
69625W        W37999  37.513  34.403   2.800
69626W        W38000  29.048  14.296   3.822
69627W        W38001   8.363  10.868  11.510
69628W        W38002  39.046  23.674  14.913
69629W        W38003   1.773  29.468  11.587
69630W        W38004  20.080  13.679   2.850
69631W        W38005  43.419  26.001   0.296
69632W        W38006  34.877  39.841  11.436
69633W        W38007  38.074  38.901   1.338
69634W        W38008  33.935   2.283   2.693
69635W        W38009   0.777  15.586   0.885
69636W        W38010  35.551  15.601   2.735
69637W        W38011  39.924  14.645   3.308
69638W        W38012  17.565   2.370  11.010
69639W        W38013  32.056  41.858   5.243
69640W        W38014   5.765  42.479   0.480
69641W        W38015  14.296  35.872  13.394
69642W        W38016  36.046  14.095  12.913
69643W        W38017   2.377  29.660   0.839
69644W        W38018  34.460  35.405   2.401
69645W        W38019  17.765   0.988  13.425
69646W        W38020   5.695   7.688  10.912
69647W        W38021  12.620  31.448  14.920
69648W        W38022   5.700  25.572   2.305
69649W        W38023  10.280  43.847  10.484
69650W        W38024  14.776  24.011   3.801
69651W        W38025   3.414   7.735  12.924
69652W        W38026   6.248  19.173  12.419
69653W        W38027  39.815   4.245   3.636
69654W        W38028  27.135  24.988  12.523
69655W        W38029  43.805  10.138   1.877
69656W        W38030  10.169  10.166  13.508
69657W        W38031  14.815  22.062   2.375
69658W        W38032  21.233  35.448   3.240
69659W        W38033  14.216  23.641  14.417
69660W        W38034  31.636  30.427  12.551
69661W        W38035  20.596  33.524   2.195
69662W        W38036  31.963   5.218  12.549
69663W        W38037  34.477  24.060   0.955
69664W        W38038  32.534  21.747  10.471
69665W        W38039  13.180  43.434   1.368
69666W        W38040  32.064  17.620   3.819
69667W        W38041  43.370  16.722   4.836
69668W        W38042  16.161   1.372  12.899
69669W        W38043  44.828   6.758  13.998
69670W        W38044   0.789  34.463   2.250
69671W        W38045   5.761   5.415   2.308
69672W        W38046  33.519  34.562   1.360
69673W        W38047  43.473  32.626   2.318
69674W        W38048  35.446  26.138  14.515
69675W        W38049  22.524   4.432   2.304
69676W        W38050   4.377  14.800   2.321
69677W        W38051  16.176  40.922   4.173
69678W        W38052  36.998  11.652  11.379
69679W        W38053  17.607  36.491  11.389
69680W        W38054  38.516   0.460  11.586
69681W        W38055  16.699  35.528  12.832
69682W        W38056  40.957  14.815   4.808
69683W        W38057   7.788  19.150  12.345
69684W        W38058  23.674  26.475  10.595
69685W        W38059   9.202   3.843   0.925
69686W        W38060   2.418  21.661   3.688
69687W        W38061  44.773  20.551  14.454
69688W        W38062  21.204  25.708   0.244
69689W        W38063  25.578   1.821  12.514
69690W        W38064  43.501  16.715   4.187
69691W        W38065  13.131  40.368   4.626
69692W        W38066   6.837  25.004   1.711
69693W        W38067  26.613   6.781   1.448
69694W        W38068  26.537  34.915  12.525
69695W        W38069  23.676  18.274   2.764
69696W        W38070  41.994  12.683  13.328
69697W        W38071   5.768   7.371  10.554
69698W        W38072  27.492  30.139  14.796
69699W        W38073   9.800   0.950   2.400
69700W        W38074  23.650  42.832   2.868
69701W        W38075  28.500  18.099   3.826
69702W        W38076  21.688   1.302  10.575
69703W        W38077  38.855   7.336   1.241
69704W        W38078  15.213  20.103  11.451
69705W        W38079  33.479  29.435  10.571
69706W        W38080  17.790  16.136  14.331
69707W        W38081  42.946   2.377  14.862
69708W        W38082  11.128  19.094   4.635
69709W        W38083  26.043  44.400  12.994
69710W        W38084  35.020   6.284   0.298
69711W        W38085   0.976   1.892   3.698
69712W        W38086  32.942  40.311  14.880
69713W        W38087  12.744   3.334  12.832
69714W        W38088  23.705  44.487  10.909
69715W        W38089  38.325   1.795  12.431
69716W        W38090  29.011   4.364   0.406
69717W        W38091  13.664  22.084   3.824
69718W        W38092  30.532  17.765  14.785
69719W        W38093  39.046   5.703   4.194
69720W        W38094   9.728  40.809   1.382
69721W        W38095  13.289  38.476  11.561
69722W        W38096  44.338  35.868  12.542
69723W        W38097  13.731  11.373  13.058
69724W        W38098  19.648  25.630   3.271
69725W        W38099  30.018  29.062   0.731
69726W        W38100  34.424  13.248  13.827
69727W        W38101   0.433  36.920  14.467
69728W        W38102   8.834  15.640   1.224
69729W        W38103  35.585  26.058   0.866
69730W        W38104  12.822   5.721  13.897
69731W        W38105   1.841  24.994   1.811
69732W        W38106  39.350  15.309  13.483
69733W        W38107  43.933  40.329  10.955
69734W        W38108  32.063  23.686   2.285
69735W        W38109  26.615  29.527  12.032
69736W        W38110  16.603  23.545  11.518
69737W        W38111  14.710  39.954   3.219
69738W        W38112   3.388  15.192   1.230
69739W        W38113  40.373  22.135   1.763
69740W        W38114   5.736  21.622  14.296
69741W        W38115   0.438  40.909   1.428
69742W        W38116  36.903  28.061   2.320
69743W        W38117   7.282  35.395   3.839
69744W        W38118   3.250  10.738   1.887
69745W        W38119   3.367  42.927   0.395
69746W        W38120   7.746  26.031  13.339
69747W        W38121  21.215  28.173   3.201
69748W        W38122  24.687  29.976  10.539
69749W        W38123   7.845   3.398   0.871
69750W        W38124   0.433   3.271   2.805
69751W        W38125   1.856  40.316   1.294
69752W        W38126  37.521  22.230  11.046
69753W        W38127  29.037  29.647   1.850
69754W        W38128  23.668   3.852   0.456
69755W        W38129   2.420  16.290  14.507
69756W        W38130  28.612  17.234   4.327
69757W        W38131  40.896   5.931   0.289
69758W        W38132   2.229   2.260  11.091
69759W        W38133   0.944  27.459  12.565
69760W        W38134  16.095  11.172  12.085
69761W        W38135  41.854  41.439   2.329
69762W        W38136  15.147  33.427   3.351
69763W        W38137  38.072  29.585  12.520
69764W        W38138  15.266   2.888  11.991
69765W        W38139  13.215  12.192   2.392
69766W        W38140  43.302   2.252   1.917
69767W        W38141  21.737  11.280   3.222
69768W        W38142  10.321  20.252   2.766
69769W        W38143   2.724  22.544   2.858
69770W        W38144   6.732  12.159  12.054
69771W        W38145  12.673  13.186   4.686
69772W        W38146  37.027   1.811  12.956
69773W        W38147   3.354  11.245   2.392
69774W        W38148  36.478  19.719   2.707
69775W        W38149  16.601  28.078  11.486
69776W        W38150  18.693  33.461   4.786
69777W        W38151  15.143  29.503  13.353
69778W        W38152  22.513   9.662  10.533
69779W        W38153  37.912  29.626   4.257
69780W        W38154  38.350  13.157  13.871
69781W        W38155   8.191  18.645  11.856
69782W        W38156   1.944  23.101   2.185
69783W        W38157  12.205   9.251   3.243
69784W        W38158  21.075   7.351   0.384
69785W        W38159  16.145  36.878  13.998
69786W        W38160   0.279  21.548  10.991
69787W        W38161  23.560  34.964   2.782
69788W        W38162  42.505   8.210  13.444
69789W        W38163  35.097  40.902  13.426
69790W        W38164  21.083  36.551  14.767
69791W        W38165  34.591  11.730   4.118
69792W        W38166  10.285  25.531  14.762
69793W        W38167   0.440  23.602   0.747
69794W        W38168  37.464  42.432   4.263
69795W        W38169  21.065  43.407  13.503
69796W        W38170   4.326   6.379  12.948
69797W        W38171  30.982  35.559   2.216
69798W        W38172   9.878  12.140   4.599
69799W        W38173   1.412  27.972  12.830
69800W        W38174  12.831  37.032   4.764
69801W        W38175  30.566   6.867   0.246
69802W        W38176  19.044  33.550   3.757
69803W        W38177  37.530  24.660   0.748
69804W        W38178  27.062  35.380  11.474
69805W        W38179  18.769   7.895   0.301
69806W        W38180   5.289  12.238  14.306
69807W        W38181   0.354  11.197   2.346
69808W        W38182  35.049  30.500  12.960
69809W        W38183  25.669  35.385  10.514
69810W        W38184  11.706  34.498  14.009
69811W        W38185  34.601  27.465  14.437
69812W        W38186  36.498  11.350  14.820
69813W        W38187  32.899  30.603  11.071
69814W        W38188  22.720   2.339  12.347
69815W        W38189  20.199  35.574   1.445
69816W        W38190  41.933  33.065   0.751
69817W        W38191  39.326   1.242   4.703
69818W        W38192  33.056  16.306   1.421
69819W        W38193  35.534   3.258  12.510
69820W        W38194  37.385   8.685   1.808
69821W        W38195  28.670  17.202   2.867
69822W        W38196   9.655  34.977   1.273
69823W        W38197  39.370   9.737   2.403
69824W        W38198   3.335  20.564  13.831
69825W        W38199  16.633  34.492  14.909
69826W        W38200  39.423  26.030  12.931
69827W        W38201  24.016   9.155   1.248
69828W        W38202  20.099   2.790   2.334
69829W        W38203   1.757  23.501  14.869
69830W        W38204  43.917  22.074   4.252
69831W        W38205   9.383  11.306   4.833
69832W        W38206  11.371  27.015   0.728
69833W        W38207  21.085  15.744   2.891
69834W        W38208   7.685  32.112  14.873
69835W        W38209  43.866  30.515  11.917
69836W        W38210   1.744  40.038  11.610
69837W        W38211  18.191  16.597  10.573
69838W        W38212  27.109  18.635   4.599
69839W        W38213  37.570   0.856  11.548
69840W        W38214  35.044  30.470   4.263
69841W        W38215  11.318  13.712  13.901
69842W        W38216   4.850  22.588   3.679
69843W        W38217  23.685  17.799  13.016
69844W        W38218  42.832  23.140   1.401
69845W        W38219  27.019   4.282   0.458
69846W        W38220  18.553   6.721  12.019
69847W        W38221   8.228   8.335  11.952
69848W        W38222  39.861   7.734  10.614
69849W        W38223  14.309  37.484  14.770
69850W        W38224  14.719  14.122  12.909
69851W        W38225  42.932   6.706  12.550
69852W        W38226   1.281  29.530  11.024
69853W        W38227  37.546   0.401   3.790
69854W        W38228  37.025  39.533   0.418
69855W        W38229  22.716   5.306   1.740
69856W        W38230  25.699  29.110   2.228
69857W        W38231  14.196  18.230   3.190
69858W        W38232   2.721   3.812  14.512
69859W        W38233  37.915   6.385   0.274
69860W        W38234  16.597  43.015   0.834
69861W        W38235  16.274   3.752  14.478
69862W        W38236   3.907  41.388   4.172
69863W        W38237   9.697  25.062  10.643
69864W        W38238  30.416  42.322  12.474
69865W        W38239   9.693   0.849   0.252
69866W        W38240   8.353  20.556   4.827
69867W        W38241   1.898  16.809   1.862
69868W        W38242  44.843  12.628  14.811
69869W        W38243  33.960   7.175  12.970
69870W        W38244  24.148  13.754  10.899
69871W        W38245  23.150  42.451  14.761
69872W        W38246  33.437   7.810   3.865
69873W        W38247   9.867   4.252  14.424
69874W        W38248  22.058  24.095  11.549
69875W        W38249  22.716  35.104  12.079
69876W        W38250  35.099  24.547   2.192
69877W        W38251  16.074  28.128   0.937
69878W        W38252  43.286  31.592   4.641
69879W        W38253  39.061   6.766  13.377
69880W        W38254   4.253  24.656   9.983
69881W        W38255  30.008  31.580   3.639
69882W        W38256  10.223  43.980  13.000
69883W        W38257  44.940   9.185   1.372
69884W        W38258  28.676  37.922  10.632
69885W        W38259  19.193   4.335  14.934
69886W        W38260  42.795  25.590  13.834
69887W        W38261  31.543  33.430   4.281
69888W        W38262  41.988  38.850  11.003
69889W        W38263   9.671  18.239  11.493
69890W        W38264  22.734  33.541   3.769
69891W        W38265  25.600  29.937   2.299
69892W        W38266  37.036  43.436  10.410
69893W        W38267  26.647  19.194   4.133
69894W        W38268   4.422   8.810   1.308
69895W        W38269  15.757  28.005  14.891
69896W        W38270   2.851   3.316   4.151
69897W        W38271  15.230  38.555  14.467
69898W        W38272  19.656  12.295  13.539
69899W        W38273   7.902  28.063   2.861
69900W        W38274  26.549  44.985  13.895
69901W        W38275  27.153  17.270   1.697
69902W        W38276  13.328   4.837  14.992
69903W        W38277   0.767   6.772   2.340
69904W        W38278  20.531  40.444   2.666
69905W        W38279   6.264  12.206  14.822
69906W        W38280  27.674   7.758   0.375
69907W        W38281   0.766  42.376   3.703
69908W        W38282   9.871  30.066   0.909
69909W        W38283   7.828  17.239  10.605
69910W        W38284  29.618  41.861  11.442
69911W        W38285  32.391  15.129  12.382
69912W        W38286  29.433   9.213   4.709
69913W        W38287  23.626  22.537  14.866
69914W        W38288  20.653   3.364   0.356
69915W        W38289  39.908  10.773  10.953
69916W        W38290   7.789  40.041   3.697
69917W        W38291  21.633  38.918  13.351
69918W        W38292  14.142  14.600   5.095
69919W        W38293  24.652  23.077  11.400
69920W        W38294  30.543   6.253   3.665
69921W        W38295  10.634  14.706   1.860
69922W        W38296   6.807   9.651  11.867
69923W        W38297  36.075  19.716   1.445
69924W        W38298  38.459  41.489   1.720
69925W        W38299   8.207  30.477   4.218
69926W        W38300  18.083  29.424  11.561
69927W        W38301  38.387  27.179  10.904
69928W        W38302  44.786   1.451   2.387
69929W        W38303  36.588  43.813   4.691
69930W        W38304  10.742  17.774  13.025
69931W        W38305  39.845  15.166  12.463
69932W        W38306   3.437  28.526   2.264
69933W        W38307  27.132  21.716  12.475
69934W        W38308   4.251  42.026  14.326
69935W        W38309  16.165  28.082  11.451
69936W        W38310  33.533  27.022  14.294
69937W        W38311  16.104   2.333   4.128
69938W        W38312  25.522  34.109   1.805
69939W        W38313   9.288  18.769  12.415
69940W        W38314  30.511  18.152   3.728
69941W        W38315  19.703  23.224  11.420
69942W        W38316   8.302  24.083  13.962
69943W        W38317  43.868  29.155  13.477
69944W        W38318   9.238  29.121   3.348
69945W        W38319  35.511  39.317   2.751
69946W        W38320  27.661  11.831   1.735
69947W        W38321  18.219  21.633   2.722
69948W        W38322  31.588  16.756  11.574
69949W        W38323  35.513  12.630  12.412
69950W        W38324   4.858  18.082  12.978
69951W        W38325  30.918  26.622   2.284
69952W        W38326  26.002  30.541  12.028
69953W        W38327  31.043  14.655  12.020
69954W        W38328  38.514   6.726   0.881
69955W        W38329  39.315  26.057  13.878
69956W        W38330  30.615  29.548   0.381
69957W        W38331   0.434  10.348   3.828
69958W        W38332  31.426   6.912  14.480
69959W        W38333   0.316   7.718   0.268
69960W        W38334  42.881  40.845   2.229
69961W        W38335  44.296  28.607  11.426
69962W        W38336  26.012  22.729   1.871
69963W        W38337  15.649  39.343   0.270
69964W        W38338  17.723   4.836   3.646
69965W        W38339  12.742  10.773   1.411
69966W        W38340  24.691  33.882  13.464
69967W        W38341  21.134  43.499  10.524
69968W        W38342  37.021  22.555  11.880
69969W        W38343  20.569  16.214   4.836
69970W        W38344  36.085  41.502  10.968
69971W        W38345  35.592   0.405   2.667
69972W        W38346  22.545  15.657   0.907
69973W        W38347  32.634  44.771   2.354
69974W        W38348  23.677  27.488   2.255
69975W        W38349  44.964  35.425   4.299
69976W        W38350  31.136  20.117   1.919
69977W        W38351  32.553  23.023   4.665
69978W        W38352  15.185  15.299   4.228
69979W        W38353  32.614  19.730   0.935
69980W        W38354  28.997  36.985  14.879
69981W        W38355  14.285  18.728   0.740
69982W        W38356   1.950  39.444   0.921
69983W        W38357  25.590  16.805   4.192
69984W        W38358  41.831  17.790  13.872
69985W        W38359  22.583  38.940  10.908
69986W        W38360  16.091  11.759   1.290
69987W        W38361   4.397   5.237  11.420
69988W        W38362  19.545   4.368   3.269
69989W        W38363  44.487   7.208   2.365
69990W        W38364  13.317  13.599   1.876
69991W        W38365  24.079  28.530   0.924
69992W        W38366  33.536  22.600  13.033
69993W        W38367  13.675   3.434  12.890
69994W        W38368   8.349  18.638   3.686
69995W        W38369  44.349  34.564  13.387
69996W        W38370  11.642  25.483  13.820
69997W        W38371  33.573  42.371   1.213
69998W        W38372  26.985  21.042   3.848
69999W        W38373   6.242   9.191   3.865
70000W        W38374  41.304  35.501   4.793
70001W        W38375  28.605  23.606  12.451
70002W        W38376  30.986   7.315   1.751
70003W        W38377   3.299   8.325  14.800
70004W        W38378  15.257  44.922   0.322
70005W        W38379  25.091  19.205  10.510
70006W        W38380  28.978  14.203   0.965
70007W        W38381  21.233  34.438   5.208
70008W        W38382  36.908   4.372  12.534
70009W        W38383   9.284  12.765  10.912
70010W        W38384   2.384  26.074   1.291
70011W        W38385  13.713  17.769  12.364
70012W        W38386  20.707  27.491  12.395
70013W        W38387  27.172   2.462   2.363
70014W        W38388  15.800  24.065   0.874
70015W        W38389  40.869  15.177   0.882
70016W        W38390  32.076   0.353  11.973
70017W        W38391  10.746  42.341  14.984
70018W        W38392  33.984  36.593  11.054
70019W        W38393  34.904  30.445   4.727
70020W        W38394  37.466  19.242   0.257
70021W        W38395  42.480  42.285  13.379
70022W        W38396  28.505  40.876   0.938
70023W        W38397  45.000   1.257  13.926
70024W        W38398  19.635  15.605  12.891
70025W        W38399   9.203  42.797   3.359
70026W        W38400  36.077  10.351   4.132
70027W        W38401  37.410  44.814  13.467
70028W        W38402  12.618   2.897  11.888
70029W        W38403  38.077  39.816  10.993
70030W        W38404  19.085  34.452  14.903
70031W        W38405  14.590  25.559  12.534
70032W        W38406  29.466  22.692   0.871
70033W        W38407  21.072  32.408  11.940
70034W        W38408  19.064  32.945   2.780
70035W        W38409  28.542  19.054   1.929
70036W        W38410  25.679   9.279   1.411
70037W        W38411  21.243  34.588  11.023
70038W        W38412   1.445   0.423  11.534
70039W        W38413  44.418  30.144  12.992
70040W        W38414  34.081  35.099  12.884
70041W        W38415  29.648  20.577   0.420
70042W        W38416  42.878  32.414   2.741
70043W        W38417  23.043  12.156  10.570
70044W        W38418  44.865   5.382  11.994
70045W        W38419  16.710  36.041   0.938
70046W        W38420  35.430  26.599  14.860
70047W        W38421  39.379  43.371   3.363
70048W        W38422   7.856  38.552  14.481
70049W        W38423  39.513  24.669   2.790
70050W        W38424  27.609  19.560   2.766
70051W        W38425   2.383   5.221  13.936
70052W        W38426  11.273  13.611   2.240
70053W        W38427  42.994  16.185   3.805
70054W        W38428  14.160  42.384  13.388
70055W        W38429  41.346  33.582  12.859
70056W        W38430  34.096   9.319  13.415
70057W        W38431  36.918  33.505  12.990
70058W        W38432  41.438   3.950  10.529
70059W        W38433   9.683  16.581   3.253
70060W        W38434   9.297  36.846   1.241
70061W        W38435  17.222  23.620  10.936
70062W        W38436  22.721  27.627   4.148
70063W        W38437  23.556  31.478  11.113
70064W        W38438  38.982  26.204  13.815
70065W        W38439   6.231  21.617   3.361
70066W        W38440  43.360  14.687  11.385
70067W        W38441  23.576   2.303  13.362
70068W        W38442   9.739  22.542  13.529
70069W        W38443  17.185  34.412   0.428
70070W        W38444  13.220  10.702   1.405
70071W        W38445  27.167   5.833   3.209
70072W        W38446  41.860  23.726  12.063
70073W        W38447  22.715  35.854  12.433
70074W        W38448  12.288  39.850  14.423
70075W        W38449  33.901  13.166  13.867
70076W        W38450   8.807  34.041  13.060
70077W        W38451   8.378  22.189  14.451
70078W        W38452  31.898   3.955   4.729
70079W        W38453   4.299  16.694  12.385
70080W        W38454   5.353  32.985  12.009
70081W        W38455  33.466  22.085  14.432
70082W        W38456  28.101  40.421  10.920
70083W        W38457   3.751  28.107   9.935
70084W        W38458  34.950  37.398   4.750
70085W        W38459  27.491  12.799  13.900
70086W        W38460  13.689  31.083   4.809
70087W        W38461  29.461  26.539   0.392
70088W        W38462  15.290   8.865   5.124
70089W        W38463   5.328  14.728   3.705
70090W        W38464  21.748  24.521   0.336
70091W        W38465  12.628  25.526  14.306
70092W        W38466  15.297  13.682  13.431
70093W        W38467  10.634  14.819   0.855
70094W        W38468   1.879  27.653   4.130
70095W        W38469  22.725  22.130  11.031
70096W        W38470   4.401  26.545  10.993
70097W        W38471  44.333  31.559  11.056
70098W        W38472   4.883  10.798  11.382
70099W        W38473   4.734   9.759   4.776
70100W        W38474  16.184  27.166   2.866
70101W        W38475   3.925  42.460  14.835
70102W        W38476   8.226  22.533  12.868
70103W        W38477  35.048   6.763   2.181
70104W        W38478  39.836   4.275   1.921
70105W        W38479   4.737  22.134  10.527
70106W        W38480  18.770  21.634   2.734
70107W        W38481  31.090   3.454  10.568
70108W        W38482   9.216   3.259   4.622
70109W        W38483  30.618  13.822   2.190
70110W        W38484  21.644  39.405  11.465
70111W        W38485  21.122  30.423   2.376
70112W        W38486  27.991  24.118   5.198
70113W        W38487  21.543  28.662   3.224
70114W        W38488  23.732  21.664   4.315
70115W        W38489  38.958  37.438   0.893
70116W        W38490  26.079  17.654   0.465
70117W        W38491  20.573  42.361  10.431
70118W        W38492  13.149  32.031   3.372
70119W        W38493   2.418  32.564  11.376
70120W        W38494  19.111  14.716   4.624
70121W        W38495  40.357   1.397   4.755
70122W        W38496  42.928  23.685   2.260
70123W        W38497   5.809   4.224  13.058
70124W        W38498   0.420  10.252  12.915
70125W        W38499  15.326  27.627  13.956
70126W        W38500  17.154  10.655   1.797
70127W        W38501  20.208  40.022  13.954
70128W        W38502  10.686  33.544  14.812
70129W        W38503  23.177  33.967  11.014
70130W        W38504  23.665  43.971   2.232
70131W        W38505  44.883  27.689  14.444
70132W        W38506  33.895  39.432  11.940
70133W        W38507   3.317  24.510   4.684
70134W        W38508  19.603  24.132  11.115
70135W        W38509  30.978  16.600  11.608
70136W        W38510  34.886  36.370   2.711
70137W        W38511  16.736  42.938  14.924
70138W        W38512  18.576  37.937   2.883
70139W        W38513  22.500   9.289   0.957
70140W        W38514  12.127   5.313  13.471
70141W        W38515  13.287  24.020  13.345
70142W        W38516  11.176  28.999   1.275
70143W        W38517   1.828  42.908   0.451
70144W        W38518   0.976  26.974   3.762
70145W        W38519  14.103  40.372   3.853
70146W        W38520  35.525  35.937   3.347
70147W        W38521   8.249  31.148   0.365
70148W        W38522  29.564   9.250  13.418
70149W        W38523  11.330  37.989   2.817
70150W        W38524   1.877  11.160   3.350
70151W        W38525  20.220   3.881   4.340
70152W        W38526   5.420   2.285   3.803
70153W        W38527   4.242  41.013  10.963
70154W        W38528  22.148  23.062  12.525
70155W        W38529   7.289  44.469   4.765
70156W        W38530   1.286  20.255   1.718
70157W        W38531  36.509  25.987  14.886
70158W        W38532  33.515  43.451  10.489
70159W        W38533  10.237  23.499   0.779
70160W        W38534  14.121  12.133   2.390
70161W        W38535  23.109  11.691   4.783
70162W        W38536  42.008  21.562   0.912
70163W        W38537  35.602  27.041  11.943
70164W        W38538  32.133  37.065  11.592
70165W        W38539   8.865  27.581  12.485
70166W        W38540  44.897  20.767  11.384
70167W        W38541   5.868  36.524   0.430
70168W        W38542   0.426  23.523  12.415
70169W        W38543   1.314  28.480  11.083
70170W        W38544  41.802   8.252   1.426
70171W        W38545  34.585  35.036  10.892
70172W        W38546  38.850  21.084   2.362
70173W        W38547  25.039  21.177  11.001
70174W        W38548  20.615   4.407   3.196
70175W        W38549   8.696   5.722   2.357
70176W        W38550   7.293  21.585   3.147
70177W        W38551  18.698   4.933   2.664
70178W        W38552  21.124  38.017  14.900
70179W        W38553  36.542   9.880  13.924
70180W        W38554  27.491   0.298   3.349
70181W        W38555   4.274  20.171  10.502
70182W        W38556  35.473  44.823   3.813
70183W        W38557  25.025  34.403   0.767
70184W        W38558  41.466  36.442   1.821
70185W        W38559   8.251  29.960  12.960
70186W        W38560  22.096  25.194   2.739
70187W        W38561   4.431  13.681   4.316
70188W        W38562  21.562  35.912   2.296
70189W        W38563   8.344   2.820   2.717
70190W        W38564  27.174  43.515   4.772
70191W        W38565   1.382  18.208  14.933
70192W        W38566   3.217  23.720  14.473
70193W        W38567  25.125  29.059   1.798
70194W        W38568  17.592  36.360   2.667
70195W        W38569  32.521  17.073  12.044
70196W        W38570   3.399  23.677   3.162
70197W        W38571   3.269  27.022   3.700
70198W        W38572  39.922  23.525   0.476
70199W        W38573   7.336  21.034  12.848
70200W        W38574   1.752  17.216   3.205
70201W        W38575  13.724  31.950  11.046
70202W        W38576  27.588   1.403   5.714
70203W        W38577   3.373  43.980  12.852
70204W        W38578  36.975   2.253   1.341
70205W        W38579   7.892   8.320  12.386
70206W        W38580  40.040  41.922  13.891
70207W        W38581   7.819  25.022   0.420
70208W        W38582   0.288  40.876   1.804
70209W        W38583   1.950  17.215  14.930
70210W        W38584  11.798  19.644   0.252
70211W        W38585   7.798  17.262  11.404
70212W        W38586  12.633  35.572  12.509
70213W        W38587  19.173  44.923   0.363
70214W        W38588  30.042  26.489   0.893
70215W        W38589  30.480  29.074   4.763
70216W        W38590  28.116  31.089   4.257
70217W        W38591  28.643  36.941  10.525
70218W        W38592  22.522   5.254   2.845
70219W        W38593  34.554  32.569   4.763
70220W        W38594  14.142   4.436   2.696
70221W        W38595  12.266   9.195   0.935
70222W        W38596  12.305  14.800   1.251
70223W        W38597  23.100  33.043   2.298
70224W        W38598  16.660  42.991  11.447
70225W        W38599   0.319  32.410   4.780
70226W        W38600   1.839  30.644   2.727
70227W        W38601   2.902  31.611  10.617
70228W        W38602  26.982  32.943  10.941
70229W        W38603  16.645   2.245  14.399
70230W        W38604  41.957  23.199  12.449
70231W        W38605  42.032  20.247   4.259
70232W        W38606  18.713  18.191   4.761
70233W        W38607   8.222   8.750  10.562
70234W        W38608  10.296  13.167   3.813
70235W        W38609  24.643  28.978  10.108
70236W        W38610  36.566  43.933   1.750
70237W        W38611  17.108  26.047   3.184
70238W        W38612  15.621   1.777   2.872
70239W        W38613  33.486  23.575  14.988
70240W        W38614  19.141  32.476  13.392
70241W        W38615  18.545  21.727   2.373
70242W        W38616  23.213  41.341  13.817
70243W        W38617   2.437  11.274  12.467
70244W        W38618   1.328  43.433   0.868
70245W        W38619   4.865  12.729   4.834
70246W        W38620  39.321   6.335  12.850
70247W        W38621  23.705  44.388   2.224
70248W        W38622  37.497  21.697  13.057
70249W        W38623   6.320   2.925   9.619
70250W        W38624  31.551   6.400  11.111
70251W        W38625  39.022  25.578  11.111
70252W        W38626  32.527  39.824  12.489
70253W        W38627  31.914  11.696   0.871
70254W        W38628  36.498  30.971  10.953
70255W        W38629   0.906  35.065  12.517
70256W        W38630  18.239   3.243   0.378
70257W        W38631  15.127  12.159   0.341
70258W        W38632   6.193  13.264   2.335
70259W        W38633  33.931  35.025   4.674
70260W        W38634  28.057  28.098   3.350
70261W        W38635  18.167  25.518  12.994
70262W        W38636  41.912  29.635  10.161
70263W        W38637  17.197  15.307   2.725
70264W        W38638   2.381   4.338   4.623
70265W        W38639  21.044  15.700   4.679
70266W        W38640  24.085  25.022   1.876
70267W        W38641  41.299  16.724  11.067
70268W        W38642  36.513  34.072   1.227
70269W        W38643  18.059  21.543   0.303
70270W        W38644   8.289  33.102  10.518
70271W        W38645   6.751  29.117   0.312
70272W        W38646  13.346  39.937  12.431
70273W        W38647  44.356  15.164  12.832
70274W        W38648   6.810  42.282  13.374
70275W        W38649  34.924   0.776  14.465
70276W        W38650  40.802  14.153  14.857
70277W        W38651  27.172  24.073   3.153
70278W        W38652  13.628  12.312   0.364
70279W        W38653  34.963   4.391  13.970
70280W        W38654  13.833  21.667   4.698
70281W        W38655   3.929  18.634  13.807
70282W        W38656  18.785  28.474  10.493
70283W        W38657   0.280   9.351  14.304
70284W        W38658  44.292   9.176  10.974
70285W        W38659  14.799  10.690   9.628
70286W        W38660  17.096   8.226   3.168
70287W        W38661  30.471   8.721   0.243
70288W        W38662  40.964  36.499  11.578
70289W        W38663   3.420  27.571  11.100
70290W        W38664  15.758  13.838   3.165
70291W        W38665  15.775  24.638   4.355
70292W        W38666   8.663  22.509  13.495
70293W        W38667  14.240   1.803  11.011
70294W        W38668  24.126  18.655  12.844
70295W        W38669  24.691  36.434   4.279
70296W        W38670  20.757  29.465   4.330
70297W        W38671  30.099  44.328  12.484
70298W        W38672  12.644   5.266   1.352
70299W        W38673  22.245  20.575   3.805
70300W        W38674  21.223  25.195  12.075
70301W        W38675  24.137  25.695   2.353
70302W        W38676  41.903  21.043   1.884
70303W        W38677   0.438  10.234  11.045
70304W        W38678   6.338   5.222   4.225
70305W        W38679   7.190  37.537  11.943
70306W        W38680  28.187  29.993   1.381
70307W        W38681   1.817  32.976   3.273
70308W        W38682  38.352   2.233  12.572
70309W        W38683  32.023  29.443   1.697
70310W        W38684  32.952  34.379   4.209
70311W        W38685  40.051  30.558  12.518
70312W        W38686  33.943   0.301  12.539
70313W        W38687   7.785   7.875   1.761
70314W        W38688  29.133  28.536  10.409
70315W        W38689  20.201  22.686  11.412
70316W        W38690   0.306  19.179  14.388
70317W        W38691   8.797  33.972  13.458
70318W        W38692  31.449  24.588  10.962
70319W        W38693  17.776  25.014   3.816
70320W        W38694  36.570   8.380   0.285
70321W        W38695  24.141  13.110   4.765
70322W        W38696  41.301  30.912  10.418
70323W        W38697  24.522  43.322   2.734
70324W        W38698   3.877  39.459  12.458
70325W        W38699   1.822   8.359   4.708
70326W        W38700  44.482  13.839  14.466
70327W        W38701   3.249  42.464  10.474
70328W        W38702  35.029  36.379   1.218
70329W        W38703  20.748  42.444   0.860
70330W        W38704  32.405  43.976  13.955
70331W        W38705  44.293  38.837   1.761
70332W        W38706  19.087  26.568   0.838
70333W        W38707  27.182   0.365  10.459
70334W        W38708  35.418   1.401   3.184
70335W        W38709   3.946  34.501   2.406
70336W        W38710  33.038   4.830   2.805
70337W        W38711  26.629   6.313   0.830
70338W        W38712   0.879  25.161  14.297
70339W        W38713  39.994   8.828   4.834
70340W        W38714  20.583  29.098  13.425
70341W        W38715  36.974  12.830  13.429
70342W        W38716  19.157  16.644  11.117
70343W        W38717  18.779  43.842  13.886
70344W        W38718  23.562  43.766   1.337
70345W        W38719  37.832  34.091   3.805
70346W        W38720   7.357  29.135  11.609
70347W        W38721  30.076  25.589   2.288
70348W        W38722   3.773  15.719   1.301
70349W        W38723   8.313  42.852  12.984
70350W        W38724  44.381  36.526  12.084
70351W        W38725  24.196  44.916   0.263
70352W        W38726  25.017  39.448   1.296
70353W        W38727  26.122  24.177   1.875
70354W        W38728  11.213  42.494   3.258
70355W        W38729  26.625  32.134  11.967
70356W        W38730  20.603  30.476   3.386
70357W        W38731   3.460  22.506   0.338
70358W        W38732  18.150  13.316   1.361
70359W        W38733  39.423  36.938   2.901
70360W        W38734  33.603  15.097  13.889
70361W        W38735   0.950  26.011   0.822
70362W        W38736   9.846  19.593  14.301
70363W        W38737  43.504  27.668   1.322
70364W        W38738  11.694  24.569   1.934
70365W        W38739  42.860  13.601   3.667
70366W        W38740  27.619  14.202  11.540
70367W        W38741  32.483  44.481   2.190
70368W        W38742   0.949   8.693   0.478
70369W        W38743  12.690  14.118  13.372
70370W        W38744  36.502  40.429  10.464
70371W        W38745  39.373  13.337   4.224
70372W        W38746  18.570  35.033  12.549
70373W        W38747   4.732  22.089  13.974
70374W        W38748  34.119  26.511  12.546
70375W        W38749  40.931  25.613   3.850
70376W        W38750  16.698  33.090  10.904
70377W        W38751  34.909  31.114   0.440
70378W        W38752  42.318  26.168  13.839
70379W        W38753   1.444  43.874   4.618
70380W        W38754  14.642  42.479   3.263
70381W        W38755   6.384  20.669   4.285
70382W        W38756  44.291  28.604   2.224
70383W        W38757  29.571  14.108  11.888
70384W        W38758   3.746  35.502   4.192
70385W        W38759  35.462  25.027   3.840
70386W        W38760  25.636  13.774  13.485
70387W        W38761   6.315  27.953   0.274
70388W        W38762  27.685  41.456   0.733
70389W        W38763   0.270  11.343  14.968
70390W        W38764  19.561   9.769   3.731
70391W        W38765  23.502  20.092  13.978
70392W        W38766  24.698  35.592   1.405
70393W        W38767  29.975   4.436  10.977
70394W        W38768  30.072  14.789  12.969
70395W        W38769  26.970  22.701   1.844
70396W        W38770  33.001  37.485   1.808
70397W        W38771  41.036  14.773  12.575
70398W        W38772  17.743  33.580   1.366
70399W        W38773  25.210  31.613  14.906
70400W        W38774   8.266   2.385   0.311
70401W        W38775  17.791  37.021  12.440
70402W        W38776  19.222  20.567   0.799
70403W        W38777  23.163  44.269   4.817
70404W        W38778   6.683  10.336  10.469
70405W        W38779  26.115  30.021   1.726
70406W        W38780  36.355  13.321   1.295
70407W        W38781  44.446   0.908   0.424
70408W        W38782  12.153  40.931   3.699
70409W        W38783  38.954  13.265   1.858
70410W        W38784  42.830  19.557  14.973
70411W        W38785  20.244  29.493   2.181
70412W        W38786  33.074  31.425  14.926
70413W        W38787  28.498  21.728  13.363
70414W        W38788   6.398   4.780  13.496
70415W        W38789  34.386  32.082  11.456
70416W        W38790   1.292  22.746  10.953
70417W        W38791  23.650  34.072  13.482
70418W        W38792  28.112   1.956   0.268
70419W        W38793  25.128  44.422   0.315
70420W        W38794  11.331  37.502  11.906
70421W        W38795  22.229  38.855  13.362
70422W        W38796   4.809   4.927   2.709
70423W        W38797   6.727  28.056  11.406
70424W        W38798   6.294  34.502   2.851
70425W        W38799  37.033  19.210  13.478
70426W        W38800  29.039  29.050  10.964
70427W        W38801  19.723  22.147  12.545
70428W        W38802  34.084  21.590   3.652
70429W        W38803  18.245  38.371  11.865
70430W        W38804   0.255  37.081  10.505
70431W        W38805   8.874  35.880   2.745
70432W        W38806  12.223  40.528   3.285
70433W        W38807  26.551  21.134  13.458
70434W        W38808  24.025  11.161   1.754
70435W        W38809  43.980  36.414  11.000
70436W        W38810   8.773   9.372   2.833
70437W        W38811  21.674  43.867   1.409
70438W        W38812  31.081  35.990   5.161
70439W        W38813  41.861  29.661   1.737
70440W        W38814  20.263   9.166  11.930
70441W        W38815  13.641  34.566  11.126
70442W        W38816   1.411   6.920   4.280
70443W        W38817  20.730  14.178  10.967
70444W        W38818  40.455   2.368   1.228
70445W        W38819  34.591  16.810  12.054
70446W        W38820  17.279  37.894   3.370
70447W        W38821  36.369   1.367  12.998
70448W        W38822  28.640   4.868  10.078
70449W        W38823  27.063  14.813  14.329
70450W        W38824  43.476  44.805  13.424
70451W        W38825  12.221  43.366   2.295
70452W        W38826  21.713  22.110  14.311
70453W        W38827   2.258  28.667   3.173
70454W        W38828  34.037  39.853   4.655
70455W        W38829   7.667  16.283  12.921
70456W        W38830  24.665  16.683   0.473
70457W        W38831  25.074  16.591   1.830
70458W        W38832  12.629   7.321  11.053
70459W        W38833   3.778  24.030   2.414
70460W        W38834   6.227  29.001  13.853
70461W        W38835  37.369  16.615   3.852
70462W        W38836  29.172   4.347   4.347
70463W        W38837  31.508  14.283   0.884
70464W        W38838  36.506   5.921  13.035
70465W        W38839  31.556  29.106  14.477
70466W        W38840  19.141  13.740   0.929
70467W        W38841  33.932  44.935   1.716
70468W        W38842  38.529  38.023   0.936
70469W        W38843  22.685  17.140   1.221
70470W        W38844  20.627  44.809  14.841
70471W        W38845  16.765  12.748   3.679
70472W        W38846   6.380   9.332   4.767
70473W        W38847   0.277  31.464  13.023
70474W        W38848  15.768  19.147  12.428
70475W        W38849  43.863  18.226   3.662
70476W        W38850   8.298  26.081  13.930
70477W        W38851  27.059  28.618   3.742
70478W        W38852  13.296  36.908   3.709
70479W        W38853  19.044   9.876   2.712
70480W        W38854  28.569  25.028  14.468
70481W        W38855  22.668  29.136  13.808
70482W        W38856  35.541  38.886   4.250
70483W        W38857  25.124   0.268  11.382
70484W        W38858  17.210  36.989   4.601
70485W        W38859  33.993   1.759   1.776
70486W        W38860  27.601  22.560  12.558
70487W        W38861  33.985  16.710   1.874
70488W        W38862  42.506   4.246   3.286
70489W        W38863  17.644  39.013  13.032
70490W        W38864  24.484  15.102  13.981
70491W        W38865   5.762  11.649   4.700
70492W        W38866  18.680  38.524  12.930
70493W        W38867  36.576  12.342  12.458
70494W        W38868  39.939  15.278   0.258
70495W        W38869  41.375  42.491   4.824
70496W        W38870  28.446  12.152   1.844
70497W        W38871  35.602  43.502  14.815
70498W        W38872  19.179  34.987   0.780
70499W        W38873   7.703  30.503   4.835
70500W        W38874  44.398  14.319  11.042
70501W        W38875  42.448   3.433   1.816
70502W        W38876  37.997  16.766  14.980
70503W        W38877  23.995  26.165   1.424
70504W        W38878  41.789  11.216   4.349
70505W        W38879   0.937  14.110   2.302
70506W        W38880  10.641  13.655   0.409
70507W        W38881  42.987  36.040   0.445
70508W        W38882  40.385  26.536   5.252
70509W        W38883  39.370  38.903   4.725
70510W        W38884  36.085  42.883  11.881
70511W        W38885  41.536   2.827   2.691
70512W        W38886  21.527   0.780   2.759
70513W        W38887  20.638  39.440   2.825
70514W        W38888  34.505  43.842   3.341
70515W        W38889   5.255  36.847   1.845
70516W        W38890  42.441  17.301  14.401
70517W        W38891  40.801  10.200  11.090
70518W        W38892  13.340  17.243   2.245
70519W        W38893  23.650  44.385  13.315
70520W        W38894  29.017  44.792   2.688
70521W        W38895  38.405  10.242  10.131
70522W        W38896  13.775  32.419  14.966
70523W        W38897   6.212  32.472  13.343
70524W        W38898  22.681  41.480   1.335
70525W        W38899   4.391   3.935   3.651
70526W        W38900  12.678  35.058  13.516
70527W        W38901   9.869  26.973   1.856
70528W        W38902  40.851  23.124   2.343
70529W        W38903  37.524  43.320  13.041
70530W        W38904  22.092  35.595   2.777
70531W        W38905  30.032  43.839  10.963
70532W        W38906  31.461   2.283  12.992
70533W        W38907  33.887  23.007   0.866
70534W        W38908  12.188  15.185  12.505
70535W        W38909   6.884  40.836  12.841
70536W        W38910  18.690  13.808   3.638
70537W        W38911  17.221  13.184   5.307
70538W        W38912  38.071   9.188  14.351
70539W        W38913  39.518  20.714   4.117
70540W        W38914   9.801   9.292  11.051
70541W        W38915   8.878  35.011   2.377
70542W        W38916  21.039  11.658  10.459
70543W        W38917  13.772  43.913  13.459
70544W        W38918  31.487  42.986   3.162
70545W        W38919  29.593  23.723  14.430
70546W        W38920  12.294  25.215   3.211
70547W        W38921  24.030  18.718  13.334
70548W        W38922  28.540  28.443   1.824
70549W        W38923   1.479  19.050   0.900
70550W        W38924  42.813   1.967   2.406
70551W        W38925  34.929  41.828   4.612
70552W        W38926   4.367  19.573  11.555
70553W        W38927   4.802   0.357   3.816
70554W        W38928   3.399  12.361  11.534
70555W        W38929  16.141   3.921   3.837
70556W        W38930   7.400  29.089   2.766
70557W        W38931  24.173  14.228   1.835
70558W        W38932  17.677  42.310   2.735
70559W        W38933  31.464   7.403   4.159
70560W        W38934  43.280  32.546  14.402
70561W        W38935  12.834  14.764   4.711
70562W        W38936  41.407  16.604  13.818
70563W        W38937  22.052  37.852   5.786
70564W        W38938  34.512  24.627   0.404
70565W        W38939  25.069   2.840  13.836
70566W        W38940  12.792  38.824  10.956
70567W        W38941  36.409  28.518   1.856
70568W        W38942  18.193  34.467   2.670
70569W        W38943  33.973   1.898   2.331
70570W        W38944  42.425  40.805  10.481
70571W        W38945  16.300  21.068   0.778
70572W        W38946  43.872  22.010   4.738
70573W        W38947  31.955  39.934   1.881
70574W        W38948  19.054  43.347  12.012
70575W        W38949   9.184  10.849   3.231
70576W        W38950  40.957  23.599  14.893
70577W        W38951  35.988  21.151  13.039
70578W        W38952  35.584  19.767   1.769
70579W        W38953  11.734  24.102   2.334
70580W        W38954  38.552  17.632  13.384
70581W        W38955  42.856   7.293  10.427
70582W        W38956  22.048  43.512  13.041
70583W        W38957  10.859   5.310  13.425
70584W        W38958  16.222   9.750  13.427
70585W        W38959  42.880   9.173  12.567
70586W        W38960  18.603  14.096  10.552
70587W        W38961  16.670   5.878  12.482
70588W        W38962  15.204  41.537  13.546
70589W        W38963  10.684  12.678   4.119
70590W        W38964  20.721   0.744  11.451
70591W        W38965   2.887  44.825   2.668
70592W        W38966  32.091   9.888   3.249
70593W        W38967  24.673   0.796   1.902
70594W        W38968  14.143  40.381   0.730
70595W        W38969  41.912   9.741   0.964
70596W        W38970   8.360  21.709  14.937
70597W        W38971  37.404  19.069   4.810
70598W        W38972   3.287  27.115  13.933
70599W        W38973  27.540  41.968   4.819
70600W        W38974  43.465  33.553  11.919
70601W        W38975  13.696  30.551  11.062
70602W        W38976  38.945   1.274  11.559
70603W        W38977  27.073   3.309   0.303
70604W        W38978  23.687  10.722   1.425
70605W        W38979  42.474  39.019  12.000
70606W        W38980  36.893   8.244   0.939
70607W        W38981  10.350  11.805  11.087
70608W        W38982  18.114  41.817   3.270
70609W        W38983  35.100  39.327   1.702
70610W        W38984  18.083   9.721   0.945
70611W        W38985  35.464  33.541   0.743
70612W        W38986   2.441  27.526  13.826
70613W        W38987  32.409  15.615   0.838
70614W        W38988  10.318   8.395   4.317
70615W        W38989   6.380  26.961   1.253
70616W        W38990   2.863   2.739  14.002
70617W        W38991  37.984  34.014  10.562
70618W        W38992  40.923  40.369  14.948
70619W        W38993   2.288   1.444   1.289
70620W        W38994  37.574  32.897   2.826
70621W        W38995   6.186  27.649  12.414
70622W        W38996  26.689  41.350   4.740
70623W        W38997  37.530  15.775   5.138
70624W        W38998  23.554  30.071   1.770
70625W        W38999   7.790  35.886   9.953
70626W        W39000  19.175  28.641   1.411
70627W        W39001   0.430  30.655  14.836
70628W        W39002  41.321  34.477   3.201
70629W        W39003  44.276  25.681   2.835
70630W        W39004  22.130  43.278  14.448
70631W        W39005  24.695  27.035   3.811
70632W        W39006  35.854  31.527   0.951
70633W        W39007  24.094  44.919   2.767
70634W        W39008   8.215  37.498   2.827
70635W        W39009   4.857  13.234  12.054
70636W        W39010  16.200  42.898  13.425
70637W        W39011  16.251  24.219   0.936
70638W        W39012  30.143  35.109   3.257
70639W        W39013  25.592   2.722  12.970
70640W        W39014   0.381  39.334  10.899
70641W        W39015  23.027  34.495   1.747
70642W        W39016   7.251  18.658   1.832
70643W        W39017   9.772  36.890  14.292
70644W        W39018  33.118  27.515   0.445
70645W        W39019  11.346  39.976  12.555
70646W        W39020   7.176  40.019   3.693
70647W        W39021  13.815  28.637  12.967
70648W        W39022  14.720   0.289  14.400
70649W        W39023   7.379  15.328   0.410
70650W        W39024  17.094   1.381  10.915
70651W        W39025   1.823  28.609   4.203
70652W        W39026  17.730  29.080   3.252
70653W        W39027  37.411  20.237  14.029
70654W        W39028   3.866  38.560  12.906
70655W        W39029  43.327  35.872   1.931
70656W        W39030  19.099  28.640  13.477
70657W        W39031  16.314  24.178   3.339
70658W        W39032  25.637   4.717  14.486
70659W        W39033  19.159  17.234  10.407
70660W        W39034   8.277  31.461  14.500
70661W        W39035  18.754   5.856   1.879
70662W        W39036  25.985  35.913   0.953
70663W        W39037  23.985   6.206  14.363
70664W        W39038  24.085  28.609   0.413
70665W        W39039  25.104  43.933   3.861
70666W        W39040  27.488  28.181   2.856
70667W        W39041  15.299  30.999   1.357
70668W        W39042   1.478  12.270   0.846
70669W        W39043  11.203  29.597  13.468
70670W        W39044  17.660   8.218   1.423
70671W        W39045   3.815  30.464  13.486
70672W        W39046  38.398  33.027  14.858
70673W        W39047  39.392  20.215  13.311
70674W        W39048  24.565   5.281   1.379
70675W        W39049  20.533  20.718  12.027
70676W        W39050   7.795  14.645  12.949
70677W        W39051  33.913  15.255  13.540
70678W        W39052   4.314  27.052  14.782
70679W        W39053  20.564   5.802  12.359
70680W        W39054  30.962  35.071   3.362
70681W        W39055  35.938  26.522  13.440
70682W        W39056  36.547  18.058   0.740
70683W        W39057  17.616  33.015   1.387
70684W        W39058  22.230  26.633   3.208
70685W        W39059  11.129  25.140   0.865
70686W        W39060  22.024  34.585  14.778
70687W        W39061  35.106  25.564  13.842
70688W        W39062  41.317  10.705  11.382
70689W        W39063   1.298  20.150  14.793
70690W        W39064  35.878   1.261   0.764
70691W        W39065  19.050  19.605   2.205
70692W        W39066  11.245   7.688   2.817
70693W        W39067   0.770   7.718  13.396
70694W        W39068  31.529  40.323  14.381
70695W        W39069  39.339   8.831  12.035
70696W        W39070   9.283  24.544   4.277
70697W        W39071  14.129  23.101  11.012
70698W        W39072  20.754  13.704  11.593
70699W        W39073  17.218  30.047  10.429
70700W        W39074  22.735  11.844  10.539
70701W        W39075  38.380  15.636  14.463
70702W        W39076  34.386  44.406   0.259
70703W        W39077  27.568  21.263   3.747
70704W        W39078  13.211  41.529  13.058
70705W        W39079  42.803   0.469   3.806
70706W        W39080  27.990  29.956  10.922
70707W        W39081   7.675  44.927   4.210
70708W        W39082  31.969   6.697  13.994
70709W        W39083  41.429  25.614  14.348
70710W        W39084  33.116   7.348   4.833
70711W        W39085   4.897  15.596  14.479
70712W        W39086  36.854   0.873  10.420
70713W        W39087  34.945  18.053  11.470
70714W        W39088   3.771  13.653  14.959
70715W        W39089  20.752   6.846   2.216
70716W        W39090  43.515  36.536  12.886
70717W        W39091  20.755  32.510  10.559
70718W        W39092  32.123   5.775   2.344
70719W        W39093  40.343  23.989  11.102
70720W        W39094   8.193  40.928   1.363
70721W        W39095  32.628   6.272   2.847
70722W        W39096  25.653  15.137  10.915
70723W        W39097  16.250   2.886  12.025
70724W        W39098  17.122   9.177   3.818
70725W        W39099   0.466  20.139   1.909
70726W        W39100   4.935  23.570  13.933
70727W        W39101  25.062   1.915  13.373
70728W        W39102  30.495   7.287   1.344
70729W        W39103  19.145   7.676   3.192
70730W        W39104  38.060  13.290   0.389
70731W        W39105  37.458  20.029  11.120
70732W        W39106  40.338  30.054   0.410
70733W        W39107  35.032  20.142   2.300
70734W        W39108  39.029  43.901   4.676
70735W        W39109   3.880  44.305   2.745
70736W        W39110  22.728  34.476  11.098
70737W        W39111  19.152  24.086  12.429
70738W        W39112  25.013   5.376   2.855
70739W        W39113   0.862  29.448  13.014
70740W        W39114   7.792  29.016   3.682
70741W        W39115  16.187   8.783  10.571
70742W        W39116  21.252  22.214   0.292
70743W        W39117  10.192  15.637  11.536
70744W        W39118   5.772  34.080   3.820
70745W        W39119  30.141   1.749   2.378
70746W        W39120  44.011  17.731  11.987
70747W        W39121  38.047   5.913  13.892
70748W        W39122  35.914  38.540  12.521
70749W        W39123  33.476  39.995  10.442
70750W        W39124   4.718  21.719  14.301
70751W        W39125   8.763  20.184   2.754
70752W        W39126  25.142  25.166   3.784
70753W        W39127  35.048  22.244  13.421
70754W        W39128  29.558  19.764   1.260
70755W        W39129  25.150  32.614  11.012
70756W        W39130  27.985   2.914  11.610
70757W        W39131  32.480   5.278   2.763
70758W        W39132  32.003  43.467   2.218
70759W        W39133  30.084   0.984  11.106
70760W        W39134  13.325  24.492   4.798
70761W        W39135  23.128  39.842   9.656
70762W        W39136   2.875  11.701  12.941
70763W        W39137   3.229  15.685  14.833
70764W        W39138  30.594  43.886   4.598
70765W        W39139  42.435   5.199   1.883
70766W        W39140  26.188  26.506   2.366
70767W        W39141   3.412  26.019   4.750
70768W        W39142  14.227  20.642  10.524
70769W        W39143   1.887   9.150  14.490
70770W        W39144  13.766   4.307  14.962
70771W        W39145  14.676  14.652   2.876
70772W        W39146  40.441  10.685  14.938
70773W        W39147  23.190  19.709  11.080
70774W        W39148  23.143  15.750   2.264
70775W        W39149  34.603   9.348   2.810
70776W        W39150   4.905   9.189   3.201
70777W        W39151  32.086   7.391   0.343
70778W        W39152  30.429  42.362   1.917
70779W        W39153  33.439   6.280  12.554
70780W        W39154  19.111  43.899   1.313
70781W        W39155  39.013   5.785   5.250
70782W        W39156   7.258  17.697   5.224
70783W        W39157  43.513   8.661  13.027
70784W        W39158  39.980  15.169  13.931
70785W        W39159   5.216  36.894  12.077
70786W        W39160  18.183  11.625  14.363
70787W        W39161   6.370   5.822   4.295
70788W        W39162   9.719  10.834   4.184
70789W        W39163  24.974  10.862   1.706
70790W        W39164   5.338  34.386  11.457
70791W        W39165   8.860  13.689   0.373
70792W        W39166  35.384  24.144  11.089
70793W        W39167  39.395   1.930  10.581
70794W        W39168  10.839  25.499  14.026
70795W        W39169  12.665  27.007  14.865
70796W        W39170  25.973  17.141   4.189
70797W        W39171   8.866  32.123  14.966
70798W        W39172  19.052  33.879   2.347
70799W        W39173  10.250  24.557  13.965
70800W        W39174  40.473  17.183  12.943
70801W        W39175  15.731  17.751   1.911
70802W        W39176   9.292  30.976   9.515
70803W        W39177  33.571  12.249   1.234
70804W        W39178  23.099  26.475   1.451
70805W        W39179  31.153  41.367   2.214
70806W        W39180  30.036   5.352   4.825
70807W        W39181  23.513  31.141  14.918
70808W        W39182  40.334  31.424  12.507
70809W        W39183   5.276  14.155   3.708
70810W        W39184  44.756   0.483   3.664
70811W        W39185  13.219   5.933  11.430
70812W        W39186  42.881  37.931   2.220
70813W        W39187  42.288  28.643  14.368
70814W        W39188  24.038   8.671  10.916
70815W        W39189  17.172   0.795  11.379
70816W        W39190  23.051   7.822  14.012
70817W        W39191  20.242   6.283   3.854
70818W        W39192  21.527  31.506   5.283
70819W        W39193   0.783   6.914   1.250
70820W        W39194   3.823  26.590  12.538
70821W        W39195  40.533  21.739  11.919
70822W        W39196   7.266   4.793   0.374
70823W        W39197  38.915  17.713  13.931
70824W        W39198  31.935  35.927   1.211
70825W        W39199   9.882  22.561   1.734
70826W        W39200  15.785   8.741  12.390
70827W        W39201  26.520  25.558   3.861
70828W        W39202  26.999  23.146   2.198
70829W        W39203  10.784  25.598   1.294
70830W        W39204  40.042   7.828   1.235
70831W        W39205  33.978   4.284  13.526
70832W        W39206  21.078   9.382   4.803
70833W        W39207  11.803  36.551  13.473
70834W        W39208   6.302  10.297   3.192
70835W        W39209  23.614  20.154  12.913
70836W        W39210  20.034   3.390  12.033
70837W        W39211   4.703  32.058   4.196
70838W        W39212  13.662  28.116  14.302
70839W        W39213  17.642  17.087   3.745
70840W        W39214  38.399   1.379   2.870
70841W        W39215  35.060  27.017  12.937
70842W        W39216  12.221   6.286   4.311
70843W        W39217  37.930   2.768   4.630
70844W        W39218  39.364   5.355  10.892
70845W        W39219  37.576  27.531   2.186
70846W        W39220  26.618  22.176   0.845
70847W        W39221  36.572  41.829   3.710
70848W        W39222   4.838   8.169   1.808
70849W        W39223  39.446   3.318   4.615
70850W        W39224  13.747  32.966   0.257
70851W        W39225   2.245   8.323   4.227
70852W        W39226  29.482  26.564  13.919
70853W        W39227  24.618   5.881   1.719
70854W        W39228  40.540   2.275   0.835
70855W        W39229  10.714  42.298  14.304
70856W        W39230  19.559   1.457  14.950
70857W        W39231   4.761  41.934   0.398
70858W        W39232  35.043   7.746   4.711
70859W        W39233  23.003  19.040   1.753
70860W        W39234  20.133  34.115  12.846
70861W        W39235  31.031   4.862  11.602
70862W        W39236  18.210  17.134  10.440
70863W        W39237  30.104   1.480   0.320
70864W        W39238  32.422  34.926   4.744
70865W        W39239   1.962   4.204   1.365
70866W        W39240  32.527  29.564   3.857
70867W        W39241   6.293  13.294   2.671
70868W        W39242  30.606  25.492   4.283
70869W        W39243  24.594  41.367   1.309
70870W        W39244   9.380   4.410   9.467
70871W        W39245  20.250  16.661   0.289
70872W        W39246  31.932   6.324  13.991
70873W        W39247  30.585   9.380   1.432
70874W        W39248  38.911  40.022  14.420
70875W        W39249  29.084  39.926  12.955
70876W        W39250  32.395   3.426   5.134
70877W        W39251   7.861  33.547   2.376
70878W        W39252  12.217   7.718   0.253
70879W        W39253  37.435   3.363  14.873
70880W        W39254  18.147   4.231  13.378
70881W        W39255  35.579   7.737   0.921
70882W        W39256  22.623  17.257  10.579
70883W        W39257  38.445   8.398   1.882
70884W        W39258  27.956  22.247   4.659
70885W        W39259  41.953  29.631  10.616
70886W        W39260  44.764  27.632  14.884
70887W        W39261   4.352  30.914   3.685
70888W        W39262  44.359  13.130  10.531
70889W        W39263  29.039   4.721   0.744
70890W        W39264  13.677  42.992   2.690
70891W        W39265  34.472  33.488   4.324
70892W        W39266  27.619  21.208  13.447
70893W        W39267  32.907  31.119   0.360
70894W        W39268  24.159  28.488   1.344
70895W        W39269  29.163  22.651   1.803
70896W        W39270   5.770  35.580  12.922
70897W        W39271   6.246  27.689  14.310
70898W        W39272  16.767  21.656  13.802
70899W        W39273  21.638  42.379  14.386
70900W        W39274  20.162  43.856  11.872
70901W        W39275   3.953  14.175  13.357
70902W        W39276  35.937  32.138  11.433
70903W        W39277  27.195  19.270  12.479
70904W        W39278  11.287  30.061   4.152
70905W        W39279   6.869  23.677  10.039
70906W        W39280   5.288  42.403   2.738
70907W        W39281  39.036  44.302  14.759
70908W        W39282  25.674   4.720   2.709
70909W        W39283  40.001   4.241   0.762
70910W        W39284  18.197   9.362  14.831
70911W        W39285  38.490  35.879  11.612
70912W        W39286  32.572  32.080  12.528
70913W        W39287  42.458  30.591   0.894
70914W        W39288  25.979  31.437   0.745
70915W        W39289   2.765   7.790   0.787
70916W        W39290  29.056  27.669  10.565
70917W        W39291  24.664  18.156  10.946
70918W        W39292   0.773  28.084   3.320
70919W        W39293  37.070  43.950  14.787
70920W        W39294  30.916  19.097   1.249
70921W        W39295   0.401  44.855  12.359
70922W        W39296  11.737   9.837  13.912
70923W        W39297  34.007  31.045  10.993
70924W        W39298  25.687  24.193   3.688
70925W        W39299   9.233  11.300  14.275
70926W        W39300  22.512  23.502  14.460
70927W        W39301  10.273  16.706  10.537
70928W        W39302   5.381  29.941  14.928
70929W        W39303  32.541  15.803  12.088
70930W        W39304  10.672  24.657   0.433
70931W        W39305  36.487  28.567  14.485
70932W        W39306   5.881  27.048   4.792
70933W        W39307  25.020   8.328   1.719
70934W        W39308  38.525  28.448  12.394
70935W        W39309  35.097  17.715  14.285
70936W        W39310  30.941   3.862  10.644
70937W        W39311  35.415  27.575  10.956
70938W        W39312  12.670   1.839   3.171
70939W        W39313  39.500   7.874  14.775
70940W        W39314   2.749  33.017  12.831
70941W        W39315  20.153  23.058   0.410
70942W        W39316  25.992  35.955  14.330
70943W        W39317   2.442  43.908  13.403
70944W        W39318  32.614  36.447   3.829
70945W        W39319  29.961  26.967   1.756
70946W        W39320  44.404  23.518  14.848
70947W        W39321  25.203  39.315  13.314
70948W        W39322  36.424  37.936  11.385
70949W        W39323  36.964  40.348  11.475
70950W        W39324  23.729  24.704  13.827
70951W        W39325  23.124  16.672   0.957
70952W        W39326   6.819  15.092  10.953
70953W        W39327  18.055  27.584  13.833
70954W        W39328  37.064   2.335   3.657
70955W        W39329  14.696  30.018  14.023
70956W        W39330   8.897  41.946  10.527
70957W        W39331  26.020  28.947   0.364
70958W        W39332  38.497  17.563  12.557
70959W        W39333  20.161   9.733   2.794
70960W        W39334   6.307  40.885  10.474
70961W        W39335  37.946  13.633  13.521
70962W        W39336  21.096  10.301   3.650
70963W        W39337  43.820   4.250   2.318
70964W        W39338  12.169  39.815   2.799
70965W        W39339  43.287  27.541  12.434
70966W        W39340  39.335  24.554  14.993
70967W        W39341  16.710  14.611  11.941
70968W        W39342   6.370  31.947   2.254
70969W        W39343  28.615  27.580   0.925
70970W        W39344  44.370  26.075  11.613
70971W        W39345  20.525  33.035  13.361
70972W        W39346  10.827  40.309   0.756
70973W        W39347  30.048  24.701  11.921
70974W        W39348  22.723  37.039  12.387
70975W        W39349  30.922  23.603   3.680
70976W        W39350  10.319  33.411   0.290
70977W        W39351  29.937   2.882  12.000
70978W        W39352  27.452  36.532  14.371
70979W        W39353  25.643  34.919   9.973
70980W        W39354   3.371  28.954   4.133
70981W        W39355   7.413  10.650  14.840
70982W        W39356  39.547  12.818  12.940
70983W        W39357  15.171  41.435  10.949
70984W        W39358   5.868  29.446   4.779
70985W        W39359  21.252  21.665  14.348
70986W        W39360   5.925  42.479   1.314
70987W        W39361  24.658   3.439  13.012
70988W        W39362  10.849  42.836  14.342
70989W        W39363  21.091  29.610   4.249
70990W        W39364  38.478  21.059  13.411
70991W        W39365  39.993  10.749  11.880
70992W        W39366  25.699  31.485  12.454
70993W        W39367  18.761  28.667   4.735
70994W        W39368  11.260  28.012  12.877
70995W        W39369  29.668  20.620  12.465
70996W        W39370  36.070  43.015   1.425
70997W        W39371  17.702  28.677   4.761
70998W        W39372   6.193  27.637  11.400
70999W        W39373  17.692  18.227  14.386
71000W        W39374  33.048   1.413   2.756
71001W        W39375  24.665  18.268  14.969
71002W        W39376  40.398  20.552  14.963
71003W        W39377  37.546  27.468  11.509
71004W        W39378  24.045  32.058  13.919
71005W        W39379  44.857   4.423   2.816
71006W        W39380  32.105  16.269   0.839
71007W        W39381  15.314  21.180  11.062
71008W        W39382  16.181   1.965   4.288
71009W        W39383  35.582  17.216  14.949
71010W        W39384   6.734   7.778   4.665
71011W        W39385  30.037  40.034  13.403
71012W        W39386  14.634   9.723  13.796
71013W        W39387  23.157  17.771   0.759
71014W        W39388  35.389  28.031   0.350
71015W        W39389  38.458  11.830  14.469
71016W        W39390  22.196  32.593   2.377
71017W        W39391  31.900   4.738   1.860
71018W        W39392  32.061  26.976   3.746
71019W        W39393  33.973  39.858   1.906
71020W        W39394  14.283  21.532  11.390
71021W        W39395  43.287   8.319  13.362
71022W        W39396  41.533  35.488   2.217
71023W        W39397  35.582  42.927   0.468
71024W        W39398  21.522  12.789   0.401
71025W        W39399  35.046  32.464   3.297
71026W        W39400   8.183  17.741   0.939
71027W        W39401   1.873  23.207   4.318
71028W        W39402  43.925   8.391  11.475
71029W        W39403  33.016  23.497   4.813
71030W        W39404  13.112  17.174   5.163
71031W        W39405  43.384  15.260  11.046
71032W        W39406  19.225  25.572   4.717
71033W        W39407  38.554  22.136  11.890
71034W        W39408  38.537  39.358  11.455
71035W        W39409   3.837  28.681   4.129
71036W        W39410   8.876  22.740   1.915
71037W        W39411   1.482  34.411  12.998
71038W        W39412  39.063   3.865   2.810
71039W        W39413  16.623  29.476  14.987
71040W        W39414  34.548  12.238  14.944
71041W        W39415  40.421  33.890   4.783
71042W        W39416   9.653  44.331  12.935
71043W        W39417  20.654  19.187  14.396
71044W        W39418   9.361  36.015  13.883
71045W        W39419  38.500   4.351  10.454
71046W        W39420  41.486  43.907   4.288
71047W        W39421  26.068   9.817  14.419
71048W        W39422   8.368  42.419  13.485
71049W        W39423   0.248  26.024  12.999
71050W        W39424  13.833  30.510  13.848
71051W        W39425  16.264  32.420  11.492
71052W        W39426  31.468  33.128   0.781
71053W        W39427  41.532  44.454  10.601
71054W        W39428  35.505   2.754   3.793
71055W        W39429  33.024  39.918  11.890
71056W        W39430  33.050  24.211  12.443
71057W        W39431  24.715  21.208   1.850
71058W        W39432  26.597  44.358  14.955
71059W        W39433  43.834  34.961   1.303
71060W        W39434  40.497  35.362   3.867
71061W        W39435  14.227  32.082   1.783
71062W        W39436  18.601  13.163  12.901
71063W        W39437  22.033  22.089  13.825
71064W        W39438  28.997   0.448   0.277
71065W        W39439   1.420   6.306   4.691
71066W        W39440  20.562  11.332  13.792
71067W        W39441  36.875  20.647  14.949
71068W        W39442  14.795   8.326   0.960
71069W        W39443   8.741  25.512   1.313
71070W        W39444  41.916  16.568  13.439
71071W        W39445  29.625  41.919  13.459
71072W        W39446   2.236  42.495  13.917
71073W        W39447  10.682  20.090  14.809
71074W        W39448   7.224  36.543  14.908
71075W        W39449   9.737  14.130  12.877
71076W        W39450  37.375  38.447   0.317
71077W        W39451  13.247  21.619  14.505
71078W        W39452  33.445  37.840   2.359
71079W        W39453  18.252  25.662   0.747
71080W        W39454   2.409  11.131   4.154
71081W        W39455  31.041  19.124  12.983
71082W        W39456  23.212  32.080  11.522
71083W        W39457  36.457  38.076   4.337
71084W        W39458   4.717  31.028   3.330
71085W        W39459  31.428  42.954  12.362
71086W        W39460  11.303  43.913  13.436
71087W        W39461   7.180  42.886   1.746
71088W        W39462  33.621  25.495   4.204
71089W        W39463  27.518  44.813   3.649
71090W        W39464  34.922  32.608   4.836
71091W        W39465  41.533  13.701   0.775
71092W        W39466  24.641   7.715   1.904
71093W        W39467  11.715  12.639   1.385
71094W        W39468   4.728  23.137  14.487
71095W        W39469  14.288  36.863   4.771
71096W        W39470  37.440  40.471  12.558
71097W        W39471   1.379   8.326  14.764
71098W        W39472  42.461  14.788  11.426
71099W        W39473  16.074   7.214   2.815
71100W        W39474  16.112  21.259   2.678
71101W        W39475  40.332  33.446   3.380
71102W        W39476  19.282  14.123   2.315
71103W        W39477  23.616  44.805  10.519
71104W        W39478   9.165  15.250  11.888
71105W        W39479  14.151   1.405  14.845
71106W        W39480   9.361  24.577  11.379
71107W        W39481  29.545   5.436  14.460
71108W        W39482  15.734  39.426   1.754
71109W        W39483  28.662  39.353  11.595
71110W        W39484  10.196  28.469  13.941
71111W        W39485  39.404  10.824   2.247
71112W        W39486  37.532  10.697   2.301
71113W        W39487  39.436   0.758  13.368
71114W        W39488  12.186  36.508  13.447
71115W        W39489  39.959  40.038  14.474
71116W        W39490  39.059  16.573   3.381
71117W        W39491   0.783  19.657  13.921
71118W        W39492  17.571  30.943  10.535
71119W        W39493   4.888  44.299  10.060
71120W        W39494  15.814   1.382   2.269
71121W        W39495  20.116  38.483   0.298
71122W        W39496  38.026  43.924   0.464
71123W        W39497  38.436  41.488  12.547
71124W        W39498  27.453   5.379   3.346
71125W        W39499   1.244   3.349   3.661
71126W        W39500  26.495  36.005   4.196
71127W        W39501   2.408  30.081  12.923
71128W        W39502  24.176  19.715  11.472
71129W        W39503  11.743  40.847  12.361
71130W        W39504  22.158  19.663  12.013
71131W        W39505   7.180  41.004  12.039
71132W        W39506  39.520  41.008  13.062
71133W        W39507  14.177  15.637  10.479
71134W        W39508  31.940  14.168   3.660
71135W        W39509  27.656   8.845  13.408
71136W        W39510   3.858  11.146   2.703
71137W        W39511   9.169   4.894  13.860
71138W        W39512  29.605  44.337  10.934
71139W        W39513  42.986  40.824   3.694
71140W        W39514  13.219  35.876   4.769
71141W        W39515   2.390  23.224  11.554
71142W        W39516  31.532  14.818  14.942
71143W        W39517  18.219  22.058   2.701
71144W        W39518  37.560  38.358  11.432
71145W        W39519  19.052  15.226  10.981
71146W        W39520  21.110  34.071  13.052
71147W        W39521  16.225  13.710  11.096
71148W        W39522  19.083  11.778  12.947
71149W        W39523  22.641  20.061   1.865
71150W        W39524  14.711  40.358  10.135
71151W        W39525  28.478  41.420  10.628
71152W        W39526   1.833  27.174  13.825
71153W        W39527   4.792  40.407   1.696
71154W        W39528  33.948  32.958  12.030
71155W        W39529  41.930  28.489   4.147
71156W        W39530   0.390  39.812   0.907
71157W        W39531  15.263  10.642   4.663
71158W        W39532  26.997  38.536  12.092
71159W        W39533  44.832  30.080   0.482
71160W        W39534  11.643  19.653  13.542
71161W        W39535  18.615   9.205  10.585
71162W        W39536   1.369  28.546   0.809
71163W        W39537  30.490  41.396  13.363
71164W        W39538  16.771  39.320  10.915
71165W        W39539  15.631   2.841  11.972
71166W        W39540  41.044  32.025   5.208
71167W        W39541  28.455  14.108   0.270
71168W        W39542  37.406  20.683  13.515
71169W        W39543  29.932  18.163   1.725
71170W        W39544  17.726  41.306  14.845
71171W        W39545  14.757  15.172   2.753
71172W        W39546  29.924   2.818  13.838
71173W        W39547  42.914  15.276   2.812
71174W        W39548   6.716  40.979  12.340
71175W        W39549  14.250  43.845   2.181
71176W        W39550  11.757  35.405   1.870
71177W        W39551  40.490  33.532   2.672
71178W        W39552  37.033  40.474  14.285
71179W        W39553  20.246  31.427  14.456
71180W        W39554  24.523  26.996   3.171
71181W        W39555   0.751  14.184  13.815
71182W        W39556  22.052  33.549   0.875
71183W        W39557  30.932   5.328  14.889
71184W        W39558   9.278   0.855  13.844
71185W        W39559  37.898  16.315   3.634
71186W        W39560  15.250  10.689  13.409
71187W        W39561  25.197   4.335  12.487
71188W        W39562  18.095  21.745  11.052
71189W        W39563   4.296  14.795   3.814
71190W        W39564  13.204  13.800  13.017
71191W        W39565  18.289   8.739   4.822
71192W        W39566  16.081  24.989  11.423
71193W        W39567  23.671  43.485  12.548
71194W        W39568   4.249  39.896   4.689
71195W        W39569  16.699  25.026   1.333
71196W        W39570  32.041  17.119   2.845
71197W        W39571  16.304  24.526   2.240
71198W        W39572   4.370  25.566   4.828
71199W        W39573  11.347  32.117  11.961
71200W        W39574  18.158  31.141  14.962
71201W        W39575  22.117   7.342   2.317
71202W        W39576   4.237   0.787   3.261
71203W        W39577   7.260   2.951  12.467
71204W        W39578  15.267   2.767   0.315
71205W        W39579  18.214   8.690  10.920
71206W        W39580  15.100   4.399  14.881
71207W        W39581  40.893   0.375  12.534
71208W        W39582   7.861  15.641  12.835
71209W        W39583   0.276  37.497  14.330
71210W        W39584  38.892  40.914   1.259
71211W        W39585  40.499  11.173   4.142
71212W        W39586  20.077  29.134   0.414
71213W        W39587  25.493   0.276  13.830
71214W        W39588  16.107  24.723   2.723
71215W        W39589  30.429  39.511   0.348
71216W        W39590  15.581  15.817  11.500
71217W        W39591  28.506  43.998  12.538
71218W        W39592  32.549  40.930  10.416
71219W        W39593  42.924   9.737  13.991
71220W        W39594   5.797  28.656   4.149
71221W        W39595  44.962   0.816   4.146
71222W        W39596  16.269  34.996  13.449
71223W        W39597   8.181  44.387  12.563
71224W        W39598  39.966  21.100   0.792
71225W        W39599  18.274  42.844   3.662
71226W        W39600   9.883  24.559   1.770
71227W        W39601  33.954  21.644  10.637
71228W        W39602  40.485  22.037   3.386
71229W        W39603  32.899  33.560  13.412
71230W        W39604  35.582  30.138   0.805
71231W        W39605  19.637  34.410  14.015
71232W        W39606  18.168  43.515  14.785
71233W        W39607  18.196  36.008   0.316
71234W        W39608   5.261  40.934  13.444
71235W        W39609  10.845   2.309  10.924
71236W        W39610  25.165   8.751  13.533
71237W        W39611  41.839   2.425   0.846
71238W        W39612  28.098  22.183  13.942
71239W        W39613  22.088   6.694   0.781
71240W        W39614  43.813  33.007  14.474
71241W        W39615   6.412  11.844  14.814
71242W        W39616  23.125  15.791  14.781
71243W        W39617  22.723  21.126   1.925
71244W        W39618  28.066  28.130  14.774
71245W        W39619  17.653   4.743   1.400
71246W        W39620  18.686  42.283   2.298
71247W        W39621  21.658  42.378   4.704
71248W        W39622   1.388  24.078  13.870
71249W        W39623  15.241   2.354   1.389
71250W        W39624  31.479  29.477   3.369
71251W        W39625   2.839   6.918   4.640
71252W        W39626  27.656  38.354  13.391
71253W        W39627  19.570   8.856  11.514
71254W        W39628  21.710  16.737  13.382
71255W        W39629  44.871  22.039   0.379
71256W        W39630  24.987  15.755  10.915
71257W        W39631  21.749  33.557   2.841
71258W        W39632   1.377  28.654   2.407
71259W        W39633  44.794   2.385  13.396
71260W        W39634  10.861   6.427   1.855
71261W        W39635  24.684  26.489  14.990
71262W        W39636  23.037  12.328  11.590
71263W        W39637  40.988  37.931  11.542
71264W        W39638  21.557   1.409   4.293
71265W        W39639  28.989  44.406  11.411
71266W        W39640  42.332  13.118  11.925
71267W        W39641   4.865  14.589   1.854
71268W        W39642  15.602  18.779  10.911
71269W        W39643  30.422  36.443  12.921
71270W        W39644  13.132  42.302   0.874
71271W        W39645  18.598  13.253  14.833
71272W        W39646  11.133   4.411  13.383
71273W        W39647  40.527   5.837   1.876
71274W        W39648  15.740   9.172   4.135
71275W        W39649  14.108  11.739  12.477
71276W        W39650  31.646  16.668  12.882
71277W        W39651  37.840  37.528  12.366
71278W        W39652  44.379  11.662   0.820
71279W        W39653  44.336  29.932  10.423
71280W        W39654  33.973  14.331  14.894
71281W        W39655  30.024  26.952   4.819
71282W        W39656  38.023  43.394   2.189
71283W        W39657  33.889  24.223   1.798
71284W        W39658  12.329   2.948   0.764
71285W        W39659  36.925  12.333  13.913
71286W        W39660   9.177  35.947   9.930
71287W        W39661  44.003  39.528   0.457
71288W        W39662  43.414   9.661   4.154
71289W        W39663  28.109   5.428   4.194
71290W        W39664  19.201  15.142   4.651
71291W        W39665  39.500  33.380   0.825
71292W        W39666  23.106  34.606   0.291
71293W        W39667  25.603   4.860   1.782
71294W        W39668  36.486  23.985  11.990
71295W        W39669  25.489  13.787   4.180
71296W        W39670  22.664  44.927  11.486
71297W        W39671  12.297  11.777  12.013
71298W        W39672  10.745  29.146  11.522
71299W        W39673   6.410  39.015  13.400
71300W        W39674  13.727  26.508  11.435
71301W        W39675   7.800  34.086  14.499
71302W        W39676  42.350  36.964   2.770
71303W        W39677  44.340   8.896   9.975
71304W        W39678  11.295  43.794  11.019
71305W        W39679  22.662  39.979   4.669
71306W        W39680  44.365  28.183   4.691
71307W        W39681  19.752  42.421  14.776
71308W        W39682  42.397  41.889   0.915
71309W        W39683  26.462  41.427   2.240
71310W        W39684  25.021  37.908   1.787
71311W        W39685  22.123   7.901   4.281
71312W        W39686   9.216  11.644   0.765
71313W        W39687  23.039  40.981   4.242
71314W        W39688   5.415  43.895  12.463
71315W        W39689  34.523  19.549   3.819
71316W        W39690  11.627  39.934  14.486
71317W        W39691  12.752  32.433   3.289
71318W        W39692  25.163  39.496  14.384
71319W        W39693  41.977   6.855  13.053
71320W        W39694  12.831  34.414  12.459
71321W        W39695   9.331  29.073   5.136
71322W        W39696  19.173  44.390  14.770
71323W        W39697  11.840  28.663  12.990
71324W        W39698  32.008  12.849  12.406
71325W        W39699  37.915   9.237   3.267
71326W        W39700  20.063   3.375  14.307
71327W        W39701  24.167  19.561   2.834
71328W        W39702   1.442  27.198   4.691
71329W        W39703  35.364  16.111   0.396
71330W        W39704  36.963  15.257  14.910
71331W        W39705  27.028  41.900   2.353
71332W        W39706  13.207  23.628  13.378
71333W        W39707  35.870  21.578  11.536
71334W        W39708  19.577  10.783   0.299
71335W        W39709  18.151  11.831  12.556
71336W        W39710  31.050  26.120   3.813
71337W        W39711   4.813  10.659   1.915
71338W        W39712   9.883   5.404   4.320
71339W        W39713  29.519  44.458   2.763
71340W        W39714  22.724  14.335   4.834
71341W        W39715  12.327  29.626   3.344
71342W        W39716  34.405  36.504  13.385
71343W        W39717  23.727  36.046  11.583
71344W        W39718  32.519  22.695  12.950
71345W        W39719   8.775  27.620   0.951
71346W        W39720  13.799  19.109  10.455
71347W        W39721  33.445   1.254   3.336
71348W        W39722  23.145  15.130  13.031
71349W        W39723  42.829  31.436  11.930
71350W        W39724  28.647  34.875  14.495
71351W        W39725   7.191  37.532   4.209
71352W        W39726  25.136  44.995  13.044
71353W        W39727  14.144  34.498  14.031
71354W        W39728   1.844  17.181  11.607
71355W        W39729  32.049  36.556   2.684
71356W        W39730  26.549  21.097  13.891
71357W        W39731  41.440   9.795   1.277
71358W        W39732  15.822  12.828   1.252
71359W        W39733  40.934  39.036   4.239
71360W        W39734  15.788  19.722   2.364
71361W        W39735  14.177  20.759  13.060
71362W        W39736  35.431  37.338  13.338
71363W        W39737  15.734  13.133  10.947
71364W        W39738  41.000  43.878  11.502
71365W        W39739  38.920  39.924   0.836
71366W        W39740  29.454  34.058   1.842
71367W        W39741   2.260  23.144   0.742
71368W        W39742  16.096   1.802   3.796
71369W        W39743   1.887   6.322  13.307
71370W        W39744   9.828   3.951  11.072
71371W        W39745  20.709  15.238  11.021
71372W        W39746  19.659  18.141  12.547
71373W        W39747  39.529   4.708   9.956
71374W        W39748  43.820  29.926  11.959
71375W        W39749  13.719   0.975  13.023
71376W        W39750  12.231  32.511   4.241
71377W        W39751  41.950  28.973   0.791
71378W        W39752  12.304   7.879  14.979
71379W        W39753   4.873   2.294   1.363
71380W        W39754  26.008   1.946  10.620
71381W        W39755  26.462  20.705  10.949
71382W        W39756   9.678  36.476   1.727
71383W        W39757  10.262   2.308  11.905
71384W        W39758  16.718  33.927   4.789
71385W        W39759  24.686  29.143  10.589
71386W        W39760  17.562  13.271   0.348
71387W        W39761  43.811  26.108  12.837
71388W        W39762  17.643  27.156   0.438
71389W        W39763  44.397  10.696  14.374
71390W        W39764  29.167  42.844   3.347
71391W        W39765   6.358  28.481   2.671
71392W        W39766   4.928  36.950   2.372
71393W        W39767   2.925  31.461   1.890
71394W        W39768  28.594  36.049   3.789
71395W        W39769   0.466  31.126  10.904
71396W        W39770  40.365  42.024  10.410
71397W        W39771  25.655  22.026   3.361
71398W        W39772   2.459  28.436  10.595
71399W        W39773  18.693  17.116  10.154
71400W        W39774   0.865  19.112   4.337
71401W        W39775  16.149  27.671   3.801
71402W        W39776  19.236  23.123  10.557
71403W        W39777  42.991  26.676  14.016
71404W        W39778  29.633  34.605  14.835
71405W        W39779  32.508  34.014   2.381
71406W        W39780  11.212  12.295   1.883
71407W        W39781   4.429  37.555   1.450
71408W        W39782  12.803  42.855  10.949
71409W        W39783  21.677  30.950   0.316
71410W        W39784   5.861   3.400  10.611
71411W        W39785   9.172  30.985   0.420
71412W        W39786  27.605  21.681   4.316
71413W        W39787  42.292  19.191  10.986
71414W        W39788  19.600  34.899   2.374
71415W        W39789  11.331  21.071  12.414
71416W        W39790  38.558  23.610   3.307
71417W        W39791  20.748   2.380   4.258
71418W        W39792  31.976  13.262   1.891
71419W        W39793  33.464  13.713   0.833
71420W        W39794  18.766  28.599  13.342
71421W        W39795  13.256  24.625  11.588
71422W        W39796  12.308  16.109  14.319
71423W        W39797  21.660  35.438  10.906
71424W        W39798  12.706  41.456  13.000
71425W        W39799  19.689   5.734  12.010
71426W        W39800  42.520   2.747   2.774
71427W        W39801  31.506  35.038   3.751
71428W        W39802  41.358  24.165  12.394
71429W        W39803   7.371   0.848   3.301
71430W        W39804  36.481  32.913   0.877
71431W        W39805   9.201  15.651   0.268
71432W        W39806  34.434  13.688  14.760
71433W        W39807   0.373  35.507   1.299
71434W        W39808  36.037  31.010   2.275
71435W        W39809  11.306  41.011  11.086
71436W        W39810  11.283  33.385  14.306
71437W        W39811  37.967  36.856   3.258
71438W        W39812  18.670  29.503  14.462
71439W        W39813   3.270  30.035  14.824
71440W        W39814  34.959  15.244  14.482
71441W        W39815   7.259  40.875   2.899
71442W        W39816   2.896   0.865  10.952
71443W        W39817  34.033   6.220  11.086
71444W        W39818  24.580  14.159   9.935
71445W        W39819  13.262  19.207   4.322
71446W        W39820  39.525  39.318   4.193
71447W        W39821  29.033  44.812   0.849
71448W        W39822  42.437  38.412  14.848
71449W        W39823  28.999  28.581   1.847
71450W        W39824  14.315  27.583   0.362
71451W        W39825   7.241  42.007  13.332
71452W        W39826  39.880  16.171  10.527
71453W        W39827  10.745  20.132   5.134
71454W        W39828  38.036  35.603   2.401
71455W        W39829  39.546  34.471   3.747
71456W        W39830  19.283   0.490  11.457
71457W        W39831  30.991   1.283  14.449
71458W        W39832  42.389  20.563   2.261
71459W        W39833   3.248   6.705   2.763
71460W        W39834  44.853  42.813  14.338
71461W        W39835  43.840   0.250  12.576
71462W        W39836  14.738   0.978  11.471
71463W        W39837  34.089  24.561   0.759
71464W        W39838  10.277  22.095  11.497
71465W        W39839   3.372   4.816   3.737
71466W        W39840  18.615  40.941  14.837
71467W        W39841  26.564   8.292  10.504
71468W        W39842  43.995  35.447   3.320
71469W        W39843   9.390  16.648   3.242
71470W        W39844  30.050   4.335  11.924
71471W        W39845  37.923   7.687  13.420
71472W        W39846  38.916  29.997   2.332
71473W        W39847  39.937  28.526   0.931
71474W        W39848  21.746  27.459  13.341
71475W        W39849  23.069  36.866  12.456
71476W        W39850  11.802  16.651   3.173
71477W        W39851  15.722  35.067   1.796
71478W        W39852  26.558  40.549  11.545
71479W        W39853  41.475  26.134   2.783
71480W        W39854  27.177  17.184   0.260
71481W        W39855  11.139  16.686  12.439
71482W        W39856  37.337  44.952  11.878
71483W        W39857  11.790  18.756   4.273
71484W        W39858  13.703  44.314  12.512
71485W        W39859  14.158  22.156  10.525
71486W        W39860  18.295  33.080   4.318
71487W        W39861  11.339  36.041   0.358
71488W        W39862  15.144  41.952   2.841
71489W        W39863  39.497  13.717  13.853
71490W        W39864  19.537   6.190  11.487
71491W        W39865  37.987  35.508  12.552
71492W        W39866  35.360  19.553   2.301
71493W        W39867  13.289  17.709  14.906
71494W        W39868  30.589  24.114  13.442
71495W        W39869  36.381  17.568  10.511
71496W        W39870   5.709   4.294  10.494
71497W        W39871  16.650  37.341   3.236
71498W        W39872   7.258  41.517  12.399
71499W        W39873  32.605   9.319  11.973
71500W        W39874  25.634  14.650   2.811
71501W        W39875  38.057  33.964   2.385
71502W        W39876  23.538   5.380   4.645
71503W        W39877   1.843  12.794   0.746
71504W        W39878  41.452   8.887   2.788
71505W        W39879  40.911  27.470   3.713
71506W        W39880   7.414  36.844   1.332
71507W        W39881  39.852   8.295   2.815
71508W        W39882  10.756  32.976   0.748
71509W        W39883   2.423  37.070   3.860
71510W        W39884  39.465   6.905   3.358
71511W        W39885  10.385  30.119   3.330
71512W        W39886  38.914  14.735   0.459
71513W        W39887  27.615  34.870  14.343
71514W        W39888  19.534   9.651  14.019
71515W        W39889  42.507  30.043  10.499
71516W        W39890  25.508  21.067  14.313
71517W        W39891  15.250   4.920  13.374
71518W        W39892  15.269  24.576   3.314
71519W        W39893  23.726  15.261  12.541
71520W        W39894   5.764  27.468  11.073
71521W        W39895  44.278   1.902   4.119
71522W        W39896  33.878  43.906   3.293
71523W        W39897   4.433   2.963  11.554
71524W        W39898   6.848   2.908   3.789
71525W        W39899  41.873  12.800   2.666
71526W        W39900  26.019  21.140   4.769
71527W        W39901   6.246  16.317   1.759
71528W        W39902  20.207  18.226   5.225
71529W        W39903  38.373  26.053   0.251
71530W        W39904  37.360  32.009   5.134
71531W        W39905  40.887  20.085  10.603
71532W        W39906  44.884  32.137  10.069
71533W        W39907   7.673  11.229   1.796
71534W        W39908   9.725   9.888  11.378
71535W        W39909  36.560  12.362   4.634
71536W        W39910  14.178  28.077   4.707
71537W        W39911  10.788  34.110  12.505
71538W        W39912   2.344   2.255   2.870
71539W        W39913  37.420  23.623  12.856
71540W        W39914  31.481   3.342  13.972
71541W        W39915   4.276  11.260   2.782
71542W        W39916  42.299  25.472  10.516
71543W        W39917   0.786  20.209   2.760
71544W        W39918  35.922  16.671   0.920
71545W        W39919   5.784   8.363   2.405
71546W        W39920  16.100  20.678  14.376
71547W        W39921   1.344   3.874  13.852
71548W        W39922   3.730   2.875   1.394
71549W        W39923   3.851  12.777  12.863
71550W        W39924   7.210  41.354  11.072
71551W        W39925   1.263   4.746  14.900
71552W        W39926  15.778  10.205   3.329
71553W        W39927  35.422  24.110  11.975
71554W        W39928   0.413  17.197  14.280
71555W        W39929   5.316  20.546  14.485
71556W        W39930  31.146  36.908  10.902
71557W        W39931  37.521  44.279  11.409
71558W        W39932  24.088  39.396  10.474
71559W        W39933  41.443  32.425  12.008
71560W        W39934  25.539   6.863   2.369
71561W        W39935  30.468  32.632   2.248
71562W        W39936  15.122   3.423  12.362
71563W        W39937  30.144  26.588  13.935
71564W        W39938  25.000  12.839  13.972
71565W        W39939  37.495   8.223   2.790
71566W        W39940  17.133   1.301  12.051
71567W        W39941  31.138   8.248  13.417
71568W        W39942  36.552  11.699   4.822
71569W        W39943   2.941  35.980  12.839
71570W        W39944  31.410  10.245  12.420
71571W        W39945  23.514  20.582   2.900
71572W        W39946  38.009  34.056  12.407
71573W        W39947  16.293  24.569   3.243
71574W        W39948  24.480  18.292   2.275
71575W        W39949  34.600  30.604  11.125
71576W        W39950  41.440   5.414  12.429
71577W        W39951  23.050   6.293   0.295
71578W        W39952  43.882  30.521  14.352
71579W        W39953  27.573   2.323   1.376
71580W        W39954  16.230  24.054  12.009
71581W        W39955  17.598  14.328  14.937
71582W        W39956  14.725  11.318   3.774
71583W        W39957  28.119  43.993   3.235
71584W        W39958  30.998  15.237  14.360
71585W        W39959   3.833  15.144   3.300
71586W        W39960  40.529  35.499  13.830
71587W        W39961   1.384   3.745   0.812
71588W        W39962  33.077  31.106  14.934
71589W        W39963   8.399   1.447  14.408
71590W        W39964  43.399  21.029  12.892
71591W        W39965  38.823  43.473  10.511
71592W        W39966  40.051  19.185  14.442
71593W        W39967  39.437  19.047   1.447
71594W        W39968   6.797  40.327  13.002
71595W        W39969  41.512  17.139  11.445
71596W        W39970  23.036  40.428   4.597
71597W        W39971  19.259  24.573  12.925
71598W        W39972  32.951   6.268  13.515
71599W        W39973   4.205  24.108  14.934
71600W        W39974  25.113   8.679   0.864
71601W        W39975   9.316  13.161  13.465
71602W        W39976  38.920   7.384   2.780
71603W        W39977  26.681  31.931   1.373
71604W        W39978   0.456  29.044  11.514
71605W        W39979  40.952   6.862   1.212
71606W        W39980  32.066  33.417   4.707
71607W        W39981  33.384  12.655  12.390
71608W        W39982  20.657  44.862   1.868
71609W        W39983  10.233  39.322  12.443
71610W        W39984  30.124   6.314  14.332
71611W        W39985  37.472  22.092   0.890
71612W        W39986   1.742   0.828   2.883
71613W        W39987   4.878   0.283  13.954
71614W        W39988  13.644  31.553  13.490
71615W        W39989  34.578  32.496   4.303
71616W        W39990   5.716  12.846  13.971
71617W        W39991   6.182   9.696   1.449
71618W        W39992   6.735   8.272   3.849
71619W        W39993  36.390  10.363  14.795
71620W        W39994  10.158  41.841  11.544
71621W        W39995  40.414  11.778  12.026
71622W        W39996  32.066  31.555  11.903
71623W        W39997  35.435  41.797  12.398
71624W        W39998  38.500  12.164   2.249
71625W        W39999  40.992  38.484  13.454
71626W        W40000   7.276  13.830  11.888
71627W        W40001  44.464  41.469   1.746
71628W        W40002  40.530  33.976   3.167
71629W        W40003  31.951  33.903  13.022
71630W        W40004  43.393   2.726   4.598
71631W        W40005   6.354  32.033   1.822
71632W        W40006  21.547   4.337   2.668
71633W        W40007  20.545  35.854   1.263
71634W        W40008  26.978   1.844   3.336
71635W        W40009  34.464   9.836   0.304
71636W        W40010  43.992  24.710  11.090
71637W        W40011  12.807  21.686   2.774
71638W        W40012   3.832  19.277  14.985
71639W        W40013  41.006  21.125  14.480
71640W        W40014   1.858   8.183  14.800
71641W        W40015  28.004  36.534  11.549
71642W        W40016  16.750  30.076  13.453
71643W        W40017  23.512  31.593  14.931
71644W        W40018  44.480  23.064  10.486
71645W        W40019  30.494  27.579  14.395
71646W        W40020  42.432  30.913  14.464
71647W        W40021  34.885  12.263  14.357
71648W        W40022  42.005  31.618   1.436
71649W        W40023  32.593  32.555  14.454
71650W        W40024  41.804  31.000   4.227
71651W        W40025  31.092   5.426   0.359
71652W        W40026   5.712   2.732  14.366
71653W        W40027  40.406   5.277   1.439
71654W        W40028  41.973   2.403  12.878
71655W        W40029  22.734   0.826  14.328
71656W        W40030  25.624  18.580   1.314
71657W        W40031  31.018   1.261  14.982
71658W        W40032   0.370  10.275  11.516
71659W        W40033  17.619  35.515   2.416
71660W        W40034  24.662  34.380   1.351
71661W        W40035   4.705  38.908   2.709
71662W        W40036  19.112  43.397   1.389
71663W        W40037   0.888  37.406   1.802
71664W        W40038  21.731  30.916  12.466
71665W        W40039  21.218  36.357   1.257
71666W        W40040   3.219  13.122   4.706
71667W        W40041  44.443  28.978  12.536
71668W        W40042  42.957   2.900  14.441
71669W        W40043   6.247  37.912   4.690
71670W        W40044  31.060   0.985   3.273
71671W        W40045  25.677  44.787   3.704
71672W        W40046  20.076   5.269   0.963
71673W        W40047  14.196  27.662  12.006
71674W        W40048  40.370  27.102   3.365
71675W        W40049   6.318   2.777  13.525
71676W        W40050  16.725  33.050  12.547
71677W        W40051  42.474  37.501  13.014
71678W        W40052  31.546  35.931   1.855
71679W        W40053   6.703   9.670   4.191
71680W        W40054  13.771  34.115   4.269
71681W        W40055  37.957  12.614   0.962
71682W        W40056   4.844  16.627  10.086
71683W        W40057  39.038  43.339   0.931
71684W        W40058  39.883  41.365   1.239
71685W        W40059  43.474  16.169   3.805
71686W        W40060   8.326  38.400   0.758
71687W        W40061  27.569  22.149  10.517
71688W        W40062  16.693   4.310  14.834
71689W        W40063  23.734  21.202   1.218
71690W        W40064  33.882  10.148  10.572
71691W        W40065   5.304  26.102  12.847
71692W        W40066  12.278  11.865  10.952
71693W        W40067   6.691   7.902   3.376
71694W        W40068  41.807  27.660  11.079
71695W        W40069  15.678   6.291  11.443
71696W        W40070  13.824   0.471  13.928
71697W        W40071  26.016   8.252  11.436
71698W        W40072  42.870  28.615  13.441
71699W        W40073  15.814  11.830  13.319
71700W        W40074  20.162   6.317   4.664
71701W        W40075  20.670  22.173  12.015
71702W        W40076  32.101  19.654   0.938
71703W        W40077   5.839  27.552   3.147
71704W        W40078  11.838  21.641   4.733
71705W        W40079  30.006  37.459  10.562
71706W        W40080   5.769  35.959  12.095
71707W        W40081  39.352   9.861  11.031
71708W        W40082  21.027   3.320   3.360
71709W        W40083  14.213  24.188  14.361
71710W        W40084  15.776   6.360   0.283
71711W        W40085  23.678  29.512   3.349
71712W        W40086  13.219  26.601  11.384
71713W        W40087  43.339  20.138   0.450
71714W        W40088  41.947  38.903  12.046
71715W        W40089  36.510  29.983  12.354
71716W        W40090  10.676   9.769  14.375
71717W        W40091  13.177  35.096   0.416
71718W        W40092  28.519  32.933  10.928
71719W        W40093  18.550  19.045  14.028
71720W        W40094  37.972  34.556   2.347
71721W        W40095   5.836  18.768   0.845
71722W        W40096   0.883  15.668   2.361
71723W        W40097   1.818  21.590   0.379
71724W        W40098  13.257  12.670  11.430
71725W        W40099  27.546  16.779   0.927
71726W        W40100  41.519  29.065  12.468
71727W        W40101  19.241  41.361   0.950
71728W        W40102   9.762  31.008   5.106
71729W        W40103  44.346  37.880   3.233
71730W        W40104  24.194  37.043   3.717
71731W        W40105   7.688  18.186   5.674
71732W        W40106   6.266  23.100   2.253
71733W        W40107  10.758  28.024  12.030
71734W        W40108  12.676  33.010   3.728
71735W        W40109   0.893   1.978   3.344
71736W        W40110  30.653   1.976   0.328
71737W        W40111  37.044   1.331  12.433
71738W        W40112  12.195  34.475   3.179
71739W        W40113  14.167  40.518   3.248
71740W        W40114  35.895  20.186   1.764
71741W        W40115  15.802  33.578   2.764
71742W        W40116  13.798  12.650  14.292
71743W        W40117  43.390  13.803  13.521
71744W        W40118  17.284  41.299   0.401
71745W        W40119   5.791  40.487   3.792
71746W        W40120  18.604  33.996  11.499
71747W        W40121  27.050  44.463  11.404
71748W        W40122  32.924  39.472  13.442
71749W        W40123  33.949  27.581   2.679
71750W        W40124  35.362   0.881   3.671
71751W        W40125   4.267  36.379  11.960
71752W        W40126   5.351  11.805   2.331
71753W        W40127  14.713  43.497  12.862
71754W        W40128  28.656   6.894   1.325
71755W        W40129   1.427  23.117   0.792
71756W        W40130  21.114  35.568  14.873
71757W        W40131  21.263  30.573  12.407
71758W        W40132  35.856  28.447  12.942
71759W        W40133  12.856  13.811  11.037
71760W        W40134  37.884  39.971  14.495
71761W        W40135   3.814   9.796  14.341
71762W        W40136   4.451  21.712   2.737
71763W        W40137  26.493  10.310  13.478
71764W        W40138  44.398  23.153   2.401
71765W        W40139  20.668   5.432  13.984
71766W        W40140   5.830  35.045  14.419
71767W        W40141   6.214   5.426   4.737
71768W        W40142  22.079  38.057  12.453
71769W        W40143   0.295  23.135  13.397
71770W        W40144  27.118   9.688   3.208
71771W        W40145  31.114  39.871  13.973
71772W        W40146  32.933  10.170  10.588
71773W        W40147  40.453  32.124   0.460
71774W        W40148  44.424  39.056  14.032
71775W        W40149   3.285   7.907  13.969
71776W        W40150  32.526  29.927   2.197
71777W        W40151  35.514  16.244  10.459
71778W        W40152   6.741  18.710   1.907
71779W        W40153  17.692   2.823   0.836
71780W        W40154   7.874  11.181   4.340
71781W        W40155  36.939  23.100   0.256
71782W        W40156  34.384   2.858   0.447
71783W        W40157  10.180   5.895   2.723
71784W        W40158  30.645  30.115  13.863
71785W        W40159  30.647  17.095   0.921
71786W        W40160  33.942  41.899  14.795
71787W        W40161  14.816   6.730   4.674
71788W        W40162  44.480   7.390  13.040
71789W        W40163   5.258  20.626   2.253
71790W        W40164  43.783  28.456  10.485
71791W        W40165  31.960  39.432  12.573
71792W        W40166  41.381  28.545   1.718
71793W        W40167  16.775   2.924  14.934
71794W        W40168  12.253  31.642   4.250
71795W        W40169  23.664  39.926  10.982
71796W        W40170   3.387   3.344  12.564
71797W        W40171  25.499  22.206   2.836
71798W        W40172  15.656   5.309   2.418
71799W        W40173  41.787  44.265   0.789
71800W        W40174  29.934  26.068   1.772
71801W        W40175  18.635  40.411   0.917
71802W        W40176   9.177  21.094   3.157
71803W        W40177   8.349  17.589   1.865
71804W        W40178  31.585  23.158   0.390
71805W        W40179  28.452   2.322  11.106
71806W        W40180   9.188  39.917  12.536
71807W        W40181  20.109  20.121   3.798
71808W        W40182  38.407  27.615   2.758
71809W        W40183   2.302  22.616   1.214
71810W        W40184  10.188  18.693  10.923
71811W        W40185   7.833  44.976  10.504
71812W        W40186   0.878  14.665  14.484
71813W        W40187  20.684  16.751  11.032
71814W        W40188  20.711   4.254   4.782
71815W        W40189   1.737  25.040  11.560
71816W        W40190  39.407  25.032  12.462
71817W        W40191  10.656  10.810  10.969
71818W        W40192  20.069  37.969   2.213
71819W        W40193  31.022  34.504   3.340
71820W        W40194   2.908  11.733   2.728
71821W        W40195  43.437   0.438  14.977
71822W        W40196  40.464   4.330   0.819
71823W        W40197  38.459  17.659  10.994
71824W        W40198  11.638  44.426   1.421
71825W        W40199  23.667  18.648  13.047
71826W        W40200  11.151  14.277  14.782
71827W        W40201  38.966  30.043  14.012
71828W        W40202  31.918  23.048  12.456
71829W        W40203  22.650  22.146   0.735
71830W        W40204  21.532  19.250  14.002
71831W        W40205  41.030  34.975  14.355
71832W        W40206  21.535  14.724  10.908
71833W        W40207   5.414   9.845   3.356
71834W        W40208   2.358  22.683  12.017
71835W        W40209  25.481  18.236   0.272
71836W        W40210  18.118  19.632  11.498
71837W        W40211  30.005  13.156  12.456
71838W        W40212   7.391  26.952   5.322
71839W        W40213  24.640  17.563   9.523
71840W        W40214  34.111  30.117  14.451
71841W        W40215  28.608  41.793  12.002
71842W        W40216  35.503  19.692   1.262
71843W        W40217   6.362  31.063  13.915
71844W        W40218  27.504   2.441   3.187
71845W        W40219  39.991  38.893   3.384
71846W        W40220  25.539  15.127   2.762
71847W        W40221  34.582   7.205   2.389
71848W        W40222  31.599  23.211  13.019
71849W        W40223   0.957  40.043   9.948
71850W        W40224   6.921   9.679  13.805
71851W        W40225   8.753  12.653   3.779
71852W        W40226   0.821  23.630  12.869
71853W        W40227  24.530  15.697   0.731
71854W        W40228  38.874  25.601  11.378
71855W        W40229  18.086  41.978  12.411
71856W        W40230  34.410   2.289  10.609
71857W        W40231  44.761  42.871   5.238
71858W        W40232  34.582  43.786   2.735
71859W        W40233  42.290  11.311  11.524
71860W        W40234  12.165  26.499   2.826
71861W        W40235   1.379  42.346  11.073
71862W        W40236   0.966  31.524  11.447
71863W        W40237   1.858  15.800   4.273
71864W        W40238  28.936  36.976  14.000
71865W        W40239  14.698  14.116   2.283
71866W        W40240  30.651  33.952  13.854
71867W        W40241  16.232  37.485  14.363
71868W        W40242  33.994   7.836   0.472
71869W        W40243  30.542  13.605   1.375
71870W        W40244  25.526   4.870   1.272
71871W        W40245  12.622  24.132  14.512
71872W        W40246  36.063   6.762   4.821
71873W        W40247   4.319  30.468   4.171
71874W        W40248  10.715  29.079   0.940
71875W        W40249  17.090  35.577  11.895
71876W        W40250   3.853  25.168  13.386
71877W        W40251  40.490   3.232  14.433
71878W        W40252   4.935   4.842  11.578
71879W        W40253   0.355   7.776   3.164
71880W        W40254  35.899   3.418  12.004
71881W        W40255   4.221   6.711   2.353
71882W        W40256   7.315  26.075  14.457
71883W        W40257  28.167  27.540   2.301
71884W        W40258  18.687  30.959   0.827
71885W        W40259   4.931  11.304   0.452
71886W        W40260  36.044  36.582   2.359
71887W        W40261  37.996  11.736   2.241
71888W        W40262  31.151  13.672   1.245
71889W        W40263  33.953  15.300  11.091
71890W        W40264   4.380   8.793  14.288
71891W        W40265  10.337  30.948   2.220
71892W        W40266  41.948  33.047   3.715
71893W        W40267  19.720  38.906   1.390
71894W        W40268  34.964  21.589  13.369
71895W        W40269  29.576   0.802  12.851
71896W        W40270  19.206  24.025  14.859
71897W        W40271  12.611  12.742   1.738
71898W        W40272   6.213   6.405   5.084
71899W        W40273  29.090  16.197  13.451
71900W        W40274  29.458  18.738   2.885
71901W        W40275  37.879  38.069  14.438
71902W        W40276  36.576  21.715  13.525
71903W        W40277   3.742  36.931   4.256
71904W        W40278  35.885   0.433  10.463
71905W        W40279  35.896  22.627  13.843
71906W        W40280  33.949  34.555   1.698
71907W        W40281  15.223  32.514  11.072
71908W        W40282   1.759  44.499  14.467
71909W        W40283  14.659  33.606   2.862
71910W        W40284  39.903   1.403  10.506
71911W        W40285  19.095  16.092  10.957
71912W        W40286  38.892  15.149   1.751
71913W        W40287  23.629  44.781   0.812
71914W        W40288  20.093  42.993   1.395
71915W        W40289  22.144  22.162   0.416
71916W        W40290  25.558   0.965   4.651
71917W        W40291  11.232  42.903  11.096
71918W        W40292  44.011  13.740   1.777
71919W        W40293  13.194  29.466  12.569
71920W        W40294  21.707  28.579   1.407
71921W        W40295  32.026  37.878  11.504
71922W        W40296  35.427   2.229   4.332
71923W        W40297   7.739  25.192   2.396
71924W        W40298  13.722   7.872  12.032
71925W        W40299  11.635  16.668   3.745
71926W        W40300  41.789  18.667  10.603
71927W        W40301   8.317  23.620  10.049
71928W        W40302  10.870  29.577  11.514
71929W        W40303  39.863   5.419  13.385
71930W        W40304   6.814  37.999  14.924
71931W        W40305  38.401  29.589   4.686
71932W        W40306   8.826   6.857  11.507
71933W        W40307  18.751  16.302  12.421
71934W        W40308  26.658   8.289  14.470
71935W        W40309  10.697   2.728  13.447
71936W        W40310  23.502  25.663  11.085
71937W        W40311  43.421  43.874   3.364
71938W        W40312  40.394  28.171  11.493
71939W        W40313   5.197  22.641  14.841
71940W        W40314  27.685   9.870  12.368
71941W        W40315  39.859  38.547  10.522
71942W        W40316   7.764  36.958   0.952
71943W        W40317  28.973  30.952  12.857
71944W        W40318  37.830  43.821  10.436
71945W        W40319   7.685  32.569  13.428
71946W        W40320   3.395  22.602   2.345
71947W        W40321  29.635  26.061   3.375
71948W        W40322  31.053  36.060   0.358
71949W        W40323  17.664  17.115  14.842
71950W        W40324  32.513  24.127  12.043
71951W        W40325  43.481  16.165  13.914
71952W        W40326  22.677  37.971  12.044
71953W        W40327  21.715  19.554  14.032
71954W        W40328   5.239  31.987   4.793
71955W        W40329  18.080   0.936  14.974
71956W        W40330  18.742  12.644  10.007
71957W        W40331  43.854  27.590   2.740
71958W        W40332  27.079  25.009  14.881
71959W        W40333  16.272  44.307   4.600
71960W        W40334   5.758  22.205   2.864
71961W        W40335  33.471  35.105  14.770
71962W        W40336  15.190   1.823   2.744
71963W        W40337  22.591  15.805  13.904
71964W        W40338  41.827  21.513  13.847
71965W        W40339  12.734  16.294  13.026
71966W        W40340  18.708  31.467   2.337
71967W        W40341  25.537   6.339  10.106
71968W        W40342  41.850  41.031  10.533
71969W        W40343  14.298  41.857   2.682
71970W        W40344   0.367  39.970   0.400
71971W        W40345  36.024   8.169  12.865
71972W        W40346  43.337  35.534  12.935
71973W        W40347   2.815  39.954  12.484
71974W        W40348  34.998  15.640   1.432
71975W        W40349  38.948  29.940  14.897
71976W        W40350   7.716  42.815  10.468
71977W        W40351   7.677  39.926  11.921
71978W        W40352  17.143  18.153  12.975
71979W        W40353   1.304   1.421   2.736
71980W        W40354   7.231  36.572  12.407
71981W        W40355  31.140  27.590   1.888
71982W        W40356   0.764  17.608  10.096
71983W        W40357  16.226  44.885  12.449
71984W        W40358  33.049  40.881   4.714
71985W        W40359  36.525  36.508   4.132
71986W        W40360  29.106   3.786   4.230
71987W        W40361  37.854  14.704   1.418
71988W        W40362  27.652  17.654   3.148
71989W        W40363  31.048  35.588  11.880
71990W        W40364   9.378   9.747   0.905
71991W        W40365  37.037   4.360  11.426
71992W        W40366  29.554  41.354   1.930
71993W        W40367   6.691  38.946  14.031
71994W        W40368   0.339   2.405  10.623
71995W        W40369  35.902  13.823   3.650
71996W        W40370   2.451  40.411  11.873
71997W        W40371  16.073  13.238  12.095
71998W        W40372  29.514  44.364  10.117
71999W        W40373  44.354   9.829  12.884
72000W        W40374  26.015   7.761   1.291
72001W        W40375  43.912  10.673   2.900
72002W        W40376  18.223  16.221   1.838
72003W        W40377  26.646  40.007   3.250
72004W        W40378  38.359  42.444  12.346
72005W        W40379  30.909  20.637  10.490
72006W        W40380  27.039   1.891   3.710
72007W        W40381  24.669   1.754  13.017
72008W        W40382   4.372   4.940   0.274
72009W        W40383  23.175  16.138  11.588
72010W        W40384  32.517   2.942   4.723
72011W        W40385  30.495  43.487  13.974
72012W        W40386  12.667  40.957  10.612
72013W        W40387  42.988   8.701  10.115
72014W        W40388  37.507   2.885  13.389
72015W        W40389  44.332  13.664   4.672
72016W        W40390  34.877   5.260   0.339
72017W        W40391  18.775   3.845  12.062
72018W        W40392   7.317  31.957   0.366
72019W        W40393  11.664  44.493   1.898
72020W        W40394   5.698  44.476  14.296
72021W        W40395  11.752  10.259  13.818
72022W        W40396  44.899  28.963   4.138
72023W        W40397  24.100   8.267  11.611
72024W        W40398  20.265  41.936   0.816
72025W        W40399  33.008  22.549   4.342
72026W        W40400  27.617   3.911  14.802
72027W        W40401  19.203  26.132  12.348
72028W        W40402  26.134  32.966  13.894
72029W        W40403  39.022   4.783  10.634
72030W        W40404  11.294  11.827  11.481
72031W        W40405  12.748  29.604  14.371
72032W        W40406  27.185  18.561   4.224
72033W        W40407   5.211   2.302   3.154
72034W        W40408  30.112   6.271  11.418
72035W        W40409  15.763  36.418   0.370
72036W        W40410  44.323  29.930   3.748
72037W        W40411  26.141  27.526  12.574
72038W        W40412  23.124  43.409   4.749
72039W        W40413   0.784  31.488  12.363
72040W        W40414  22.714  37.407  11.005
72041W        W40415   9.889   5.379  10.894
72042W        W40416  44.413  41.023   2.213
72043W        W40417  15.236  10.794   1.452
72044W        W40418  16.080  12.135   0.456
72045W        W40419   0.285   5.346  14.884
72046W        W40420  33.404   5.724  13.973
72047W        W40421  35.028   6.416   4.678
72048W        W40422  41.448  38.857   4.751
72049W        W40423   3.753  20.045   0.408
72050W        W40424  24.596  43.974  11.054
72051W        W40425  27.472  35.573  10.917
72052W        W40426  31.135  21.690  11.020
72053W        W40427  18.276  11.813  14.820
72054W        W40428  12.694   8.233  10.464
72055W        W40429  11.762   4.440  13.895
72056W        W40430   1.341   3.228   2.842
72057W        W40431  33.465  36.519   1.793
72058W        W40432   2.904   6.832  14.434
72059W        W40433  25.642  10.862  13.814
72060W        W40434   6.842  18.551   0.743
72061W        W40435  16.761  32.953   4.258
72062W        W40436  29.506  28.488  12.052
72063W        W40437  18.694  27.035  10.574
72064W        W40438  29.943  41.387   2.217
72065W        W40439   3.311  27.582   4.623
72066W        W40440  13.157  18.195  12.517
72067W        W40441  31.578  27.171  11.927
72068W        W40442  19.207   9.876  13.390
72069W        W40443  35.971  28.067  12.844
72070W        W40444  42.324  18.627   3.870
72071W        W40445  27.493  40.936  11.600
72072W        W40446  26.037  17.095   9.557
72073W        W40447   9.203  41.390  12.461
72074W        W40448  28.531  36.439  12.039
72075W        W40449  20.147  31.484  13.312
72076W        W40450  26.999  19.568  10.435
72077W        W40451  40.326  34.444   0.444
72078W        W40452   5.796  30.118  14.902
72079W        W40453  28.110   1.285   0.802
72080W        W40454  35.963   8.354  11.920
72081W        W40455  16.166  40.307   1.322
72082W        W40456  15.322   5.729   2.834
72083W        W40457  16.145  11.763  11.976
72084W        W40458  12.359  34.423   1.375
72085W        W40459   4.375   8.799   1.746
72086W        W40460  20.145  37.848   3.726
72087W        W40461   0.826  39.846   3.175
72088W        W40462   6.739  17.725  11.544
72089W        W40463  34.883  42.338  10.601
72090W        W40464  18.227  27.147   2.391
72091W        W40465  11.301   3.873  12.526
72092W        W40466  33.884  27.635   0.799
72093W        W40467  27.963  27.635  12.343
72094W        W40468  32.618  33.484   2.255
72095W        W40469  27.574   7.380   3.345
72096W        W40470  26.568  40.379   4.259
72097W        W40471   3.754  43.279  10.575
72098W        W40472  28.144  26.191   2.740
72099W        W40473   3.422   0.951   4.255
72100W        W40474   0.922  17.290   2.897
72101W        W40475  29.049  43.951  10.438
72102W        W40476   7.911   9.784  14.871
72103W        W40477  43.785  19.690  14.800
72104W        W40478  26.494  22.186   1.734
72105W        W40479  25.997   3.419   2.184
72106W        W40480  43.931  36.413  11.485
72107W        W40481  36.069   0.883   2.288
72108W        W40482  21.154  40.821   0.282
72109W        W40483  41.324  14.244   1.820
72110W        W40484   0.903   9.268   3.787
72111W        W40485  24.644  10.374  12.382
72112W        W40486  30.445  35.501   3.265
72113W        W40487  27.035  32.998  12.527
72114W        W40488  15.146   1.482   0.906
72115W        W40489  31.915   9.374  13.999
72116W        W40490  22.685  35.557   2.822
72117W        W40491  20.658  43.886   3.246
72118W        W40492  35.575   3.445  12.904
72119W        W40493  24.081  25.978  11.961
72120W        W40494  35.967  39.851   4.622
72121W        W40495  30.914   1.312  11.510
72122W        W40496  41.355  27.154   4.172
72123W        W40497  35.911  43.010  11.610
72124W        W40498   2.896   4.390  11.586
72125W        W40499  19.646  31.973  10.891
72126W        W40500  20.184  18.717   3.790
72127W        W40501  19.219  14.761   1.915
72128W        W40502  38.980   1.881  10.980
72129W        W40503   7.761  32.136   3.651
72130W        W40504  17.729   0.845   0.427
72131W        W40505  43.975   5.434   0.473
72132W        W40506  33.038  27.547  14.000
72133W        W40507  36.450  11.712  10.915
72134W        W40508  39.556  18.222   2.743
72135W        W40509  39.527   4.396  13.452
72136W        W40510  24.566  21.055   2.719
72137W        W40511  31.518  27.596   1.857
72138W        W40512  39.952  36.488  11.507
72139W        W40513   1.322   3.415   4.185
72140W        W40514   1.782  16.762  11.945
72141W        W40515  15.255   7.237   1.911
72142W        W40516  35.020  10.242  12.890
72143W        W40517   2.349  30.097  13.934
72144W        W40518   3.396  15.316  10.941
72145W        W40519  40.018  17.752   1.342
72146W        W40520  28.943  32.429   0.249
72147W        W40521   3.258  26.488  10.529
72148W        W40522  36.040   9.344  10.636
72149W        W40523  29.583  33.021  14.371
72150W        W40524  26.486  13.220   0.772
72151W        W40525  44.470  29.167  12.047
72152W        W40526  28.179   8.232  14.473
72153W        W40527  10.817  36.501   4.725
72154W        W40528  22.739  40.401  14.444
72155W        W40529  32.406  31.640  13.948
72156W        W40530   2.307  33.403  12.079
72157W        W40531  38.456  30.414  12.876
72158W        W40532  21.715  31.058  11.086
72159W        W40533  25.533   4.737   4.274
72160W        W40534  43.791  12.347   2.290
72161W        W40535  17.295   9.301  13.885
72162W        W40536   0.958  21.685  10.583
72163W        W40537  43.798  33.030  10.645
72164W        W40538   9.664  19.066  11.917
72165W        W40539   9.244  16.730   1.781
72166W        W40540  13.687  32.140   2.881
72167W        W40541   6.700  44.325  14.826
72168W        W40542  29.574  40.509   0.879
72169W        W40543  16.771   5.411  14.779
72170W        W40544  42.437  28.103  14.923
72171W        W40545  39.816   9.173   2.814
72172W        W40546  37.996  23.521  14.030
72173W        W40547  38.970  29.976   3.840
72174W        W40548   7.354  28.517  10.565
72175W        W40549  38.334  28.027   4.137
72176W        W40550  17.622  41.373  12.491
72177W        W40551  43.850   4.777  11.860
72178W        W40552  24.541   2.412   1.850
72179W        W40553  28.624  36.871  12.427
72180W        W40554  20.042  19.068   4.747
72181W        W40555  34.386   2.419   0.940
72182W        W40556   0.961  28.936  13.532
72183W        W40557  34.116  27.997  13.877
72184W        W40558  30.644   6.786   3.223
72185W        W40559  44.996  43.840   2.348
72186W        W40560   5.837  44.878  14.838
72187W        W40561  19.252  28.454   4.291
72188W        W40562  17.218   0.885   3.364
72189W        W40563  14.207   1.813  13.030
72190W        W40564  11.745  41.969   2.732
72191W        W40565  40.547  36.496  14.321
72192W        W40566  38.949  24.705  11.091
72193W        W40567  13.198   8.699   5.206
72194W        W40568  11.728  14.754   3.755
72195W        W40569  14.721  26.585   4.606
72196W        W40570  15.752   6.843   0.275
72197W        W40571  16.802  17.157   4.285
72198W        W40572  10.268  24.601  10.975
72199W        W40573   8.738   3.355   9.439
72200W        W40574  11.847  40.991   0.467
72201W        W40575  33.967  21.221   4.290
72202W        W40576  39.877  42.874   0.937
72203W        W40577  24.137  19.221   0.264
72204W        W40578  23.607  27.519  10.509
72205W        W40579  15.130  30.456  13.917
72206W        W40580   0.399  38.963   3.629
72207W        W40581  44.950  34.476   4.813
72208W        W40582   6.321  18.295   4.752
72209W        W40583  10.820  32.544   2.228
72210W        W40584  13.845  43.430   4.265
72211W        W40585  22.727   7.341   3.731
72212W        W40586  34.088  14.721  14.012
72213W        W40587   1.770   7.346   3.804
72214W        W40588  13.209  38.905  13.528
72215W        W40589   8.686  30.459  12.407
72216W        W40590   3.897  32.923   1.283
72217W        W40591  23.208   8.350  11.917
72218W        W40592  23.537  31.995   1.837
72219W        W40593  28.139   9.260  12.541
72220W        W40594  20.540  41.876  11.075
72221W        W40595   5.357  12.822   0.482
72222W        W40596  37.020  24.221   1.834
72223W        W40597  33.584   2.818   0.354
72224W        W40598  31.513  41.378   0.345
72225W        W40599  43.280  34.520  11.592
72226W        W40600  15.155  25.487  14.333
72227W        W40601  37.944  41.939   2.767
72228W        W40602  10.242  17.258  14.821
72229W        W40603   7.740  44.899   1.787
72230W        W40604  32.084  22.706  12.888
72231W        W40605  37.475  38.349   1.426
72232W        W40606  25.005  31.538  11.028
72233W        W40607  24.072  32.580   1.833
72234W        W40608  36.517   3.457   0.267
72235W        W40609  38.918  34.891   4.694
72236W        W40610  44.811  33.953   4.705
72237W        W40611  17.652  25.155  12.948
72238W        W40612  41.979   6.222   0.376
72239W        W40613   5.353   2.435   2.336
72240W        W40614  31.932  11.777   1.926
72241W        W40615   5.810  13.684  10.443
72242W        W40616  26.619  31.951  14.787
72243W        W40617  37.431  26.114  11.046
72244W        W40618  24.632  20.203   0.963
72245W        W40619  44.931  38.391   1.696
72246W        W40620  16.221  22.078   2.846
72247W        W40621  44.391  27.129  10.990
72248W        W40622  25.183  30.587  11.039
72249W        W40623  37.517  25.163   2.387
72250W        W40624  18.573  25.133   5.222
72251W        W40625   0.789  32.574   2.311
72252W        W40626  11.768   4.427   0.398
72253W        W40627  13.230  28.002   2.869
72254W        W40628  23.088  33.088   2.852
72255W        W40629  42.821  42.877  11.509
72256W        W40630   6.801  24.496  12.917
72257W        W40631  25.014  25.520   0.331
72258W        W40632  39.454  32.601   3.281
72259W        W40633  12.157   0.847  11.384
72260W        W40634  31.113   3.830  12.090
72261W        W40635  20.729  22.644  14.395
72262W        W40636  43.879  21.533  13.404
72263W        W40637  43.454  41.359   4.120
72264W        W40638  43.410  10.235   3.315
72265W        W40639  20.239  15.648  13.358
72266W        W40640  12.783  44.318   4.259
72267W        W40641  17.246  19.193  14.930
72268W        W40642   2.376   4.923  14.860
72269W        W40643   3.376  16.318   0.825
72270W        W40644  39.380  10.274   2.864
72271W        W40645  44.394  21.050   0.943
72272W        W40646   4.350  30.971   0.849
72273W        W40647   7.221  21.045   0.443
72274W        W40648   1.446  13.132  11.414
72275W        W40649  30.632  22.025  11.450
72276W        W40650  30.463   7.879  13.791
72277W        W40651  41.831  33.382   1.822
72278W        W40652   1.399  40.966   1.252
72279W        W40653  12.194  39.977   3.288
72280W        W40654  12.225  29.463   2.771
72281W        W40655   9.866   9.194   3.244
72282W        W40656  11.842   8.745   2.824
72283W        W40657  29.106  41.306  14.886
72284W        W40658  24.065  29.119   2.288
72285W        W40659   7.816  28.629   4.665
72286W        W40660  25.977   0.482   4.669
72287W        W40661  43.445  29.942   4.268
72288W        W40662  31.075  41.457   5.249
72289W        W40663  34.017  12.161   3.303
72290W        W40664  44.319   5.199   4.607
72291W        W40665  17.798  32.888  11.944
72292W        W40666  31.926  14.165   1.724
72293W        W40667   0.896  24.018  11.005
72294W        W40668  40.873   0.418   1.880
72295W        W40669  30.024  28.047  11.959
72296W        W40670  16.769  10.280  11.049
72297W        W40671  41.953   9.176  12.078
72298W        W40672  34.926  14.720  11.913
72299W        W40673  25.499  15.644   4.140
72300W        W40674  35.988  19.624   0.838
72301W        W40675  28.965  38.914  12.848
72302W        W40676   8.655  20.195   0.323
72303W        W40677  18.759  10.650   1.311
72304W        W40678  29.060  25.541  10.591
72305W        W40679   6.832   8.870  12.852
72306W        W40680   2.373  44.938   3.373
72307W        W40681   3.355  42.366   1.438
72308W        W40682  35.381  35.065  11.980
72309W        W40683  35.933  22.060  14.798
72310W        W40684  17.586   4.922  13.867
72311W        W40685  37.878   0.764  13.042
72312W        W40686  25.548   2.277   4.256
72313W        W40687  35.407  28.619  13.887
72314W        W40688  11.264   7.861  11.483
72315W        W40689   9.766  19.690   1.381
72316W        W40690  24.652  29.114  10.943
72317W        W40691   5.294  27.134  11.947
72318W        W40692  33.382  33.986   1.403
72319W        W40693  40.370   8.316   2.880
72320W        W40694  31.499   2.248  11.865
72321W        W40695  36.431   7.865  10.916
72322W        W40696  33.409  20.077   0.299
72323W        W40697   1.279   4.820  12.342
72324W        W40698   1.394  11.769   4.236
72325W        W40699  31.017  40.362   1.269
72326W        W40700  17.589  32.986  11.557
72327W        W40701   3.400  44.370  11.550
72328W        W40702   6.793   5.212  10.426
72329W        W40703  18.254  22.667  12.408
72330W        W40704  36.033  21.073   0.813
72331W        W40705  42.920  20.536   2.182
72332W        W40706  38.385  41.320  14.916
72333W        W40707  35.403  38.402   3.345
72334W        W40708   4.402  32.486  12.940
72335W        W40709  30.450  19.540  11.433
72336W        W40710  37.871  42.002  11.593
72337W        W40711   6.785  31.074   4.226
72338W        W40712  21.178  12.319   1.443
72339W        W40713  33.414  23.506   0.392
72340W        W40714  28.154  24.541  14.309
72341W        W40715  15.192   7.911  11.589
72342W        W40716   4.808  40.047   4.219
72343W        W40717  18.096   0.305   3.276
72344W        W40718   2.930  13.791  12.073
72345W        W40719   5.887  32.486  12.558
72346W        W40720  23.124  31.954  10.972
72347W        W40721  29.147  32.926   0.392
72348W        W40722  35.516  25.158   0.470
72349W        W40723  28.096  22.542  10.623
72350W        W40724  30.063  24.499  13.359
72351W        W40725   6.354  10.823   0.451
72352W        W40726  18.637  22.664  13.032
72353W        W40727  15.240  33.394  11.067
72354W        W40728  29.668  24.649   1.260
72355W        W40729  10.872   8.656   1.764
72356W        W40730  38.954  21.665   3.200
72357W        W40731  44.473  24.046   3.160
72358W        W40732  24.702  11.621  12.075
72359W        W40733  27.477  39.911   0.900
72360W        W40734  28.680  19.595  12.023
72361W        W40735  26.702   0.425   0.298
72362W        W40736  17.208  40.051  10.435
72363W        W40737  11.317   8.852  10.910
72364W        W40738   5.741  18.685   3.868
72365W        W40739   8.358  12.265  13.800
72366W        W40740  24.072  24.505  12.013
72367W        W40741   1.300  17.631  13.027
72368W        W40742  16.574  26.636  12.356
72369W        W40743  36.439  43.278  11.911
72370W        W40744  21.681  29.121  14.284
72371W        W40745  20.240  22.048   1.879
72372W        W40746   2.275  25.516  13.047
72373W        W40747  25.547  22.040   4.811
72374W        W40748  30.055  37.446   2.347
72375W        W40749   0.949   8.869   4.746
72376W        W40750  44.425  39.391   3.250
72377W        W40751  39.373  17.248  10.604
72378W        W40752  11.299  20.665  13.997
72379W        W40753   0.477  31.955  11.373
72380W        W40754  15.811  28.140   1.273
72381W        W40755  11.320  19.768  12.002
72382W        W40756   4.761  24.118  13.961
72383W        W40757   9.719  31.094  12.464
72384W        W40758  33.511  38.820   3.864
72385W        W40759   6.730  36.493   2.311
72386W        W40760   5.222   5.297  14.845
72387W        W40761   0.365  28.642  10.536
72388W        W40762  35.548  15.590  10.987
72389W        W40763  28.045  36.381  13.812
72390W        W40764  38.049  11.832   2.702
72391W        W40765  18.211  36.913   2.416
72392W        W40766  39.377  42.968  13.387
72393W        W40767  24.092  37.502  10.639
72394W        W40768  13.810   7.704   1.297
72395W        W40769  35.976  30.984   4.214
72396W        W40770  34.548  12.856  13.930
72397W        W40771  26.184   1.796  11.468
72398W        W40772   2.260  19.180  13.496
72399W        W40773  28.065  21.050   9.988
72400W        W40774  14.269   2.872   3.318
72401W        W40775  16.774   8.276  13.462
72402W        W40776  28.018  26.490  11.539
72403W        W40777  25.067   3.424  11.510
72404W        W40778  16.753  36.089  13.425
72405W        W40779  17.279  24.057  12.013
72406W        W40780  17.694  21.107  11.047
72407W        W40781  38.340  30.129   0.954
72408W        W40782  20.645  12.767   3.297
72409W        W40783  36.858  16.697  11.095
72410W        W40784  33.069  42.304  14.290
72411W        W40785  40.475  12.812   3.847
72412W        W40786  14.286  36.415   0.456
72413W        W40787  42.506  17.728  10.919
72414W        W40788  38.968  28.978  10.526
72415W        W40789   4.377  28.449   0.299
72416W        W40790  33.583  20.522   1.314
72417W        W40791  36.088  44.754  10.937
72418W        W40792   4.870  12.119  10.540
72419W        W40793  13.623  12.211   0.779
72420W        W40794  39.374  16.761  14.988
72421W        W40795   8.782  18.084  11.557
72422W        W40796   8.345  12.664  13.976
72423W        W40797  12.815  15.684  10.621
72424W        W40798  16.154  27.183   0.370
72425W        W40799  29.591   5.325   2.701
72426W        W40800  18.664  17.709  13.473
72427W        W40801  34.987  11.173   1.312
72428W        W40802  19.774   5.305  10.487
72429W        W40803  37.896  19.641  12.936
72430W        W40804  44.009  36.998  10.581
72431W        W40805   5.203  11.365  11.989
72432W        W40806  41.358   5.417   0.297
72433W        W40807  44.863  21.743  11.561
72434W        W40808   7.179  44.939   4.352
72435W        W40809  18.689  33.384   2.793
72436W        W40810  16.670  13.662  13.453
72437W        W40811  39.439  14.700  11.509
72438W        W40812  28.974  42.875   4.136
72439W        W40813  29.550  42.435  13.926
72440W        W40814  19.602  17.590  11.036
72441W        W40815  34.025  17.632   3.272
72442W        W40816  26.067  21.208   3.185
72443W        W40817  25.197  33.898  10.898
72444W        W40818  36.956  26.109  12.365
72445W        W40819  34.549  39.947  12.406
72446W        W40820  20.574  42.314   0.381
72447W        W40821  44.432  31.942   2.822
72448W        W40822  38.846   1.458  11.944
72449W        W40823  10.655  28.583  11.446
72450W        W40824  30.568  33.045  12.381
72451W        W40825  42.348   6.330   2.866
72452W        W40826  32.069   7.278  14.498
72453W        W40827   7.739  16.256   4.170
72454W        W40828   6.845  14.811   0.925
72455W        W40829  29.978  43.954   4.136
72456W        W40830   7.753   7.826   4.675
72457W        W40831  27.167  19.547   4.286
72458W        W40832  41.909  43.983  13.981
72459W        W40833   0.289  31.098  13.907
72460W        W40834   4.266   0.937  12.043
72461W        W40835  39.507  33.062   2.672
72462W        W40836   9.311  14.282   2.267
72463W        W40837  20.725  32.110  12.573
72464W        W40838  24.637  41.947   1.219
72465W        W40839  35.993  23.107   4.677
72466W        W40840  32.431  25.543  14.903
72467W        W40841  11.676   4.818   3.862
72468W        W40842  31.941  40.028  11.915
72469W        W40843  13.315  11.242  12.391
72470W        W40844  31.954  43.318   1.327
72471W        W40845  13.309  33.006  14.798
72472W        W40846  29.425  41.989  14.955
72473W        W40847  21.610  42.485   0.870
72474W        W40848  18.179  27.471   1.368
72475W        W40849  36.543   7.804  13.882
72476W        W40850  18.764  30.413   1.408
72477W        W40851  37.549  44.316  14.940
72478W        W40852   6.920  36.441   3.198
72479W        W40853  23.501   3.351   0.863
72480W        W40854  14.667  42.915   1.842
72481W        W40855  32.898  17.274  11.889
72482W        W40856  32.432  35.399   2.364
72483W        W40857  43.443  24.706   4.636
72484W        W40858  26.063  43.764   0.864
72485W        W40859  11.314  37.844  12.396
72486W        W40860   5.843   0.863   3.643
72487W        W40861  13.846   6.734  14.384
72488W        W40862  41.447  18.619  10.510
72489W        W40863  34.120  18.784  13.412
72490W        W40864   0.472  14.624  14.488
72491W        W40865  33.401  31.039  10.482
72492W        W40866   8.861  44.765  11.089
72493W        W40867  37.878  19.726   1.734
72494W        W40868   7.697  20.608   3.721
72495W        W40869  25.486  11.133  14.318
72496W        W40870  40.541   6.838  13.463
72497W        W40871  39.926  37.867   4.224
72498W        W40872  32.423  15.202  13.334
72499W        W40873  14.215  37.000  14.782
72500W        W40874  29.134   7.374   2.400
72501W        W40875  42.862   2.342  14.331
72502W        W40876  28.108  12.771  14.956
72503W        W40877   4.405  16.178  14.776
72504W        W40878   2.266  20.751  10.957
72505W        W40879  36.565  42.818  10.103
72506W        W40880  33.387  39.434   1.293
72507W        W40881  16.568  40.491  11.568
72508W        W40882  26.146  37.415   2.308
72509W        W40883   2.799  28.448   2.830
72510W        W40884   5.239  44.995   4.211
72511W        W40885  14.610  36.577  11.031
72512W        W40886  27.989  37.994   4.674
72513W        W40887  38.359  12.644   4.738
72514W        W40888  16.101  23.677  12.914
72515W        W40889  12.688   9.722  14.829
72516W        W40890  35.361   0.384   3.243
72517W        W40891  38.964  12.714   0.439
72518W        W40892  22.052  19.202  10.505
72519W        W40893  41.000  20.697  12.954
72520W        W40894  23.167  13.651   0.889
72521W        W40895  43.317  30.935   0.475
72522W        W40896  26.699   0.254  10.085
72523W        W40897  43.399  31.485   4.339
72524W        W40898  29.512  32.442   2.322
72525W        W40899  10.214  11.250   4.266
72526W        W40900   7.264  37.549   3.648
72527W        W40901  13.741  17.134  12.395
72528W        W40902  14.692  13.318   3.691
72529W        W40903  22.668  17.235  10.967
72530W        W40904  27.491  29.050   1.744
72531W        W40905  26.998  27.098   3.149
72532W        W40906  15.714  41.024  12.374
72533W        W40907   4.254  38.896  13.974
72534W        W40908  32.930   1.340   4.256
72535W        W40909  37.026  21.146   3.650
72536W        W40910  15.649  42.972  12.887
72537W        W40911  15.218  39.384  13.891
72538W        W40912  17.792  10.710  14.831
72539W        W40913  20.152   5.898   0.949
72540W        W40914  16.154  41.870   3.281
72541W        W40915  22.671  18.277   4.706
72542W        W40916  20.543   4.347  14.351
72543W        W40917  10.695  25.476   3.368
72544W        W40918   7.731   5.266  13.999
72545W        W40919  23.077  27.496  12.013
72546W        W40920  26.957  22.040   0.422
72547W        W40921  15.746  37.025  12.965
72548W        W40922  36.541  18.222   1.395
72549W        W40923  30.999  20.752  12.356
72550W        W40924  30.110  34.550   3.278
72551W        W40925   0.806  43.291   3.720
72552W        W40926  29.592  30.422  12.938
72553W        W40927  12.192   2.782  10.484
72554W        W40928  40.857  44.270   4.792
72555W        W40929  37.998   8.271  13.905
72556W        W40930  11.816  36.489  10.526
72557W        W40931  41.861   7.397  12.510
72558W        W40932  39.834  25.022   0.854
72559W        W40933   9.861  39.418  10.546
72560W        W40934  28.162  18.051  11.584
72561W        W40935  44.400  11.198  12.905
72562W        W40936   8.896  21.564  12.869
72563W        W40937   7.358  15.649  10.570
72564W        W40938  21.674   7.351  12.921
72565W        W40939   1.404  23.495  14.998
72566W        W40940  38.967  13.320   4.811
72567W        W40941  36.052  11.841   1.855
72568W        W40942  38.394  41.862  12.881
72569W        W40943  13.629   6.204  14.824
72570W        W40944  31.457   3.276   2.273
72571W        W40945  29.612  35.914   3.863
72572W        W40946  15.613  44.875  10.520
72573W        W40947  12.791  20.249  11.970
72574W        W40948  41.001  11.816  10.643
72575W        W40949  41.320  27.603   4.688
72576W        W40950  18.577  14.214  12.842
72577W        W40951  20.094   5.762   4.121
72578W        W40952  42.308   0.315  13.996
72579W        W40953  33.969  14.269  12.012
72580W        W40954  43.339  13.797   3.292
72581W        W40955  44.354   9.839   2.848
72582W        W40956  14.663  28.943  14.974
72583W        W40957  27.688  38.067   1.420
72584W        W40958  27.575  13.626   4.756
72585W        W40959   5.867   0.385   1.232
72586W        W40960  38.526  40.978  13.465
72587W        W40961   4.749  37.395  13.817
72588W        W40962  17.737  20.522  14.489
72589W        W40963  20.148  44.439  10.897
72590W        W40964  27.500   8.233   2.184
72591W        W40965   9.392  34.455   3.747
72592W        W40966  40.501  24.722  11.036
72593W        W40967  13.105  37.936  11.007
72594W        W40968   6.316   5.753   1.376
72595W        W40969   5.257  25.535  12.037
72596W        W40970  23.081  32.546  11.972
72597W        W40971  33.597   1.885  13.396
72598W        W40972   3.315  16.777  12.538
72599W        W40973   1.847  27.512   0.781
72600W        W40974  37.925   3.427   1.451
72601W        W40975   8.793  28.997   9.965
72602W        W40976   3.713  14.798   0.406
72603W        W40977  15.708   8.847   0.358
72604W        W40978  31.054  44.286   2.851
72605W        W40979  16.654  13.168  11.521
72606W        W40980  36.901   6.756   3.865
72607W        W40981  23.202  27.591  13.934
72608W        W40982  19.638  28.146  10.915
72609W        W40983  24.220  43.464  11.395
72610W        W40984  16.758  22.680   2.292
72611W        W40985  43.508   9.860   2.232
72612W        W40986  37.366  44.367  14.022
72613W        W40987  25.543  14.151  14.799
72614W        W40988  40.989  11.370  14.892
72615W        W40989  13.723  15.698  12.435
72616W        W40990   9.270  39.500  13.499
72617W        W40991  11.801  10.716   2.396
72618W        W40992  31.913  25.002  10.090
72619W        W40993  27.972  41.983  13.950
72620W        W40994  41.833   8.871   3.361
72621W        W40995  35.584  28.551  11.887
72622W        W40996   2.320   2.375  14.959
72623W        W40997  24.706  42.966  11.483
72624W        W40998  36.914  26.200   1.849
72625W        W40999  20.141  40.023  13.324
72626W        W41000  34.008  28.464   1.796
72627W        W41001  38.471  15.192  12.377
72628W        W41002  10.250   7.900  12.355
72629W        W41003  16.657  44.837  10.906
72630W        W41004   2.788  37.488   0.836
72631W        W41005   4.714  21.098  13.381
72632W        W41006  41.330  25.007  13.810
72633W        W41007  16.249  16.119  10.488
72634W        W41008   4.945  30.460  10.516
72635W        W41009  12.732  23.193   2.277
72636W        W41010  11.169   6.834   3.790
72637W        W41011   0.414  14.831  11.860
72638W        W41012  18.129  32.053   2.672
72639W        W41013   3.266  14.650   4.127
72640W        W41014  40.008   3.950   0.957
72641W        W41015  39.814   4.363  13.414
72642W        W41016  11.687  38.327   4.819
72643W        W41017  11.734  33.517   2.716
72644W        W41018   9.149  20.271  10.024
72645W        W41019   7.343  14.098   4.184
72646W        W41020  34.446  21.176   1.405
72647W        W41021  42.370  17.119   2.404
72648W        W41022  44.359  11.761  14.871
72649W        W41023  37.899  21.678  11.905
72650W        W41024  12.343   0.337   0.378
72651W        W41025  19.252  17.757  13.548
72652W        W41026  10.251  25.610   3.340
72653W        W41027  41.369  29.647   2.352
72654W        W41028   2.354   1.801   9.930
72655W        W41029  10.730  38.346   1.437
72656W        W41030   8.846  14.287   3.712
72657W        W41031  36.414   0.760  12.914
72658W        W41032  19.167  41.866   1.330
72659W        W41033  12.246  37.056   4.229
72660W        W41034   1.846  27.034  10.549
72661W        W41035  43.515   4.859  14.403
72662W        W41036  26.107  17.215   5.248
72663W        W41037  29.667  33.053  13.404
72664W        W41038   7.805  14.268  13.503
72665W        W41039  29.071   6.227  13.445
72666W        W41040  33.516  10.700   0.428
72667W        W41041   4.348  36.509   2.370
72668W        W41042   4.212   1.294  14.373
72669W        W41043  44.911  44.299   1.399
72670W        W41044  33.940  33.944  12.072
72671W        W41045  26.529  29.454   5.268
72672W        W41046  42.390   7.176   1.314
72673W        W41047   4.855   2.720   2.299
72674W        W41048  22.131  34.066   4.346
72675W        W41049  24.179  21.658  12.014
72676W        W41050  39.937  22.578  10.916
72677W        W41051  31.445  25.576  10.456
72678W        W41052  27.485  37.576  13.895
72679W        W41053  15.139  12.176  14.490
72680W        W41054  23.217  28.040   0.457
72681W        W41055  14.284   3.291  11.996
72682W        W41056  15.818  21.641   2.328
72683W        W41057   8.727   6.313   3.660
72684W        W41058  22.532  23.167  14.483
72685W        W41059  31.116  30.022  12.948
72686W        W41060   9.178  42.930   3.813
72687W        W41061   7.766  24.021   4.232
72688W        W41062  44.761  13.745   4.825
72689W        W41063   4.302  22.143   2.274
72690W        W41064   1.470  19.620   4.170
72691W        W41065  23.126   1.270  12.852
72692W        W41066  11.799  26.011   2.234
72693W        W41067   9.805  24.559  10.486
72694W        W41068   9.672  21.044   0.268
72695W        W41069  13.752  23.560   4.823
72696W        W41070  36.589  22.670   1.778
72697W        W41071   1.329  29.551  14.510
72698W        W41072  26.116   5.220  12.446
72699W        W41073  12.208  27.493   3.755
72700W        W41074  24.684  24.018  12.466
72701W        W41075   0.899  26.600  10.016
72702W        W41076  36.900  31.508   3.846
72703W        W41077  29.525  16.782   3.720
72704W        W41078   4.773  13.645  14.949
72705W        W41079  38.025  40.473  11.964
72706W        W41080  27.001  41.901  13.924
72707W        W41081  10.360  10.736  13.869
72708W        W41082   7.751  34.033   1.823
72709W        W41083  29.638  28.679   2.240
72710W        W41084  12.777  24.167   3.840
72711W        W41085  30.044  11.758  13.987
72712W        W41086  33.424  34.503  14.430
72713W        W41087   1.360  30.424  10.933
72714W        W41088  30.529  44.283   2.736
72715W        W41089  14.215   6.375   2.419
72716W        W41090   7.208  39.889  10.966
72717W        W41091  38.961  29.110   1.753
72718W        W41092  36.444  10.676  11.081
72719W        W41093   4.794  15.269   1.400
72720W        W41094  38.332  34.452   1.703
72721W        W41095  10.149  21.256  13.908
72722W        W41096  27.186  26.501  11.610
72723W        W41097  24.521  44.469   1.256
72724W        W41098   8.315   3.231  13.846
72725W        W41099  41.992  26.553  12.950
72726W        W41100  40.393  24.719  11.516
72727W        W41101  36.442  11.652   2.385
72728W        W41102  25.613  28.549  10.521
72729W        W41103  21.657  11.297  11.918
72730W        W41104  41.429  39.902  10.609
72731W        W41105   0.422  43.514   2.787
72732W        W41106  11.791  10.829  14.333
72733W        W41107  29.432  28.449  14.879
72734W        W41108  44.441  23.544   3.147
72735W        W41109   4.883  28.570  14.430
72736W        W41110  35.580  22.034  14.021
72737W        W41111  14.618  16.689  11.039
72738W        W41112  15.295  27.591  10.617
72739W        W41113   4.271  19.631  13.385
72740W        W41114  26.614  19.043   2.758
72741W        W41115   9.884  31.557  14.860
72742W        W41116  17.079  22.600   3.792
72743W        W41117  39.373  30.518  12.565
72744W        W41118  25.591  39.987   4.757
72745W        W41119  26.199  35.430  14.398
72746W        W41120  27.638  10.182   4.292
72747W        W41121  29.626   0.292   1.718
72748W        W41122  27.186  33.423   3.831
72749W        W41123  25.648   6.414   2.317
72750W        W41124  16.251  14.754  12.926
72751W        W41125   0.456  31.959   3.716
72752W        W41126  32.923  40.531  13.795
72753W        W41127  35.922  44.316  11.868
72754W        W41128   7.352   0.424   1.366
72755W        W41129  15.218  10.855  12.471
72756W        W41130  39.041  13.740  13.441
72757W        W41131  32.953  31.936  13.974
72758W        W41132  24.132  39.008   0.882
72759W        W41133  30.154  38.984   1.810
72760W        W41134  37.488   3.732  14.282
72761W        W41135  15.325  35.427   4.785
72762W        W41136  44.942  29.085   0.443
72763W        W41137   2.303  30.477  13.870
72764W        W41138  11.811  22.595  13.791
72765W        W41139  38.001   3.321  14.801
72766W        W41140  17.172  17.245  14.446
72767W        W41141  18.079  29.454   1.451
72768W        W41142  31.643  39.543   1.851
72769W        W41143   3.800   2.957  11.498
72770W        W41144   2.331  25.548   1.831
72771W        W41145  30.002  42.438  11.464
72772W        W41146   3.461   7.220   3.668
72773W        W41147  13.209  35.910  14.340
72774W        W41148  33.407  40.532   1.852
72775W        W41149   1.889   1.823   1.248
72776W        W41150   7.730  24.571  14.994
72777W        W41151   7.848  21.521  11.092
72778W        W41152   8.376  41.330   4.674
72779W        W41153  20.177  34.030  11.407
72780W        W41154  32.958  12.167  13.343
72781W        W41155  33.455  11.291  10.640
72782W        W41156   3.343  34.399  11.580
72783W        W41157  16.112  21.695  11.049
72784W        W41158  16.695  43.784   2.861
72785W        W41159  33.087  31.127   1.784
72786W        W41160  12.302  39.340   3.643
72787W        W41161  44.886  43.888   0.878
72788W        W41162  36.973  44.260  11.576
72789W        W41163  37.364  13.287  14.404
72790W        W41164  15.645  24.607  12.012
72791W        W41165   4.319   2.781   4.695
72792W        W41166  26.556  28.968  12.086
72793W        W41167  44.467  10.218   1.782
72794W        W41168  39.365  27.542   2.895
72795W        W41169  18.067   8.690  13.844
72796W        W41170  28.932  33.123  13.434
72797W        W41171  19.761  30.498   4.144
72798W        W41172  29.555  35.902   1.843
72799W        W41173  12.751  41.394  11.989
72800W        W41174  32.430  38.346   0.728
72801W        W41175  13.351  15.138  14.018
72802W        W41176  30.925  38.462   1.256
72803W        W41177  41.407   8.860   4.319
72804W        W41178  32.467   3.852  12.397
72805W        W41179  15.618  10.181   3.704
72806W        W41180   3.451   5.910  11.053
72807W        W41181  11.231  44.299  11.418
72808W        W41182   7.180  17.673   1.842
72809W        W41183  32.052  42.996   1.386
72810W        W41184   8.162  34.469  12.556
72811W        W41185  26.984  32.006  12.998
72812W        W41186  14.592  30.078   4.777
72813W        W41187  12.219  19.775   0.857
72814W        W41188  36.923  22.247  14.886
72815W        W41189  31.963   9.878   0.297
72816W        W41190  16.149   6.269  14.379
72817W        W41191  41.327  16.298  11.047
72818W        W41192  20.060  39.323   0.296
72819W        W41193   8.351  21.263  14.009
72820W        W41194   1.245  23.208   4.198
72821W        W41195  17.709  15.223  10.540
72822W        W41196  38.472  17.215   3.852
72823W        W41197   3.877  25.539   3.346
72824W        W41198  30.499  29.463   0.936
72825W        W41199   4.903  34.471  10.065
72826W        W41200  31.075  30.164   2.410
72827W        W41201  17.144  27.641  12.917
72828W        W41202  28.486  41.996   3.633
72829W        W41203  17.085  43.344   2.224
72830W        W41204   6.352  14.772  12.033
72831W        W41205  13.206  42.522  11.512
72832W        W41206   5.261  27.087   1.861
72833W        W41207  27.962  35.942  13.337
72834W        W41208  33.927  33.106  10.588
72835W        W41209  43.968  34.466   4.736
72836W        W41210  42.801  39.361   1.928
72837W        W41211  28.146  27.453   4.338
72838W        W41212   5.842  26.645   0.830
72839W        W41213   7.856  23.502   2.807
72840W        W41214  39.906  18.747  12.922
72841W        W41215  42.390  38.006   3.231
72842W        W41216   5.687  28.563   0.756
72843W        W41217  27.471  44.348   2.321
72844W        W41218  26.457  33.483  12.511
72845W        W41219   9.356  24.203  13.333
72846W        W41220  22.565  31.571  12.901
72847W        W41221  11.747  42.376  10.025
72848W        W41222  31.479  25.495  12.875
72849W        W41223  20.726   8.670   2.259
72850W        W41224  19.077  27.960   4.132
72851W        W41225  41.362   2.344  13.464
72852W        W41226  19.264  36.946  11.593
72853W        W41227  20.640  35.952  10.611
72854W        W41228  35.498  28.532   2.694
72855W        W41229   2.893   5.338   1.791
72856W        W41230  39.480   0.357  12.830
72857W        W41231  21.155   9.798   0.737
72858W        W41232  14.592  11.658   1.924
72859W        W41233   7.872  10.798  10.531
72860W        W41234  39.842   8.901  11.079
72861W        W41235  12.806   9.834  14.443
72862W        W41236  43.395  34.101  12.096
72863W        W41237  39.863  14.282   3.710
72864W        W41238   8.867  37.363   4.618
72865W        W41239  43.938  21.075  10.986
72866W        W41240  27.152  26.544  13.801
72867W        W41241  25.597  24.048   2.298
72868W        W41242  41.469  43.490  11.376
72869W        W41243  26.069  43.795   2.881
72870W        W41244   1.970   5.344  12.968
72871W        W41245   6.405  22.523  12.981
72872W        W41246  36.577  11.835   3.707
72873W        W41247   7.797  26.651   3.362
72874W        W41248  40.012  33.053   2.871
72875W        W41249  32.604   4.937   0.416
72876W        W41250  31.948   4.272   2.367
72877W        W41251   4.247  32.118   1.403
72878W        W41252   5.913  41.849  12.372
72879W        W41253  10.677   5.701   4.752
72880W        W41254  34.382  15.810   0.428
72881W        W41255  18.695   5.204   0.300
72882W        W41256  24.038  37.499   1.309
72883W        W41257  14.789   9.359  11.382
72884W        W41258   2.411  17.598  10.984
72885W        W41259   5.357  41.533  12.982
72886W        W41260  17.638  22.697  10.977
72887W        W41261  26.529  36.438   3.266
72888W        W41262  23.528   7.808   0.879
72889W        W41263  15.808   6.249   2.297
72890W        W41264  33.498  16.214  10.602
72891W        W41265  40.925  24.182  11.525
72892W        W41266  21.091   8.762   3.237
72893W        W41267  27.570  28.637   0.448
72894W        W41268  33.888   9.844  11.557
72895W        W41269  11.315  15.744  12.024
72896W        W41270  14.736  19.746  12.560
72897W        W41271  28.604  42.955   1.293
72898W        W41272  30.520  21.257  11.023
72899W        W41273   2.237   5.397  13.360
72900W        W41274  38.051  26.631   2.808
72901W        W41275  22.734  12.705  14.863
72902W        W41276  29.549   6.279   2.410
72903W        W41277   0.953  26.000  13.342
72904W        W41278  29.554  39.518  12.516
72905W        W41279  19.601  30.909   4.118
72906W        W41280  23.614  35.455  14.313
72907W        W41281  26.191  34.011  13.973
72908W        W41282   2.741  21.754  14.389
72909W        W41283  11.183  17.658   1.429
72910W        W41284   7.340   2.790  14.370
72911W        W41285  27.196  30.475   3.337
72912W        W41286   9.722  15.287   0.893
72913W        W41287  38.526  37.061  13.349
72914W        W41288   9.322  32.466   0.902
72915W        W41289  39.845  41.389  10.522
72916W        W41290   0.441  22.026   2.782
72917W        W41291  22.132  11.627  14.771
72918W        W41292   6.740  31.634   0.477
72919W        W41293  37.964   4.278   2.200
72920W        W41294  14.186   0.417   2.896
72921W        W41295   0.335   4.859  11.970
72922W        W41296  24.707  40.901  14.403
72923W        W41297   4.891  27.148  11.396
72924W        W41298  25.539  35.935  14.413
72925W        W41299  32.979  11.689  11.876
72926W        W41300  30.996  19.767  11.562
72927W        W41301  35.476   8.332  11.511
72928W        W41302   0.832  25.637   3.243
72929W        W41303  43.467  26.666   0.964
72930W        W41304  39.314  40.474   0.849
72931W        W41305  25.078   6.791  10.440
72932W        W41306  17.307  42.778  11.900
72933W        W41307  16.754  11.654  10.603
72934W        W41308  41.302  19.066  14.808
72935W        W41309   6.321  16.295   3.379
72936W        W41310  34.086  35.542  12.831
72937W        W41311  19.536  23.185  10.454
72938W        W41312   3.289  27.163   1.702
72939W        W41313  17.773  34.405   2.686
72940W        W41314   2.732   4.415  14.323
72941W        W41315  15.166  17.201  10.448
72942W        W41316   9.791   8.181  11.987
72943W        W41317   9.206  36.025  10.922
72944W        W41318  17.135  35.548   1.408
72945W        W41319  24.533  36.500   3.642
72946W        W41320  20.622  39.354  11.926
72947W        W41321  25.627  16.243   0.855
72948W        W41322  39.344  19.614   4.205
72949W        W41323  22.148   5.238   3.250
72950W        W41324   6.284   1.816  11.960
72951W        W41325  44.275  15.199   1.326
72952W        W41326  30.947  23.723   4.749
72953W        W41327   2.741  42.518   0.737
72954W        W41328  42.914  32.124   1.932
72955W        W41329  28.455  16.206   4.188
72956W        W41330  13.630  21.048  14.763
72957W        W41331  25.198  30.654  14.847
72958W        W41332  27.086  42.856  12.930
72959W        W41333  18.098   9.718   3.758
72960W        W41334  13.150  22.596  13.825
72961W        W41335   8.899   8.880   0.287
72962W        W41336  12.818  21.702   2.307
72963W        W41337  13.649   1.860   1.238
72964W        W41338  19.137   4.837  10.907
72965W        W41339   9.165  34.490  13.449
72966W        W41340   1.738   8.321  13.348
72967W        W41341   8.162  36.366  14.018
72968W        W41342  37.848  34.541  12.494
72969W        W41343  20.230   0.874   3.775
72970W        W41344  20.155  37.431  13.800
72971W        W41345  43.367   5.777  11.051
72972W        W41346  20.654  24.528   2.665
72973W        W41347  28.672  42.866   2.369
72974W        W41348  28.473  31.142   0.247
72975W        W41349   4.227  25.509   0.317
72976W        W41350  17.081  39.896  12.973
72977W        W41351  41.853   2.338   2.313
72978W        W41352  17.706  31.021  12.060
72979W        W41353   6.821  28.556  11.072
72980W        W41354  14.286  24.150  13.528
72981W        W41355  26.029  13.255  13.348
72982W        W41356  42.780   4.434  11.574
72983W        W41357   0.982  34.502   1.888
72984W        W41358  40.049  27.957   1.445
72985W        W41359  13.835   8.318  14.957
72986W        W41360  24.151  22.696  13.868
72987W        W41361  28.048  15.233   3.369
72988W        W41362  41.883  20.574  13.373
72989W        W41363  14.738  14.778   4.716
72990W        W41364  41.983  28.673  11.551
72991W        W41365  34.891  10.213   2.185
72992W        W41366  23.214  35.436   2.401
72993W        W41367  29.939  21.221  10.967
72994W        W41368  23.613  42.519   1.802
72995W        W41369  27.512  24.160   0.250
72996W        W41370   3.432  41.886   1.389
72997W        W41371  39.958   7.765  11.980
72998W        W41372  31.613  14.278  12.074
72999W        W41373  32.620   3.841  12.937
73000W        W41374  11.288   2.877  13.796
73001W        W41375  44.500  38.040  13.878
73002W        W41376   7.332  34.518  14.015
73003W        W41377  30.511   5.841  12.443
73004W        W41378  27.990  27.684  13.500
73005W        W41379  17.687  24.106   0.350
73006W        W41380  22.024  23.212   2.279
73007W        W41381   2.961  41.453  12.936
73008W        W41382  35.945  36.565   2.796
73009W        W41383  34.411  10.308   3.322
73010W        W41384   4.379   8.804   2.790
73011W        W41385  39.916   4.932   2.814
73012W        W41386  44.458  39.393  11.580
73013W        W41387   0.766  38.468  12.395
73014W        W41388   8.781  44.317  11.403
73015W        W41389   3.454  10.222   3.821
73016W        W41390  38.395  42.008  11.924
73017W        W41391  34.370  17.698  12.993
73018W        W41392  24.707  44.887   0.762
73019W        W41393  10.776  29.541   2.899
73020W        W41394  43.515  17.219  11.530
73021W        W41395  28.553  41.994   0.856
73022W        W41396  40.314  37.413   1.850
73023W        W41397  19.655  32.575  12.988
73024W        W41398  33.471  14.148  13.948
73025W        W41399  31.987   2.758   2.190
73026W        W41400  23.719  33.426  11.523
73027W        W41401  24.685  26.145   2.312
73028W        W41402  14.301   1.963   1.857
73029W        W41403  20.238  39.010  13.443
73030W        W41404  27.681  44.479  11.057
73031W        W41405  18.107  31.068   2.362
73032W        W41406  29.633  14.298   1.935
73033W        W41407  28.171  19.553   3.237
73034W        W41408  32.056  16.747   2.404
73035W        W41409  37.352  13.600   4.314
73036W        W41410  21.189   8.811   3.863
73037W        W41411  39.982  15.189  13.410
73038W        W41412  19.656  25.194  13.971
73039W        W41413   9.860  10.240   1.709
73040W        W41414  22.111  24.159  10.914
73041W        W41415  16.711   3.797   4.220
73042W        W41416   3.949  12.337  12.455
73043W        W41417  37.391  37.365  10.013
73044W        W41418  35.856   3.813  13.885
73045W        W41419  13.177  23.630  10.902
73046W        W41420  26.702  43.420   1.762
73047W        W41421   6.243  42.982   5.115
73048W        W41422  24.010   0.262   4.676
73049W        W41423   5.887  11.709   0.406
73050W        W41424  11.800  21.233   2.760
73051W        W41425  40.345  33.472   0.824
73052W        W41426  38.837  13.744  10.113
73053W        W41427  37.026  30.484   0.359
73054W        W41428   1.907  15.780  10.522
73055W        W41429  13.712  27.604  14.478
73056W        W41430   9.149  14.768  14.311
73057W        W41431  16.224  27.478   2.362
73058W        W41432   8.199   1.930   0.313
73059W        W41433  24.157  33.536   9.936
73060W        W41434  39.425   3.271  10.623
73061W        W41435   2.957  19.696   4.793
73062W        W41436  30.033   7.326   4.782
73063W        W41437   7.243  27.510   4.810
73064W        W41438   2.282  42.826   1.432
73065W        W41439  33.033  24.633  11.089
73066W        W41440  26.673  26.988  13.934
73067W        W41441   5.393  21.610   0.322
73068W        W41442  10.365  43.017   0.780
73069W        W41443  44.802  26.615   2.342
73070W        W41444  19.212  12.847   4.831
73071W        W41445  23.688   2.378  14.859
73072W        W41446  42.986  12.200   3.329
73073W        W41447  25.563  16.204  10.503
73074W        W41448   4.791  20.735   0.734
73075W        W41449  41.892  17.242   2.303
73076W        W41450  31.923  32.405   3.826
73077W        W41451  32.885  27.488   1.301
73078W        W41452   9.781  24.209   3.166
73079W        W41453   4.757   1.435  11.984
73080W        W41454  30.489   5.278  12.068
73081W        W41455  17.102  37.486  10.934
73082W        W41456  29.041   0.746   2.299
73083W        W41457  44.359  30.455   1.743
73084W        W41458  33.460  32.061   2.795
73085W        W41459  24.036  38.499  10.406
73086W        W41460   9.656  16.278  11.456
73087W        W41461  33.973  11.285   0.784
73088W        W41462  24.098   4.440   3.321
73089W        W41463   1.241  38.858  11.955
73090W        W41464   3.844   9.185  14.975
73091W        W41465   5.839  30.914   2.224
73092W        W41466  33.106   1.744  14.469
73093W        W41467  44.934  16.577  13.483
73094W        W41468  16.625  20.030   4.695
73095W        W41469  16.722  22.997   2.277
73096W        W41470  14.592  32.463   2.819
73097W        W41471  26.662   7.736  11.566
73098W        W41472  40.954  10.176  14.299
73099W        W41473   3.233   1.467   2.293
73100W        W41474  43.787  26.522  13.501
73101W        W41475  20.534  39.529   3.692
73102W        W41476  17.178   0.328   3.291
73103W        W41477  38.498  31.403   2.789
73104W        W41478  38.371   6.737   1.915
73105W        W41479  26.615  17.287   4.669
73106W        W41480  36.425  13.254   0.923
73107W        W41481  13.725  20.247  11.540
73108W        W41482   5.720  41.811   0.267
73109W        W41483  15.685  29.976  10.435
73110W        W41484   7.340  41.003   2.275
73111W        W41485  38.947  41.500  11.394
73112W        W41486  21.695  13.772   0.323
73113W        W41487   5.809  38.563  10.492
73114W        W41488  26.190  34.451   3.240
73115W        W41489  26.461  40.908   3.828
73116W        W41490   6.808  35.572   0.780
73117W        W41491  37.469   2.379   1.751
73118W        W41492  13.681  10.328   2.722
73119W        W41493  21.224  17.614   2.824
73120W        W41494   0.878   9.175   2.227
73121W        W41495  26.153  26.689   1.694
73122W        W41496   3.839   2.236  11.875
73123W        W41497  20.558  17.214   4.246
73124W        W41498  33.119  30.623  13.906
73125W        W41499  15.264  42.313   4.170
73126W        W41500   9.182  11.365  13.026
73127W        W41501  32.450  20.174   2.782
73128W        W41502  16.222  14.287  14.890
73129W        W41503  22.560  35.008   1.360
73130W        W41504  41.870  40.001  12.373
73131W        W41505  28.172  28.055  14.470
73132W        W41506  23.040  40.878   0.838
73133W        W41507   3.240  30.162   1.288
73134W        W41508   8.797  34.392   1.847
73135W        W41509   3.224   3.798  10.609
73136W        W41510  39.395  29.143  14.488
73137W        W41511  15.727   4.707   0.283
73138W        W41512  14.220  42.480   2.779
73139W        W41513  42.866  17.224  13.857
73140W        W41514  29.595  23.561  10.956
73141W        W41515  17.270   0.935   4.716
73142W        W41516  21.253  41.496   0.842
73143W        W41517  33.470  15.637   5.143
73144W        W41518  24.133  32.069   5.226
73145W        W41519  39.934  38.429  13.509
73146W        W41520  15.820  43.463  10.535
73147W        W41521  36.530  43.872   4.341
73148W        W41522   6.701   3.401   0.942
73149W        W41523  26.119  40.327  11.452
73150W        W41524  25.511   2.791   1.787
73151W        W41525  16.145  27.120   1.847
73152W        W41526  20.221  24.044  12.383
73153W        W41527   5.257  43.919  11.611
73154W        W41528  18.584   1.936   3.864
73155W        W41529  11.731   0.460  13.453
73156W        W41530  20.590  37.937  11.514
73157W        W41531  21.588  34.007   4.250
73158W        W41532  14.305  34.568  13.520
73159W        W41533   1.860  19.680  13.454
73160W        W41534  23.107  44.269   3.752
73161W        W41535  43.854  30.018   4.138
73162W        W41536   0.828  44.340   0.314
73163W        W41537  36.089   3.832   3.868
73164W        W41538  16.701   5.866   0.821
73165W        W41539  34.982  41.909  13.461
73166W        W41540  24.579  22.039  12.440
73167W        W41541  13.295   2.886  13.966
73168W        W41542  19.755  33.388  14.474
73169W        W41543  29.553  41.934  12.057
73170W        W41544   1.863  34.380   0.816
73171W        W41545  11.294  22.135  11.385
73172W        W41546   3.889  12.627   4.124
73173W        W41547   7.378  42.286   3.294
73174W        W41548  17.618   7.310   0.786
73175W        W41549   2.856   1.378   2.217
73176W        W41550  38.935  14.791   4.180
73177W        W41551  25.040   5.335  10.427
73178W        W41552   0.870  14.678   3.739
73179W        W41553  12.776   7.175  10.572
73180W        W41554  11.231  19.247  13.541
73181W        W41555  37.497  24.621  14.456
73182W        W41556   3.267  22.107  14.013
73183W        W41557   6.409  29.016  14.791
73184W        W41558  20.036   0.443  11.556
73185W        W41559  31.955  31.140  11.950
73186W        W41560   9.207  20.589   2.233
73187W        W41561   8.828  18.598  14.992
73188W        W41562  29.085  13.186   0.256
73189W        W41563  37.431  12.167  13.943
73190W        W41564  38.938   6.859  14.990
73191W        W41565  16.169   0.481  11.410
73192W        W41566  36.351   0.750   2.225
73193W        W41567  26.691   0.776  11.018
73194W        W41568  31.114  20.193   4.750
73195W        W41569  39.941  35.387  13.897
73196W        W41570   1.362  33.399   4.258
73197W        W41571  43.465  23.695  14.005
73198W        W41572  24.049  43.960   4.760
73199W        W41573  32.541  41.481   1.276
73200W        W41574  21.083  12.116   4.613
73201W        W41575  43.288  41.000  13.842
73202W        W41576   5.773  14.628   1.283
73203W        W41577   1.333  28.013  10.549
73204W        W41578   4.760  32.482   4.786
73205W        W41579  21.669  34.601   4.284
73206W        W41580  12.358  31.528  14.942
73207W        W41581  16.635  16.136  12.432
73208W        W41582  36.047  35.504   4.135
73209W        W41583  40.450   6.698  14.913
73210W        W41584   9.374  34.544  12.572
73211W        W41585  17.102   6.325   2.309
73212W        W41586  28.935  10.633   3.291
73213W        W41587  20.258  39.846   5.105
73214W        W41588  27.492  42.372  12.877
73215W        W41589  32.455   3.241  10.984
73216W        W41590  11.169   6.278   4.296
73217W        W41591  24.983  34.041  13.908
73218W        W41592  34.509  30.590  13.815
73219W        W41593  43.503  27.947  10.569
73220W        W41594  33.451  27.652  12.470
73221W        W41595   9.229  22.174  12.342
73222W        W41596   3.425  15.786   2.359
73223W        W41597   7.308   7.391  12.552
73224W        W41598  35.547  12.296  11.033
73225W        W41599  16.600  27.074  11.374
73226W        W41600  30.544  13.177   0.921
73227W        W41601  24.632  15.823  10.126
73228W        W41602  21.017  37.558  13.361
73229W        W41603   4.911   3.236  10.589
73230W        W41604   2.956  29.011  10.438
73231W        W41605  44.403   0.764   2.343
73232W        W41606   1.276   6.757   3.206
73233W        W41607  12.835  21.683  13.926
73234W        W41608  19.765  11.334  12.867
73235W        W41609  30.933   2.800   0.954
73236W        W41610   4.772  17.184   3.328
73237W        W41611  20.566  39.008  13.920
73238W        W41612  31.403   3.732  12.994
73239W        W41613  11.344  32.493   2.842
73240W        W41614  31.561   3.875  14.811
73241W        W41615  21.755  41.977   1.763
73242W        W41616  11.803  36.971   1.291
73243W        W41617  27.014  36.890   0.422
73244W        W41618   5.377   6.355   3.654
73245W        W41619  18.136   8.710  11.941
73246W        W41620   2.461  14.658   4.725
73247W        W41621   0.275  14.269   4.338
73248W        W41622  39.518  26.133   4.226
73249W        W41623  10.330  31.581   2.213
73250W        W41624  15.171  44.272   2.722
73251W        W41625  39.007  38.400   2.697
73252W        W41626   6.817  40.020   0.751
73253W        W41627  29.636  30.999  11.883
73254W        W41628  22.720  25.088  13.496
73255W        W41629   3.327   3.796  13.400
73256W        W41630  44.475  11.796  11.405
73257W        W41631  41.360  34.071   0.806
73258W        W41632  32.446   7.372   2.411
73259W        W41633  23.154   3.873   3.178
73260W        W41634  31.919   1.897   3.183
73261W        W41635  38.483   0.898   1.432
73262W        W41636  41.409  16.211   3.256
73263W        W41637  12.195  37.976  10.573
73264W        W41638  22.707  18.729  12.543
73265W        W41639  36.515  17.209  14.026
73266W        W41640  42.777  12.308  14.912
73267W        W41641  10.356  35.979   2.728
73268W        W41642  30.642   7.288  12.823
73269W        W41643  41.917  39.938   2.343
73270W        W41644  26.021  33.420  13.031
73271W        W41645  37.943  23.704  14.459
73272W        W41646  13.218   8.348  13.345
73273W        W41647  26.034  35.389   1.437
73274W        W41648  15.766  15.586   2.274
73275W        W41649  31.470  29.515   1.783
73276W        W41650   3.710  30.657   5.190
73277W        W41651   8.776   2.726  14.788
73278W        W41652  31.479   3.941  10.635
73279W        W41653   6.846  34.077   2.707
73280W        W41654   8.183  12.257  11.065
73281W        W41655  22.540  43.784  10.466
73282W        W41656   7.818  23.115   3.748
73283W        W41657  34.540  32.140   3.858
73284W        W41658  28.117  25.133   0.866
73285W        W41659   2.903  34.595  10.419
73286W        W41660  28.628  32.636  13.893
73287W        W41661  11.690  32.105   3.286
73288W        W41662  21.156  25.683   3.242
73289W        W41663  15.767  42.011  11.517
73290W        W41664  41.836  14.134   3.360
73291W        W41665  38.973  42.449   4.684
73292W        W41666  42.473  17.075   2.722
73293W        W41667  36.362  43.773  11.459
73294W        W41668   6.906   2.763   2.793
73295W        W41669  40.020  32.983  12.432
73296W        W41670  29.610   3.811   4.333
73297W        W41671  25.999  10.226   2.807
73298W        W41672   1.314  21.033   4.240
73299W        W41673  11.266  26.162   2.873
73300W        W41674  24.096  16.147  13.434
73301W        W41675  29.980  18.650  14.301
73302W        W41676   8.800  13.270   1.825
73303W        W41677  31.568   9.887  14.845
73304W        W41678  33.459  31.978   2.314
73305W        W41679  19.619  11.155  11.978
73306W        W41680   3.867  27.461  12.991
73307W        W41681  39.942  31.049   0.437
73308W        W41682  23.685  42.921  11.063
73309W        W41683  18.680  16.637   0.855
73310W        W41684  27.550  24.110  11.921
73311W        W41685  38.984   4.835   4.300
73312W        W41686   2.930  43.417   0.871
73313W        W41687  39.932  20.732   3.220
73314W        W41688  26.136  14.113   5.087
73315W        W41689  31.410  32.041  12.982
73316W        W41690  11.792  18.646  14.457
73317W        W41691  21.607  21.022  14.516
73318W        W41692  36.984  30.566   1.714
73319W        W41693   9.723   5.930   1.235
73320W        W41694  10.290  37.968  10.070
73321W        W41695   9.731  41.803   4.792
73322W        W41696  17.115  39.058  14.766
73323W        W41697  31.407  24.496  13.008
73324W        W41698   9.237   6.202  10.491
73325W        W41699  26.543  36.522  12.824
73326W        W41700  21.729  25.206   4.265
73327W        W41701  41.292  30.580  11.019
73328W        W41702  20.571  22.079   2.183
73329W        W41703  14.755  42.423   0.295
73330W        W41704  31.146  39.527   3.154
73331W        W41705  28.460  41.489   2.744
73332W        W41706  16.249  11.276   3.341
73333W        W41707  33.521  39.815  13.402
73334W        W41708  29.093   7.820  13.326
73335W        W41709  22.208  39.475   1.796
73336W        W41710  34.005  31.614  12.080
73337W        W41711  21.602  36.906   1.741
73338W        W41712  33.593  34.520  10.477
73339W        W41713  19.150   3.857  11.583
73340W        W41714  18.595  28.624   2.188
73341W        W41715  17.676  23.592  14.349
73342W        W41716  16.309  36.970   1.791
73343W        W41717  35.480  14.677  12.051
73344W        W41718  27.088  16.313   2.851
73345W        W41719   8.833  44.353  12.905
73346W        W41720  39.854  26.102  14.032
73347W        W41721   6.254  18.237  10.045
73348W        W41722   7.190   9.206  14.453
73349W        W41723  18.118  21.243  10.453
73350W        W41724  33.920  31.129  14.776
73351W        W41725  14.608  28.109  13.000
73352W        W41726  19.101  42.921  12.414
73353W        W41727  35.866  24.532   1.393
73354W        W41728  20.122   1.440   0.897
73355W        W41729   9.793  28.437   3.281
73356W        W41730  32.591  21.124  10.920
73357W        W41731   3.853  36.891   4.642
73358W        W41732  37.972  30.018   0.262
73359W        W41733   7.375  22.622   2.259
73360W        W41734  31.457   5.842   2.327
73361W        W41735   1.423   0.972   2.815
73362W        W41736  20.536  33.418   0.267
73363W        W41737  35.585  29.609   4.626
73364W        W41738  12.721  13.698   0.867
73365W        W41739  33.505   1.874   1.438
73366W        W41740  12.748   9.386   1.826
73367W        W41741  41.892  12.655   0.476
73368W        W41742  26.087  36.997  14.938
73369W        W41743  29.538   9.198   0.941
73370W        W41744  29.017  37.014   3.229
73371W        W41745  29.141  39.004   4.708
73372W        W41746   9.252  26.982  14.464
73373W        W41747  42.890  15.238   3.271
73374W        W41748   0.254  28.143   4.797
73375W        W41749   4.420   2.888   1.757
73376W        W41750  40.470  42.478  10.997
73377W        W41751  33.392   3.315   1.321
73378W        W41752  17.134  18.602   4.673
73379W        W41753   8.310  29.521   0.428
73380W        W41754  44.001  37.928   4.264
73381W        W41755  42.360  17.716   0.771
73382W        W41756  14.740  15.734  13.505
73383W        W41757  28.602  20.688  12.573
73384W        W41758   5.687  41.453  14.890
73385W        W41759  41.989  20.753   1.334
73386W        W41760  25.695  36.590  12.517
73387W        W41761  18.791  29.036   4.298
73388W        W41762  12.786  15.156  14.970
73389W        W41763  15.580  35.408  14.490
73390W        W41764   4.773  42.783   4.641
73391W        W41765  19.677  18.182  10.999
73392W        W41766   2.312   1.845  11.902
73393W        W41767   1.299  26.567  13.897
73394W        W41768   7.909  39.465   2.716
73395W        W41769  42.936  28.486   0.397
73396W        W41770  27.126  33.482  10.029
73397W        W41771  41.799  12.629  14.347
73398W        W41772  10.360  20.579  10.537
73399W        W41773   8.323  23.611   0.435
73400W        W41774  16.806   3.246   3.272
73401W        W41775  28.053  30.482   0.837
73402W        W41776  11.152  29.120  14.506
73403W        W41777  24.984   4.764  12.498
73404W        W41778  28.623  18.570  12.846
73405W        W41779  10.823  43.458  13.809
73406W        W41780   0.400  32.131   2.766
73407W        W41781  34.100  16.144   0.872
73408W        W41782  29.093  38.539  10.641
73409W        W41783  29.670  37.859  14.794
73410W        W41784   2.785  29.537   0.903
73411W        W41785  17.788  34.922  13.791
73412W        W41786   1.929  26.060   4.767
73413W        W41787  27.481  37.931   4.740
73414W        W41788  21.018  26.609  12.399
73415W        W41789   7.178  19.543   0.894
73416W        W41790  18.257  18.755   4.136
73417W        W41791  40.524   5.803   2.225
73418W        W41792   5.922   4.927   9.582
73419W        W41793  22.683  27.113   4.805
73420W        W41794  40.388  40.490   1.264
73421W        W41795  39.507  34.026   4.605
73422W        W41796  37.925  16.272   4.122
73423W        W41797  15.248  27.452  14.760
73424W        W41798  12.731  23.106  14.475
73425W        W41799  38.998  40.536  14.498
73426W        W41800   4.762  20.746   0.438
73427W        W41801  29.553  38.007  10.507
73428W        W41802   1.889   9.693  13.045
73429W        W41803  15.809  15.187   2.734
73430W        W41804  12.618  31.567  14.373
73431W        W41805  29.138   6.379   3.807
73432W        W41806  11.329  44.494  12.849
73433W        W41807   5.244   6.377  13.036
73434W        W41808   6.888   3.932   0.958
73435W        W41809  32.061  39.539  13.881
73436W        W41810  10.241  44.422  13.427
73437W        W41811   0.363   4.389  10.903
73438W        W41812  28.075  27.524  12.009
73439W        W41813  12.664  31.136  11.376
73440W        W41814  42.891  36.011  14.942
73441W        W41815   4.312   7.309  13.054
73442W        W41816  33.443  32.028  10.437
73443W        W41817  24.984  39.064   0.862
73444W        W41818  22.679  43.347   4.727
73445W        W41819   3.282  26.651   9.997
73446W        W41820  43.414  12.614   4.742
73447W        W41821  13.192  43.021  13.321
73448W        W41822   4.236  42.515  10.936
73449W        W41823  27.098  22.584  14.768
73450W        W41824   8.695  24.192   2.715
73451W        W41825  37.980  27.485   0.408
73452W        W41826  21.602  19.131  12.431
73453W        W41827  19.195  25.641   4.244
73454W        W41828   6.787   4.352  11.068
73455W        W41829  13.217   4.345  13.825
73456W        W41830  16.268  44.362   3.826
73457W        W41831   3.802  32.892  12.493
73458W        W41832  20.724   2.948  10.419
73459W        W41833  24.996   4.828   1.754
73460W        W41834  24.566  37.044   1.819
73461W        W41835  21.122  14.672  12.519
73462W        W41836  20.615  14.146   2.383
73463W        W41837  42.461  40.500   2.189
73464W        W41838  42.834   2.789  11.985
73465W        W41839  41.824  12.700  10.476
73466W        W41840   7.683   2.729   1.395
73467W        W41841  15.698  34.880  12.854
73468W        W41842  10.847   1.440   1.813
73469W        W41843  16.653  14.322  12.873
73470W        W41844  40.801  34.010   2.823
73471W        W41845  30.610  29.486  14.934
73472W        W41846  22.654  30.023  11.992
73473W        W41847  30.455  10.822   0.745
73474W        W41848  38.878   0.304  13.810
73475W        W41849  29.084  16.163  13.005
73476W        W41850  36.474  14.113   5.099
73477W        W41851   0.355   6.829   3.374
73478W        W41852   0.466  16.584  14.331
73479W        W41853  36.067   2.858  12.456
73480W        W41854   8.740   4.786  10.127
73481W        W41855  21.125  10.243   4.613
73482W        W41856   9.388  18.768  13.446
73483W        W41857  34.864  18.188  13.429
73484W        W41858  24.697   5.739  13.988
73485W        W41859  15.211  31.912   0.936
73486W        W41860  23.156   4.760  11.963
73487W        W41861   0.955   8.229   2.785
73488W        W41862  16.292   2.813   3.853
73489W        W41863  39.905  40.882  10.901
73490W        W41864  29.535  41.906   1.313
73491W        W41865  18.275  23.113   0.801
73492W        W41866  18.557  12.799  12.861
73493W        W41867  31.420  38.342   4.273
73494W        W41868   1.935  42.336   3.808
73495W        W41869   0.268  19.074   0.308
73496W        W41870   0.821  34.410   0.927
73497W        W41871  38.027   4.941   2.807
73498W        W41872  37.075  19.266   1.298
73499W        W41873  37.045  10.680  13.009
73500W        W41874  20.091  27.582   0.828
73501W        W41875  38.532  25.183  12.465
73502W        W41876  16.076  42.422   3.716
73503W        W41877   7.682  13.251  13.033
73504W        W41878  34.069   2.870   4.152
73505W        W41879  35.931  35.426   3.746
73506W        W41880  19.075   4.808  13.536
73507W        W41881  32.094  17.209  12.353
73508W        W41882  29.665   2.752   1.783
73509W        W41883   8.348  14.099  14.400
73510W        W41884  25.025   0.873   3.229
73511W        W41885  30.010   1.769   4.811
73512W        W41886  38.835  25.595   1.707
73513W        W41887  10.241  13.197  10.523
73514W        W41888  32.937  41.978  11.915
73515W        W41889  16.589  40.820   3.714
73516W        W41890  30.090  24.168   1.744
73517W        W41891   8.710  28.577   5.316
73518W        W41892  20.741  21.223   4.316
73519W        W41893  29.145  37.015   1.295
73520W        W41894  11.767  12.326  14.964
73521W        W41895  21.755  14.823   4.279
73522W        W41896  21.018   3.761   2.736
73523W        W41897   3.422  37.413   0.855
73524W        W41898  22.682  16.179   1.831
73525W        W41899  27.034   6.758   0.827
73526W        W41900  15.783  16.160   0.912
73527W        W41901   0.947  23.694   5.290
73528W        W41902   2.723  33.411  12.001
73529W        W41903   4.931  13.740   2.687
73530W        W41904  20.093   0.875   0.424
73531W        W41905  10.373  15.697   4.815
73532W        W41906  20.630   2.762   3.696
73533W        W41907  19.537   8.689  12.505
73534W        W41908  36.412  28.539  14.867
73535W        W41909   5.391  42.000   1.707
73536W        W41910   3.874   5.909  10.409
73537W        W41911  42.496  19.758   2.206
73538W        W41912   1.747  26.123  13.958
73539W        W41913   0.333   4.906  10.989
73540W        W41914  43.857  25.483  14.766
73541W        W41915  13.686  40.880   0.263
73542W        W41916  24.139  19.162  13.044
73543W        W41917   8.837  36.988   2.833
73544W        W41918  26.164  21.660  13.410
73545W        W41919  36.972  29.046   1.301
73546W        W41920  16.096  42.312  14.032
73547W        W41921  23.126   1.419   4.354
73548W        W41922   4.380  16.660   2.663
73549W        W41923  11.191  36.858  12.842
73550W        W41924  24.672  43.982   0.886
73551W        W41925   6.372  23.539  11.524
73552W        W41926   4.348  43.488   0.386
73553W        W41927  23.094  40.330   3.681
73554W        W41928   4.391  37.375  12.912
73555W        W41929  20.163  12.622   3.798
73556W        W41930  33.560  40.836  14.373
73557W        W41931  12.738  25.559  14.804
73558W        W41932  37.534  35.396   3.698
73559W        W41933   5.829  11.236   2.268
73560W        W41934  37.894  32.046   0.408
73561W        W41935  35.063  44.903   4.285
73562W        W41936  18.214  37.551   2.295
73563W        W41937  25.556  12.296   1.910
73564W        W41938  31.003   8.204  12.542
73565W        W41939  28.585  16.108   2.398
73566W        W41940  40.517  22.696  10.909
73567W        W41941  15.287   6.404   3.155
73568W        W41942   7.221  26.107   0.419
73569W        W41943  20.647  34.962  14.920
73570W        W41944   2.948  34.929   2.892
73571W        W41945  32.986  31.582  14.470
73572W        W41946   0.398   1.366  12.420
73573W        W41947  17.081  17.635  12.996
73574W        W41948   1.972  44.263   0.463
73575W        W41949  39.401  32.597   4.708
73576W        W41950  18.563  35.590   3.830
73577W        W41951  42.503  28.944   1.375
73578W        W41952  22.218  21.745   2.303
73579W        W41953   9.259   3.272   1.284
73580W        W41954  23.605  22.519   1.729
73581W        W41955   6.686  20.672   1.804
73582W        W41956  40.312  22.161  14.914
73583W        W41957  15.221  23.694   0.958
73584W        W41958  23.060  25.181  11.947
73585W        W41959   8.728  13.621   3.261
73586W        W41960  41.426   1.925   3.264
73587W        W41961  10.145  41.325  14.975
73588W        W41962   4.908  42.819  10.902
73589W        W41963  41.449  21.118   3.737
73590W        W41964  25.634  11.228  10.525
73591W        W41965   9.339  26.177  13.527
73592W        W41966   9.705  19.548   3.691
73593W        W41967   5.208  28.082   4.279
73594W        W41968  27.081   2.791   4.806
73595W        W41969  38.445  30.542   0.363
73596W        W41970  11.367  18.658   3.296
73597W        W41971  43.016  16.254  14.360
73598W        W41972  27.074  42.501  14.892
73599W        W41973  43.303  31.574   0.354
73600W        W41974  22.658  17.108   1.719
73601W        W41975   8.684  32.411  14.387
73602W        W41976  34.519   0.376   2.883
73603W        W41977  23.731  11.332   2.339
73604W        W41978  17.643  24.615  11.875
73605W        W41979  13.273  35.430  11.477
73606W        W41980  38.393   5.817   1.798
73607W        W41981  12.768  12.237  11.593
73608W        W41982  15.680   0.418  14.444
73609W        W41983  40.909  33.962   1.447
73610W        W41984  40.895   2.802  14.431
73611W        W41985  41.029  35.505  13.944
73612W        W41986  27.970  20.143  14.323
73613W        W41987  34.026  16.109   1.828
73614W        W41988  38.000  40.926  10.896
73615W        W41989  34.912  31.641  13.463
73616W        W41990   0.806  17.608  10.576
73617W        W41991  16.230  36.947  12.956
73618W        W41992  42.430  25.149   4.781
73619W        W41993   0.440  19.578  10.445
73620W        W41994  11.727  12.276  11.997
73621W        W41995  15.190   5.788   1.263
73622W        W41996  12.815  31.586  11.990
73623W        W41997   3.221  38.905   3.849
73624W        W41998  26.181  30.957   3.763
73625W        W41999  18.776  41.865   0.924
73626W        W42000   6.371   4.748   2.389
73627W        W42001  33.989  21.072  11.966
73628W        W42002  32.908   7.390  14.861
73629W        W42003  25.637   5.803   2.199
73630W        W42004   2.898  32.493   4.247
73631W        W42005  39.556  40.394  12.923
73632W        W42006  20.158   1.380   3.751
73633W        W42007  42.890  34.866   0.834
73634W        W42008  30.033   4.231  14.968
73635W        W42009   1.439  19.572  14.499
73636W        W42010  34.873  17.715   1.916
73637W        W42011   6.721  37.078   3.710
73638W        W42012   7.730  35.040   1.801
73639W        W42013  11.643  38.874   3.165
73640W        W42014   7.215   5.914  14.365
73641W        W42015   6.212  44.298  11.479
73642W        W42016   6.888  27.999   1.291
73643W        W42017  22.667  42.416  14.278
73644W        W42018  33.074   4.223   4.230
73645W        W42019  32.608  22.080  11.438
73646W        W42020  29.043   6.816  13.815
73647W        W42021  15.204   3.731  12.565
73648W        W42022  39.954   8.825  14.887
73649W        W42023  41.853  15.742  10.034
73650W        W42024  16.197  32.407  12.471
73651W        W42025   3.383   9.836  13.314
73652W        W42026  26.117  38.541  12.500
73653W        W42027  26.020  14.604   1.875
73654W        W42028   0.356  17.625   1.432
73655W        W42029  23.570  25.978  12.393
73656W        W42030  43.965   9.732   4.131
73657W        W42031   3.250  41.881  14.394
73658W        W42032  11.226  14.717  13.470
73659W        W42033  32.417  40.482  14.338
73660W        W42034  27.491  28.645  13.974
73661W        W42035  34.965  38.927   2.232
73662W        W42036   2.817  15.243   0.426
73663W        W42037  41.373   4.902   4.203
73664W        W42038   7.338   0.320  12.904
73665W        W42039  26.574   1.971  11.963
73666W        W42040  32.457  33.599  12.531
73667W        W42041  36.966  42.781   4.649
73668W        W42042   6.680   3.244  11.386
73669W        W42043  16.585  44.486  13.520
73670W        W42044   7.174   5.277   2.184
73671W        W42045   0.910   4.730   1.381
73672W        W42046  20.632  24.163   4.144
73673W        W42047  16.668  38.529   0.876
73674W        W42048  33.593  23.075  12.465
73675W        W42049  35.927   9.165   2.852
73676W        W42050  25.202  12.756   0.884
73677W        W42051  17.270   6.838  12.550
73678W        W42052  30.561   8.345  14.486
73679W        W42053   7.353  25.693   9.990
73680W        W42054  21.254   2.330  10.992
73681W        W42055  16.748   9.173  14.507
73682W        W42056  41.460  33.040   2.354
73683W        W42057  33.945  41.336   2.887
73684W        W42058  20.234  10.687  14.029
73685W        W42059  39.905   4.921   3.808
73686W        W42060  31.546  10.865  11.946
73687W        W42061   8.249  31.483   2.770
73688W        W42062  23.141  39.455  10.110
73689W        W42063  41.922  39.857   1.362
73690W        W42064  30.118  41.848  14.891
73691W        W42065  25.654  44.812   0.834
73692W        W42066  35.079  43.979   4.180
73693W        W42067  15.677   2.932   1.903
73694W        W42068  43.428  16.801  12.391
73695W        W42069   2.428  29.137  13.312
73696W        W42070  10.808  21.582   0.732
73697W        W42071  27.582  29.116  13.433
73698W        W42072   4.321  37.470  12.009
73699W        W42073  25.593  17.273   3.726
73700W        W42074   5.326  19.660   4.809
73701W        W42075  34.409  18.662  13.877
73702W        W42076  43.788  33.092   2.233
73703W        W42077  44.989  30.552  11.453
73704W        W42078   4.261  39.840  10.904
73705W        W42079  44.376   2.358   4.834
73706W        W42080  32.957  12.264  12.353
73707W        W42081  20.761   8.697  14.508
73708W        W42082  34.973  42.821  11.010
73709W        W42083   6.811  40.409  11.003
73710W        W42084  34.496  41.840  11.924
73711W        W42085  18.222  24.162  14.449
73712W        W42086  36.066   8.343   0.945
73713W        W42087   3.734  16.654  13.797
73714W        W42088  28.986  36.056  11.028
73715W        W42089   4.835   6.193  14.471
73716W        W42090   4.937  17.270   0.455
73717W        W42091   7.417  26.124  13.043
73718W        W42092  35.474  10.187  12.381
73719W        W42093  25.711  23.023  14.886
73720W        W42094  25.109  28.450  14.386
73721W        W42095  37.446  11.181  10.060
73722W        W42096   8.270  24.192   4.320
73723W        W42097  33.615  41.904   3.673
73724W        W42098  29.976  22.062   0.876
73725W        W42099   6.277  25.962  10.963
73726W        W42100  31.133  13.106  11.457
73727W        W42101  37.372  26.062   0.857
73728W        W42102  22.549  11.363  14.309
73729W        W42103   0.436   1.475  14.395
73730W        W42104  38.530  29.476   3.789
73731W        W42105   6.319  36.385  12.479
73732W        W42106  36.366  30.566   5.122
73733W        W42107   1.931   3.416  14.805
73734W        W42108  22.123   3.813  13.937
73735W        W42109  31.533  24.065   2.685
73736W        W42110  42.032   8.394   0.923
73737W        W42111   6.871  26.478   2.814
73738W        W42112   0.415  34.552  13.894
73739W        W42113  18.619  26.512  11.864
73740W        W42114  42.488  17.221  12.479
73741W        W42115  25.208  44.946   2.699
73742W        W42116  32.050  34.496  11.104
73743W        W42117  31.942  37.959  14.499
73744W        W42118  22.700  14.824   2.403
73745W        W42119  20.644  23.720   1.839
73746W        W42120   6.375  43.311   0.751
73747W        W42121  20.722  19.169   4.598
73748W        W42122  36.988  11.322  13.857
73749W        W42123   0.752  24.509  14.475
73750W        W42124  16.076  44.342  13.928
73751W        W42125  15.785   4.400  14.974
73752W        W42126   3.430   1.381   2.745
73753W        W42127  18.671  15.815  11.497
73754W        W42128   0.866  30.917   1.281
73755W        W42129  33.899  12.633   0.789
73756W        W42130  26.646  21.074  14.952
73757W        W42131  20.582  34.605  14.826
73758W        W42132   0.987  27.082   2.398
73759W        W42133   1.959   4.910   0.741
73760W        W42134  24.092  17.638  13.880
73761W        W42135   4.326  37.509  11.517
73762W        W42136  11.817  39.937   3.798
73763W        W42137  41.384  15.150  12.829
73764W        W42138  44.496  18.577   2.390
73765W        W42139  22.051  12.182   0.328
73766W        W42140  26.074  13.766   2.247
73767W        W42141  21.731  36.497   3.325
73768W        W42142  16.802  36.002   2.336
73769W        W42143   5.238   2.279  12.435
73770W        W42144  13.828  30.600  11.387
73771W        W42145   7.793  19.718  10.039
73772W        W42146  39.539  31.091   2.334
73773W        W42147   4.211  32.974  11.095
73774W        W42148  32.904  42.301   1.907
73775W        W42149  16.085  13.292  13.905
73776W        W42150  16.238  32.508  14.929
73777W        W42151  15.202  40.376  11.068
73778W        W42152   9.689  35.447   2.831
73779W        W42153  25.690  33.901  13.034
73780W        W42154  24.984  10.142  12.848
73781W        W42155  41.940   9.341   1.728
73782W        W42156  29.028   1.459   0.309
73783W        W42157  16.586  33.928   0.883
73784W        W42158  15.695   3.946  11.061
73785W        W42159  42.410  33.467  12.867
73786W        W42160  31.487  33.416  14.866
73787W        W42161  19.752  18.236  11.941
73788W        W42162  39.372  39.399   0.414
73789W        W42163  27.973  25.092  11.460
73790W        W42164  30.655  37.975   1.856
73791W        W42165  33.408  38.345   2.309
73792W        W42166   0.946  25.124  11.103
73793W        W42167  19.645  22.188   3.164
73794W        W42168  15.207  21.640  14.007
73795W        W42169  17.758  27.102   4.114
73796W        W42170   2.961  32.588   2.788
73797W        W42171  13.350  28.044  11.985
73798W        W42172  17.297   8.859  11.534
73799W        W42173  36.354  24.682   4.332
73800W        W42174  17.279   2.959  14.383
73801W        W42175  38.999  23.734  10.421
73802W        W42176   7.671  35.587  13.977
73803W        W42177   8.394  32.582  14.832
73804W        W42178  39.899  27.100  14.891
73805W        W42179   3.851  32.528  11.120
73806W        W42180  24.681   5.332   3.772
73807W        W42181  44.366  23.673   4.797
73808W        W42182  42.939  36.533   0.748
73809W        W42183  12.725  15.744   2.899
73810W        W42184   6.365  41.323  14.309
73811W        W42185   5.411   8.323  12.897
73812W        W42186  28.441  44.906  11.858
73813W        W42187  29.435  15.756   3.296
73814W        W42188  44.307  14.187  14.998
73815W        W42189  38.456  23.522  12.829
73816W        W42190   9.818  31.101  14.963
73817W        W42191  26.048  40.009   3.868
73818W        W42192  33.053  27.025  12.028
73819W        W42193  32.620  35.894   1.359
73820W        W42194  44.962  31.014   3.835
73821W        W42195  23.143  27.519   2.251
73822W        W42196  35.527  39.046  11.047
73823W        W42197  26.615   6.765   4.793
73824W        W42198  35.604  20.557   2.812
73825W        W42199  16.149  16.096  12.368
73826W        W42200  13.782  14.669  13.899
73827W        W42201  19.614   6.380  14.450
73828W        W42202  14.621   9.716  10.902
73829W        W42203  34.399  32.619  13.433
73830W        W42204  14.111   5.233  11.400
73831W        W42205  28.075  25.993  14.312
73832W        W42206  21.676  34.107  11.403
73833W        W42207   1.934  34.952  13.464
73834W        W42208  43.285  11.820   0.390
73835W        W42209  11.313  11.312  12.512
73836W        W42210  14.288  13.238   1.731
73837W        W42211  15.279  20.268  13.827
73838W        W42212  36.393  26.616  14.791
73839W        W42213  43.866  40.413  12.072
73840W        W42214   4.333   0.767  12.459
73841W        W42215  43.980  21.177  14.809
73842W        W42216  16.753  21.084   0.391
73843W        W42217   5.417   8.323  13.944
73844W        W42218  33.470  28.658   4.306
73845W        W42219  12.842  39.060   1.750
73846W        W42220  23.565  28.060   2.682
73847W        W42221   4.737  37.867  11.397
73848W        W42222  37.981  39.873   0.772
73849W        W42223  22.036  17.572  10.955
73850W        W42224   4.399  37.986   2.370
73851W        W42225   6.299   3.729   3.181
73852W        W42226   8.188  42.025   3.196
73853W        W42227  39.328  34.475  11.950
73854W        W42228  32.121  12.710   1.810
73855W        W42229  30.915   6.847  12.370
73856W        W42230  35.983  36.059   4.781
73857W        W42231  21.040   2.294   4.201
73858W        W42232  14.177  32.449   4.823
73859W        W42233   1.323  43.285  11.468
73860W        W42234  24.498   0.461  14.922
73861W        W42235  42.000   7.337   2.832
73862W        W42236  40.486  28.142   1.781
73863W        W42237  31.438  40.054   1.847
73864W        W42238  24.598  37.848  12.966
73865W        W42239  13.680  38.978   3.208
73866W        W42240  29.136  39.479   4.190
73867W        W42241   0.258  38.491  11.565
73868W        W42242  16.137   9.349   2.839
73869W        W42243  41.485  11.270   2.246
73870W        W42244  31.601  31.059  14.351
73871W        W42245  10.829  14.728  14.483
73872W        W42246  34.455  13.721   0.840
73873W        W42247  43.273  28.088   3.373
73874W        W42248  10.856  10.336   3.829
73875W        W42249   5.402  38.861  11.956
73876W        W42250  31.999  43.793   3.855
73877W        W42251  29.132  20.080  14.809
73878W        W42252   3.736  17.243  10.575
73879W        W42253  29.570  35.568  12.372
73880W        W42254  27.525   2.917   4.209
73881W        W42255   7.191   3.825   4.134
73882W        W42256  43.862  44.998   0.919
73883W        W42257  25.200  44.922  11.880
73884W        W42258  40.547   9.240   0.286
73885W        W42259  14.833  13.112  13.508
73886W        W42260  27.035  33.610  11.952
73887W        W42261  13.811  29.164  14.311
73888W        W42262  31.999   9.327  11.440
73889W        W42263  11.263  13.628   1.900
73890W        W42264  35.486  40.928  11.107
73891W        W42265  32.089  12.745  14.421
73892W        W42266  41.415  17.605   4.781
73893W        W42267  27.137   2.946   3.676
73894W        W42268  39.882  30.981  14.315
73895W        W42269   9.189   7.334   3.841
73896W        W42270  20.535   2.950  14.428
73897W        W42271  24.669  14.606   1.262
73898W        W42272  35.522  19.116  14.283
73899W        W42273   5.192  11.690  11.068
73900W        W42274  34.516  44.268   1.247
73901W        W42275   3.837  35.377  11.600
73902W        W42276  21.634  23.201  12.860
73903W        W42277  42.505  31.402  14.773
73904W        W42278  12.673  42.299   2.222
73905W        W42279  19.124  18.569   3.784
73906W        W42280  31.643  15.734  11.021
73907W        W42281  10.326  22.034  14.312
73908W        W42282  26.685  26.547  14.994
73909W        W42283  44.007  26.093   1.313
73910W        W42284  16.782  17.148  12.846
73911W        W42285  25.646  44.486   2.310
73912W        W42286  17.602  44.987  14.001
73913W        W42287   0.849  11.804   4.120
73914W        W42288  38.544   2.758   4.600
73915W        W42289  14.172   7.901  12.028
73916W        W42290   1.860  21.736   3.706
73917W        W42291  34.374  37.560   3.326
73918W        W42292  16.802  15.780   4.760
73919W        W42293  10.190   1.744  10.065
73920W        W42294  25.666  15.709   2.879
73921W        W42295  23.554   1.774   1.308
73922W        W42296  37.891  15.206   0.376
73923W        W42297  40.419  19.058  11.453
73924W        W42298  33.444  29.051   0.471
73925W        W42299  29.962  31.565   0.743
73926W        W42300   1.258  34.896   3.150
73927W        W42301   6.280  25.676  10.533
73928W        W42302  29.918  44.351   1.835
73929W        W42303  16.596  41.337  12.085
73930W        W42304  38.853  26.463   9.956
73931W        W42305  18.144  23.146   3.846
73932W        W42306   0.791  21.570  12.969
73933W        W42307  36.078  43.377   0.922
73934W        W42308  41.383  15.193   4.196
73935W        W42309  23.231  33.972   4.652
73936W        W42310  27.035  31.038  14.855
73937W        W42311  23.659  43.806  11.573
73938W        W42312  20.570  21.750   4.252
73939W        W42313  18.679  25.188  12.355
73940W        W42314  39.811  27.042   0.806
73941W        W42315  23.098  25.616  11.509
73942W        W42316   7.721  27.653   2.795
73943W        W42317  26.537  20.564  12.380
73944W        W42318  29.918  43.308   1.446
73945W        W42319  30.489  15.137   4.282
73946W        W42320  22.610   6.240   4.636
73947W        W42321  14.185  16.163  10.509
73948W        W42322  38.353  10.809   4.611
73949W        W42323  27.186   9.217   2.663
73950W        W42324   7.833  25.026   3.191
73951W        W42325  40.915  44.906  13.914
73952W        W42326  28.941   1.318  14.280
73953W        W42327  20.173  31.480  10.934
73954W        W42328   3.786  35.041   4.696
73955W        W42329   9.151   7.404  12.843
73956W        W42330  27.472  23.179  10.947
73957W        W42331  34.390  39.901  12.914
73958W        W42332  42.942   8.871  12.078
73959W        W42333  15.134  42.826   3.217
73960W        W42334  38.488  37.007  13.919
73961W        W42335  17.215  29.039   1.853
73962W        W42336  10.186  25.076  10.544
73963W        W42337   8.226  37.423  10.087
73964W        W42338   7.372  29.613   3.649
73965W        W42339  21.707  43.772   0.913
73966W        W42340  33.071   0.262   1.412
73967W        W42341  43.843  17.282  11.059
73968W        W42342  40.043  31.917  14.350
73969W        W42343  24.622   2.419   2.717
73970W        W42344  39.505   2.854   4.126
73971W        W42345  35.101   7.406  12.341
73972W        W42346  26.999   1.738  10.929
73973W        W42347  22.605   7.186  12.079
73974W        W42348  43.965  23.495   4.287
73975W        W42349  34.008   0.249  10.952
73976W        W42350  20.618  23.089   3.690
73977W        W42351  19.207  30.950  13.426
73978W        W42352  24.717  21.569   1.700
73979W        W42353  25.070  18.064   4.346
73980W        W42354   1.844  14.824  14.969
73981W        W42355  28.973   2.825  12.341
73982W        W42356  26.969   5.341  11.052
73983W        W42357  10.721  16.133   1.774
73984W        W42358  10.302  17.120   3.279
73985W        W42359  22.199  35.875  11.594
73986W        W42360  37.375  34.997  12.900
73987W        W42361  31.978  37.867  11.932
73988W        W42362  13.689  42.476  12.454
73989W        W42363  31.079  21.046  10.058
73990W        W42364  19.731  36.399   5.096
73991W        W42365  20.752  16.292   0.759
73992W        W42366  40.039   2.472  13.834
73993W        W42367  20.093  31.932   4.163
73994W        W42368  13.739  24.000  13.364
73995W        W42369  39.497  23.640  13.817
73996W        W42370  33.566  18.066  12.054
73997W        W42371  19.133  20.624   4.625
73998W        W42372  29.919  31.949  11.920
73999W        W42373  27.964  23.546   1.329
74000W        W42374  32.948  21.654   4.352
74001W        W42375  12.152  11.676   4.145
74002W        W42376  43.854  41.014  14.770
74003W        W42377  42.936   7.793  10.575
74004W        W42378  27.472   1.407   3.859
74005W        W42379  41.498  23.026   0.789
74006W        W42380   2.965  12.349   0.443
74007W        W42381  28.086  28.058  13.913
74008W        W42382  28.532  22.605  14.283
74009W        W42383  29.514  34.895  11.969
74010W        W42384  17.707  27.031   4.735
74011W        W42385  23.688  29.959   4.675
74012W        W42386  23.624  12.799  14.828
74013W        W42387  43.363   0.930  12.058
74014W        W42388  11.251  43.916  11.557
74015W        W42389  32.140   3.793  14.974
74016W        W42390  13.156  37.419  12.936
74017W        W42391   9.205  22.125  14.776
74018W        W42392  21.227  42.784   2.242
74019W        W42393   2.789  30.125  14.323
74020W        W42394  22.526  29.533   0.934
74021W        W42395  43.790  14.741   1.860
74022W        W42396  37.988  36.407  14.830
74023W        W42397  20.671  41.974   2.224
74024W        W42398  34.897  27.568  10.520
74025W        W42399  22.638  16.612  10.508
74026W        W42400   6.305  30.972  11.474
74027W        W42401  23.652   8.176   1.237
74028W        W42402  39.903  10.791  12.567
74029W        W42403  33.000  37.965   1.900
74030W        W42404   2.943  27.987   1.340
74031W        W42405  38.401  16.252   4.803
74032W        W42406  34.513   4.322   2.701
74033W        W42407  17.772  29.599   2.389
74034W        W42408   0.432  13.183   0.920
74035W        W42409  41.420  43.877  11.491
74036W        W42410  28.589  22.687  11.437
74037W        W42411  35.379  38.949  10.522
74038W        W42412  42.365  26.535   4.641
74039W        W42413   4.881  44.868  12.538
74040W        W42414  22.648   2.877   1.847
74041W        W42415  10.755  42.336  12.578
74042W        W42416  11.864  40.452  13.050
74043W        W42417  40.334  29.641   0.299
74044W        W42418  28.451  13.707   3.824
74045W        W42419  30.593  37.885   4.646
74046W        W42420   1.966  41.897  10.579
74047W        W42421  38.009  24.061   2.835
74048W        W42422  23.618  37.066  10.409
74049W        W42423   1.830  20.031   1.386
74050W        W42424  18.560   2.741   1.694
74051W        W42425  13.719  27.040   4.663
74052W        W42426  30.524  34.966   0.404
74053W        W42427   7.179  35.903  12.553
74054W        W42428  17.132  30.617   2.684
74055W        W42429  31.468   3.309   1.804
74056W        W42430  38.541  42.287  10.450
74057W        W42431   5.871  16.133   0.363
74058W        W42432  40.986  18.172   1.814
74059W        W42433  28.675  11.212   4.346
74060W        W42434  44.405  28.028  14.312
74061W        W42435  37.415  40.043   2.838
74062W        W42436  29.567  11.834   3.632
74063W        W42437  22.999  10.375   0.346
74064W        W42438  25.657  19.727  14.284
74065W        W42439  22.698  18.772   4.737
74066W        W42440   1.257  18.225  10.937
74067W        W42441  17.638  40.963   4.717
74068W        W42442  31.009  17.294  12.517
74069W        W42443  29.145   0.902  14.485
74070W        W42444  40.028  23.565  10.548
74071W        W42445  31.925  17.734   4.193
74072W        W42446  21.591  17.755  11.563
74073W        W42447   9.880  44.947   3.645
74074W        W42448  39.329  28.565  11.373
74075W        W42449  35.945  25.605  12.034
74076W        W42450  40.397  11.347  12.969
74077W        W42451   4.317  17.610  14.466
74078W        W42452  39.460  31.040  14.433
74079W        W42453   1.436  40.524   0.927
74080W        W42454  27.031  33.572  10.444
74081W        W42455  28.032  18.662  14.382
74082W        W42456  18.638  37.973   0.769
74083W        W42457  23.103   8.237   0.305
74084W        W42458  11.666  33.582   4.326
74085W        W42459  31.603  25.161   3.262
74086W        W42460  22.223  34.991   2.671
74087W        W42461  26.629  27.953   4.631
74088W        W42462  42.969  43.472  12.023
74089W        W42463  29.965  22.146  12.850
74090W        W42464  31.996   1.752   0.320
74091W        W42465  34.996   5.779  10.931
74092W        W42466  27.970  21.645  10.961
74093W        W42467  21.614  25.607  11.962
74094W        W42468  34.101  34.535   3.230
74095W        W42469  23.668  42.518   0.883
74096W        W42470   9.261  35.485  12.876
74097W        W42471   5.340  12.209   3.216
74098W        W42472  24.182   8.394  10.550
74099W        W42473  30.097  31.419  11.011
74100W        W42474  13.325  35.999   2.227
74101W        W42475  12.360  15.620   2.784
74102W        W42476  23.626  22.190   4.342
74103W        W42477  26.057  17.709  11.442
74104W        W42478   7.173  20.243   4.707
74105W        W42479   8.263  17.731   4.204
74106W        W42480   3.915  17.704   4.721
74107W        W42481  27.181  31.486   3.219
74108W        W42482  42.804  40.490  12.441
74109W        W42483  29.579   8.190  13.368
74110W        W42484  32.429  38.847  13.411
74111W        W42485  37.999  28.066  14.013
74112W        W42486  44.286  27.673   3.745
74113W        W42487   2.358  20.195  11.910
74114W        W42488  27.601   2.311  11.067
74115W        W42489   6.919  18.777  14.460
74116W        W42490  38.016  31.570  14.339
74117W        W42491  14.702  18.228  14.405
74118W        W42492  31.442  33.537   1.339
74119W        W42493   2.797  36.891   1.226
74120W        W42494  42.775  16.271  13.880
74121W        W42495  19.090   3.791  13.462
74122W        W42496  20.036  13.741   2.254
74123W        W42497  25.007  23.597  13.401
74124W        W42498  43.387   7.171   2.334
74125W        W42499  42.461  13.711  13.034
74126W        W42500  25.641  44.478  12.858
74127W        W42501  13.614  42.508  10.628
74128W        W42502  37.840  42.839  13.024
74129W        W42503   5.894  24.061   0.776
74130W        W42504   8.739   9.862   1.881
74131W        W42505  31.077  36.950   0.406
74132W        W42506  33.124  37.544  10.143
74133W        W42507  28.044   4.792  12.853
74134W        W42508  15.678  39.428  14.909
74135W        W42509  18.053  28.463  12.064
74136W        W42510  20.681  38.883  11.957
74137W        W42511  17.800  44.773   1.431
74138W        W42512  30.109  24.602  10.547
74139W        W42513  15.719  41.313  14.355
74140W        W42514  29.551  27.450  11.419
74141W        W42515  28.475  36.503   4.707
74142W        W42516  20.604   2.430  10.961
74143W        W42517  14.287  28.467   2.300
74144W        W42518  41.405  39.314  14.985
74145W        W42519  14.669   4.209   1.833
74146W        W42520  31.545  34.068  11.032
74147W        W42521   1.251  19.227  11.049
74148W        W42522  15.767  20.731  11.100
74149W        W42523  16.294  28.107  10.531
74150W        W42524   7.759  21.087   1.791
74151W        W42525   4.851  32.558  11.438
74152W        W42526   0.401  14.790   3.789
74153W        W42527   7.323  40.861  14.295
74154W        W42528  32.141  36.864   3.273
74155W        W42529  15.241  36.933  10.898
74156W        W42530  41.416  23.671  13.052
74157W        W42531  24.537  14.255  12.883
74158W        W42532   9.794  18.601  13.822
74159W        W42533  26.168  14.829  12.405
74160W        W42534  23.016  44.400   1.416
74161W        W42535  41.480  30.658   0.882
74162W        W42536  37.431  26.584  11.957
74163W        W42537  16.234  28.944   0.816
74164W        W42538   0.849  27.185  11.993
74165W        W42539  29.951  29.059  14.855
74166W        W42540  27.511  28.045  13.038
74167W        W42541  19.093  36.028  12.559
74168W        W42542  39.356  11.754  10.422
74169W        W42543  14.696   6.348   4.300
74170W        W42544  19.097  38.007   3.291
74171W        W42545  36.576  10.296  13.061
74172W        W42546  13.838  19.752  10.482
74173W        W42547  20.111  44.476  11.916
74174W        W42548  18.728  39.017   1.286
74175W        W42549  23.542  34.495  11.514
74176W        W42550  16.148  39.011   1.234
74177W        W42551  34.095  18.769   2.321
74178W        W42552  35.448   4.730   2.752
74179W        W42553  11.233   7.205   1.920
74180W        W42554  37.419   5.348   2.355
74181W        W42555  27.615  37.433  14.955
74182W        W42556  14.148   3.885  12.044
74183W        W42557  26.530  44.955   2.791
74184W        W42558  25.576  10.193  13.889
74185W        W42559  11.371   9.151  14.822
74186W        W42560  27.031  39.054   2.878
74187W        W42561   6.905  11.254  11.010
74188W        W42562  16.236  31.018  13.409
74189W        W42563   8.191  26.527  10.979
74190W        W42564   2.966  16.265   0.269
74191W        W42565  39.444  21.644  14.905
74192W        W42566  31.989  18.673  12.454
74193W        W42567  37.476  26.614  10.949
74194W        W42568   7.891  31.103   9.632
74195W        W42569  35.410   0.339  14.880
74196W        W42570  44.960  40.401  11.471
74197W        W42571  43.426  32.053  14.280
74198W        W42572  26.504  38.058  12.065
74199W        W42573  41.832   7.346   9.931
74200W        W42574   0.349  27.614   4.698
74201W        W42575   2.941  15.739   0.403
74202W        W42576  12.731  41.877   3.184
74203W        W42577  32.079   8.321  11.899
74204W        W42578  42.828  35.870   3.643
74205W        W42579  24.515  39.019  14.827
74206W        W42580  18.645  34.120  10.957
74207W        W42581  24.045  35.405  11.532
74208W        W42582  41.023  11.232   0.318
74209W        W42583   7.244  11.262   3.235
74210W        W42584   0.798  36.557   4.147
74211W        W42585  18.266  22.746  10.592
74212W        W42586  20.566  26.465   3.152
74213W        W42587  15.664  43.490   4.633
74214W        W42588   5.392  20.711  11.586
74215W        W42589  13.796  16.197   0.901
74216W        W42590  41.391  18.282   3.833
74217W        W42591  12.709  35.990  12.379
74218W        W42592  18.204  26.184   2.829
74219W        W42593   6.888  33.993  14.401
74220W        W42594   2.250  26.112   3.727
74221W        W42595   6.728  12.785   0.883
74222W        W42596  40.478  25.154   1.935
74223W        W42597  11.137  13.735  14.397
74224W        W42598  29.436  24.501   3.338
74225W        W42599  25.568   9.200  11.465
74226W        W42600  31.632  11.184  13.312
74227W        W42601  14.755   7.842  13.488
74228W        W42602  10.803  37.956  10.445
74229W        W42603   7.824  31.590  13.310
74230W        W42604  12.170   0.492  11.396
74231W        W42605  28.642   1.309  11.048
74232W        W42606   6.288  13.659  13.397
74233W        W42607  19.086   9.233   4.285
74234W        W42608  20.273   5.215   2.335
74235W        W42609  24.155  24.688  10.960
74236W        W42610  22.058  12.289   2.240
74237W        W42611   8.245  19.762  13.910
74238W        W42612  15.610  28.185   5.256
74239W        W42613  12.127  21.083   2.237
74240W        W42614   6.922  13.158   2.213
74241W        W42615   8.375  35.440  13.374
74242W        W42616  20.651   9.367  12.568
74243W        W42617  10.206  43.507  13.005
74244W        W42618  43.438  30.132  12.579
74245W        W42619   9.162  29.513   3.234
74246W        W42620  32.419  19.258   1.725
74247W        W42621   9.323  26.631  13.998
74248W        W42622  25.544  25.672  14.979
74249W        W42623  38.532   6.825  12.489
74250W        W42624  30.056   1.914   0.963
74251W        W42625  30.084  29.045  11.427
74252W        W42626  10.730   2.896   2.250
74253W        W42627  32.980  20.208   0.915
74254W        W42628   9.244  26.185  10.617
74255W        W42629  12.274  30.988   2.831
74256W        W42630   1.944  17.137  13.990
74257W        W42631  13.642   7.201   4.681
74258W        W42632  36.047  39.004  10.585
74259W        W42633  17.283  28.057   0.246
74260W        W42634  43.796  34.092  12.367
74261W        W42635   9.162  18.124  14.917
74262W        W42636  16.084  11.780  12.477
74263W        W42637  22.193  14.319   0.904
74264W        W42638   3.924  13.153  14.324
74265W        W42639  14.766  44.922   4.836
74266W        W42640   3.865   2.936   0.366
74267W        W42641   7.247  22.048  13.990
74268W        W42642   2.290   4.874   2.269
74269W        W42643  27.111  20.624  12.864
74270W        W42644  43.499   6.185   4.342
74271W        W42645   8.832   5.326   5.581
74272W        W42646  28.543  44.003   4.734
74273W        W42647  23.994  37.971   2.784
74274W        W42648  34.047  16.701   0.961
74275W        W42649  32.560  37.053   4.197
74276W        W42650  31.138   3.764   1.396
74277W        W42651  28.052  35.011  12.393
74278W        W42652  36.847  17.073  12.540
74279W        W42653  20.094  17.253   1.260
74280W        W42654  18.184  27.039   4.672
74281W        W42655   5.252  25.613   0.738
74282W        W42656  42.336  36.543   0.458
74283W        W42657  39.881   9.154  12.339
74284W        W42658  35.097   9.241  13.378
74285W        W42659  14.201  44.871   2.402
74286W        W42660   2.736  21.594   4.138
74287W        W42661  38.383  18.255  11.950
74288W        W42662  11.846   7.195  10.952
74289W        W42663   2.945  29.489   2.403
74290W        W42664  42.376  29.156  10.952
74291W        W42665  44.876  28.434   1.923
74292W        W42666   3.368   4.410  14.857
74293W        W42667   4.223  14.256  11.511
74294W        W42668  20.156  30.066  12.942
74295W        W42669  20.222  39.420   2.810
74296W        W42670   6.793  32.073  13.458
74297W        W42671  29.975  21.158   3.787
74298W        W42672  14.686  23.151  11.543
74299W        W42673  10.794  16.080   1.309
74300W        W42674  23.099  40.444   2.404
74301W        W42675  26.464   0.323   3.200
74302W        W42676  25.111  27.948  13.854
74303W        W42677  43.484  39.494  11.580
74304W        W42678  27.515  24.548  10.486
74305W        W42679  39.512  12.342  12.965
74306W        W42680   7.362  39.501  14.290
74307W        W42681  16.281  19.126   1.339
74308W        W42682  22.140   5.776  12.548
74309W        W42683   0.324  18.238   4.201
74310W        W42684  36.569  39.063  14.468
74311W        W42685   1.840   5.339  12.556
74312W        W42686  20.706  38.973  10.420
74313W        W42687  37.517  37.833   0.838
74314W        W42688   2.956  35.585   1.794
74315W        W42689  41.299   0.259  13.850
74316W        W42690   5.724  39.908   1.729
74317W        W42691  17.720  19.060   4.160
74318W        W42692  25.037  30.014  10.559
74319W        W42693  32.988  40.935  14.431
74320W        W42694  19.595  10.170  14.856
74321W        W42695  18.113  18.728  14.897
74322W        W42696  39.877  12.754  11.029
74323W        W42697  28.617  16.265  10.910
74324W        W42698   5.755   0.769  14.489
74325W        W42699  22.105  17.070  12.011
74326W        W42700  14.788  29.174   1.729
74327W        W42701  36.460  20.726  13.049
74328W        W42702  30.548  26.537   0.289
74329W        W42703  36.471  41.015   4.263
74330W        W42704  42.466  10.199   3.152
74331W        W42705  36.440  40.898  13.971
74332W        W42706  33.567  43.787   3.147
74333W        W42707  11.763   3.324   3.801
74334W        W42708  21.133   6.326   1.415
74335W        W42709  14.176  14.705   1.899
74336W        W42710   9.829   2.964   3.321
74337W        W42711  19.668  35.457   4.220
74338W        W42712  35.921   6.335   4.283
74339W        W42713  25.122  11.719  11.562
74340W        W42714  21.572  40.986   9.675
74341W        W42715  39.812  27.481   3.830
74342W        W42716  28.474  24.099   1.258
74343W        W42717  18.555  37.558  14.470
74344W        W42718  11.770  42.400  14.392
74345W        W42719  34.423   3.836   2.677
74346W        W42720  39.051   3.738   4.179
74347W        W42721  38.998  33.877   0.905
74348W        W42722  25.687  10.190  11.524
74349W        W42723  43.508   3.423   0.429
74350W        W42724   8.683  16.233  11.603
74351W        W42725   1.274  35.060   1.270
74352W        W42726  34.417   0.807   1.891
74353W        W42727  31.043  24.620   2.826
74354W        W42728  10.288  44.831  10.412
74355W        W42729  33.536  21.259  12.935
74356W        W42730   8.824  25.170   4.674
74357W        W42731   7.323  19.207   3.162
74358W        W42732  16.745  11.329   1.222
74359W        W42733  11.793   2.235  10.578
74360W        W42734  44.405   7.185  12.526
74361W        W42735  12.156  13.176   1.355
74362W        W42736  29.131   7.270  10.627
74363W        W42737   7.343   0.753  12.579
74364W        W42738  24.034  43.869   0.265
74365W        W42739   4.307  39.870   1.771
74366W        W42740   5.781  18.103  13.380
74367W        W42741  23.083  42.005  12.908
74368W        W42742  14.597  30.136   2.321
74369W        W42743  18.125  44.872  14.413
74370W        W42744   8.704  19.145  12.016
74371W        W42745  16.724  21.080   3.706
74372W        W42746  15.699  44.429   3.867
74373W        W42747  29.434  25.635   3.717
74374W        W42748  30.480  43.965   4.283
74375W        W42749   5.708  28.647   4.824
74376W        W42750  20.607  15.707  11.535
74377W        W42751  30.044  14.230  13.328
74378W        W42752  28.152   9.869  10.152
74379W        W42753  43.806  44.919  10.528
74380W        W42754  23.104  42.841  12.916
74381W        W42755  12.281  36.526  12.998
74382W        W42756  16.753  26.100   2.740
74383W        W42757  15.128  23.107  10.509
74384W        W42758  24.524  34.120  11.603
74385W        W42759  20.043  15.622  12.356
74386W        W42760   0.842   0.367  13.885
74387W        W42761  30.541  25.026  11.549
74388W        W42762  43.988  29.166   2.699
74389W        W42763  25.139   8.804   1.241
74390W        W42764  34.503  14.829   0.423
74391W        W42765  21.633  34.042  14.416
74392W        W42766  10.822  24.598   3.310
74393W        W42767   0.747  44.284  10.156
74394W        W42768  23.173  37.986  13.791
74395W        W42769  13.730  42.325   2.742
74396W        W42770  11.760  44.889  10.932
74397W        W42771  17.084  28.010  11.039
74398W        W42772  41.508  35.856  14.816
74399W        W42773  40.386   0.851   4.304
74400W        W42774  27.171  27.580  14.384
74401W        W42775  17.106  25.520   0.922
74402W        W42776  43.497  33.556   0.869
74403W        W42777  11.825  41.801  14.873
74404W        W42778  22.731  33.551   5.270
74405W        W42779  23.087  42.428   3.228
74406W        W42780  44.349  35.437   1.339
74407W        W42781  43.821   0.808  11.960
74408W        W42782   4.356  38.367  13.903
74409W        W42783   0.803  19.094  12.505
74410W        W42784   1.264  30.635   3.653
74411W        W42785   9.221  37.492  10.634
74412W        W42786  33.930  29.090  14.440
74413W        W42787   2.798   2.784  12.885
74414W        W42788  10.754  36.540  11.891
74415W        W42789  25.052   7.293  11.894
74416W        W42790   4.286  15.208  10.987
74417W        W42791  39.893  27.485  14.003
74418W        W42792  31.052  42.363   4.625
74419W        W42793  28.639   4.762   2.311
74420W        W42794  44.262  12.142  14.420
74421W        W42795  32.407  13.778   4.800
74422W        W42796  27.041  12.777  12.513
74423W        W42797   8.736  20.604  13.872
74424W        W42798  32.976  15.329   1.338
74425W        W42799   5.791  39.033  13.992
74426W        W42800   7.254  42.421   2.353
74427W        W42801   9.805  41.843  10.983
74428W        W42802   1.360  28.033   2.187
74429W        W42803  16.607  42.943   4.157
74430W        W42804  39.406  36.452  10.958
74431W        W42805  36.975  34.962   0.837
74432W        W42806   0.374  18.279   0.817
74433W        W42807  29.063  16.243   1.227
74434W        W42808   3.328  26.678  12.871
74435W        W42809  42.960  14.774   0.883
74436W        W42810  28.551  17.277  11.888
74437W        W42811  36.043  29.929   4.267
74438W        W42812  43.988  19.246  10.405
74439W        W42813   3.816   3.442  14.472
74440W        W42814  33.041   1.766   4.666
74441W        W42815  15.608  18.259  11.079
74442W        W42816  31.403  26.958   0.406
74443W        W42817  19.076  34.614  13.327
74444W        W42818  39.319  36.455   4.650
74445W        W42819  29.100  40.452   4.304
74446W        W42820  15.778  22.691  13.899
74447W        W42821  35.581  37.028   1.912
74448W        W42822   2.405  41.037  10.943
74449W        W42823  26.977  28.434   0.266
74450W        W42824  23.190  32.528  12.396
74451W        W42825  18.736  28.109  13.546
74452W        W42826  41.397  41.370   4.115
74453W        W42827  30.456   1.840  11.104
74454W        W42828  25.192  12.643  14.377
74455W        W42829  28.991  19.742   3.358
74456W        W42830  24.176  10.209  10.912
74457W        W42831  17.693  40.044  10.536
74458W        W42832  39.511  39.844  14.435
74459W        W42833   8.326  20.220   5.734
74460W        W42834  24.974  34.446  14.466
74461W        W42835  31.450  35.908   3.344
74462W        W42836  39.925  25.118  12.376
74463W        W42837  28.493  16.770  12.898
74464W        W42838   6.703   1.378  12.421
74465W        W42839  12.294  34.462   3.730
74466W        W42840  10.143  10.200  10.897
74467W        W42841  12.231  27.615  11.944
74468W        W42842  19.599  39.046   4.742
74469W        W42843  44.370  16.114   1.284
74470W        W42844   4.755   3.747   2.903
74471W        W42845  11.804  44.409  10.090
74472W        W42846  32.057  41.892   3.328
74473W        W42847  41.418  41.987  13.895
74474W        W42848  10.214   5.250  12.490
74475W        W42849  41.501  39.850  13.486
74476W        W42850  31.116  21.530   3.869
74477W        W42851   0.950  34.477   3.346
74478W        W42852  27.052  21.662  10.998
74479W        W42853   1.847   7.733  10.535
74480W        W42854  20.714   6.818   0.345
74481W        W42855   5.432   0.845  14.308
74482W        W42856  39.034  33.447   2.314
74483W        W42857   3.443  15.192   4.602
74484W        W42858  15.647  11.779  11.422
74485W        W42859  38.936  32.433  12.929
74486W        W42860  22.712  13.217   0.966
74487W        W42861  28.103  12.708   9.970
74488W        W42862   5.703  33.577   3.360
74489W        W42863  27.092  22.235   4.786
74490W        W42864  10.243  35.422  14.861
74491W        W42865  38.924  16.293   0.370
74492W        W42866  37.037  12.326   1.772
74493W        W42867  24.121  15.824  13.515
74494W        W42868   3.802   6.296  12.049
74495W        W42869  26.176  23.169  11.957
74496W        W42870  34.524  16.645  13.399
74497W        W42871  25.554   9.380  14.786
74498W        W42872  33.979  40.441   1.852
74499W        W42873  16.180  13.723   0.854
74500W        W42874  40.964  16.211   1.387
74501W        W42875  27.056  37.555   4.239
74502W        W42876   6.309   9.232  14.893
74503W        W42877   5.433   3.861   3.867
74504W        W42878  28.103   3.401  11.541
74505W        W42879  11.759  30.076   0.937
74506W        W42880  11.842  18.757  10.541
74507W        W42881  27.455  21.720  12.064
74508W        W42882  33.429   7.804  11.935
74509W        W42883   2.328  20.687  11.563
74510W        W42884   1.783   9.698   3.215
74511W        W42885   6.299  11.858  13.520
74512W        W42886  22.691  28.078  10.607
74513W        W42887   7.851  43.994  13.402
74514W        W42888   2.274  44.842   3.813
74515W        W42889  26.192  27.132  13.025
74516W        W42890   0.387  36.966   3.789
74517W        W42891  33.568  23.043   3.780
74518W        W42892  40.317  29.938   1.741
74519W        W42893   1.817   2.838   4.131
74520W        W42894  15.083   4.359   1.296
74521W        W42895  34.000   6.805   4.277
74522W        W42896  33.410  14.301  12.980
74523W        W42897  27.190   6.248  10.102
74524W        W42898  35.423  39.322  14.404
74525W        W42899  15.279  17.217  14.428
74526W        W42900  27.458   1.937  11.544
74527W        W42901   9.235  22.118   3.656
74528W        W42902  38.467  35.965  12.931
74529W        W42903  20.734  15.769   2.311
74530W        W42904  17.068  12.788   1.409
74531W        W42905  30.491  14.212  10.598
74532W        W42906  10.155  32.075  14.329
74533W        W42907   8.883  30.004  11.450
74534W        W42908  19.582  27.090  13.858
74535W        W42909  12.716  31.602   2.184
74536W        W42910  20.584  22.228   1.311
74537W        W42911  32.127  15.269  13.492
74538W        W42912  22.577  39.905   0.923
74539W        W42913   0.977   6.726  13.430
74540W        W42914  31.515  22.743   4.293
74541W        W42915  43.455   3.385   2.287
74542W        W42916   4.323  39.952  13.347
74543W        W42917  30.931  27.503  13.963
74544W        W42918  11.353   4.835  14.940
74545W        W42919  39.967  44.895   2.790
74546W        W42920  43.844  32.116   2.414
74547W        W42921  33.433  15.819   1.249
74548W        W42922  23.114  26.190   0.328
74549W        W42923  21.204   3.287  14.419
74550W        W42924  29.500  25.498   3.301
74551W        W42925  16.266  36.978   4.770
74552W        W42926  21.255  37.849  13.336
74553W        W42927  10.714   5.211  11.983
74554W        W42928  30.447   3.860   4.264
74555W        W42929   3.813  15.099  12.403
74556W        W42930  37.835   6.880  14.515
74557W        W42931  33.040  31.440  11.930
74558W        W42932  35.465  43.491  14.456
74559W        W42933  26.673   5.362  14.301
74560W        W42934  11.322   8.398  12.862
74561W        W42935  33.950  18.153  10.539
74562W        W42936  24.132  31.910   1.906
74563W        W42937   3.243  43.422  12.949
74564W        W42938  19.144   0.251  14.876
74565W        W42939  14.639  23.087  10.900
74566W        W42940  40.927   1.468   1.887
74567W        W42941  32.470  19.617   2.877
74568W        W42942  14.673  25.165  13.372
74569W        W42943  28.544  38.505  11.488
74570W        W42944  42.844  20.582  13.823
74571W        W42945  18.570  42.800  13.477
74572W        W42946  32.400  26.682   3.159
74573W        W42947  10.805  40.516  14.436
74574W        W42948  43.429  35.922   5.170
74575W        W42949  41.017  42.997  12.525
74576W        W42950  35.552   2.803  13.902
74577W        W42951  44.296  39.047   4.656
74578W        W42952  24.667  41.948  14.324
74579W        W42953  23.494  14.331   2.343
74580W        W42954   9.312  11.729  11.935
74581W        W42955  25.474   4.771  13.867
74582W        W42956  35.031  44.289   0.824
74583W        W42957   1.354  13.267   3.233
74584W        W42958  28.502  28.602  14.009
74585W        W42959  41.292  16.578   0.773
74586W        W42960  35.372  39.329  12.533
74587W        W42961  26.023  11.240   2.707
74588W        W42962  38.490   8.707  13.437
74589W        W42963  39.378  42.293  10.474
74590W        W42964  13.703   1.770  14.910
74591W        W42965  41.329   4.333   2.269
74592W        W42966   1.345   3.915   4.182
74593W        W42967   9.271  40.536  14.793
74594W        W42968  10.755   1.788  11.087
74595W        W42969  37.999  11.343   0.905
74596W        W42970  30.551   2.384  13.839
74597W        W42971  36.055  13.136   4.229
74598W        W42972  44.359   8.655  14.789
74599W        W42973  33.436  21.516   3.161
74600W        W42974  13.653  39.464   4.145
74601W        W42975  43.769  23.989  11.436
74602W        W42976  16.220  31.611  13.873
74603W        W42977  39.387   5.851   0.965
74604W        W42978  40.984  41.495  11.553
74605W        W42979  14.779   2.275   0.894
74606W        W42980   9.689  32.900   0.833
74607W        W42981  23.649  15.594   0.372
74608W        W42982  39.390  27.478  13.415
74609W        W42983  12.765  15.683   5.162
74610W        W42984  23.164   3.950  11.075
74611W        W42985  36.088  30.633   3.640
74612W        W42986  44.492  43.869  10.475
74613W        W42987  27.030  16.739   4.613
74614W        W42988   2.260  36.049  13.833
74615W        W42989  37.987   4.293   4.785
74616W        W42990   7.295  28.514  13.490
74617W        W42991   2.443  34.936   0.288
74618W        W42992   0.425  21.633  11.372
74619W        W42993  27.498  14.713  11.891
74620W        W42994   9.760  21.753   3.724
74621W        W42995  24.534   6.313   0.904
74622W        W42996  31.118  32.941   4.772
74623W        W42997  33.065  12.838   4.780
74624W        W42998  21.664   9.206   3.672
74625W        W42999   4.782  42.970   4.189
74626W        W43000  42.838  32.143   4.237
74627W        W43001  40.311  36.959  13.804
74628W        W43002  19.727   0.425   2.378
74629W        W43003  13.846   3.302  12.442
74630W        W43004   4.434  17.120  11.507
74631W        W43005  35.915   0.370  14.819
74632W        W43006  37.894  24.650  13.916
74633W        W43007   3.293   5.438   2.835
74634W        W43008   6.292   4.719   2.819
74635W        W43009  22.185   5.219   4.122
74636W        W43010  25.579  13.260  11.430
74637W        W43011  15.271  31.535   0.879
74638W        W43012  29.463  31.950   1.927
74639W        W43013  35.493  18.761  11.492
74640W        W43014  41.807   2.387   0.371
74641W        W43015   5.213  32.966  14.915
74642W        W43016  42.320  35.479  14.879
74643W        W43017   9.333  13.752  11.923
74644W        W43018   3.870  10.372  12.043
74645W        W43019  36.872  35.034  11.413
74646W        W43020  29.951  23.070  14.883
74647W        W43021  26.195   3.247  13.431
74648W        W43022  21.676  34.905  10.529
74649W        W43023  31.548  25.078  13.922
74650W        W43024  41.302  31.144  14.373
74651W        W43025  30.104  27.137  11.048
74652W        W43026  13.314  39.808   9.969
74653W        W43027   3.246  34.575  12.070
74654W        W43028  39.352  41.365  13.336
74655W        W43029  14.153   5.853   3.856
74656W        W43030   5.234  18.081  11.554
74657W        W43031  11.789  25.171   2.385
74658W        W43032  37.989  38.966  14.843
74659W        W43033  11.834  13.803   0.379
74660W        W43034  33.466  18.652   2.366
74661W        W43035  38.559   6.893   2.870
74662W        W43036  38.479   4.203  14.352
74663W        W43037  19.162  40.857  11.418
74664W        W43038   9.840   4.713   2.351
74665W        W43039  36.482  43.494   1.373
74666W        W43040   6.420  13.626   0.824
74667W        W43041   5.742  27.000  13.868
74668W        W43042  34.576  27.087  11.025
74669W        W43043  38.464  16.638  12.472
74670W        W43044   8.763  23.236   3.800
74671W        W43045  41.499   7.305   1.231
74672W        W43046  28.438  21.731  11.002
74673W        W43047  22.995  39.520  13.515
74674W        W43048  20.051  22.062   3.298
74675W        W43049  16.630  43.330  13.501
74676W        W43050  19.073  21.179  14.860
74677W        W43051   5.847  28.669   3.740
74678W        W43052  21.036   8.303  11.510
74679W        W43053  42.343  41.013   3.768
74680W        W43054  41.447  24.553   2.715
74681W        W43055  35.927   9.197   1.900
74682W        W43056   9.152   4.869   3.834
74683W        W43057  21.136  11.331   4.675
74684W        W43058  34.375   7.386   0.871
74685W        W43059  40.018  42.374   4.113
74686W        W43060  35.596  33.424  10.925
74687W        W43061  41.472  33.410   0.306
74688W        W43062  21.607   2.893  11.990
74689W        W43063   6.412  26.086   0.262
74690W        W43064  30.955  16.579   3.275
74691W        W43065  18.139   2.809   3.867
74692W        W43066   2.760  27.061  13.535
74693W        W43067   6.922  39.544  14.320
74694W        W43068  40.322  20.681   0.446
74695W        W43069  36.842  23.560  14.006
74696W        W43070  44.953  42.972  14.010
74697W        W43071  10.833   7.174  13.515
74698W        W43072  40.928  11.304  13.827
74699W        W43073  13.314  43.290   2.768
74700W        W43074   1.785   4.832  13.879
74701W        W43075   6.720   6.204   2.680
74702W        W43076   5.252  30.614   4.687
74703W        W43077  19.637   5.204  10.947
74704W        W43078  23.069   5.195   3.734
74705W        W43079   8.875   7.806  12.565
74706W        W43080  13.628  21.696   1.440
74707W        W43081  11.749  27.133   3.654
74708W        W43082  15.173  44.797  11.574
74709W        W43083  33.066  39.498  13.960
74710W        W43084  10.290  11.635   3.808
74711W        W43085  12.813  17.066   0.273
74712W        W43086  39.007  35.367   3.713
74713W        W43087  12.690  31.908  13.997
74714W        W43088   1.419  16.610  11.034
74715W        W43089  28.001  22.639  14.507
74716W        W43090  41.383  18.580  10.956
74717W        W43091   7.309  17.288   0.370
74718W        W43092  20.604  35.378  12.390
74719W        W43093  11.161  31.622  10.963
74720W        W43094  20.038  12.268  11.481
74721W        W43095  11.665  15.675   2.389
74722W        W43096   8.307  17.094  14.858
74723W        W43097  10.841  30.461  12.962
74724W        W43098   9.222  43.913   4.764
74725W        W43099   4.405   8.179  12.089
74726W        W43100  15.226  34.047  10.557
74727W        W43101  20.173  39.957  14.816
74728W        W43102  24.672  14.095  12.410
74729W        W43103  26.028  16.632  13.846
74730W        W43104  30.437   4.894   9.972
74731W        W43105  12.778  14.212   1.317
74732W        W43106  26.973  18.600   2.753
74733W        W43107   6.827  42.913  11.116
74734W        W43108  28.591  10.635  10.909
74735W        W43109  24.113  34.926  14.992
74736W        W43110  29.115  19.056   4.339
74737W        W43111  30.139  43.852  13.401
74738W        W43112  41.517  23.192   1.745
74739W        W43113  20.080   5.413  12.435
74740W        W43114  27.100  25.142  14.296
74741W        W43115  40.852  39.517   1.892
74742W        W43116  37.947   5.902   5.706
74743W        W43117  41.982  20.650  11.025
74744W        W43118  37.864  15.764  14.031
74745W        W43119  33.046   8.379  11.063
74746W        W43120  12.700  34.417  11.987
74747W        W43121  41.303   9.231  11.398
74748W        W43122  40.839  42.783  11.612
74749W        W43123   3.908  27.160   1.376
74750W        W43124  42.858  27.022   2.325
74751W        W43125  12.827   6.290   2.235
74752W        W43126  21.711  18.724   0.414
74753W        W43127   9.800  11.687   0.866
74754W        W43128  10.810  39.532   2.208
74755W        W43129  32.597  43.397   4.267
74756W        W43130   5.260  19.552   1.331
74757W        W43131   6.854   8.679   4.604
74758W        W43132  35.999   0.763   2.880
74759W        W43133   6.778  32.566   3.308
74760W        W43134   0.436  18.190   2.818
74761W        W43135  37.399  37.571  13.458
74762W        W43136  44.296  11.642   2.292
74763W        W43137  33.563  18.167   3.379
74764W        W43138  16.752   1.398  13.434
74765W        W43139  21.559   8.290   1.914
74766W        W43140  34.092  23.606  11.113
74767W        W43141  23.169  27.467   1.913
74768W        W43142  18.579  29.164  11.468
74769W        W43143  18.643  12.774  10.523
74770W        W43144   8.806  38.519   1.301
74771W        W43145   8.688   2.365   1.720
74772W        W43146  35.541   8.361  12.382
74773W        W43147  23.548  14.341  14.001
74774W        W43148  18.128  38.068  10.985
74775W        W43149  20.029  36.895   3.224
74776W        W43150  11.750   9.254  11.604
74777W        W43151  23.606  43.351  10.582
74778W        W43152  35.403  40.973   3.826
74779W        W43153  21.607  30.421   3.236
74780W        W43154  25.709  42.017  11.455
74781W        W43155   9.722  19.630   2.210
74782W        W43156   9.752  29.635  14.340
74783W        W43157  33.541  34.934  12.341
74784W        W43158   1.275  30.963  12.020
74785W        W43159  18.552   9.201  11.942
74786W        W43160  34.941  44.302   0.373
74787W        W43161  26.149  14.293   3.276
74788W        W43162   3.742  15.590  12.080
74789W        W43163  40.033  25.025   0.262
74790W        W43164  39.056  27.160  13.892
74791W        W43165  21.077   8.184  13.834
74792W        W43166  35.997   0.790   4.661
74793W        W43167  27.005  27.989   1.252
74794W        W43168   6.188  40.861  13.990
74795W        W43169  31.149  23.196   2.356
74796W        W43170  34.066   0.956  13.494
74797W        W43171  13.777   2.949   1.428
74798W        W43172  36.489   7.228  13.796
74799W        W43173  23.149  32.100   3.756
74800W        W43174  36.032  12.321  11.519
74801W        W43175   9.196   3.760  12.929
74802W        W43176  44.919  29.032   3.176
74803W        W43177  44.386  15.716  12.969
74804W        W43178  32.962  26.620   3.685
74805W        W43179  25.694  37.451  13.008
74806W        W43180  40.536  21.600   3.379
74807W        W43181  11.855  33.115   3.787
74808W        W43182  37.031  19.105   4.799
74809W        W43183  12.142  33.025   4.261
74810W        W43184  28.551  35.972  11.062
74811W        W43185  19.259  40.867  10.996
74812W        W43186  26.467  36.898   3.777
74813W        W43187   6.194  33.912   4.265
74814W        W43188  33.575  14.094   1.228
74815W        W43189  24.175   9.651  11.949
74816W        W43190  17.242   7.876   3.766
74817W        W43191  32.444  30.444   1.353
74818W        W43192  43.289   7.741   2.887
74819W        W43193  38.457   7.757  12.868
74820W        W43194  44.454  10.774   2.841
74821W        W43195   2.756  29.063   4.618
74822W        W43196  26.186  32.610   0.810
74823W        W43197  22.572   4.805   3.319
74824W        W43198  14.186  21.182  10.462
74825W        W43199  32.565  35.867  13.061
74826W        W43200  40.487  23.590   3.867
74827W        W43201   5.692  24.093   4.607
74828W        W43202  24.676  42.929   4.303
74829W        W43203  35.499  22.217  10.894
74830W        W43204   6.334  14.603   0.383
74831W        W43205  40.930   0.347   3.327
74832W        W43206   0.477   4.338  12.836
74833W        W43207  41.427  14.632  14.913
74834W        W43208  10.314  24.166  14.945
74835W        W43209  18.607  28.009  13.892
74836W        W43210  30.925  18.633   1.404
74837W        W43211  28.023  22.514   3.232
74838W        W43212  37.918   2.917  14.903
74839W        W43213  25.563   3.883  11.006
74840W        W43214   5.793   7.897   2.743
74841W        W43215  12.200   5.412  13.813
74842W        W43216  38.409  11.156  12.059
74843W        W43217  29.425  26.497   1.790
74844W        W43218   5.696  11.704   4.255
74845W        W43219  21.646  13.140   0.968
74846W        W43220  41.425  43.304   3.231
74847W        W43221  10.857  22.645  14.977
74848W        W43222  23.190  29.655   1.293
74849W        W43223  24.508  21.641   0.275
74850W        W43224  20.186  24.575   3.781
74851W        W43225  20.213  34.485  11.940
74852W        W43226  24.147  22.650   1.929
74853W        W43227  36.490   6.776  11.023
74854W        W43228  38.953  27.156   2.343
74855W        W43229  34.497  40.442   2.823
74856W        W43230  31.001   9.394  10.998
74857W        W43231  12.727  10.254   3.802
74858W        W43232   7.853  29.156   0.817
74859W        W43233  12.213  30.102   0.356
74860W        W43234   0.279  32.530   0.356
74861W        W43235  20.655  30.540  14.893
74862W        W43236  38.867  20.166   2.239
74863W        W43237  42.396  35.096   2.890
74864W        W43238  24.651   0.379   0.831
74865W        W43239  25.010   8.354  11.537
74866W        W43240  37.482  21.065  11.897
74867W        W43241   4.901   1.424  11.060
74868W        W43242   2.459  31.083  10.578
74869W        W43243   0.423  31.944   0.253
74870W        W43244  44.300  39.532  11.878
74871W        W43245   3.369  34.058   4.137
74872W        W43246  22.631   1.947  14.765
74873W        W43247  38.377  41.831  12.563
74874W        W43248   9.264  13.184   3.629
74875W        W43249  42.946   4.427  13.309
74876W        W43250  12.139  36.432   1.353
74877W        W43251  41.893  23.152  13.311
74878W        W43252   4.702  36.977   4.169
74879W        W43253  13.750   9.336   2.873
74880W        W43254  15.604  12.262  13.950
74881W        W43255  16.742   1.863   4.316
74882W        W43256  44.858   7.411   1.722
74883W        W43257  26.137  27.583   3.683
74884W        W43258   0.361  26.126   3.185
74885W        W43259  41.012  42.414   1.787
74886W        W43260   5.861  11.713   3.180
74887W        W43261  31.001  27.670   3.228
74888W        W43262  39.903  39.026   0.815
74889W        W43263  12.236  14.207   2.695
74890W        W43264  22.040   8.813  11.010
74891W        W43265  24.121  35.459  11.112
74892W        W43266  17.236  33.559   2.336
74893W        W43267  40.843  31.005  12.496
74894W        W43268  30.622  25.513  13.792
74895W        W43269  37.959  13.815  10.615
74896W        W43270  21.171  35.932  12.580
74897W        W43271  32.002  31.029  14.873
74898W        W43272  15.156  23.242  11.496
74899W        W43273  24.618  16.666   5.208
74900W        W43274  20.592  30.124   4.812
74901W        W43275  24.183  19.156   4.715
74902W        W43276  37.354  22.729   5.319
74903W        W43277  15.215  23.630   2.371
74904W        W43278  24.215  15.715  15.000
74905W        W43279  26.016  31.105   0.284
74906W        W43280  17.703  26.519  12.448
74907W        W43281  33.387  35.408   4.795
74908W        W43282   5.387  27.095   1.451
74909W        W43283  14.104  42.988   0.873
74910W        W43284  36.438  18.633   3.228
74911W        W43285  31.626   3.842   3.803
74912W        W43286  26.521   9.203   0.967
74913W        W43287  15.088  26.683   0.459
74914W        W43288  40.808  34.544  14.786
74915W        W43289  18.636  41.462   4.780
74916W        W43290  11.308  18.661   2.758
74917W        W43291  18.163  41.421   0.756
74918W        W43292  37.392  31.472   1.451
74919W        W43293   9.392  38.402  10.626
74920W        W43294  41.958  14.174   1.284
74921W        W43295   2.366  26.095   0.776
74922W        W43296   1.310  17.131   4.608
74923W        W43297  20.241  44.457   3.717
74924W        W43298   8.724  12.319   3.369
74925W        W43299  22.616   7.414   1.823
74926W        W43300  44.323  14.144   1.278
74927W        W43301  14.745   9.850  14.815
74928W        W43302  43.910   2.884  12.877
74929W        W43303  39.947  19.105  10.546
74930W        W43304   3.235  32.948  14.005
74931W        W43305  42.018  24.589  13.047
74932W        W43306  11.632  30.575   1.844
74933W        W43307  32.933  13.159   2.791
74934W        W43308  13.756  43.452  14.866
74935W        W43309   1.471  23.498   4.354
74936W        W43310  11.222  36.893  14.469
74937W        W43311  13.659  33.480   0.962
74938W        W43312   5.714   9.849   1.210
74939W        W43313  28.566  32.430  14.853
74940W        W43314   4.413  33.130  13.392
74941W        W43315   1.919  15.797   1.806
74942W        W43316  25.058   4.756  11.889
74943W        W43317   0.293   4.816   2.795
74944W        W43318  19.670  22.099   4.274
74945W        W43319  25.098  25.030  11.004
74946W        W43320  43.856   3.378   1.752
74947W        W43321   9.218  43.837  12.387
74948W        W43322   0.408  15.171   3.704
74949W        W43323  17.756  13.639   2.853
74950W        W43324   7.701   6.711   3.859
74951W        W43325  38.864   0.295   0.430
74952W        W43326   1.884   4.865  12.421
74953W        W43327  34.430   1.480  13.015
74954W        W43328   0.819   7.395   0.937
74955W        W43329  27.663  44.970   0.738
74956W        W43330   0.760   0.337  14.910
74957W        W43331  23.082   7.308   3.694
74958W        W43332  37.951   8.707  11.976
74959W        W43333  17.716   8.801  10.609
74960W        W43334  32.999   0.899  11.591
74961W        W43335  22.640  17.631   3.267
74962W        W43336  19.254  29.629   3.318
74963W        W43337   7.693  26.187  10.903
74964W        W43338  35.937  44.265  10.496
74965W        W43339  36.013  14.676   2.780
74966W        W43340  21.026  37.344   3.842
74967W        W43341  20.104  21.754   2.357
74968W        W43342  29.490  20.611  12.883
74969W        W43343  16.651   1.445   1.857
74970W        W43344  11.688  12.729  11.948
74971W        W43345  20.235  13.300   4.143
74972W        W43346   0.833  15.656  13.353
74973W        W43347  15.658  37.433   0.418
74974W        W43348   1.417  25.470  11.448
74975W        W43349   8.826   5.892   0.421
74976W        W43350  35.530  30.953  13.925
74977W        W43351  12.773  28.016  12.047
74978W        W43352  31.624  34.525  13.402
74979W        W43353  37.834  34.609  14.766
74980W        W43354  44.319   9.828  11.926
74981W        W43355  29.149  39.859  14.364
74982W        W43356  35.884  36.970   3.189
74983W        W43357  23.151  22.006   0.819
74984W        W43358   5.907  42.354  12.539
74985W        W43359  27.660  12.331  11.443
74986W        W43360  24.150  26.549  13.348
74987W        W43361  30.564  39.402  14.464
74988W        W43362   8.701  16.308   2.231
74989W        W43363  20.658  31.570   3.764
74990W        W43364  14.292   4.711  14.775
74991W        W43365   9.250  42.394   3.160
74992W        W43366   8.279  43.778   3.651
74993W        W43367  39.046  18.262   5.307
74994W        W43368  19.204  23.607   2.723
74995W        W43369  33.432  20.183  11.452
74996W        W43370  40.510  26.460   4.158
74997W        W43371  15.630   4.210   4.757
74998W        W43372  30.953   0.253  14.829
74999W        W43373  22.038  10.250   4.280
75000W        W43374  24.711  27.562  11.440
75001W        W43375  17.160  30.111   3.162
75002W        W43376  23.504  43.933  10.907
75003W        W43377  28.161  43.375   4.297
75004W        W43378   9.245  21.263  11.101
75005W        W43379  37.357  17.587  10.901
75006W        W43380  26.966  40.880   4.833
75007W        W43381  20.155  34.119  14.278
75008W        W43382  34.453   6.709  10.995
75009W        W43383  41.847  41.307  14.800
75010W        W43384  12.716  14.143  14.795
75011W        W43385   3.851   0.762   4.755
75012W        W43386  17.172  31.019   2.744
75013W        W43387  26.026   0.979   1.422
75014W        W43388  38.554  38.408   2.400
75015W        W43389   2.723  11.650   3.208
75016W        W43390  32.619  18.055   2.396
75017W        W43391  12.854  32.075   1.752
75018W        W43392  36.410   5.209   3.206
75019W        W43393  31.435  32.092   4.665
75020W        W43394  29.583  27.497   2.897
75021W        W43395  11.275  23.133  13.529
75022W        W43396  10.715  14.324   4.238
75023W        W43397  44.976   5.392  12.858
75024W        W43398  36.359   6.738  11.976
75025W        W43399  22.210  44.905  11.568
75026W        W43400   7.407  23.626   3.850
75027W        W43401   4.318  30.615  12.545
75028W        W43402  23.546  31.626   1.781
75029W        W43403  17.168  14.243   3.849
75030W        W43404  25.489  16.095   1.258
75031W        W43405  14.308  27.966  12.455
75032W        W43406  15.238  28.176   3.255
75033W        W43407  10.189  18.546   3.790
75034W        W43408  12.752  30.992  10.511
75035W        W43409   5.435   4.207  12.014
75036W        W43410  18.557  38.049  12.390
75037W        W43411  34.905  39.378  10.598
75038W        W43412  44.929   4.437  14.818
75039W        W43413   2.292   9.248  11.010
75040W        W43414   4.819  18.618  10.517
75041W        W43415  15.743  14.222   4.283
75042W        W43416  37.561  35.852   0.961
75043W        W43417  15.749   9.366   0.420
75044W        W43418  43.467  27.520   4.124
75045W        W43419  31.105   7.805  13.394
75046W        W43420  30.991  31.521  13.993
75047W        W43421  23.226  16.262   2.888
75048W        W43422  44.493   1.316   4.163
75049W        W43423  10.697  37.390  13.322
75050W        W43424   0.279   3.813  14.403
75051W        W43425  26.200  28.446  14.777
75052W        W43426   8.827  39.843  12.844
75053W        W43427  44.873  40.358  10.900
75054W        W43428   5.436  13.750   4.803
75055W        W43429   2.454  38.859   4.166
75056W        W43430  19.043   7.367  13.886
75057W        W43431  39.559  20.539   1.914
75058W        W43432   2.421  15.639   0.371
75059W        W43433  42.500  35.389   1.911
75060W        W43434  26.121  18.239  13.934
75061W        W43435  41.474  22.608  10.467
75062W        W43436  12.773   8.665  11.069
75063W        W43437  36.050  24.626   3.307
75064W        W43438  14.817   8.842  12.021
75065W        W43439  18.663   3.874   3.660
75066W        W43440  16.100  11.744  11.529
75067W        W43441  37.429  22.716   2.280
75068W        W43442  16.585  34.925  11.428
75069W        W43443  26.954  43.970   4.688
75070W        W43444   4.823  32.946  13.533
75071W        W43445   1.309  12.299  13.040
75072W        W43446   3.950   5.830  13.050
75073W        W43447  37.366  38.982   5.276
75074W        W43448  10.839  18.102   4.191
75075W        W43449  35.101  40.326  10.127
75076W        W43450   7.883  31.137  14.320
75077W        W43451   0.778  40.444  12.826
75078W        W43452  32.970  25.043   4.230
75079W        W43453  27.562  27.059   3.648
75080W        W43454  40.799   2.847  12.499
75081W        W43455  28.158  29.038   3.691
75082W        W43456   5.381  25.664   3.758
75083W        W43457  14.682  30.927  12.436
75084W        W43458  38.068  21.529   0.827
75085W        W43459  13.675  33.548   2.894
75086W        W43460  36.020  14.639   4.263
75087W        W43461  35.550  42.879   3.674
75088W        W43462  42.423  27.094  13.495
75089W        W43463  23.082   6.807   2.365
75090W        W43464  19.673  43.382  12.571
75091W        W43465  32.112  41.879   1.426
75092W        W43466  43.986  18.126   2.890
75093W        W43467  21.051  43.938  14.491
75094W        W43468  17.087  37.515   5.222
75095W        W43469  44.791  40.843   0.421
75096W        W43470  16.192  43.393   2.352
75097W        W43471  32.899   6.771  12.346
75098W        W43472   2.364  37.961  12.993
75099W        W43473  43.497  15.090  13.454
75100W        W43474  29.534  40.861   4.209
75101W        W43475  32.435  20.532   3.824
75102W        W43476  16.667  26.953  13.004
75103W        W43477   2.787  12.695  12.933
75104W        W43478  17.154   8.230   2.803
75105W        W43479  12.670  29.159  10.417
75106W        W43480   7.173  43.348  14.947
75107W        W43481   8.280  16.589  10.453
75108W        W43482  43.449   1.873   1.441
75109W        W43483  17.758  19.263  12.911
75110W        W43484  28.172  40.876  11.004
75111W        W43485  12.158  36.977  11.109
75112W        W43486  29.012  30.974  12.386
75113W        W43487  27.014  44.462  12.547
75114W        W43488  29.090  23.571   1.843
75115W        W43489  14.213  28.434  14.856
75116W        W43490  21.188  37.500   0.376
75117W        W43491  11.829  23.047  13.898
75118W        W43492   6.733  38.057   1.344
75119W        W43493  40.952  41.928   2.391
75120W        W43494   1.389  38.549  13.045
75121W        W43495   3.446  18.274  11.570
75122W        W43496   7.323   0.345  12.455
75123W        W43497   7.369  44.440  12.901
75124W        W43498   3.352  34.940  14.939
75125W        W43499  26.076   9.764   1.832
75126W        W43500  40.832  41.840  11.512
75127W        W43501  19.151  26.148  14.456
75128W        W43502  28.048   2.894   4.697
75129W        W43503   0.984   7.347  13.827
75130W        W43504  29.966   7.670  14.355
75131W        W43505   0.344   0.949   2.862
75132W        W43506  26.654  33.386  11.546
75133W        W43507  16.789  40.855  13.804
75134W        W43508   9.381  40.549  13.450
75135W        W43509  28.021  16.170   2.202
75136W        W43510  22.109  16.127   3.696
75137W        W43511  24.194  11.322  12.911
75138W        W43512  43.502  30.578   4.305
75139W        W43513  36.967  35.898   3.633
75140W        W43514  29.950  30.150   4.137
75141W        W43515  25.610  36.017   1.757
75142W        W43516  16.208  38.055  11.010
75143W        W43517  10.351  38.035   0.963
75144W        W43518  11.241   4.379  13.956
75145W        W43519  21.105   6.312   4.625
75146W        W43520   8.843   3.757  10.561
75147W        W43521  44.484  31.988   3.792
75148W        W43522  28.138   3.846   1.855
75149W        W43523   2.965  13.766   0.848
75150W        W43524  33.470  15.268   2.379
75151W        W43525  29.660  21.210   5.181
75152W        W43526   0.261   8.805   0.261
75153W        W43527   8.669  40.483  12.561
75154W        W43528  36.021   8.891  11.560
75155W        W43529  19.660  23.078  10.986
75156W        W43530  19.688  20.223  11.964
75157W        W43531  34.985  16.652  13.024
75158W        W43532   3.460  41.378   2.341
75159W        W43533  14.119   7.193  12.415
75160W        W43534  23.019  43.401  11.530
75161W        W43535  23.031  18.631   3.793
75162W        W43536  22.224  30.966  13.380
75163W        W43537  38.856  13.678   2.349
75164W        W43538  29.598   4.858   5.129
75165W        W43539  36.956  15.665  12.465
75166W        W43540  16.632  34.932  13.929
75167W        W43541  25.987  11.678   4.660
75168W        W43542  41.974  13.333   4.317
75169W        W43543  33.126  27.981   0.875
75170W        W43544   9.757  36.920   4.252
75171W        W43545  21.116  32.988  14.815
75172W        W43546   6.299  22.723  11.109
75173W        W43547  13.725  16.718   3.202
75174W        W43548   7.203  42.365   4.295
75175W        W43549   6.830  18.155   2.309
75176W        W43550  37.442  31.069  13.040
75177W        W43551   9.852  21.036   3.306
75178W        W43552   2.748  21.243   3.190
75179W        W43553  16.165  35.525  13.004
75180W        W43554   5.231  28.933   2.887
75181W        W43555   0.350   9.843   4.131
75182W        W43556  17.683  44.349  12.422
75183W        W43557  15.212  29.669  10.470
75184W        W43558  28.034  24.072  13.048
75185W        W43559  23.156  35.538  11.886
75186W        W43560   2.353   0.287  12.012
75187W        W43561  32.946  22.038   2.279
75188W        W43562  30.504  16.294  11.389
75189W        W43563   1.441  15.740  14.453
75190W        W43564  17.559   3.938   4.260
75191W        W43565   0.773  34.601  13.986
75192W        W43566  24.620  40.882   4.318
75193W        W43567  21.119  27.586  12.500
75194W        W43568  20.224  24.725  11.064
75195W        W43569  23.175  39.838  10.438
75196W        W43570  17.108  14.208  10.581
75197W        W43571  27.071   9.678   0.481
75198W        W43572  38.412  42.487  14.371
75199W        W43573  42.390   7.403  10.955
75200W        W43574  27.059  43.430   3.659
75201W        W43575  33.051  38.520  12.010
75202W        W43576  18.056   8.773   2.738
75203W        W43577   6.848  13.150  14.923
75204W        W43578  21.541  28.456  12.393
75205W        W43579  28.467  39.827  11.535
75206W        W43580  32.430  44.313  10.960
75207W        W43581  42.813  27.957  11.096
75208W        W43582  22.662   0.776   4.837
75209W        W43583  26.153  31.452  14.488
75210W        W43584  28.524  31.604   1.328
75211W        W43585   0.769  14.830  11.969
75212W        W43586  36.460  44.966   2.762
75213W        W43587  27.018  20.735   3.290
75214W        W43588  10.814  14.182  11.102
75215W        W43589  10.714  36.964   4.333
75216W        W43590  11.783   9.186  14.310
75217W        W43591  24.615   4.221  10.613
75218W        W43592  23.007  30.651   4.347
75219W        W43593  40.986  27.016   2.693
75220W        W43594  27.651   7.182   0.340
75221W        W43595  28.044  29.006   0.871
75222W        W43596  37.423  19.058   3.666
75223W        W43597  20.206  19.229   1.783
75224W        W43598  12.767  12.654  13.891
75225W        W43599   7.743  22.136  12.065
75226W        W43600  40.000  41.905  14.891
75227W        W43601  25.604  24.985  12.867
75228W        W43602  17.622  43.818   1.708
75229W        W43603  37.904  30.008   1.742
75230W        W43604  25.489  35.395   1.245
75231W        W43605  25.579  13.120   4.770
75232W        W43606  26.183  37.920  10.934
75233W        W43607  15.811  11.853   2.712
75234W        W43608  37.068  13.278   0.267
75235W        W43609  31.613  16.082  10.561
75236W        W43610   9.867   5.393   4.691
75237W        W43611   9.736  18.694   2.200
75238W        W43612  18.161  30.961  11.025
75239W        W43613  29.430  27.686  14.498
75240W        W43614  28.080  44.950   4.232
75241W        W43615   4.310   9.796  14.936
75242W        W43616  27.137  14.835   4.658
75243W        W43617   2.266   1.930  14.390
75244W        W43618  24.640  35.411  13.910
75245W        W43619  20.672  22.549  13.325
75246W        W43620   6.885  32.949   1.371
75247W        W43621   4.415   4.262   2.844
75248W        W43622  37.531  23.189   4.737
75249W        W43623  26.487   0.759  11.537
75250W        W43624  16.303  27.648   2.848
75251W        W43625  32.043  22.653  14.303
75252W        W43626  13.747  38.859   4.328
75253W        W43627   1.259   3.236  13.935
75254W        W43628  38.466  40.935   0.887
75255W        W43629  33.379  17.277  10.455
75256W        W43630   7.835  23.540   3.647
75257W        W43631   6.751  29.087   1.380
75258W        W43632  38.544  21.633   3.317
75259W        W43633  23.126  40.964  10.522
75260W        W43634  25.993  21.254  13.483
75261W        W43635   8.891   0.832   3.177
75262W        W43636  40.390   9.888   3.360
75263W        W43637   8.775  34.440  14.326
75264W        W43638  14.690   9.672   0.962
75265W        W43639  39.423  42.343  11.484
75266W        W43640  39.526  21.655   4.199
75267W        W43641  16.713  27.948  13.795
75268W        W43642  29.119  33.057  11.602
75269W        W43643   2.382  18.165   1.229
75270W        W43644  42.855   2.724  11.461
75271W        W43645  11.829  18.282  11.872
75272W        W43646   5.933  16.155  11.072
75273W        W43647  27.614  16.633  12.088
75274W        W43648  37.428  16.117  13.513
75275W        W43649  11.795  31.566   0.422
75276W        W43650  25.485  41.989  13.344
75277W        W43651  38.855  34.499   2.334
75278W        W43652  24.995   0.457  12.463
75279W        W43653  37.399  31.074  14.773
75280W        W43654  30.049  42.281  13.341
75281W        W43655  42.412  25.559   2.325
75282W        W43656  31.044  19.752   1.787
75283W        W43657  33.011  33.036   3.685
75284W        W43658  17.063  33.909   2.216
75285W        W43659  15.663  13.347  13.456
75286W        W43660   1.461   0.276  12.971
75287W        W43661  30.973  32.592   2.899
75288W        W43662   9.844  13.812   3.859
75289W        W43663  34.481  14.714  10.496
75290W        W43664  12.753   1.878  10.574
75291W        W43665  22.197  40.849   3.171
75292W        W43666  26.026  10.837  13.933
75293W        W43667  30.498  15.694  13.396
75294W        W43668  25.106  27.141  14.311
75295W        W43669  36.941   3.458  14.808
75296W        W43670  28.526  36.844  12.018
75297W        W43671  35.109  23.575  10.985
75298W        W43672  30.051  10.271   2.770
75299W        W43673   2.833   1.359   4.609
75300W        W43674   9.292  24.216  10.484
75301W        W43675   3.943  40.874   0.435
75302W        W43676  27.452  32.038   4.662
75303W        W43677   1.755  36.007  13.979
75304W        W43678   1.944  14.210   1.810
75305W        W43679  10.807   7.683   4.742
75306W        W43680  25.691  30.929   4.207
75307W        W43681  34.924  14.789   2.825
75308W        W43682   7.691  19.276  13.006
75309W        W43683  15.180   7.778   9.611
75310W        W43684  27.631   4.815   4.232
75311W        W43685   3.904   6.891   4.622
75312W        W43686  30.983  32.451   3.276
75313W        W43687   7.911  29.636   5.232
75314W        W43688  30.598  37.031  11.052
75315W        W43689  11.300  40.461   3.786
75316W        W43690  37.935  21.743   1.820
75317W        W43691  23.200  38.515  10.445
75318W        W43692  35.359  11.688  12.985
75319W        W43693  22.132  18.228   3.826
75320W        W43694  25.022  38.032  14.879
75321W        W43695  35.510  30.601  11.113
75322W        W43696  38.827  22.136   4.270
75323W        W43697  35.576   5.700  12.979
75324W        W43698   1.831  21.241   3.810
75325W        W43699  40.979  13.602   1.913
75326W        W43700  13.319   8.745  11.976
75327W        W43701  38.934   8.860   0.325
75328W        W43702  16.588   3.861   2.410
75329W        W43703   9.711  30.048   4.242
75330W        W43704   9.390  37.528  13.861
75331W        W43705  41.830  10.259   1.871
75332W        W43706  33.933  42.891   4.318
75333W        W43707  40.054  18.263  11.413
75334W        W43708   8.665  24.705  14.411
75335W        W43709   5.241   5.726   0.404
75336W        W43710  21.513  13.755   3.300
75337W        W43711   7.304  10.254  14.506
75338W        W43712  13.781  32.476   0.399
75339W        W43713  18.050  31.590  14.425
75340W        W43714  37.076   9.841  10.439
75341W        W43715  15.282  14.681  11.561
75342W        W43716   1.937  27.100   0.771
75343W        W43717  26.059  28.087  12.490
75344W        W43718  12.614  16.720  13.348
75345W        W43719  31.127  15.662  14.492
75346W        W43720  16.711  30.559   3.729
75347W        W43721  24.707  28.113  11.060
75348W        W43722  30.643  19.053  13.047
75349W        W43723  11.836  14.826   3.381
75350W        W43724  11.668   9.341  10.568
75351W        W43725  38.869  41.349  10.971
75352W        W43726   3.357  21.024   1.272
75353W        W43727  13.733  36.591   2.361
75354W        W43728  36.930   0.830  14.919
75355W        W43729  16.680   7.808   4.638
75356W        W43730  14.139   3.444  14.963
75357W        W43731   1.839   9.771   1.403
75358W        W43732   1.763  12.681   0.473
75359W        W43733   0.854  27.628   1.890
75360W        W43734   8.387   4.723   4.181
75361W        W43735  20.165   1.918  12.475
75362W        W43736  25.702  42.829   1.812
75363W        W43737  28.124  33.026   3.305
75364W        W43738  13.788  24.682  11.608
75365W        W43739   8.259   0.429  12.415
75366W        W43740  31.003   4.295  14.379
75367W        W43741  24.665  33.497  10.963
75368W        W43742  23.112  10.677   2.747
75369W        W43743  10.229  19.045  13.944
75370W        W43744  14.796   3.279  12.522
75371W        W43745   7.670  20.175  12.572
75372W        W43746  24.171  27.957  11.491
75373W        W43747  37.467  28.115  12.996
75374W        W43748   5.826  14.137  11.062
75375W        W43749  22.227  23.076  11.056
75376W        W43750  31.624  37.487  11.458
75377W        W43751  11.307  22.517   4.246
75378W        W43752  37.577  26.689  12.439
75379W        W43753  36.411   2.319  12.550
75380W        W43754  20.578   7.732   0.251
75381W        W43755  26.608  35.445   4.631
75382W        W43756  12.271  26.137   3.636
75383W        W43757  20.719   9.726   1.839
75384W        W43758  14.314  20.100  12.576
75385W        W43759  13.246  29.988   2.890
75386W        W43760  28.042   6.222  14.292
75387W        W43761  19.620  13.145  13.877
75388W        W43762  25.632  43.372   2.297
75389W        W43763  26.169  20.633  10.529
75390W        W43764  34.870  24.105  12.440
75391W        W43765  16.100  25.164   4.309
75392W        W43766  25.001   2.802  14.413
75393W        W43767  42.959  12.669   1.732
75394W        W43768  40.899  13.602   0.453
75395W        W43769  21.035  27.988  11.056
75396W        W43770  33.435  15.594   1.754
75397W        W43771  12.829  42.523  13.340
75398W        W43772  19.583  32.064   0.735
75399W        W43773  28.663   0.440  12.554
75400W        W43774  41.475  42.492  13.930
75401W        W43775  16.315   9.868  14.792
75402W        W43776  14.616  39.370   2.790
75403W        W43777   1.946   8.683   0.387
75404W        W43778   7.750  40.523  10.968
75405W        W43779   1.786  30.107   0.899
75406W        W43780  14.701  18.712   0.373
75407W        W43781  41.449   4.234   3.648
75408W        W43782  11.803  14.738   0.828
75409W        W43783   1.975  20.195  14.349
75410W        W43784  17.080  20.607   4.815
75411W        W43785  26.637  34.601   3.746
75412W        W43786   2.854  42.966  11.857
75413W        W43787  28.127   6.252   2.727
75414W        W43788   2.963  23.726   4.790
75415W        W43789  38.053  37.850  14.817
75416W        W43790  36.499  43.947  13.867
75417W        W43791  26.700  20.197  10.551
75418W        W43792  37.968  10.360  11.954
75419W        W43793  17.190  24.187  13.933
75420W        W43794   0.402  39.021   0.789
75421W        W43795  39.052  32.909  12.354
75422W        W43796  28.441  28.125   0.398
75423W        W43797  38.561  43.332   2.236
75424W        W43798  30.641  38.869  13.514
75425W        W43799   2.920  44.363   3.283
75426W        W43800  20.553  36.015  12.893
75427W        W43801  14.703  43.429   0.908
75428W        W43802   9.817  39.874   0.297
75429W        W43803   0.894  27.945  12.361
75430W        W43804   5.699  33.550   0.789
75431W        W43805  24.193  36.417  11.492
75432W        W43806   5.424  21.098  13.389
75433W        W43807   1.452   5.693  11.413
75434W        W43808  42.500  16.086   3.687
75435W        W43809  14.608  34.955  12.959
75436W        W43810   3.881  40.441   1.852
75437W        W43811  23.512   1.754   3.870
75438W        W43812  37.986  31.003  12.826
75439W        W43813  14.831  24.075   4.661
75440W        W43814   6.719  16.702  12.459
75441W        W43815  17.556   5.430   4.801
75442W        W43816  44.458  25.075  13.866
75443W        W43817  28.994  21.123  13.850
75444W        W43818   2.744  27.448   1.280
75445W        W43819  32.957  10.838   4.756
75446W        W43820  43.873   6.317  12.535
75447W        W43821  41.454  11.323  11.378
75448W        W43822  31.567  39.445   4.757
75449W        W43823   0.846  21.538  11.959
75450W        W43824   9.345  43.297  11.388
75451W        W43825  34.395  20.201   0.832
75452W        W43826  20.094   6.922   0.352
75453W        W43827  30.543  13.635   3.864
75454W        W43828  32.489  36.579  10.501
75455W        W43829   9.670  26.459  10.429
75456W        W43830  32.486  24.598   4.601
75457W        W43831  44.940  13.152  13.479
75458W        W43832  37.484  26.568  12.936
75459W        W43833  29.992   2.749  13.455
75460W        W43834  11.666  13.244   3.309
75461W        W43835  43.797   8.860  13.544
75462W        W43836   7.314  31.547  11.537
75463W        W43837  29.972  30.115   3.798
75464W        W43838  37.442  32.943  14.502
75465W        W43839   5.871  21.667   4.643
75466W        W43840   3.853  12.808  11.464
75467W        W43841  43.902  25.515   1.223
75468W        W43842  22.605  42.874  13.535
75469W        W43843  30.459  30.644  12.377
75470W        W43844  16.765  40.808  13.533
75471W        W43845  21.241  14.256  13.446
75472W        W43846  34.035  21.611   1.714
75473W        W43847   0.888  25.147  12.579
75474W        W43848  41.809  22.250   1.843
75475W        W43849  26.075  30.494   4.299
75476W        W43850  42.933  10.306   1.277
75477W        W43851  23.117  41.470   4.129
75478W        W43852  28.625  22.624   2.785
75479W        W43853   3.718  30.118   4.802
75480W        W43854   2.880  22.633  14.000
75481W        W43855  17.802   3.380  11.543
75482W        W43856  17.633  10.309   2.785
75483W        W43857   1.481  13.238  14.961
75484W        W43858  12.630  17.757  13.513
75485W        W43859   5.201  40.512  14.998
75486W        W43860  18.120  24.543  12.341
75487W        W43861   2.875  29.006   0.754
75488W        W43862  11.860  42.527   0.306
75489W        W43863  33.112  15.194  13.044
75490W        W43864  24.622  36.512   4.636
75491W        W43865   0.959   0.409  11.576
75492W        W43866  22.054   8.285   4.743
75493W        W43867  19.085  20.198   4.823
75494W        W43868   8.380  16.159  11.028
75495W        W43869  20.689  17.304   3.852
75496W        W43870   1.316  16.581   3.842
75497W        W43871  40.468   6.206  11.866
75498W        W43872  17.570  10.343   0.277
75499W        W43873   4.811   3.268  13.367
75500W        W43874   7.304  11.726  13.917
75501W        W43875   3.297   8.269   0.372
75502W        W43876  17.562  34.978   0.746
75503W        W43877   9.329  17.081  13.901
75504W        W43878  21.040  21.670   1.832
75505W        W43879  35.035   2.239  10.414
75506W        W43880  31.911   9.886  10.082
75507W        W43881  31.110  32.397   4.279
75508W        W43882  21.223  44.822  10.563
75509W        W43883  21.533   8.400   2.418
75510W        W43884  38.971   8.187  14.858
75511W        W43885  30.934  13.705   2.247
75512W        W43886  14.770   3.444   4.818
75513W        W43887  36.872   3.761  12.061
75514W        W43888  26.563   9.208   1.409
75515W        W43889   7.873  15.169  12.926
75516W        W43890  11.212  26.528   2.665
75517W        W43891   9.721   6.405  14.346
75518W        W43892  41.301  30.524  11.481
75519W        W43893  30.542  26.650   2.845
75520W        W43894  10.662  16.618  14.893
75521W        W43895  21.750   5.203  13.871
75522W        W43896  44.005  16.784   1.710
75523W        W43897  33.059  41.317   0.900
75524W        W43898  31.145  40.484  14.417
75525W        W43899  19.768   6.183   4.342
75526W        W43900   9.705  40.362  11.014
75527W        W43901  17.693  18.253  11.420
75528W        W43902  33.999  44.995  13.993
75529W        W43903  12.249   9.308   2.281
75530W        W43904  39.823  34.446   4.726
75531W        W43905  38.002  27.678  14.870
75532W        W43906  39.329  30.096  12.511
75533W        W43907  14.094  24.712  14.794
75534W        W43908  44.928  43.490   0.412
75535W        W43909  20.146  12.850  10.066
75536W        W43910   9.720  17.658   3.709
75537W        W43911  27.043  19.696   1.824
75538W        W43912  10.701  12.264   3.699
75539W        W43913  37.920  28.678  12.855
75540W        W43914  13.339  44.353  12.075
75541W        W43915  11.749   5.415   2.753
75542W        W43916  15.128   8.681  14.877
75543W        W43917  42.385  30.560  14.916
75544W        W43918  32.069  14.633  11.954
75545W        W43919   2.464   7.172   2.243
75546W        W43920  20.643   6.871   1.312
75547W        W43921  22.192  16.755  12.925
75548W        W43922   9.769   0.452  13.935
75549W        W43923  19.611  35.434  13.801
75550W        W43924  27.615  42.325   5.654
75551W        W43925  43.975   4.841  10.498
75552W        W43926  16.244  32.935   1.934
75553W        W43927  38.426  31.081  13.822
75554W        W43928   9.653  29.081  10.591
75555W        W43929  14.592  35.461   3.348
75556W        W43930  10.354  23.150   1.293
75557W        W43931  31.059  43.919  12.523
75558W        W43932  19.149  39.981  14.974
75559W        W43933  32.528  14.812   0.335
75560W        W43934   5.731  30.085   5.094
75561W        W43935  18.269   6.773   2.338
75562W        W43936  15.781  38.039  14.816
75563W        W43937  28.452  14.709  14.507
75564W        W43938  25.472  24.681  13.530
75565W        W43939  31.617   3.443   0.265
75566W        W43940  19.736  30.004   4.191
75567W        W43941  29.555  28.562   4.132
75568W        W43942  10.691  28.127  14.847
75569W        W43943  21.714  43.359   0.901
75570W        W43944  41.939  14.316   0.869
75571W        W43945  38.035  13.274  12.416
75572W        W43946  26.531   0.403  13.048
75573W        W43947  23.067  35.494  12.447
75574W        W43948  15.175  35.983  13.427
75575W        W43949  42.908  15.725   1.747
75576W        W43950  44.859  41.974  12.343
75577W        W43951   5.434  30.070   0.412
75578W        W43952  24.633  34.002   2.817
75579W        W43953  42.445  43.883   2.297
75580W        W43954  20.243  11.212  12.348
75581W        W43955   2.371  33.944   4.126
75582W        W43956   1.955  11.210  12.849
75583W        W43957  42.797  28.133   4.687
75584W        W43958  21.112  29.546  11.564
75585W        W43959   2.398  14.215  10.895
75586W        W43960  27.583  25.085  13.406
75587W        W43961  28.675  42.027  10.917
75588W        W43962   6.917   1.934   1.314
75589W        W43963  29.026  11.717   3.277
75590W        W43964   4.705  28.619   3.718
75591W        W43965  40.518  22.185  10.576
75592W        W43966  26.027  31.018  14.918
75593W        W43967  10.249  43.766   1.807
75594W        W43968  42.330  40.331  11.579
75595W        W43969  25.034  32.482  11.384
75596W        W43970  10.302  41.875  10.484
75597W        W43971  30.618  33.546  11.372
75598W        W43972  27.045  27.108   0.957
75599W        W43973   2.338  26.692  14.772
75600W        W43974  30.981  43.861  12.860
75601W        W43975  40.902  17.659   3.229
75602W        W43976  36.909  14.332  12.361
75603W        W43977  31.440  38.031  12.942
75604W        W43978  25.054  20.066   4.323
75605W        W43979  31.513  20.659   1.275
75606W        W43980  20.143  12.798  12.495
75607W        W43981   7.330   0.890  14.794
75608W        W43982  27.067  31.414   2.857
75609W        W43983  29.022  12.838  11.101
75610W        W43984  11.131  31.518   0.469
75611W        W43985  31.442  15.813   4.158
75612W        W43986  15.131  24.654   4.760
75613W        W43987  28.181  26.151  11.440
75614W        W43988  15.663  43.453  12.858
75615W        W43989  34.011  25.480  12.454
75616W        W43990  34.415  10.849  13.822
75617W        W43991  29.437  24.116   0.480
75618W        W43992  11.313  41.981   1.848
75619W        W43993  38.443  17.150   2.389
75620W        W43994   8.380  17.213   1.810
75621W        W43995  18.178  17.195   0.833
75622W        W43996  44.765  11.864   1.359
75623W        W43997  27.518  30.509  12.845
75624W        W43998  28.672  12.633   1.331
75625W        W43999   0.763  26.666  11.932
75626W        W44000  31.411  26.106   1.397
75627W        W44001  17.559  35.592  14.940
75628W        W44002   6.860  14.785   2.373
75629W        W44003   5.384   6.242  11.543
75630W        W44004   5.774   6.317  14.938
75631W        W44005  22.634  14.650   1.755
75632W        W44006  32.409  30.063   1.925
75633W        W44007  32.915   5.250   2.698
75634W        W44008  25.683  35.019   1.848
75635W        W44009  38.844   8.238  14.341
75636W        W44010   5.219  44.393  13.007
75637W        W44011  17.198  32.526   0.906
75638W        W44012   1.265  41.904   0.785
75639W        W44013  11.665   5.896  10.060
75640W        W44014  13.699  38.377  11.921
75641W        W44015  15.237   1.786   1.787
75642W        W44016  42.356  39.829   2.773
75643W        W44017   5.376  34.515   0.814
75644W        W44018   8.860   4.357  13.983
75645W        W44019   0.906   7.708   4.819
75646W        W44020  16.768  30.142   2.842
75647W        W44021  32.552   7.178  14.786
75648W        W44022  43.505  29.466  12.523
75649W        W44023  40.907   6.804  12.091
75650W        W44024  17.083  17.602   4.771
75651W        W44025  19.161  23.157   2.375
75652W        W44026  26.100  26.987   1.277
75653W        W44027  34.414  37.974   0.304
75654W        W44028   3.277  27.509   1.343
75655W        W44029  10.784  39.923  12.027
75656W        W44030   5.836  25.608  12.467
75657W        W44031  43.873   3.407   4.215
75658W        W44032  24.694  12.672  12.443
75659W        W44033  34.613  42.953   5.160
75660W        W44034  14.704  24.495  13.005
75661W        W44035  20.529  13.698  14.983
75662W        W44036  17.250  21.088  14.299
75663W        W44037   1.931   7.198   4.599
75664W        W44038   8.202  29.940  12.094
75665W        W44039  25.070  20.566  14.896
75666W        W44040  30.150  32.967  10.892
75667W        W44041  22.070   5.320  14.818
75668W        W44042  38.846   4.273   0.785
75669W        W44043  31.005  24.651  14.514
75670W        W44044  12.798  12.140  10.924
75671W        W44045  16.163   8.727  11.433
75672W        W44046  21.217  34.900  10.472
75673W        W44047  38.352   1.427  14.898
75674W        W44048   6.381  14.608  11.108
75675W        W44049  15.807  15.163  14.356
75676W        W44050  16.191  36.441   0.344
75677W        W44051  31.113  13.714   3.296
75678W        W44052   3.373  14.192   3.258
75679W        W44053   9.728  17.768  12.975
75680W        W44054  10.821  23.552  12.963
75681W        W44055  37.565  29.947   0.342
75682W        W44056  14.215  20.606   0.865
75683W        W44057  41.389   9.154   0.738
75684W        W44058  25.113  25.498   1.908
75685W        W44059  21.211  10.143   2.815
75686W        W44060  39.033  43.376  13.379
75687W        W44061  29.451  42.796  11.929
75688W        W44062  35.038  36.964  11.550
75689W        W44063  40.373   8.661   2.855
75690W        W44064  40.957  38.382  14.388
75691W        W44065  18.786  14.166   4.642
75692W        W44066   4.894  37.397  12.831
75693W        W44067  41.792  35.961   1.768
75694W        W44068   8.875   5.429   5.284
75695W        W44069  12.137  34.100  10.552
75696W        W44070  32.610  10.639   3.764
75697W        W44071  28.100  12.263   3.195
75698W        W44072  25.624  34.904   1.325
75699W        W44073   1.244  36.975  11.069
75700W        W44074  25.134   8.804  14.972
75701W        W44075  14.627  28.507  14.442
75702W        W44076  21.557  27.024   1.745
75703W        W44077   6.218  44.281  10.104
75704W        W44078  40.886   4.435  11.600
75705W        W44079  33.061   3.922   0.265
75706W        W44080   4.923  25.963  14.355
75707W        W44081  36.934  26.068  13.443
75708W        W44082  23.030  38.064  10.995
75709W        W44083  37.001  24.550   0.344
75710W        W44084  14.324  31.492   1.427
75711W        W44085  44.805  15.747   4.264
75712W        W44086  23.201  14.162   1.907
75713W        W44087  13.280  44.317   5.104
75714W        W44088  19.217   4.887   2.258
75715W        W44089  29.634  40.024   1.772
75716W        W44090  32.933  13.744  13.894
75717W        W44091  12.766  30.573  10.965
75718W        W44092  13.175  10.183   3.782
75719W        W44093  12.747  16.234  11.962
75720W        W44094  28.144  33.486  11.502
75721W        W44095   0.783  32.567  10.481
75722W        W44096  26.118  26.689   4.140
75723W        W44097   7.376  22.017   2.217
75724W        W44098   3.309  13.648  14.964
75725W        W44099  14.749  17.589   2.195
75726W        W44100   1.748  38.502  12.042
75727W        W44101   7.384   5.264   5.761
75728W        W44102  37.086  15.173  12.058
75729W        W44103  27.974  32.969  14.003
75730W        W44104  22.735  41.021   2.262
75731W        W44105  34.556  35.489  14.770
75732W        W44106  28.124  37.404   5.238
75733W        W44107   3.351  11.189  12.492
75734W        W44108  35.443  12.222   4.341
75735W        W44109   4.307  17.209  11.044
75736W        W44110  19.278   4.722  12.012
75737W        W44111   6.747  30.911   3.232
75738W        W44112  35.855  43.319   2.357
75739W        W44113  40.042  16.621  14.782
75740W        W44114  24.568  22.623   1.844
75741W        W44115  21.219  11.262  14.278
75742W        W44116   7.836  12.648   0.431
75743W        W44117   7.753  15.252  13.428
75744W        W44118  14.113  40.799  12.064
75745W        W44119  30.949  29.943   0.946
75746W        W44120   6.249  35.563   2.280
75747W        W44121   4.867   9.661   0.360
75748W        W44122  23.533   0.486   4.734
75749W        W44123   8.825   4.291  12.574
75750W        W44124  43.959  21.719   4.340
75751W        W44125   9.149  15.659   2.398
75752W        W44126   7.290   8.355   1.363
75753W        W44127  38.842   2.896   5.181
75754W        W44128   5.322  20.603  14.807
75755W        W44129  11.130  10.307   4.269
75756W        W44130  36.488   5.415  11.889
75757W        W44131  23.068  34.422  11.952
75758W        W44132  22.519  34.454  13.329
75759W        W44133   9.334  18.238   4.761
75760W        W44134   8.362  17.213  14.297
75761W        W44135   3.838  33.513  10.505
75762W        W44136  24.192  20.127  12.992
75763W        W44137  43.497  35.393  10.421
75764W        W44138  43.826   1.755   2.807
75765W        W44139  30.018   3.842  14.368
75766W        W44140  11.338  36.452   2.311
75767W        W44141  31.451   2.272   3.216
75768W        W44142  28.520  12.620   3.703
75769W        W44143  10.358  21.137   5.215
75770W        W44144   7.276  35.912   4.249
75771W        W44145  17.227  44.361  14.968
75772W        W44146  32.050  29.527  13.978
75773W        W44147   4.422   2.246   2.414
75774W        W44148  20.247   6.722   2.846
75775W        W44149  36.590  12.680   3.645
75776W        W44150  13.255  13.725   4.632
75777W        W44151  27.689  10.152  11.594
75778W        W44152  25.177  27.581  12.416
75779W        W44153  13.230  42.347  13.871
75780W        W44154   8.876  36.442  10.918
75781W        W44155  36.068  20.241   2.899
75782W        W44156   3.237  33.508   3.781
75783W        W44157  25.183   7.863   1.380
75784W        W44158  38.963  44.285  13.011
75785W        W44159  35.565  22.721  14.791
75786W        W44160   6.882  42.498  12.072
75787W        W44161  25.121  31.137  13.373
75788W        W44162  37.475  12.284  12.411
75789W        W44163  11.740  19.158   0.771
75790W        W44164  36.500  15.287   2.360
75791W        W44165   2.911  15.605  10.904
75792W        W44166   3.855  39.865   4.772
75793W        W44167  36.517  19.606  11.078
75794W        W44168   3.328  20.133   2.412
75795W        W44169  15.821  14.637   5.275
75796W        W44170  28.146  32.420  13.993
75797W        W44171  37.505  36.048  10.623
75798W        W44172   2.441  28.166   1.438
75799W        W44173   1.245  23.587  11.483
75800W        W44174  38.426   2.732   3.850
75801W        W44175  12.186  42.457  13.497
75802W        W44176   6.382   3.434   3.218
75803W        W44177  41.007  36.855   4.760
75804W        W44178   4.909  39.925   1.278
75805W        W44179   8.798  21.163   5.705
75806W        W44180   4.858  12.857   4.260
75807W        W44181  24.998  21.617   3.321
75808W        W44182  10.248   7.374   2.690
75809W        W44183  12.796   1.444  12.914
75810W        W44184  17.620  23.541   3.156
75811W        W44185  21.523  21.721   4.714
75812W        W44186  15.800  23.121  11.114
75813W        W44187   2.923  21.040  13.909
75814W        W44188  39.537  30.583  10.595
75815W        W44189  12.806  34.446   3.765
75816W        W44190   9.800  31.495  12.830
75817W        W44191  25.490  28.941  12.500
75818W        W44192  20.071  44.858   1.869
75819W        W44193  18.207  20.540  13.323
75820W        W44194  35.000  39.324   4.288
75821W        W44195  12.844  14.690  14.405
75822W        W44196  22.164  25.553   4.640
75823W        W44197  20.268  41.488   4.298
75824W        W44198  10.305   1.412   4.230
75825W        W44199  41.948   2.740   0.418
75826W        W44200  42.422  34.941   3.718
75827W        W44201  16.741  18.601  11.427
75828W        W44202  10.874  33.618   4.832
75829W        W44203  27.093  31.560  14.460
75830W        W44204   3.814   3.875  10.607
75831W        W44205  37.430  44.978  10.492
75832W        W44206   7.211   6.831  11.124
75833W        W44207  34.001  12.653   3.850
75834W        W44208  24.561  42.397  10.977
75835W        W44209   6.399  36.098  14.865
75836W        W44210  32.534   2.374  14.286
75837W        W44211   1.781   5.291   1.334
75838W        W44212  28.161  36.940   2.376
75839W        W44213   6.254  18.202  13.325
75840W        W44214  12.274  35.587   3.830
75841W        W44215   6.824  44.764   2.242
75842W        W44216  24.090  27.092  10.519
75843W        W44217   0.357  30.987  14.426
75844W        W44218  11.173  13.614  14.876
75845W        W44219  29.069  39.431  14.388
75846W        W44220  41.847  37.082  13.383
75847W        W44221  26.685  11.838  14.406
75848W        W44222  36.365  27.024  12.521
75849W        W44223  14.335  25.010  14.408
75850W        W44224  42.900   1.252  10.635
75851W        W44225  44.923   2.767   0.302
75852W        W44226  13.721   5.909  10.930
75853W        W44227  14.708  41.909  12.028
75854W        W44228  26.976  25.647   0.897
75855W        W44229  31.032  19.246   3.813
75856W        W44230  24.148  42.961  11.027
75857W        W44231   6.414  38.939   3.644
75858W        W44232   8.396  23.505   4.183
75859W        W44233  29.134  43.351  14.406
75860W        W44234  13.190   0.334   1.740
75861W        W44235  23.147  16.293  12.908
75862W        W44236   2.912  20.206   2.234
75863W        W44237  20.201  40.465  14.910
75864W        W44238  27.089  20.270   2.690
75865W        W44239  27.503  32.424  10.527
75866W        W44240  15.803  34.036   3.356
75867W        W44241  18.691   9.801  14.797
75868W        W44242  10.223  14.099  12.854
75869W        W44243   3.854  10.632  13.418
75870W        W44244  29.602  42.990   3.273
75871W        W44245  42.311  16.305   1.824
75872W        W44246  35.562  25.975   3.767
75873W        W44247  34.376  44.972  10.467
75874W        W44248  30.640  23.497  12.467
75875W        W44249  42.937   9.213   3.800
75876W        W44250  14.676   6.688  13.050
75877W        W44251  31.506  13.802  13.946
75878W        W44252  25.008  12.277  11.950
75879W        W44253  18.674  36.896  13.875
75880W        W44254  25.134  15.313   4.210
75881W        W44255   9.729  25.043   0.860
75882W        W44256  36.894   5.928   4.255
75883W        W44257   3.715   9.195   1.379
75884W        W44258  20.034  21.026  10.044
75885W        W44259  32.497  31.450  11.909
75886W        W44260  23.217  22.509  13.456
75887W        W44261  19.602  17.655   1.263
75888W        W44262  26.996  41.832   3.320
75889W        W44263  40.549  36.920  14.805
75890W        W44264  27.022  19.145   1.816
75891W        W44265  11.814  30.429   2.682
75892W        W44266  36.872  33.518   4.249
75893W        W44267  21.154   9.703   1.285
75894W        W44268  10.877  37.945   4.320
75895W        W44269   1.439  13.804   4.686
75896W        W44270   6.309  34.416  11.873
75897W        W44271  26.042   0.394  14.286
75898W        W44272  14.183   0.957   0.261
75899W        W44273   1.460  16.084   2.875
75900W        W44274  22.608  25.684  11.006
75901W        W44275  34.894   7.897  11.923
75902W        W44276  24.139  18.292   3.204
75903W        W44277  43.830  28.985   2.371
75904W        W44278  26.024  29.930   3.270
75905W        W44279  37.939   9.310   5.588
75906W        W44280  28.132  23.108   4.245
75907W        W44281  31.632   8.277   0.326
75908W        W44282  38.917  40.022  14.861
75909W        W44283   0.376  36.506  12.057
75910W        W44284   2.236  22.541  11.447
75911W        W44285  37.471   1.899   2.785
75912W        W44286  35.989  23.571   4.668
75913W        W44287   4.773  11.633   1.308
75914W        W44288  16.163   2.952  10.995
75915W        W44289   6.703  10.663  14.974
75916W        W44290  18.219  11.781   1.278
75917W        W44291  34.496  37.554  13.327
75918W        W44292  30.125   4.378   2.827
75919W        W44293  33.946  15.633  10.524
75920W        W44294  31.419  21.162  14.900
75921W        W44295  29.153   2.462   4.306
75922W        W44296  44.961   9.372   3.770
75923W        W44297  27.093  26.077  11.096
75924W        W44298  37.915  35.966  13.314
75925W        W44299   8.705  26.700   0.808
75926W        W44300  35.031  22.639  12.038
75927W        W44301  27.977  41.524   1.394
75928W        W44302  26.692  34.051   3.665
75929W        W44303  14.652  10.735   0.874
75930W        W44304  43.473  20.192  12.877
75931W        W44305  16.600  28.674   4.351
75932W        W44306  19.216  19.559  14.966
75933W        W44307  12.185  31.135   0.842
75934W        W44308  20.710  26.033  14.005
75935W        W44309  17.628  37.428   3.338
75936W        W44310  26.151  21.232  12.024
75937W        W44311  26.668  10.814  11.985
75938W        W44312  13.727  26.626  13.062
75939W        W44313  24.549  23.717   4.275
75940W        W44314  40.022  26.646   2.397
75941W        W44315  43.378  19.042  13.906
75942W        W44316   0.914  39.870  12.526
75943W        W44317  15.291   1.903  11.505
75944W        W44318  10.228  20.554  13.005
75945W        W44319   6.878   7.669   1.833
75946W        W44320  11.320   7.365  11.958
75947W        W44321  19.216  29.020   1.735
75948W        W44322  39.364  35.040  12.382
75949W        W44323  30.068   1.872   1.787
75950W        W44324  10.365  19.689  13.975
75951W        W44325   0.878  28.990  11.454
75952W        W44326  27.528  19.239  12.523
75953W        W44327  43.961  38.021   1.890
75954W        W44328  21.081   0.395   1.211
75955W        W44329  10.694  12.306   1.365
75956W        W44330  43.445  33.491  13.839
75957W        W44331   9.745  29.515  11.442
75958W        W44332  30.513   9.154  12.841
75959W        W44333  38.930  36.413   2.218
75960W        W44334  21.758  29.114  12.996
75961W        W44335  43.779  40.949   1.313
75962W        W44336  39.489  29.918  11.519
75963W        W44337  26.083  12.352  14.374
75964W        W44338   5.761  15.256   3.164
75965W        W44339  33.950  14.664  13.524
75966W        W44340  14.117  12.227   0.866
75967W        W44341   1.861  29.577  12.497
75968W        W44342  35.868  29.975  13.458
75969W        W44343  30.490  40.398  11.554
75970W        W44344  40.008  24.111   1.363
75971W        W44345   3.290   9.302  12.463
75972W        W44346   9.665  12.753   0.386
75973W        W44347  38.039   4.393   3.343
75974W        W44348   6.253  13.662  12.416
75975W        W44349  19.717  19.065  14.021
75976W        W44350  24.722  30.444   2.191
75977W        W44351   5.812  23.150   5.277
75978W        W44352  38.466  30.614  14.911
75979W        W44353  26.611  16.791   4.635
75980W        W44354  35.515  32.942  13.888
75981W        W44355  44.279   1.884   0.336
75982W        W44356   0.929  21.676   0.388
75983W        W44357  25.145  34.516   1.239
75984W        W44358  27.119  20.060  14.835
75985W        W44359  39.976   4.921  14.328
75986W        W44360   7.721   0.874   0.284
75987W        W44361  41.405   9.726   0.450
75988W        W44362   3.306  17.562  12.068
75989W        W44363  34.555  22.200  14.838
75990W        W44364  26.553  14.677   4.764
75991W        W44365   8.882   1.741  13.803
75992W        W44366  12.757  39.555  12.396
75993W        W44367  20.150   5.804  13.376
75994W        W44368  25.972  17.063  10.020
75995W        W44369  42.489  18.172  13.527
75996W        W44370  40.955  27.500  12.459
75997W        W44371  15.642  42.876  12.542
75998W        W44372  15.287   9.240   2.264
75999W        W44373  11.244   6.714   1.893
76000W        W44374  26.112  11.725   3.815
76001W        W44375   0.449  11.166   1.270
76002W        W44376  27.963   7.399   0.248
76003W        W44377  40.938  31.021   1.326
76004W        W44378   2.308  14.141  13.488
76005W        W44379  34.993  29.581   3.750
76006W        W44380   8.251  38.883  14.882
76007W        W44381   5.727  27.500   3.769
76008W        W44382  26.070  15.787   4.724
76009W        W44383  16.131   6.344  10.459
76010W        W44384  13.839  10.674  10.420
76011W        W44385   8.863  30.425  14.941
76012W        W44386  16.218   3.406  10.439
76013W        W44387  26.482   0.363   3.828
76014W        W44388  33.920  27.062  10.480
76015W        W44389   5.875  44.977   3.307
76016W        W44390  10.703  40.505   4.738
76017W        W44391  25.482  30.074  10.526
76018W        W44392  11.736  39.858  12.360
76019W        W44393  22.186   8.216   1.759
76020W        W44394  26.509   4.801  13.976
76021W        W44395  12.207   1.914  10.998
76022W        W44396  43.420  40.515   1.434
76023W        W44397  11.827  23.207  13.400
76024W        W44398   3.803  11.361   1.765
76025W        W44399  24.653  30.159   5.597
76026W        W44400  14.620  41.900  10.429
76027W        W44401  32.407  38.829   3.272
76028W        W44402   5.197   8.696   4.285
76029W        W44403  38.840   1.426  10.436
76030W        W44404  16.645  25.591  13.965
76031W        W44405  14.732  34.462  12.848
76032W        W44406   0.355   3.745   0.882
76033W        W44407  28.080   4.235   2.779
76034W        W44408  42.512   6.831   3.319
76035W        W44409  40.396  37.984  10.418
76036W        W44410  13.290   9.196   3.728
76037W        W44411  39.003  22.676   0.257
76038W        W44412  30.432  22.508   1.719
76039W        W44413   5.890  28.600  13.446
76040W        W44414  18.271  10.743   4.339
76041W        W44415   9.651  27.958   2.865
76042W        W44416  37.901   2.451   3.189
76043W        W44417  20.698  10.286  14.900
76044W        W44418  20.155  11.696  10.482
76045W        W44419   5.801   5.288   9.590
76046W        W44420   3.358  16.091  14.942
76047W        W44421  33.495   1.924   4.679
76048W        W44422  22.604   6.850  11.115
76049W        W44423   0.967  17.653  11.967
76050W        W44424  27.177  39.062   4.752
76051W        W44425   3.289   7.884   4.267
76052W        W44426  19.741  37.512   5.293
76053W        W44427   5.906   4.741   0.831
76054W        W44428  20.631  12.198   2.282
76055W        W44429  12.315  44.358  13.801
76056W        W44430  11.753  39.928   1.837
76057W        W44431  14.599  13.296   3.340
76058W        W44432   5.921  37.529   4.264
76059W        W44433   2.417  36.466  14.337
76060W        W44434  28.633   5.355   0.936
76061W        W44435  42.940   2.343   4.285
76062W        W44436  33.940  27.139   1.316
76063W        W44437  14.317   6.923  14.494
76064W        W44438  13.129  18.082  10.624
76065W        W44439   6.256  30.961  14.915
76066W        W44440   1.420   0.747   2.267
76067W        W44441  18.726  12.630   4.269
76068W        W44442  23.237  11.804   1.921
76069W        W44443  21.679  38.388  14.762
76070W        W44444  30.549  37.871  13.051
76071W        W44445  28.965  27.575   4.794
76072W        W44446  14.691  23.169  10.589
76073W        W44447   9.217  11.183  10.613
76074W        W44448  17.192  10.219   3.255
76075W        W44449  18.192   6.390  12.344
76076W        W44450   4.437  15.735  11.948
76077W        W44451  20.659  38.069  12.097
76078W        W44452  18.160  28.510  11.488
76079W        W44453  34.394  36.990   4.237
76080W        W44454  14.619   4.318   1.276
76081W        W44455  21.633  22.133   1.807
76082W        W44456   9.313  11.739  12.943
76083W        W44457  18.620   8.269  12.842
76084W        W44458   9.208   5.769  14.810
76085W        W44459  23.130  42.330  10.529
76086W        W44460  23.729  14.708  13.445
76087W        W44461  13.243  23.658   0.369
76088W        W44462  37.581  12.759  10.098
76089W        W44463  37.021  38.348  12.973
76090W        W44464  25.999  30.972   0.871
76091W        W44465   1.962  41.829   5.258
76092W        W44466   2.815  24.674  10.445
76093W        W44467   9.211  33.963  14.028
76094W        W44468  42.007  21.582   2.850
76095W        W44469  25.473   0.379  14.418
76096W        W44470  18.076  22.502   0.301
76097W        W44471  20.057   4.872   3.724
76098W        W44472  16.243   8.172   4.234
76099W        W44473   5.900  25.101  14.368
76100W        W44474  28.466  33.586  12.519
76101W        W44475  39.502  26.588   2.890
76102W        W44476  40.985  14.268  11.873
76103W        W44477  24.603  38.050  12.535
76104W        W44478  36.441  15.129  11.959
76105W        W44479   7.292  28.002  14.507
76106W        W44480  22.664  26.683  10.050
76107W        W44481  37.556  34.968  13.339
76108W        W44482  44.793  13.683   2.369
76109W        W44483   9.791  15.226   1.794
76110W        W44484   5.217  21.241  11.127
76111W        W44485   2.913  37.574  14.898
76112W        W44486  14.194  19.212  13.969
76113W        W44487   0.440  39.527   0.262
76114W        W44488  36.575  36.897  13.969
76115W        W44489  29.048  12.291   0.846
76116W        W44490  13.252  35.915  10.527
76117W        W44491   8.176  38.954  13.318
76118W        W44492   7.214  41.034  13.969
76119W        W44493  12.783  21.199  13.400
76120W        W44494   5.809   2.839   1.320
76121W        W44495  26.641  44.825   0.917
76122W        W44496  43.011   3.267  13.948
76123W        W44497  21.583   6.782  11.515
76124W        W44498  36.038  41.924   3.216
76125W        W44499  30.162   1.330  14.486
76126W        W44500  41.884  16.109   0.428
76127W        W44501  30.978   8.250   3.321
76128W        W44502  41.915  11.227   3.368
76129W        W44503  33.450  35.490   4.226
76130W        W44504   4.299   2.252   3.146
76131W        W44505  38.556  16.270  10.568
76132W        W44506   1.884  16.264   1.224
76133W        W44507  11.665  38.925  14.455
76134W        W44508  17.557   5.432  11.878
76135W        W44509   0.956  13.691  10.611
76136W        W44510  30.939  11.630   3.762
76137W        W44511  19.668  28.941  12.942
76138W        W44512  24.480   3.807   3.293
76139W        W44513  30.627  13.286   3.279
76140W        W44514  33.027  17.122   0.798
76141W        W44515  39.905   4.730  10.560
76142W        W44516  26.575  13.678  13.509
76143W        W44517  24.714  16.623  14.763
76144W        W44518  21.097  23.063   0.885
76145W        W44519  28.491  19.629   1.367
76146W        W44520  15.807   9.392   1.361
76147W        W44521  24.544  25.080  12.373
76148W        W44522  23.166   1.774  11.923
76149W        W44523  30.070  25.194  12.398
76150W        W44524  35.109  11.303  14.339
76151W        W44525  32.514  23.692   1.289
76152W        W44526  18.237   2.933  13.061
76153W        W44527  33.905  19.115   0.413
76154W        W44528  26.033   4.265   4.627
76155W        W44529  13.331   7.827   0.937
76156W        W44530  44.390  42.895  14.472
76157W        W44531  34.893  16.263  13.049
76158W        W44532  33.023  42.026   3.684
76159W        W44533  40.432  27.982  10.576
76160W        W44534  31.562   5.772   3.250
76161W        W44535   1.383   8.302  13.510
76162W        W44536  13.244  35.043   3.209
76163W        W44537  24.184  17.642   9.480
76164W        W44538  14.326  33.050   2.415
76165W        W44539  37.344  15.757  12.424
76166W        W44540  29.083  20.568   4.327
76167W        W44541   5.880  44.338   0.927
76168W        W44542  42.826   4.859   4.194
76169W        W44543  28.677  17.680   1.703
76170W        W44544  21.539   0.976  12.464
76171W        W44545  25.090  27.477   2.816
76172W        W44546  16.291  23.125   3.217
76173W        W44547  25.099  15.640   1.747
76174W        W44548  44.856  22.107   2.399
76175W        W44549  12.298   8.375   3.267
76176W        W44550  31.644  23.629  12.435
76177W        W44551  32.405  35.997  10.509
76178W        W44552  42.032  40.306  14.295
76179W        W44553  38.819  36.902  14.793
76180W        W44554   0.356  31.527   1.308
76181W        W44555  10.309  36.584   2.365
76182W        W44556   4.330  39.831  10.472
76183W        W44557  20.155  14.094   0.301
76184W        W44558  12.616  14.148  11.390
76185W        W44559   6.704   4.899   0.391
76186W        W44560  43.365  19.745  12.365
76187W        W44561  10.169  27.009   1.325
76188W        W44562   9.860  35.906  13.498
76189W        W44563   1.753  25.995   3.324
76190W        W44564  22.193  39.895   1.437
76191W        W44565  16.247  25.212   0.844
76192W        W44566  35.870  40.913   0.782
76193W        W44567   4.251  44.393   2.361
76194W        W44568  30.976  25.714  12.968
76195W        W44569  14.340   7.699  12.905
76196W        W44570   5.221  36.854   0.739
76197W        W44571  38.955  34.018   1.402
76198W        W44572  37.988   4.746   0.889
76199W        W44573  34.440  39.446   0.276
76200W        W44574  35.878   9.660  11.009
76201W        W44575  16.232  20.147   3.640
76202W        W44576   5.386   2.760   0.427
76203W        W44577  13.207   5.221  11.117
76204W        W44578   2.290  42.883  13.956
76205W        W44579  38.014  33.600  12.096
76206W        W44580  24.520  11.626  11.046
76207W        W44581  42.480  25.137  12.480
76208W        W44582  11.279   1.325  12.913
76209W        W44583  36.444  41.838   0.371
76210W        W44584  26.503  13.184   2.393
76211W        W44585   3.361  37.486   1.280
76212W        W44586  12.842  16.164   2.355
76213W        W44587  19.254  27.626  10.411
76214W        W44588  29.927  12.223   3.320
76215W        W44589   4.795  31.625   3.291
76216W        W44590  15.175  16.627  14.292
76217W        W44591   8.730  23.989   3.208
76218W        W44592   0.256   0.320   2.195
76219W        W44593  16.080  25.518  13.016
76220W        W44594  26.153  38.989  13.035
76221W        W44595  39.371  12.744   4.654
76222W        W44596  39.958  23.574  11.895
76223W        W44597  19.739  19.201  10.982
76224W        W44598  40.456  10.845   0.324
76225W        W44599  33.088  28.114   3.735
76226W        W44600  16.746  23.621   4.213
76227W        W44601   0.839  13.207  11.378
76228W        W44602   6.734  28.107   2.385
76229W        W44603  21.633  42.890   3.850
76230W        W44604   2.255  42.292   2.898
76231W        W44605  43.505  38.548  14.370
76232W        W44606  27.645   3.272  14.997
76233W        W44607  31.997  17.102  13.391
76234W        W44608  24.544  37.953  10.928
76235W        W44609  41.829  12.166   0.414
76236W        W44610  43.397   2.420   0.919
76237W        W44611  32.415   4.231  11.382
76238W        W44612  36.397  17.742   3.328
76239W        W44613  43.271  21.227  12.357
76240W        W44614  17.766  35.604   3.662
76241W        W44615  21.163  42.456  13.496
76242W        W44616  10.356   3.825   4.797
76243W        W44617  26.145  30.471   0.958
76244W        W44618  39.457  28.979  10.409
76245W        W44619  44.797  17.155   1.773
76246W        W44620  31.970  13.646  11.004
76247W        W44621  22.589  27.179   4.304
76248W        W44622  34.115  20.070   2.263
76249W        W44623  20.257  28.582  12.975
76250W        W44624  44.296  31.142  10.145
76251W        W44625   0.878  32.551   4.612
76252W        W44626  29.555  14.747   2.665
76253W        W44627  29.165   8.779   2.876
76254W        W44628  31.468  22.109  11.491
76255W        W44629  20.577  18.105   3.755
76256W        W44630   7.381  26.172   0.791
76257W        W44631  38.020  26.092   4.821
76258W        W44632  18.753  27.951  14.807
76259W        W44633  22.091  44.885  14.294
76260W        W44634  26.161  25.146   1.214
76261W        W44635   2.334   1.449  13.014
76262W        W44636   8.840  40.024   3.675
76263W        W44637  18.265  37.027   1.748
76264W        W44638   0.967  30.065   0.352
76265W        W44639  27.110  39.475   1.215
76266W        W44640  27.505   2.314  11.478
76267W        W44641  22.179   2.940  12.024
76268W        W44642  16.244   8.846   4.762
76269W        W44643  11.365  28.084  11.452
76270W        W44644  23.637  17.571   2.684
76271W        W44645  31.987   6.705   5.157
76272W        W44646  32.618  29.027   4.678
76273W        W44647  12.133  41.857   4.827
76274W        W44648  34.379  39.466  11.953
76275W        W44649  25.995  20.757  11.880
76276W        W44650  19.540  43.997   2.412
76277W        W44651   6.220  26.954  12.343
76278W        W44652  11.233  43.825  14.336
76279W        W44653  20.204  15.295  12.823
76280W        W44654  35.465  20.170  12.470
76281W        W44655  39.494  36.435  14.417
76282W        W44656  38.526   2.967  13.542
76283W        W44657  30.565  21.579  12.380
76284W        W44658   2.270  26.142   2.296
76285W        W44659  27.051   1.885  14.841
76286W        W44660  37.048  37.489  12.534
76287W        W44661  24.493  21.119   4.761
76288W        W44662  39.037  38.568  12.824
76289W        W44663  42.504  19.196  14.334
76290W        W44664  32.058  22.173  13.390
76291W        W44665  18.691  33.535   4.331
76292W        W44666  30.006  10.335   0.854
76293W        W44667   8.744  44.334  12.092
76294W        W44668  35.893  41.434   3.808
76295W        W44669  35.981  24.480   4.244
76296W        W44670  12.337  26.980  12.425
76297W        W44671  20.195   9.885  11.857
76298W        W44672  21.207  14.163  13.968
76299W        W44673   3.760   7.764   2.300
76300W        W44674  40.328  16.666   1.904
76301W        W44675  13.787  14.226  13.022
76302W        W44676   7.729  31.026   5.318
76303W        W44677   1.853   2.773   2.877
76304W        W44678   2.789  44.376   0.899
76305W        W44679  18.675  22.226  13.333
76306W        W44680  37.395   1.879  12.077
76307W        W44681  33.997  44.260  12.554
76308W        W44682  28.470  29.005  11.984
76309W        W44683  18.166   1.465   1.439
76310W        W44684  42.409   0.278   2.794
76311W        W44685  10.288   7.184  14.883
76312W        W44686  19.743   7.874   3.246
76313W        W44687   1.737  37.841  11.413
76314W        W44688   0.968  29.639   4.275
76315W        W44689  29.586  32.124   0.772
76316W        W44690   1.303  22.678   1.883
76317W        W44691   8.729   2.281  14.473
76318W        W44692  23.143  25.026  13.874
76319W        W44693   2.254  41.961  13.900
76320W        W44694  44.980  25.158  12.552
76321W        W44695   7.181  10.331   2.246
76322W        W44696  28.593   0.429  13.517
76323W        W44697  24.149  41.894  14.766
76324W        W44698  43.314  13.350   4.258
76325W        W44699  24.031  15.118  11.540
76326W        W44700   3.892  35.032   3.867
76327W        W44701  42.432  40.517  12.532
76328W        W44702  35.451  25.080  14.903
76329W        W44703   5.381  40.043  12.505
76330W        W44704  40.534  28.655   3.858
76331W        W44705  40.489  32.472   4.232
76332W        W44706  10.341  36.389   3.730
76333W        W44707   3.386  20.269   0.405
76334W        W44708   4.284  43.440   3.262
76335W        W44709   2.334  33.013   2.333
76336W        W44710  21.558  31.490  12.485
76337W        W44711  17.176  21.657  14.839
76338W        W44712  34.974  41.824   2.787
76339W        W44713  38.514  18.278   1.211
76340W        W44714  41.360   6.361   5.267
76341W        W44715  21.214   1.731   1.330
76342W        W44716  11.236  16.664   3.180
76343W        W44717  12.789  35.532   1.298
76344W        W44718  32.556  36.005  14.348
76345W        W44719  28.137  20.752   3.766
76346W        W44720  20.607   6.767  13.496
76347W        W44721  41.817  20.240   2.812
76348W        W44722  39.371  38.023   3.314
76349W        W44723  37.035  41.512  11.472
76350W        W44724   1.266  14.615   3.372
76351W        W44725  22.605  40.030  14.969
76352W        W44726  35.045  34.032  14.948
76353W        W44727  33.393  42.904   2.407
76354W        W44728   4.854  42.311  11.417
76355W        W44729  39.486  10.352  11.110
76356W        W44730  12.134  15.618  14.890
76357W        W44731  34.008  37.834  11.107
76358W        W44732  15.131  25.505  12.533
76359W        W44733  33.026  16.711   1.261
76360W        W44734  14.183  43.950  12.096
76361W        W44735  21.666  17.673  13.380
76362W        W44736  21.691  16.635  13.052
76363W        W44737  12.826  21.104   3.292
76364W        W44738   4.737  41.445   1.316
76365W        W44739  41.891   3.225  11.490
76366W        W44740  41.812   9.867   4.641
76367W        W44741  39.884  28.158  14.406
76368W        W44742  15.117  30.082   4.622
76369W        W44743  39.884   6.294  14.432
76370W        W44744  33.474  27.034   0.288
76371W        W44745  27.196   8.723   2.378
76372W        W44746  27.608   0.906   3.725
76373W        W44747  43.489  26.668   2.820
76374W        W44748  11.205  27.603  10.512
76375W        W44749  30.056  11.176   3.167
76376W        W44750  17.215  14.105  11.990
76377W        W44751   4.288  20.249  12.007
76378W        W44752  20.622  21.754  10.621
76379W        W44753   5.231  18.615   4.789
76380W        W44754  44.881  10.725   0.292
76381W        W44755  15.786  18.220   3.800
76382W        W44756   1.962  43.986  11.419
76383W        W44757  32.533  36.487   2.266
76384W        W44758  36.452  16.683   4.767
76385W        W44759  12.319  23.530  11.053
76386W        W44760  30.649  11.691   3.275
76387W        W44761  11.157   9.818  14.774
76388W        W44762  32.488  12.747  12.954
76389W        W44763  23.080  37.890   2.700
76390W        W44764  28.169  21.025   2.758
76391W        W44765   8.757  11.361  14.354
76392W        W44766  14.109  24.192   1.246
76393W        W44767  34.397  38.058  14.994
76394W        W44768  23.219  18.731   3.375
76395W        W44769  42.390  23.660   0.891
76396W        W44770  13.136  21.547   0.436
76397W        W44771  11.316  16.190  11.984
76398W        W44772   0.285  28.940  13.460
76399W        W44773  22.080  20.157  10.896
76400W        W44774   6.727  44.755  11.077
76401W        W44775  28.085  14.690  10.124
76402W        W44776  18.790  12.175   2.721
76403W        W44777   8.865  22.708  13.882
76404W        W44778  30.949   5.289  13.316
76405W        W44779  39.514   6.842   1.835
76406W        W44780  42.809   4.811  13.894
76407W        W44781   4.788   7.730   1.882
76408W        W44782   4.831  29.601   1.831
76409W        W44783  31.600  23.536  13.379
76410W        W44784  26.133  37.435  11.977
76411W        W44785   6.786  39.472   1.361
76412W        W44786  41.352   3.929  14.298
76413W        W44787   6.384  24.521   2.341
76414W        W44788  29.661  29.101   4.255
76415W        W44789   7.282  19.748  10.125
76416W        W44790  40.927  14.106   1.931
76417W        W44791  43.967  34.905  11.931
76418W        W44792   4.788  13.716  10.059
76419W        W44793  15.591  39.995  10.045
76420W        W44794  36.407  15.769   2.899
76421W        W44795  31.628   8.882   0.300
76422W        W44796  31.035  24.101  11.990
76423W        W44797  23.162   4.285   2.190
76424W        W44798  37.074  29.592  14.954
76425W        W44799  13.273  29.546   1.254
76426W        W44800  16.165  44.451  12.962
76427W        W44801  29.934  38.065  11.440
76428W        W44802  14.189   2.897  14.462
76429W        W44803  26.648  39.351   0.328
76430W        W44804  12.119  28.614  13.846
76431W        W44805  17.648   6.275  11.447
76432W        W44806  33.066  22.574  13.335
76433W        W44807  40.803  34.991   3.332
76434W        W44808  44.950  32.438   0.283
76435W        W44809  41.377  16.754   0.442
76436W        W44810  10.249  31.000   4.292
76437W        W44811  23.708  35.546   1.721
76438W        W44812  27.981  14.614   2.768
76439W        W44813  29.651  22.202  11.099
76440W        W44814  33.422  26.565   2.749
76441W        W44815  30.628  43.475  14.412
76442W        W44816  43.365  32.542  12.848
76443W        W44817  17.217  15.642  11.514
76444W        W44818  29.641  14.708   0.408
76445W        W44819  20.067  35.467  12.467
76446W        W44820  34.094  29.040  11.045
76447W        W44821   2.826  26.038   4.768
76448W        W44822  32.018  27.103  10.927
76449W        W44823  10.152  22.713   3.250
76450W        W44824  44.378   4.344   3.227
76451W        W44825  26.551  10.276   4.794
76452W        W44826  35.899   4.302  11.482
76453W        W44827  17.229  34.105  13.340
76454W        W44828  33.571  16.246   0.904
76455W        W44829  34.422   0.436   0.423
76456W        W44830  42.922   2.366   2.736
76457W        W44831   1.920  11.169   4.771
76458W        W44832  35.949   1.864  14.783
76459W        W44833  30.941  29.541  12.853
76460W        W44834  15.771  18.078  13.528
76461W        W44835  23.241  11.780   1.395
76462W        W44836  19.228  32.546   0.395
76463W        W44837  28.162  37.882   2.773
76464W        W44838  36.452  28.069   5.099
76465W        W44839   2.420  29.097   9.961
76466W        W44840   5.346  13.828  13.027
76467W        W44841  25.477  40.824   4.735
76468W        W44842   8.718  29.658   1.333
76469W        W44843   9.667   7.835   2.359
76470W        W44844  12.153  40.312   3.634
76471W        W44845  18.114  33.061   3.752
76472W        W44846   1.282  25.676   2.761
76473W        W44847  11.793   0.382  11.482
76474W        W44848  17.205  12.127   1.255
76475W        W44849  35.366   9.674  13.004
76476W        W44850   1.845  21.051  11.035
76477W        W44851  28.443  14.646  12.000
76478W        W44852   5.311  16.310   1.925
76479W        W44853  39.414  37.852  13.454
76480W        W44854   9.314  32.483  13.979
76481W        W44855   6.821  36.588   4.350
76482W        W44856   7.824   5.735   5.278
76483W        W44857  12.131  39.460  14.030
76484W        W44858  43.959  32.571  11.386
76485W        W44859  28.438  15.601  14.441
76486W        W44860  16.744  36.485  11.455
76487W        W44861  26.621  34.087  11.915
76488W        W44862  37.855  15.817  10.576
76489W        W44863  38.527  27.104   0.964
76490W        W44864  29.987  35.883   3.788
76491W        W44865  30.923  10.235  13.941
76492W        W44866  27.197  11.215  10.896
76493W        W44867  43.478  42.971   5.250
76494W        W44868   9.196  43.334   0.260
76495W        W44869  40.542  14.793   3.716
76496W        W44870  39.351  25.497  12.516
76497W        W44871  20.141  44.372  12.454
76498W        W44872  28.572  19.211  13.380
76499W        W44873  31.632  18.100   0.733
76500W        W44874  29.145  25.542   4.139
76501W        W44875  36.079  25.560   1.269
76502W        W44876  36.062  19.757  12.441
76503W        W44877   0.345  13.329   0.392
76504W        W44878  28.526  12.134   3.309
76505W        W44879   1.971  29.459   2.714
76506W        W44880  42.796  30.085  13.345
76507W        W44881  41.871  24.532  13.536
76508W        W44882  23.662  23.137  12.942
76509W        W44883  24.621  30.524   5.312
76510W        W44884   6.379   3.293   2.791
76511W        W44885  23.078  22.152   2.889
76512W        W44886  29.929  18.709   2.332
76513W        W44887  40.437   0.923   0.791
76514W        W44888   8.400  21.749   1.852
76515W        W44889  17.268  15.318   2.262
76516W        W44890  36.569  11.242   1.413
76517W        W44891   6.888  12.729  14.915
76518W        W44892   8.338   5.279   4.114
76519W        W44893  18.062  26.542   3.167
76520W        W44894  40.820  12.230   0.286
76521W        W44895  44.912  38.948  13.813
76522W        W44896  15.756   0.955  14.296
76523W        W44897  18.730  20.746  12.991
76524W        W44898   2.364  35.401  12.019
76525W        W44899  38.383  28.932   2.285
76526W        W44900  23.189  22.208  11.937
76527W        W44901  29.920  23.992   2.847
76528W        W44902  35.406  22.011   2.666
76529W        W44903  17.240  44.947   4.194
76530W        W44904  25.701  40.533   9.986
76531W        W44905   8.331  20.727   5.270
76532W        W44906  40.336   5.324   0.866
76533W        W44907  33.024  31.563  10.539
76534W        W44908   0.304  36.443  11.428
76535W        W44909  29.495  38.879  13.454
76536W        W44910   2.305  36.899  10.556
76537W        W44911   6.414  34.550  14.876
76538W        W44912  17.753  44.269  11.604
76539W        W44913   4.814  13.216  11.499
76540W        W44914   0.427  40.506   4.818
76541W        W44915   9.268  20.234   2.755
76542W        W44916  11.673  26.690   5.265
76543W        W44917  22.020  26.952  12.339
76544W        W44918  29.604  44.417   0.863
76545W        W44919  21.249   8.174   0.382
76546W        W44920   8.657  12.340   2.347
76547W        W44921  12.735  42.869   0.419
76548W        W44922  42.945   6.215  14.352
76549W        W44923  35.397  11.271  12.367
76550W        W44924  37.062   8.256   0.466
76551W        W44925   5.713  38.051   0.372
76552W        W44926  33.565  44.450   3.725
76553W        W44927   8.795   4.868  11.521
76554W        W44928   3.808  11.656   1.220
76555W        W44929  31.069  30.423   3.178
76556W        W44930  29.170  38.927  14.285
76557W        W44931  38.958  36.873  13.872
76558W        W44932  20.556  20.545   4.652
76559W        W44933   9.240  12.203   2.707
76560W        W44934  30.460   4.435   3.837
76561W        W44935  23.105  16.583  14.448
76562W        W44936  13.694   0.935  14.448
76563W        W44937  19.097  28.046  13.806
76564W        W44938  31.095   7.340  14.942
76565W        W44939   5.725  33.118   3.672
76566W        W44940  15.318   4.270   2.196
76567W        W44941   5.718  16.212  12.414
76568W        W44942   8.777  31.976   4.817
76569W        W44943  44.989   1.811  12.498
76570W        W44944  31.959  22.553   3.794
76571W        W44945  32.480  17.240   4.759
76572W        W44946  30.114  11.280   4.734
76573W        W44947  38.465  41.372   4.701
76574W        W44948   6.788  35.564  11.941
76575W        W44949  39.819  39.828  12.429
76576W        W44950  20.192  22.615   3.666
76577W        W44951   5.426   8.755   3.202
76578W        W44952  35.397   3.218  14.453
76579W        W44953  21.233  11.850  14.498
76580W        W44954  14.322  20.054   5.296
76581W        W44955  26.572  21.543   0.853
76582W        W44956  11.835   7.233  13.055
76583W        W44957  29.600   7.771   0.800
76584W        W44958   4.773  14.333  10.415
76585W        W44959  25.128  43.769  11.865
76586W        W44960  43.510  17.658  10.979
76587W        W44961  32.602  14.761  12.881
76588W        W44962  15.303  31.949  11.027
76589W        W44963  32.006   5.728  13.878
76590W        W44964  30.929  37.531  11.516
76591W        W44965  31.040  41.800  12.493
76592W        W44966   0.859  28.515   2.713
76593W        W44967   0.254   0.800  14.991
76594W        W44968   0.419  16.251  13.442
76595W        W44969  19.542   7.677  12.008
76596W        W44970  29.583  11.678   4.244
76597W        W44971   2.367  22.204   0.965
76598W        W44972  14.672  15.779   1.729
76599W        W44973   6.704  35.589  14.868
76600W        W44974  32.449  35.401   1.360
76601W        W44975  13.793   3.321   1.250
76602W        W44976   8.313  26.025   2.258
76603W        W44977  36.505   9.296  12.454
76604W        W44978  18.242   1.879   4.216
76605W        W44979  27.088  31.639  13.879
76606W        W44980  12.806  43.460   1.287
76607W        W44981   5.291  21.573   1.295
76608W        W44982  27.588  25.621  13.938
76609W        W44983  34.526  29.927  12.907
76610W        W44984  44.449  37.514   0.907
76611W        W44985   8.251   3.435   5.085
76612W        W44986   7.879  31.457   4.173
76613W        W44987  11.148  33.009   4.710
76614W        W44988  15.605  33.413  11.886
76615W        W44989  18.753   4.381   1.442
76616W        W44990   5.800   3.876  14.894
76617W        W44991  27.123   4.911  10.907
76618W        W44992  12.659  29.123  14.436
76619W        W44993  16.073  24.042   0.350
76620W        W44994  22.233  31.469  12.353
76621W        W44995  13.195  16.709  10.159
76622W        W44996  39.550  35.107   1.244
76623W        W44997  24.554  31.595   3.831
76624W        W44998  36.393   3.434   4.264
76625W        W44999  16.279  36.422   0.828
76626W        W45000  36.535  31.410  14.307
76627W        W45001  35.549  33.988   1.289
76628W        W45002  35.985   2.261   4.144
76629W        W45003  12.151  40.504   4.705
76630W        W45004   2.350  26.563   4.279
76631W        W45005  19.775   7.908   1.261
76632W        W45006   1.360  26.066   2.824
76633W        W45007  39.048  12.630   3.250
76634W        W45008  21.244   2.253  12.531
76635W        W45009  13.764  26.654   4.677
76636W        W45010  20.081  35.898  12.573
76637W        W45011   2.342  24.161   2.319
76638W        W45012   8.292  27.529   4.808
76639W        W45013   7.396  28.088   4.124
76640W        W45014  17.268  14.187   1.831
76641W        W45015   6.721  32.572   1.428
76642W        W45016   7.230  23.181  12.836
76643W        W45017  38.067  10.141   2.835
76644W        W45018   1.938  31.920  11.395
76645W        W45019  35.894  17.204  13.857
76646W        W45020  15.184  10.211  14.512
76647W        W45021  14.259   7.766  10.503
76648W        W45022  30.913  26.965   3.177
76649W        W45023   8.364   6.868  12.889
76650W        W45024  38.071   0.864   0.415
76651W        W45025   5.709  23.122   3.834
76652W        W45026  39.406  17.244   4.205
76653W        W45027  32.573  25.492   1.434
76654W        W45028  43.296  29.012  13.038
76655W        W45029  34.887  10.346   4.194
76656W        W45030  34.889   7.324  14.010
76657W        W45031  33.115  18.676  10.960
76658W        W45032  23.076  10.322   2.781
76659W        W45033  29.486  22.190   1.333
76660W        W45034  39.901  23.505  14.920
76661W        W45035  20.139  35.457   2.842
76662W        W45036  19.733  16.601   1.394
76663W        W45037  19.741  23.712   3.858
76664W        W45038   4.255  15.816   3.708
76665W        W45039  20.106  19.768  14.864
76666W        W45040  25.116  10.257   4.288
76667W        W45041   6.774  30.609  10.120
76668W        W45042   7.818   8.896   3.835
76669W        W45043  40.811   2.362  10.985
76670W        W45044  36.875  13.228  12.448
76671W        W45045   3.246  15.268  11.601
76672W        W45046  36.354  28.958  14.355
76673W        W45047  13.198  29.084   2.768
76674W        W45048   4.362   7.409  14.927
76675W        W45049  24.604   7.313   2.371
76676W        W45050   7.185  31.059   5.147
76677W        W45051  14.829  24.677   3.723
76678W        W45052  23.683  38.887   4.680
76679W        W45053  32.908  19.546  13.485
76680W        W45054  22.169  37.989   0.763
76681W        W45055  23.138  18.178   1.276
76682W        W45056  42.374   8.847  13.454
76683W        W45057  18.136  11.299   3.348
76684W        W45058  15.817  32.417   0.788
76685W        W45059   7.813  39.480   0.753
76686W        W45060  21.141  17.744  13.344
76687W        W45061   6.712  26.017  14.763
76688W        W45062  34.105  13.626   1.413
76689W        W45063   6.759  19.117   4.629
76690W        W45064  32.071  32.962  14.304
76691W        W45065  29.578  32.915  11.443
76692W        W45066   4.320  41.422  12.956
76693W        W45067  41.391  37.037   3.813
76694W        W45068   1.843   4.433  10.617
76695W        W45069  35.076  31.102  12.094
76696W        W45070   0.868  19.070   4.780
76697W        W45071  18.140  32.531  14.495
76698W        W45072  18.590   4.214  11.112
76699W        W45073   1.889   4.837  14.425
76700W        W45074  23.023  22.502   4.838
76701W        W45075   0.871  13.845   4.192
76702W        W45076  32.498  34.106   1.233
76703W        W45077  18.774  18.232  10.112
76704W        W45078   0.327   7.693  11.436
76705W        W45079  27.956  15.603  11.580
76706W        W45080  19.078  32.490   3.263
76707W        W45081  13.314   4.331   4.808
76708W        W45082   6.824  35.978   0.790
76709W        W45083  11.354  29.170   3.852
76710W        W45084   3.245  37.420   4.164
76711W        W45085  42.382  39.438   2.182
76712W        W45086  31.600  39.916   4.202
76713W        W45087   2.772  34.417   1.757
76714W        W45088  20.733  10.238   2.228
76715W        W45089  37.380  38.993   1.695
76716W        W45090   3.874   1.829  11.454
76717W        W45091   8.815   1.367  13.915
76718W        W45092  26.101  20.202   2.790
76719W        W45093   7.247  17.199   4.309
76720W        W45094   4.798  14.101  12.904
76721W        W45095  26.052   2.269   2.795
76722W        W45096  15.106  24.057   3.283
76723W        W45097  15.815   3.921  14.821
76724W        W45098  21.059  31.436  10.591
76725W        W45099  30.529   9.646   1.244
76726W        W45100  12.351  11.816  13.309
76727W        W45101  34.891  13.345   4.708
76728W        W45102  17.725  11.294  11.010
76729W        W45103  32.512  32.917   3.788
76730W        W45104  38.504  12.628  11.608
76731W        W45105  12.615  22.503   2.208
76732W        W45106  36.556  35.879   3.647
76733W        W45107  35.480  31.140   4.118
76734W        W45108  42.885  39.329   2.387
76735W        W45109  42.502  16.586   3.770
76736W        W45110  26.464  44.292   4.271
76737W        W45111  23.692  13.628  14.461
76738W        W45112  29.989   2.459   1.775
76739W        W45113  40.377  19.206  14.397
76740W        W45114  36.445  22.046   4.743
76741W        W45115   2.341  41.977   3.659
76742W        W45116   4.214   6.695   0.733
76743W        W45117   2.732  38.893  14.850
76744W        W45118  22.599  39.352   0.748
76745W        W45119  17.796  31.115  14.806
76746W        W45120  42.030  19.093   1.837
76747W        W45121  25.597   0.322   2.195
76748W        W45122   2.449   4.203   3.635
76749W        W45123  23.549  34.015  14.871
76750W        W45124   6.199   0.766  10.985
76751W        W45125  19.671  17.114  12.081
76752W        W45126  37.357  36.948   1.354
76753W        W45127  34.879  43.817  10.469
76754W        W45128  20.132  22.200   1.430
76755W        W45129   4.304  34.106  13.398
76756W        W45130  12.158  16.088   3.233
76757W        W45131  43.000  25.487   0.482
76758W        W45132  26.171   2.447   1.370
76759W        W45133  17.637  21.580   1.833
76760W        W45134  44.943  27.073   0.928
76761W        W45135  43.990  25.679   2.776
76762W        W45136  25.155  42.303   0.856
76763W        W45137   3.434  14.198  14.361
76764W        W45138  33.449  44.373  13.515
76765W        W45139  33.626  44.479  14.410
76766W        W45140  23.640   7.764   3.728
76767W        W45141  24.213  19.240  14.986
76768W        W45142   3.731  18.722  10.006
76769W        W45143   3.797  42.775  12.447
76770W        W45144  42.931  44.302   1.261
76771W        W45145  20.539   5.863  12.024
76772W        W45146  37.355  16.679  14.816
76773W        W45147  35.883   5.345   3.648
76774W        W45148  25.489   6.244   2.680
76775W        W45149   2.861  16.574   1.215
76776W        W45150  38.906  11.301  14.378
76777W        W45151  23.530  38.503  12.561
76778W        W45152  15.607  44.329   2.401
76779W        W45153  17.077  39.326  11.858
76780W        W45154  11.789  35.570  13.019
76781W        W45155  37.890  22.632   2.186
76782W        W45156  27.500  30.986   1.329
76783W        W45157  37.525  35.919   2.306
76784W        W45158   5.709  21.696   2.282
76785W        W45159  22.624  24.102  11.969
76786W        W45160  41.456  14.194   1.395
76787W        W45161   8.174  35.947  11.957
76788W        W45162   9.182   4.844   1.814
76789W        W45163  14.299  28.032   1.218
76790W        W45164  42.880  34.614   0.365
76791W        W45165  30.524   3.840   2.298
76792W        W45166  26.471  20.267   4.235
76793W        W45167  34.510  21.670   0.886
76794W        W45168   3.728  36.074   1.702
76795W        W45169  32.128  17.606  11.898
76796W        W45170  12.176  43.771  10.942
76797W        W45171  29.536  12.645  12.423
76798W        W45172  35.969  43.310  12.494
76799W        W45173  34.863  38.822   1.434
76800W        W45174  27.650  43.487   4.804
76801W        W45175  31.612   5.736  13.849
76802W        W45176  40.492   2.462  11.410
76803W        W45177   7.877  22.554   1.362
76804W        W45178   5.927  44.007  10.622
76805W        W45179   1.891  35.899   3.168
76806W        W45180  40.331  16.314  13.812
76807W        W45181  35.519   5.330   0.960
76808W        W45182  42.433  16.160  14.999
76809W        W45183  39.524  30.047  14.883
76810W        W45184  22.250   0.314  11.909
76811W        W45185  24.018   1.476   2.824
76812W        W45186  36.442  16.810   2.677
76813W        W45187  15.213  16.233   3.220
76814W        W45188   3.461  39.480  10.509
76815W        W45189  21.100  13.263   3.689
76816W        W45190  10.828  42.880   3.771
76817W        W45191  14.165  30.593  14.309
76818W        W45192  19.106  36.842   3.660
76819W        W45193  42.853   5.322  11.462
76820W        W45194  40.989   8.742   2.357
76821W        W45195  20.750  44.478  11.053
76822W        W45196  18.263   7.355  13.852
76823W        W45197  20.681  41.495  10.981
76824W        W45198  31.457  17.581  11.954
76825W        W45199   4.328  33.030   0.435
76826W        W45200  35.580  32.576  14.513
76827W        W45201   3.344  26.603  11.444
76828W        W45202  18.667  44.432   9.970
76829W        W45203   3.766  11.819  11.450
76830W        W45204  27.525  27.449   0.328
76831W        W45205  18.725  41.825  13.335
76832W        W45206  12.345  21.213  13.495
76833W        W45207   3.756   5.276  11.531
76834W        W45208  35.058  10.772  10.997
76835W        W45209  29.072  16.635   3.840
76836W        W45210  40.997  17.194  12.075
76837W        W45211  18.675  20.161  14.498
76838W        W45212  34.561  31.435  12.473
76839W        W45213  39.481  34.049   2.742
76840W        W45214  21.039  24.109  13.480
76841W        W45215  29.569  17.749   2.295
76842W        W45216  23.615  10.220   0.889
76843W        W45217   5.712  17.073   4.654
76844W        W45218   3.918  17.581  12.496
76845W        W45219  29.612  26.598  13.477
76846W        W45220   6.192   3.242  13.820
76847W        W45221   7.835  30.451   2.860
76848W        W45222  27.674   7.392   2.707
76849W        W45223   3.950  38.422  11.435
76850W        W45224  20.605  23.643  13.323
76851W        W45225  39.399  23.152  12.482
76852W        W45226  25.650   4.926   3.690
76853W        W45227  43.949  23.554  14.869
76854W        W45228  24.499  32.092   4.634
76855W        W45229  37.342  14.260  10.066
76856W        W45230  17.688  16.156   2.797
76857W        W45231   8.330   6.331   0.398
76858W        W45232  11.791  36.538   4.220
76859W        W45233  20.692  20.184   4.719
76860W        W45234   6.731  13.717  11.375
76861W        W45235  44.377  29.638  13.482
76862W        W45236  42.862  34.533  14.448
76863W        W45237  29.087  27.048   4.296
76864W        W45238   3.332  40.949   4.345
76865W        W45239   9.799  37.353   2.755
76866W        W45240  41.376  12.671   1.706
76867W        W45241   4.725  42.489   3.764
76868W        W45242  38.446  33.107  12.571
76869W        W45243  43.459  24.991   3.793
76870W        W45244  36.074  41.330   4.316
76871W        W45245  14.619  12.696  14.497
76872W        W45246  30.155  29.474   0.367
76873W        W45247  25.630   5.337  10.476
76874W        W45248  28.621  15.608   3.177
76875W        W45249  15.676  32.045  12.510
76876W        W45250  11.865  18.710   4.652
76877W        W45251  17.180  20.550  10.044
76878W        W45252  22.118  19.566  10.513
76879W        W45253  24.215   7.185   2.712
76880W        W45254   1.446  35.914   2.260
76881W        W45255  10.355   9.283  13.922
76882W        W45256  30.478  23.239  14.774
76883W        W45257   7.376  42.880   1.397
76884W        W45258  22.248   6.298   4.120
76885W        W45259  11.769  22.228   3.671
76886W        W45260  19.272   8.715  10.645
76887W        W45261  36.921  33.595   0.303
76888W        W45262  27.589   3.785  10.527
76889W        W45263  17.284  40.949   2.666
76890W        W45264   5.358  32.066  10.566
76891W        W45265  23.674  24.197  11.502
76892W        W45266  41.945  14.275   3.772
76893W        W45267   7.821  37.403  12.937
76894W        W45268   6.744  44.776  12.542
76895W        W45269  19.634  43.499   0.741
76896W        W45270  16.604  35.945   1.327
76897W        W45271  14.623  14.199   0.300
76898W        W45272  12.186  41.988  11.524
76899W        W45273  23.680  39.882   4.208
76900W        W45274  32.598  36.867  10.511
76901W        W45275   2.409   6.851  10.602
76902W        W45276   9.873  38.899  12.571
76903W        W45277  10.375  18.728   2.179
76904W        W45278  17.111  30.011  12.956
76905W        W45279  17.612  10.191  12.886
76906W        W45280   6.197  38.513   2.864
76907W        W45281   8.848  22.033   0.819
76908W        W45282  33.105  27.961  14.997
76909W        W45283  22.589  10.246  10.039
76910W        W45284  18.207   3.849  13.919
76911W        W45285  40.432   1.837  12.520
76912W        W45286  28.138   1.733  10.158
76913W        W45287  11.741   9.843   0.793
76914W        W45288  32.424   5.385  11.456
76915W        W45289  11.825  40.033  12.881
76916W        W45290  15.789   8.732   3.825
76917W        W45291   4.387  14.279   4.257
76918W        W45292  30.635  28.473   0.793
76919W        W45293  20.763  42.847  12.493
76920W        W45294  12.284  42.522  14.479
76921W        W45295  44.980  34.090  13.418
76922W        W45296  44.445  41.951   5.300
76923W        W45297  33.001   9.375   0.413
76924W        W45298  36.413  15.124  13.431
76925W        W45299  41.009  17.656  13.015
76926W        W45300  27.141  26.697   1.219
76927W        W45301   5.757  44.779  11.923
76928W        W45302   3.287   3.761  11.479
76929W        W45303  44.455  24.100  13.979
76930W        W45304  25.010  22.200  14.932
76931W        W45305  23.127  43.495   2.211
76932W        W45306  30.634  30.147  14.430
76933W        W45307  25.133  18.586   4.725
76934W        W45308   7.297  38.970  13.329
76935W        W45309  27.996  15.143  12.545
76936W        W45310  32.009  28.547   0.327
76937W        W45311  25.970  21.599   2.790
76938W        W45312  14.610  43.307  13.878
76939W        W45313  44.481  30.504  13.525
76940W        W45314  20.604  44.912  10.474
76941W        W45315  32.896  36.469   3.865
76942W        W45316  42.919   7.838  13.816
76943W        W45317  43.380  25.155  14.857
76944W        W45318  23.206  21.077  14.473
76945W        W45319  15.631   0.948  12.492
76946W        W45320  16.136  38.538  13.854
76947W        W45321  14.633  31.072   4.164
76948W        W45322  17.128  10.240   4.315
76949W        W45323  29.617   4.228  12.841
76950W        W45324  10.814  26.677  10.986
76951W        W45325  20.662  32.900  13.906
76952W        W45326  41.931  44.915  11.504
76953W        W45327  43.869  12.615   2.298
76954W        W45328  35.040  35.060   2.707
76955W        W45329  31.512  28.553  11.534
76956W        W45330  22.504  23.113   2.180
76957W        W45331  21.103  10.850   0.438
76958W        W45332  15.318  19.118   1.276
76959W        W45333  24.045   7.796  14.026
76960W        W45334  33.087   6.884  13.877
76961W        W45335   8.790  28.612  12.922
76962W        W45336  29.160   8.844  12.874
76963W        W45337   4.845   8.724  14.928
76964W        W45338  35.465  44.756   4.602
76965W        W45339   6.227  41.355  12.084
76966W        W45340  36.081  38.854   3.742
76967W        W45341  21.239  33.538   3.166
76968W        W45342  10.168  23.207  11.605
76969W        W45343  20.528  44.489   3.329
76970W        W45344   5.402  33.090   4.677
76971W        W45345  35.486  13.330  14.278
76972W        W45346  18.576   0.259  14.978
76973W        W45347  23.187  44.376  14.460
76974W        W45348   8.221   4.776   2.900
76975W        W45349  22.726  22.684   9.992
76976W        W45350  36.896   1.925   4.775
76977W        W45351  40.323  30.479  10.973
76978W        W45352  28.026   6.896  10.950
76979W        W45353  31.908  32.086  14.871
76980W        W45354   9.258  39.510   1.360
76981W        W45355  23.046  37.381  11.953
76982W        W45356  23.591  31.514  11.970
76983W        W45357  20.171  18.563   0.801
76984W        W45358  44.831  20.716  11.927
76985W        W45359  36.062  16.240  13.435
76986W        W45360  14.617  13.824  12.469
76987W        W45361  43.398   7.369   1.780
76988W        W45362   1.886  20.687  12.373
76989W        W45363  14.686   0.439   4.275
76990W        W45364   0.406  42.978  14.474
76991W        W45365   6.788  17.286   0.254
76992W        W45366  38.057  19.563  11.865
76993W        W45367   8.850  22.633   4.719
76994W        W45368   9.783   2.291  10.941
76995W        W45369  41.971  27.941  11.474
76996W        W45370  31.593  26.502  11.081
76997W        W45371  34.530   3.816  13.976
76998W        W45372   6.360   3.943  11.884
76999W        W45373  34.881  34.990   4.739
77000W        W45374   6.681  40.812   0.877
77001W        W45375  20.704  30.413  14.442
77002W        W45376  29.628  21.252  11.514
77003W        W45377  34.552  22.162   3.654
77004W        W45378  23.106  27.974  11.992
77005W        W45379   0.318  10.244   2.898
77006W        W45380   3.225  33.119   0.777
77007W        W45381   8.795  31.086   5.768
77008W        W45382  25.974  13.611   3.720
77009W        W45383  34.495  20.107  12.514
77010W        W45384  27.071  12.215   1.421
77011W        W45385  19.572  14.642   0.761
77012W        W45386  15.614  11.634   0.430
77013W        W45387   7.224  19.658   2.217
77014W        W45388  42.407  36.882  13.378
77015W        W45389  16.169  34.465  12.052
77016W        W45390   6.198  37.501   3.305
77017W        W45391  28.568   0.961   3.751
77018W        W45392  44.410   3.811   1.914
77019W        W45393  20.539  20.183   1.309
77020W        W45394  31.478  22.573   3.166
77021W        W45395  29.612   7.398   0.932
77022W        W45396  38.926   3.257  12.417
77023W        W45397   1.814   9.328  13.005
77024W        W45398  33.960  31.101   1.850
77025W        W45399  42.865  13.827  13.395
77026W        W45400  13.292  26.592   3.356
77027W        W45401  27.580  21.199  11.985
77028W        W45402  19.660  15.608   3.371
77029W        W45403  24.517  12.354  13.319
77030W        W45404  35.004  22.119   0.917
77031W        W45405  32.413  35.551   4.194
77032W        W45406  21.646  28.163   4.293
77033W        W45407  19.553  13.121  10.543
77034W        W45408  44.449   4.832  10.430
77035W        W45409  29.658  32.523  10.420
77036W        W45410  19.183  26.625  14.308
77037W        W45411  20.174  33.467   0.768
77038W        W45412   8.340  44.995  10.604
77039W        W45413  29.947   7.893   2.336
77040W        W45414   2.935   3.328   1.761
77041W        W45415  34.107  26.019  13.402
77042W        W45416  14.684  19.042   3.345
77043W        W45417   1.328  27.027  11.400
77044W        W45418  24.639  36.454   3.156
77045W        W45419   4.816  13.148   0.941
77046W        W45420  32.093   7.222  12.379
77047W        W45421  17.247   6.218   2.902
77048W        W45422  24.636  10.735   4.284
77049W        W45423  29.588   7.838   2.687
77050W        W45424   5.865   2.915  13.982
77051W        W45425  22.537   3.410  13.459
77052W        W45426   4.395  38.917   4.709
77053W        W45427  26.655  33.475  13.499
77054W        W45428  18.065  24.126  13.016
77055W        W45429  44.954   0.975  12.823
77056W        W45430   3.721  42.485  14.473
77057W        W45431  11.253  26.612   4.181
77058W        W45432  30.490   9.785   4.277
77059W        W45433  37.452  10.294   5.314
77060W        W45434   8.327  44.300   3.717
77061W        W45435  38.963  35.870  11.374
77062W        W45436  13.762  19.115  13.887
77063W        W45437  11.294   4.257  11.017
77064W        W45438  36.020  28.072   3.172
77065W        W45439  17.257  39.911  10.123
77066W        W45440  17.634  37.441   4.689
77067W        W45441  30.912   7.758   4.251
77068W        W45442   3.844   6.844   1.882
77069W        W45443   2.835   2.785  11.110
77070W        W45444  10.210  27.618   4.597
77071W        W45445  11.291   7.395   3.323
77072W        W45446  18.168  27.036  10.923
77073W        W45447  40.850  34.986   2.674
77074W        W45448   9.178  43.431   4.812
77075W        W45449  31.564   7.832  13.012
77076W        W45450  27.127  15.293  12.526
77077W        W45451  28.643  25.536  10.986
77078W        W45452  15.254  33.997   0.929
77079W        W45453  30.004  27.479  12.826
77080W        W45454  40.942  15.316   1.375
77081W        W45455  42.787  14.636  13.888
77082W        W45456  33.433  36.363   4.724
77083W        W45457  32.055  11.216  12.427
77084W        W45458   0.324  32.515  13.982
77085W        W45459   6.384  37.355  14.930
77086W        W45460   7.233   6.264  12.911
77087W        W45461   3.310  28.006   2.756
77088W        W45462  17.591   3.273  13.448
77089W        W45463  32.422  35.944   4.777
77090W        W45464  14.266  37.958   3.742
77091W        W45465  14.211  14.727   0.251
77092W        W45466  34.030  18.727   0.910
77093W        W45467  39.429  33.880  11.092
77094W        W45468  25.535   0.750  14.773
77095W        W45469   1.256  19.169   3.358
77096W        W45470  30.561  27.565   0.735
77097W        W45471  18.649  11.266   4.637
77098W        W45472   6.419   2.807  14.018
77099W        W45473  20.607  26.956   1.933
77100W        W45474  38.404   3.856   4.725
77101W        W45475  33.535  14.202   4.685
77102W        W45476  10.247  39.511  14.881
77103W        W45477   0.298  31.513  11.543
77104W        W45478  20.744  40.868   1.381
77105W        W45479  26.569  10.747   1.922
77106W        W45480  10.302  40.883   3.259
77107W        W45481  30.963  15.633   3.311
77108W        W45482  35.443  26.491   1.709
77109W        W45483  35.573  31.579  10.974
77110W        W45484  13.328  26.499   1.758
77111W        W45485   1.841  39.003   0.748
77112W        W45486  43.487  38.544   4.691
77113W        W45487  25.204   3.871  14.336
77114W        W45488  43.512   3.327  14.444
77115W        W45489  29.098  43.845   3.324
77116W        W45490  24.187  33.533   1.890
77117W        W45491  25.046  36.408  11.396
77118W        W45492  13.175  30.429  12.983
77119W        W45493  36.434  17.150   4.304
77120W        W45494  39.411  27.081  14.795
77121W        W45495  17.733  11.172   0.355
77122W        W45496  44.387   3.236   9.967
77123W        W45497  42.369  34.074  12.528
77124W        W45498   1.385  19.579  13.387
77125W        W45499   3.793  32.013   3.241
77126W        W45500  11.181  35.858  11.932
77127W        W45501   0.968  22.043  12.544
77128W        W45502  17.066  18.764   3.869
77129W        W45503  43.394  24.024  11.878
77130W        W45504  14.743  20.678  12.826
77131W        W45505   5.841  21.058  14.762
77132W        W45506  36.504   6.785   4.799
77133W        W45507   6.248  20.072   1.262
77134W        W45508  41.804  28.497  13.859
77135W        W45509  15.104  30.084  13.537
77136W        W45510  36.463  14.834   2.812
77137W        W45511  13.828  28.539  10.955
77138W        W45512  19.162   1.481   4.647
77139W        W45513   8.781  20.266  14.319
77140W        W45514  14.155  16.722  10.429
77141W        W45515  19.591  42.403  12.890
77142W        W45516   7.185  34.034  14.318
77143W        W45517   1.859   4.403  12.996
77144W        W45518  34.048  11.825   3.152
77145W        W45519  27.620   8.316  12.376
77146W        W45520  16.261  14.263  13.891
77147W        W45521  15.632  19.628  13.866
77148W        W45522  42.973  13.315   0.426
77149W        W45523  15.229   5.862  12.453
77150W        W45524  36.571   3.253  13.510
77151W        W45525  38.002  32.543  11.096
77152W        W45526  18.114  25.080   2.298
77153W        W45527   7.741  43.333   2.331
77154W        W45528  15.136  44.303  14.984
77155W        W45529  40.348  35.057   1.799
77156W        W45530  11.776   3.896  12.922
77157W        W45531   2.942   8.687  11.866
77158W        W45532  26.494   4.813  12.359
77159W        W45533  39.340  42.325   3.725
77160W        W45534  21.074  42.799   3.643
77161W        W45535  31.933   7.763   3.354
77162W        W45536  43.854   1.742  12.066
77163W        W45537  25.522  22.638  14.404
77164W        W45538  36.507  25.611  10.597
77165W        W45539   3.387  23.122  13.416
77166W        W45540  29.152   9.791   3.332
77167W        W45541  42.389  12.198   0.253
77168W        W45542  42.026   8.266  14.791
77169W        W45543  16.141  35.538  11.612
77170W        W45544  25.107  16.731   3.325
77171W        W45545   2.395   3.814   1.908
77172W        W45546   0.797  29.920  12.845
77173W        W45547   8.685   8.785  12.914
77174W        W45548   8.704  39.989  11.376
77175W        W45549  19.623  25.126   3.299
77176W        W45550   5.307  38.951   4.659
77177W        W45551  16.761  30.626   4.790
77178W        W45552   7.874  13.627  14.784
77179W        W45553  28.584  13.637   2.189
77180W        W45554  33.116  16.300  11.005
77181W        W45555  26.532  41.797  14.446
77182W        W45556  10.711   8.303  14.493
77183W        W45557  39.003  37.005  11.488
77184W        W45558  24.041   2.412  14.362
77185W        W45559  24.691  10.687  13.845
77186W        W45560   5.364  26.954  14.337
77187W        W45561  40.884   9.783  11.969
77188W        W45562   2.734   3.274  12.354
77189W        W45563  27.521   9.809  13.899
77190W        W45564  34.048  24.609  10.582
77191W        W45565   3.881  39.898  11.970
77192W        W45566  10.257  15.198   2.891
77193W        W45567  42.006  26.658   0.424
77194W        W45568  29.552  44.291  13.313
77195W        W45569  25.037  13.124  12.885
77196W        W45570   9.162  28.445   5.112
77197W        W45571   4.774  19.099  10.521
77198W        W45572  33.605  23.681   4.773
77199W        W45573   5.703   0.744  11.072
77200W        W45574  21.180   7.308  13.481
77201W        W45575  35.457   3.805   4.307
77202W        W45576  18.192  17.558  12.447
77203W        W45577  24.592  31.059   2.730
77204W        W45578  36.588   9.719  10.618
77205W        W45579  41.973  18.736  14.880
77206W        W45580  27.547  42.293  13.823
77207W        W45581  28.047  20.267  11.591
77208W        W45582   8.264  44.352  14.377
77209W        W45583   2.848  32.463  14.498
77210W        W45584  33.482  14.698   2.736
77211W        W45585   0.398  40.442  11.868
77212W        W45586  36.960  19.203  12.454
77213W        W45587   0.775  23.523  11.453
77214W        W45588  22.533  19.630   4.814
77215W        W45589  14.103  39.868   0.953
77216W        W45590  29.929  25.019   0.739
77217W        W45591   2.330  43.881   4.779
77218W        W45592  43.948  25.700  10.960
77219W        W45593  28.146  27.035  12.886
77220W        W45594  32.080  25.035  13.340
77221W        W45595  16.190  21.700   4.303
77222W        W45596  16.813   9.706  13.888
77223W        W45597  10.142  15.626  10.530
77224W        W45598   9.719  38.896   4.647
77225W        W45599  27.687  31.475  12.842
77226W        W45600  20.595  29.599   2.761
77227W        W45601   9.799   1.269  14.410
77228W        W45602   4.844  21.716   5.196
77229W        W45603  30.480  35.525  11.912
77230W        W45604  22.703  16.663   4.739
77231W        W45605  40.919  23.723   2.686
77232W        W45606   6.367   0.952  10.521
77233W        W45607  24.661  40.999   2.864
77234W        W45608   9.762  22.059  14.318
77235W        W45609  34.031   1.331   3.371
77236W        W45610  14.799  38.451   3.836
77237W        W45611  30.525  30.932  11.405
77238W        W45612  42.459  25.218   2.411
77239W        W45613  17.115  11.748   4.715
77240W        W45614  38.017  37.477   0.941
77241W        W45615   6.894  35.509   2.387
77242W        W45616   3.448  40.011   2.288
77243W        W45617  15.803   3.856   3.719
77244W        W45618  14.332  12.196   3.817
77245W        W45619  39.026  14.722   3.768
77246W        W45620  31.067  36.962  11.857
77247W        W45621  43.941  32.601  11.126
77248W        W45622  43.864  30.479  12.882
77249W        W45623   3.882  28.554  12.073
77250W        W45624  12.210  29.441  13.063
77251W        W45625   0.282   2.445   1.932
77252W        W45626  34.898  39.511  11.587
77253W        W45627  18.610  29.486  13.829
77254W        W45628  29.025  10.261  11.428
77255W        W45629  29.480   4.385  10.942
77256W        W45630  14.256   4.289  13.049
77257W        W45631  34.026   4.369  12.528
77258W        W45632   3.331  26.531   2.746
77259W        W45633  36.423  34.953  11.535
77260W        W45634  28.972  12.765   4.836
77261W        W45635   3.801  43.775  12.513
77262W        W45636  42.322  24.140   2.378
77263W        W45637  39.902  29.057   4.353
77264W        W45638   4.882  21.029   2.711
77265W        W45639   3.345  15.607  13.811
77266W        W45640  40.908  41.960  11.988
77267W        W45641  24.701  29.005  13.501
77268W        W45642  43.501  14.769  11.061
77269W        W45643  43.861  19.624  12.016
77270W        W45644  31.998  13.239  13.916
77271W        W45645   0.391  24.050   3.638
77272W        W45646  35.072  43.451  13.012
77273W        W45647  10.803  34.926  14.844
77274W        W45648  20.099  38.480  10.894
77275W        W45649  37.480  31.515   0.871
77276W        W45650   9.310  26.497  12.992
77277W        W45651  26.006   9.180   4.654
77278W        W45652  41.961  31.447   3.822
77279W        W45653  37.347  26.614   3.650
77280W        W45654  19.213   5.743  11.969
77281W        W45655  25.648  15.762   2.377
77282W        W45656  21.568  20.051  13.006
77283W        W45657  25.090  28.959   3.780
77284W        W45658   0.335  41.022  10.468
77285W        W45659   7.679  36.505   2.322
77286W        W45660  13.198  35.477  12.548
77287W        W45661   9.367  11.695  14.348
77288W        W45662  26.700   1.355   4.288
77289W        W45663  17.563  21.609   3.330
77290W        W45664  19.057  10.173  12.470
77291W        W45665   1.807  12.636   2.716
77292W        W45666  23.658   1.790  13.467
77293W        W45667  24.634   3.833   0.861
77294W        W45668  10.835  18.250  11.474
77295W        W45669  23.578  32.393   2.355
77296W        W45670   7.745  32.136  10.539
77297W        W45671  17.726  38.844   0.897
77298W        W45672   2.295  39.966   1.390
77299W        W45673  11.666   0.950  11.109
77300W        W45674  40.943  39.411  10.424
77301W        W45675  17.184  42.358   1.363
77302W        W45676   5.196   2.352  11.385
77303W        W45677  18.290  38.839  10.478
77304W        W45678  44.442  24.489   2.291
77305W        W45679  24.643  18.094  12.478
77306W        W45680   5.343  35.099  13.948
77307W        W45681   1.848  28.143   2.791
77308W        W45682  23.991   8.656   2.775
77309W        W45683  32.004  14.685  11.006
77310W        W45684  25.147  42.385   3.840
77311W        W45685  35.958   6.311  11.995
77312W        W45686  31.104   7.869  11.027
77313W        W45687  22.671   3.243  14.481
77314W        W45688  34.974  31.071  10.901
77315W        W45689  21.553  15.778   2.769
77316W        W45690  22.746  39.532   4.744
77317W        W45691   0.447  12.323   0.736
77318W        W45692   9.376  13.181   0.269
77319W        W45693  18.176  28.594  14.353
77320W        W45694  19.757  34.946   0.894
77321W        W45695  22.103  42.838  12.995
77322W        W45696  13.711  29.124   4.671
77323W        W45697  16.134  15.804  10.001
77324W        W45698  36.097   5.804   2.253
77325W        W45699  37.872  18.670  13.339
77326W        W45700  34.461  13.335  13.355
77327W        W45701  41.032  15.329   3.636
77328W        W45702   1.269   6.378   3.699
77329W        W45703  33.481  40.815   2.392
77330W        W45704  28.526  38.844   1.754
77331W        W45705  43.976  42.870  10.505
77332W        W45706  35.444  14.240   3.248
77333W        W45707  33.982  39.514  13.933
77334W        W45708   7.202  18.748  14.791
77335W        W45709  11.734   5.399   4.782
77336W        W45710  17.753  26.090   1.447
77337W        W45711  15.257  32.927   4.167
77338W        W45712  41.844  30.576  11.095
77339W        W45713  44.926   7.410   3.349
77340W        W45714  34.555   6.397   4.190
77341W        W45715  44.451  40.806  12.386
77342W        W45716   7.687  15.688   2.847
77343W        W45717   4.268  22.222   3.320
77344W        W45718  19.534  42.945   3.794
77345W        W45719  44.422   9.259   0.378
77346W        W45720  38.010  31.959  13.926
77347W        W45721   1.924   5.258  14.868
77348W        W45722  20.582  21.156  12.469
77349W        W45723  27.063  33.953   2.791
77350W        W45724  26.653  31.099  11.078
77351W        W45725  23.017   8.330  10.889
77352W        W45726   4.441  33.540  12.053
77353W        W45727  17.305   5.287   4.172
77354W        W45728  40.329  43.993   3.385
77355W        W45729  36.579   4.824   4.770
77356W        W45730  36.535  26.179   3.776
77357W        W45731  16.707   8.715  13.797
77358W        W45732  38.964   3.247  12.894
77359W        W45733   0.331  36.927   0.468
77360W        W45734  42.962  12.289  11.084
77361W        W45735  33.595  39.032  14.506
77362W        W45736  22.033  25.040   4.616
77363W        W45737   2.740   6.718  12.378
77364W        W45738   7.743  27.567   9.981
77365W        W45739  12.184  38.981  13.803
77366W        W45740   7.186   7.356  11.566
77367W        W45741  34.519  32.424   2.813
77368W        W45742   6.294  19.693  12.502
77369W        W45743   1.883  25.994  13.539
77370W        W45744   8.795   6.414  12.895
77371W        W45745  39.523  36.586   1.223
77372W        W45746  32.965  14.316  11.375
77373W        W45747  20.657  11.169  14.491
77374W        W45748   1.871  10.377  13.456
77375W        W45749   4.873  41.915  12.519
77376W        W45750   3.782  38.994  14.812
77377W        W45751  12.276  14.248   0.840
77378W        W45752   0.855  39.012   0.735
77379W        W45753  35.580  44.454   3.178
77380W        W45754  15.687  37.850   2.686
77381W        W45755  30.098   7.350  12.518
77382W        W45756   8.374   9.376   0.275
77383W        W45757  36.972  11.346  11.582
77384W        W45758  11.327  37.526   1.386
77385W        W45759  29.638  12.672   4.837
77386W        W45760  37.077  12.128  12.840
77387W        W45761  15.118  35.972  10.410
77388W        W45762  28.459  39.925  14.969
77389W        W45763  14.612  41.005   4.722
77390W        W45764  34.564  15.649  12.865
77391W        W45765  13.263  23.213   1.795
77392W        W45766  10.858   7.812  11.983
77393W        W45767  20.533  30.532  11.528
77394W        W45768  27.036   3.300   3.205
77395W        W45769   0.415  42.316   3.361
77396W        W45770  21.708  18.780  11.410
77397W        W45771   4.271  21.517   0.306
77398W        W45772  25.082  34.560   3.665
77399W        W45773   0.299  30.489   4.273
77400W        W45774   5.301  25.628   2.313
77401W        W45775  26.161  13.657  10.544
77402W        W45776  13.192  14.313   3.296
77403W        W45777  36.548  43.931   0.472
77404W        W45778  42.318  44.468  14.760
77405W        W45779  37.012  36.994  13.499
77406W        W45780  33.575  14.602   4.297
77407W        W45781  37.349  38.325  11.081
77408W        W45782  40.936  32.992   3.629
77409W        W45783  39.841  24.672   3.267
77410W        W45784  36.910  10.678  12.030
77411W        W45785  36.580  27.983  14.353
77412W        W45786  44.457  30.532   0.279
77413W        W45787  17.202  39.535   2.354
77414W        W45788  15.717  31.932  13.469
77415W        W45789  20.101  11.226  14.931
77416W        W45790  38.329  10.374   3.343
77417W        W45791  13.827  17.307   1.330
77418W        W45792  42.847  11.684   5.187
77419W        W45793  32.142   8.877   2.339
77420W        W45794  17.778  13.636  11.528
77421W        W45795  22.094  10.200  14.483
77422W        W45796  24.480  32.407   5.571
77423W        W45797   9.734  25.513  11.576
77424W        W45798  35.976  36.569  12.008
77425W        W45799  25.037  35.555  13.984
77426W        W45800  13.222  14.651   4.749
77427W        W45801   9.311  20.715   0.437
77428W        W45802  22.029   9.270   4.342
77429W        W45803  15.303  15.725  10.968
77430W        W45804   1.376  10.704   0.964
77431W        W45805  25.048  11.256  10.939
77432W        W45806  10.338  27.471  10.958
77433W        W45807  17.228  26.650   0.764
77434W        W45808   4.940  12.832   0.342
77435W        W45809  14.691  26.527   2.683
77436W        W45810  24.555  12.297   4.714
77437W        W45811   9.680  30.497  11.586
77438W        W45812  36.936  44.273  14.962
77439W        W45813  22.126  39.006  11.950
77440W        W45814  32.080  36.895  10.942
77441W        W45815  13.306  41.330  13.945
77442W        W45816  31.528  17.194  14.932
77443W        W45817  37.913   5.879  11.425
77444W        W45818  27.975  19.166   0.758
77445W        W45819  29.581  22.744  13.872
77446W        W45820   7.384  12.249  13.999
77447W        W45821  32.401  13.124   0.857
77448W        W45822  18.569  38.494  10.530
77449W        W45823  18.633  31.022   2.254
77450W        W45824  31.995  25.158   0.736
77451W        W45825  17.283  16.807   0.283
77452W        W45826   6.222   7.854   0.914
77453W        W45827  25.021  41.989   3.746
77454W        W45828  13.158  33.466   4.665
77455W        W45829  28.049  37.963   0.388
77456W        W45830  24.679  41.429   3.302
77457W        W45831  13.322   3.347   3.668
77458W        W45832  25.127  10.322   2.244
77459W        W45833  21.243  42.911   4.798
77460W        W45834  36.572  27.506  14.772
77461W        W45835  11.299  21.253   1.814
77462W        W45836  40.417   1.878  14.888
77463W        W45837  43.968  18.715  12.542
77464W        W45838  34.073  39.546   1.247
77465W        W45839  32.132  41.471  10.115
77466W        W45840  26.630  22.031  14.926
77467W        W45841  13.722   9.345  12.519
77468W        W45842  20.257  27.649   3.822
77469W        W45843  30.060  15.174  13.473
77470W        W45844  26.671  23.590   4.664
77471W        W45845  44.933  18.605   0.899
77472W        W45846  22.532  38.516   0.902
77473W        W45847  32.629  32.405  13.840
77474W        W45848  37.087  14.742   0.927
77475W        W45849  14.218  33.586   0.778
77476W        W45850   4.313   7.291   3.751
77477W        W45851   6.337  39.836  10.573
77478W        W45852  36.044  20.186   4.139
77479W        W45853  36.927  33.592   2.785
77480W        W45854   5.387  32.019   0.863
77481W        W45855   3.889  42.385  12.864
77482W        W45856  10.652  26.595   2.692
77483W        W45857  23.102  20.068   2.773
77484W        W45858  30.413  19.140  14.977
77485W        W45859  21.527  32.035   3.270
77486W        W45860   1.957   1.342  12.518
77487W        W45861  20.238  27.106  12.939
77488W        W45862   0.822  15.806   0.427
77489W        W45863  36.875  34.493  13.545
77490W        W45864  11.310  36.501   3.347
77491W        W45865  42.879  36.382  13.985
77492W        W45866  37.894  23.713   0.460
77493W        W45867  24.148   4.833   1.834
77494W        W45868  17.711   1.812   4.836
77495W        W45869  23.118  20.043  12.378
77496W        W45870  35.503  13.134  10.493
77497W        W45871  33.592   4.365   3.828
77498W        W45872  28.442  26.104  14.810
77499W        W45873  35.998  10.180  11.098
77500W        W45874  25.201  13.269  11.402
77501W        W45875   3.904  31.041   1.818
77502W        W45876  20.089   8.199   0.936
77503W        W45877  14.760  32.138   5.128
77504W        W45878  10.643  34.075  14.918
77505W        W45879  27.523  26.125  14.028
77506W        W45880   4.925  18.212  13.906
77507W        W45881  43.447  25.150   5.082
77508W        W45882  20.068  13.718  10.545
77509W        W45883  12.258  22.226  14.816
77510W        W45884  38.391  14.215   4.678
77511W        W45885  20.057  33.952   3.165
77512W        W45886  23.647  15.719  10.482
77513W        W45887   6.885  24.576  10.594
77514W        W45888  44.311  25.206   0.354
77515W        W45889   5.834   0.483   2.229
77516W        W45890   4.852  10.338   3.787
77517W        W45891   7.391   4.411  12.886
77518W        W45892  21.673  26.500  14.866
77519W        W45893  18.252  39.853   3.717
77520W        W45894   6.376  17.745   2.721
77521W        W45895   6.408  42.459   2.762
77522W        W45896   8.859   4.882   4.669
77523W        W45897  44.921  11.165   3.176
77524W        W45898  34.425  43.920  10.502
77525W        W45899  16.590  15.192   4.650
77526W        W45900  31.013  24.494   3.717
77527W        W45901   1.908  35.433   3.861
77528W        W45902  40.424  18.167  13.926
77529W        W45903  42.394  37.833   0.778
77530W        W45904   3.883   6.780   2.394
77531W        W45905  20.538  26.024   1.251
77532W        W45906  40.547  22.521   2.890
77533W        W45907  40.018   5.283  10.910
77534W        W45908   6.728   5.256  13.369
77535W        W45909  38.904  18.231  10.461
77536W        W45910  20.156  17.630  11.474
77537W        W45911  24.056  40.877  11.405
77538W        W45912  38.859   0.859  11.450
77539W        W45913  36.459  15.108  10.596
77540W        W45914   0.963  14.674   1.421
77541W        W45915  20.029  27.676   4.341
77542W        W45916  41.318  25.475   3.687
77543W        W45917   7.898  38.904   1.767
77544W        W45918  18.786  25.482  12.458
77545W        W45919  36.972  24.982  11.076
77546W        W45920  38.832   4.221  12.575
77547W        W45921   8.816  30.517  10.443
77548W        W45922  44.909  34.463   2.260
77549W        W45923  26.595  42.807   1.705
77550W        W45924  37.523   8.730   3.307
77551W        W45925  32.060   7.205   1.219
77552W        W45926  32.032   2.255   1.397
77553W        W45927  15.807   5.816   9.983
77554W        W45928  34.043  18.152   0.848
77555W        W45929   8.897  15.294  12.029
77556W        W45930  37.393  30.609  11.927
77557W        W45931  19.628   0.848  12.008
77558W        W45932   2.370  30.464   0.790
77559W        W45933  38.399  18.130   2.844
77560W        W45934  35.035  20.112   3.219
77561W        W45935  31.447   1.745  13.530
77562W        W45936   5.321   1.351   0.476
77563W        W45937  28.607  42.787  10.946
77564W        W45938  44.373  26.008   2.321
77565W        W45939   4.762   4.249   4.624
77566W        W45940  39.358   6.758  13.791
77567W        W45941  24.665  25.654   2.329
77568W        W45942  19.166  13.788   4.175
77569W        W45943  11.669  16.801   4.730
77570W        W45944  42.794  25.536  10.513
77571W        W45945  31.456   8.818   4.776
77572W        W45946  21.256  25.622  11.092
77573W        W45947  16.643  41.532  10.591
77574W        W45948  37.487  44.349   5.271
77575W        W45949   2.226  37.366  11.868
77576W        W45950  19.573  12.347  14.434
77577W        W45951  34.055  11.343   2.851
77578W        W45952  14.726  32.622  12.959
77579W        W45953  25.155  10.694   4.767
77580W        W45954  36.021  29.168   4.692
77581W        W45955  36.931  18.698   1.216
77582W        W45956   8.378  18.210   3.303
77583W        W45957  39.428   2.373   4.250
77584W        W45958  12.259  28.969   1.426
77585W        W45959  17.131  40.441  10.990
77586W        W45960  29.649  17.688  12.479
77587W        W45961   0.843  24.152  13.506
77588W        W45962  23.517  38.005   0.875
77589W        W45963  42.477  20.046   0.850
77590W        W45964   9.174  34.963   2.896
77591W        W45965  40.394  25.583   0.411
77592W        W45966  16.272   5.798   0.874
77593W        W45967  30.127  37.548   1.348
77594W        W45968  11.307  19.545   3.328
77595W        W45969   1.465   2.265   0.772
77596W        W45970  12.714  44.270  11.387
77597W        W45971  33.459   2.876  12.955
77598W        W45972  10.143  12.256  13.353
77599W        W45973  40.500  33.564  12.933
77600W        W45974  44.393  25.066  12.420
77601W        W45975  24.185  33.472  13.356
77602W        W45976  35.901  32.899   1.741
77603W        W45977  10.773  36.938   1.774
77604W        W45978  41.475  15.170   3.816
77605W        W45979  17.592  25.575   1.881
77606W        W45980   8.246  40.479   1.301
77607W        W45981  39.949  31.441   1.883
77608W        W45982  15.619  18.280   3.163
77609W        W45983  24.058  42.443   4.604
77610W        W45984  37.033  15.813  10.512
77611W        W45985  33.053  14.825   4.303
77612W        W45986  33.117  44.998  11.103
77613W        W45987  43.796  30.961  12.041
77614W        W45988  26.514  12.266  11.385
77615W        W45989   1.859  14.314  11.914
77616W        W45990  17.299  32.394  14.988
77617W        W45991  39.065   2.891  13.793
77618W        W45992  27.581   9.198   3.800
77619W        W45993  41.344  24.609  12.407
77620W        W45994  30.971   8.372  11.011
77621W        W45995  23.181  40.022  11.994
77622W        W45996  22.668   6.804   1.439
77623W        W45997  28.670  17.568  13.367
77624W        W45998  24.623   5.281   4.641
77625W        W45999   1.327   4.770   1.350
77626W        W46000  31.916  14.334  14.472
77627W        W46001  19.247  39.523  10.933
77628W        W46002  36.430  11.735   0.338
77629W        W46003  28.671   6.354  12.563
77630W        W46004  31.426  13.313  14.395
77631W        W46005  13.676  18.239  13.935
77632W        W46006  13.746  22.529  11.082
77633W        W46007  44.422   8.193   0.399
77634W        W46008  35.495  26.175   0.242
77635W        W46009  41.395  10.728  11.874
77636W        W46010  36.898  24.180   2.233
77637W        W46011   1.773  40.018   0.894
77638W        W46012  29.626  29.466   3.723
77639W        W46013   7.230  17.089   4.631
77640W        W46014  21.146   4.248  14.020
77641W        W46015  44.396  14.595   1.885
77642W        W46016   3.821  10.213  11.454
77643W        W46017  30.503  38.870  14.893
77644W        W46018   7.702  20.266  13.474
77645W        W46019  24.988  27.531  13.486
77646W        W46020  11.672  17.096   2.776
77647W        W46021  27.645  13.164   3.199
77648W        W46022   6.873   0.313   3.654
77649W        W46023  15.134   5.294   1.732
77650W        W46024  28.478   0.827  10.554
77651W        W46025  14.810  16.615   3.154
77652W        W46026  25.148   7.888   4.717
77653W        W46027   8.364  17.671   4.681
77654W        W46028  18.699  42.507   0.815
77655W        W46029  22.589  16.255  11.387
77656W        W46030  26.126   9.643  12.010
77657W        W46031  35.389   7.842  13.455
77658W        W46032   8.382  20.259  12.579
77659W        W46033  28.655  33.432  12.896
77660W        W46034  44.921  42.403  13.431
77661W        W46035  29.070  44.505  14.835
77662W        W46036  10.633   2.288  12.516
77663W        W46037   0.953  30.452   9.967
77664W        W46038  34.100  24.646  14.489
77665W        W46039   6.259   9.251   0.826
77666W        W46040  33.892  17.772  11.864
77667W        W46041  28.625   9.819  10.919
77668W        W46042  41.363   3.447   5.284
77669W        W46043  32.534  40.503  13.941
77670W        W46044  38.892  37.393   5.099
77671W        W46045  17.110  16.089  12.997
77672W        W46046  43.321  17.106   0.827
77673W        W46047   8.381  19.577  12.433
77674W        W46048  35.106  40.907  10.913
77675W        W46049  31.947   7.851  12.504
77676W        W46050  20.089   0.778  13.330
77677W        W46051  23.587  36.848  10.911
77678W        W46052  18.695   2.775  10.563
77679W        W46053  23.613   5.345   4.320
77680W        W46054   2.266  13.163   2.769
77681W        W46055  33.616  21.723   4.342
77682W        W46056  32.124  17.271  10.477
77683W        W46057  27.573  17.643  12.451
77684W        W46058  42.429  39.315  11.600
77685W        W46059  39.896  26.673  14.897
77686W        W46060  28.115   6.888  13.461
77687W        W46061  10.258  44.261  10.988
77688W        W46062  39.979  16.144  14.310
77689W        W46063  21.133  17.104   3.167
77690W        W46064  13.338   4.928   5.106
77691W        W46065  26.064  15.733  11.000
77692W        W46066  40.932  38.491   4.209
77693W        W46067  30.544  29.583  13.500
77694W        W46068  21.667   5.916   0.414
77695W        W46069  14.798  39.066  13.454
77696W        W46070   6.893  44.761   3.350
77697W        W46071  43.982  40.959   2.857
77698W        W46072   5.739  19.748  11.469
77699W        W46073  16.238  37.975   3.251
77700W        W46074  10.674  17.744   3.717
77701W        W46075  25.206  38.039  12.541
77702W        W46076  22.112  15.677   2.327
77703W        W46077  13.258  33.937   3.175
77704W        W46078   4.263  44.893   3.702
77705W        W46079  44.354  42.948  12.827
77706W        W46080  16.092   4.848   1.804
77707W        W46081  17.620   2.293  12.937
77708W        W46082  12.208  25.485  10.499
77709W        W46083   0.780  42.926   1.324
77710W        W46084  14.645  28.491  11.376
77711W        W46085  15.795  44.369   0.362
77712W        W46086  40.368  31.410  11.966
77713W        W46087  37.580  35.514  11.384
77714W        W46088  24.184   7.276  14.764
77715W        W46089   5.765  20.160   4.332
77716W        W46090   0.795  37.542  10.446
77717W        W46091  15.745   0.805  11.040
77718W        W46092  24.079   0.948   3.711
77719W        W46093  24.586  14.138   1.411
77720W        W46094  18.270  18.134   0.450
77721W        W46095  15.587   8.397   1.739
77722W        W46096   8.323  10.808   2.700
77723W        W46097  25.577  40.940  11.010
77724W        W46098  25.473  17.246   2.678
77725W        W46099  41.835  34.107   0.938
77726W        W46100  40.915  16.245   3.864
77727W        W46101  37.068  31.551   4.642
77728W        W46102   6.248  26.507  10.410
77729W        W46103  26.115   3.947  12.448
77730W        W46104  23.555  28.061   1.764
77731W        W46105  23.228   6.676  13.467
77732W        W46106   8.289  29.953   4.766
77733W        W46107   2.829   1.960  12.825
77734W        W46108  17.214  28.979  12.509
77735W        W46109  13.653  17.208  13.014
77736W        W46110  40.929   9.866  10.504
77737W        W46111   3.953  36.870   3.325
77738W        W46112  27.591  27.670  12.056
77739W        W46113  27.658   1.868  12.488
77740W        W46114  35.425  16.670   3.716
77741W        W46115  19.737  19.039  12.487
77742W        W46116  38.351  21.592  14.028
77743W        W46117  16.185  30.961  12.963
77744W        W46118  25.007  36.867   2.666
77745W        W46119  27.053  12.149  11.980
77746W        W46120  32.916  23.638  14.397
77747W        W46121  29.655  13.836   1.912
77748W        W46122  19.613  42.804  14.020
77749W        W46123  13.736  10.730   1.931
77750W        W46124  11.355   7.793  13.460
77751W        W46125  19.726  25.653   0.940
77752W        W46126  28.590   8.304   3.805
77753W        W46127  34.063  44.440  10.099
77754W        W46128  34.032  26.065  11.375
77755W        W46129  16.769  24.637  14.773
77756W        W46130   5.789  37.877   1.264
77757W        W46131  16.619  19.277  10.603
77758W        W46132  17.626  30.499  10.494
77759W        W46133  18.271  18.083  13.393
77760W        W46134  12.694  41.847   4.176
77761W        W46135  41.037  35.083   2.186
77762W        W46136  21.684  38.355  10.486
77763W        W46137  28.050  19.710  10.476
77764W        W46138   9.167  25.194   3.729
77765W        W46139   7.893  25.971   1.705
77766W        W46140  38.898  32.110   1.306
77767W        W46141  11.232  23.026   2.664
77768W        W46142  24.134  31.469   1.417
77769W        W46143  41.844  14.097  13.350
77770W        W46144   8.317  10.360   3.261
77771W        W46145  32.618  38.870   1.423
77772W        W46146  31.118  16.571   1.439
77773W        W46147  25.654  24.502   2.736
77774W        W46148  10.318  23.056  10.566
77775W        W46149  41.381  16.279  14.484
77776W        W46150   6.279   0.361   1.322
77777W        W46151  37.942  33.917   4.629
77778W        W46152   0.251  16.716  10.920
77779W        W46153  13.246  25.559   1.798
77780W        W46154  12.715   2.348   3.721
77781W        W46155   5.342   0.820  12.989
77782W        W46156  35.367  15.583  10.080
77783W        W46157  31.999  35.455  14.940
77784W        W46158  16.624   8.258   0.281
77785W        W46159  33.097  23.600   4.334
77786W        W46160   9.209   2.306   2.804
77787W        W46161   6.680  16.198   3.284
77788W        W46162  22.248  10.160  13.920
77789W        W46163  11.192   5.436   1.922
77790W        W46164  32.138   9.852  12.022
77791W        W46165   0.838  13.347   4.803
77792W        W46166  10.707  28.469  11.916
77793W        W46167   2.877  32.890   3.635
77794W        W46168  11.740  32.547   2.246
77795W        W46169   2.336  27.447  13.000
77796W        W46170  22.692  44.333  12.493
77797W        W46171  20.241  12.258  11.038
77798W        W46172  44.878  32.909  14.768
77799W        W46173  36.546  37.987  10.928
77800W        W46174  29.013  11.664   1.355
77801W        W46175   5.913  20.655   0.466
77802W        W46176  14.637  30.946  14.805
77803W        W46177  10.291  39.922   2.384
77804W        W46178   8.780  29.543  14.444
77805W        W46179  19.089   2.434   1.442
77806W        W46180  41.820   7.775  10.598
77807W        W46181  26.525  39.051  14.357
77808W        W46182  16.081  36.913  13.489
77809W        W46183   4.343  36.054  12.415
77810W        W46184  35.419   0.306   2.340
77811W        W46185  32.482  37.860   0.393
77812W        W46186  16.304  28.156   4.769
77813W        W46187  44.955  44.284  12.055
77814W        W46188  44.910  27.057  11.591
77815W        W46189  14.743  15.633  10.602
77816W        W46190  12.292  37.885   4.750
77817W        W46191   7.780   4.214   3.297
77818W        W46192   1.438   2.456   3.184
77819W        W46193   9.814  37.991   0.961
77820W        W46194   1.757  33.563  13.870
77821W        W46195  44.973  24.594   4.210
77822W        W46196  32.433  33.498   1.700
77823W        W46197  27.110  14.636   4.302
77824W        W46198   7.871  36.353  13.851
77825W        W46199  18.278  16.737  11.509
77826W        W46200  34.999   0.836   4.242
77827W        W46201  13.605  27.679   0.462
77828W        W46202  42.460  42.913   3.377
77829W        W46203  39.943  34.101   2.740
77830W        W46204  27.159  27.676   2.794
77831W        W46205  12.740   8.182   4.798
77832W        W46206   6.910   6.909   2.273
77833W        W46207  43.804  36.579   4.652
77834W        W46208  14.228   5.371   3.365
77835W        W46209   7.230   3.441   3.755
77836W        W46210  31.900  18.193  12.516
77837W        W46211  32.116  44.501  12.084
77838W        W46212  37.380   4.400  10.531
77839W        W46213   9.722   2.799   0.462
77840W        W46214  23.700  34.022   1.715
77841W        W46215  38.420  37.999  13.928
77842W        W46216  28.563  44.813   2.723
77843W        W46217  16.103  23.579   4.163
77844W        W46218  31.433  10.733   1.419
77845W        W46219  33.444   1.434   4.689
77846W        W46220   9.308   3.750   5.679
77847W        W46221  11.750   8.805  13.520
77848W        W46222  34.488  43.367   4.334
77849W        W46223   8.732  22.212   3.218
77850W        W46224  34.441  40.006  11.071
77851W        W46225   1.838  23.065  13.899
77852W        W46226   2.265   5.813   0.937
77853W        W46227  17.104  21.513   4.129
77854W        W46228   0.938   1.414  14.875
77855W        W46229   5.195   8.856   2.178
77856W        W46230  28.081  31.578  12.855
77857W        W46231  15.627  33.573  11.123
77858W        W46232  20.659   1.291   1.861
77859W        W46233  24.026  21.124  14.290
77860W        W46234  26.529  15.306   3.744
77861W        W46235  10.721  13.326   3.343
77862W        W46236  25.048  37.066  14.952
77863W        W46237  44.882  16.709  12.967
77864W        W46238  23.209  35.014   2.335
77865W        W46239  37.082   5.805  13.939
77866W        W46240  16.199  29.971  14.782
77867W        W46241   8.735  33.395   4.767
77868W        W46242  14.829  41.527   3.811
77869W        W46243  16.808  12.351   2.807
77870W        W46244  16.686  15.099  12.471
77871W        W46245  21.517   1.243  13.440
77872W        W46246  37.006   7.185   3.193
77873W        W46247   5.213  24.204   3.848
77874W        W46248  21.249  29.029  11.068
77875W        W46249  11.709  38.383  12.060
77876W        W46250  42.416  42.396  14.834
77877W        W46251  28.676   5.252   1.215
77878W        W46252   8.752  35.105  13.466
77879W        W46253  17.227  14.329  14.923
77880W        W46254   1.976  29.449  14.322
77881W        W46255  14.187  35.088   3.818
77882W        W46256   7.725  29.437   2.215
77883W        W46257  28.084  34.031   3.375
77884W        W46258   2.230  30.428  14.412
77885W        W46259  20.677  17.761   3.792
77886W        W46260  36.091  28.102  13.439
77887W        W46261   6.427  33.005  14.489
77888W        W46262   5.691   8.257  14.294
77889W        W46263  26.573  22.746   1.847
77890W        W46264  42.517   7.338  12.901
77891W        W46265  43.780   4.243  10.593
77892W        W46266  32.961  19.140   2.418
77893W        W46267   2.787  38.894  13.538
77894W        W46268  35.984   5.776   3.198
77895W        W46269  28.986  15.093   2.402
77896W        W46270  40.366  15.187  13.887
77897W        W46271  39.852  40.505  12.349
77898W        W46272  35.901  41.326   2.229
77899W        W46273  13.306  12.852   2.195
77900W        W46274   1.746  18.561   2.746
77901W        W46275  30.069  33.973   1.432
77902W        W46276  37.374  30.475   1.864
77903W        W46277  35.419   2.816  13.403
77904W        W46278  25.967  29.923  14.882
77905W        W46279   3.235  17.802  11.594
77906W        W46280  35.881  43.445  11.105
77907W        W46281  43.975  15.114  11.571
77908W        W46282  13.170   0.358   0.325
77909W        W46283  26.104  38.557  12.975
77910W        W46284  36.569   8.697  11.912
77911W        W46285   2.940   4.438   3.839
77912W        W46286   9.752   9.237  10.469
77913W        W46287  34.883  39.393   2.296
77914W        W46288  36.552   7.805   1.766
77915W        W46289  28.123  13.208  13.901
77916W        W46290  40.529  34.372   2.754
77917W        W46291   9.249  29.079  14.492
77918W        W46292  22.058  42.926   4.275
77919W        W46293  21.176   6.204  12.023
77920W        W46294  32.540  42.289  14.469
77921W        W46295  18.190  12.682  12.913
77922W        W46296  38.536  41.364   0.760
77923W        W46297  18.149  30.934  12.076
77924W        W46298   8.820   3.764  10.156
77925W        W46299  33.481  20.587  10.522
77926W        W46300  22.671   4.712  11.958
77927W        W46301   4.844   9.314  12.060
77928W        W46302  18.785  36.014  13.938
77929W        W46303  38.824  17.234   1.377
77930W        W46304  32.119  18.640   0.313
77931W        W46305   4.861   1.395   1.923
77932W        W46306  16.641  34.998   0.478
77933W        W46307  19.616  25.528  12.505
77934W        W46308  29.991   5.243  12.995
77935W        W46309  37.006   6.243  11.552
77936W        W46310  38.920  17.780  13.370
77937W        W46311   0.847  44.454  12.034
77938W        W46312  26.516  13.813  12.556
77939W        W46313  42.435   0.782  11.604
77940W        W46314  20.585   7.701  12.468
77941W        W46315  13.703   6.269  11.877
77942W        W46316   8.744  28.985   4.615
77943W        W46317  38.918   5.794  14.788
77944W        W46318   9.363  20.044   1.411
77945W        W46319  23.996  19.060  13.449
77946W        W46320  22.717  36.507   0.929
77947W        W46321  19.604   1.833   2.321
77948W        W46322  20.535  10.296  12.912
77949W        W46323  40.548  10.739   3.791
77950W        W46324  23.705  38.363   1.727
77951W        W46325   1.247  25.645   3.714
77952W        W46326  39.877  32.075  11.550
77953W        W46327  28.941   4.779   4.685
77954W        W46328  36.969  25.628   2.814
77955W        W46329   9.241   3.450   1.882
77956W        W46330  30.486  17.568   4.793
77957W        W46331  27.006  21.092   0.829
77958W        W46332  35.948  34.499  10.571
77959W        W46333  14.728  14.648  13.893
77960W        W46334  30.933  41.320   0.793
77961W        W46335  26.497  39.992   4.629
77962W        W46336  40.414  35.068   0.772
77963W        W46337  27.103  13.132  12.981
77964W        W46338  12.643  30.448   4.812
77965W        W46339  28.594  35.941   1.257
77966W        W46340   3.776  44.375  10.598
77967W        W46341  43.796   5.885   1.763
77968W        W46342  39.007  24.605   0.425
77969W        W46343  36.592  26.567   5.202
77970W        W46344   8.682  12.116  14.849
77971W        W46345  32.140  41.330  13.803
77972W        W46346  10.378   3.345   2.702
77973W        W46347  37.484   3.337   4.819
77974W        W46348   5.916  28.589   5.619
77975W        W46349  42.413  23.999   4.141
77976W        W46350   9.743  31.585   4.343
77977W        W46351  42.921   1.745  14.940
77978W        W46352  38.937   1.384   3.348
77979W        W46353  15.165   5.692   1.922
77980W        W46354  14.763  39.421   3.712
77981W        W46355  14.229  26.665  10.643
77982W        W46356  26.593  15.706   2.872
77983W        W46357  37.547   8.162  10.907
77984W        W46358  29.035   2.801  12.885
77985W        W46359  40.481   0.262   1.789
77986W        W46360   7.214   7.904  10.543
77987W        W46361  17.583  16.290   1.843
77988W        W46362  35.372  33.068  14.325
77989W        W46363   7.187   5.407   1.216
77990W        W46364  29.619   5.876  12.903
77991W        W46365   6.315  38.497  13.311
77992W        W46366  35.067  44.852   4.610
77993W        W46367  29.946  34.994   1.797
77994W        W46368  17.597  43.290  10.511
77995W        W46369  18.275   3.385  11.929
77996W        W46370  24.707  31.501  12.069
77997W        W46371   8.198   8.206  14.779
77998W        W46372  36.929  32.918  13.349
77999W        W46373   6.677   0.452  11.610
78000W        W46374  28.171  20.065  11.931
78001W        W46375  17.098  25.974  11.126
78002W        W46376  15.805  11.671  13.873
78003W        W46377  40.028  13.643  13.494
78004W        W46378  26.687  12.243   3.792
78005W        W46379  25.166   8.683   4.281
78006W        W46380  42.794   4.698  11.056
78007W        W46381  18.140   2.294  12.540
78008W        W46382  34.003   6.853   0.361
78009W        W46383  18.680   2.913   1.293
78010W        W46384  27.089  25.056  10.551
78011W        W46385  42.815  30.627  14.295
78012W        W46386   1.813   8.346  12.940
78013W        W46387   0.888   6.364   3.384
78014W        W46388  42.311  38.383  14.441
78015W        W46389  23.192  35.045   3.817
78016W        W46390  26.539  20.266  12.474
78017W        W46391  13.641  25.560  13.935
78018W        W46392   5.780  14.097  13.501
78019W        W46393  22.719  24.058   3.361
78020W        W46394  17.571  15.305   3.805
78021W        W46395   9.695   5.804   3.171
78022W        W46396  42.963   8.761  11.017
78023W        W46397  15.712   9.669  10.994
78024W        W46398   2.308  44.895  11.463
78025W        W46399  26.667  18.664  13.034
78026W        W46400  32.480  26.632   2.285
78027W        W46401  38.838  38.447   1.934
78028W        W46402  24.510  23.536   3.287
78029W        W46403  41.032  19.194  11.955
78030W        W46404   8.330  27.947   0.403
78031W        W46405  16.593  31.923  14.784
78032W        W46406  28.088  41.430   0.296
78033W        W46407  11.666  34.551   1.796
78034W        W46408  13.679  24.676  14.964
78035W        W46409  16.151   5.322  14.506
78036W        W46410  29.547   3.273   0.474
78037W        W46411  32.431  11.801   9.971
78038W        W46412   8.736  39.944  13.983
78039W        W46413  26.531  37.580  13.801
78040W        W46414  34.535  36.486  14.883
78041W        W46415   9.342  25.163   2.267
78042W        W46416  43.877  10.702   4.167
78043W        W46417  43.271  40.855   4.333
78044W        W46418  18.777  40.019   2.693
78045W        W46419   6.802  13.258  12.339
78046W        W46420  35.072  33.958   0.271
78047W        W46421  33.562  28.545  11.588
78048W        W46422  26.465  28.059  12.348
78049W        W46423   0.490  10.316   3.165
78050W        W46424  16.215  22.174   4.276
78051W        W46425  17.565   0.840   1.705
78052W        W46426  35.048  38.844   2.667
78053W        W46427  16.237  40.911   0.411
78054W        W46428  37.945  34.381  10.948
78055W        W46429  26.561  25.147   4.185
78056W        W46430  26.144  16.232   0.327
78057W        W46431   3.454  11.645  13.432
78058W        W46432  38.892  25.023   0.787
78059W        W46433   0.461  12.205  13.490
78060W        W46434  37.486   1.819  14.027
78061W        W46435  12.782  42.812  13.459
78062W        W46436   2.353   3.254   3.677
78063W        W46437  21.136  10.662  10.932
78064W        W46438  17.085   1.474   4.707
78065W        W46439  14.773  13.127   0.831
78066W        W46440  33.083  19.057  13.916
78067W        W46441   8.188   3.817  11.956
78068W        W46442  43.895  10.773  11.035
78069W        W46443  29.427  13.184   4.119
78070W        W46444  42.992  44.422  14.291
78071W        W46445  33.531   3.953  13.007
78072W        W46446   0.745  26.988   1.384
78073W        W46447  40.337  40.886   1.270
78074W        W46448  30.996  15.232   1.883
78075W        W46449  20.634  34.583   3.820
78076W        W46450  10.252  25.646   2.818
78077W        W46451  13.323  22.030  13.948
78078W        W46452   5.913  15.140   4.118
78079W        W46453  13.607   7.322  12.380
78080W        W46454  38.027   7.706  14.326
78081W        W46455   6.286  29.931   2.261
78082W        W46456  43.505  15.746   2.235
78083W        W46457  40.960   2.905  10.542
78084W        W46458  43.394   0.972   1.836
78085W        W46459  24.599  11.832   2.293
78086W        W46460  42.940  26.571  13.493
78087W        W46461  38.431   8.335   3.315
78088W        W46462  34.440  43.005  13.337
78089W        W46463  19.159  36.534  10.511
78090W        W46464   2.931  39.431   4.265
78091W        W46465   5.312  41.448  11.921
78092W        W46466  21.169  19.726   2.712
78093W        W46467  13.602  36.001   2.226
78094W        W46468  36.544  21.158  13.870
78095W        W46469  38.467   6.840  14.342
78096W        W46470   9.821  26.498   2.766
78097W        W46471  18.589  33.898  13.523
78098W        W46472  27.520   4.329   4.295
78099W        W46473   2.396  11.650   9.972
78100W        W46474  24.999  14.193  12.074
78101W        W46475  38.063  22.034  13.018
78102W        W46476  26.502  18.222   3.773
78103W        W46477  13.297  40.466  12.826
78104W        W46478   8.767  17.715   9.609
78105W        W46479  39.375  11.852   0.826
78106W        W46480  17.305  11.161   2.729
78107W        W46481  37.568   4.732  10.919
78108W        W46482  34.579  14.832  13.983
78109W        W46483  31.053  14.730  10.954
78110W        W46484   0.776  16.131   4.714
78111W        W46485   4.249  23.672  14.293
78112W        W46486   9.719  13.790   4.299
78113W        W46487  34.577  40.316  13.802
78114W        W46488  43.863  22.044   2.842
78115W        W46489  39.397  14.258   0.923
78116W        W46490  14.789  24.621  14.799
78117W        W46491   8.831  16.100   4.138
78118W        W46492  36.455  39.970  12.839
78119W        W46493   9.387   1.312  10.893
78120W        W46494  40.409   0.400   1.231
78121W        W46495   6.364   7.413   5.188
78122W        W46496  43.307  24.559  13.454
78123W        W46497  24.608  40.993   3.373
78124W        W46498   1.770  16.135  10.600
78125W        W46499  27.022  32.088  14.011
78126W        W46500  37.085  30.137   0.347
78127W        W46501   2.293  19.608   2.316
78128W        W46502  41.515  39.822   1.884
78129W        W46503  33.418   3.400   4.637
78130W        W46504  11.639  41.462   0.881
78131W        W46505   9.772  15.811   3.266
78132W        W46506  38.446  29.133   1.706
78133W        W46507  31.897  12.299   0.332
78134W        W46508   4.789  41.509   3.226
78135W        W46509  38.892  10.298  11.049
78136W        W46510  15.741  20.749  10.003
78137W        W46511  25.095   9.842   0.294
78138W        W46512  32.959  27.975  10.958
78139W        W46513  42.012  32.597  13.386
78140W        W46514  30.606  41.817   1.783
78141W        W46515  17.785  32.043   3.219
78142W        W46516  43.772  36.859   1.802
78143W        W46517   2.244  44.492   3.825
78144W        W46518   9.840  15.231   2.241
78145W        W46519  16.621  29.052   3.257
78146W        W46520   0.282  19.563  13.334
78147W        W46521  24.056   9.307   0.444
78148W        W46522  34.561  32.042  10.892
78149W        W46523  40.818  40.313   1.447
78150W        W46524  36.053  28.981  14.772
78151W        W46525  24.566  33.061  14.918
78152W        W46526  31.104  17.207   0.739
78153W        W46527  16.785   5.792   4.715
78154W        W46528   8.300  36.031  13.332
78155W        W46529  24.549  40.342   3.827
78156W        W46530  43.967   7.902  13.002
78157W        W46531  36.841  33.925   2.895
78158W        W46532  43.965   6.883  11.393
78159W        W46533   7.342  44.918  13.315
78160W        W46534   8.875   0.359  12.458
78161W        W46535  19.083  33.494  10.408
78162W        W46536  13.677  38.349  11.128
78163W        W46537   9.858  15.707   4.781
78164W        W46538  25.136  11.266  12.955
78165W        W46539  33.453  35.084  11.454
78166W        W46540  19.164  26.489  12.986
78167W        W46541  31.425  20.601   2.832
78168W        W46542   5.744  11.637  14.493
78169W        W46543   3.722   2.274   0.288
78170W        W46544  12.344  11.809   4.684
78171W        W46545  23.218  11.310   3.868
78172W        W46546  22.729  32.960  12.018
78173W        W46547  15.751  44.802   3.714
78174W        W46548  38.844  10.766   1.720
78175W        W46549  26.622  14.645   0.744
78176W        W46550  29.432  16.195  10.636
78177W        W46551  17.151  34.547   3.175
78178W        W46552  43.345   0.315   3.163
78179W        W46553   7.719  38.978  11.604
78180W        W46554  28.495  29.479  12.458
78181W        W46555  11.242   5.750  12.381
78182W        W46556   0.248  13.156  14.910
78183W        W46557  18.758   3.737   0.398
78184W        W46558  14.136  16.610  14.327
78185W        W46559   4.853  38.393   4.152
78186W        W46560  17.694   6.836   2.183
78187W        W46561   0.828  38.055  13.973
78188W        W46562  19.049  39.065  12.991
78189W        W46563   0.480   9.300   3.339
78190W        W46564  19.167  16.789  11.520
78191W        W46565   1.819  22.518   4.267
78192W        W46566  36.472   4.940  14.419
78193W        W46567  21.158   7.253   2.792
78194W        W46568  36.946  40.537   3.699
78195W        W46569  43.802  34.529   3.275
78196W        W46570  17.080  38.855   0.309
78197W        W46571  10.670   1.822  10.588
78198W        W46572  21.123  40.864  11.919
78199W        W46573   7.316  44.004   2.239
78200W        W46574  26.979  39.532   3.179
78201W        W46575   2.854  43.445   4.725
78202W        W46576  18.294  24.569   1.424
78203W        W46577   2.408   5.819   4.314
78204W        W46578   9.872  35.396  12.054
78205W        W46579  28.174  10.168   0.764
78206W        W46580  18.132   5.840   0.888
78207W        W46581   6.743  24.639   2.664
78208W        W46582  28.573  28.634  10.462
78209W        W46583  14.312  29.077   3.759
78210W        W46584  21.682  39.532  10.543
78211W        W46585  20.267  18.609   2.674
78212W        W46586  44.504  22.744   4.630
78213W        W46587  42.854  13.159  14.021
78214W        W46588   9.358  13.335   4.312
78215W        W46589  32.019  35.052   0.442
78216W        W46590   0.395  22.056  11.553
78217W        W46591  32.634  11.148   2.295
78218W        W46592   1.480  16.299   3.700
78219W        W46593  23.503   5.275  13.321
78220W        W46594  20.212  28.164  10.135
78221W        W46595  20.040   4.446   4.628
78222W        W46596  33.423  26.047   2.845
78223W        W46597  27.046   7.829  13.027
78224W        W46598  36.536  22.147  14.785
78225W        W46599  28.519  30.109   3.379
78226W        W46600  28.153  24.990   4.307
78227W        W46601   6.322   2.811   1.830
78228W        W46602   6.682  12.615   1.443
78229W        W46603  14.135  24.979  12.408
78230W        W46604  32.062   4.278  13.888
78231W        W46605   6.310  19.265  11.027
78232W        W46606  17.221  17.070   1.825
78233W        W46607  25.631   9.346   1.728
78234W        W46608   3.920  41.037   3.740
78235W        W46609  22.630  31.008   4.714
78236W        W46610  42.885  24.989   3.257
78237W        W46611   0.845  10.763  14.367
78238W        W46612  43.830  18.189   4.340
78239W        W46613  17.749  24.541  14.389
78240W        W46614  23.630  40.342  14.460
78241W        W46615  21.136  13.819   1.868
78242W        W46616   3.797   7.396   5.224
78243W        W46617  30.628  12.300   2.827
78244W        W46618  17.754   5.201   2.790
78245W        W46619   8.239  20.120   3.851
78246W        W46620   5.431  15.091  10.910
78247W        W46621  26.054  15.620   1.865
78248W        W46622  22.501  42.306  11.046
78249W        W46623  44.954  38.054   2.240
78250W        W46624  36.359  11.346  13.330
78251W        W46625  18.695  34.424   5.260
78252W        W46626   7.826  37.988   4.834
78253W        W46627  13.261  27.617  11.054
78254W        W46628  18.186  34.446   4.320
78255W        W46629  30.629  12.650  11.489
78256W        W46630   8.704  18.648   4.341
78257W        W46631  37.373  13.194   4.127
78258W        W46632  22.057  43.435   1.373
78259W        W46633  39.020  15.677  12.850
78260W        W46634  40.361  44.816  14.489
78261W        W46635  11.623   3.949   4.344
78262W        W46636   6.226  15.739  10.419
78263W        W46637  17.687  17.221   4.810
78264W        W46638  19.590  13.323   0.277
78265W        W46639  16.258  16.257  11.901
78266W        W46640  40.316  18.756  12.911
78267W        W46641   7.690   0.982  11.555
78268W        W46642  40.998  40.442   0.246
78269W        W46643  39.909  37.364   4.804
78270W        W46644  38.381  44.408   4.678
78271W        W46645  15.792  37.010   4.757
78272W        W46646  25.962   2.927   4.183
78273W        W46647  13.317  19.556  10.513
78274W        W46648  13.305  10.185   1.794
78275W        W46649  13.787  26.562   3.733
78276W        W46650  43.947  37.040   4.160
78277W        W46651  25.162  30.041  11.385
78278W        W46652  22.210   3.802   2.885
78279W        W46653  29.556  24.693   4.746
78280W        W46654   7.863  24.711   5.173
78281W        W46655   9.381  32.011  14.780
78282W        W46656  13.759  16.750  10.517
78283W        W46657  10.323  21.255   0.832
78284W        W46658  25.973  10.709   4.280
78285W        W46659  12.855   0.743  12.473
78286W        W46660  13.755  30.502  12.936
78287W        W46661  29.565   6.692  10.977
78288W        W46662  43.826   1.749   3.832
78289W        W46663   7.699  29.523  10.413
78290W        W46664  26.479  20.256  10.913
78291W        W46665  12.628  15.181  13.992
78292W        W46666  38.571  38.449   0.792
78293W        W46667   0.303  34.931   3.805
78294W        W46668  22.223  17.279   1.258
78295W        W46669   6.304  40.012   1.261
78296W        W46670  37.861  43.436   4.319
78297W        W46671  10.756   8.209   1.754
78298W        W46672  44.405  10.868  11.559
78299W        W46673  24.170  23.578  14.974
78300W        W46674  11.179   5.740  11.108
78301W        W46675  41.821   1.936   3.372
78302W        W46676  23.998  36.390  12.899
78303W        W46677  22.249  30.012  12.492
78304W        W46678   3.904  18.789  14.390
78305W        W46679   5.854   7.196  14.494
78306W        W46680  38.469   9.362  13.370
78307W        W46681  41.010  27.453  11.871
78308W        W46682  41.351   5.356   1.743
78309W        W46683  17.193   9.213   3.212
78310W        W46684   7.210  22.218   0.331
78311W        W46685   7.896  11.741   5.278
78312W        W46686  13.347  32.061  12.974
78313W        W46687  39.503  28.598   3.247
78314W        W46688  22.149  35.573   4.158
78315W        W46689  11.313   3.788   1.750
78316W        W46690   2.260  39.922  13.794
78317W        W46691  23.721  43.946   3.256
78318W        W46692  15.793  19.055  13.062
78319W        W46693  42.967   0.938  11.401
78320W        W46694  28.544   1.848   1.393
78321W        W46695  18.596  39.488  12.979
78322W        W46696   1.884  24.989   3.154
78323W        W46697  13.599  28.571   0.346
78324W        W46698   2.807  43.776  14.927
78325W        W46699  10.238  15.614  11.941
78326W        W46700  39.868  35.911   4.730
78327W        W46701  36.592  11.373  11.929
78328W        W46702  41.380  18.745   1.388
78329W        W46703  37.448  41.998  14.323
78330W        W46704  11.802   9.849   3.172
78331W        W46705   3.396  16.791  10.505
78332W        W46706  18.672  35.470  13.995
78333W        W46707  15.323   3.430   3.200
78334W        W46708   8.779  42.989   4.623
78335W        W46709  43.840  15.773   3.204
78336W        W46710  13.330   7.752   4.787
78337W        W46711  24.231  40.446   2.377
78338W        W46712  40.987  38.324  10.983
78339W        W46713  44.375  42.322   4.170
78340W        W46714  25.471   2.917   0.763
78341W        W46715  27.638  15.707   1.442
78342W        W46716  19.238   8.205  10.556
78343W        W46717   1.464  39.370   3.381
78344W        W46718  22.195  33.520   0.288
78345W        W46719  18.181  13.105   0.336
78346W        W46720  21.090  39.876   4.775
78347W        W46721  10.368  25.571   0.878
78348W        W46722  22.022   8.845  12.482
78349W        W46723  27.998  41.016   1.438
78350W        W46724  16.670  29.140  13.913
78351W        W46725  31.075  22.084   0.461
78352W        W46726  42.353  37.504   0.353
78353W        W46727  18.789  38.899  12.476
78354W        W46728  13.292   6.702   2.201
78355W        W46729  22.648  38.980   1.871
78356W        W46730   9.291   7.222  13.448
78357W        W46731  35.500  29.161   3.188
78358W        W46732  32.044  34.865   2.894
78359W        W46733  21.711   5.247   2.398
78360W        W46734  42.864  10.172  12.420
78361W        W46735   2.227  38.860  10.593
78362W        W46736  40.853  12.851   0.830
78363W        W46737   2.757  28.673  14.831
78364W        W46738  37.059  23.591   3.639
78365W        W46739  13.816   4.314  11.889
78366W        W46740   5.312  17.294   0.942
78367W        W46741  28.597  39.347   0.957
78368W        W46742  44.486  30.534  14.448
78369W        W46743  19.106  24.133  12.824
78370W        W46744  39.382  16.752  12.002
78371W        W46745  30.963   1.749  14.402
78372W        W46746  31.144  11.835  11.560
78373W        W46747  15.775  42.999  10.514
78374W        W46748  28.146   9.160   2.290
78375W        W46749   9.688  35.417  12.553
78376W        W46750  26.475  35.531   2.699
78377W        W46751  43.348   4.243   4.691
78378W        W46752  15.111  20.655  12.537
78379W        W46753  11.347  20.640   1.764
78380W        W46754  16.611   8.898  14.897
78381W        W46755  18.573  18.056  10.416
78382W        W46756  13.614  10.364   1.860
78383W        W46757   2.859  26.516  10.507
78384W        W46758   3.223  18.671   4.174
78385W        W46759   1.392   9.188  14.878
78386W        W46760  27.530  23.633   4.636
78387W        W46761  24.228   0.830   2.862
78388W        W46762  23.984  39.057   4.262
78389W        W46763  37.838  21.038   3.721
78390W        W46764  10.254  19.208  12.943
78391W        W46765  10.723  10.157   2.405
78392W        W46766  28.058   0.339  14.301
78393W        W46767  42.399  38.946   2.304
78394W        W46768  15.670  23.097   1.358
78395W        W46769   9.870  15.703   0.787
78396W        W46770   6.345  11.803   2.208
78397W        W46771  15.616  33.012  11.908
78398W        W46772  36.916   1.464   4.664
78399W        W46773  40.844  17.289  12.426
78400W        W46774  44.341  19.553   3.691
78401W        W46775   2.406  44.806   0.949
78402W        W46776  33.381  27.072   2.739
78403W        W46777  30.117   1.943   1.269
78404W        W46778  26.625  12.780   0.287
78405W        W46779  19.746   0.908   3.204
78406W        W46780  20.666  22.221   2.837
78407W        W46781  20.132  12.150  13.473
78408W        W46782  27.679   0.744   1.446
78409W        W46783  16.082  10.286  11.123
78410W        W46784  14.236  43.005   2.699
78411W        W46785  21.082  30.446   1.291
78412W        W46786  21.667  15.702  14.339
78413W        W46787  38.960   6.407   1.230
78414W        W46788  35.925   9.165  14.913
78415W        W46789  35.442  19.638  13.515
78416W        W46790  14.220  32.423  12.928
78417W        W46791  25.606  21.667   2.763
78418W        W46792  29.170  40.921  12.923
78419W        W46793  17.601   4.397  12.075
78420W        W46794  19.177  44.290   2.811
78421W        W46795  34.534   5.395  12.430
78422W        W46796  13.699  42.791   9.985
78423W        W46797  29.515   3.278   2.398
78424W        W46798   6.233  15.767  14.328
78425W        W46799   9.332  36.362  12.552
78426W        W46800  35.036   0.867   4.689
78427W        W46801   9.796  17.615   0.347
78428W        W46802  29.612  41.530   5.284
78429W        W46803  23.074   3.392  12.038
78430W        W46804  36.411  27.042  13.320
78431W        W46805  22.249  11.308   3.377
78432W        W46806   1.742   3.263  11.044
78433W        W46807  26.079  21.695  11.063
78434W        W46808  38.341  29.665   1.339
78435W        W46809   4.222  16.317  11.607
78436W        W46810   7.796   5.265   4.155
78437W        W46811   6.708  43.954   0.315
78438W        W46812  41.344  31.474  11.432
78439W        W46813  23.713  37.072   4.835
78440W        W46814   9.271  38.385  10.917
78441W        W46815  41.880  24.568  13.801
78442W        W46816  28.537  38.554   0.957
78443W        W46817  22.638  26.057   0.947
78444W        W46818  40.336  18.149   0.854
78445W        W46819  32.097   8.810   2.902
78446W        W46820  36.924  41.894  13.408
78447W        W46821  44.460  44.836   0.379
78448W        W46822  31.927  41.323   3.216
78449W        W46823  40.867  12.803   1.378
78450W        W46824  29.079  41.004   0.922
78451W        W46825  38.367  31.080   1.307
78452W        W46826  22.190  26.115  11.885
78453W        W46827  37.459  18.265   4.115
78454W        W46828  12.164  39.377  12.449
78455W        W46829  13.173   2.896   1.405
78456W        W46830   9.238   7.716  12.967
78457W        W46831   8.764   5.429  14.837
78458W        W46832  35.603  19.089   1.698
78459W        W46833   5.294  29.011  13.525
78460W        W46834  27.152  29.085  11.956
78461W        W46835  18.552  20.121   3.291
78462W        W46836  31.949  35.585   2.763
78463W        W46837  13.326  32.929  13.843
78464W        W46838  19.200  11.312   4.636
78465W        W46839  12.620   8.256   3.369
78466W        W46840  33.030  38.547  12.573
78467W        W46841  35.456  19.576  10.404
78468W        W46842  34.088  19.174  10.609
78469W        W46843  34.104  43.364   1.363
78470W        W46844  42.977  35.865  10.503
78471W        W46845  39.408  10.639  14.327
78472W        W46846  36.480  26.461  10.991
78473W        W46847  30.923  27.102  14.952
78474W        W46848  11.218  44.784   1.412
78475W        W46849  28.159  24.196   3.288
78476W        W46850  44.389  32.536  10.510
78477W        W46851  13.146  26.654  14.974
78478W        W46852   4.378  25.541  14.930
78479W        W46853  36.035  21.054  12.386
78480W        W46854  26.572   9.773   1.822
78481W        W46855   8.192  35.009  12.070
78482W        W46856   5.236  26.684  10.119
78483W        W46857  16.670   4.263  11.948
78484W        W46858  41.428   3.341  14.872
78485W        W46859  11.700  21.604  10.996
78486W        W46860  35.377  20.744  10.624
78487W        W46861  42.390   4.351  13.311
78488W        W46862  26.528   9.182   3.258
78489W        W46863  43.793  31.072   4.209
78490W        W46864   0.933  26.015  11.460
78491W        W46865  16.175  12.615  13.948
78492W        W46866  16.256  28.587  14.372
78493W        W46867  24.672  15.117   0.740
78494W        W46868  22.995   7.244   2.284
78495W        W46869  38.466   0.494  14.032
78496W        W46870  38.902  26.635  13.827
78497W        W46871  42.477   3.846   1.444
78498W        W46872  30.027   7.902  13.822
78499W        W46873  27.086  30.530   5.123
78500W        W46874  28.623  37.076   1.871
78501W        W46875  38.445  20.159   0.479
78502W        W46876   6.262  31.526  11.046
78503W        W46877  18.555  13.271   3.249
78504W        W46878  41.858  30.654  13.021
78505W        W46879   9.348  29.479   1.421
78506W        W46880  18.724   4.704  13.479
78507W        W46881   3.722   2.449   0.839
78508W        W46882  32.992   0.386   4.838
78509W        W46883  32.926  30.561   1.853
78510W        W46884   6.858  26.612   1.356
78511W        W46885  24.986  33.930  11.563
78512W        W46886  19.259   7.691  14.941
78513W        W46887  27.479  36.383  11.012
78514W        W46888  23.127  10.196   3.265
78515W        W46889  32.506  42.930   0.414
78516W        W46890  40.879  31.000   4.323
78517W        W46891  25.209   7.374   1.416
78518W        W46892  44.441  19.122   0.856
78519W        W46893  24.131   6.906   4.126
78520W        W46894  39.922   8.206   4.689
78521W        W46895  41.311   6.259  14.876
78522W        W46896  10.154  17.247   0.835
78523W        W46897  44.417  28.455  12.475
78524W        W46898  25.179  31.541  14.009
78525W        W46899   6.873   4.803  11.512
78526W        W46900  20.674  44.474  11.875
78527W        W46901  14.308  31.150  11.026
78528W        W46902  37.540  18.255  11.418
78529W        W46903  37.923  18.773  12.521
78530W        W46904  34.451  12.789   2.200
78531W        W46905   6.343  32.449  14.980
78532W        W46906  44.413  43.406  11.004
78533W        W46907  29.476   1.454  12.937
78534W        W46908   4.859  16.138   2.867
78535W        W46909   0.960  26.031  13.004
78536W        W46910  40.999   6.859   3.246
78537W        W46911  39.553   3.404  12.981
78538W        W46912  30.911  19.620   5.276
78539W        W46913  32.497  14.141   1.426
78540W        W46914  15.267  15.322  14.798
78541W        W46915  22.629  13.212  14.912
78542W        W46916  17.716  28.065  11.897
78543W        W46917  27.064  19.753   0.956
78544W        W46918  32.143  43.916  14.852
78545W        W46919   7.332  44.999   1.414
78546W        W46920  41.335  25.000  11.862
78547W        W46921  40.321  23.625  12.016
78548W        W46922  28.603  28.656  11.088
78549W        W46923   5.782  21.523   4.125
78550W        W46924  34.019   4.845  13.894
78551W        W46925   0.967  10.725   3.239
78552W        W46926   8.790  38.342  10.592
78553W        W46927   1.811  23.184  13.399
78554W        W46928  23.576  20.216   1.879
78555W        W46929  16.601  41.920   1.924
78556W        W46930  44.887  24.633  14.817
78557W        W46931   5.920  32.017   1.700
78558W        W46932  23.210  13.659   4.261
78559W        W46933  15.142   0.854  11.874
78560W        W46934  28.486  36.576  11.092
78561W        W46935   3.406   8.680  11.480
78562W        W46936  18.629   4.782  10.419
78563W        W46937  26.613  12.815   2.388
78564W        W46938  30.549  23.691   0.912
78565W        W46939  21.090  26.175   1.358
78566W        W46940  11.369   3.309   3.828
78567W        W46941   1.382  13.252  10.599
78568W        W46942   8.377  42.473   0.268
78569W        W46943  23.563  17.639  10.908
78570W        W46944  32.620  12.333   2.715
78571W        W46945   0.351  35.867  11.951
78572W        W46946  37.509  25.081   4.650
78573W        W46947  19.250  13.295   4.758
78574W        W46948  32.138  17.214  11.971
78575W        W46949  28.115  18.555  12.457
78576W        W46950  35.951   1.361  14.406
78577W        W46951   3.422  12.708  14.000
78578W        W46952  28.055   0.945   4.635
78579W        W46953  20.735  14.215  14.326
78580W        W46954  17.685  17.264   2.752
78581W        W46955   0.797  12.640   2.819
78582W        W46956  14.175  38.557   2.297
78583W        W46957  40.014   9.188   0.761
78584W        W46958  25.178   8.226   3.193
78585W        W46959  43.497  19.679   0.905
78586W        W46960  31.472   8.355  14.378
78587W        W46961   3.419  29.606  10.944
78588W        W46962  18.283  39.043   2.233
78589W        W46963  41.043  12.182  11.885
78590W        W46964  25.652  40.846  13.506
78591W        W46965   5.237   1.914   1.812
78592W        W46966  40.456  23.046  14.938
78593W        W46967   5.340  28.125  11.053
78594W        W46968  37.956   0.313  12.984
78595W        W46969  44.846  36.010   3.283
78596W        W46970  17.787  18.287   4.811
78597W        W46971  40.965   5.291   0.856
78598W        W46972  34.435   8.718  11.444
78599W        W46973   1.265  34.955  11.501
78600W        W46974   3.313  39.543   3.285
78601W        W46975  34.030  24.503  13.496
78602W        W46976  35.415  36.006   2.682
78603W        W46977  18.685   8.290   2.198
78604W        W46978  25.626  16.305  13.882
78605W        W46979  10.718  29.987   4.693
78606W        W46980  36.560   1.445   2.765
78607W        W46981  33.109   2.416   2.250
78608W        W46982  33.447  40.894   4.209
78609W        W46983  24.510  28.035   3.318
78610W        W46984  35.387  28.482   4.198
78611W        W46985   3.902   1.821   4.720
78612W        W46986  27.657  32.539   0.886
78613W        W46987   6.220  40.927  12.511
78614W        W46988  24.059  31.996  10.428
78615W        W46989  12.120   8.898  11.564
78616W        W46990  37.030  18.617  13.056
78617W        W46991  20.212   9.725  10.900
78618W        W46992  18.136   6.888  14.844
78619W        W46993  20.207  14.630   2.207
78620W        W46994   6.781  42.887   3.739
78621W        W46995  11.781  17.133   1.815
78622W        W46996  33.418   2.723  14.394
78623W        W46997   3.891  15.249   2.783
78624W        W46998  31.537   0.378   3.814
78625W        W46999  14.219   2.417  12.840
78626W        W47000  35.984  42.292  13.044
78627W        W47001  32.416  23.211  10.992
78628W        W47002   1.375  35.403  14.808
78629W        W47003   5.894  30.025  11.515
78630W        W47004  42.430  26.635   3.735
78631W        W47005  36.907  23.690   3.189
78632W        W47006   4.271  11.224  14.881
78633W        W47007  12.635  16.574  10.893
78634W        W47008  34.413  22.539   0.859
78635W        W47009  21.251  29.049   3.245
78636W        W47010   8.858   8.334   3.381
78637W        W47011  32.599  22.627   0.317
78638W        W47012  28.112  44.328   4.300
78639W        W47013  28.032  44.433  13.340
78640W        W47014  39.400  33.426  12.904
78641W        W47015  22.736  43.917  12.559
78642W        W47016   6.242  35.055   4.243
78643W        W47017  28.120  29.448   2.244
78644W        W47018  19.148   2.896  10.556
78645W        W47019  28.445   3.774  12.533
78646W        W47020  39.885  23.558  12.865
78647W        W47021  20.040  39.838   1.246
78648W        W47022  12.629  25.639   0.882
78649W        W47023  39.518  11.197  12.069
78650W        W47024  20.067  17.596  10.474
78651W        W47025  39.479  34.088  14.995
78652W        W47026  31.537  20.235  12.911
78653W        W47027  35.856  21.050   2.694
78654W        W47028  21.579   1.279   4.782
78655W        W47029  28.939   0.944  12.415
78656W        W47030   8.759  41.917  14.443
78657W        W47031  42.909  30.628  11.469
78658W        W47032   8.219  24.542  11.877
78659W        W47033  23.016  11.323   2.802
78660W        W47034  43.007  31.576  10.022
78661W        W47035  23.187  14.742   3.841
78662W        W47036  18.661  26.605  10.131
78663W        W47037  21.715  44.933  12.858
78664W        W47038  37.955  26.080  13.524
78665W        W47039  36.941  25.116   0.961
78666W        W47040  11.722  15.177  14.994
78667W        W47041  34.540   9.721  10.430
78668W        W47042  44.791  33.094   1.828
78669W        W47043  35.538   7.883  12.417
78670W        W47044  41.906  25.145   5.142
78671W        W47045  39.003  13.759  10.962
78672W        W47046  43.795  20.245  11.383
78673W        W47047  11.210  26.464  14.836
78674W        W47048   5.321  23.685  10.412
78675W        W47049   5.381  35.572  12.070
78676W        W47050  13.319  27.948   3.247
78677W        W47051  26.207  15.822   2.668
78678W        W47052  29.992   4.856   4.684
78679W        W47053  21.199  19.621   9.989
78680W        W47054  38.843  29.014   0.464
78681W        W47055  11.753  29.602   3.823
78682W        W47056  12.640  23.654   1.216
78683W        W47057   4.827  24.508   0.295
78684W        W47058   0.454  30.123   0.371
78685W        W47059  14.804  29.617  10.483
78686W        W47060  19.688  33.011  14.289
78687W        W47061   6.301  16.105  13.462
78688W        W47062  23.074  28.948   2.329
78689W        W47063  16.132  27.671  10.435
78690W        W47064  36.021  12.122  13.961
78691W        W47065   4.282  22.026   2.719
78692W        W47066  24.678  34.870  10.417
78693W        W47067  17.602  43.910  10.891
78694W        W47068  29.143  23.022  10.970
78695W        W47069  15.106  11.319   4.683
78696W        W47070  26.654  36.058  13.308
78697W        W47071  29.005  26.490   1.762
78698W        W47072   8.161   5.357   0.428
78699W        W47073  18.080  39.975  13.042
78700W        W47074  29.657   3.386   5.163
78701W        W47075  39.475  44.855  10.478
78702W        W47076   4.902  14.135   1.411
78703W        W47077  15.314  21.092  11.469
78704W        W47078   7.264   4.848  12.339
78705W        W47079  40.875   8.238   2.859
78706W        W47080   9.373  38.340   2.869
78707W        W47081  10.191  36.078  14.837
78708W        W47082  27.506  16.163   3.728
78709W        W47083   5.419  27.178   4.648
78710W        W47084  11.317  44.499   4.769
78711W        W47085  18.560  43.282  11.956
78712W        W47086  30.415  41.864   3.758
78713W        W47087  36.388   7.334   3.754
78714W        W47088  23.163  23.569   3.240
78715W        W47089  13.822  41.972  11.009
78716W        W47090  31.938  30.479  11.083
78717W        W47091   9.690  36.859   1.852
78718W        W47092  27.019  12.852  13.357
78719W        W47093  19.695  23.207  14.406
78720W        W47094  21.109  16.260  14.032
78721W        W47095  33.989  43.771  13.879
78722W        W47096  28.943   4.440  11.058
78723W        W47097  20.113  15.108   2.352
78724W        W47098   4.286  20.716   3.765
78725W        W47099   6.807   9.382  11.055
78726W        W47100  24.135  15.682   5.221
78727W        W47101   9.859  20.602   1.778
78728W        W47102   4.308  20.594   1.449
78729W        W47103   0.810  30.009  14.993
78730W        W47104  41.392  21.199  10.416
78731W        W47105   1.780  26.594  12.931
78732W        W47106  29.430  15.656  10.926
78733W        W47107  20.632  15.745   4.131
78734W        W47108   5.910  39.808  13.907
78735W        W47109  37.069  30.483  13.912
78736W        W47110  42.307   4.395   3.867
78737W        W47111  34.465  25.137   2.414
78738W        W47112   7.781   8.894  11.430
78739W        W47113  15.118  28.527  14.879
78740W        W47114   1.834  28.512  10.419
78741W        W47115  28.962  43.444   0.918
78742W        W47116  35.940  38.824   1.324
78743W        W47117   9.383  44.995   1.732
78744W        W47118  34.090  15.581   2.385
78745W        W47119  24.147  29.972   1.378
78746W        W47120  23.714  35.366   0.269
78747W        W47121  16.231  24.046  14.949
78748W        W47122  17.230  35.592  11.099
78749W        W47123  33.435  12.123  12.965
78750W        W47124  33.050  17.680   2.725
78751W        W47125  19.617  19.152  14.372
78752W        W47126  32.622   5.422   1.372
78753W        W47127  42.838   7.906   4.153
78754W        W47128  13.142  18.691   3.757
78755W        W47129  43.986  20.651  14.759
78756W        W47130  36.561  29.043  11.563
78757W        W47131  43.363  12.202   2.264
78758W        W47132  12.793  33.876   2.828
78759W        W47133   6.292  31.515   4.787
78760W        W47134  39.830  26.988  10.440
78761W        W47135  44.914  23.052   3.238
78762W        W47136   7.321   9.246  10.534
78763W        W47137   0.325  42.848   3.351
78764W        W47138  39.552  16.723  13.055
78765W        W47139  20.154  19.158  14.336
78766W        W47140  30.550  41.315  10.586
78767W        W47141   3.807  38.566  12.546
78768W        W47142  13.268  29.012   0.442
78769W        W47143  13.177   0.847   2.806
78770W        W47144  36.035  39.914  13.012
78771W        W47145   4.880  20.259   2.674
78772W        W47146   8.188  23.047   1.790
78773W        W47147  17.194   8.721   1.411
78774W        W47148  28.465   6.711  13.512
78775W        W47149  25.082  36.079   4.224
78776W        W47150  33.087  26.966  14.832
78777W        W47151  37.426  38.517  14.296
78778W        W47152  42.944  24.108   4.170
78779W        W47153  10.846  30.925   0.942
78780W        W47154   4.780  21.657  10.971
78781W        W47155  14.327  31.093   1.399
78782W        W47156  44.849  33.884  13.856
78783W        W47157  44.862   4.215   4.269
78784W        W47158  23.182  22.584  14.909
78785W        W47159  41.812  30.938   2.858
78786W        W47160   0.255  24.643   4.641
78787W        W47161  36.515  22.137   4.253
78788W        W47162  44.400  12.116  12.375
78789W        W47163  32.925   5.193   0.810
78790W        W47164  43.311   9.356   4.340
78791W        W47165  19.241  10.296   0.774
78792W        W47166   7.341  23.696   9.470
78793W        W47167  13.639  25.166   0.734
78794W        W47168  24.503  16.306  14.890
78795W        W47169   0.875  43.373  11.004
78796W        W47170  30.585  31.072   3.299
78797W        W47171  20.206   1.354   0.473
78798W        W47172  23.013  43.818   3.747
78799W        W47173  28.102  20.588   1.427
78800W        W47174  21.038   3.887  11.981
78801W        W47175  28.446  32.954  13.493
78802W        W47176  30.630  11.306   3.230
78803W        W47177  24.004   3.931  14.988
78804W        W47178  19.274   2.424  14.474
78805W        W47179   1.279  34.030  14.023
78806W        W47180  29.989  39.895   3.713
78807W        W47181   5.331  40.507  12.920
78808W        W47182  18.718   0.445  13.820
78809W        W47183  44.832  23.124  13.001
78810W        W47184   8.668  35.892  14.439
78811W        W47185   8.388  13.302  11.004
78812W        W47186  38.563   8.379  12.953
78813W        W47187   0.301  41.929  14.947
78814W        W47188  31.946  43.986  10.465
78815W        W47189  27.612   2.925   2.726
78816W        W47190  24.219  31.934   0.825
78817W        W47191  32.425  31.058  10.444
78818W        W47192  10.210   9.862   2.765
78819W        W47193  18.602   7.175   2.879
78820W        W47194  36.885   9.291   4.630
78821W        W47195  26.637  29.925   4.292
78822W        W47196  37.434  13.333  13.036
78823W        W47197   4.211  30.486  11.508
78824W        W47198  17.721   1.331  13.040
78825W        W47199  30.437  25.086   4.673
78826W        W47200  13.285  18.283  14.459
78827W        W47201  26.477  42.928   3.295
78828W        W47202  26.202   0.284   0.793
78829W        W47203  33.970  24.488   4.746
78830W        W47204  26.192  27.646   2.330
78831W        W47205  31.990  43.288  13.322
78832W        W47206  43.450  25.651  11.911
78833W        W47207  25.995  18.680  10.494
78834W        W47208  18.555   3.385   4.141
78835W        W47209  44.494   7.738  11.043
78836W        W47210  21.715  41.461  14.809
78837W        W47211  40.826  36.557   1.327
78838W        W47212  28.611  16.128  10.611
78839W        W47213  24.043  19.282  11.441
78840W        W47214  39.869  44.399  14.408
78841W        W47215   4.333  43.304   4.184
78842W        W47216  25.163  43.776   0.323
78843W        W47217  36.497  17.667   0.768
78844W        W47218  23.502   7.693   2.745
78845W        W47219  28.654  14.776   3.859
78846W        W47220  37.567  28.087   5.278
78847W        W47221  43.859  23.725  14.362
78848W        W47222  22.559  40.953  11.064
78849W        W47223   0.470  43.847   1.711
78850W        W47224  19.282  37.386  10.531
78851W        W47225  24.121  13.843   4.798
78852W        W47226  44.868  12.677   2.386
78853W        W47227  37.963   6.228   3.273
78854W        W47228  13.113  39.426   4.684
78855W        W47229  34.372  25.103   0.279
78856W        W47230  12.712  33.007   2.848
78857W        W47231   4.447  34.874  12.549
78858W        W47232  19.206  43.462   0.461
78859W        W47233  21.050  27.983  14.338
78860W        W47234   4.206  29.966  13.480
78861W        W47235   5.289  38.991   4.310
78862W        W47236  25.679   4.387   0.288
78863W        W47237  26.023  44.900  11.526
78864W        W47238  18.758  12.354  14.431
78865W        W47239  10.868  40.828   2.766
78866W        W47240   6.898  23.695   9.531
78867W        W47241  34.467  41.526   2.232
78868W        W47242   7.768  25.130   1.766
78869W        W47243  12.725  20.030   3.811
78870W        W47244  26.078   5.360  10.512
78871W        W47245  31.075  34.599   0.881
78872W        W47246  44.970  14.826   2.811
78873W        W47247  21.181  11.347  10.949
78874W        W47248  13.156  31.153  14.808
78875W        W47249  26.025  39.836  13.829
78876W        W47250  42.010  12.630  14.918
78877W        W47251  23.735   5.334  12.052
78878W        W47252   8.766  40.832  13.931
78879W        W47253  41.344  11.641  14.816
78880W        W47254  34.894  38.018  12.437
78881W        W47255  17.586  11.676  13.436
78882W        W47256  40.378  18.650   1.845
78883W        W47257   5.395  44.944  10.432
78884W        W47258  41.535  30.523   1.745
78885W        W47259   9.711  30.912   2.820
78886W        W47260  41.407  33.527   2.384
78887W        W47261  44.980   0.395   4.802
78888W        W47262  37.082   8.318  11.080
78889W        W47263  12.768  33.406  13.547
78890W        W47264  36.903  26.149  12.843
78891W        W47265  23.653  33.888   0.355
78892W        W47266  42.447  32.427   2.760
78893W        W47267  40.900  14.694  11.484
78894W        W47268   0.918  42.023  13.359
78895W        W47269  38.348  11.339  12.378
78896W        W47270  26.544  23.578  11.934
78897W        W47271  18.606   8.895   5.288
78898W        W47272  13.158  42.333  13.388
78899W        W47273  28.069  14.766  12.943
78900W        W47274  38.383  33.447  13.043
78901W        W47275  32.576   8.660  11.876
78902W        W47276  11.133   9.665  13.372
78903W        W47277  30.001  17.742  10.968
78904W        W47278  31.559  29.591  11.551
78905W        W47279  23.036  27.500   0.880
78906W        W47280  12.619  13.261  11.444
78907W        W47281  43.837  24.479  14.450
78908W        W47282  19.116  16.720  12.039
78909W        W47283  23.162  30.052  10.595
78910W        W47284  26.966   0.421  12.339
78911W        W47285  21.741  25.155  13.814
78912W        W47286  11.153  11.661   0.799
78913W        W47287   4.264  29.584  12.978
78914W        W47288  35.499  44.329   4.641
78915W        W47289  42.019  26.469  11.556
78916W        W47290  31.971  42.372  14.369
78917W        W47291  34.518  13.122  12.945
78918W        W47292  41.509  11.702   1.397
78919W        W47293   1.926  38.941  13.329
78920W        W47294  40.326  28.680  14.951
78921W        W47295  41.016  22.656  10.428
78922W        W47296  16.725  42.988  14.452
78923W        W47297  39.033  21.592  11.895
78924W        W47298  41.910  18.256  13.062
78925W        W47299  25.617  30.914   0.404
78926W        W47300  39.488  42.420   0.340
78927W        W47301  26.542  17.272   2.256
78928W        W47302  38.553   7.841   1.335
78929W        W47303  38.982  29.526   4.199
78930W        W47304  26.586  19.697   2.262
78931W        W47305  14.170  33.915  10.502
78932W        W47306  30.552  23.094   3.224
78933W        W47307  39.980  32.502   3.218
78934W        W47308  16.291  23.189   4.277
78935W        W47309  11.302  10.676   0.805
78936W        W47310  32.467   5.779   4.801
78937W        W47311  16.703  27.621  14.887
78938W        W47312   9.309   1.954  12.441
78939W        W47313   0.425  35.454  12.962
78940W        W47314  23.706  11.705   4.189
78941W        W47315  35.076  15.157  12.833
78942W        W47316  44.930  26.130   1.326
78943W        W47317  34.869  31.949  10.620
78944W        W47318  18.590  44.798  12.439
78945W        W47319  24.674  36.009  11.004
78946W        W47320  42.026   3.852   0.811
78947W        W47321  12.738  41.039   0.377
78948W        W47322  41.378  39.483   2.337
78949W        W47323  25.684  37.852  11.560
78950W        W47324  11.242  11.784   0.431
78951W        W47325  32.944  27.140  11.411
78952W        W47326  28.939   5.853  11.538
78953W        W47327  35.100  11.197   2.841
78954W        W47328  28.631  26.979   3.333
78955W        W47329  28.656   2.367  14.341
78956W        W47330  28.118  26.641   1.332
78957W        W47331  12.197  27.162   4.315
78958W        W47332   1.900  24.018   0.324
78959W        W47333   6.408  40.389   3.830
78960W        W47334   6.682  41.951  11.407
78961W        W47335  23.051  25.643  14.486
78962W        W47336  14.788  23.580  12.559
78963W        W47337  41.469  12.724   0.841
78964W        W47338  24.197  40.344   5.159
78965W        W47339  10.712  25.622  11.507
78966W        W47340  12.340  32.575  14.005
78967W        W47341   5.392   0.356   2.228
78968W        W47342  24.130  35.076   4.332
78969W        W47343   8.339  13.284   1.356
78970W        W47344  11.311  35.929   1.265
78971W        W47345  18.732  43.916   3.847
78972W        W47346  29.977  23.063  12.352
78973W        W47347  41.788  36.019  12.868
78974W        W47348  24.501  33.464  14.365
78975W        W47349  36.058  36.052   3.808
78976W        W47350  14.695  26.113   0.896
78977W        W47351   2.789   1.863  13.402
78978W        W47352  28.587  34.919  10.073
78979W        W47353  28.122  23.515  10.154
78980W        W47354  40.400   9.822   0.871
78981W        W47355  34.103  15.125   1.758
78982W        W47356   6.192   3.871  10.117
78983W        W47357  38.398   1.785  14.492
78984W        W47358  23.686  13.266   4.171
78985W        W47359   1.284  41.015  10.505
78986W        W47360   5.887  43.479  11.593
78987W        W47361  24.620   5.306   2.709
78988W        W47362  10.293  22.228   4.648
78989W        W47363  38.860  13.272   3.207
78990W        W47364   6.418  12.709  12.536
78991W        W47365  26.611   7.748  14.878
78992W        W47366  44.780  37.043   2.323
78993W        W47367  19.706   8.790   3.689
78994W        W47368  24.637  21.561   0.905
78995W        W47369   0.972   8.303  13.531
78996W        W47370  27.056   5.892  13.832
78997W        W47371  17.667  38.340  11.478
78998W        W47372  42.821  20.129  12.914
78999W        W47373  32.049   3.442  11.603
79000W        W47374   7.265  25.145   1.243
79001W        W47375  23.016   8.874  13.802
79002W        W47376  41.802  31.549  14.485
79003W        W47377   1.266  14.599   4.777
79004W        W47378  20.101  32.604  14.963
79005W        W47379   3.250  15.134  12.522
79006W        W47380  19.670  18.110   0.466
79007W        W47381  37.048  35.564  13.893
79008W        W47382  21.680  33.477   1.302
79009W        W47383  14.645  41.027   0.812
79010W        W47384  23.676  21.703   3.155
79011W        W47385  33.958  23.666  12.359
79012W        W47386  12.233  33.113   3.178
79013W        W47387  34.405  11.791  14.477
79014W        W47388  18.593  37.406  13.953
79015W        W47389  10.708   2.436  10.439
79016W        W47390  11.215  25.637   3.170
79017W        W47391   7.896  16.613   4.806
79018W        W47392  35.453  30.415   4.278
79019W        W47393   2.896  21.190  13.437
79020W        W47394   3.709  18.779   0.249
79021W        W47395   1.326   7.895  14.894
79022W        W47396  27.527  24.224   2.210
79023W        W47397  39.560  33.588   0.430
79024W        W47398  37.548  13.195   1.400
79025W        W47399  14.825   1.764   1.893
79026W        W47400  30.543  25.162   0.787
79027W        W47401  21.679  29.051  12.359
79028W        W47402  21.025  13.327   4.795
79029W        W47403  37.868   5.414  11.455
79030W        W47404  25.494  29.458  14.283
79031W        W47405  19.708  15.114   2.799
79032W        W47406   7.366   6.266   2.407
79033W        W47407  14.795   3.805  11.424
79034W        W47408   8.770  26.474   1.807
79035W        W47409  24.508   9.835  10.944
79036W        W47410  28.108  30.060  12.973
79037W        W47411  30.146  19.668  12.472
79038W        W47412  19.121   6.291   3.239
79039W        W47413  13.686  35.450  12.002
79040W        W47414  16.164  13.661   0.288
79041W        W47415  16.073  35.916  12.368
79042W        W47416  20.207  42.977  14.884
79043W        W47417  30.042  37.477   3.152
79044W        W47418  43.011  42.914  14.817
79045W        W47419   3.757  29.058   2.189
79046W        W47420  26.505  42.005  11.856
79047W        W47421  31.454  13.196  13.324
79048W        W47422   9.820  36.441   1.411
79049W        W47423   1.904   7.416   4.174
79050W        W47424   1.399  21.156   1.293
79051W        W47425   3.752  32.053  12.034
79052W        W47426  24.196   8.726  10.103
79053W        W47427  37.562  33.017  11.387
79054W        W47428  11.734   5.813  13.795
79055W        W47429   5.317  23.698   9.997
79056W        W47430  32.985  33.974  10.626
79057W        W47431  35.928  17.193  10.997
79058W        W47432  11.770  34.008  12.840
79059W        W47433   1.296  33.985   4.784
79060W        W47434  27.109   0.988  12.073
79061W        W47435  30.050  17.790  14.764
79062W        W47436  12.291  13.326  14.406
79063W        W47437  35.580  30.463   1.786
79064W        W47438  16.678  42.350   2.386
79065W        W47439  35.422  40.997  14.416
79066W        W47440  21.091  39.864   5.166
79067W        W47441   4.748  40.353  11.481
79068W        W47442  12.352   9.181  14.443
79069W        W47443  20.747  17.155   0.957
79070W        W47444  12.140  42.450   0.442
79071W        W47445  29.949   9.710  13.334
79072W        W47446  10.785  40.482  14.929
79073W        W47447  35.074  23.594  13.905
79074W        W47448  15.194   7.288  14.025
79075W        W47449  33.599  26.581   1.404
79076W        W47450  41.967  30.911   0.284
79077W        W47451  25.146  32.005   0.434
79078W        W47452   3.803  34.381   2.896
79079W        W47453  43.445  11.145   0.915
79080W        W47454  44.430  13.244   3.304
79081W        W47455  12.247   3.891   2.362
79082W        W47456  37.494   0.489   0.735
79083W        W47457  17.799   9.296  12.377
79084W        W47458  18.181  20.610   2.258
79085W        W47459  36.422  13.657  14.865
79086W        W47460   4.849  32.108  14.969
79087W        W47461  17.063   1.810  12.950
79088W        W47462  36.037   1.465  10.999
79089W        W47463  35.373   2.392   4.750
79090W        W47464  34.509   8.752   1.880
79091W        W47465   7.687   3.346  11.955
79092W        W47466  10.720   5.884   0.423
79093W        W47467   5.234   8.814  13.365
79094W        W47468   7.258  20.029  14.437
79095W        W47469  12.206  21.132  11.445
79096W        W47470  37.020  24.109  12.998
79097W        W47471   1.933  36.050  11.442
79098W        W47472  13.759   8.704   4.738
79099W        W47473  18.073  23.507   1.716
79100W        W47474  30.165  13.174   4.670
79101W        W47475  34.112  12.277  10.969
79102W        W47476   8.794  12.136  11.508
79103W        W47477  29.462  12.116  11.879
79104W        W47478   7.700  26.174  13.032
79105W        W47479   4.742  42.971  12.923
79106W        W47480   2.261  11.746  11.419
79107W        W47481  40.049  28.101   2.677
79108W        W47482   4.699  24.002  10.455
79109W        W47483   5.343   0.394  11.386
79110W        W47484  26.597  41.297   0.333
79111W        W47485  31.126   5.430   2.192
79112W        W47486  28.501   1.439   0.946
79113W        W47487  17.255  35.585   3.869
79114W        W47488  36.459  10.375   4.260
79115W        W47489   6.685  14.721  12.358
79116W        W47490  42.897   1.357  11.520
79117W        W47491   6.825  34.045  11.422
79118W        W47492  35.997  24.637  14.879
79119W        W47493  11.731  11.780   3.187
79120W        W47494   6.762  33.435  13.522
79121W        W47495  22.190  40.811   0.441
79122W        W47496  41.005   0.468  13.835
79123W        W47497  15.296  30.122   1.851
79124W        W47498   8.323  15.666   2.341
79125W        W47499   0.867  19.226   3.345
79126W        W47500  13.201  19.587   3.184
79127W        W47501  36.940   8.901   2.894
79128W        W47502  10.698  11.153   0.925
79129W        W47503  29.455   3.235   2.812
79130W        W47504  20.630  10.163   1.791
79131W        W47505  11.249  36.036   4.695
79132W        W47506  20.121   4.294  13.347
79133W        W47507  21.662  16.582   4.280
79134W        W47508  29.127  10.662  13.462
79135W        W47509  32.914  44.881  10.483
79136W        W47510  22.677  24.146   4.742
79137W        W47511  18.226  16.759   0.342
79138W        W47512   5.291  33.479   4.688
79139W        W47513  44.293  24.012  10.023
79140W        W47514  38.999  38.029   4.258
79141W        W47515   3.401  15.808   1.446
79142W        W47516  23.547  34.409  12.378
79143W        W47517   3.435  30.581   0.270
79144W        W47518  13.764  21.728  14.486
79145W        W47519   8.719  26.024  11.905
79146W        W47520  19.767   9.153  13.341
79147W        W47521  23.609   9.173   0.858
79148W        W47522   9.684   4.798   4.685
79149W        W47523  14.791  19.202  13.000
79150W        W47524  30.586   8.359   0.825
79151W        W47525   9.258  38.886   1.294
79152W        W47526  44.277  16.285   2.871
79153W        W47527   5.701  32.074   4.211
79154W        W47528  39.915  32.923   0.862
79155W        W47529  41.293  34.973   1.371
79156W        W47530  27.194  24.042  13.483
79157W        W47531  37.889  39.983  13.496
79158W        W47532  31.982  24.173   2.309
79159W        W47533   7.712   7.678   2.749
79160W        W47534  39.518   9.801   3.309
79161W        W47535  17.261  28.165  10.119
79162W        W47536  40.964  24.602   2.186
79163W        W47537   2.360  29.436   5.249
79164W        W47538  24.606  29.536   5.584
79165W        W47539  37.350   8.736   9.984
79166W        W47540  25.123  27.629   3.791
79167W        W47541  33.038  22.016   1.317
79168W        W47542  21.089  18.618   5.171
79169W        W47543  27.094  18.155   4.277
79170W        W47544  43.339   3.804   3.662
79171W        W47545  28.562  22.077   3.381
79172W        W47546  14.174  33.059  14.848
79173W        W47547  31.512  15.296   2.188
79174W        W47548  21.736   0.760  10.409
79175W        W47549  40.509  39.018   2.815
79176W        W47550  23.599  30.043  11.528
79177W        W47551  28.644  22.084  10.425
79178W        W47552  42.862   9.668   1.280
79179W        W47553  15.712   1.405  13.480
79180W        W47554  44.400  44.443   3.311
79181W        W47555   9.846  31.489  13.832
79182W        W47556   3.950  13.153   3.162
79183W        W47557  12.710  10.298  13.930
79184W        W47558   6.862  43.991  11.587
79185W        W47559  18.253  12.164  13.914
79186W        W47560  32.474   7.238   4.625
79187W        W47561  10.173  30.006   4.272
79188W        W47562  14.817   1.434  13.878
79189W        W47563  26.003   0.948  11.503
79190W        W47564  13.606  34.469   1.697
79191W        W47565   4.751  19.704  12.403
79192W        W47566   7.892   7.708  12.077
79193W        W47567  16.105   8.831   9.602
79194W        W47568   3.321  26.676   4.305
79195W        W47569  42.881  16.594  11.933
79196W        W47570  40.460  32.017   4.632
79197W        W47571  44.378  13.154   2.308
79198W        W47572   9.274  42.312  11.902
79199W        W47573  38.450   0.762  14.357
79200W        W47574  24.560  35.521  10.970
79201W        W47575   4.297  25.010  14.494
79202W        W47576  22.596   8.777  14.352
79203W        W47577   8.199  31.091   1.300
79204W        W47578  12.179  40.996  13.948
79205W        W47579   5.776  26.677  14.861
79206W        W47580  20.215  35.011   0.282
79207W        W47581   8.695   1.901   1.238
79208W        W47582  33.464  31.969  13.359
79209W        W47583  39.433  44.450  10.494
79210W        W47584  14.318  39.327  11.576
79211W        W47585  32.613  19.234   0.477
79212W        W47586  16.775   5.303   0.376
79213W        W47587  29.921  30.012  14.461
79214W        W47588  43.781  34.467   3.822
79215W        W47589  30.948  28.942   3.811
79216W        W47590   6.863  15.607   4.613
79217W        W47591  38.485  11.151  12.905
79218W        W47592  42.916  24.029  11.084
79219W        W47593  39.934   0.954  13.016
79220W        W47594   7.195   8.805   3.687
79221W        W47595  29.098  17.166   1.833
79222W        W47596   7.819  10.257  11.904
79223W        W47597  10.703  34.011   3.291
79224W        W47598   8.756  44.935   2.291
79225W        W47599  15.698  33.044   1.268
79226W        W47600  27.602  10.329   1.909
79227W        W47601  43.453  43.385   2.897
79228W        W47602  14.128   5.422  14.945
79229W        W47603  29.642  10.242   4.121
79230W        W47604  27.504  41.907   3.300
79231W        W47605   6.765  37.398  12.883
79232W        W47606  20.157  36.455  10.414
79233W        W47607   3.846  29.085  12.909
79234W        W47608   3.830  34.883  13.448
79235W        W47609  32.928   6.757   4.201
79236W        W47610   8.677  28.042  13.446
79237W        W47611  19.709   5.239   2.230
79238W        W47612  44.456  11.236   3.771
79239W        W47613  33.940  41.490  11.390
79240W        W47614  18.741  40.416   0.475
79241W        W47615  28.048  14.643   4.608
79242W        W47616  37.512  29.140   1.224
79243W        W47617  21.606  18.580  10.906
79244W        W47618  25.496  37.924  11.984
79245W        W47619  17.186  41.518   3.148
79246W        W47620  29.933  16.301  12.537
79247W        W47621  39.501   4.781  14.909
79248W        W47622  26.694   1.279  11.563
79249W        W47623  33.092  12.800  11.875
79250W        W47624   0.800  13.253   3.367
79251W        W47625  44.824  10.830  12.052
79252W        W47626   8.845  23.209   1.263
79253W        W47627  11.792  18.075  10.448
79254W        W47628  26.085  21.019  10.617
79255W        W47629  24.490  36.854  13.365
79256W        W47630  27.630   5.432   1.860
79257W        W47631   0.812  21.721   1.880
79258W        W47632  39.971   5.399  14.515
79259W        W47633  37.457  16.156   4.290
79260W        W47634  17.186  37.532  10.601
79261W        W47635  19.195  15.609  12.016
79262W        W47636   5.894  20.042   0.345
79263W        W47637  27.965   5.421  10.452
79264W        W47638  27.152  35.911  14.774
79265W        W47639  11.340   3.275   0.366
79266W        W47640  31.982  19.634   0.348
79267W        W47641  23.501   5.295  14.504
79268W        W47642   1.325  32.978  11.476
79269W        W47643   7.175  38.065  14.376
79270W        W47644  20.100   4.301  14.932
79271W        W47645   2.875   6.423  12.079
79272W        W47646  19.239   3.415   0.828
79273W        W47647  34.950  27.446  12.873
79274W        W47648  39.985  34.386   0.337
79275W        W47649  24.005   8.226   1.365
79276W        W47650  29.598  20.768  14.387
79277W        W47651  17.294   2.877  12.907
79278W        W47652  15.097  10.274  10.894
79279W        W47653   3.731  16.312  11.408
79280W        W47654  44.276   0.929  13.871
79281W        W47655   2.330  32.503   2.263
79282W        W47656   0.857  12.769  10.936
79283W        W47657  27.534  13.755   0.803
79284W        W47658  32.581  13.174   2.817
79285W        W47659  21.662  43.838  12.034
79286W        W47660   6.320  25.006   4.194
79287W        W47661  21.531  42.851   3.332
79288W        W47662  12.204  12.171  10.558
79289W        W47663  35.426  17.141  10.552
79290W        W47664  23.155   9.256  13.917
79291W        W47665  10.811   9.347  12.567
79292W        W47666  14.803  18.143   0.411
79293W        W47667  17.119  21.172   2.716
79294W        W47668  37.857  30.116   2.345
79295W        W47669  43.275  18.109  14.297
79296W        W47670  24.511  39.868  12.374
79297W        W47671  15.216  22.126  13.495
79298W        W47672   7.333  20.736   5.203
79299W        W47673  23.556  20.535  11.516
79300W        W47674  21.032  31.490   4.229
79301W        W47675  11.830   1.240  10.622
79302W        W47676   7.784  41.803  13.998
79303W        W47677  32.391   6.867  13.864
79304W        W47678   2.918  23.688  11.856
79305W        W47679   2.906  16.107  13.404
79306W        W47680  41.025   2.362   3.303
79307W        W47681  38.853  33.561   3.373
79308W        W47682  18.268  29.468   2.744
79309W        W47683  26.695   7.332   1.748
79310W        W47684  38.417   6.827   0.264
79311W        W47685  35.043  19.774   1.829
79312W        W47686  36.381  39.503   4.648
79313W        W47687  43.497  29.627  10.469
79314W        W47688  35.425  27.536  13.548
79315W        W47689  23.009  28.440  14.006
79316W        W47690  14.715  24.527   1.780
79317W        W47691  43.381  32.514   0.423
79318W        W47692   2.735   5.256   4.679
79319W        W47693  29.093  16.794  10.431
79320W        W47694  11.135  35.391  13.539
79321W        W47695  13.247  38.837   2.333
79322W        W47696  26.962  41.536  13.938
79323W        W47697  10.280  15.298   3.323
79324W        W47698   7.810   7.714   0.945
79325W        W47699   5.391  44.314   2.704
79326W        W47700  31.411  29.484   4.654
79327W        W47701  27.956  10.791   1.884
79328W        W47702   2.230  42.521   1.421
79329W        W47703  16.727   9.798   0.299
79330W        W47704  22.109  35.376   1.761
79331W        W47705   0.967   3.218  13.908
79332W        W47706  43.878  20.661   1.322
79333W        W47707   9.736  16.628   3.826
79334W        W47708  37.079  42.915   2.209
79335W        W47709  30.639  22.566  12.884
79336W        W47710  20.262  28.936   2.893
79337W        W47711  40.397  40.899   4.344
79338W        W47712  24.121  16.777  14.408
79339W        W47713  39.053   8.757   1.908
79340W        W47714  11.319  24.009  11.931
79341W        W47715  19.770  26.568  12.041
79342W        W47716  21.031  22.055  10.609
79343W        W47717   2.829  14.256  11.545
79344W        W47718  44.425  34.088   1.911
79345W        W47719   7.205  30.651   0.947
79346W        W47720  15.244  25.183   0.333
79347W        W47721  38.351   0.441   4.293
79348W        W47722  28.051   5.438   2.673
79349W        W47723  10.852  32.491   3.349
79350W        W47724  27.518  18.547  14.961
79351W        W47725  11.685  11.743  10.520
79352W        W47726  19.068  14.180   1.896
79353W        W47727  39.925  43.017  11.915
79354W        W47728   7.285  18.786   9.550
79355W        W47729  42.441   8.828  12.410
79356W        W47730  22.723   7.284   0.906
79357W        W47731  11.771  44.848   3.329
79358W        W47732  41.891  38.507   3.325
79359W        W47733  34.054  25.012  13.973
79360W        W47734  40.321  22.586   3.771
79361W        W47735  28.133  25.079   9.997
79362W        W47736  35.377  15.087  11.091
79363W        W47737   2.245  38.890   2.729
79364W        W47738  15.606  44.376   4.299
79365W        W47739  23.552   2.342   4.303
79366W        W47740   7.698   8.287  12.853
79367W        W47741   4.918   8.676   3.381
79368W        W47742  24.066   4.923  13.315
79369W        W47743  40.856  33.592   3.316
79370W        W47744  38.451  11.180   1.709
79371W        W47745  37.439  32.106  13.937
79372W        W47746   0.365   7.731  11.026
79373W        W47747  23.595  11.348  13.496
79374W        W47748  12.724  14.097   2.200
79375W        W47749   2.896  22.519  14.829
79376W        W47750  27.113  26.082  12.482
79377W        W47751  32.429  37.036   3.855
79378W        W47752  39.986  18.559   1.211
79379W        W47753  29.483   1.977  12.395
79380W        W47754  26.504  11.796   3.662
79381W        W47755   3.359  33.451   2.245
79382W        W47756  38.558  16.081   3.201
79383W        W47757  25.472  41.293   0.299
79384W        W47758   7.362   8.856  13.972
79385W        W47759  29.558  18.126   0.834
79386W        W47760  26.005   0.921   4.626
79387W        W47761   1.834  31.121   3.733
79388W        W47762  41.906  21.175   4.187
79389W        W47763  17.114   6.405  10.150
79390W        W47764  12.816  24.101  12.898
79391W        W47765  22.232  13.256  12.071
79392W        W47766  16.077  20.266   2.724
79393W        W47767   9.343  18.165   2.248
79394W        W47768  16.280   5.383   2.215
79395W        W47769  41.454   7.265   3.377
79396W        W47770  20.182  14.153   4.803
79397W        W47771   4.930  13.229   4.694
79398W        W47772  40.447  42.801   3.732
79399W        W47773   2.880  18.685   4.126
79400W        W47774  34.425  11.706   0.290
79401W        W47775  16.664   2.331  11.524
79402W        W47776  26.124  15.781   0.431
79403W        W47777  16.096  10.198  13.895
79404W        W47778  26.164  30.153   4.341
79405W        W47779  25.696  11.324   2.408
79406W        W47780   7.786  25.697  12.412
79407W        W47781   6.708   8.334   4.195
79408W        W47782  18.134  26.085   4.821
79409W        W47783  16.681   3.399   2.184
79410W        W47784  22.168  14.206   3.667
79411W        W47785   6.269  10.647  11.892
79412W        W47786  15.813  13.342   4.313
79413W        W47787   8.281   3.781   0.392
79414W        W47788  31.405  16.237  12.359
79415W        W47789  18.641   3.380   2.264
79416W        W47790   6.230  21.712   1.694
79417W        W47791  20.184  43.454  10.584
79418W        W47792   8.281  42.443   4.825
79419W        W47793  26.107   0.899   2.798
79420W        W47794  28.620  25.632  12.069
79421W        W47795  21.135  28.130  12.062
79422W        W47796   2.253  28.026  10.430
79423W        W47797  20.632  44.297  13.024
79424W        W47798   0.321  37.995   3.313
79425W        W47799   6.338  34.045   2.400
79426W        W47800  38.904  21.134  14.514
79427W        W47801  16.662  29.165   2.354
79428W        W47802  13.735  10.696   2.745
79429W        W47803  19.537  10.314  11.995
79430W        W47804  16.108  26.992   4.152
79431W        W47805  16.200  29.028  13.523
79432W        W47806  40.371  40.321   3.331
79433W        W47807  22.589  32.465   9.934
79434W        W47808   9.329  26.559   4.799
79435W        W47809   9.352  34.945  11.881
79436W        W47810  42.872  21.171  10.022
79437W        W47811  40.985   1.256   1.347
79438W        W47812   6.331   9.283   2.376
79439W        W47813  29.554   6.901  10.407
79440W        W47814  20.077  25.116  14.020
79441W        W47815  17.614  29.461   1.388
79442W        W47816  41.786   0.275  12.824
79443W        W47817  15.768  13.254   4.671
79444W        W47818  10.303  13.633  13.054
79445W        W47819  24.623  43.787   2.401
79446W        W47820  22.634   7.175   2.803
79447W        W47821  24.219   0.979  14.961
79448W        W47822   2.776  44.498   1.392
79449W        W47823  15.123  33.132  11.426
79450W        W47824   6.797  22.197  14.298
79451W        W47825  27.690   6.369  10.479
79452W        W47826  27.144   3.868  10.990
79453W        W47827  21.723   1.764  14.887
79454W        W47828  44.761  41.023  12.961
79455W        W47829  44.886  19.741  12.049
79456W        W47830  27.457  28.964   4.694
79457W        W47831  31.407   2.967  10.896
79458W        W47832   0.821  18.062   2.362
79459W        W47833   7.888  40.378  12.443
79460W        W47834  17.114  26.032   3.773
79461W        W47835  23.527   2.832   1.375
79462W        W47836  14.123  25.036  11.519
79463W        W47837   9.857  31.618   3.633
79464W        W47838   4.797  33.091   1.422
79465W        W47839  18.615  27.458  12.435
79466W        W47840  34.046  28.093   1.285
79467W        W47841  31.410  29.460   2.263
79468W        W47842   6.266  34.033   1.437
79469W        W47843  22.624  11.696  14.790
79470W        W47844  32.903  14.137  14.290
79471W        W47845   0.370  12.290   2.207
79472W        W47846  33.414  17.189  14.957
79473W        W47847  25.154  19.150   3.715
79474W        W47848  20.188  33.018  10.419
79475W        W47849   1.319  15.288  14.863
79476W        W47850  12.735  31.063   1.355
79477W        W47851  14.129  29.112  10.922
79478W        W47852  32.396  27.046   2.779
79479W        W47853  25.034   0.976   2.867
79480W        W47854  26.693  10.664  14.984
79481W        W47855  41.971  19.677   0.867
79482W        W47856  27.573  31.126  13.026
79483W        W47857  24.598  19.742   3.211
79484W        W47858   5.929  19.183  11.426
79485W        W47859  28.570  29.164   3.730
79486W        W47860   4.296  37.888  12.831
79487W        W47861  29.176   0.898   4.265
79488W        W47862   4.313  25.195  11.872
79489W        W47863  25.112  27.004   2.251
79490W        W47864   1.478   3.368  13.398
79491W        W47865  27.184  14.274   4.688
79492W        W47866  15.205  29.138  12.040
79493W        W47867   2.867  44.466  11.415
79494W        W47868  27.482  34.561  14.901
79495W        W47869  38.901   5.390  14.945
79496W        W47870  31.433  30.998  14.913
79497W        W47871  17.559  37.062   1.267
79498W        W47872  14.310  24.174  10.969
79499W        W47873  42.478  10.724  13.927
79500W        W47874   8.745  39.042   3.163
79501W        W47875  14.202  16.688  11.591
79502W        W47876  13.299  18.765   1.370
79503W        W47877  33.029  13.833  11.031
79504W        W47878  43.391  24.507   4.222
79505W        W47879  19.113  17.195  14.764
79506W        W47880   2.872  42.963   1.371
79507W        W47881   0.823  23.201   0.965
79508W        W47882  43.859   4.431   1.905
79509W        W47883   1.268  21.703  14.814
79510W        W47884  43.980  31.583   2.406
79511W        W47885   7.741  41.913   0.903
79512W        W47886  10.353  17.113  12.522
79513W        W47887  26.144  31.024   3.385
79514W        W47888  36.019  27.686   1.799
79515W        W47889  34.598  36.885  11.594
79516W        W47890  41.321   7.896   1.440
79517W        W47891  31.943  38.022  14.895
79518W        W47892   8.774  34.931   1.864
79519W        W47893  20.158  13.147   3.653
79520W        W47894  23.223  15.759   3.712
79521W        W47895  13.294   2.799  11.447
79522W        W47896  16.106  11.197   2.344
79523W        W47897  35.520   2.336  12.960
79524W        W47898  39.925  24.725  11.436
79525W        W47899  17.661   9.176   1.268
79526W        W47900  23.053  27.023  14.001
79527W        W47901  15.630  16.153   3.168
79528W        W47902  32.893  39.549  12.971
79529W        W47903  43.825   1.436  10.952
79530W        W47904  21.046  17.653   4.141
79531W        W47905  12.173  33.409  10.456
79532W        W47906  24.692   0.838  14.885
79533W        W47907  20.561  40.535  13.432
79534W        W47908  42.511   6.260  10.947
79535W        W47909  15.281   8.844   3.718
79536W        W47910   3.391  38.403  12.962
79537W        W47911   3.397  17.712  12.839
79538W        W47912  10.718   9.643   0.946
79539W        W47913  14.784   6.329   0.754
79540W        W47914  41.796  30.627  12.461
79541W        W47915  16.617  25.713   3.765
79542W        W47916  11.287  33.014   0.301
79543W        W47917   4.315  40.965  14.382
79544W        W47918  14.209   9.356   3.198
79545W        W47919  25.214   5.373  11.859
79546W        W47920  19.727  35.030   1.803
79547W        W47921   2.272  18.173  12.028
79548W        W47922  12.269  30.080   1.746
79549W        W47923   2.747  15.806  14.879
79550W        W47924  21.129   8.713   4.755
79551W        W47925  34.989  31.411   2.329
79552W        W47926  28.559   1.240   9.950
79553W        W47927   8.765  23.634  14.842
79554W        W47928  38.551  35.565   2.407
79555W        W47929  16.596  32.498   0.473
79556W        W47930  34.453  25.620   2.189
79557W        W47931  24.154  32.944   0.301
79558W        W47932  15.275  22.251   4.168
79559W        W47933  10.740  13.737   1.788
79560W        W47934   9.187  23.506  13.487
79561W        W47935  25.101  25.143   1.703
79562W        W47936  34.943  19.190   2.372
79563W        W47937  12.675  43.019   4.788
79564W        W47938  40.495  20.158   2.675
79565W        W47939  36.458  31.552   0.460
79566W        W47940  28.581   9.758  12.022
79567W        W47941  14.307  38.494  11.402
79568W        W47942  20.178  40.541   3.771
79569W        W47943  32.063  37.048   4.286
79570W        W47944  32.894  12.667   3.208
79571W        W47945  32.114  11.241   2.291
79572W        W47946  35.992  22.537  14.354
79573W        W47947  38.544  31.624   2.405
79574W        W47948  24.705  44.965  13.424
79575W        W47949  40.355  35.048   1.425
79576W        W47950  24.222  35.907  14.345
79577W        W47951  40.043  39.932  14.812
79578W        W47952  33.922  25.479   1.355
79579W        W47953  12.673  27.144  12.838
79580W        W47954  25.170  33.019  11.089
79581W        W47955  24.661   3.373  14.028
79582W        W47956  39.845  27.960  12.079
79583W        W47957  15.671  29.050  12.371
79584W        W47958  21.043  28.119   2.730
79585W        W47959  42.281  32.975   4.192
79586W        W47960  30.063  36.966  12.984
79587W        W47961  18.296  24.059   2.298
79588W        W47962  41.973  41.991   1.325
79589W        W47963  22.226   0.845   2.869
79590W        W47964  38.561  22.031   0.379
79591W        W47965  12.257  36.068  14.364
79592W        W47966  38.896  28.066  14.464
79593W        W47967  33.480  21.208   5.258
79594W        W47968   6.705  13.226   4.799
79595W        W47969  35.405   1.847   1.784
79596W        W47970  41.514   8.674  11.911
79597W        W47971  44.765  12.116  12.941
79598W        W47972   7.881  22.032   3.651
79599W        W47973  12.247  43.475  12.508
79600W        W47974   5.312  13.802   3.213
79601W        W47975  27.532   6.723   3.740
79602W        W47976  24.060  39.347   2.763
79603W        W47977  24.085  39.372   0.854
79604W        W47978  20.655  13.603   0.339
79605W        W47979  35.461  44.441  11.431
79606W        W47980  19.153   7.220  11.088
79607W        W47981  12.714  28.084  14.433
79608W        W47982  18.054  15.231   2.298
79609W        W47983  41.507  17.583   1.267
79610W        W47984  36.015   2.269   0.300
79611W        W47985  33.393  28.938   0.765
79612W        W47986  32.517  16.316   4.218
79613W        W47987   8.358  42.292  13.974
79614W        W47988  13.660  12.730  11.476
79615W        W47989  25.571  36.994   2.254
79616W        W47990   7.807  40.489   4.624
79617W        W47991  38.010  22.580  10.914
79618W        W47992   8.222   2.774   0.382
79619W        W47993  33.421  34.908   2.350
79620W        W47994  31.457  33.557   3.234
79621W        W47995  17.691   5.418   0.958
79622W        W47996  15.305  41.886  13.898
79623W        W47997  21.249  24.626  10.598
79624W        W47998  43.013  32.134   2.332
79625W        W47999  42.929  10.327  14.396
79626W        W48000  32.074  43.921  14.346
79627W        W48001  30.125  14.271   1.284
79628W        W48002  23.020  16.300   9.993
79629W        W48003  42.853  22.191   1.367
79630W        W48004  38.461  29.078   0.305
79631W        W48005  36.351  35.433   1.301
79632W        W48006  40.962  41.814   4.322
79633W        W48007   3.274  15.281   4.297
79634W        W48008  27.648  24.542  11.948
79635W        W48009   5.845  37.489  10.138
79636W        W48010  12.784   7.250   0.264
79637W        W48011   6.219  15.276   4.149
79638W        W48012  22.079  17.730   0.309
79639W        W48013   7.227  15.743  12.093
79640W        W48014  24.022  17.766   4.782
79641W        W48015  27.493  19.105   2.696
79642W        W48016  16.317  10.172  12.010
79643W        W48017  37.034  12.822   0.356
79644W        W48018  20.578   8.717  12.471
79645W        W48019  22.160   8.376   3.653
79646W        W48020  39.819  21.261   3.372
79647W        W48021   6.785  29.440  10.123
79648W        W48022  42.420  12.326   2.205
79649W        W48023  16.791   7.328  14.355
79650W        W48024  12.751  21.713   4.321
79651W        W48025   0.812  39.416   2.749
79652W        W48026  23.670  28.971   3.255
79653W        W48027   6.897  36.408   2.773
79654W        W48028  41.411  28.584  11.375
79655W        W48029   3.294  20.243   4.213
79656W        W48030  25.022  26.509  13.469
79657W        W48031  38.469   2.368   0.737
79658W        W48032  22.519  15.774  14.774
79659W        W48033  16.120  34.065   1.334
79660W        W48034  36.997  13.843   3.788
79661W        W48035   1.311  36.393  11.093
79662W        W48036  15.618  40.540   5.105
79663W        W48037   9.746  36.952   2.279
79664W        W48038  12.124  44.815   3.235
79665W        W48039  44.829  23.239  13.396
79666W        W48040  41.867  40.983   1.376
79667W        W48041  34.969  32.400  14.435
79668W        W48042  18.238  22.650   4.618
79669W        W48043   3.729  27.461  10.904
79670W        W48044   3.314   6.423   5.241
79671W        W48045  43.876  31.612   0.836
79672W        W48046  15.296  30.648   2.316
79673W        W48047  29.046  24.229  13.522
79674W        W48048  41.931  31.121  10.961
79675W        W48049  34.112   1.400  10.997
79676W        W48050  40.047  13.716   3.711
79677W        W48051   0.409  41.877  12.567
79678W        W48052  43.323  43.505  14.940
79679W        W48053  35.096  35.925  13.414
79680W        W48054  24.120  28.100  11.086
79681W        W48055   2.918  33.554   2.879
79682W        W48056  28.942  11.772  14.339
79683W        W48057  40.448  28.548   3.321
79684W        W48058  33.380  27.457   0.829
79685W        W48059  23.216  12.813   3.222
79686W        W48060  14.712  16.620   0.255
79687W        W48061  37.423  28.665   3.761
79688W        W48062  36.073  21.605   3.807
79689W        W48063   1.279  29.458  11.991
79690W        W48064  20.614  22.676   0.773
79691W        W48065   7.193  37.532  13.980
79692W        W48066  39.008  21.152  13.900
79693W        W48067   9.263   1.784   0.432
79694W        W48068   5.399   6.682  11.587
79695W        W48069  24.004  35.955  11.391
79696W        W48070  37.360   1.450   2.680
79697W        W48071  23.632  44.820  12.552
79698W        W48072   1.909  11.789  11.865
79699W        W48073  38.473  21.628  10.595
79700W        W48074   6.717   8.294  14.877
79701W        W48075  15.156  24.160   1.707
79702W        W48076  30.106  14.597  14.446
79703W        W48077  44.474  12.699  13.042
79704W        W48078  33.499  29.434  11.034
79705W        W48079  32.483  29.959   3.232
79706W        W48080  37.867  34.109   4.256
79707W        W48081  38.357   7.247   3.810
79708W        W48082  22.687  12.346  11.063
79709W        W48083  12.789  41.307   2.375
79710W        W48084  14.234  26.550  14.403
79711W        W48085  14.808   3.261  10.569
79712W        W48086  25.691  13.350  11.867
79713W        W48087   3.336   4.859  14.783
79714W        W48088  17.300  17.733   1.333
79715W        W48089   1.345  26.016  10.904
79716W        W48090   1.451   4.406   3.748
79717W        W48091  20.052  39.466   3.644
79718W        W48092  28.649  31.125  14.366
79719W        W48093   2.459   2.822  11.024
79720W        W48094  11.724  35.377  11.384
79721W        W48095  36.039  39.910  10.629
79722W        W48096  36.568  19.127   3.271
79723W        W48097  11.706  16.742  14.305
79724W        W48098  30.503   2.409   1.385
79725W        W48099   2.773  10.784   4.320
79726W        W48100   0.831  22.547  13.341
79727W        W48101  10.381  15.210   1.903
79728W        W48102  10.823   6.211  12.537
79729W        W48103  19.677  18.589   4.126
79730W        W48104  40.307  39.410  10.511
79731W        W48105   5.262  16.699   4.345
79732W        W48106  24.606  38.430   1.858
79733W        W48107  21.713  37.949   4.265
79734W        W48108  26.104  42.837   0.269
79735W        W48109  10.762   7.736  10.433
79736W        W48110  41.303  21.712   3.671
79737W        W48111  12.309  43.324  10.891
79738W        W48112   8.193   2.338   4.617
79739W        W48113  40.431  36.039   0.921
79740W        W48114  18.623  10.314  10.437
79741W        W48115  10.678  42.988  12.574
79742W        W48116  31.900  35.089  13.816
79743W        W48117  17.587  15.225  14.347
79744W        W48118  11.791   6.340  10.465
79745W        W48119  33.419  24.171   1.886
79746W        W48120  41.913  34.872   0.285
79747W        W48121  44.952   3.263  11.977
79748W        W48122  24.632   8.875  11.542
79749W        W48123  33.008  16.248   4.813
79750W        W48124  24.559  23.201  14.316
79751W        W48125  38.052  32.049  12.419
79752W        W48126  44.311  12.761   2.382
79753W        W48127  20.186  44.486  10.109
79754W        W48128  19.206   5.882  14.456
79755W        W48129  14.626   1.411  14.820
79756W        W48130  41.525  13.844  12.983
79757W        W48131  28.437  29.948   1.312
79758W        W48132  39.506  39.931  12.526
79759W        W48133  44.326  27.069  14.782
79760W        W48134   1.917  33.962   3.743
79761W        W48135  32.605  38.365  12.553
79762W        W48136  39.427  12.741   3.342
79763W        W48137  22.253   1.919   0.908
79764W        W48138   7.214  33.067  10.901
79765W        W48139   7.785  20.087   2.377
79766W        W48140  44.401  26.530   0.911
79767W        W48141  10.165  34.386  11.113
79768W        W48142  25.630   1.265  13.513
79769W        W48143  17.085   9.747  14.383
79770W        W48144   3.942  33.971  11.534
79771W        W48145  18.260  15.160  14.015
79772W        W48146  11.220  25.582   2.844
79773W        W48147   3.775  28.604  13.309
79774W        W48148  19.711  23.164   4.263
79775W        W48149  40.410  22.643   0.342
79776W        W48150  35.945  19.626   3.681
79777W        W48151  40.516  39.936  12.517
79778W        W48152  17.137  20.637  13.916
79779W        W48153   7.875  40.828   2.809
79780W        W48154  27.623  17.307   2.815
79781W        W48155  23.572  29.456   3.855
79782W        W48156   8.260  32.952   1.321
79783W        W48157  10.143  35.420   3.776
79784W        W48158  39.036  29.626   1.885
79785W        W48159  33.129  28.588  11.509
79786W        W48160  25.619  21.195   2.737
79787W        W48161  10.142  19.097   0.806
79788W        W48162   4.447  15.283   0.474
79789W        W48163  38.958  10.306  14.814
79790W        W48164  39.560   5.729   0.264
79791W        W48165  31.907  23.101   3.854
79792W        W48166  13.219  27.613   0.757
79793W        W48167  21.082  39.859   4.130
79794W        W48168   6.302  10.798  12.494
79795W        W48169   6.211   3.391   1.820
79796W        W48170  41.920  35.996  13.804
79797W        W48171  12.292  19.591   0.332
79798W        W48172  35.511   0.746   1.759
79799W        W48173   9.261   2.456   3.299
79800W        W48174  30.126  43.996  14.341
79801W        W48175   9.387  24.976   4.612
79802W        W48176   9.244  13.715  13.444
79803W        W48177   2.820  12.284   3.839
79804W        W48178  23.679  14.724   0.438
79805W        W48179  16.172  15.750  14.341
79806W        W48180  25.175   7.834   0.925
79807W        W48181  15.096  37.934  11.068
79808W        W48182  29.500  12.229  13.878
79809W        W48183  23.053  40.457  10.036
79810W        W48184  29.055  14.590   1.254
79811W        W48185  33.453  21.262   1.707
79812W        W48186   4.811   5.414   3.328
79813W        W48187   9.772  41.351  12.495
79814W        W48188  19.658  42.396  12.468
79815W        W48189  34.089  27.132  12.465
79816W        W48190  35.098  32.595   3.680
79817W        W48191  41.936  28.110   0.726
79818W        W48192  34.884  44.481  12.030
79819W        W48193  26.985  44.311  14.388
79820W        W48194  14.301  13.204  11.112
79821W        W48195   7.727  36.508  12.441
79822W        W48196   1.867  35.084   1.851
79823W        W48197  44.351   2.828   5.174
79824W        W48198  36.423  20.588  13.988
79825W        W48199  36.053  41.365   2.879
79826W        W48200  11.836  20.037   4.677
79827W        W48201  27.493  29.058  12.936
79828W        W48202   8.868  27.132  11.109
79829W        W48203  34.948  10.773  14.898
79830W        W48204  26.702  30.998  11.502
79831W        W48205  21.610  34.581  13.913
79832W        W48206  12.781  29.133   1.355
79833W        W48207  12.321  25.652  13.965
79834W        W48208  31.114  19.765  13.870
79835W        W48209  40.520  39.544  14.958
79836W        W48210  23.643  25.986   1.337
79837W        W48211  37.063  25.131   3.819
79838W        W48212   4.377  20.695  13.847
79839W        W48213   7.400  40.499  11.449
79840W        W48214  17.230  29.455  13.009
79841W        W48215  18.683  14.189   0.322
79842W        W48216   3.882  44.290  11.611
79843W        W48217  17.671  27.455  13.974
79844W        W48218  42.520  32.567   3.749
79845W        W48219  13.816   9.686   0.257
79846W        W48220  14.209  30.558  14.907
79847W        W48221  25.039  10.152  12.023
79848W        W48222  25.102  32.517  14.391
79849W        W48223  43.479  27.578  14.915
79850W        W48224   1.424  38.966   4.208
79851W        W48225  28.664  14.679  12.987
79852W        W48226   1.850  37.487  12.508
79853W        W48227  22.527  22.101   2.774
79854W        W48228   2.802  15.255  13.546
79855W        W48229  37.883  32.501  11.871
79856W        W48230  24.168   8.383  12.461
79857W        W48231  27.497  37.490   1.431
79858W        W48232   4.925  25.703   4.276
79859W        W48233  43.020   8.727   2.403
79860W        W48234  43.397  10.224  14.761
79861W        W48235  35.939   1.271   2.683
79862W        W48236  21.060   1.338  11.512
79863W        W48237  25.097   8.197   4.177
79864W        W48238  43.465  35.430   1.787
79865W        W48239  34.992  24.613  10.464
79866W        W48240  43.910  28.458  14.401
79867W        W48241  15.771  41.467  10.502
79868W        W48242  13.279   9.176   2.695
79869W        W48243  13.771  18.636   4.156
79870W        W48244  43.969  11.173   3.251
79871W        W48245   4.781   7.395   1.858
79872W        W48246  28.471  23.168   2.346
79873W        W48247   8.181  18.097  11.110
79874W        W48248  42.454  40.371   4.610
79875W        W48249  25.158  29.654   1.409
79876W        W48250  42.993  19.107   0.914
79877W        W48251  43.503  43.498  13.444
79878W        W48252  17.659  12.821   4.317
79879W        W48253  43.855   3.382   2.829
79880W        W48254  16.590  11.142  12.823
79881W        W48255  33.970   3.340  14.861
79882W        W48256  26.531   4.330  13.020
79883W        W48257  26.614  40.527   2.179
79884W        W48258  20.163  13.806  11.098
79885W        W48259  32.576  32.430  11.080
79886W        W48260  42.331  44.756  12.572
79887W        W48261  21.576  40.978  13.872
79888W        W48262   9.328  22.732  13.019
79889W        W48263  39.508  34.093  13.981
79890W        W48264  17.655  33.927   1.719
79891W        W48265  40.903  19.055   2.686
79892W        W48266  18.190   5.347  14.320
79893W        W48267  37.449  11.828  11.084
79894W        W48268  30.602  24.083   3.772
79895W        W48269  44.434  40.004  10.038
79896W        W48270  34.117  22.125  12.469
79897W        W48271   5.791   4.857  12.398
79898W        W48272   0.345  22.714  14.408
79899W        W48273  17.772   5.254   4.205
79900W        W48274  44.385   1.930   1.726
79901W        W48275  18.108  32.423  13.796
79902W        W48276  14.590  43.301   0.392
79903W        W48277  33.482  31.090   0.424
79904W        W48278   7.415  33.925   3.752
79905W        W48279  26.555  42.956   1.286
79906W        W48280   0.796  16.640  13.954
79907W        W48281   9.156  23.095   2.834
79908W        W48282  34.613  26.187  11.421
79909W        W48283  23.735  15.166   0.470
79910W        W48284  40.884   2.286   4.346
79911W        W48285  14.789   7.203  11.513
79912W        W48286   4.794  29.489  13.349
79913W        W48287  28.021  38.442  12.926
79914W        W48288  19.724   1.452   0.369
79915W        W48289  18.549  33.002   2.343
79916W        W48290  32.925  17.152  14.791
79917W        W48291  12.728  16.226   1.270
79918W        W48292  16.674  10.633   2.838
79919W        W48293   5.931  44.811   1.797
79920W        W48294  27.528  36.845  13.909
79921W        W48295   3.783   3.875  11.416
79922W        W48296  44.923  44.472  14.875
79923W        W48297  22.533  38.350  14.434
79924W        W48298  23.211  44.844  11.416
79925W        W48299   0.954   1.321   1.337
79926W        W48300  12.854  37.519  12.418
79927W        W48301  22.157  22.087  13.045
79928W        W48302  20.679  30.036  14.471
79929W        W48303  41.511  17.091   4.789
79930W        W48304  21.127  31.582   1.397
79931W        W48305  27.564  11.631   4.338
79932W        W48306  15.143  16.091   3.828
79933W        W48307  44.398  12.823   9.954
79934W        W48308   7.274  15.751   3.665
79935W        W48309   8.176  42.976   3.272
79936W        W48310  13.739  32.021  12.995
79937W        W48311  21.708   0.969   0.465
79938W        W48312  32.423  19.270  13.967
79939W        W48313   5.768  15.126   0.889
79940W        W48314  31.045  16.812   1.747
79941W        W48315  37.876   0.394  11.951
79942W        W48316  38.052  20.109   1.388
79943W        W48317  15.781  11.780   4.792
79944W        W48318  24.128  21.676  13.064
79945W        W48319   3.218  36.071   1.388
79946W        W48320   4.895  19.116  11.534
79947W        W48321  29.050   9.162   2.684
79948W        W48322  28.601  12.698  12.378
79949W        W48323  29.097  11.241  10.532
79950W        W48324   4.943  39.839  14.435
79951W        W48325  16.634  17.181  13.466
79952W        W48326  26.644  25.610  11.046
79953W        W48327  11.724   0.319   3.245
79954W        W48328  42.293  12.720   3.355
79955W        W48329  34.010  30.027  10.591
79956W        W48330   6.306  44.305   2.885
79957W        W48331   8.707  20.093   1.718
79958W        W48332  28.105  24.167   4.342
79959W        W48333  21.547  28.019   1.695
79960W        W48334  33.406  39.045   2.755
79961W        W48335  44.424  32.539  11.100
79962W        W48336  30.506  18.674   5.286
79963W        W48337  17.109  29.094   2.664
79964W        W48338  40.471  30.479   2.265
79965W        W48339  30.418  43.287   4.641
79966W        W48340  17.789   5.311  10.472
79967W        W48341   2.470  26.075  12.458
79968W        W48342   3.860   7.819  12.518
79969W        W48343   7.786  25.651  14.801
79970W        W48344   8.366  23.563   2.254
79971W        W48345  27.197  21.135   1.426
79972W        W48346   8.309  13.135  14.885
79973W        W48347  29.540  31.087  12.355
79974W        W48348  19.088   5.687   4.175
79975W        W48349  33.988   3.853   1.798
79976W        W48350   8.776  44.908  13.503
79977W        W48351  12.614  27.485   0.770
79978W        W48352   0.457   8.216  14.790
79979W        W48353  15.735  34.949  11.099
79980W        W48354  37.087  35.059   4.243
79981W        W48355  38.898  43.911   0.848
79982W        W48356  16.092   9.819   4.807
79983W        W48357  36.510   7.201   2.383
79984W        W48358   6.786  26.026   1.721
79985W        W48359  25.545   5.417  13.802
79986W        W48360  32.114  11.148   4.751
79987W        W48361  11.743  12.253   0.914
79988W        W48362  10.684  36.081  14.930
79989W        W48363   7.683  24.074   0.930
79990W        W48364  16.179  31.426   1.778
79991W        W48365  25.180  20.557   4.223
79992W        W48366   6.320  20.532  14.402
79993W        W48367   6.736  25.103   5.224
79994W        W48368  41.425   0.815   3.649
79995W        W48369  11.226  15.166   1.697
79996W        W48370  38.858  33.075  14.973
79997W        W48371  24.065  38.461  11.871
79998W        W48372   8.812  40.833  13.377
79999W        W48373  30.549  15.631  12.402
80000W        W48374  40.010   8.893  13.508
80001W        W48375  12.318  28.589   4.341
80002W        W48376   8.818  38.379   0.260
80003W        W48377  21.041  23.634   4.287
80004W        W48378  12.183  41.795  11.029
80005W        W48379  10.176  36.857   3.635
80006W        W48380  14.601  27.157  14.871
80007W        W48381   3.460  37.545   4.774
80008W        W48382  17.251  41.528  14.488
80009W        W48383  23.520   1.276   1.435
80010W        W48384   9.805  11.231  10.963
80011W        W48385  40.026  34.531   4.279
80012W        W48386  21.078  41.974  12.480
80013W        W48387  37.463  22.510   3.665
80014W        W48388  35.077  15.094   4.247
80015W        W48389  44.309  43.505   2.193
80016W        W48390  34.964   1.938   1.348
80017W        W48391  15.610  37.953   3.235
80018W        W48392  40.489   1.829   3.759
80019W        W48393  32.601  40.350   4.654
80020W        W48394  18.096  25.495   3.653
80021W        W48395  10.193  29.052   3.162
80022W        W48396  10.278  39.868  11.486
80023W        W48397   2.899  20.622  11.862
80024W        W48398  28.043   6.760  13.855
80025W        W48399  31.106  11.681  10.476
80026W        W48400  24.112  29.545  10.996
80027W        W48401  24.036  16.209   3.166
80028W        W48402  42.026  32.527  12.534
80029W        W48403   9.302  41.963  12.829
80030W        W48404  35.379  25.176  14.461
80031W        W48405  42.500  23.561   0.436
80032W        W48406  21.122  35.067   4.737
80033W        W48407  32.028  32.928  11.964
80034W        W48408  16.292  15.770  11.557
80035W        W48409  43.849  14.795  11.878
80036W        W48410   0.309   5.258   4.663
80037W        W48411  28.175   3.356  14.001
80038W        W48412   5.836   3.380  12.938
80039W        W48413   1.260  42.406   1.341
80040W        W48414  32.479  18.776  13.318
80041W        W48415  33.616  28.656  12.436
80042W        W48416  35.422  17.188   3.336
80043W        W48417   0.431  14.327  14.879
80044W        W48418  19.549   2.735  13.926
80045W        W48419  29.661   3.374   1.373
80046W        W48420   6.884  13.709   1.401
80047W        W48421  38.930   0.297  13.466
80048W        W48422   3.867   1.866   2.883
80049W        W48423   5.788  12.177   0.918
80050W        W48424  14.326   8.230   4.286
80051W        W48425  14.679  13.224   2.841
80052W        W48426   7.738  17.677   1.781
80053W        W48427   5.297  32.885   3.249
80054W        W48428  28.473   6.865  11.058
80055W        W48429  18.259   3.427   2.732
80056W        W48430  31.908  44.909  12.020
80057W        W48431  27.531   4.355  12.497
80058W        W48432  23.187   2.385   1.406
80059W        W48433  44.467  35.070   1.799
80060W        W48434  43.433  35.440   2.312
80061W        W48435   3.372  36.364  13.314
80062W        W48436  20.745  10.853  13.906
80063W        W48437   1.887  36.390  14.503
80064W        W48438  32.950  29.619   1.374
80065W        W48439  25.656  23.109   1.300
80066W        W48440  20.057  19.169   3.190
80067W        W48441  31.147  17.653  10.413
80068W        W48442  11.783  40.897   3.381
80069W        W48443  43.355   7.687  12.828
80070W        W48444  26.001  44.429   2.268
80071W        W48445  23.104  30.133  10.015
80072W        W48446  11.784  35.552   2.676
80073W        W48447  41.023  43.786   3.387
80074W        W48448  19.546   4.715   2.812
80075W        W48449   5.269  39.373   0.305
80076W        W48450  32.011  21.216  14.395
80077W        W48451   8.889  20.536   3.803
80078W        W48452  14.281   9.739  10.604
80079W        W48453  12.853  37.519  14.916
80080W        W48454  25.078  38.556  14.877
80081W        W48455   9.292   8.170  11.059
80082W        W48456  35.868   9.343   0.931
80083W        W48457   6.707  20.114   3.849
80084W        W48458  18.224  39.334   3.203
80085W        W48459   6.238   8.360   0.466
80086W        W48460   3.454   5.793  10.538
80087W        W48461  33.451  37.514  14.013
80088W        W48462  31.610  28.596  10.967
80089W        W48463  29.947  33.074   4.740
80090W        W48464   9.768  43.967   1.812
80091W        W48465   3.223   4.792   2.270
80092W        W48466  17.222  30.925  11.379
80093W        W48467  37.910  21.072   4.598
80094W        W48468  35.376  44.361  10.603
80095W        W48469   2.268  18.166  12.566
80096W        W48470  32.583  19.578   3.265
80097W        W48471  37.881   4.741   4.762
80098W        W48472   0.330  20.065   3.351
80099W        W48473  21.057  10.862   3.683
80100W        W48474   7.844   4.235  10.478
80101W        W48475  22.015  37.452   2.395
80102W        W48476   6.247   6.358  13.465
80103W        W48477  24.039  33.086  12.522
80104W        W48478  21.204   2.260  14.884
80105W        W48479  10.176  10.157   1.260
80106W        W48480   4.815  44.960  11.545
80107W        W48481  35.577  19.251  10.972
80108W        W48482  15.323  11.850  13.862
80109W        W48483   9.779  23.207  11.975
80110W        W48484  31.131  16.224  10.576
80111W        W48485  39.877  19.105   1.416
80112W        W48486  34.455  43.359   3.219
80113W        W48487  22.659  33.386   2.846
80114W        W48488   9.235  26.534  11.967
80115W        W48489  23.709   1.797   2.670
80116W        W48490  27.197  33.085   0.405
80117W        W48491   6.360  30.539  12.976
80118W        W48492  17.685  16.180  12.882
80119W        W48493  29.443   4.760   4.338
80120W        W48494  37.924  38.047   4.354
80121W        W48495  18.288  28.031   3.234
80122W        W48496  38.372  19.161   4.334
80123W        W48497  39.413  16.318  10.626
80124W        W48498  17.295  20.600   1.256
80125W        W48499  24.115  44.917  11.609
80126W        W48500  25.990  19.768  11.004
80127W        W48501   4.759  38.455   3.342
80128W        W48502  12.627  10.807  14.868
80129W        W48503  21.056  33.497   1.290
80130W        W48504  39.826  38.045   0.297
80131W        W48505  15.693  37.370  10.934
80132W        W48506  32.398  18.579  13.949
80133W        W48507  13.799   9.874  14.822
80134W        W48508   1.866  43.314  11.510
80135W        W48509  18.170   7.224  11.086
80136W        W48510  37.444   7.899  10.558
80137W        W48511  18.620  34.095  13.979
80138W        W48512  32.604  27.518   1.854
80139W        W48513  25.031  44.801  12.475
80140W        W48514  42.498  31.964   2.670
80141W        W48515  30.581  31.579  14.907
80142W        W48516  11.649  10.698   1.894
80143W        W48517  34.445   7.255  14.428
80144W        W48518  12.270  32.394  11.923
80145W        W48519  25.513  27.596  14.935
80146W        W48520  17.227  13.299  12.532
80147W        W48521  39.053  35.565  12.385
80148W        W48522  23.229  37.464  11.512
80149W        W48523  34.507  31.058   3.303
80150W        W48524  20.251  22.506  14.843
80151W        W48525   2.243   9.808   0.807
80152W        W48526  18.652  24.512   3.380
80153W        W48527  20.130  31.113   3.226
80154W        W48528   0.364  32.636  14.929
80155W        W48529  16.612  42.789   2.793
80156W        W48530  31.937  28.163   2.792
80157W        W48531  29.950  27.655   1.856
80158W        W48532  31.578   4.730  14.384
80159W        W48533  35.466  12.237   2.414
80160W        W48534  16.793   5.381  13.518
80161W        W48535   8.296  16.802  11.021
80162W        W48536  25.672  21.065   4.811
80163W        W48537  36.916  32.993   2.884
80164W        W48538  10.146  24.159  11.984
80165W        W48539  14.780  36.543  12.846
80166W        W48540  25.468  16.731   3.266
80167W        W48541  17.088  43.985   2.865
80168W        W48542  42.424   4.415  11.581
80169W        W48543  11.195  23.618  11.572
80170W        W48544   7.720   2.882   5.803
80171W        W48545   3.311  10.349  12.893
80172W        W48546  21.102  19.171  10.409
80173W        W48547  34.971  43.868  13.365
80174W        W48548  43.884  37.490  11.993
80175W        W48549  17.618  16.233   2.350
80176W        W48550  25.696   7.332   3.316
80177W        W48551  16.208  22.123   2.263
80178W        W48552  40.992  32.618  10.549
80179W        W48553   7.170  26.153   1.240
80180W        W48554  33.053  20.701   2.839
80181W        W48555  31.566  38.400  13.348
80182W        W48556  36.435  38.472  12.835
80183W        W48557  28.572   6.871  12.456
80184W        W48558  17.161  27.448  11.587
80185W        W48559  41.429  14.134  11.899
80186W        W48560  42.904  32.106  10.416
80187W        W48561  14.319  20.110   0.759
80188W        W48562  15.179  26.057   2.414
80189W        W48563  35.378   3.847  13.026
80190W        W48564  14.272  14.176   0.311
80191W        W48565  27.155  17.607  13.431
80192W        W48566  41.980  34.086  13.349
80193W        W48567   6.763  13.350   1.339
80194W        W48568   8.792  22.045  12.415
80195W        W48569  19.198   3.887   1.887
80196W        W48570  40.898   3.861  12.056
80197W        W48571  26.162  15.187  14.995
80198W        W48572  23.204   4.900  11.380
80199W        W48573   9.801  16.650   4.133
80200W        W48574  13.610  33.526  14.989
80201W        W48575  37.073   9.877  10.100
80202W        W48576  29.538  33.594   2.202
80203W        W48577  18.567   3.329   0.397
80204W        W48578  20.613  23.033  12.576
80205W        W48579  35.994  22.576   0.726
80206W        W48580  14.599  39.401  11.931
80207W        W48581  21.738  31.591  13.399
80208W        W48582   3.289  43.506  13.453
80209W        W48583  17.101  12.213   0.967
80210W        W48584  36.412  22.239   2.815
80211W        W48585  12.744   3.745  10.492
80212W        W48586  21.027  29.151  14.828
80213W        W48587  26.136  19.571  13.982
80214W        W48588  44.399  40.328   4.245
80215W        W48589  35.450   4.817   2.358
80216W        W48590  40.960  17.184   1.254
80217W        W48591  12.813  39.850   3.227
80218W        W48592  29.156  32.937   3.641
80219W        W48593  33.063  17.279   2.284
80220W        W48594  27.582  16.267  10.591
80221W        W48595  14.223  10.321  11.383
80222W        W48596  12.308  41.486  14.905
80223W        W48597  23.062   4.335  11.608
80224W        W48598  34.596  40.333  11.925
80225W        W48599   4.415  41.993   1.440
80226W        W48600  23.625  14.696   2.806
80227W        W48601   0.807  35.368   4.228
80228W        W48602   2.847  11.303  13.835
80229W        W48603  36.368  12.137  10.959
80230W        W48604  33.103  15.287   3.385
80231W        W48605   5.287  27.948  14.283
80232W        W48606  12.303  24.610  12.907
80233W        W48607  11.248  25.627  10.974
80234W        W48608  44.492  39.976  11.118
80235W        W48609  14.671   6.841  10.891
80236W        W48610   5.408   2.737   1.419
80237W        W48611  19.690  14.608  13.024
80238W        W48612  12.307  19.655   4.168
80239W        W48613  34.458  27.009  11.940
80240W        W48614   5.776   2.446  12.914
80241W        W48615  36.507  38.439  10.928
80242W        W48616  33.443   9.679  11.542
80243W        W48617  15.287   1.414  14.870
80244W        W48618   7.702  23.686  11.879
80245W        W48619  29.484   9.828   3.764
80246W        W48620  14.252   6.386  10.482
80247W        W48621  15.710  19.117  13.314
80248W        W48622  12.166  38.984   4.236
80249W        W48623  17.273  24.126   1.214
80250W        W48624  28.546  35.558  13.022
80251W        W48625  25.570  29.524   0.838
80252W        W48626  13.142  10.236  11.877
80253W        W48627  15.670  30.546  13.393
80254W        W48628   6.315  21.068  12.950
80255W        W48629   8.326  13.625   3.232
80256W        W48630  34.941  13.275  14.397
80257W        W48631  22.698  17.307   2.201
80258W        W48632  28.660  20.249   4.612
80259W        W48633  16.146  27.152  13.347
80260W        W48634  19.269  22.153  11.494
80261W        W48635   3.263  37.016  10.950
80262W        W48636  24.691  13.205  13.833
80263W        W48637   9.879  30.002  10.066
80264W        W48638  15.090  19.167   3.253
80265W        W48639  42.002   2.778   3.387
80266W        W48640  25.097  24.564   1.805
80267W        W48641  20.054  23.054  11.464
80268W        W48642  31.058   9.395   2.700
80269W        W48643   7.858   2.802   1.738
80270W        W48644  42.825   2.795  12.471
80271W        W48645  22.072  24.121  10.594
80272W        W48646  36.350  24.102   0.861
80273W        W48647   8.313   1.285  11.554
80274W        W48648  20.088  30.563  13.018
80275W        W48649  18.201  44.770   1.346
80276W        W48650  26.051  23.031  14.402
80277W        W48651   0.268  39.464  13.427
80278W        W48652  28.018   3.363   1.259
80279W        W48653  24.051  33.525   0.835
80280W        W48654  31.109  40.054   4.711
80281W        W48655  22.683   3.437  12.454
80282W        W48656  25.628  36.865  13.957
80283W        W48657   1.958  32.520  13.802
80284W        W48658  34.076  31.520   1.831
80285W        W48659   0.860  41.398   5.217
80286W        W48660  22.687  32.079  14.478
80287W        W48661  23.612  17.245   0.791
80288W        W48662  22.632  41.881  11.087
80289W        W48663  26.999  43.984   3.712
80290W        W48664  31.938  38.514   4.731
80291W        W48665  41.789   7.311   3.310
80292W        W48666  37.075   3.377  13.961
80293W        W48667  18.054  24.510   0.845
80294W        W48668  27.955   7.731   2.758
80295W        W48669   6.692  16.102  12.558
80296W        W48670  20.152  42.797  11.974
80297W        W48671  21.543  27.629  12.087
80298W        W48672  34.975  27.499  12.478
80299W        W48673  36.590  31.136   2.731
80300W        W48674  18.602   4.717   5.218
80301W        W48675  36.418  40.513  12.889
80302W        W48676  33.568  25.491  14.031
80303W        W48677  23.070  31.409  13.840
80304W        W48678   3.945   2.362  12.904
80305W        W48679   0.964  27.472   0.275
80306W        W48680  41.313  21.160   2.744
80307W        W48681  13.186  37.431  10.454
80308W        W48682  36.558  26.127   1.328
80309W        W48683  30.113  20.160  10.895
80310W        W48684  23.181  27.505  12.371
80311W        W48685   9.254  35.037   0.289
80312W        W48686   3.785  44.289   0.483
80313W        W48687  40.936  13.636  11.954
80314W        W48688  27.463  16.154   4.632
80315W        W48689  12.276  16.116   4.804
80316W        W48690   1.380  30.620  12.838
80317W        W48691   3.737  34.097   4.157
80318W        W48692  12.612   0.488  13.002
80319W        W48693   9.370  40.015   1.788
80320W        W48694  17.213   5.293   0.839
80321W        W48695  36.046   1.757   1.869
80322W        W48696  40.326  38.883   2.332
80323W        W48697   1.744  37.369  11.113
80324W        W48698   3.281   9.368   2.256
80325W        W48699   7.758  22.544   0.402
80326W        W48700  32.619  33.002   3.171
80327W        W48701  16.682  39.849   2.705
80328W        W48702  43.487  26.693  13.352
80329W        W48703   6.211  13.128  12.028
80330W        W48704  37.876  31.447  12.027
80331W        W48705   5.738  25.702   1.895
80332W        W48706   0.773  28.511  12.436
80333W        W48707   7.201  31.551   4.771
80334W        W48708  24.202  39.984  10.891
80335W        W48709   6.824  27.551   0.839
80336W        W48710  28.112  21.027  13.845
80337W        W48711  39.986  37.014  14.965
80338W        W48712  13.311  44.404  13.790
80339W        W48713  32.021  21.107  12.357
80340W        W48714   7.241  29.972   3.159
80341W        W48715  32.512   8.347   2.304
80342W        W48716  39.345  27.446   3.362
80343W        W48717   2.902  18.790   3.868
80344W        W48718  21.743  33.966   3.316
80345W        W48719  39.555  17.259  14.399
80346W        W48720  15.688  10.150   2.698
80347W        W48721   6.700  21.234   1.303
80348W        W48722  30.061   5.896   3.168
80349W        W48723  27.109  20.692  13.399
80350W        W48724   7.880  16.283   1.417
80351W        W48725  34.474   1.892   0.758
80352W        W48726  20.741  33.054   0.869
80353W        W48727  44.390  10.291   5.213
80354W        W48728   5.862  24.513  11.485
80355W        W48729  38.927  17.741   0.791
80356W        W48730  36.858  35.466   0.394
80357W        W48731  44.502  39.928  11.967
80358W        W48732  34.442  33.591  12.355
80359W        W48733  23.088  11.177  14.334
80360W        W48734  19.196   9.244   2.387
80361W        W48735  36.061   9.688  14.355
80362W        W48736   9.735  29.103   1.375
80363W        W48737  38.929  18.206   1.264
80364W        W48738   0.827   3.442   5.170
80365W        W48739  38.419   8.182  10.558
80366W        W48740   9.264  40.497   3.825
80367W        W48741  15.148  13.212   1.746
80368W        W48742   4.411  10.671   3.833
80369W        W48743  31.111  33.603  12.861
80370W        W48744  34.867  19.046   1.695
80371W        W48745  10.660  35.035  11.099
80372W        W48746  24.648  17.197  13.028
80373W        W48747   5.334   6.779  12.352
80374W        W48748  23.585   8.856  13.466
80375W        W48749  31.433  34.382   4.328
80376W        W48750  14.184  17.640  11.055
80377W        W48751  26.509  38.867  12.994
80378W        W48752  25.205  43.460  13.932
80379W        W48753  23.552  23.675  11.057
80380W        W48754  42.911  37.533  13.532
80381W        W48755   5.350  20.175  14.942
80382W        W48756  25.582  41.500  13.516
80383W        W48757  34.989   7.848  12.866
80384W        W48758  36.968  12.207  12.085
80385W        W48759  34.482  44.406   2.390
80386W        W48760  22.659  20.526   3.180
80387W        W48761  34.550  32.502   2.266
80388W        W48762   0.840  26.492   4.760
80389W        W48763   0.921  34.448  12.341
80390W        W48764  12.849  32.528  10.525
80391W        W48765   9.362  18.624  14.455
80392W        W48766  19.257  15.716  13.352
80393W        W48767  14.637  24.086   3.199
80394W        W48768  31.504  10.663  13.962
80395W        W48769  32.484   1.341   1.247
80396W        W48770  42.465  18.546   2.208
80397W        W48771  40.818  22.709   0.783
80398W        W48772  39.453  42.909  14.794
80399W        W48773  39.857  29.949  10.479
80400W        W48774  12.333  27.178   0.912
80401W        W48775  22.719  14.243  11.417
80402W        W48776  25.051  37.425   4.663
80403W        W48777  44.278  22.068  12.427
80404W        W48778  25.127  30.459   4.345
80405W        W48779  39.908  39.356   2.236
80406W        W48780  22.127   0.292  12.432
80407W        W48781  30.128  23.128   3.226
80408W        W48782  33.906  39.400  12.941
80409W        W48783  29.567  20.579   4.757
80410W        W48784   3.906  32.600   4.822
80411W        W48785  38.987  42.398  12.841
80412W        W48786   3.800   8.793  11.940
80413W        W48787  38.015  26.199  13.033
80414W        W48788  15.130  15.125  13.330
80415W        W48789  27.034   1.273  13.983
80416W        W48790  44.444   7.877   2.741
80417W        W48791  39.921   6.847   2.837
80418W        W48792  12.244  42.938   4.164
80419W        W48793  15.616  16.726   1.705
80420W        W48794  36.900  25.661  11.592
80421W        W48795  24.182  14.611  11.094
80422W        W48796  24.140  23.121   3.775
80423W        W48797  25.683  32.392  11.128
80424W        W48798  32.575  41.936  13.028
80425W        W48799   0.845  39.993  13.361
80426W        W48800  19.565  38.839  12.929
80427W        W48801   6.215  43.439  11.913
80428W        W48802  29.109  38.425  10.965
80429W        W48803  43.985  13.620  11.966
80430W        W48804  27.192  12.257   0.266
80431W        W48805   1.799  39.450  13.444
80432W        W48806  40.836  15.122  12.919
80433W        W48807   0.492  21.063  12.005
80434W        W48808   2.405  16.575  10.532
80435W        W48809  17.681  29.010   3.740
80436W        W48810  12.324  20.040  14.919
80437W        W48811  31.460   6.269   4.254
80438W        W48812  34.425  32.949   4.269
80439W        W48813  31.460  16.582   2.735
80440W        W48814  31.606  29.649  12.549
80441W        W48815   1.873   4.319  11.012
80442W        W48816  12.778  40.882  11.031
80443W        W48817  22.172  20.227  10.590
80444W        W48818  30.431  30.058  12.046
80445W        W48819  25.176  17.682  10.958
80446W        W48820  44.945  18.083   5.146
80447W        W48821  30.589  44.970   3.243
80448W        W48822  13.845  38.522   0.411
80449W        W48823  37.018  26.465  13.842
80450W        W48824  38.955  10.727   2.798
80451W        W48825  28.578   3.253   3.226
80452W        W48826  30.592   1.249   4.299
80453W        W48827  31.057   5.931  10.514
80454W        W48828  11.278   8.733   2.296
80455W        W48829  13.833   7.804   4.733
80456W        W48830   2.234   0.271  14.383
80457W        W48831  22.025  17.697   1.316
80458W        W48832  30.523   2.361   1.757
80459W        W48833  16.213  29.599   4.343
80460W        W48834  40.897  29.066   1.242
80461W        W48835  34.887   0.760  11.940
80462W        W48836   4.234   2.423  14.386
80463W        W48837  33.033  13.349   2.357
80464W        W48838  40.359  17.138  11.411
80465W        W48839  30.449  25.980   0.344
80466W        W48840  32.451   0.450  10.909
80467W        W48841   4.785   9.643  13.514
80468W        W48842  18.553  10.804   0.761
80469W        W48843  35.093  15.759  12.948
80470W        W48844  13.326  34.437   4.304
80471W        W48845  36.876  33.923   3.218
80472W        W48846   7.296  15.703  11.035
80473W        W48847   2.317  34.401   1.891
80474W        W48848  41.366  19.695   3.343
80475W        W48849  24.975  24.150  14.870
80476W        W48850  37.364  23.562   2.245
80477W        W48851  33.959   7.795   3.655
80478W        W48852  15.119   3.821   4.668
80479W        W48853  43.324  19.665  13.375
80480W        W48854  20.538  25.195   0.368
80481W        W48855  37.963  37.860   2.242
80482W        W48856   8.211  26.121   1.213
80483W        W48857  18.637  24.178  12.998
80484W        W48858  33.437   7.270  14.919
80485W        W48859  29.987   5.335  12.010
80486W        W48860  15.230   6.251  11.546
80487W        W48861   5.844  16.220   4.700
80488W        W48862  44.340  42.817  11.530
80489W        W48863   2.737  36.083   0.372
80490W        W48864   6.913  31.449  12.466
80491W        W48865  33.903  34.922   1.229
80492W        W48866   9.298  20.108  14.345
80493W        W48867  26.001  34.414  10.889
80494W        W48868  44.472  31.648  12.507
80495W        W48869   7.319  28.608   5.779
80496W        W48870  16.135  35.396  13.931
80497W        W48871  11.280  30.653  12.504
80498W        W48872  36.010  15.611   4.217
80499W        W48873  36.406  40.358   3.796
80500W        W48874  29.660   7.889  13.447
80501W        W48875  20.074  11.236   0.249
80502W        W48876   2.766  28.961  11.057
80503W        W48877  38.998   2.229  11.914
80504W        W48878  29.044   9.727   1.341
80505W        W48879  23.034   2.935  12.030
80506W        W48880  38.443  22.563   3.809
80507W        W48881  30.111  12.135   4.334
80508W        W48882  41.027  24.097  12.408
80509W        W48883  24.077  11.800   4.250
80510W        W48884   4.450  26.981   3.210
80511W        W48885  17.282  40.539   1.850
80512W        W48886  43.334  21.615   4.271
80513W        W48887  16.669  34.905  10.958
80514W        W48888   4.858  43.502   0.804
80515W        W48889   7.905   3.907   1.731
80516W        W48890  14.196  35.987  12.472
80517W        W48891  19.587  23.675   2.371
80518W        W48892  11.792  17.741  12.913
80519W        W48893  38.960   8.318   0.733
80520W        W48894   8.850  21.639   0.772
80521W        W48895  11.272   5.699  11.587
80522W        W48896  40.392   4.703  12.886
80523W        W48897  42.386  13.756  13.441
80524W        W48898  27.154  14.622   0.315
80525W        W48899  31.408  19.543  10.924
80526W        W48900   5.784   3.290  14.963
80527W        W48901  21.713  41.384  12.928
80528W        W48902  21.019  42.515   1.234
80529W        W48903  24.089  42.368  10.966
80530W        W48904  30.925   3.300  11.871
80531W        W48905   9.389   3.884  14.488
80532W        W48906  14.190  35.453   1.824
80533W        W48907  23.708  20.608  13.012
80534W        W48908   5.383   0.783   1.895
80535W        W48909  19.266  20.211  10.981
80536W        W48910  21.540  39.867   4.241
80537W        W48911  39.816   5.352   0.821
80538W        W48912  33.502  10.243  14.897
80539W        W48913  23.241  31.992   3.216
80540W        W48914  23.091  29.081   2.890
80541W        W48915   8.859  18.687   9.994
80542W        W48916  17.073  10.313   2.316
80543W        W48917  33.933  38.403   0.251
80544W        W48918  27.940  32.098  14.453
80545W        W48919  24.136  23.112   3.327
80546W        W48920   0.350  35.958   1.370
80547W        W48921  20.031  23.558   2.328
80548W        W48922  14.684  15.128  13.035
80549W        W48923   1.332  37.428   2.803
80550W        W48924   5.306  24.039   2.269
80551W        W48925  27.678  19.112  12.887
80552W        W48926   8.233  10.705  14.867
80553W        W48927  12.716  33.946  13.413
80554W        W48928   3.359   4.775   1.362
80555W        W48929   6.378  41.942  13.961
80556W        W48930   9.329  44.891   3.364
80557W        W48931   9.870  27.160   4.165
80558W        W48932   1.860  37.850  11.973
80559W        W48933  31.899  36.853   4.812
80560W        W48934  14.678  18.573   0.795
80561W        W48935  41.953   4.263   0.253
80562W        W48936  42.309  18.573   0.300
80563W        W48937   2.903  15.323   1.297
80564W        W48938  27.503  32.525  12.466
80565W        W48939   6.786   9.693  10.983
80566W        W48940  13.831   3.378   4.256
80567W        W48941  19.551   6.916  13.383
80568W        W48942  25.191  24.187  11.412
80569W        W48943   3.402   4.332   1.766
80570W        W48944  19.057   1.376  11.992
80571W        W48945   0.271   5.688   2.668
80572W        W48946  43.823  16.095   1.363
80573W        W48947  35.495   7.386  11.439
80574W        W48948  29.948  37.986  11.944
80575W        W48949  10.274   1.382  14.840
80576W        W48950  27.018  43.818  12.037
80577W        W48951  32.568  40.440  10.486
80578W        W48952  35.441  10.171  11.585
80579W        W48953  43.438   1.918   2.739
80580W        W48954  28.007   4.747   3.854
80581W        W48955  44.380  44.372   0.325
80582W        W48956  24.230  13.252   0.279
80583W        W48957  30.541  42.906  12.386
80584W        W48958  19.214  31.070   1.300
80585W        W48959  14.745  31.060   3.222
80586W        W48960  23.633  41.997  13.369
80587W        W48961  39.985  30.546  13.315
80588W        W48962  23.694  33.020  14.295
80589W        W48963   1.950   0.920   2.274
80590W        W48964  18.076  13.816   1.848
80591W        W48965  37.057  28.442  11.915
80592W        W48966   6.390   8.730  10.941
80593W        W48967  31.086  11.705  11.063
80594W        W48968  37.898   9.219   4.127
80595W        W48969  19.581  16.101   0.471
80596W        W48970  32.525   5.422   3.343
80597W        W48971   5.412  40.324   3.845
80598W        W48972  36.050  15.123  10.421
80599W        W48973  15.771  38.033  10.974
80600W        W48974  33.017   8.755  12.456
80601W        W48975  12.253   3.314   1.713
80602W        W48976   6.754  11.753  12.526
80603W        W48977  37.516  18.175   0.868
80604W        W48978  10.866  24.992  12.445
80605W        W48979  11.758  28.480  10.636
80606W        W48980  29.432  41.948  10.417
80607W        W48981   5.214  19.709   3.351
80608W        W48982  41.799   1.894   2.689
80609W        W48983  19.676  16.573  14.511
80610W        W48984  19.176  10.669  14.407
80611W        W48985  32.602  13.340   3.258
80612W        W48986  40.832  41.435   1.814
80613W        W48987  36.970  24.506   3.299
80614W        W48988   1.342  32.435  12.387
80615W        W48989   2.881  23.002  13.007
80616W        W48990  26.631  30.033   3.743
80617W        W48991  10.843  36.510  12.906
80618W        W48992  39.964  23.108  11.511
80619W        W48993   9.319   1.776  13.357
80620W        W48994  40.916  13.322   2.703
80621W        W48995  18.787  42.032   3.166
80622W        W48996  22.512  32.125   3.148
80623W        W48997  36.972  35.376  12.037
80624W        W48998   6.706  14.164  13.848
80625W        W48999  37.476  10.661   4.339
80626W        W49000  19.601  41.418  11.999
80627W        W49001  28.167   1.244   2.742
80628W        W49002   2.305  24.672  11.446
80629W        W49003  34.984   4.367  10.893
80630W        W49004  12.176   1.384  11.944
80631W        W49005  33.881   9.683   3.764
80632W        W49006  39.542  17.067   1.891
80633W        W49007  37.340  31.956   3.656
80634W        W49008  10.369   4.749   0.333
80635W        W49009  35.977   2.347   1.754
80636W        W49010  35.091  17.196   4.127
80637W        W49011  29.616  14.123  14.853
80638W        W49012  22.710  14.710  10.979
80639W        W49013   0.351  22.622   2.714
80640W        W49014  16.078  20.547   1.917
80641W        W49015  22.996  18.272   4.336
80642W        W49016  21.114  41.444   5.219
80643W        W49017   8.262  25.987   4.227
80644W        W49018  11.209  39.817   3.765
80645W        W49019  35.041  13.720  13.443
80646W        W49020  30.975  12.803  10.907
80647W        W49021  21.098   6.807   3.193
80648W        W49022   1.282  22.232   3.324
80649W        W49023  10.226  22.674  12.383
80650W        W49024  10.353  10.334   3.833
80651W        W49025  35.519  38.543  11.943
80652W        W49026  16.617  17.638  14.888
80653W        W49027  24.219  44.429  12.398
80654W        W49028  38.422   1.431   0.766
80655W        W49029   4.261  21.669  10.992
80656W        W49030  37.893  44.958   4.754
80657W        W49031  24.197  26.019   0.928
80658W        W49032   8.250   4.264   1.784
80659W        W49033  42.474  20.711   2.692
80660W        W49034  34.089   9.864  11.114
80661W        W49035  26.954   5.802   4.290
80662W        W49036   3.228  23.584   1.324
80663W        W49037  42.383  15.272   0.396
80664W        W49038   5.765  28.652   5.167
80665W        W49039  33.393  28.011   3.704
80666W        W49040  12.183  29.981   2.695
80667W        W49041  28.142  28.627  13.337
80668W        W49042  17.105   9.368   4.194
80669W        W49043  42.943  38.526   3.802
80670W        W49044  40.493  44.289  10.604
80671W        W49045  17.220  36.066  13.366
80672W        W49046  11.762  17.171   5.264
80673W        W49047  11.146  38.523  12.387
80674W        W49048  19.681   9.354  14.479
80675W        W49049  35.951  31.590  11.955
80676W        W49050  14.315   6.755   2.752
80677W        W49051  13.690  26.621   3.300
80678W        W49052  17.268  22.032   1.840
80679W        W49053  24.632  34.501   0.256
80680W        W49054  20.211  11.758  13.458
80681W        W49055  28.985  20.564  12.077
80682W        W49056   7.337   7.803   5.119
80683W        W49057  17.180  17.736  11.911
80684W        W49058  16.728  18.112  11.408
80685W        W49059  27.630   7.811  11.483
80686W        W49060  11.201  33.568   3.739
80687W        W49061   6.748  28.943   2.392
80688W        W49062  15.297  10.851  11.473
80689W        W49063  35.578  28.667  12.844
80690W        W49064   3.739  40.040  12.345
80691W        W49065  40.929  37.954   3.658
80692W        W49066   9.212  23.600  12.986
80693W        W49067  38.859   5.879   3.863
80694W        W49068  21.682  42.444  14.811
80695W        W49069  32.070  44.975   4.789
80696W        W49070  39.543   7.173  11.386
80697W        W49071  24.206  14.642  13.449
80698W        W49072  17.178  18.247   1.710
80699W        W49073  26.588  31.124   3.818
80700W        W49074  36.539  36.912  12.008
80701W        W49075  29.528  22.108  12.858
80702W        W49076  27.969   0.463   5.713
80703W        W49077  19.274  35.013   3.786
80704W        W49078   2.470  10.258  12.442
80705W        W49079   0.810  16.747   1.746
80706W        W49080  16.150  30.573   4.237
80707W        W49081  29.955   1.298  14.927
80708W        W49082   2.832  22.735   4.182
80709W        W49083  36.880  42.356  10.544
80710W        W49084  28.052   3.295   3.654
80711W        W49085  28.127  34.596  12.417
80712W        W49086  21.694  38.058  14.839
80713W        W49087   7.295  23.051  11.101
80714W        W49088  12.612  18.193  13.843
80715W        W49089  42.301  22.645   0.901
80716W        W49090  25.136   8.763  13.857
80717W        W49091   2.947   7.745  11.010
80718W        W49092  36.079  15.647  12.871
80719W        W49093  43.475  24.036  11.590
80720W        W49094   5.845  23.237   1.731
80721W        W49095   2.436  14.755   1.356
80722W        W49096  32.416  27.188   0.437
80723W        W49097  14.331   8.248  10.972
80724W        W49098  11.174  41.981  14.386
80725W        W49099   1.366  25.967   3.645
80726W        W49100   9.289   1.387  14.971
80727W        W49101  36.866  27.636  12.882
80728W        W49102  36.861  24.646  14.415
80729W        W49103   7.295  12.854   2.245
80730W        W49104  15.759  44.808  11.996
80731W        W49105  19.212  41.833   1.801
80732W        W49106  34.426  42.974   0.356
80733W        W49107  26.013  28.647  11.083
80734W        W49108   0.777  32.593   3.156
80735W        W49109  34.557   9.290   0.461
80736W        W49110  34.519  31.139   2.879
80737W        W49111   9.346  32.013   0.285
80738W        W49112   1.878  17.718  11.052
80739W        W49113   6.363  24.190   0.751
80740W        W49114   5.384  18.214   1.808
80741W        W49115  41.304  27.609   1.831
80742W        W49116  33.065   9.694  12.031
80743W        W49117   9.663  11.638   2.830
80744W        W49118  28.067   7.249  10.021
80745W        W49119  39.064  20.174   4.651
80746W        W49120  41.515   3.252  13.924
80747W        W49121  43.804  37.024  13.049
80748W        W49122   0.882  22.580   5.224
80749W        W49123  15.764  20.064  10.970
80750W        W49124  13.833   1.463  13.845
80751W        W49125  28.171   6.392   0.934
80752W        W49126  11.794  16.174   4.616
80753W        W49127  14.607  15.327  14.010
80754W        W49128   0.272  34.892   3.246
80755W        W49129  42.317  31.594   4.742
80756W        W49130   3.774  44.308  14.420
80757W        W49131  40.368   8.676   5.302
80758W        W49132  23.012  35.569   4.224
80759W        W49133  38.473  41.991   3.383
80760W        W49134  13.180  12.652  12.959
80761W        W49135   5.383  33.976   4.656
80762W        W49136   6.285  30.998  10.593
80763W        W49137  28.548  37.576   3.362
80764W        W49138  16.162   8.252  12.003
80765W        W49139  27.605  35.885   0.425
80766W        W49140  17.158  40.325   5.319
80767W        W49141  14.161   4.361   0.896
80768W        W49142  12.140   2.460   4.205
80769W        W49143  44.801  19.105  10.453
80770W        W49144  25.542  29.037   2.792
80771W        W49145   2.889  11.166  12.437
80772W        W49146  24.665  24.126  12.013
80773W        W49147  30.943  28.456   4.159
80774W        W49148  36.426  42.299  12.039
80775W        W49149  35.920  37.042  14.419
80776W        W49150  10.318  43.340   0.753
80777W        W49151  22.533   2.906  10.491
80778W        W49152  31.114  19.746  14.885
80779W        W49153  28.176  27.480  10.435
80780W        W49154  30.517  27.662   2.715
80781W        W49155  13.267  13.301   1.440
80782W        W49156  39.389  42.334   3.192
80783W        W49157  42.900  23.068   4.734
80784W        W49158  18.777  44.788  11.541
80785W        W49159  36.501  30.563  10.957
80786W        W49160   1.441  20.670  11.572
80787W        W49161  39.926  21.612  11.586
80788W        W49162  15.183  32.946   4.771
80789W        W49163  21.149  36.042   1.897
80790W        W49164  28.515  26.099   0.731
80791W        W49165  26.563   2.386  12.524
80792W        W49166  30.601  34.598   2.198
80793W        W49167  12.741  36.052  13.373
80794W        W49168  43.973   3.927  14.926
80795W        W49169  42.389  18.663  11.908
80796W        W49170  14.643  34.407  14.764
80797W        W49171  26.518  36.413   2.785
80798W        W49172   6.275  30.601   2.848
80799W        W49173   2.444   7.328   2.695
80800W        W49174  36.928  11.234   0.758
80801W        W49175  34.987  41.457   3.220
80802W        W49176  43.496  13.671  13.958
80803W        W49177  34.453  24.147  10.626
80804W        W49178   0.915  37.898   2.242
80805W        W49179  13.253  44.945  13.347
80806W        W49180  35.528  13.291  12.437
80807W        W49181  16.786  31.934   3.270
80808W        W49182  21.224   1.932  14.833
80809W        W49183  17.294  29.541  12.521
80810W        W49184   2.359  18.101  14.959
80811W        W49185   3.257  13.149   3.157
80812W        W49186   3.817  41.026  14.001
80813W        W49187  30.918  10.203   2.364
80814W        W49188  21.755   2.261   2.350
80815W        W49189  29.100  12.759  10.565
80816W        W49190  22.571  23.543   1.767
80817W        W49191   8.877  14.793   3.323
80818W        W49192  14.236   5.209  12.036
80819W        W49193   5.798   8.893  14.875
80820W        W49194  12.268   4.831  14.469
80821W        W49195  22.739   8.674   0.768
80822W        W49196  23.491  41.825  12.086
80823W        W49197  40.320   2.930  13.872
80824W        W49198  27.448  10.174   4.749
80825W        W49199  33.594  29.956   0.418
80826W        W49200  35.533  13.165  13.038
80827W        W49201  20.222  25.586   0.753
80828W        W49202  27.990  43.930   2.189
80829W        W49203  24.124  26.468  10.020
80830W        W49204  36.985  21.741   1.253
80831W        W49205   9.290  18.658   1.403
80832W        W49206   7.322  29.635  10.153
80833W        W49207   7.172   4.811  10.115
80834W        W49208  40.994   9.181  11.443
80835W        W49209  41.300  12.733  10.537
80836W        W49210   0.974  30.588   3.299
80837W        W49211   0.402  28.635  12.097
80838W        W49212   3.419   4.387  11.545
80839W        W49213  43.317  39.036  11.556
80840W        W49214  31.950  44.927  14.371
80841W        W49215  43.280  14.140   4.172
80842W        W49216  42.831  22.142  14.958
80843W        W49217   9.215  43.443  14.985
80844W        W49218  39.348   9.369   3.200
80845W        W49219  27.077  15.687  13.377
80846W        W49220  31.510  13.651  12.533
80847W        W49221   1.313  42.350   3.287
80848W        W49222  44.295  21.023   2.785
80849W        W49223  10.345  38.884  12.827
80850W        W49224  29.444  44.830  12.501
80851W        W49225  32.087  21.624   0.432
80852W        W49226  18.192  29.095   2.806
80853W        W49227  26.006   3.810   3.803
80854W        W49228  15.210   5.842  11.895
80855W        W49229  17.725  41.461   4.711
80856W        W49230  33.552  28.953  11.890
80857W        W49231   3.396  19.203  10.454
80858W        W49232   1.369  17.292  14.814
80859W        W49233  42.445  26.196  11.029
80860W        W49234  28.154  34.888  10.528
80861W        W49235  30.422  12.644  13.335
80862W        W49236   5.336  36.572   2.820
80863W        W49237  15.269  17.286  13.013
80864W        W49238  36.993  26.692   2.863
80865W        W49239  35.861   9.839   0.794
80866W        W49240  29.031  10.364   2.817
80867W        W49241  18.568  10.231  12.045
80868W        W49242  23.071   7.180   0.302
80869W        W49243  31.949   6.400  13.328
80870W        W49244  13.648  24.995   0.360
80871W        W49245  40.334  30.150  14.858
80872W        W49246  21.118  11.299   1.837
80873W        W49247  22.015  39.026   1.303
80874W        W49248  35.860  25.095   1.776
80875W        W49249  33.385   9.811   3.274
80876W        W49250  18.221  17.617   2.326
80877W        W49251   5.266  14.093   2.714
80878W        W49252  16.699   7.836  10.543
80879W        W49253  43.441  29.609   0.349
80880W        W49254  16.747  14.254   5.116
80881W        W49255  15.198  37.007  11.940
80882W        W49256  31.078  19.195   0.882
80883W        W49257  15.310  38.529   1.360
80884W        W49258  31.981   2.345   4.607
80885W        W49259  13.706  23.584   3.273
80886W        W49260  37.353  27.181   2.385
80887W        W49261  43.407  25.006  11.877
80888W        W49262  36.098   0.380   3.381
80889W        W49263  30.505  20.164  14.976
80890W        W49264  42.438  22.192  13.348
80891W        W49265  17.266   6.836  14.476
80892W        W49266  44.406  22.556   3.254
80893W        W49267  11.803  13.135   0.756
80894W        W49268  22.091  44.367  14.809
80895W        W49269  20.074  27.470   0.402
80896W        W49270  34.970  12.643   1.393
80897W        W49271  33.396   0.380   0.737
80898W        W49272  42.464   4.255   4.775
80899W        W49273  35.484  37.494  12.440
80900W        W49274   3.436   4.741   4.264
80901W        W49275  26.966   7.279  12.364
80902W        W49276  22.686  40.349   9.457
80903W        W49277  32.474  38.831  14.378
80904W        W49278   6.360  35.479  11.900
80905W        W49279  12.180  38.880  11.031
80906W        W49280  28.680   3.762   0.328
80907W        W49281  11.138   6.891   1.230
80908W        W49282  36.099  35.069  11.061
80909W        W49283  12.136  43.005   1.446
80910W        W49284  14.589  23.590   2.776
80911W        W49285  42.522  17.703  10.523
80912W        W49286   2.749  10.358   1.833
80913W        W49287  39.906  35.555   0.872
80914W        W49288  42.004  28.048   4.651
80915W        W49289  24.669  28.082  11.560
80916W        W49290  30.139  32.075   2.765
80917W        W49291  15.150  43.947  10.939
80918W        W49292  37.015  29.495   4.317
80919W        W49293  30.459  36.351   1.784
80920W        W49294  26.469  14.622   4.174
80921W        W49295  28.611  29.011   0.929
80922W        W49296  32.932  11.198  12.055
80923W        W49297  41.841  22.201  11.879
80924W        W49298  13.644  10.160   5.224
80925W        W49299   2.915  26.461   1.748
80926W        W49300   0.268  30.974  12.351
80927W        W49301   0.937  29.140  11.005
80928W        W49302  41.941  14.164  14.777
80929W        W49303  10.699   8.740   0.335
80930W        W49304  39.010  17.066  14.005
80931W        W49305  20.646  19.188   0.904
80932W        W49306  12.249  42.422  13.012
80933W        W49307  44.756  39.945   0.436
80934W        W49308  16.719   7.364   2.721
80935W        W49309  40.453   7.686   1.381
80936W        W49310  38.468  26.461   3.259
80937W        W49311  20.756  29.162  14.776
80938W        W49312  32.126   1.439   0.876
80939W        W49313  43.957  12.225   3.153
80940W        W49314   3.816  14.797   1.910
80941W        W49315  26.185  34.461   3.774
80942W        W49316  24.066   1.464   4.204
80943W        W49317   6.900  14.276   0.441
80944W        W49318  12.853  35.898  12.006
80945W        W49319   5.689  12.315   0.244
80946W        W49320  13.112   3.305   9.942
80947W        W49321  19.059   5.258  14.792
80948W        W49322  28.611  44.285   0.447
80949W        W49323  35.603  39.363   0.245
80950W        W49324   5.334  35.391   2.743
80951W        W49325  16.082   2.268   0.376
80952W        W49326  27.073  14.646  14.963
80953W        W49327  44.334  10.342   2.380
80954W        W49328  17.788   6.285  13.892
80955W        W49329  42.486   5.695   4.161
80956W        W49330  38.487   6.314  13.898
80957W        W49331  10.262   2.280  11.560
80958W        W49332  39.456  29.101  12.018
80959W        W49333  37.419  21.056   3.648
80960W        W49334  35.998  32.468  12.490
80961W        W49335  31.517  44.456  10.427
80962W        W49336  12.791  35.095   3.322
80963W        W49337   2.843  21.646   0.259
80964W        W49338  18.591  23.097   3.329
80965W        W49339  25.161  19.264   1.257
80966W        W49340  10.711  35.566   0.415
80967W        W49341  11.709  29.043   3.842
80968W        W49342  11.229  16.284   4.261
80969W        W49343  26.584  15.774   5.142
80970W        W49344   9.776  42.907  14.308
80971W        W49345  41.838   1.930   0.257
80972W        W49346  43.826   0.265   2.755
80973W        W49347  30.513  28.508  13.319
80974W        W49348  27.651  40.405   1.907
80975W        W49349  37.500   1.328  10.492
80976W        W49350  12.620  10.201  14.954
80977W        W49351   6.285  10.730   2.304
80978W        W49352  18.182  37.528   1.379
80979W        W49353   4.209  15.578   2.709
80980W        W49354  37.043  33.125   4.742
80981W        W49355  36.523  37.564   3.305
80982W        W49356  38.403   4.428  12.479
80983W        W49357  20.574  38.375  10.159
80984W        W49358  28.466  36.476  12.456
80985W        W49359  38.534  13.133  12.931
80986W        W49360  20.613  43.791  10.623
80987W        W49361  10.305   6.816   2.289
80988W        W49362   0.484  14.116   3.309
80989W        W49363   3.325  18.559   0.803
80990W        W49364   0.854  14.144  11.860
80991W        W49365  32.594  32.564  12.908
80992W        W49366  42.917  39.980   4.270
80993W        W49367  23.058   8.264  13.444
80994W        W49368   0.837   2.931  11.481
80995W        W49369  11.232  13.237  11.515
80996W        W49370  33.078  40.039   4.155
80997W        W49371  10.816  22.520  13.388
80998W        W49372   5.405  40.358   2.227
80999W        W49373  42.000   4.940   1.778
81000W        W49374  40.002  36.957   4.792
81001W        W49375  35.921   1.452  13.981
81002W        W49376  14.667  34.519   4.281
81003W        W49377   1.788  16.098   2.374
81004W        W49378   5.776  26.535  10.503
81005W        W49379  26.070  23.054  12.568
81006W        W49380  26.165  12.786   3.691
81007W        W49381  41.998   7.347   2.332
81008W        W49382  13.339  27.492  12.534
81009W        W49383  36.932   6.792   4.766
81010W        W49384  19.103   1.383   3.850
81011W        W49385  16.120  32.019  14.934
81012W        W49386  38.465  30.480  12.084
81013W        W49387  44.786  12.201  13.941
81014W        W49388  20.612  30.101   3.248
81015W        W49389  21.754   1.257  11.066
81016W        W49390  24.985  40.513  14.477
81017W        W49391  27.544   0.276   2.858
81018W        W49392   5.305   8.842  12.841
81019W        W49393  14.685  33.576  10.624
81020W        W49394  12.841  18.560  10.626
81021W        W49395  32.023  14.733  11.598
81022W        W49396   0.409  37.554  11.482
81023W        W49397  22.718   6.201  13.321
81024W        W49398  43.006  38.557   0.948
81025W        W49399   6.376  31.623   0.399
81026W        W49400  38.941  40.401  10.623
81027W        W49401   2.896  11.816   2.274
81028W        W49402  18.789  38.566   4.646
81029W        W49403  36.035  26.677   3.188
81030W        W49404  19.638  13.282   1.211
81031W        W49405   3.421  16.793   1.899
81032W        W49406  41.862  40.904  14.504
81033W        W49407  34.476  31.923  13.393
81034W        W49408   4.215  12.285   4.262
81035W        W49409   7.397  28.666   4.312
81036W        W49410  18.724  37.991   1.875
81037W        W49411  36.907  33.521   1.700
81038W        W49412  11.734  41.786  10.993
81039W        W49413   5.307   7.724   1.777
81040W        W49414  19.212  39.919   4.683
81041W        W49415  27.102  21.262  11.608
81042W        W49416  35.435  34.567   3.199
81043W        W49417  33.540   4.309   4.314
81044W        W49418   2.390  11.863  10.432
81045W        W49419   5.334   6.276   2.703
81046W        W49420  25.005   8.879  12.354
81047W        W49421   2.829  22.024   3.685
81048W        W49422  23.673  11.848  13.425
81049W        W49423  15.202  18.787   2.888
81050W        W49424  12.720  20.561  14.889
81051W        W49425  17.263  37.915   2.816
81052W        W49426  40.896  36.019  11.053
81053W        W49427  32.125  14.678  12.452
81054W        W49428  42.943   4.821  11.869
81055W        W49429  37.426  22.548  10.520
81056W        W49430  42.349  10.642   4.203
81057W        W49431  36.446   0.324   2.275
81058W        W49432  11.213  32.558  13.459
81059W        W49433  29.628   4.809  10.062
81060W        W49434  17.306  23.727  13.041
81061W        W49435  31.464  32.458  14.846
81062W        W49436  32.598  25.083   4.741
81063W        W49437   5.378  22.137   0.418
81064W        W49438  42.913  37.028   0.243
81065W        W49439  25.211  24.539  14.407
81066W        W49440   7.866  23.184  14.445
81067W        W49441  19.190  11.196   1.811
81068W        W49442  35.073   7.290   0.360
81069W        W49443  39.978  28.163  14.760
81070W        W49444  26.589  38.034  13.904
81071W        W49445   9.228  32.483  11.978
81072W        W49446  29.051   6.842  10.441
81073W        W49447  40.950  33.518   3.842
81074W        W49448  26.681  40.513  12.532
81075W        W49449  24.027  18.124   2.311
81076W        W49450   1.879  16.157   3.644
81077W        W49451  29.164  42.382   3.821
81078W        W49452  20.729   2.342  10.520
81079W        W49453  33.395  20.056   0.905
81080W        W49454  19.630  26.132  12.886
81081W        W49455  40.938  28.451  10.460
81082W        W49456  17.268  31.116   1.263
81083W        W49457  20.073  26.151   3.267
81084W        W49458   5.769  24.090  13.342
81085W        W49459  32.606  15.675  10.915
81086W        W49460  29.482   0.301   3.191
81087W        W49461  18.564  38.067   3.359
81088W        W49462   6.854  33.040  14.925
81089W        W49463   7.767  43.482   1.889
81090W        W49464  40.850  14.340   2.247
81091W        W49465  30.013  24.147   4.311
81092W        W49466  20.151  13.225  14.013
81093W        W49467  32.054  29.083  12.371
81094W        W49468  17.735  15.757  13.060
81095W        W49469  24.551  39.014   3.344
81096W        W49470   9.731   6.293  11.075
81097W        W49471  13.240  40.915  12.990
81098W        W49472  44.785  23.657   4.215
81099W        W49473  36.868  14.308   3.844
81100W        W49474   0.869   4.280  11.068
81101W        W49475  44.820  34.609   3.752
81102W        W49476  33.929  39.397   3.254
81103W        W49477   7.855  13.331  13.543
81104W        W49478   7.198  19.066  11.405
81105W        W49479  10.800  20.591   2.352
81106W        W49480  25.186  36.392   4.720
81107W        W49481  43.385  28.484  14.288
81108W        W49482  34.070  26.136  14.492
81109W        W49483  15.753  44.923  13.469
81110W        W49484  42.000  35.440   0.752
81111W        W49485  41.026  15.093   3.298
81112W        W49486  10.859  12.734   2.205
81113W        W49487  27.984   8.235  11.084
81114W        W49488  34.557   0.396  10.495
81115W        W49489  20.163  14.167   2.410
81116W        W49490  38.543  24.162   3.216
81117W        W49491  32.431   4.847   4.619
81118W        W49492  16.672  41.910   0.319
81119W        W49493  39.439  11.805   3.682
81120W        W49494   3.790  24.496  11.390
81121W        W49495  26.461  11.841   4.159
81122W        W49496  12.330   4.423   2.849
81123W        W49497  42.310   9.299  10.479
81124W        W49498  28.674  33.941  13.445
81125W        W49499  10.854  10.221   4.654
81126W        W49500  38.060  13.186   1.885
81127W        W49501  14.775   1.447   1.907
81128W        W49502  19.553  33.525   3.243
81129W        W49503  18.580  18.737   1.434
81130W        W49504   6.319  24.196  12.493
81131W        W49505  40.375  35.396  11.110
81132W        W49506  21.259   1.888   9.937
81133W        W49507  40.394   8.222   1.788
81134W        W49508  11.855   4.277  11.593
81135W        W49509  13.677  16.315  14.427
81136W        W49510   1.398   1.290   0.284
81137W        W49511   5.874  30.054   3.153
81138W        W49512  29.068  19.682   4.117
81139W        W49513   0.943  33.542  10.899
81140W        W49514  13.247   6.259   4.324
81141W        W49515   4.233  39.479  12.835
81142W        W49516   1.461  29.012   3.832
81143W        W49517   9.155  29.568  12.861
81144W        W49518  40.529  20.252  12.024
81145W        W49519   6.883  17.170   1.337
81146W        W49520   9.360  24.021  14.030
81147W        W49521   2.817  22.044   1.734
81148W        W49522  37.925  21.675   1.388
81149W        W49523  28.670  26.207  13.401
81150W        W49524  24.696  15.697   0.417
81151W        W49525  42.924  27.121  12.848
81152W        W49526   2.788  38.945   1.372
81153W        W49527  20.257  29.975  14.784
81154W        W49528  17.118  34.931   3.697
81155W        W49529  31.546  26.700  14.490
81156W        W49530  41.531  40.972  11.878
81157W        W49531  34.551  22.056  12.036
81158W        W49532  19.047  31.645   3.811
81159W        W49533  22.527  23.702   0.467
81160W        W49534  16.245  15.151   2.752
81161W        W49535  29.142  24.640   4.275
81162W        W49536   7.701  26.462   2.808
81163W        W49537  30.429  25.085  10.565
81164W        W49538  12.855  23.186  12.361
81165W        W49539  38.348   8.718  12.878
81166W        W49540  28.956  39.906   3.733
81167W        W49541  38.376  18.599  10.622
81168W        W49542  44.356  30.613   0.862
81169W        W49543  40.025  18.611   0.881
81170W        W49544  44.426  29.619  14.409
81171W        W49545  21.705  42.371   4.252
81172W        W49546  12.618  26.053  14.405
81173W        W49547  18.789   8.247   1.785
81174W        W49548  23.725  33.009   4.223
81175W        W49549  27.650  35.442   4.154
81176W        W49550  20.637   7.200  11.509
81177W        W49551   0.280  18.645  10.950
81178W        W49552  10.300  29.636  14.764
81179W        W49553  39.375  28.943   4.739
81180W        W49554   2.469  43.347  13.841
81181W        W49555  44.263  36.579  14.414
81182W        W49556  39.407  30.643   0.767
81183W        W49557  31.611  23.595   4.216
81184W        W49558  41.828  19.109   1.405
81185W        W49559   4.258  40.322  13.052
81186W        W49560   6.340  41.453   4.196
81187W        W49561  12.792   2.874   0.894
81188W        W49562  22.214   7.214  13.375
81189W        W49563  42.525  36.443  12.974
81190W        W49564   5.341  32.954  13.813
81191W        W49565  35.550  17.725  12.418
81192W        W49566  44.501  40.314   1.367
81193W        W49567  31.564  40.370  10.514
81194W        W49568  37.860  37.079  11.969
81195W        W49569  32.542   2.325   2.312
81196W        W49570  39.940  43.397  13.040
81197W        W49571  12.804  11.155  12.543
81198W        W49572  36.032   7.845  13.366
81199W        W49573  28.185   0.827   2.724
81200W        W49574  18.146  39.942  11.492
81201W        W49575  38.468  13.143   1.232
81202W        W49576  12.315  41.946  14.987
81203W        W49577  36.073   0.940  10.632
81204W        W49578  25.696  25.055   4.715
81205W        W49579  19.708  27.661   3.833
81206W        W49580  41.013   1.916  14.803
81207W        W49581  24.036  17.082  11.119
81208W        W49582  28.672   9.209   3.385
81209W        W49583  19.125  12.741   4.229
81210W        W49584   8.765  19.660   1.228
81211W        W49585   8.685   5.798  13.860
81212W        W49586  16.165  44.481  11.979
81213W        W49587  26.652  28.642   3.796
81214W        W49588  32.923  34.501  12.348
81215W        W49589  16.716  13.693  14.477
81216W        W49590  21.226  43.944  10.432
81217W        W49591  32.589  29.973  12.838
81218W        W49592  23.999   1.285  12.510
81219W        W49593   6.906   1.383   2.380
81220W        W49594  43.483  17.688  12.859
81221W        W49595  15.609   0.320   0.363
81222W        W49596  33.004  21.109   3.770
81223W        W49597  33.508  14.177   3.275
81224W        W49598  19.193  34.923   2.901
81225W        W49599  11.677   7.344  13.981
81226W        W49600   3.262  42.799  13.055
81227W        W49601   0.789   6.922   2.795
81228W        W49602   5.368  42.460   1.781
81229W        W49603  25.017  43.811  14.496
81230W        W49604  25.132  24.161   1.801
81231W        W49605   3.278   5.364  14.322
81232W        W49606  29.647  14.711  12.537
81233W        W49607   4.870  27.173   1.721
81234W        W49608  23.094  11.176   1.361
81235W        W49609   7.742   1.451  12.059
81236W        W49610   6.215  38.031  13.830
81237W        W49611  17.634  40.963   3.301
81238W        W49612  42.517  42.913  14.362
81239W        W49613  44.412   8.721  14.009
81240W        W49614  29.006  32.494   1.933
81241W        W49615  36.456  32.019  10.982
81242W        W49616   5.898  16.737   4.162
81243W        W49617  44.407  21.213   4.735
81244W        W49618   2.258  34.585  11.493
81245W        W49619  36.436  41.844   0.927
81246W        W49620   0.940  28.963   0.442
81247W        W49621  37.944  10.348  11.599
81248W        W49622   9.835   3.392   0.267
81249W        W49623  15.097  41.366  14.978
81250W        W49624  27.947  18.569  12.887
81251W        W49625  12.712  39.325   3.193
81252W        W49626  37.973  24.053  12.922
81253W        W49627  37.451  28.536   4.674
81254W        W49628  31.106  14.277   0.439
81255W        W49629  43.904  16.813   0.740
81256W        W49630  38.005  21.224   2.356
81257W        W49631   8.191  25.073  12.088
81258W        W49632  15.694  25.156  11.380
81259W        W49633  41.974  11.722  14.417
81260W        W49634  39.809   1.359  13.922
81261W        W49635  24.610  24.652  13.882
81262W        W49636  26.620  44.449  11.603
81263W        W49637  29.556  20.555  10.923
81264W        W49638  37.899  41.989  11.092
81265W        W49639  42.460  23.672  12.022
81266W        W49640  32.636   2.275  11.557
81267W        W49641   4.298  28.970   2.794
81268W        W49642  42.811   3.274  14.802
81269W        W49643  34.455  37.972   1.791
81270W        W49644  43.299  11.677  14.494
81271W        W49645  20.127  36.540  11.536
81272W        W49646  29.601  12.793  10.588
81273W        W49647   0.979   2.292   3.211
81274W        W49648  14.772   2.787  14.866
81275W        W49649   2.404   9.238  12.085
81276W        W49650  19.198  40.501   1.806
81277W        W49651   5.211  37.515   3.703
81278W        W49652   6.230  23.193   4.828
81279W        W49653   4.839  17.623  12.481
81280W        W49654  32.485  28.581   4.255
81281W        W49655  30.559  18.597  12.064
81282W        W49656  10.795  35.924  13.430
81283W        W49657   3.723  28.950   0.247
81284W        W49658  24.161   3.823   4.325
81285W        W49659  14.158  19.075   4.136
81286W        W49660  23.663  16.167   2.386
81287W        W49661  36.573  25.484   1.869
81288W        W49662  32.060  10.314   4.307
81289W        W49663  13.680   1.425   3.648
81290W        W49664  17.099   9.772   3.184
81291W        W49665  27.503  35.007   1.866
81292W        W49666  35.587  43.791   2.818
81293W        W49667  10.166  34.029   4.208
81294W        W49668   8.266   6.845  12.367
81295W        W49669  39.929  25.178  12.052
81296W        W49670  30.930  39.951   2.875
81297W        W49671  11.688  35.091  14.430
81298W        W49672   7.694  23.157   1.897
81299W        W49673  15.668   0.346   3.670
81300W        W49674   7.324  23.138   3.180
81301W        W49675  18.067   2.834  10.484
81302W        W49676  19.044  35.591  11.886
81303W        W49677  13.206  35.096   2.231
81304W        W49678  28.625  11.282   2.191
81305W        W49679  11.331   9.371  12.058
81306W        W49680  36.881  19.560   3.717
81307W        W49681  34.424  25.154   4.170
81308W        W49682   4.940  34.920   3.700
81309W        W49683  42.410   2.944  12.476
81310W        W49684  32.902  37.945   3.676
81311W        W49685  18.065  31.959  11.911
81312W        W49686  44.780  25.191  14.763
81313W        W49687  28.186  10.366  14.336
81314W        W49688  14.710  21.667  13.472
81315W        W49689  44.976  31.572  14.864
81316W        W49690  20.254  17.218   2.711
81317W        W49691  11.834  16.079  14.329
81318W        W49692  38.839  27.069  14.980
81319W        W49693  34.092  44.791   2.330
81320W        W49694  36.926  31.153   3.310
81321W        W49695  43.015  39.420  13.341
81322W        W49696   1.743  13.297   3.200
81323W        W49697  21.044   1.286   0.872
81324W        W49698  44.960   5.846  13.540
81325W        W49699  29.453  37.994  14.004
81326W        W49700   4.449  41.478   2.379
81327W        W49701   6.757  30.147  14.324
81328W        W49702  15.619   1.453   4.753
81329W        W49703  32.128  36.521  13.540
81330W        W49704  26.533  39.004  13.983
81331W        W49705   2.423  14.180  11.448
81332W        W49706  24.542  30.067   0.392
81333W        W49707  38.327  28.158  10.619
81334W        W49708  29.512  22.584  13.005
81335W        W49709  12.618   1.317  10.553
81336W        W49710  14.329  16.217   1.341
81337W        W49711  36.084  18.148  12.488
81338W        W49712  21.613   6.184   4.298
81339W        W49713  38.489  29.465   1.722
81340W        W49714  36.898   0.751   2.723
81341W        W49715  40.478  42.347  11.909
81342W        W49716   9.184  41.335   0.753
81343W        W49717  21.220  19.167   4.801
81344W        W49718  35.897  20.532   1.715
81345W        W49719  18.141  24.663   4.701
81346W        W49720  33.392  14.311   2.892
81347W        W49721  27.050  16.648   3.658
81348W        W49722  11.349  40.530   0.810
81349W        W49723   8.747  20.229  13.478
81350W        W49724   3.755  43.471   0.336
81351W        W49725  35.435  23.210   1.877
81352W        W49726  22.524  44.408   1.222
81353W        W49727   6.194  30.423  13.894
81354W        W49728   3.718  10.168  14.467
81355W        W49729   5.792  34.436   1.806
81356W        W49730  40.381  35.366   4.691
81357W        W49731   8.885  13.190  14.397
81358W        W49732  11.746   4.284  14.884
81359W        W49733  30.164   3.863   0.267
81360W        W49734  42.787   5.280  14.327
81361W        W49735  21.621  18.587   0.864
81362W        W49736   2.839  28.461   4.676
81363W        W49737  42.522  43.902   3.209
81364W        W49738   8.866  32.046   0.445
81365W        W49739   9.218  25.537   0.787
81366W        W49740  13.661  11.339   2.778
81367W        W49741   8.719  22.165  11.517
81368W        W49742  13.681  43.284  11.864
81369W        W49743  14.595  39.446  12.341
81370W        W49744  20.269  21.703  13.379
81371W        W49745  32.962  16.156  13.547
81372W        W49746  32.105  26.534   2.393
81373W        W49747  32.555  16.305  11.089
81374W        W49748   9.323  29.635  11.608
81375W        W49749  37.876   0.921  13.903
81376W        W49750  37.077  28.942   4.282
81377W        W49751  32.018  42.820  14.931
81378W        W49752  12.628  19.233   2.876
81379W        W49753  31.554   7.318  12.435
81380W        W49754  11.700  28.136   5.222
81381W        W49755   9.680  27.519  12.087
81382W        W49756  26.622  32.948   1.713
81383W        W49757  30.570  12.842  10.963
81384W        W49758  21.197  27.977   1.232
81385W        W49759  20.242  39.906  12.493
81386W        W49760  23.538  29.536  14.982
81387W        W49761  35.901  13.114  12.528
81388W        W49762  41.350  20.191   1.379
81389W        W49763  36.585  21.200  11.039
81390W        W49764   9.390   6.751   3.330
81391W        W49765  24.090  39.506  12.941
81392W        W49766   7.293  12.695   0.786
81393W        W49767   8.337  31.062   2.712
81394W        W49768  32.533   9.643  13.380
81395W        W49769  25.692  40.330  13.836
81396W        W49770   4.903  28.979  10.517
81397W        W49771  42.852   3.812   2.375
81398W        W49772  18.160  35.563  13.497
81399W        W49773  14.627   3.256   1.412
81400W        W49774  21.754  25.532   1.351
81401W        W49775  15.692  14.216  10.959
81402W        W49776   1.248  31.118   4.778
81403W        W49777  20.058   7.374  13.353
81404W        W49778  10.268  39.814  10.144
81405W        W49779   1.346  21.710   3.670
81406W        W49780  42.307  31.450   0.814
81407W        W49781  32.071  43.408  11.030
81408W        W49782  10.286   1.287   0.735
81409W        W49783   0.436  37.520   2.726
81410W        W49784  30.936   2.438   4.788
81411W        W49785   8.672  36.469  13.054
81412W        W49786  33.094  24.079  14.820
81413W        W49787  27.662  11.674  11.881
81414W        W49788   6.826   8.803  12.537
81415W        W49789  23.608  13.707   3.160
81416W        W49790  19.097  10.224  11.013
81417W        W49791   4.726   9.888   4.257
81418W        W49792   0.447   2.940   2.296
81419W        W49793  30.986  34.564   4.215
81420W        W49794  30.007  28.647   3.756
81421W        W49795   2.226   7.393   3.347
81422W        W49796  20.156  35.508  10.446
81423W        W49797  32.922  36.885  13.942
81424W        W49798  11.706  43.400  11.111
81425W        W49799   4.891  18.209   0.407
81426W        W49800  32.043  16.797   4.154
81427W        W49801  22.244   6.193   2.665
81428W        W49802   8.882  22.615   4.147
81429W        W49803  26.053  13.351   2.280
81430W        W49804  27.642   2.730   3.212
81431W        W49805   5.255  31.966   3.287
81432W        W49806   6.211  22.198   4.832
81433W        W49807  18.662  18.220  10.901
81434W        W49808  12.323  13.133  12.890
81435W        W49809   1.776  37.546  14.982
81436W        W49810  23.670  19.140  13.454
81437W        W49811  38.346  14.243   0.742
81438W        W49812   1.246   4.390   1.244
81439W        W49813   6.711  25.697  11.106
81440W        W49814  36.932  23.639  13.441
81441W        W49815  24.213  30.600  10.517
81442W        W49816  43.281  22.616  14.447
81443W        W49817  35.930  44.358   1.753
81444W        W49818  30.514  20.755   2.809
81445W        W49819  10.841   4.354  14.364
81446W        W49820  33.618  24.173  13.466
81447W        W49821  37.540  21.706  13.909
81448W        W49822  43.010  36.426  12.430
81449W        W49823   2.394   6.194  10.444
81450W        W49824  10.276  28.478   3.219
81451W        W49825  37.955  10.316   0.433
81452W        W49826  32.574   6.323   2.233
81453W        W49827  33.530  18.081   4.257
81454W        W49828  14.323  36.880  10.461
81455W        W49829   3.779  36.904  10.892
81456W        W49830  37.033  44.837   2.419
81457W        W49831  23.532  40.473   2.353
81458W        W49832  19.629  16.084   4.323
81459W        W49833  21.593   1.912  12.083
81460W        W49834  19.219  41.908  11.076
81461W        W49835   1.928   7.326  14.893
81462W        W49836  29.027  25.079   2.763
81463W        W49837  23.993   3.365  11.609
81464W        W49838   5.746  18.790   1.848
81465W        W49839  12.654  31.986  11.994
81466W        W49840  39.519  13.313   2.814
81467W        W49841  25.207  23.040  13.458
81468W        W49842   5.216  22.172  10.540
81469W        W49843  32.890  10.377  11.962
81470W        W49844   3.448  22.627  11.592
81471W        W49845  29.569   1.772  14.972
81472W        W49846  17.612  11.788  13.032
81473W        W49847  14.716  29.061  11.019
81474W        W49848   0.832  15.128  13.367
81475W        W49849   8.681   3.817   2.298
81476W        W49850  11.820  44.970  14.974
81477W        W49851  21.027  12.641  13.985
81478W        W49852  20.536  15.593   3.755
81479W        W49853  24.532  11.345  14.327
81480W        W49854  27.559  24.676   0.950
81481W        W49855   7.676   3.232  11.475
81482W        W49856  43.282  27.079  12.565
81483W        W49857  25.491  15.807  12.461
81484W        W49858  31.583   0.450   4.805
81485W        W49859  33.999   3.929  11.532
81486W        W49860   0.986   6.250   2.313
81487W        W49861  21.698   7.798  12.852
81488W        W49862  28.660  27.575  13.996
81489W        W49863  25.581   8.746  12.860
81490W        W49864   5.383  36.547   4.751
81491W        W49865  25.134  41.814   0.390
81492W        W49866  39.336   9.395  10.584
81493W        W49867   5.841  22.117   0.380
81494W        W49868   0.912  42.839  12.931
81495W        W49869   7.870   9.815   1.384
81496W        W49870  27.596   8.402   4.184
81497W        W49871   6.883  26.206   4.625
81498W        W49872  41.508  40.360   4.344
81499W        W49873  15.291  28.571  13.524
81500W        W49874  44.425   7.903   3.734
81501W        W49875  41.328  40.465  11.891
81502W        W49876   9.713  19.638   3.147
81503W        W49877  24.169  11.817   1.407
81504W        W49878  27.676  42.803  14.874
81505W        W49879  41.000  31.582  12.491
81506W        W49880  41.403  13.127   1.337
81507W        W49881  23.548  14.685   4.659
81508W        W49882   4.698  13.137  10.490
81509W        W49883  27.958  20.740   1.885
81510W        W49884  44.441  36.541   0.313
81511W        W49885  37.977  24.612   4.166
81512W        W49886   6.316  27.654   4.657
81513W        W49887  27.528   5.220  10.469
81514W        W49888  14.695   5.242  11.864
81515W        W49889  20.751   0.804   2.854
81516W        W49890  15.716  31.931   0.770
81517W        W49891   5.390  35.090   1.335
81518W        W49892  21.582  26.195  13.904
81519W        W49893  23.500  12.634  12.482
81520W        W49894  26.515  18.133   1.763
81521W        W49895  31.444   6.390   0.781
81522W        W49896  27.003  25.644  14.286
81523W        W49897  37.453  27.065  12.858
81524W        W49898  31.414  17.066   3.335
81525W        W49899  29.461   5.341   4.724
81526W        W49900   0.984  40.374  13.840
81527W        W49901  35.448  43.934  14.440
81528W        W49902  40.046  19.736  10.544
81529W        W49903  13.252  28.524  12.905
81530W        W49904  21.110  31.523  13.388
81531W        W49905  15.790  23.206  12.394
81532W        W49906  44.443  36.373   2.391
81533W        W49907  24.065   5.267   0.307
81534W        W49908  16.701  22.071   4.170
81535W        W49909  17.163  12.333  12.354
81536W        W49910  25.974   5.436   4.641
81537W        W49911  23.111  22.585  11.408
81538W        W49912   9.297   8.216   3.752
81539W        W49913  31.064  14.754  13.996
81540W        W49914  13.295  13.234   5.109
81541W        W49915   6.408  32.554   4.613
81542W        W49916  44.281  28.028   5.137
81543W        W49917  10.306  22.008   2.343
81544W        W49918  23.007  42.839  13.932
81545W        W49919  38.950  36.894   2.864
81546W        W49920  29.957  22.621  10.592
81547W        W49921  40.386  26.547  14.010
81548W        W49922  14.313  43.430  12.356
81549W        W49923   5.724  21.731  14.778
81550W        W49924  12.817  17.616   4.609
81551W        W49925  26.041   2.851   0.456
81552W        W49926   6.241  32.500   1.434
81553W        W49927  30.538  24.116   0.272
81554W        W49928   7.332  15.793  12.371
81555W        W49929  12.279   5.419   1.868
81556W        W49930  34.018  16.267  14.834
81557W        W49931   9.197  15.590  12.447
81558W        W49932  39.862  41.874   3.753
81559W        W49933  40.869  16.251  10.965
81560W        W49934  20.612   0.455   4.206
81561W        W49935  22.214  29.148   1.922
81562W        W49936  41.295   2.301   5.179
81563W        W49937  12.823  17.138  12.862
81564W        W49938  38.560  21.148   0.851
81565W        W49939  15.305  30.094  12.065
81566W        W49940  29.164  26.183   3.828
81567W        W49941  30.959  26.119   4.641
81568W        W49942  36.385  24.078  13.900
81569W        W49943   5.928  42.430   3.246
81570W        W49944  36.897   3.344  11.443
81571W        W49945  19.152  26.051   1.360
81572W        W49946  31.541  16.183  14.017
81573W        W49947  17.233  18.226   3.702
81574W        W49948  34.506  18.639   3.705
81575W        W49949  27.034  42.326   1.779
81576W        W49950   9.237  33.900   3.691
81577W        W49951  10.154  26.173  14.405
81578W        W49952   7.830   6.702   4.241
81579W        W49953  22.695  38.952  14.964
81580W        W49954  35.461  22.584   0.936
81581W        W49955  36.868  10.649  11.482
81582W        W49956  35.597  17.276   3.718
81583W        W49957  22.744  43.446   3.808
81584W        W49958  31.601  17.093   0.439
81585W        W49959  11.706  25.600  14.484
81586W        W49960  39.836  36.028  13.817
81587W        W49961  32.417  18.056  14.031
81588W        W49962  17.197  24.533   3.712
81589W        W49963  40.901   0.752   0.382
81590W        W49964  10.876   5.251  11.461
81591W        W49965  26.200   5.820  12.063
81592W        W49966  31.538  34.394  12.933
81593W        W49967  20.614  32.058   1.786
81594W        W49968  30.923  36.875   0.892
81595W        W49969   7.732  28.638   2.686
81596W        W49970  20.072  34.015   1.771
81597W        W49971   7.285  12.833  11.915
81598W        W49972  25.622  13.227   0.804
81599W        W49973  13.222  17.566   3.155
81600W        W49974  12.704  31.916   2.380
81601W        W49975  29.949  10.250   3.356
81602W        W49976   8.824   3.835   1.441
81603W        W49977  20.180  34.877   2.726
81604W        W49978  33.942  37.380  14.792
81605W        W49979  20.761  20.602  12.494
81606W        W49980  13.263  21.074  12.467
81607W        W49981  35.431   3.751  13.934
81608W        W49982  34.075  17.174  12.420
81609W        W49983   0.870   5.804  12.534
81610W        W49984   2.854  20.070   3.199
81611W        W49985  25.157  17.217   3.216
81612W        W49986  35.862   5.197  13.463
81613W        W49987  20.254  44.295  12.843
81614W        W49988   5.868  30.543   4.689
81615W        W49989  37.077   6.403   0.454
81616W        W49990  20.599  35.540   2.348
81617W        W49991  17.621  29.057  11.447
81618W        W49992  33.065  27.143   3.836
81619W        W49993  32.442   9.308  13.848
81620W        W49994  42.512  15.727   4.697
81621W        W49995  25.090  40.341  10.908
81622W        W49996  24.987  24.601   0.464
81623W        W49997  30.103  26.963   2.766
81624W        W49998  13.319  34.524  12.417
81625W        W49999  12.298   1.939   4.271
81626W        W50000  35.592  20.145  11.897
81627W        W50001  42.832  28.677  13.870
81628W        W50002   1.308  40.920  11.985
81629W        W50003  20.076  40.916  10.542
81630W        W50004  23.608  24.531   1.757
81631W        W50005  27.672  23.995   0.965
81632W        W50006  15.724   4.815   2.893
81633W        W50007  44.788  15.677  14.758
81634W        W50008  43.773   5.896  14.504
81635W        W50009  38.059  43.957   2.718
81636W        W50010  25.483   2.895   1.289
81637W        W50011   7.816  11.173  10.979
81638W        W50012  21.220   4.755  13.489
81639W        W50013  36.465  40.354   5.257
81640W        W50014  15.690  28.061  10.543
81641W        W50015  20.731  12.192  14.949
81642W        W50016   7.876  34.590  14.920
81643W        W50017   4.329  17.733   0.916
81644W        W50018  12.729  43.471   4.620
81645W        W50019  37.871  16.659   4.776
81646W        W50020  35.900   6.806  12.346
81647W        W50021  44.340   7.798  10.642
81648W        W50022  11.695  33.582  12.486
81649W        W50023  25.540  17.742  14.296
81650W        W50024  32.044  27.668   0.890
81651W        W50025  25.604  43.499   2.829
81652W        W50026   1.801  23.998   0.947
81653W        W50027  32.083   7.336  11.445
81654W        W50028   3.424  32.455  13.817
81655W        W50029  29.168  30.634  13.340
81656W        W50030   4.340  30.018   0.480
81657W        W50031  42.326  37.838  13.325
81658W        W50032  24.548  18.775   4.340
81659W        W50033  30.632  32.923  14.285
81660W        W50034  32.478  17.164   0.780
81661W        W50035  38.047  22.212  11.472
81662W        W50036   6.255  25.472   4.186
81663W        W50037  43.996  23.058   0.372
81664W        W50038   2.282  39.555   2.700
81665W        W50039  41.412  21.032   5.181
81666W        W50040  14.158  35.975  14.868
81667W        W50041  19.283  13.199   2.808
81668W        W50042  11.698  22.627   2.832
81669W        W50043   2.313  10.778  11.860
81670W        W50044  11.701  32.968  12.959
81671W        W50045  32.577  37.833  13.316
81672W        W50046  19.762  16.696  13.906
81673W        W50047   2.759  27.005   0.787
81674W        W50048  35.564  36.557   2.843
81675W        W50049  27.173  41.406   1.263
81676W        W50050  38.912  12.681  10.992
81677W        W50051  39.456   1.814  13.367
81678W        W50052  16.265  38.406  14.279
81679W        W50053  20.182  42.867   2.712
81680W        W50054  16.732  24.603   1.451
81681W        W50055  13.760  29.436  14.877
81682W        W50056  27.540  44.875  12.030
81683W        W50057   4.729  33.473  12.938
81684W        W50058  28.978   8.686  14.365
81685W        W50059  10.169  44.932  13.546
81686W        W50060  40.349  25.706  10.436
81687W        W50061  31.153  20.741   0.886
81688W        W50062  13.786   3.879  13.884
81689W        W50063  42.523   5.348   4.748
81690W        W50064   8.328  18.069   0.336
81691W        W50065  31.997  19.709  14.886
81692W        W50066  15.640  17.220   1.425
81693W        W50067  11.753  43.515  10.452
81694W        W50068  20.652  26.187  12.973
81695W        W50069  24.199  37.926  13.040
81696W        W50070  37.874   9.807  11.375
81697W        W50071   8.883  32.595  10.495
81698W        W50072  29.955  33.484  11.395
81699W        W50073   4.309  25.089   0.896
81700W        W50074   1.292  28.450   1.866
81701W        W50075  42.289   4.817  10.501
81702W        W50076  44.754  42.016  10.580
81703W        W50077  25.140  24.721  13.490
81704W        W50078  13.804  27.062  14.324
81705W        W50079  17.157  44.758  11.531
81706W        W50080   5.385  43.412   4.337
81707W        W50081  26.602  36.091  10.890
81708W        W50082  31.487  44.305  14.404
81709W        W50083  43.361  14.305  14.839
81710W        W50084  28.947  18.679  11.966
81711W        W50085   5.303  41.311  11.128
81712W        W50086  18.134  42.877   2.352
81713W        W50087  34.021  43.990  12.440
81714W        W50088   0.868   8.227   2.389
81715W        W50089  16.732  22.152   3.286
81716W        W50090  13.265  10.689  10.541
81717W        W50091  36.061  15.211  10.953
81718W        W50092  43.271   8.171  14.294
81719W        W50093  37.949  20.101  12.417
81720W        W50094  33.447  10.751  11.889
81721W        W50095   3.949  15.764   3.242
81722W        W50096   5.890   0.290  14.444
81723W        W50097  31.063  27.074  12.057
81724W        W50098  42.819  30.536  13.426
81725W        W50099  37.858  19.542   0.319
81726W        W50100  36.083  20.662  10.432
81727W        W50101  44.937  44.486  12.489
81728W        W50102  41.292  24.484  11.599
81729W        W50103  31.421  16.655  11.887
81730W        W50104  14.165   8.289   2.811
81731W        W50105  17.107   0.433   0.365
81732W        W50106  38.821  37.416  11.047
81733W        W50107   0.828  19.136   2.827
81734W        W50108  42.815  30.651  11.936
81735W        W50109  38.458  37.877   4.270
81736W        W50110   3.355   1.889  13.328
81737W        W50111  35.384  21.118  12.992
81738W        W50112   4.755  36.549   1.417
81739W        W50113  38.387  44.776   4.693
81740W        W50114  31.100   7.337   4.650
81741W        W50115  19.239   4.209   4.131
81742W        W50116   5.923  19.629  13.899
81743W        W50117  18.586  34.977   9.965
81744W        W50118  28.452  22.123  14.787
81745W        W50119  35.451  19.607   5.314
81746W        W50120  16.790   2.302  11.904
81747W        W50121  22.709  30.647   5.263
81748W        W50122   1.294  26.007  14.309
81749W        W50123  44.780  32.895  14.366
81750W        W50124   5.417  31.942   1.757
81751W        W50125  25.183  38.398   4.834
81752W        W50126  41.874  25.527   1.303
81753W        W50127   5.744   9.834  11.605
81754W        W50128  23.557  31.603   4.253
81755W        W50129  38.481   1.288  11.113
81756W        W50130  40.037  37.078   0.866
81757W        W50131  25.113   3.277   3.245
81758W        W50132  26.091  43.388  14.926
81759W        W50133  39.316  34.914   4.268
81760W        W50134   3.262  17.674   1.271
81761W        W50135   6.401  23.630   2.867
81762W        W50136  25.095  20.138  13.921
81763W        W50137  17.076  27.596  14.456
81764W        W50138   0.248  37.337   0.326
81765W        W50139  28.635  29.436   0.332
81766W        W50140  34.082  10.319  12.446
81767W        W50141   7.749  40.028  12.842
81768W        W50142   5.281   4.428   3.267
81769W        W50143  27.989  15.306   2.781
81770W        W50144  43.824  33.422   1.427
81771W        W50145   9.857  31.045  14.327
81772W        W50146  26.611  11.373  14.871
81773W        W50147   5.406  14.234   5.179
81774W        W50148  11.777  18.680  13.916
81775W        W50149  32.006  28.473  10.497
81776W        W50150  26.617  17.148  13.388
81777W        W50151  36.003   2.346  11.393
81778W        W50152  44.472  27.165   4.821
81779W        W50153   3.250  12.222  12.471
81780W        W50154  39.005  12.698  12.004
81781W        W50155  33.379  38.995   2.218
81782W        W50156  37.530  17.631  14.332
81783W        W50157   7.910  12.708  14.768
81784W        W50158  29.634  44.407  14.787
81785W        W50159  24.126  38.944  11.605
81786W        W50160   7.181  10.186  11.410
81787W        W50161  38.494   5.779  13.347
81788W        W50162  35.413  14.715  11.105
81789W        W50163   1.254   3.806  12.457
81790W        W50164  26.011  13.261  14.941
81791W        W50165  24.541  28.091  14.904
81792W        W50166  29.430  18.199   1.290
81793W        W50167  32.611  23.014  14.436
81794W        W50168   9.183   1.773  11.508
81795W        W50169   9.355  21.036   2.409
81796W        W50170   9.878  17.207  12.888
81797W        W50171  18.095  39.859  10.450
81798W        W50172  14.600   9.264   2.398
81799W        W50173  11.173  30.911   3.764
81800W        W50174  32.984  22.021   4.268
81801W        W50175  40.938  20.152   0.754
81802W        W50176  38.842  41.391  13.971
81803W        W50177  15.288  33.034   1.696
81804W        W50178  22.204  11.651  11.858
81805W        W50179  40.937  13.253   0.930
81806W        W50180   6.267  34.605  10.570
81807W        W50181  21.604  20.554  14.876
81808W        W50182  34.404  32.951  13.354
81809W        W50183   9.818  11.372  14.849
81810W        W50184   9.755  31.433   1.849
81811W        W50185  39.436  33.442   4.762
81812W        W50186  18.753  24.995  13.374
81813W        W50187  11.679  31.632   3.784
81814W        W50188  12.728   9.272   0.825
81815W        W50189  40.893  16.300   0.340
81816W        W50190  22.544  42.966   1.705
81817W        W50191  24.479  26.953   2.278
81818W        W50192  24.199  36.033   5.114
81819W        W50193  21.258  13.315   1.902
81820W        W50194  43.286  25.534  10.404
81821W        W50195  44.000   9.677  12.393
81822W        W50196  35.872  44.461  10.927
81823W        W50197  34.982  20.681  12.921
81824W        W50198  17.566  36.529  13.812
81825W        W50199  10.283  19.257   3.826
81826W        W50200  26.059  29.514  13.041
81827W        W50201   3.716  29.061  13.973
81828W        W50202   0.744   9.243  14.323
81829W        W50203   8.702   1.321   3.207
81830W        W50204   3.762  27.170   0.266
81831W        W50205  23.641   3.944   4.615
81832W        W50206  20.121  12.827   3.170
81833W        W50207   2.426   6.415   1.298
81834W        W50208  34.970  17.564   0.469
81835W        W50209   2.913   1.298  14.421
81836W        W50210  31.945  12.801  10.915
81837W        W50211  26.058   9.719   2.191
81838W        W50212   0.960  11.149   1.724
81839W        W50213  13.352  41.499  10.002
81840W        W50214  21.157  16.654  14.339
81841W        W50215  22.519   6.326  12.834
81842W        W50216  19.145  10.144  14.905
81843W        W50217  41.440  20.722   0.823
81844W        W50218  16.079  43.866  10.636
81845W        W50219  39.995  15.204   2.295
81846W        W50220   7.854  43.852  11.026
81847W        W50221  10.743  15.785   2.302
81848W        W50222  26.666  43.508   5.177
81849W        W50223  42.329  21.210  13.416
81850W        W50224  15.177  34.547   3.825
81851W        W50225  27.980  12.705  13.892
81852W        W50226   2.819   7.860   3.330
81853W        W50227  24.487  44.389   0.259
81854W        W50228  43.313  19.726  14.502
81855W        W50229  15.191  31.967   3.363
81856W        W50230  22.544  28.610   3.362
81857W        W50231  29.920  27.110  14.803
81858W        W50232   7.852  21.676   1.880
81859W        W50233   9.380  15.595   1.296
81860W        W50234  11.225  25.622  11.374
81861W        W50235  33.956  20.049   4.264
81862W        W50236  38.996  39.886  10.580
81863W        W50237  23.133  39.001  14.978
81864W        W50238  36.063   3.941   1.265
81865W        W50239  38.959  24.190   2.226
81866W        W50240  17.149  37.432   1.308
81867W        W50241  32.418  41.494  11.526
81868W        W50242  37.946  38.549  14.466
81869W        W50243  22.572  25.651   4.632
81870W        W50244  30.048  17.133  11.443
81871W        W50245  22.112  28.672   3.694
81872W        W50246  33.587  43.974  12.016
81873W        W50247  43.008   5.789   2.419
81874W        W50248  27.528  10.297  10.976
81875W        W50249  27.953  26.967   4.199
81876W        W50250  38.985  17.239   0.259
81877W        W50251  10.868  17.294   3.699
81878W        W50252  19.149  24.160   2.813
81879W        W50253  27.131  35.481  10.524
81880W        W50254  10.220  34.481   1.420
81881W        W50255   7.211   6.742   0.269
81882W        W50256  25.519  39.547  11.099
81883W        W50257   7.206  19.123  14.308
81884W        W50258  26.015  15.651   2.208
81885W        W50259  14.132  20.157   1.253
81886W        W50260  40.470  33.607   1.694
81887W        W50261  17.721  41.031  14.925
81888W        W50262  39.942  42.928  11.026
81889W        W50263  23.644  26.607   9.999
81890W        W50264  27.575  31.996   3.324
81891W        W50265  38.016  38.412   1.316
81892W        W50266  32.960  29.929  14.894
81893W        W50267  16.261  10.295  10.535
81894W        W50268   6.828   3.729  13.470
81895W        W50269  25.684  44.958   2.240
81896W        W50270   1.411  40.521  10.643
81897W        W50271  43.944  37.889  13.811
81898W        W50272   6.844  22.022   1.217
81899W        W50273  29.489   6.343   3.837
81900W        W50274   2.273  34.958   0.838
81901W        W50275   6.332  15.753  11.081
81902W        W50276  24.088   5.280  14.326
81903W        W50277   5.736  14.703   3.370
81904W        W50278  14.099  30.144   3.149
81905W        W50279   6.853   6.391   0.918
81906W        W50280   9.218  25.986   3.317
81907W        W50281   5.777   7.380   2.892
81908W        W50282  19.763  41.028   4.623
81909W        W50283  26.494  23.029   1.905
81910W        W50284  39.516  19.745   1.337
81911W        W50285   4.940  14.154   3.169
81912W        W50286   8.771  15.742   0.256
81913W        W50287  43.356  32.566  10.988
81914W        W50288  23.598  12.797  11.123
81915W        W50289  40.896  15.637  12.892
81916W        W50290   9.345  16.646   3.809
81917W        W50291  22.231  43.951  12.077
81918W        W50292  22.719  19.690   0.809
81919W        W50293  31.098   0.758   2.362
81920W        W50294  28.951  20.726   0.950
81921W        W50295  41.509  29.633   4.161
81922W        W50296  16.117   8.369  14.321
81923W        W50297  17.304  25.687  14.321
81924W        W50298  24.067  10.200  12.076
81925W        W50299  12.726  37.006  11.024
81926W        W50300   8.216  32.003   4.117
81927W        W50301  10.723  11.337   1.212
81928W        W50302  19.144  28.555  14.300
81929W        W50303  21.190  24.678  12.382
81930W        W50304  43.915  41.812  13.308
81931W        W50305  34.934  15.723   4.127
81932W        W50306  13.621  37.484   1.786
81933W        W50307  15.765   4.238  13.938
81934W        W50308  18.717  17.191  14.869
81935W        W50309   5.741  40.469  14.462
81936W        W50310  35.404  15.605  11.520
81937W        W50311  38.048  12.846  14.909
81938W        W50312  10.654  14.711   3.826
81939W        W50313   9.363  23.180   0.326
81940W        W50314  26.513  35.928   3.709
81941W        W50315  23.121  24.671   1.845
81942W        W50316  22.144  26.988   1.410
81943W        W50317  31.564  19.094  11.455
81944W        W50318   2.343   9.880   1.444
81945W        W50319  36.353  20.544   3.193
81946W        W50320  39.349  13.239   1.935
81947W        W50321  43.461  16.132   0.438
81948W        W50322  13.767  18.051   4.304
81949W        W50323  13.742  18.277   0.838
81950W        W50324  44.765  43.970   3.162
81951W        W50325  29.516  14.827  11.589
81952W        W50326  21.729  24.160   2.744
81953W        W50327  22.095  21.051   4.314
81954W        W50328  28.514  44.444  11.919
81955W        W50329  24.089  22.010  10.051
81956W        W50330  39.843  11.335  10.504
81957W        W50331  41.420  34.375   2.832
81958W        W50332  29.141  42.927  11.858
81959W        W50333   8.777   6.733   4.320
81960W        W50334  22.079  24.625   4.831
81961W        W50335   3.786  14.592  12.564
81962W        W50336  35.400  10.796   0.463
81963W        W50337  13.709  38.037   1.230
81964W        W50338   1.837  23.024   1.728
81965W        W50339  14.636  21.520  10.980
81966W        W50340  17.138  11.319   0.960
81967W        W50341  42.352  10.290  14.943
81968W        W50342  10.365  32.520   1.746
81969W        W50343  40.806  38.943  13.949
81970W        W50344  19.575   2.912   3.178
81971W        W50345  17.791  21.145  12.867
81972W        W50346  16.746  31.621  13.972
81973W        W50347   5.379  41.327   3.367
81974W        W50348  32.425  13.319   2.264
81975W        W50349  38.473  29.053  12.409
81976W        W50350  34.543  32.928   2.414
81977W        W50351  15.623  11.185  13.513
81978W        W50352  41.937   0.884  11.068
81979W        W50353  36.556  42.987  11.397
81980W        W50354  10.273  33.431  11.118
81981W        W50355  21.679   9.311   0.453
81982W        W50356  27.623  44.443   3.282
81983W        W50357  26.017  15.604   3.836
81984W        W50358  29.143  43.402   4.227
81985W        W50359  13.670  10.276   0.961
81986W        W50360   6.876  40.396  14.816
81987W        W50361   3.807  37.532  14.397
81988W        W50362  19.081  15.204  14.304
81989W        W50363  29.649  42.509   4.730
81990W        W50364   2.231  11.802  10.987
81991W        W50365  14.610  17.652   3.308
81992W        W50366   8.849   9.302  11.941
81993W        W50367  29.550   4.882   3.229
81994W        W50368  43.305  11.290   1.260
81995W        W50369  19.565  35.863  13.468
81996W        W50370  12.798  12.636  10.554
81997W        W50371   5.781  25.019  12.966
81998W        W50372  18.296  20.214   4.335
81999W        W50373   1.368   1.769   1.409
82000W        W50374  25.017  29.156   0.438
82001W        W50375  36.026  30.424   4.173
82002W        W50376   4.353  29.531   2.363
82003W        W50377   6.682   7.758  12.936
82004W        W50378  34.552  28.642   2.781
82005W        W50379  14.105  41.493   2.853
82006W        W50380  37.888  20.068   4.810
82007W        W50381  44.803  22.721   3.269
82008W        W50382  34.934  35.485   4.278
82009W        W50383  38.829  14.315  10.518
82010W        W50384  26.048  29.469  14.345
82011W        W50385  11.844  39.412   1.916
82012W        W50386  34.981   8.313  11.943
82013W        W50387  13.108  17.796  11.537
82014W        W50388   6.845  24.228  12.837
82015W        W50389  26.599  22.051  11.964
82016W        W50390   1.853   5.302   2.882
82017W        W50391   0.348  14.111  11.010
82018W        W50392  16.711   2.775  12.083
82019W        W50393  20.099  35.494   2.308
82020W        W50394  38.506   9.291   4.832
82021W        W50395  41.973  42.472   2.662
82022W        W50396  19.077  19.260   1.849
82023W        W50397  38.928  40.506   0.470
82024W        W50398  11.165  41.453  10.472
82025W        W50399   4.305  23.988  11.602
82026W        W50400  44.900  40.829   2.313
82027W        W50401  22.723  29.069   9.985
82028W        W50402  27.591   4.284  10.910
82029W        W50403  20.568  33.973   3.383
82030W        W50404  11.858  35.078   0.276
82031W        W50405   7.325  22.688   0.477
82032W        W50406  21.124  10.709  14.403
82033W        W50407   9.742  20.725   4.282
82034W        W50408   0.361  21.576  12.884
82035W        W50409   9.880  11.748  12.999
82036W        W50410   1.318  32.480   1.726
82037W        W50411   8.173  28.476   5.157
82038W        W50412  36.857  40.475  11.934
82039W        W50413  22.248  43.978  12.868
82040W        W50414   9.739   3.294   2.275
82041W        W50415  19.228   6.226  13.886
82042W        W50416  16.605  25.594  11.531
82043W        W50417   7.684  24.992  14.342
82044W        W50418  36.414   5.812   2.812
82045W        W50419  41.345  28.970   1.249
82046W        W50420  40.469  38.864  12.872
82047W        W50421  26.576  25.152  10.901
82048W        W50422   6.301   2.870   2.710
82049W        W50423  17.071  34.016   9.981
82050W        W50424  21.619   9.693  11.471
82051W        W50425  20.699  38.466   1.929
82052W        W50426  19.263  12.224  10.599
82053W        W50427  27.609   7.281  13.472
82054W        W50428   0.766  18.554   4.639
82055W        W50429  33.126   8.828   0.467
82056W        W50430  15.684   0.871  11.586
82057W        W50431  13.715  36.063  14.931
82058W        W50432   6.893  43.454  13.064
82059W        W50433   0.868  32.042  12.470
82060W        W50434  28.171  11.698  10.407
82061W        W50435   5.881  43.373  12.914
82062W        W50436  40.397   5.893  10.142
82063W        W50437  36.897  14.278  13.984
82064W        W50438  38.494  12.614  14.278
82065W        W50439  26.487  26.036   1.735
82066W        W50440  18.705  15.704   2.794
82067W        W50441  27.655   6.789   1.842
82068W        W50442  12.834  11.777   2.371
82069W        W50443  39.532  34.370  11.102
82070W        W50444  43.372  38.396   0.309
82071W        W50445  12.246  39.363   1.328
82072W        W50446  26.550  43.848  10.022
82073W        W50447   7.869   9.266  14.032
82074W        W50448  26.060  20.702   2.334
82075W        W50449   0.917   3.251  14.279
82076W        W50450  35.083   2.956  11.081
82077W        W50451  41.952  22.609  10.627
82078W        W50452  33.611   0.840  11.084
82079W        W50453  16.130  19.281  12.457
82080W        W50454  33.022   6.370   0.354
82081W        W50455  43.365  15.243   1.825
82082W        W50456  29.532  10.778  13.015
82083W        W50457  33.612  19.244   0.903
82084W        W50458  29.531   1.436  12.014
82085W        W50459  23.215  29.079  14.940
82086W        W50460  26.478  17.715   4.644
82087W        W50461  21.550  34.370  12.556
82088W        W50462  35.539  22.042  12.554
82089W        W50463  18.223  22.578  14.012
82090W        W50464   9.392   7.207   0.421
82091W        W50465  35.392  27.455   0.454
82092W        W50466  22.135   5.366   0.449
82093W        W50467  40.508  25.217  14.315
82094W        W50468  42.785   3.420   3.384
82095W        W50469  38.485  43.334  14.957
82096W        W50470  23.009  18.589   4.135
82097W        W50471  33.937  28.185   3.763
82098W        W50472  42.316  28.166   1.431
82099W        W50473  19.633   0.374   1.919
82100W        W50474  23.006   8.672  10.556
82101W        W50475  20.105  34.442  13.036
82102W        W50476   2.888  25.468  13.469
82103W        W50477  31.902  29.931   2.885
82104W        W50478  36.398  29.443  11.973
82105W        W50479  28.442  44.281   4.694
82106W        W50480  14.601  31.607   2.239
82107W        W50481  26.541  44.900   4.728
82108W        W50482   2.310  42.338  14.836
82109W        W50483  31.088  42.787   9.921
82110W        W50484  41.935  28.977  12.554
82111W        W50485   5.791  34.512  11.962
82112W        W50486  24.124  39.511   0.248
82113W        W50487  24.998  29.521  11.548
82114W        W50488  30.087  11.194  13.014
82115W        W50489  39.374  12.764   2.332
82116W        W50490   8.257  19.732  11.885
82117W        W50491  36.900  17.718   3.725
82118W        W50492  42.804   7.309   0.887
82119W        W50493  29.431  10.861   0.874
82120W        W50494  40.919  17.165   4.218
82121W        W50495  15.154  29.643  12.862
82122W        W50496   5.351   8.320   4.348
82123W        W50497  29.549  18.706  14.957
82124W        W50498  15.115  10.731  11.061
82125W        W50499   0.973  15.277   4.205
82126W        W50500  12.713  26.115   1.821
82127W        W50501  35.436   9.731  10.889
82128W        W50502  35.858  11.285   3.646
82129W        W50503   0.431   5.723   4.340
82130W        W50504  18.695  33.966  14.390
82131W        W50505  31.505  41.792   0.756
82132W        W50506  28.482  23.068  10.517
82133W        W50507  32.912  31.437   2.741
82134W        W50508  31.047   0.481   0.382
82135W        W50509  24.680  30.424   3.725
82136W        W50510  41.431  30.152   4.741
82137W        W50511  32.076  23.201  12.835
82138W        W50512  20.031  44.916  10.541
82139W        W50513  36.426  23.581   4.651
82140W        W50514  26.982  13.788  13.812
82141W        W50515  34.420  16.109  13.318
82142W        W50516  19.692  22.586   1.319
82143W        W50517  18.147  25.521  14.393
82144W        W50518  15.172  42.000  11.117
82145W        W50519  38.911  14.233  11.871
82146W        W50520  28.023  39.968   2.305
82147W        W50521   4.270   7.375   0.914
82148W        W50522   4.702  30.096  13.956
82149W        W50523  36.853  36.448  14.487
82150W        W50524  36.887  19.222   3.853
82151W        W50525  24.542   6.371   1.832
82152W        W50526  44.785  41.919  13.882
82153W        W50527   1.445  31.980  13.362
82154W        W50528   4.774  39.320   2.750
82155W        W50529  42.860  37.080   4.752
82156W        W50530  23.238  13.768  14.785
82157W        W50531  24.196  24.181  11.856
82158W        W50532  24.715   0.443  13.473
82159W        W50533   7.346  44.803  12.898
82160W        W50534  11.714   1.421   4.344
82161W        W50535  11.705  30.421  12.080
82162W        W50536   9.720  22.038  14.855
82163W        W50537   7.323  43.803   0.792
82164W        W50538  22.601   0.986  11.972
82165W        W50539  42.782  10.189   2.186
82166W        W50540  39.372  33.880   0.874
82167W        W50541   9.291  33.379  13.486
82168W        W50542  27.479   1.353   3.376
82169W        W50543  20.597   5.199   0.838
82170W        W50544  14.756  35.093  13.957
82171W        W50545  10.147  35.085   0.380
82172W        W50546  36.381   0.443  14.333
82173W        W50547  21.152  18.248  11.465
82174W        W50548  16.784   4.332   2.348
82175W        W50549  26.562   6.919  12.013
82176W        W50550  40.359  39.345  12.024
82177W        W50551  29.598  27.040  11.990
82178W        W50552  20.738   9.769   3.171
82179W        W50553   1.949  40.849  13.313
82180W        W50554  23.037  33.561   3.739
82181W        W50555   8.175  20.128  11.029
82182W        W50556  15.155  18.707   0.742
82183W        W50557  17.067  26.105   1.760
82184W        W50558  18.638  13.151   1.376
82185W        W50559   1.272  41.334  12.430
82186W        W50560  42.305  25.122   0.440
82187W        W50561  30.563  20.227  11.946
82188W        W50562  25.468  21.604  12.515
82189W        W50563  43.485   8.668  11.100
82190W        W50564  17.787  36.073   2.280
82191W        W50565  42.480  31.041  11.099
82192W        W50566  18.591  11.658   4.834
82193W        W50567  44.386  17.685   1.220
82194W        W50568  26.025  12.856   1.371
82195W        W50569  32.536  37.995   4.663
82196W        W50570  28.576  29.505   1.414
82197W        W50571  22.615  41.983  12.469
82198W        W50572  29.526   0.415  10.534
82199W        W50573  35.028  16.659   4.239
82200W        W50574  25.030   6.707  12.342
82201W        W50575  25.115  10.341   5.262
82202W        W50576   6.191  32.440   0.319
82203W        W50577  43.330  20.540   1.713
82204W        W50578  35.587  29.660   0.356
82205W        W50579  33.463  43.302  14.895
82206W        W50580  16.271  44.388  11.523
82207W        W50581  19.598  26.089   2.399
82208W        W50582  36.059  41.920  14.827
82209W        W50583  38.348  23.033  12.354
82210W        W50584   9.273   5.227   0.904
82211W        W50585  41.315   9.370   1.887
82212W        W50586  39.468  10.696  12.978
82213W        W50587  12.799  21.225  12.915
82214W        W50588  28.507   1.453   3.283
82215W        W50589  37.919  10.742  14.858
82216W        W50590  20.604   5.359  11.904
82217W        W50591  38.834  31.056   1.367
82218W        W50592  28.653  21.734   1.799
82219W        W50593  13.672  12.736   3.748
82220W        W50594  42.395  12.291   4.235
82221W        W50595  20.764  16.730  12.083
82222W        W50596  19.720  10.205  13.308
82223W        W50597  25.472  17.681  10.547
82224W        W50598  31.077  26.490  12.045
82225W        W50599  29.482  40.389  12.502
82226W        W50600  13.173  41.348  14.882
82227W        W50601  34.417  24.690  11.605
82228W        W50602   6.292  41.433  14.911
82229W        W50603  40.909  36.948   0.894
82230W        W50604  23.083  37.019   0.885
82231W        W50605   8.779  25.616   0.855
82232W        W50606  33.480   5.385  14.937
82233W        W50607  28.623  21.682  11.996
82234W        W50608  44.825   6.259  12.909
82235W        W50609  31.126  33.428   3.713
82236W        W50610  19.222  21.601   1.440
82237W        W50611   6.426   8.189  12.523
82238W        W50612  35.386  43.891  11.863
82239W        W50613   1.960  37.000  12.855
82240W        W50614  27.538   5.873   3.152
82241W        W50615  17.610  36.449  13.475
82242W        W50616  27.458   2.428  14.872
82243W        W50617   8.201  37.513  12.051
82244W        W50618   4.879  11.230  14.456
82245W        W50619  20.525   8.868  10.948
82246W        W50620  34.387  28.509  14.279
82247W        W50621  34.109  36.047   0.480
82248W        W50622   3.234   0.309  12.966
82249W        W50623  28.562  15.302   3.652
82250W        W50624  38.949  19.067  11.969
82251W        W50625  26.199  11.648   1.319
82252W        W50626  26.105  30.474  12.534
82253W        W50627  25.033  35.421  13.378
82254W        W50628  30.090  26.585  11.557
82255W        W50629  11.293  31.153  10.900
82256W        W50630  27.138  16.575   3.293
82257W        W50631  24.017  40.424  11.560
82258W        W50632   4.451   6.768  11.085
82259W        W50633  13.331  10.344  13.856
82260W        W50634  24.132   7.405  13.360
82261W        W50635  19.248  13.287  14.839
82262W        W50636  33.067  28.605  12.068
82263W        W50637  29.662  30.516  13.999
82264W        W50638  39.970  19.107  12.906
82265W        W50639  30.592  30.923  14.397
82266W        W50640   3.880   1.255   1.413
82267W        W50641  19.256  16.645  14.007
82268W        W50642  17.257  39.920  14.287
82269W        W50643  19.182  37.882  12.831
82270W        W50644  23.573  17.759   0.778
82271W        W50645   4.914   3.881  12.466
82272W        W50646   7.833  43.824   0.294
82273W        W50647  25.042  20.730  13.366
82274W        W50648   5.412  36.018   1.241
82275W        W50649  41.954  42.857   4.723
82276W        W50650  32.524  21.653   3.278
82277W        W50651   6.320   0.475   0.739
82278W        W50652   2.395  22.660  14.849
82279W        W50653   0.300  35.044  13.343
82280W        W50654  31.919  38.336  13.987
82281W        W50655  19.624  27.683   0.281
82282W        W50656  33.519  37.969   2.676
82283W        W50657  20.156  18.134   2.895
82284W        W50658  28.637   4.765  11.979
82285W        W50659  28.933  15.256  14.451
82286W        W50660  22.569  44.260  14.443
82287W        W50661  39.364  22.716  13.923
82288W        W50662  19.696  42.415   0.319
82289W        W50663  10.659   1.297  14.952
82290W        W50664   9.295  29.660  14.507
82291W        W50665  44.911   1.955   2.830
82292W        W50666  13.343  39.954  12.077
82293W        W50667  11.282  16.314   2.382
82294W        W50668  42.948  38.867  13.515
82295W        W50669  22.051   3.776  13.444
82296W        W50670  35.884   9.202   4.815
82297W        W50671   8.374   7.757  14.300
82298W        W50672  27.962  22.557   2.295
82299W        W50673  30.445  25.167   3.859
82300W        W50674  23.070   7.719   4.258
82301W        W50675  39.811  40.902  14.792
82302W        W50676   0.778   8.774  10.020
82303W        W50677  25.980  22.995   4.157
82304W        W50678  40.869  32.074  14.385
82305W        W50679  15.626   8.702   3.292
82306W        W50680   0.946  13.128   2.838
82307W        W50681  19.181  22.113  10.403
82308W        W50682  35.452  12.247   0.396
82309W        W50683  41.355  16.253   4.656
82310W        W50684   8.245  29.444  14.287
82311W        W50685  10.283  40.887   2.775
82312W        W50686  20.253  36.377  14.995
82313W        W50687  21.133  35.912  10.940
82314W        W50688  44.378  33.027  12.889
82315W        W50689   4.209  27.602  12.042
82316W        W50690  32.514  41.411  12.872
82317W        W50691  31.485   1.295  14.300
82318W        W50692   5.765   7.256   0.468
82319W        W50693  22.621  31.061  14.759
82320W        W50694   2.403  31.556   4.269
82321W        W50695  14.638  31.645  12.360
82322W        W50696  15.270   8.173   1.833
82323W        W50697  24.094   4.940  12.927
82324W        W50698  30.113   8.273   2.815
82325W        W50699  18.133  44.325   2.343
82326W        W50700  11.777  19.750  11.381
82327W        W50701   0.427  22.584  13.870
82328W        W50702   2.790  28.139  14.832
82329W        W50703  26.592  20.671   1.811
82330W        W50704   1.412  11.307   0.452
82331W        W50705   2.308  17.064  14.017
82332W        W50706  42.886  21.231   0.733
82333W        W50707   6.801  11.729  10.938
82334W        W50708  16.637   9.716  10.532
82335W        W50709   7.734  28.052   1.290
82336W        W50710  15.323  29.551   0.452
82337W        W50711   1.748  13.150   4.814
82338W        W50712  43.400  44.433   1.222
82339W        W50713  17.135  43.928   0.307
82340W        W50714  17.753  29.606  11.885
82341W        W50715  37.919  44.929   1.920
82342W        W50716  15.126  18.105  11.526
82343W        W50717  42.421  31.470  13.960
82344W        W50718  29.619  13.143  11.115
82345W        W50719  38.827  33.533   5.188
82346W        W50720   5.885  32.540   0.729
82347W        W50721  31.909  19.233   0.759
82348W        W50722  38.047  19.613  11.510
82349W        W50723  33.554  15.710   3.381
82350W        W50724  32.479   6.724   0.816
82351W        W50725  33.970  12.721   2.237
82352W        W50726  13.644  42.516   4.204
82353W        W50727  12.146  14.647   3.669
82354W        W50728  17.583  42.868   4.264
82355W        W50729   8.346   8.736   2.852
82356W        W50730   7.393  18.286  11.040
82357W        W50731  16.164  27.156  10.931
82358W        W50732  43.347  15.288  13.961
82359W        W50733   5.905  43.312  14.383
82360W        W50734   2.253  14.243   3.633
82361W        W50735  32.097   0.470   3.292
82362W        W50736   9.358  25.572   2.416
82363W        W50737   9.163   3.922   3.677
82364W        W50738  28.163  40.040  13.417
82365W        W50739  43.377  31.096   3.744
82366W        W50740   7.294  15.588  14.365
82367W        W50741  13.249  33.526  14.465
82368W        W50742  35.992  24.574   2.690
82369W        W50743  43.834  38.457  14.853
82370W        W50744  13.640  21.130   4.606
82371W        W50745  21.115  11.314  11.436
82372W        W50746  15.716   5.435   4.278
82373W        W50747  14.312  25.980   1.321
82374W        W50748  17.294  20.066  12.072
82375W        W50749  42.524  32.083   0.336
82376W        W50750  38.401   2.420  11.439
82377W        W50751  28.054   0.795   5.305
82378W        W50752  43.825  18.565   2.755
82379W        W50753   4.354  44.329   2.868
82380W        W50754   0.959  24.124   1.212
82381W        W50755  39.341  30.504   2.877
82382W        W50756   8.667  44.761  10.572
82383W        W50757  44.908  27.682   3.856
82384W        W50758  14.668  31.421  14.932
82385W        W50759   8.691   0.964  13.880
82386W        W50760   8.805  38.878  13.546
82387W        W50761   7.345  19.060  13.407
82388W        W50762  14.259  38.400   3.247
82389W        W50763  39.859   4.726   2.288
82390W        W50764  21.124  24.598  13.483
82391W        W50765  35.408   4.364  10.982
82392W        W50766  26.129  29.549  13.528
82393W        W50767  16.207  22.106   1.382
82394W        W50768   1.900   0.292   2.679
82395W        W50769  18.276  31.972  14.976
82396W        W50770  33.388  34.868   4.603
82397W        W50771  15.623  15.119  11.577
82398W        W50772  44.493   3.754   0.936
82399W        W50773  44.404  23.202   0.404
82400W        W50774  42.807   4.280  12.418
82401W        W50775   6.214  27.564   0.334
82402W        W50776   8.734  28.630  12.418
82403W        W50777   4.726  38.043  12.966
82404W        W50778  40.960   2.440   2.179
82405W        W50779  20.714  43.273  10.539
82406W        W50780  31.062   9.776  12.005
82407W        W50781  17.590  32.485   1.336
82408W        W50782  36.904  38.840   2.861
82409W        W50783  19.689  40.407   1.875
82410W        W50784  26.536  42.423  11.053
82411W        W50785  20.688  12.746  10.997
82412W        W50786  24.151  17.263  11.407
82413W        W50787   0.260   9.344  11.046
82414W        W50788   8.699  35.000   2.898
82415W        W50789  38.492   0.840  14.992
82416W        W50790   1.261  41.395  14.833
82417W        W50791  13.681   7.360   2.289
82418W        W50792  25.075  18.150   9.663
82419W        W50793  24.139  30.486   5.281
82420W        W50794  27.657   8.760  14.462
82421W        W50795   7.831  44.778   4.687
82422W        W50796  17.140  40.908   0.374
82423W        W50797  31.524  39.816   2.763
82424W        W50798  25.181  25.161   2.709
82425W        W50799   4.734  24.530   4.131
82426W        W50800  36.843  40.924   0.312
82427W        W50801  10.725  32.527  10.979
82428W        W50802  27.546  30.051   2.878
82429W        W50803  41.858  24.160   3.301
82430W        W50804  36.559   0.264   9.987
82431W        W50805  30.454  38.441  11.936
82432W        W50806   6.862  15.224  13.359
82433W        W50807  35.499  12.729   2.792
82434W        W50808  17.683  16.092   0.389
82435W        W50809  13.333  42.989   0.399
82436W        W50810  21.702  28.026   0.967
82437W        W50811   7.809  11.304   3.679
82438W        W50812  30.430   6.844  14.359
82439W        W50813  26.104  17.243   4.654
82440W        W50814  19.167   3.942   2.340
82441W        W50815  14.118  13.165   4.634
82442W        W50816  29.038  23.625  11.518
82443W        W50817  25.633  22.081   3.663
82444W        W50818  14.224  43.822   4.174
82445W        W50819  17.305   7.196   1.230
82446W        W50820  26.496   4.287  12.437
82447W        W50821  29.090   2.349  14.810
82448W        W50822  16.313  39.849   0.299
82449W        W50823  20.641  15.609   0.860
82450W        W50824  15.705  39.940   0.785
82451W        W50825  12.290   3.881   3.695
82452W        W50826  39.523  42.839   3.709
82453W        W50827  34.883  18.296  12.945
82454W        W50828  18.621  19.614  14.819
82455W        W50829  16.738   1.791   0.349
82456W        W50830  31.532   9.326   2.694
82457W        W50831  27.052  25.142  12.828
82458W        W50832  38.048  28.671   1.326
82459W        W50833  40.522  32.959  13.827
82460W        W50834  20.227  29.046   2.286
82461W        W50835  27.008  24.623  11.951
82462W        W50836  31.119  38.850  12.853
82463W        W50837  15.758  12.668   2.782
82464W        W50838  31.108  15.133  11.977
82465W        W50839  11.143  39.928  13.870
82466W        W50840  34.597  38.035  13.479
82467W        W50841  31.417   9.305  13.808
82468W        W50842  13.758   3.848   1.926
82469W        W50843  14.299   0.334  11.855
82470W        W50844  17.262  34.941  12.467
82471W        W50845  44.784  34.106  13.022
82472W        W50846  28.564  36.943   0.845
82473W        W50847  37.391  15.726   9.960
82474W        W50848  25.702   6.324   3.295
82475W        W50849   0.752  37.060  13.827
82476W        W50850  33.404  17.624  11.925
82477W        W50851  43.395  10.295   3.725
82478W        W50852   8.344  34.421  10.938
82479W        W50853   9.866  28.641   0.766
82480W        W50854  44.344  43.321   4.691
82481W        W50855  32.921   9.738  12.560
82482W        W50856  20.664  42.019  11.572
82483W        W50857  26.167   5.367  11.930
82484W        W50858  35.592  37.013  13.535
82485W        W50859   1.343   7.310  14.456
82486W        W50860  42.332  24.590   0.323
82487W        W50861  21.030   2.349   2.193
82488W        W50862  30.927  43.315   0.768
82489W        W50863  30.947  28.105   4.179
82490W        W50864   5.326  40.830  12.903
82491W        W50865  20.207  16.124   3.222
82492W        W50866   2.752  43.992   4.729
82493W        W50867  27.477  26.077  11.921
82494W        W50868  11.300  31.450  12.067
82495W        W50869  40.818   6.771   0.785
82496W        W50870   4.426   3.328  10.556
82497W        W50871  13.816  33.463  13.877
82498W        W50872  39.368  41.311  14.807
82499W        W50873  32.993   3.296  12.918
82500W        W50874   5.872  20.768   1.866
82501W        W50875  34.401  25.531  14.986
82502W        W50876  31.432  15.182  11.454
82503W        W50877  39.824  14.107  14.890
82504W        W50878   0.941  10.713  12.371
82505W        W50879   1.933  43.358   3.364
82506W        W50880  17.094  21.573  13.004
82507W        W50881  25.016   5.762  13.969
82508W        W50882   0.251  36.460  13.837
82509W        W50883  42.375  37.503  10.985
82510W        W50884   0.891  27.447  11.969
82511W        W50885  32.422  29.924  11.107
82512W        W50886   0.777  43.434   0.394
82513W        W50887   3.461  19.770  14.817
82514W        W50888  15.218   4.931  11.970
82515W        W50889  15.746   5.718   0.420
82516W        W50890  22.211  31.932   9.979
82517W        W50891  42.512  40.404  14.495
82518W        W50892   8.869   3.397   4.224
82519W        W50893  44.270  10.174   0.905
82520W        W50894  20.650  20.753   3.311
82521W        W50895   1.275   3.753  12.986
82522W        W50896   3.457   0.383   1.769
82523W        W50897  10.255  12.259  12.905
82524W        W50898  15.818   2.794   2.804
82525W        W50899  32.892   4.816   0.482
82526W        W50900  38.894   0.834  14.338
82527W        W50901  26.139  11.863  13.979
82528W        W50902  11.771   7.680   4.728
82529W        W50903   7.222  26.115   9.932
82530W        W50904  22.173  40.963  13.512
82531W        W50905  21.641  32.612   3.187
82532W        W50906  18.548  24.481   1.416
82533W        W50907   4.804  15.330  14.426
82534W        W50908  27.526  34.599   3.173
82535W        W50909  38.387  17.666   3.831
82536W        W50910  34.024  13.147   1.822
82537W        W50911  22.571  10.683   3.841
82538W        W50912  40.384  36.979  14.390
82539W        W50913  34.871   1.316  13.402
82540W        W50914  13.730  39.841   1.244
82541W        W50915  30.544  24.224   4.287
82542W        W50916  24.085  22.229   0.260
82543W        W50917  44.458  42.505   3.638
82544W        W50918  39.983  34.526  12.918
82545W        W50919   4.788   5.269   3.777
82546W        W50920  17.265  11.863   3.693
82547W        W50921  15.768   8.737   1.916
82548W        W50922   8.659  12.781  11.382
82549W        W50923  41.930  43.305  14.438
82550W        W50924  10.179  43.883   2.718
82551W        W50925  42.388  12.219  13.935
82552W        W50926   1.459  14.753   1.845
82553W        W50927  16.128   7.873   4.212
82554W        W50928   1.448  10.876  14.842
82555W        W50929  11.359  16.616  10.989
82556W        W50930  15.138   3.318  13.328
82557W        W50931  30.085  37.857   0.861
82558W        W50932   5.741  37.566   4.835
82559W        W50933  23.176  37.377   0.791
82560W        W50934  16.263  35.503  10.937
82561W        W50935   1.807  13.181   4.262
82562W        W50936  29.073  38.482  14.787
82563W        W50937   2.296  37.562   0.430
82564W        W50938  43.512  35.594   0.398
82565W        W50939  22.078  37.913  11.890
82566W        W50940  41.908  34.087   1.395
82567W        W50941   8.177  35.392  12.984
82568W        W50942  32.464   7.323  13.985
82569W        W50943  38.545  39.541   3.766
82570W        W50944   0.336   2.435   4.193
82571W        W50945  34.038   0.978  11.128
82572W        W50946  11.747  20.030  13.016
82573W        W50947  29.944  34.877   3.744
82574W        W50948  20.156  14.294   0.879
82575W        W50949  38.507   1.346   4.335
82576W        W50950  30.452   5.927   2.878
82577W        W50951  35.103  15.180   1.866
82578W        W50952   9.228  12.696  12.021
82579W        W50953  33.541  14.706  13.915
82580W        W50954  10.268  21.672   1.917
82581W        W50955  23.123  24.199   2.227
82582W        W50956  29.443  32.402  14.925
82583W        W50957   7.770   7.695   1.364
82584W        W50958   0.481  23.677   2.861
82585W        W50959  23.111  38.480   9.985
82586W        W50960  11.291  21.022  11.610
82587W        W50961  40.986   5.905  12.055
82588W        W50962  39.362  35.915  13.043
82589W        W50963  16.727  35.511  11.477
82590W        W50964  34.428   7.256   1.888
82591W        W50965  38.551  25.477   4.779
82592W        W50966  34.527  20.713  12.029
82593W        W50967  42.293   5.309   0.901
82594W        W50968  24.576  34.473  13.864
82595W        W50969   4.919  41.940  11.859
82596W        W50970  34.046  10.650  12.381
82597W        W50971  18.788  22.658  13.358
82598W        W50972  13.804  40.369  12.871
82599W        W50973  36.920   3.803  12.464
82600W        W50974   7.794  23.193  10.583
82601W        W50975  27.514  36.929   4.791
82602W        W50976  18.770  19.067  14.867
82603W        W50977  14.200  23.543   3.300
82604W        W50978   8.355   3.838  14.339
82605W        W50979   2.377  19.201   4.733
82606W        W50980  33.942  25.973  12.371
82607W        W50981  36.954  40.385   2.726
82608W        W50982  31.554  23.156   2.684
82609W        W50983  35.978  42.906  12.893
82610W        W50984  17.154  16.226  11.558
82611W        W50985  23.632  19.545   0.451
82612W        W50986   6.842  31.112  13.829
82613W        W50987  12.194  41.044  14.365
82614W        W50988  34.497   6.881   0.772
82615W        W50989  20.602   0.807  14.315
82616W        W50990  38.361  36.874  12.915
82617W        W50991  31.958  16.306  13.360
82618W        W50992  26.988  40.372   1.238
82619W        W50993  31.128  18.087  13.424
82620W        W50994  21.554  17.153  12.527
82621W        W50995  33.615  32.901  13.998
82622W        W50996  32.984  27.500  10.450
82623W        W50997  20.711  12.708  12.883
82624W        W50998  20.142  42.992   1.840
82625W        W50999  43.418  16.748   3.656
82626W        W51000  18.567  27.122   0.920
82627W        W51001  31.079  30.097  13.517
82628W        W51002  44.940   4.380  14.428
82629W        W51003  42.443  24.664   2.685
82630W        W51004   9.699  29.458   0.793
82631W        W51005  24.216  20.062  12.012
82632W        W51006  43.285  34.376   0.439
82633W        W51007   4.849  23.492  12.053
82634W        W51008  41.425   6.309   1.433
82635W        W51009   4.266   9.310   2.785
82636W        W51010  38.425  29.641  13.468
82637W        W51011  26.176   0.325   2.407
82638W        W51012  23.645  21.738   4.608
82639W        W51013  32.123  20.758   2.784
82640W        W51014  28.605  33.483  11.596
82641W        W51015   5.258  37.953  11.992
82642W        W51016  28.565  19.180  10.914
82643W        W51017  37.482  17.785  14.778
82644W        W51018   1.758  24.529  14.771
82645W        W51019  26.513   9.649  12.002
82646W        W51020  13.155  18.148   0.742
82647W        W51021  34.925  23.545   4.121
82648W        W51022  16.612   0.478   1.276
82649W        W51023   9.365  31.063  10.963
82650W        W51024  16.707  13.302   4.607
82651W        W51025  28.502  24.992   0.951
82652W        W51026   5.847   9.364   2.179
82653W        W51027   5.783  17.604  11.025
82654W        W51028  44.924  25.032   4.274
82655W        W51029  33.977  38.563   3.741
82656W        W51030  14.139  31.967   2.800
82657W        W51031  31.545  12.740   4.644
82658W        W51032  24.635  30.988   5.704
82659W        W51033  31.084  21.160   3.218
82660W        W51034  40.971  40.838   3.173
82661W        W51035  36.526  22.139   3.309
82662W        W51036  39.032   3.901   4.803
82663W        W51037  37.466  39.831  11.102
82664W        W51038  43.300  43.842   1.714
82665W        W51039  41.463  19.570   0.449
82666W        W51040  27.038  31.552   3.719
82667W        W51041  40.912   7.794   2.298
82668W        W51042   3.306  24.034   1.877
82669W        W51043  38.838  15.307  12.485
82670W        W51044  14.334   7.273   4.198
82671W        W51045  30.476  16.700  11.006
82672W        W51046  10.250  23.113  14.345
82673W        W51047  42.792  39.504  14.769
82674W        W51048  39.999  16.796   3.832
82675W        W51049  22.110  32.897  10.959
82676W        W51050  11.828  32.092   9.949
82677W        W51051  17.163  31.933   3.310
82678W        W51052  34.437  30.557  12.342
82679W        W51053  15.603   5.722  13.390
82680W        W51054   9.178  34.506  12.933
82681W        W51055   7.910  27.006   2.183
82682W        W51056  28.122  27.969  13.357
82683W        W51057  11.189  10.282  13.318
82684W        W51058  28.020  25.117   3.310
82685W        W51059  10.807   3.345   4.152
82686W        W51060   8.302   2.386  12.414
82687W        W51061  23.056   1.957  10.631
82688W        W51062   1.365  27.988   4.729
82689W        W51063  12.285  31.150  11.490
82690W        W51064  41.026  42.994   3.828
82691W        W51065  12.857   2.842  14.953
82692W        W51066  10.355   3.764  14.439
82693W        W51067   1.736  12.205   0.736
82694W        W51068  25.484  26.567  11.555
82695W        W51069   1.319  41.408   2.670
82696W        W51070  42.356  14.659   4.168
82697W        W51071  20.152  24.692   0.727
82698W        W51072   7.834  34.605  10.608
82699W        W51073  43.284  19.266  11.459
82700W        W51074  25.682  33.562  10.896
82701W        W51075  33.887  30.907   0.305
82702W        W51076  16.280  27.563   3.369
82703W        W51077   2.759  12.734   4.303
82704W        W51078   5.206  19.208   0.872
82705W        W51079  10.843  15.646  13.990
82706W        W51080  15.094  20.154  10.587
82707W        W51081   2.924  39.434  12.841
82708W        W51082  30.487   9.299   0.306
82709W        W51083  36.946   7.840  12.013
82710W        W51084  42.477  11.239   0.444
82711W        W51085  21.235  11.667   1.930
82712W        W51086  33.910  13.771   3.199
82713W        W51087  40.972  25.963   4.329
82714W        W51088  44.844  20.108   2.332
82715W        W51089  37.440   6.427  12.390
82716W        W51090  43.818  22.204   1.712
82717W        W51091  14.613  19.273   1.799
82718W        W51092  26.179   1.268   1.865
82719W        W51093  23.120   6.389   3.646
82720W        W51094  40.334  30.067  12.421
82721W        W51095  44.860  19.284  14.821
82722W        W51096  40.862  19.252   0.338
82723W        W51097  42.994   5.329   2.382
82724W        W51098   1.944  10.355  11.372
82725W        W51099   3.886  25.076  14.368
82726W        W51100  33.559   6.826  14.941
82727W        W51101  25.970  21.634   3.841
82728W        W51102   5.285  39.372  13.404
82729W        W51103  22.068  37.414   1.741
82730W        W51104  24.701   2.455   3.222
82731W        W51105   7.352  41.502  13.884
82732W        W51106  27.973   6.336   3.261
82733W        W51107  41.399  22.239  11.936
82734W        W51108  15.670  11.176   4.601
82735W        W51109  36.463  10.328   2.837
82736W        W51110  39.558  41.008   2.827
82737W        W51111   0.890   9.656  10.454
82738W        W51112  11.723   3.756   0.925
82739W        W51113  20.055  11.744   3.799
82740W        W51114  30.568  30.954   1.303
82741W        W51115  28.083  36.080  12.357
82742W        W51116   3.451  40.425  11.380
82743W        W51117  24.616  41.415  11.034
82744W        W51118  34.425  37.384  14.965
82745W        W51119  43.834  35.475  12.835
82746W        W51120   0.355  22.663   1.444
82747W        W51121  38.010  35.556   0.328
82748W        W51122  28.139  15.719  14.453
82749W        W51123  25.581   7.881   2.775
82750W        W51124  21.708  24.143   4.708
82751W        W51125  32.087  18.546  14.928
82752W        W51126  28.000  44.908  13.891
82753W        W51127  43.812  15.644   0.432
82754W        W51128   9.262  14.195   0.873
82755W        W51129   7.382  31.922   5.159
82756W        W51130  22.505  34.513   4.761
82757W        W51131  21.533   9.804  13.056
82758W        W51132  31.059  21.171   3.807
82759W        W51133  31.102   6.309   0.896
82760W        W51134  29.068  15.175   0.849
82761W        W51135  29.998  20.660  13.938
82762W        W51136  30.952  23.007  10.455
82763W        W51137  40.814  41.966  10.490
82764W        W51138  17.095  26.978   0.853
82765W        W51139  22.680  43.829  14.403
82766W        W51140  40.962  19.668   3.286
82767W        W51141  31.026  16.642   4.675
82768W        W51142  23.536  16.673  13.371
82769W        W51143  15.771   3.419   4.139
82770W        W51144  42.478   4.913   0.739
82771W        W51145   2.925   1.940   0.330
82772W        W51146  20.761  36.365  10.941
82773W        W51147  30.036  34.116  13.486
82774W        W51148  29.101  18.571  12.935
82775W        W51149  38.482   0.403  10.488
82776W        W51150  16.091  33.051  12.862
82777W        W51151   7.385   4.228   2.821
82778W        W51152  27.055  11.756   4.243
82779W        W51153  29.005  15.650   0.905
82780W        W51154  30.597  12.312   3.646
82781W        W51155  22.625   5.196  13.547
82782W        W51156  24.984  33.550  11.098
82783W        W51157  39.518  24.070  14.311
82784W        W51158  23.189  23.073  11.897
82785W        W51159  40.995  17.583   2.698
82786W        W51160  40.903  35.957  12.038
82787W        W51161  23.188  14.143   5.312
82788W        W51162  17.778  10.324   2.317
82789W        W51163  41.995   4.444   3.146
82790W        W51164   5.207  31.420  13.844
82791W        W51165   8.825   4.767   5.165
82792W        W51166  37.883  43.797  10.990
82793W        W51167  37.876   8.232  11.932
82794W        W51168  34.872  24.230  13.877
82795W        W51169  14.794  25.982   0.293
82796W        W51170  28.099  29.446   3.148
82797W        W51171  29.930   2.280   4.183
82798W        W51172  38.522   7.201   3.355
82799W        W51173  36.360   9.226   5.240
82800W        W51174  43.904  19.271  11.867
82801W        W51175  31.557  16.585   3.668
82802W        W51176  27.495   3.774   3.193
82803W        W51177  18.701   4.910   3.758
82804W        W51178  43.399   0.440  13.348
82805W        W51179  26.558  41.407  13.399
82806W        W51180   3.446  10.278  11.868
82807W        W51181  12.328  19.111  12.515
82808W        W51182  25.022  41.489  11.952
82809W        W51183  22.678   2.888   0.760
82810W        W51184  10.163  21.557  14.777
82811W        W51185  22.047  43.464  12.562
82812W        W51186  26.018  33.982  12.559
82813W        W51187  43.999   2.268  11.007
82814W        W51188  35.440  13.654   1.921
82815W        W51189  29.467  35.937   3.336
82816W        W51190   6.312  16.274   0.383
82817W        W51191  33.026  38.075  14.906
82818W        W51192  16.157  35.032   4.338
82819W        W51193  26.638  17.716  11.963
82820W        W51194   2.886  21.068   0.746
82821W        W51195  39.051   3.252  10.075
82822W        W51196  33.621   7.692   5.229
82823W        W51197   7.845  15.140   4.838
82824W        W51198  38.373  21.197  11.544
82825W        W51199  30.105  41.326  10.985
82826W        W51200   3.412  18.599   4.756
82827W        W51201  41.821   1.294   1.367
82828W        W51202  35.946  28.073  11.889
82829W        W51203  33.941  34.409   4.340
82830W        W51204   4.746  32.913   4.751
82831W        W51205  11.833   3.380   5.230
82832W        W51206  20.598  21.072  13.873
82833W        W51207  42.793  27.543   4.177
82834W        W51208   4.876  12.358  14.419
82835W        W51209   4.382  25.133  11.114
82836W        W51210  30.551   6.225   0.389
82837W        W51211  22.100  36.034  14.323
82838W        W51212  41.404  15.757   2.677
82839W        W51213  22.046  23.595   3.176
82840W        W51214  44.757  25.044   2.222
82841W        W51215  16.799  39.018  10.579
82842W        W51216   0.968   3.229  10.432
82843W        W51217   7.735  26.966  13.023
82844W        W51218   0.744  31.594  14.286
82845W        W51219  35.979   7.200  11.049
82846W        W51220  29.509  24.165  10.482
82847W        W51221  16.590  37.022   3.724
82848W        W51222  20.118  44.982   3.790
82849W        W51223  42.464  21.152  13.874
82850W        W51224  29.540  42.489   2.675
82851W        W51225  42.494  17.707  11.544
82852W        W51226  40.479  17.622   4.309
82853W        W51227  37.914  17.769   3.241
82854W        W51228  37.441   7.669   1.328
82855W        W51229  27.461  33.024  12.866
82856W        W51230  16.209  20.679  12.095
82857W        W51231   0.412  24.033   2.300
82858W        W51232  38.849  24.655   0.790
82859W        W51233  44.505   6.206  12.511
82860W        W51234   4.864   2.917   2.879
82861W        W51235  17.704  23.060   2.311
82862W        W51236  34.555   6.804  14.031
82863W        W51237  15.592   4.916   5.199
82864W        W51238  35.078  31.612  11.382
82865W        W51239  15.810  32.923  14.469
82866W        W51240  20.643  35.871  13.523
82867W        W51241  40.382  28.003   4.263
82868W        W51242  18.711  11.354  14.875
82869W        W51243   1.446  31.074  11.513
82870W        W51244   1.957  15.152   2.340
82871W        W51245   9.876   7.265  10.561
82872W        W51246  33.458  40.929   1.845
82873W        W51247  12.624  34.006  11.573
82874W        W51248  36.995  42.399  11.590
82875W        W51249  11.802  42.321   3.676
82876W        W51250  28.030  15.180   1.887
82877W        W51251  41.529  10.768   0.417
82878W        W51252   2.317  31.642   0.778
82879W        W51253  36.970  23.553  10.595
82880W        W51254  40.486  42.024   0.965
82881W        W51255   3.715  17.557   1.351
82882W        W51256   5.364  16.605  14.898
82883W        W51257   1.964  10.722   3.193
82884W        W51258  19.541   1.938   1.349
82885W        W51259  30.006  12.778   4.820
82886W        W51260  29.946  20.102  14.801
82887W        W51261  40.900  23.215  11.491
82888W        W51262   2.355   4.825   1.321
82889W        W51263   5.801  21.108   0.246
82890W        W51264   5.360  37.931   2.360
82891W        W51265  37.401  30.645   0.314
82892W        W51266  28.600   5.212  12.997
82893W        W51267   7.188  10.248   0.905
82894W        W51268   2.343  15.758  13.352
82895W        W51269   9.381  14.305   3.302
82896W        W51270   1.747  35.458   2.329
82897W        W51271  22.508  38.421  13.539
82898W        W51272  24.164   2.382   1.424
82899W        W51273  16.635  12.751   3.373
82900W        W51274  40.919  28.935   2.282
82901W        W51275  41.303  29.018  14.935
82902W        W51276   0.490  39.317   0.876
82903W        W51277  17.748  24.589  12.971
82904W        W51278  26.124  11.851  10.566
82905W        W51279  36.568  19.590  14.805
82906W        W51280  25.593  13.691  12.846
82907W        W51281  17.175  34.572  10.486
82908W        W51282  27.110  13.240  14.339
82909W        W51283  34.001  31.636  10.592
82910W        W51284  31.128  36.851  14.768
82911W        W51285  38.955  36.353  11.867
82912W        W51286  21.210  41.835   4.714
82913W        W51287  29.558   8.765   1.871
82914W        W51288  38.430  41.939   1.401
82915W        W51289  29.007   8.772  13.999
82916W        W51290  25.085  30.426  13.813
82917W        W51291  38.882  30.973   3.304
82918W        W51292   1.848  42.993   1.220
82919W        W51293  10.191  29.072   2.876
82920W        W51294  20.762  28.006  14.924
82921W        W51295  35.869  41.996   2.767
82922W        W51296   8.305   1.327   3.839
82923W        W51297  34.076  20.657  13.995
82924W        W51298  19.177  29.947   4.142
82925W        W51299  33.984   2.882   3.645
82926W        W51300   2.899   7.333  10.575
82927W        W51301   2.959  32.561  13.525
82928W        W51302  18.596  12.848  14.477
82929W        W51303  26.135  14.118   1.360
82930W        W51304  26.195  31.463  13.931
82931W        W51305  15.318  10.307   4.233
82932W        W51306  40.411  24.608  14.782
82933W        W51307  44.990  36.886  13.064
82934W        W51308  23.595  19.281   3.382
82935W        W51309  35.590  39.816  11.079
82936W        W51310  18.213  10.823  10.542
82937W        W51311  42.313  22.564  11.599
82938W        W51312  40.935   6.686  14.436
82939W        W51313  16.648  40.909   4.835
82940W        W51314  15.287   5.902   3.720
82941W        W51315  43.478  41.914  14.895
82942W        W51316  37.386  35.053   5.234
82943W        W51317  16.586  33.082  14.032
82944W        W51318  20.030  36.369   2.746
82945W        W51319  22.619  16.305   4.627
82946W        W51320  36.437  20.206  12.091
82947W        W51321  28.069  24.976   1.265
82948W        W51322   3.919   1.408  11.899
82949W        W51323   5.779   3.231  12.410
82950W        W51324  34.406  14.243  12.416
82951W        W51325   7.834  39.002  11.881
82952W        W51326  36.018   0.764  13.053
82953W        W51327  18.100  43.508  10.480
82954W        W51328   4.293  25.540  12.070
82955W        W51329   8.328  32.124  12.504
82956W        W51330   7.402  36.428  13.385
82957W        W51331  24.700  11.214   4.605
82958W        W51332  16.165  43.909  14.024
82959W        W51333   3.880  38.951  12.088
82960W        W51334   7.397  25.668  10.535
82961W        W51335  22.741  14.213   3.293
82962W        W51336  22.679   7.199   2.343
82963W        W51337  38.864  39.051   4.677
82964W        W51338   3.259  38.504   3.665
82965W        W51339   0.282  25.977   1.251
82966W        W51340  16.670  11.250  11.512
82967W        W51341  41.884   5.913   1.317
82968W        W51342   1.961  28.118   3.672
82969W        W51343   4.718   4.264   2.394
82970W        W51344  34.532  28.940  12.004
82971W        W51345  11.819  24.220   0.786
82972W        W51346  23.121   9.341  10.582
82973W        W51347  24.163  35.044   4.647
82974W        W51348  44.775  18.753   1.723
82975W        W51349  42.846  21.577   2.245
82976W        W51350   7.336  42.848   0.777
82977W        W51351  40.516   4.413  10.557
82978W        W51352  17.749  21.051   3.313
82979W        W51353  30.451  28.479  10.968
82980W        W51354  19.777   5.311  14.341
82981W        W51355   0.787  14.768  13.951
82982W        W51356  13.215  44.821   1.740
82983W        W51357   5.345  11.839  14.961
82984W        W51358   3.779  32.061  14.322
82985W        W51359  33.088  11.184  13.546
82986W        W51360  26.461  27.959   1.841
82987W        W51361  34.055   4.769  10.640
82988W        W51362   5.215  44.293   4.166
82989W        W51363  25.645   7.803   3.349
82990W        W51364  37.352  32.518  11.511
82991W        W51365  27.539  12.188  14.766
82992W        W51366  10.252  31.945  12.013
82993W        W51367  37.532  26.616  13.486
82994W        W51368   1.866  41.866   0.748
82995W        W51369   9.368  30.609   5.236
82996W        W51370   5.235  18.705  13.333
82997W        W51371  11.178   8.385  12.347
82998W        W51372  36.935  21.100   0.962
82999W        W51373  24.041  14.815   3.153
83000W        W51374  31.441  42.509   3.813
83001W        W51375  19.611  27.130  14.938
83002W        W51376  43.421  24.570  12.446
83003W        W51377  20.564  40.499  10.473
83004W        W51378  19.734  12.718   4.193
83005W        W51379  18.654  21.116  13.493
83006W        W51380   8.286   3.287   0.419
83007W        W51381   2.469  24.589  13.002
83008W        W51382  41.786  39.412   4.332
83009W        W51383  22.090  10.830  10.583
83010W        W51384   4.797  44.349   2.816
83011W        W51385  12.857  25.671  12.438
83012W        W51386  24.566  24.495  11.044
83013W        W51387   9.656  12.703   3.347
83014W        W51388   3.785  33.971   1.763
83015W        W51389   1.928   2.810  11.407
83016W        W51390  10.832   0.306  14.299
83017W        W51391  18.607  34.445   3.633
83018W        W51392  16.262  29.569  12.074
83019W        W51393  28.025  10.726   9.961
83020W        W51394  43.469  32.478  10.453
83021W        W51395  36.075   3.872  12.441
83022W        W51396  41.446   4.918   2.296
83023W        W51397  39.487   8.362   0.438
83024W        W51398   4.810   1.752  14.804
83025W        W51399   9.362   9.243   2.285
83026W        W51400  15.596  30.976   1.819
83027W        W51401  14.304   8.731   1.347
83028W        W51402  29.525  23.590  11.560
83029W        W51403  35.057  24.505  11.530
83030W        W51404   0.745  33.015   3.343
83031W        W51405  21.537  18.217   3.195
83032W        W51406  16.177  12.773  10.555
83033W        W51407  43.788   5.822   0.865
83034W        W51408  15.305   0.884   0.948
83035W        W51409  36.945  33.567   4.704
83036W        W51410  43.507   4.736   0.899
83037W        W51411  24.532   3.723   0.414
83038W        W51412   7.792  30.108   4.801
83039W        W51413   9.731   4.730  12.076
83040W        W51414  15.809  13.205   1.721
83041W        W51415  30.132   5.241  11.590
83042W        W51416   8.346  24.049   3.760
83043W        W51417  30.550   5.394   0.861
83044W        W51418   7.807  42.824  11.428
83045W        W51419   9.293   7.762  11.910
83046W        W51420  31.930  38.433   3.827
83047W        W51421  10.779  39.868   2.332
83048W        W51422  15.231  40.928  13.947
83049W        W51423  13.719  39.981  12.085
83050W        W51424  19.149  34.042   2.878
83051W        W51425   2.910  22.063  13.513
83052W        W51426   4.772  26.570   0.277
83053W        W51427  21.064   7.290   3.324
83054W        W51428   2.402  23.709  10.536
83055W        W51429  21.528  30.114   4.159
83056W        W51430   9.885   3.933   1.859
83057W        W51431  13.148  25.042   4.695
83058W        W51432  21.238  24.171   0.334
83059W        W51433  34.438  29.147  14.895
83060W        W51434  22.596   2.400  13.794
83061W        W51435  19.260  42.966  12.079
83062W        W51436  14.287   5.878  13.897
83063W        W51437  36.895   8.740   2.402
83064W        W51438  34.458   8.357  13.062
83065W        W51439  34.036  23.143   4.138
83066W        W51440  39.470   4.343   2.868
83067W        W51441  31.624  36.009   4.623
83068W        W51442   9.716  29.015   2.841
83069W        W51443  10.317   5.359   3.670
83070W        W51444  15.171  44.001   0.727
83071W        W51445   2.321  23.592  13.990
83072W        W51446  22.618  38.977   5.176
83073W        W51447  30.468  41.956  10.588
83074W        W51448   9.269  30.437   0.253
83075W        W51449  20.066  17.774   1.373
83076W        W51450  44.822  40.923  13.333
83077W        W51451  39.497   7.691  10.916
83078W        W51452  14.707  22.105  10.495
83079W        W51453  25.984  34.872  14.789
83080W        W51454  35.469   7.815  12.966
83081W        W51455  30.984  13.804   4.656
83082W        W51456  12.258  32.580   4.762
83083W        W51457  14.094  21.654   4.273
83084W        W51458  37.923  28.095  12.536
83085W        W51459  22.247  29.143   1.313
83086W        W51460  42.927  19.572  13.870
83087W        W51461  14.208  25.023  13.965
83088W        W51462  35.907  24.572  12.078
83089W        W51463   1.283  20.615   1.268
83090W        W51464  19.186  10.841  12.562
83091W        W51465  39.512  25.510  14.859
83092W        W51466  32.008  24.023  10.498
83093W        W51467  44.424   3.293  14.279
83094W        W51468  31.020  39.501  13.864
83095W        W51469  33.114  41.508   1.834
83096W        W51470  43.959  44.809  13.922
83097W        W51471  32.599  31.617   4.217
83098W        W51472   1.844  34.884   2.810
83099W        W51473  19.174   8.406   0.458
83100W        W51474  20.755   0.384   3.635
83101W        W51475  13.651   9.681  14.383
83102W        W51476  27.579  25.968   0.296
83103W        W51477  16.768   2.242   4.152
83104W        W51478   2.928  30.135   4.727
83105W        W51479  35.366  41.531  12.462
83106W        W51480  32.522   4.313  11.913
83107W        W51481   2.330  34.009  11.519
83108W        W51482  42.814  20.067  11.495
83109W        W51483   1.455  30.134  12.051
83110W        W51484  21.144  34.511   0.318
83111W        W51485  18.665  16.164   4.115
83112W        W51486  37.015  15.315  13.401
83113W        W51487  33.105  28.545   1.716
83114W        W51488  28.176  18.603  13.414
83115W        W51489  38.044  29.525   3.716
83116W        W51490  24.157   5.438  14.858
83117W        W51491  12.826   2.851   0.479
83118W        W51492   2.751  35.040   1.434
83119W        W51493  16.211  30.579  11.476
83120W        W51494  40.437  19.673   2.666
83121W        W51495  14.725  23.708   4.653
83122W        W51496  18.558  36.397  10.468
83123W        W51497  25.120   1.853  10.629
83124W        W51498  44.368  18.573   4.745
83125W        W51499  28.592  40.007   1.333
83126W        W51500  18.183   6.219   2.258
83127W        W51501  11.724  34.515   2.287
83128W        W51502  26.492   5.196   2.383
83129W        W51503  12.345  18.215   2.417
83130W        W51504  19.720  17.243   2.682
83131W        W51505   2.337   3.445  14.827
83132W        W51506   7.883  31.561   5.798
83133W        W51507   5.318  18.252   2.700
83134W        W51508  23.539   6.836  13.035
83135W        W51509  41.399  21.033   0.410
83136W        W51510  23.655  11.256  10.591
83137W        W51511  34.039  22.549  14.441
83138W        W51512  32.401  11.178  11.394
83139W        W51513   2.929  31.906  11.034
83140W        W51514   3.793  35.997  10.485
83141W        W51515  34.010  20.230  14.853
83142W        W51516  43.988  35.063  11.123
83143W        W51517  41.820  20.618   4.796
83144W        W51518  13.183  13.713  12.088
83145W        W51519  21.063  25.657  13.057
83146W        W51520  10.803  29.479   4.703
83147W        W51521  32.456  41.032  13.038
83148W        W51522  39.897  39.353   1.249
83149W        W51523  24.103  38.823  12.861
83150W        W51524  23.546  35.913  13.927
83151W        W51525  36.031  18.077  10.558
83152W        W51526  35.962  23.712  14.482
83153W        W51527  28.649  32.934   3.384
83154W        W51528  22.662  22.252  14.335
83155W        W51529   9.385  27.943   3.742
83156W        W51530  19.762  38.901  13.875
83157W        W51531  17.200  38.966  12.059
83158W        W51532  34.945  40.470   3.733
83159W        W51533   2.237  20.524   3.177
83160W        W51534  21.594   9.157  10.453
83161W        W51535  26.957  22.076  11.871
83162W        W51536  18.712   2.325  13.973
83163W        W51537  24.600   0.928  13.035
83164W        W51538  22.599  38.376   5.304
83165W        W51539  12.288   7.821  12.033
83166W        W51540  42.328  27.612  10.589
83167W        W51541  32.033  40.830  12.507
83168W        W51542  12.706  24.619   1.853
83169W        W51543  39.419  40.976   0.279
83170W        W51544  28.542  39.961  14.388
83171W        W51545   2.871  23.994   3.279
83172W        W51546  37.441   1.809   0.754
83173W        W51547  29.645  29.998  11.590
83174W        W51548  37.548   1.290  11.431
83175W        W51549  35.856  17.237  12.991
83176W        W51550  22.223  32.063   1.422
83177W        W51551  44.000  32.911  10.887
83178W        W51552  40.000  19.640   2.663
83179W        W51553   9.276  30.484  13.022
83180W        W51554  36.399   3.719   1.817
83181W        W51555   4.767  16.778  14.793
83182W        W51556  36.544  25.637   0.846
83183W        W51557  25.208  35.365   4.215
83184W        W51558  34.563  32.906  11.987
83185W        W51559  11.163  13.115   3.260
83186W        W51560  40.495  19.768   3.660
83187W        W51561  43.423  18.547  12.424
83188W        W51562   4.767  24.170  11.491
83189W        W51563  34.520  18.178  14.803
83190W        W51564  34.533   5.878  11.459
83191W        W51565  28.623  41.033   1.786
83192W        W51566  29.599  32.584  11.494
83193W        W51567   7.208  17.143  11.950
83194W        W51568  34.471  20.574  11.108
83195W        W51569  31.055   1.813   3.770
83196W        W51570   4.921  32.998   3.829
83197W        W51571  44.757  35.048   4.775
83198W        W51572  21.100  25.554   0.819
83199W        W51573  27.988  30.558   3.148
83200W        W51574  33.099   2.847   0.255
83201W        W51575  22.205  38.334  10.634
83202W        W51576  38.552  19.680  10.416
83203W        W51577  37.423  29.957  12.565
83204W        W51578  24.627   3.769  12.014
83205W        W51579  12.189  35.106  10.555
83206W        W51580  33.411  29.455  14.280
83207W        W51581  22.118  34.092   3.165
83208W        W51582   3.794  36.029   2.234
83209W        W51583   8.816  30.523   1.870
83210W        W51584  34.571  18.727   2.864
83211W        W51585  19.102  25.080  12.870
83212W        W51586  12.345  40.798  12.551
83213W        W51587  29.442   1.907   4.746
83214W        W51588  22.665  38.875   3.837
83215W        W51589  17.118  16.646  13.815
83216W        W51590  27.106  44.304   4.321
83217W        W51591   3.926   9.725   0.852
83218W        W51592  23.610  43.468   2.359
83219W        W51593  14.794  28.631   1.718
83220W        W51594  17.280   5.920   0.281
83221W        W51595  12.269   3.841  11.078
83222W        W51596  31.933  40.807   3.791
83223W        W51597  28.055   2.271  12.342
83224W        W51598  29.075  24.706  12.842
83225W        W51599  44.797  43.392  14.912
83226W        W51600   8.399  39.862   2.178
83227W        W51601  13.317  12.352  13.939
83228W        W51602   2.947  31.065  12.523
83229W        W51603  29.541  11.624   1.318
83230W        W51604   5.805   6.203  13.970
83231W        W51605  38.338  30.153   3.712
83232W        W51606  17.123  19.750  11.068
83233W        W51607  13.141  26.471  13.455
83234W        W51608   6.380  14.207  13.388
83235W        W51609  31.926  23.154   3.335
83236W        W51610  11.769  13.231  11.884
83237W        W51611  41.346   3.299  12.843
83238W        W51612  30.923  32.107  14.936
83239W        W51613   5.280   7.233   1.800
83240W        W51614  27.121   2.921  14.338
83241W        W51615  44.801  10.751  11.123
83242W        W51616  21.019  22.040   4.337
83243W        W51617   8.778  33.626   2.270
83244W        W51618  42.900   9.234  10.921
83245W        W51619   4.936  25.116  13.389
83246W        W51620   9.338   1.937  13.798
83247W        W51621   7.197  34.940   2.868
83248W        W51622  10.687   0.409   3.323
83249W        W51623  42.436  29.503   3.370
83250W        W51624  31.578  37.018  10.994
83251W        W51625  42.799  43.831   3.792
83252W        W51626  13.742  42.011  12.390
83253W        W51627  22.631  22.554   3.303
83254W        W51628  36.908   1.743   0.355
83255W        W51629  34.907  22.700  12.393
83256W        W51630  30.652   5.208   0.257
83257W        W51631  29.643   1.305   0.447
83258W        W51632  24.505   4.425   4.703
83259W        W51633   8.721  16.753   3.288
83260W        W51634  23.096  25.678   4.697
83261W        W51635  19.541   8.285  11.589
83262W        W51636  29.455  42.434   2.352
83263W        W51637  41.021  18.554  13.835
83264W        W51638  33.409  42.935   5.259
83265W        W51639  29.139   8.843   1.846
83266W        W51640  31.457  41.465   1.284
83267W        W51641   8.254  18.268  14.849
83268W        W51642  33.484   0.484  12.844
83269W        W51643  22.673  34.382  11.464
83270W        W51644  18.749  32.962   3.233
83271W        W51645  36.397  17.779   1.789
83272W        W51646   2.431  24.603  12.465
83273W        W51647  16.743  31.973   0.858
83274W        W51648  13.257  33.087   3.709
83275W        W51649  17.160  38.898   0.810
83276W        W51650  17.074   2.886  11.975
83277W        W51651  41.892  18.685   3.310
83278W        W51652   4.416  13.259   0.872
83279W        W51653   0.469   5.814   0.920
83280W        W51654  22.635  17.650  13.386
83281W        W51655  28.172   4.255   3.712
83282W        W51656  13.118  33.478  11.092
83283W        W51657  19.773  29.931   3.147
83284W        W51658  21.661  15.103  11.509
83285W        W51659  13.133  36.368  12.360
83286W        W51660  36.992  20.734   1.443
83287W        W51661   8.822   7.324  10.603
83288W        W51662  42.825   7.287   4.666
83289W        W51663  40.009  16.288  11.105
83290W        W51664  27.191  29.513  13.520
83291W        W51665  17.233  22.040   0.910
83292W        W51666  28.029  30.599  12.858
83293W        W51667  11.646  31.434  13.486
83294W        W51668   2.763  11.272  10.495
83295W        W51669  13.643  10.833  12.494
83296W        W51670   1.897  24.579  13.510
83297W        W51671  26.463   2.296  13.972
83298W        W51672   7.182  21.674  13.494
83299W        W51673  26.636   8.275  14.986
83300W        W51674  30.128  42.820   0.358
83301W        W51675  41.813  31.521   4.128
83302W        W51676  20.555   2.939  12.362
83303W        W51677  30.151  13.218  14.922
83304W        W51678  30.909  22.719   4.820
83305W        W51679  29.654  28.639  13.826
83306W        W51680  34.464  32.406  12.034
83307W        W51681  35.409  38.011  13.943
83308W        W51682   1.912  25.545  10.417
83309W        W51683  36.420  25.177  11.444
83310W        W51684  27.951   9.278  10.473
83311W        W51685  10.150   9.370   1.735
83312W        W51686  40.919  31.933   1.824
83313W        W51687  32.053  40.373   5.153
83314W        W51688  19.556   1.945  14.857
83315W        W51689  34.924  16.701  10.460
83316W        W51690  25.006  20.065   3.359
83317W        W51691  44.503  28.631   1.227
83318W        W51692  31.985  13.783  10.484
83319W        W51693   2.903  25.179  11.099
83320W        W51694  25.643  27.147  11.569
83321W        W51695  33.876  16.117  12.999
83322W        W51696  36.844  33.390   2.206
83323W        W51697  28.471  40.379   1.344
83324W        W51698  40.438  30.955   2.304
83325W        W51699  31.957  15.754  13.884
83326W        W51700  17.588  36.915  14.896
83327W        W51701  14.656  40.025   4.266
83328W        W51702  29.957  17.610   0.798
83329W        W51703  16.660  12.284  12.538
83330W        W51704   9.687  36.465  14.461
83331W        W51705  38.984  25.470   5.292
83332W        W51706  13.763  30.025  14.491
83333W        W51707  16.096  33.405   1.358
83334W        W51708   9.160   4.214   1.390
83335W        W51709  13.783  42.296  13.932
83336W        W51710  37.010   4.796   0.303
83337W        W51711  19.619   1.792   4.132
83338W        W51712  27.629  39.337   4.196
83339W        W51713  44.350  28.158  12.912
83340W        W51714  43.391   8.748  12.030
83341W        W51715  21.748  43.893   0.396
83342W        W51716  29.525  22.710  14.860
83343W        W51717  22.212   8.406   4.147
83344W        W51718  26.089  30.947   4.199
83345W        W51719  33.482  38.480  12.945
83346W        W51720  32.978  22.222  13.965
83347W        W51721  35.509  20.628  14.915
83348W        W51722  26.037  34.121   4.744
83349W        W51723  24.110   9.727  13.970
83350W        W51724  22.656  41.414  13.887
83351W        W51725  40.813  33.549   2.843
83352W        W51726  11.255  43.792   1.260
83353W        W51727   4.356  36.437  13.845
83354W        W51728  41.922  41.504  12.880
83355W        W51729  19.623  33.500   2.246
83356W        W51730  43.453   1.340  13.846
83357W        W51731  24.614  31.537   2.395
83358W        W51732   6.319  42.839  10.157
83359W        W51733  17.570  28.179  10.484
83360W        W51734  21.078  36.518   1.725
83361W        W51735  41.400  16.092  12.580
83362W        W51736   6.796   0.321   0.780
83363W        W51737   4.886  37.911  14.802
83364W        W51738  43.958  36.852  13.816
83365W        W51739  22.220  17.720  14.310
83366W        W51740  12.621  11.212   2.262
83367W        W51741  32.098  18.179   0.867
83368W        W51742  23.107  31.548   1.720
83369W        W51743  32.619   0.482   1.214
83370W        W51744  12.649   1.433   2.275
83371W        W51745  18.140  35.450  10.897
83372W        W51746  33.565  35.096  13.350
83373W        W51747   0.422  17.708  12.012
83374W        W51748  20.177  17.236  11.021
83375W        W51749  21.602  34.890   2.419
83376W        W51750  31.122   1.959   4.226
83377W        W51751  43.787   5.415   0.764
83378W        W51752  41.807  42.852   1.386
83379W        W51753   2.837  29.564   1.753
83380W        W51754  40.534  27.516  12.826
83381W        W51755  44.887   0.380  14.491
83382W        W51756   7.906  19.250  10.410
83383W        W51757  40.815  44.986  13.390
83384W        W51758   6.301  12.317   1.806
83385W        W51759   3.413   3.406   1.345
83386W        W51760  14.226  26.058  13.990
83387W        W51761  35.488  30.941  11.892
83388W        W51762  11.714  21.575  14.772
83389W        W51763  24.046   6.825  11.110
83390W        W51764   7.250   0.408  10.436
83391W        W51765  18.088  40.501  12.409
83392W        W51766  20.623  39.889  14.997
83393W        W51767  43.501  33.473   2.362
83394W        W51768   9.781  29.611  12.425
83395W        W51769   9.885  37.433  10.958
83396W        W51770   0.388  33.589   4.191
83397W        W51771  32.616  16.683  12.945
83398W        W51772   8.729  24.092  11.000
83399W        W51773  13.226   1.460  14.282
83400W        W51774   8.340   5.297  10.930
83401W        W51775  16.615  16.592  10.570
83402W        W51776  43.869  10.244  13.399
83403W        W51777  43.981  19.613   3.770
83404W        W51778  14.094   8.859   2.767
83405W        W51779  24.135  29.108  12.011
83406W        W51780  37.878  24.539  14.870
83407W        W51781  20.202  25.552   2.671
83408W        W51782  26.650   7.290  10.406
83409W        W51783   4.228   5.849   3.869
83410W        W51784  10.718  32.133   2.246
83411W        W51785  35.552  44.391   1.219
83412W        W51786  14.152  29.634  13.837
83413W        W51787  20.602   6.336   3.847
83414W        W51788  15.217  43.885   3.346
83415W        W51789  25.194  21.698   1.783
83416W        W51790  22.515  18.069  11.511
83417W        W51791  13.280  30.993  13.510
83418W        W51792  29.154  39.899  13.476
83419W        W51793  25.180   0.813   4.700
83420W        W51794  36.020  17.068   4.140
83421W        W51795  16.693  22.250   1.269
83422W        W51796  17.740  43.341   2.376
83423W        W51797  10.167   0.493  14.784
83424W        W51798   8.312  31.016   1.917
83425W        W51799  43.457   5.318   0.246
83426W        W51800  19.663   1.445   4.638
83427W        W51801   5.275  43.825   0.750
83428W        W51802  31.069  41.381   2.801
83429W        W51803  33.055  42.964  14.499
83430W        W51804  29.484  13.601  12.571
83431W        W51805   5.836  37.065  12.345
83432W        W51806  38.390  12.262   1.759
83433W        W51807   8.832   6.231  13.897
83434W        W51808  19.132  37.528  12.861
83435W        W51809  17.081  38.446  14.343
83436W        W51810  24.112   0.838   0.833
83437W        W51811  19.126  19.115  11.490
83438W        W51812  20.535  26.157   2.731
83439W        W51813  15.235  10.846  12.997
83440W        W51814  35.976  18.676   5.081
83441W        W51815  15.663  13.750   2.769
83442W        W51816  35.976  11.751   1.408
83443W        W51817   3.907  34.436   0.821
83444W        W51818  28.526  42.976  13.470
83445W        W51819   2.903   9.755  14.367
83446W        W51820  39.479  44.912   4.250
83447W        W51821   6.921   2.291   2.284
83448W        W51822  40.020  27.049  13.991
83449W        W51823  11.304  27.548   1.265
83450W        W51824  32.009  20.067   4.801
83451W        W51825  16.166   3.419   2.707
83452W        W51826  21.166   9.647  11.481
83453W        W51827  20.580  26.486  14.763
83454W        W51828  14.236  21.120  12.024
83455W        W51829  20.532  19.571   4.349
83456W        W51830  14.161   2.812   4.178
83457W        W51831   1.363  41.509  10.630
83458W        W51832  25.043  32.444  12.061
83459W        W51833  23.540   0.492   0.443
83460W        W51834  40.822  14.712  10.444
83461W        W51835  10.291  13.143  12.984
83462W        W51836  30.010  17.718   1.225
83463W        W51837   8.751  27.151  14.020
83464W        W51838  36.007   6.395  12.423
83465W        W51839  33.537   0.801  14.333
83466W        W51840  39.485  14.257   5.188
83467W        W51841   8.670  44.449  12.376
83468W        W51842  28.967   3.855  13.847
83469W        W51843  41.449  34.413  10.567
83470W        W51844  11.670  36.547   3.230
83471W        W51845  27.974   4.791  13.373
83472W        W51846  32.422  10.237  10.451
83473W        W51847  42.526  33.095  13.925
83474W        W51848   0.461  31.055  10.449
83475W        W51849   7.246  27.142   0.260
83476W        W51850  36.538   8.831   0.874
83477W        W51851  30.417   0.281   1.804
83478W        W51852  15.083   1.949   3.148
83479W        W51853  16.224  29.624   0.935
83480W        W51854   9.740  42.914   3.313
83481W        W51855  32.120   7.397   1.716
83482W        W51856  28.948  44.781  14.330
83483W        W51857  41.299  41.515  13.340
83484W        W51858  42.792  21.220  10.467
83485W        W51859  18.168  20.199   3.838
83486W        W51860   4.897  17.123   5.143
83487W        W51861  38.441  36.539  14.016
83488W        W51862  20.767  30.040   3.838
83489W        W51863   3.265  44.815  10.946
83490W        W51864  16.713  18.675  12.546
83491W        W51865   1.479  24.132  11.985
83492W        W51866  40.454  42.830   3.242
83493W        W51867  17.095  18.667  12.561
83494W        W51868  38.538  23.551  12.536
83495W        W51869  42.880  43.334   5.116
83496W        W51870  28.996  18.667  11.379
83497W        W51871  20.551  35.028   1.217
83498W        W51872  33.013  11.314  11.387
83499W        W51873   4.232  37.840   0.966
83500W        W51874  41.966  16.693  14.873
83501W        W51875  44.946  29.479  11.915
83502W        W51876  31.591  19.081  14.998
83503W        W51877  42.407  43.492   2.192
83504W        W51878  36.037  21.144  11.121
83505W        W51879  17.577  18.246  12.566
83506W        W51880  20.138  22.144  11.053
83507W        W51881   1.241  14.177   3.756
83508W        W51882  42.351  40.441   1.288
83509W        W51883  38.986  29.495   4.615
83510W        W51884  12.246  40.344  13.792
83511W        W51885   8.772  10.633  13.059
83512W        W51886   3.951  23.640  10.460
83513W        W51887  34.012  23.063  14.893
83514W        W51888  14.111  12.613  11.925
83515W        W51889  39.374  33.585   2.777
83516W        W51890  27.595   6.344   2.249
83517W        W51891   4.286  23.044  11.390
83518W        W51892  33.577  35.560   2.270
83519W        W51893  33.034  20.124   4.275
83520W        W51894  14.112   9.691  12.545
83521W        W51895  12.219  26.552   1.827
83522W        W51896  37.995  32.491  11.583
83523W        W51897  44.294  43.847   0.338
83524W        W51898   9.875  17.105   4.230
83525W        W51899  11.724  30.445  11.000
83526W        W51900  21.164  37.962  13.959
83527W        W51901  37.440  39.405   2.180
83528W        W51902  33.483   9.228   4.647
83529W        W51903  13.262  15.312  11.988
83530W        W51904  33.014  15.749  13.517
83531W        W51905  34.902  12.247   1.427
83532W        W51906  19.187   4.424   1.211
83533W        W51907  17.724  30.069  13.421
83534W        W51908  17.633  31.578   2.761
83535W        W51909  21.233  11.738  12.927
83536W        W51910   7.803  12.312   4.639
83537W        W51911  42.787  24.549  12.848
83538W        W51912  14.833  10.251   0.848
83539W        W51913  35.934  43.273   3.216
83540W        W51914  19.138   2.960   3.826
83541W        W51915  32.954  17.225  12.959
83542W        W51916  27.125   8.394  13.942
83543W        W51917  17.559   4.907  11.077
83544W        W51918  22.585  10.863  12.070
83545W        W51919  30.577   2.329   2.757
83546W        W51920  17.080   8.792   3.343
83547W        W51921  20.182  10.188  14.485
83548W        W51922  18.757  35.498  14.832
83549W        W51923  35.484  33.394   3.208
83550W        W51924  33.402  13.789   3.163
83551W        W51925   1.324  36.000  11.867
83552W        W51926   5.210   3.461  13.883
83553W        W51927   2.772  25.527  13.059
83554W        W51928  40.439  33.475   1.231
83555W        W51929  23.555  43.858  14.836
83556W        W51930  34.514  17.301   3.640
83557W        W51931  11.621  11.710  13.383
83558W        W51932  29.100  16.163   3.259
83559W        W51933   9.255  31.414  10.926
83560W        W51934  33.459  18.554  11.540
83561W        W51935  31.576  34.974   4.674
83562W        W51936   7.350  35.065  12.372
83563W        W51937   8.369   6.268  14.982
83564W        W51938  40.837  34.559   0.769
83565W        W51939  13.612  21.102   1.774
83566W        W51940  20.222  27.134   0.865
83567W        W51941  35.406  18.649  10.510
83568W        W51942  26.083  38.395  11.930
83569W        W51943   7.323  17.215   1.286
83570W        W51944  23.228  14.113   0.404
83571W        W51945  14.704  16.807   2.390
83572W        W51946  17.748  21.556   0.304
83573W        W51947  11.373  28.606  11.603
83574W        W51948   7.745   7.312   0.826
83575W        W51949  14.213   8.857  12.928
83576W        W51950  14.690  36.905  14.304
83577W        W51951  30.134   1.314  12.547
83578W        W51952  40.842  21.244   0.880
83579W        W51953  34.026  19.077  13.415
83580W        W51954  18.146  21.237   4.166
83581W        W51955  16.236  18.578   0.743
83582W        W51956  31.459   6.182  12.984
83583W        W51957  35.026  38.341   4.725
83584W        W51958   5.238  26.679   3.810
83585W        W51959  37.979  13.337   1.284
83586W        W51960  22.724  41.810  12.007
83587W        W51961  10.672  34.989  11.568
83588W        W51962  19.766  44.272   3.313
83589W        W51963  10.660   9.704   4.626
83590W        W51964  40.507  12.805   4.670
83591W        W51965  29.457  39.316  13.012
83592W        W51966  39.978  20.134  14.967
83593W        W51967  29.527  25.542  13.418
83594W        W51968   4.414   4.810  13.447
83595W        W51969  39.471   8.727   3.220
83596W        W51970   6.269  20.047   0.417
83597W        W51971  17.783  42.996  10.918
83598W        W51972   9.187  11.807   2.277
83599W        W51973   0.275  33.420  14.357
83600W        W51974  33.500  32.128   4.302
83601W        W51975  13.202  16.175   0.381
83602W        W51976  43.306  18.702   2.866
83603W        W51977  29.661   6.405   2.724
83604W        W51978  33.992   5.251   3.652
83605W        W51979  27.668  42.822   4.263
83606W        W51980  44.478  20.543  11.873
83607W        W51981   2.282  43.862  12.895
83608W        W51982  13.347  44.451  14.392
83609W        W51983  32.481  42.919   3.278
83610W        W51984   3.770   5.924   3.764
83611W        W51985  33.041  24.616   2.211
83612W        W51986   9.368  18.113  11.431
83613W        W51987   2.339  12.747  11.558
83614W        W51988  29.556  17.230   4.611
83615W        W51989  19.563   3.244  14.972
83616W        W51990  43.827  10.846   0.824
83617W        W51991   3.888  42.326  11.014
83618W        W51992  43.936  11.219   1.288
83619W        W51993  44.431  25.110  11.098
83620W        W51994   3.828  32.449   2.780
83621W        W51995  11.257  43.434  11.989
83622W        W51996  25.636  27.626  12.439
83623W        W51997  35.478   8.893  11.007
83624W        W51998  31.038   7.250  10.914
83625W        W51999  27.675  32.092   3.841
83626W        W52000  30.057  14.629   4.619
83627W        W52001  40.308   1.737  11.873
83628W        W52002  41.466   9.181  10.486
83629W        W52003  37.465  44.822   2.320
83630W        W52004  26.494  43.943  11.020
83631W        W52005  28.059  32.469  14.933
83632W        W52006   5.299  43.905   0.455
83633W        W52007  28.552  32.597  13.512
83634W        W52008  16.643  13.734  14.917
83635W        W52009  36.918  22.239  11.559
83636W        W52010  42.380  17.190  11.119
83637W        W52011  22.138  17.711  12.091
83638W        W52012  44.444   9.200  11.905
83639W        W52013  29.953  31.581   2.753
83640W        W52014  42.916  18.158   1.707
83641W        W52015   2.814  18.753  11.986
83642W        W52016  25.592   4.351  12.931
83643W        W52017   5.422  31.145  10.434
83644W        W52018  12.753  27.633  14.502
83645W        W52019  20.135  36.850  10.476
83646W        W52020  38.430   2.460   2.708
83647W        W52021  17.788  11.346  14.283
83648W        W52022  41.940  26.629  10.977
83649W        W52023   1.461  35.089   0.921
83650W        W52024  34.882   9.340   2.284
83651W        W52025  12.126  18.724  13.965
83652W        W52026   9.798   1.813   1.219
83653W        W52027  33.550   0.828   4.197
83654W        W52028  35.530   5.899  10.615
83655W        W52029  16.158  38.339   4.627
83656W        W52030   9.860  44.339  13.485
83657W        W52031  32.577  20.105   1.764
83658W        W52032  37.883   6.797   1.912
83659W        W52033  21.020  41.014   2.233
83660W        W52034  40.482  16.669  12.921
83661W        W52035  15.193   8.318  12.480
83662W        W52036   3.300  26.609  14.888
83663W        W52037  40.357   4.395  12.065
83664W        W52038  23.181   2.796   0.837
83665W        W52039  36.063   0.436  11.119
83666W        W52040  42.314  26.545   1.818
83667W        W52041   9.363  21.562   5.244
83668W        W52042  36.483   5.328  13.039
83669W        W52043   9.204  15.211   1.328
83670W        W52044  40.471  13.281   3.757
83671W        W52045   8.740  32.996   3.305
83672W        W52046  17.624  37.481  11.603
83673W        W52047  18.780  19.740  14.014
83674W        W52048  30.466   7.889   2.716
83675W        W52049  17.593  21.720  14.333
83676W        W52050  17.096  30.972   3.823
83677W        W52051  15.689  32.901  13.389
83678W        W52052  25.083   9.850   4.700
83679W        W52053  15.154  16.206   0.346
83680W        W52054  23.200  44.329  14.798
83681W        W52055  21.172  23.172  12.896
83682W        W52056   6.846  24.163  10.083
83683W        W52057  10.245   6.366   0.965
83684W        W52058  37.079  38.450  14.842
83685W        W52059  22.215  22.172   2.748
83686W        W52060  11.155   3.428  13.009
83687W        W52061  35.543  21.253  12.072
83688W        W52062  30.024  16.273   0.868
83689W        W52063   5.879  32.140  13.494
83690W        W52064  29.036  44.774  13.312
83691W        W52065   3.427  16.626   1.284
83692W        W52066   2.300  19.062   0.430
83693W        W52067  22.198  11.318  10.619
83694W        W52068  30.567  33.076   1.291
83695W        W52069  13.298   2.905   0.811
83696W        W52070  31.497  18.682  12.348
83697W        W52071  39.017  32.885  11.536
83698W        W52072  11.668  28.520   0.253
83699W        W52073  22.726  25.195  11.002
83700W        W52074  20.588   9.709   1.440
83701W        W52075  41.504  44.792   1.855
83702W        W52076  12.182   1.248   4.819
83703W        W52077   9.252  14.716   2.726
83704W        W52078   0.866  27.098  14.373
83705W        W52079  21.547   7.873   1.249
83706W        W52080   6.289  22.603   3.364
83707W        W52081  41.291  17.759  14.310
83708W        W52082  40.515  41.464   3.791
83709W        W52083  19.143  11.700  14.014
83710W        W52084  16.280  34.034  11.536
83711W        W52085  31.899   4.257  12.426
83712W        W52086   0.482  18.137   3.786
83713W        W52087  21.027  10.260  14.928
83714W        W52088   8.399  21.703   0.302
83715W        W52089  21.131  27.596  10.463
83716W        W52090  38.933  13.800   3.803
83717W        W52091  38.386  20.757   2.763
83718W        W52092   3.816  32.124  10.551
83719W        W52093  25.021  35.401   2.211
83720W        W52094  28.516   6.826  14.001
83721W        W52095  20.144  28.032  12.939
83722W        W52096  23.003  29.531   1.758
83723W        W52097  28.982  40.945   3.833
83724W        W52098  26.019  42.339  13.824
83725W        W52099  24.487   5.314   4.303
83726W        W52100  30.472  11.188  12.382
83727W        W52101   0.900  25.660  12.568
83728W        W52102  11.363  15.695   4.149
83729W        W52103   3.841  18.548  14.782
83730W        W52104  38.529   2.901  11.432
83731W        W52105  28.593  39.372   3.262
83732W        W52106  29.071   6.366  11.506
83733W        W52107  39.346  17.669  14.414
83734W        W52108   2.318  32.504  11.009
83735W        W52109  30.154   6.697  11.908
83736W        W52110  21.539  24.510  13.504
83737W        W52111   3.834  19.570  11.457
83738W        W52112  24.497  11.190   2.848
83739W        W52113  28.148  14.143  12.878
83740W        W52114   1.419   2.323   4.810
83741W        W52115  27.656  35.001  13.465
83742W        W52116  33.066  44.977  11.572
83743W        W52117  15.224  22.999  13.421
83744W        W52118  23.184  24.638  14.854
83745W        W52119  19.587  28.483   2.317
83746W        W52120  26.998  18.783  12.855
83747W        W52121  20.038  20.751   0.818
83748W        W52122   6.184  25.544   2.671
83749W        W52123  40.358  11.183   1.898
83750W        W52124   8.688  18.174   5.615
83751W        W52125  35.473   5.372  14.405
83752W        W52126  37.350  19.283  11.022
83753W        W52127  21.721  21.720  12.343
83754W        W52128  34.510  23.216  11.932
83755W        W52129   0.858  16.180   1.342
83756W        W52130  30.634  27.611   3.297
83757W        W52131  31.495  32.998   3.750
83758W        W52132   8.851   1.246  13.507
83759W        W52133   9.751  42.867  10.503
83760W        W52134  12.852  43.899  13.413
83761W        W52135  33.066   7.806  12.438
83762W        W52136  29.969  25.536  13.411
83763W        W52137   6.394   3.919  14.318
83764W        W52138  25.137  28.046   3.685
83765W        W52139  18.091  18.288  11.893
83766W        W52140  20.743  22.564  12.440
83767W        W52141  25.099  18.569  12.036
83768W        W52142   2.397  20.149  10.922
83769W        W52143  20.185   0.370   2.730
83770W        W52144  29.922  23.719   2.796
83771W        W52145   3.846  38.561  10.892
83772W        W52146  28.025   5.924   3.797
83773W        W52147  13.846  13.118  10.494
83774W        W52148  22.039   7.414  12.507
83775W        W52149  23.561  27.047   4.239
83776W        W52150  43.871   4.427  12.373
83777W        W52151  24.032   0.449  14.505
83778W        W52152  43.006  22.006  12.439
83779W        W52153  25.130  10.316   0.329
83780W        W52154   6.765  16.736   3.290
83781W        W52155  27.685  40.359  13.528
83782W        W52156  37.962  20.730   4.802
83783W        W52157  24.683  30.061   1.294
83784W        W52158  40.508  12.747  12.849
83785W        W52159  30.036   3.379  14.320
83786W        W52160  29.649  24.214   3.365
83787W        W52161  14.145   3.943  13.347
83788W        W52162  37.966  34.935   1.771
83789W        W52163  23.595   5.786   1.412
83790W        W52164   8.236  23.583  12.925
83791W        W52165  35.082  26.020  13.951
83792W        W52166  28.517  18.257   2.674
83793W        W52167  15.220  41.295   4.154
83794W        W52168  21.066  13.128  13.442
83795W        W52169  44.272   6.306   2.855
83796W        W52170  41.475  26.472   0.302
83797W        W52171  14.668  29.040  12.045
83798W        W52172  25.642  41.990  13.046
83799W        W52173  41.926  35.472  12.564
83800W        W52174  11.278   5.773  14.415
83801W        W52175  42.856  34.571  10.075
83802W        W52176  18.178  30.084   3.816
83803W        W52177   9.718   7.691   4.307
83804W        W52178   0.792  38.919   1.261
83805W        W52179  21.152   2.860  11.899
83806W        W52180  10.832  10.749   3.717
83807W        W52181  24.487  28.174   4.271
83808W        W52182  23.235  36.397   2.319
83809W        W52183  11.792   1.250   3.863
83810W        W52184  12.749  25.535   1.726
83811W        W52185  12.169   0.887   2.677
83812W        W52186  35.550  16.296   0.863
83813W        W52187   3.889  44.427  13.044
83814W        W52188  23.237  17.101  10.408
83815W        W52189   8.287  38.544  14.324
83816W        W52190  30.987  22.589   5.209
83817W        W52191  15.248  44.903  12.472
83818W        W52192  15.293  15.245  11.012
83819W        W52193  14.222  23.088  14.335
83820W        W52194  25.032   7.340   0.476
83821W        W52195  34.437  21.596   2.393
83822W        W52196  34.396   1.253  13.321
83823W        W52197  10.692  32.989   2.293
83824W        W52198   1.382  44.986   3.769
83825W        W52199  44.950   2.262  12.522
83826W        W52200  36.412  14.809  13.948
83827W        W52201  11.285   6.817   2.878
83828W        W52202  26.560   0.872  13.307
83829W        W52203  13.801   9.327   4.644
83830W        W52204  24.596  26.108  14.499
83831W        W52205  44.910  42.889   2.798
83832W        W52206   5.225  42.025   3.788
83833W        W52207  17.742  29.081   2.283
83834W        W52208  22.164   8.256   1.247
83835W        W52209  10.700  43.361  11.996
83836W        W52210  44.789  18.589  11.405
83837W        W52211  13.335   2.759  14.858
83838W        W52212  29.521  25.498  14.425
83839W        W52213  12.669  19.116   1.348
83840W        W52214   2.323  29.056   2.263
83841W        W52215  39.864   2.817   3.311
83842W        W52216  28.622  27.109  12.849
83843W        W52217   5.877  16.786   4.681
83844W        W52218  10.665  40.370  13.816
83845W        W52219  39.990   6.361   4.692
83846W        W52220  13.651   9.243  11.003
83847W        W52221   2.446  19.059   2.831
83848W        W52222  41.789  33.432   3.785
83849W        W52223  32.035  10.736  12.013
83850W        W52224  42.973   4.295   1.697
83851W        W52225  25.673   3.265   4.837
83852W        W52226  15.726  40.023   2.900
83853W        W52227  26.687   6.404  11.513
83854W        W52228  25.112  31.570   1.928
83855W        W52229  21.205  12.682  12.500
83856W        W52230  30.621  43.459   1.355
83857W        W52231  22.660  34.371   2.191
83858W        W52232  38.923   1.318  14.332
83859W        W52233   1.932  42.389  13.983
83860W        W52234  24.170  16.310   2.351
83861W        W52235  30.645  41.325  10.991
83862W        W52236  35.039  44.944   1.788
83863W        W52237  27.504  12.704   0.413
83864W        W52238  40.354   5.259  12.863
83865W        W52239   8.331   8.880   3.810
83866W        W52240  20.077   9.792  11.552
83867W        W52241  33.462  12.185   4.184
83868W        W52242  17.089  26.467  13.365
83869W        W52243  44.282  11.167   0.929
83870W        W52244  15.589   8.399  12.426
83871W        W52245   9.224  22.527  14.410
83872W        W52246  20.238  24.043  14.323
83873W        W52247   3.376   6.356  14.362
83874W        W52248  20.216  42.912   3.736
83875W        W52249   3.827   4.245   3.166
83876W        W52250  26.041  42.493  10.924
83877W        W52251  38.539  15.142   3.824
83878W        W52252  40.052  38.889   1.715
83879W        W52253   6.314  20.159  12.574
83880W        W52254   1.376  36.907  10.540
83881W        W52255  26.559  12.642  13.359
83882W        W52256  41.947   5.365  11.494
83883W        W52257   9.748  17.099  10.417
83884W        W52258  16.567  31.945  13.518
83885W        W52259  23.574   2.894  10.490
83886W        W52260  40.303   0.766   1.435
83887W        W52261  39.948  37.905  13.838
83888W        W52262   6.388   2.893  11.959
83889W        W52263  19.144  24.021  10.592
83890W        W52264  34.552  17.231   0.844
83891W        W52265  40.443  29.590   3.794
83892W        W52266  10.739  34.110   3.711
83893W        W52267   9.804   1.385  10.572
83894W        W52268   4.880   0.282  14.316
83895W        W52269   5.879  22.099  14.399
83896W        W52270  39.837  29.642  11.099
83897W        W52271  23.993  11.246  12.014
83898W        W52272  16.095  33.410  10.028
83899W        W52273  30.426  34.432   3.330
83900W        W52274   4.843   0.894  14.790
83901W        W52275  41.416  14.319  13.471
83902W        W52276  10.358  29.965  14.004
83903W        W52277  44.794  19.761   3.713
83904W        W52278  23.571  30.468  12.447
83905W        W52279  25.701  44.374   5.207
83906W        W52280  34.942  33.887  13.528
83907W        W52281  32.446  29.599   1.729
83908W        W52282   1.429  17.773   2.700
83909W        W52283  18.562  36.055   1.727
83910W        W52284  32.622  14.128  12.553
83911W        W52285  10.278   0.378   0.880
83912W        W52286  25.064   4.770   0.377
83913W        W52287  44.416  41.366  14.387
83914W        W52288   4.426  26.627   4.768
83915W        W52289  33.907  30.044  11.538
83916W        W52290  39.004  31.413  14.778
83917W        W52291  30.030  11.272  14.836
83918W        W52292  23.500  35.945  12.347
83919W        W52293  16.218  30.982   2.830
83920W        W52294  32.135  23.009  13.980
83921W        W52295   9.217  30.979  12.561
83922W        W52296   0.297   2.844   4.799
83923W        W52297  38.562  14.131   0.438
83924W        W52298  31.432  21.182  12.927
83925W        W52299  38.438  22.175   3.157
83926W        W52300  35.604  37.083   4.683
83927W        W52301  13.345  37.861   3.168
83928W        W52302   9.176  16.721   4.330
83929W        W52303  36.393  11.186  12.998
83930W        W52304  31.420  25.135  12.902
83931W        W52305   9.792  24.649   3.705
83932W        W52306   5.790  29.022  11.422
83933W        W52307  24.030  39.364   9.940
83934W        W52308  26.156  10.771   4.767
83935W        W52309  25.143  24.639  12.541
83936W        W52310  34.554  38.988  13.403
83937W        W52311  32.438  13.780  12.576
83938W        W52312  10.635  34.115  11.592
83939W        W52313  17.716  33.574  12.478
83940W        W52314  25.572  30.064  13.473
83941W        W52315  36.906  17.755   0.802
83942W        W52316  36.067  39.475  11.515
83943W        W52317  41.435  13.623   4.280
83944W        W52318  42.024   8.181   4.328
83945W        W52319  28.133  10.295  11.531
83946W        W52320   6.777  30.128  12.030
83947W        W52321   6.839  13.123   0.743
83948W        W52322  25.202  11.337  14.925
83949W        W52323  32.635  13.609  10.596
83950W        W52324  33.608  34.064   3.294
83951W        W52325  10.156  31.595   3.361
83952W        W52326   0.283  41.422   2.245
83953W        W52327   3.900  36.420   0.334
83954W        W52328  15.280  12.147   3.268
83955W        W52329   9.800  28.654   2.801
83956W        W52330  41.892  24.654  12.414
83957W        W52331  35.853   5.242   4.166
83958W        W52332   7.282  40.443  13.926
83959W        W52333   1.426   2.402   2.355
83960W        W52334   0.839  22.572  12.860
83961W        W52335  23.635  39.532   5.707
83962W        W52336  42.521  12.663  11.863
83963W        W52337  17.292   2.280   2.747
83964W        W52338  27.036  15.138   4.668
83965W        W52339  16.286  25.557   1.895
83966W        W52340   3.431  33.934   0.448
83967W        W52341  13.756  35.037  14.413
83968W        W52342  25.569  34.069   2.881
83969W        W52343  37.033  25.484   0.389
83970W        W52344  38.957  20.579  11.403
83971W        W52345  42.471  18.099   2.304
83972W        W52346  36.527  13.158  12.925
83973W        W52347  19.645   0.341  10.439
83974W        W52348  36.924  32.418  14.474
83975W        W52349  23.686  12.192  14.939
83976W        W52350  30.439  33.591  13.916
83977W        W52351  30.050   8.367  12.413
83978W        W52352  38.475  24.039  12.576
83979W        W52353  41.371  42.970   1.281
83980W        W52354  42.912  43.408  10.918
83981W        W52355  22.214  12.347   3.830
83982W        W52356  10.383  27.547  12.987
83983W        W52357  44.925  39.031   3.849
83984W        W52358  21.082   0.804  12.495
83985W        W52359   7.733  35.916  11.067
83986W        W52360  22.147  37.009  14.796
83987W        W52361  43.393  27.039  14.478
83988W        W52362  27.138   4.217  11.908
83989W        W52363  44.992  40.477  14.825
83990W        W52364  41.446  25.046  11.497
83991W        W52365  17.725  25.654  11.976
83992W        W52366  31.955  42.894  13.867
83993W        W52367  28.026  31.961   2.772
83994W        W52368  31.012   9.777   0.905
83995W        W52369   7.872  12.778   3.845
83996W        W52370  29.452  42.356  12.953
83997W        W52371  27.676  36.003  11.570
83998W        W52372  38.437  36.419  11.410
83999W        W52373   0.860   2.829   4.152
84000W        W52374  26.531  21.690  10.546
84001W        W52375  35.905  37.532  14.284
84002W        W52376  28.047   3.883   1.264
84003W        W52377   6.918  40.843   4.161
84004W        W52378  32.483  42.818  11.003
84005W        W52379   5.889  41.394  11.597
84006W        W52380   6.769  15.782  10.026
84007W        W52381  39.903  16.184  12.043
84008W        W52382   2.763  40.431  13.853
84009W        W52383  29.518   0.348   1.274
84010W        W52384  16.185   0.752   2.721
84011W        W52385  11.832   0.818  14.277
84012W        W52386  26.484   8.224   1.858
84013W        W52387   8.893  44.991  14.847
84014W        W52388  34.032  18.577   1.356
84015W        W52389  44.834  20.257  10.499
84016W        W52390  34.400  20.119   2.871
84017W        W52391  29.493   7.868   2.383
84018W        W52392  24.513  17.733   3.708
84019W        W52393  39.815  17.774   0.353
84020W        W52394  23.988  22.584   0.918
84021W        W52395  21.721  23.692  11.427
84022W        W52396   4.383  13.645  14.329
84023W        W52397  29.583  10.312   5.101
84024W        W52398   6.422  14.196   3.775
84025W        W52399  30.463  17.232   3.311
84026W        W52400   4.369  36.906  11.484
84027W        W52401  29.435  14.250   0.850
84028W        W52402  19.273  27.957   0.342
84029W        W52403   4.841  26.002   3.643
84030W        W52404   3.801  32.993  14.503
84031W        W52405  25.689  35.989  14.917
84032W        W52406  20.596   2.350   0.787
84033W        W52407   4.911  13.132  12.982
84034W        W52408  40.384  22.211   2.728
84035W        W52409  42.952  34.024   1.829
84036W        W52410  18.615  39.020  14.459
84037W        W52411  43.364  38.983   3.205
84038W        W52412  20.527  25.174  12.039
84039W        W52413  40.844  27.539  13.848
84040W        W52414  10.876   2.388   4.175
84041W        W52415  15.219   0.280   2.896
84042W        W52416  25.098   5.766  10.413
84043W        W52417  30.914   7.373  11.386
84044W        W52418  29.962  24.203  14.963
84045W        W52419  26.474  38.484  12.512
84046W        W52420  26.543  16.774   3.647
84047W        W52421  23.113  38.512   4.834
84048W        W52422  30.422  38.948   3.709
84049W        W52423  32.129  25.040  11.547
84050W        W52424  26.951   1.385   2.396
84051W        W52425  14.588   8.845  14.463
84052W        W52426  11.145  38.499   1.785
84053W        W52427  23.612  15.265   0.864
84054W        W52428  19.183  29.667  13.311
84055W        W52429  31.566  18.144   2.389
84056W        W52430  10.261   0.429  10.016
84057W        W52431   6.222  32.452   4.264
84058W        W52432  30.121  32.892   3.318
84059W        W52433  44.453  28.077   0.357
84060W        W52434   2.781  30.999   0.736
84061W        W52435  26.597  32.098  11.395
84062W        W52436  33.538  33.522  13.020
84063W        W52437  19.564  14.228   0.408
84064W        W52438  12.250  23.534  11.952
84065W        W52439  31.075  29.626   1.344
84066W        W52440  44.970  36.017   2.697
84067W        W52441  36.489  34.575   2.198
84068W        W52442   2.256  29.113  14.764
84069W        W52443  38.850  35.495   2.896
84070W        W52444  28.053  24.108   0.923
84071W        W52445  16.706  10.286   3.199
84072W        W52446  16.077  37.434  13.857
84073W        W52447  41.857   0.338   4.295
84074W        W52448  14.174   7.742  10.998
84075W        W52449  15.319   7.834   4.156
84076W        W52450  11.812   4.791   4.274
84077W        W52451  31.997  33.421   4.308
84078W        W52452  44.885  36.538   2.229
84079W        W52453  30.136  12.240   2.673
84080W        W52454  41.430  15.285   0.427
84081W        W52455  32.035  43.452   2.816
84082W        W52456  30.093  28.181   3.787
84083W        W52457  30.950   4.306   2.803
84084W        W52458  17.123  11.808  11.507
84085W        W52459  23.056  41.330   1.363
84086W        W52460  37.490  15.640   4.615
84087W        W52461  12.260  38.524  11.605
84088W        W52462  42.493  39.903   2.389
84089W        W52463  37.041   2.827  13.524
84090W        W52464  38.351  13.820   1.379
84091W        W52465  28.058  22.078   3.293
84092W        W52466  23.024  28.440  13.390
84093W        W52467  21.239   4.212   2.280
84094W        W52468  18.147   6.816  10.543
84095W        W52469  28.026  43.880  11.949
84096W        W52470   2.783  22.083  13.053
84097W        W52471  32.891  16.264   0.906
84098W        W52472  37.355  36.466  13.836
84099W        W52473   9.831  34.996   2.707
84100W        W52474  11.181  42.903   4.807
84101W        W52475  19.247  21.514   4.333
84102W        W52476  35.525  14.618  13.975
84103W        W52477  43.361  42.963  11.967
84104W        W52478  28.449  12.694  11.014
84105W        W52479  39.926  24.633  12.433
84106W        W52480  28.980  43.949   3.817
84107W        W52481   5.765  22.731   1.384
84108W        W52482  25.551   5.814  11.553
84109W        W52483   0.806  17.131  14.301
84110W        W52484   0.394   7.319  11.969
84111W        W52485  44.814   9.365   4.194
84112W        W52486  33.589   9.848  10.427
84113W        W52487  27.093  11.793   2.362
84114W        W52488  25.519  11.779  12.824
84115W        W52489  31.451   5.815   0.411
84116W        W52490  26.555   6.315   1.797
84117W        W52491  18.545   8.377   3.636
84118W        W52492  27.102  19.050   4.196
84119W        W52493   1.467  15.161   0.345
84120W        W52494  29.448   8.241   4.677
84121W        W52495  11.347  11.756  13.981
84122W        W52496  23.595  41.413   3.297
84123W        W52497  44.367  20.753   3.864
84124W        W52498  32.540   1.853  10.953
84125W        W52499  22.201  16.163  10.912
84126W        W52500  38.832  42.474  14.442
84127W        W52501   6.203  22.600   1.294
84128W        W52502  35.386  41.399   0.419
84129W        W52503   4.396  34.481  12.981
84130W        W52504   9.266   6.680   4.265
84131W        W52505  21.559   8.878   2.892
84132W        W52506   6.381  20.619  10.910
84133W        W52507   0.974  23.639   4.755
84134W        W52508  32.503  40.051  14.917
84135W        W52509  29.429  37.045   2.301
84136W        W52510  20.269  25.975  11.954
84137W        W52511  32.637  34.508   2.193
84138W        W52512  44.985   9.851   0.936
84139W        W52513   3.753  16.602  11.094
84140W        W52514  31.425   7.180   1.237
84141W        W52515  38.870  43.860  14.759
84142W        W52516   4.427   6.879  13.958
84143W        W52517  21.068  12.842   9.998
84144W        W52518  28.672   5.755  12.430
84145W        W52519   8.859  32.908  13.879
84146W        W52520   9.206  38.567  14.998
84147W        W52521  33.588  27.074   9.978
84148W        W52522   9.178  21.603   4.205
84149W        W52523  31.563  22.193   0.462
84150W        W52524  17.115  38.913  13.965
84151W        W52525  13.193  38.342   1.704
84152W        W52526  22.645  36.046  14.919
84153W        W52527  20.263   3.784  11.933
84154W        W52528  31.031  22.194  12.840
84155W        W52529   8.181  29.161  11.065
84156W        W52530   1.977  42.288  14.811
84157W        W52531   8.361  10.846   3.224
84158W        W52532  34.437  23.528  14.890
84159W        W52533  37.903  19.709  12.516
84160W        W52534  17.088  40.041  11.858
84161W        W52535  35.986  15.153   2.406
84162W        W52536  44.457  10.812  12.565
84163W        W52537  28.099   8.779  12.554
84164W        W52538  30.153  32.401   4.181
84165W        W52539  38.521  20.682   1.875
84166W        W52540  35.997  21.542  10.607
84167W        W52541   6.280  15.630  10.098
84168W        W52542  10.288  32.407  11.958
84169W        W52543  24.482  38.482  12.525
84170W        W52544  17.602  10.153  10.491
84171W        W52545  12.295   6.710   0.768
84172W        W52546   9.699  38.865   3.195
84173W        W52547  36.521  10.758   0.253
84174W        W52548  14.781  38.843   0.374
84175W        W52549  32.056  42.890   4.191
84176W        W52550  16.271  24.709   4.790
84177W        W52551  36.583  14.622  13.518
84178W        W52552   4.246  20.694   0.265
84179W        W52553  39.525  33.504   3.216
84180W        W52554  33.918  43.012  10.575
84181W        W52555  28.143   6.731   3.685
84182W        W52556  20.096  22.108   0.940
84183W        W52557  10.634  29.171  13.418
84184W        W52558  15.233  36.494   1.420
84185W        W52559  20.103  43.272  13.537
84186W        W52560  43.273   2.403   0.432
84187W        W52561  33.983  38.352  12.974
84188W        W52562  34.589  23.728  11.519
84189W        W52563  44.900  34.608   0.866
84190W        W52564  35.602   3.767   2.900
84191W        W52565  10.319  24.497   4.143
84192W        W52566   7.858   1.327   4.716
84193W        W52567  41.343  30.505   2.806
84194W        W52568  40.541  41.823   4.301
84195W        W52569   2.307   8.251  11.931
84196W        W52570  13.688  22.538   3.653
84197W        W52571  16.159  38.843   4.600
84198W        W52572  36.358  13.632  14.366
84199W        W52573  25.175  41.881   2.713
84200W        W52574   2.774  35.359  10.459
84201W        W52575  21.527  14.674  13.945
84202W        W52576   1.395  30.979  14.476
84203W        W52577  39.945  33.625  13.547
84204W        W52578   6.909  10.714  13.910
84205W        W52579  11.258  27.463  13.497
84206W        W52580  32.608  15.731  13.495
84207W        W52581  12.334  23.568  10.551
84208W        W52582  34.587  31.074  11.599
84209W        W52583  28.162  10.373   3.297
84210W        W52584   7.277   3.733   1.329
84211W        W52585  18.688   9.244  11.115
84212W        W52586  31.482  27.496  13.401
84213W        W52587  14.830  11.345   5.642
84214W        W52588  43.950   7.309   3.792
84215W        W52589  31.450  35.378   0.430
84216W        W52590  37.353  40.490  11.061
84217W        W52591  10.167   7.798   4.135
84218W        W52592  19.041   6.819   4.138
84219W        W52593   5.751   0.382  13.018
84220W        W52594  41.387  10.147   2.264
84221W        W52595   5.266  15.108   2.876
84222W        W52596  23.500  31.093  12.914
84223W        W52597  27.146  35.005  13.493
84224W        W52598  22.126  42.452   1.402
84225W        W52599  39.986  19.540   4.307
84226W        W52600  21.719  36.432   0.474
84227W        W52601  36.509  31.423   1.866
84228W        W52602  32.500  31.472   1.388
84229W        W52603  12.739  30.474   1.735
84230W        W52604   1.761   9.677  11.023
84231W        W52605  13.639  39.540  11.007
84232W        W52606   0.305   3.895   2.308
84233W        W52607  14.809  36.957  12.546
84234W        W52608  31.051  43.937   3.150
84235W        W52609  23.695   4.246   1.337
84236W        W52610   3.755  30.962   2.830
84237W        W52611  34.488   8.823   3.641
84238W        W52612  37.576  39.378  11.585
84239W        W52613  36.469   1.325   3.386
84240W        W52614  33.888  22.501   2.735
84241W        W52615  28.658  38.501   3.637
84242W        W52616  15.294  27.122  14.799
84243W        W52617   7.812   5.277  12.408
84244W        W52618  29.142  23.124  14.350
84245W        W52619  31.612  13.192   4.638
84246W        W52620   5.389  12.278  12.542
84247W        W52621  27.018  27.992  11.478
84248W        W52622  34.899  41.471   0.447
84249W        W52623  39.507  29.658  12.486
84250W        W52624  16.573  42.491   2.770
84251W        W52625  18.717  13.256   3.849
84252W        W52626  36.905  37.346   4.115
84253W        W52627  15.274  35.893  13.954
84254W        W52628  18.155  41.825   2.344
84255W        W52629  38.555  38.931  14.462
84256W        W52630  37.462   4.712   2.245
84257W        W52631  30.506  11.347  13.881
84258W        W52632  16.797  13.182   0.424
84259W        W52633  28.674  31.019  12.888
84260W        W52634  19.115  35.957   4.725
84261W        W52635  10.741   9.807   1.429
84262W        W52636  24.143   1.349   3.221
84263W        W52637  27.081   5.228   2.213
84264W        W52638  44.963  24.541  12.431
84265W        W52639   8.247  11.852   0.459
84266W        W52640  26.667   9.658   3.356
84267W        W52641  44.405   9.168   5.212
84268W        W52642  22.608  40.009  10.533
84269W        W52643   7.890  38.040  14.949
84270W        W52644  10.162  22.555  11.563
84271W        W52645  38.824   3.811  14.427
84272W        W52646  28.585  23.730   2.298
84273W        W52647  11.671  23.553   3.726
84274W        W52648  37.911  25.099   1.402
84275W        W52649  29.461  29.113   1.272
84276W        W52650  38.887  30.651  11.480
84277W        W52651  22.214   2.429  12.979
84278W        W52652   1.970  12.167  13.546
84279W        W52653  37.874  38.949   4.732
84280W        W52654  20.690  15.140  14.963
84281W        W52655  15.303  30.597  13.430
84282W        W52656  31.623  35.402  11.002
84283W        W52657  41.481  11.177   3.359
84284W        W52658  19.627   1.894  11.505
84285W        W52659  26.684  21.564  14.928
84286W        W52660  21.197  36.851   5.313
84287W        W52661   7.356  30.969   3.739
84288W        W52662  22.689  21.244   3.202
84289W        W52663  38.401  31.074  13.025
84290W        W52664  21.572  19.134  11.914
84291W        W52665  39.540  41.434   4.748
84292W        W52666  19.712  33.072   1.761
84293W        W52667  30.017  38.333  12.923
84294W        W52668  14.310  26.089   3.751
84295W        W52669  31.128  28.538   3.252
84296W        W52670  41.376  23.507   1.880
84297W        W52671  28.080  15.739   3.183
84298W        W52672  37.408   1.973  14.443
84299W        W52673   1.287  33.116   4.233
84300W        W52674  30.438   4.875   3.737
84301W        W52675   0.347  28.039   3.289
84302W        W52676  19.089  36.841   0.746
84303W        W52677  32.119   2.427   4.221
84304W        W52678   0.858   3.775  12.526
84305W        W52679   0.857   3.320   2.690
84306W        W52680  23.656  30.064   0.756
84307W        W52681  26.544   6.198   3.819
84308W        W52682   6.781  20.229   9.600
84309W        W52683  16.744  35.913  10.955
84310W        W52684  12.855  28.139  13.496
84311W        W52685  27.682  26.480  11.543
84312W        W52686  21.021  18.598  14.451
84313W        W52687  23.212  14.312   2.360
84314W        W52688  25.598  44.304  14.333
84315W        W52689  19.720  19.734   1.401
84316W        W52690   7.752  18.582  12.851
84317W        W52691   0.813  44.937  11.913
84318W        W52692  23.654   4.850   3.760
84319W        W52693  16.198  11.793   2.226
84320W        W52694  35.503   1.242  14.294
84321W        W52695  36.030  41.961   1.333
84322W        W52696  21.108  30.925   4.766
84323W        W52697   8.875   0.820  13.022
84324W        W52698  19.132  21.073  12.477
84325W        W52699  33.062   4.851  12.965
84326W        W52700  13.327   7.767   1.782
84327W        W52701  22.216  15.772  11.942
84328W        W52702   5.293  15.213  14.420
84329W        W52703  21.660  21.103   2.739
84330W        W52704  36.967  33.548   3.675
84331W        W52705   8.264  36.554   4.651
84332W        W52706  17.134  13.801  10.968
84333W        W52707  14.776  12.789   1.250
84334W        W52708  44.761  24.137   3.368
84335W        W52709  29.077   3.857   3.248
84336W        W52710  38.418  26.530  14.336
84337W        W52711  39.972  38.417   3.348
84338W        W52712  41.505  13.801   2.307
84339W        W52713   5.206   8.844  14.891
84340W        W52714  16.124  19.071   2.338
84341W        W52715  34.439   1.779  13.930
84342W        W52716  41.924   1.802  13.452
84343W        W52717  42.457  20.046   4.191
84344W        W52718  23.231  42.364   0.453
84345W        W52719  23.614  21.750  11.991
84346W        W52720  12.812  31.984   2.849
84347W        W52721  12.765   3.350   3.260
84348W        W52722  35.358  23.108   4.126
84349W        W52723  11.816  35.909  12.375
84350W        W52724  22.162   8.316  14.301
84351W        W52725   2.775  11.756  10.486
84352W        W52726   1.844   9.832   0.416
84353W        W52727  12.706   7.720   0.733
84354W        W52728  28.555  27.645   4.214
84355W        W52729  13.280  37.938   1.781
84356W        W52730   6.868  11.810   4.252
84357W        W52731  18.704  21.209  12.052
84358W        W52732  25.103  15.696  11.468
84359W        W52733  38.532  40.941   4.704
84360W        W52734   2.264   1.873   1.780
84361W        W52735  43.399  44.482  10.145
84362W        W52736  23.107  10.681   3.206
84363W        W52737  32.109  15.620   4.321
84364W        W52738  15.664   0.903   4.781
84365W        W52739  27.976  27.671   1.906
84366W        W52740  11.289   6.383   4.608
84367W        W52741  33.089   5.737   0.256
84368W        W52742   5.761  33.882  12.370
84369W        W52743  44.499  32.905  11.078
84370W        W52744  16.147   1.740   3.152
84371W        W52745  37.013   5.241  12.959
84372W        W52746  19.119  19.557  13.939
84373W        W52747  22.116  41.993  13.033
84374W        W52748   8.302   8.805  10.999
84375W        W52749  24.975  31.059   3.738
84376W        W52750  29.091  20.559   3.732
84377W        W52751  26.148  17.204   3.806
84378W        W52752  30.451  43.979  14.482
84379W        W52753  31.931  34.042  14.896
84380W        W52754  27.536  43.795   4.818
84381W        W52755  12.664  25.128  13.461
84382W        W52756  24.522   1.928  14.919
84383W        W52757  12.630  40.402   4.343
84384W        W52758  30.919  28.519   4.723
84385W        W52759  13.163   1.791  10.018
84386W        W52760  33.446  39.964  10.897
84387W        W52761  20.597  20.562  14.999
84388W        W52762   4.408  30.100  14.837
84389W        W52763  17.184  17.246   3.765
84390W        W52764  12.674   4.707   2.864
84391W        W52765   9.855  28.945  12.423
84392W        W52766  44.442  44.455   4.326
84393W        W52767  30.138   4.928   1.278
84394W        W52768  34.083   3.822  10.959
84395W        W52769  19.705  20.028   2.231
84396W        W52770   7.745   8.369  13.485
84397W        W52771  40.028  23.696   2.765
84398W        W52772  29.173  17.158  12.089
84399W        W52773   7.667   9.829   4.745
84400W        W52774  29.515  42.343   1.757
84401W        W52775   7.218  37.468   3.345
84402W        W52776  41.399  12.763   2.695
84403W        W52777  31.951  21.565   3.188
84404W        W52778  30.958  12.698  11.988
84405W        W52779  29.622  21.633  12.397
84406W        W52780  17.739   3.734  12.433
84407W        W52781  18.742  11.743  11.443
84408W        W52782  23.027  35.983  12.912
84409W        W52783   5.819  36.911   2.235
84410W        W52784   7.214   6.280   3.186
84411W        W52785  22.041  44.000  14.929
84412W        W52786   9.680  43.447   4.671
84413W        W52787  41.437  39.020  11.042
84414W        W52788  16.613  27.180   1.283
84415W        W52789  10.292   7.763  14.778
84416W        W52790  16.693  24.574  13.371
84417W        W52791  26.034  44.445   5.598
84418W        W52792  13.685  30.110  10.974
84419W        W52793   8.854  21.519   1.405
84420W        W52794  44.277   2.406   3.716
84421W        W52795  13.128  20.557  11.976
84422W        W52796   2.428  23.072  13.833
84423W        W52797  44.486  26.966  11.515
84424W        W52798  42.284  16.664  12.995
84425W        W52799  22.553  30.111  10.914
84426W        W52800   2.742  23.731  13.308
84427W        W52801  24.479  35.545   0.875
84428W        W52802  34.505  17.788  11.029
84429W        W52803  10.846  31.941   1.285
84430W        W52804  33.437   9.339  11.533
84431W        W52805  30.425  29.532   3.266
84432W        W52806   1.927   0.820  12.580
84433W        W52807  15.628  34.493   3.676
84434W        W52808  20.537  30.489  13.906
84435W        W52809  27.672  20.599  13.007
84436W        W52810  30.518  18.139   4.782
84437W        W52811  24.522  11.209  12.933
84438W        W52812  29.505  38.422  10.645
84439W        W52813  19.742   1.284   1.703
84440W        W52814   1.822   7.784   4.766
84441W        W52815  19.041  44.917  11.081
84442W        W52816   0.486  27.473  12.898
84443W        W52817  30.959  10.173  10.981
84444W        W52818  34.873   5.261  14.829
84445W        W52819  35.969  29.021   1.819
84446W        W52820  28.128  41.534  10.001
84447W        W52821  33.985  21.638   0.401
84448W        W52822  32.016  18.765  10.931
84449W        W52823   8.341   2.799   9.586
84450W        W52824   8.352  44.266   2.819
84451W        W52825  27.940  17.660  11.896
84452W        W52826   0.322  44.361   4.652
84453W        W52827   4.794  35.066  13.430
84454W        W52828   0.946  24.660   4.652
84455W        W52829  34.478   4.264  14.440
84456W        W52830  30.617  12.778   1.287
84457W        W52831  28.501  36.540  13.910
84458W        W52832  27.068  40.452   4.202
84459W        W52833  30.537   6.884   2.310
84460W        W52834   8.164  34.456   1.748
84461W        W52835  28.500  24.134  10.436
84462W        W52836  22.121  24.710   2.791
84463W        W52837  30.588  18.685  11.066
84464W        W52838  30.921  13.161   1.914
84465W        W52839  23.175   5.314  10.447
84466W        W52840  25.496  25.997  12.536
84467W        W52841   9.733  25.112   0.400
84468W        W52842  33.988  34.423  12.524
84469W        W52843   5.410  32.023   0.300
84470W        W52844  16.570  14.724   0.295
84471W        W52845  15.241  19.679  10.591
84472W        W52846  25.973  12.756  13.452
84473W        W52847  38.936  17.634   3.765
84474W        W52848  14.779  31.501   3.271
84475W        W52849  28.609   6.873   0.245
84476W        W52850  35.102  37.877   2.745
84477W        W52851  35.858  41.527  11.413
84478W        W52852   0.839  43.427  10.157
84479W        W52853  33.545  40.979  14.949
84480W        W52854  11.373  16.286   1.295
84481W        W52855  12.845   7.711  10.535
84482W        W52856   3.717  16.793   0.801
84483W        W52857  27.627  17.247  12.879
84484W        W52858  27.113  35.469   2.837
84485W        W52859  40.029  21.756  13.404
84486W        W52860  37.835  17.169  12.885
84487W        W52861  26.560   7.189   4.195
84488W        W52862   0.843  27.619  13.483
84489W        W52863  44.388  13.603  14.842
84490W        W52864  40.822  42.880   4.643
84491W        W52865  21.033  31.471  14.787
84492W        W52866  23.239  44.955  12.404
84493W        W52867  30.110  27.064   0.959
84494W        W52868  26.615  41.008  11.858
84495W        W52869  16.109  28.554   0.393
84496W        W52870   4.713  18.692   3.287
84497W        W52871  35.940  37.914   4.155
84498W        W52872  26.971  36.920  14.802
84499W        W52873   2.297   1.918   2.358
84500W        W52874  35.892  37.045  10.948
84501W        W52875  42.857  21.257   2.300
84502W        W52876   0.458  21.158  14.484
84503W        W52877  42.788   3.890  14.835
84504W        W52878  13.181   9.213   9.627
84505W        W52879  31.593   3.726  14.429
84506W        W52880   3.928  37.526   2.863
84507W        W52881  17.724  17.173   1.920
84508W        W52882  18.188  39.914  10.976
84509W        W52883   9.739  12.150   4.335
84510W        W52884  17.745  26.007  11.091
84511W        W52885  14.179  26.541  13.506
84512W        W52886  32.062  21.623   2.669
84513W        W52887  28.570  17.205  11.418
84514W        W52888  19.762  27.043   2.753
84515W        W52889  33.605  33.580  12.570
84516W        W52890  13.236   9.851   4.629
84517W        W52891  29.559  20.229  10.622
84518W        W52892  16.725  44.324  10.993
84519W        W52893  30.622  14.754  13.005
84520W        W52894  30.056   4.364   1.862
84521W        W52895  26.525  40.030  11.577
84522W        W52896  37.451  43.827  10.906
84523W        W52897  17.066   8.377   1.381
84524W        W52898  24.637   9.866  12.574
84525W        W52899  31.094  31.455   3.756
84526W        W52900  44.452   8.398  12.487
84527W        W52901  21.208  39.494  13.541
84528W        W52902   3.793   1.469   2.793
84529W        W52903  40.472  35.462  12.923
84530W        W52904  20.105  40.855   1.311
84531W        W52905   2.227   8.870  10.037
84532W        W52906  38.324   8.856  14.850
84533W        W52907  13.724   9.795   1.346
84534W        W52908  32.086  34.503   1.238
84535W        W52909  17.226  43.767  14.977
84536W        W52910  23.098  26.617   2.279
84537W        W52911  22.559  18.268  12.543
84538W        W52912   8.782  42.367  11.886
84539W        W52913  36.432  34.378   4.747
84540W        W52914   0.387  13.341  11.868
84541W        W52915  19.273   2.792  11.092
84542W        W52916  15.109  22.504   4.777
84543W        W52917  35.559  24.986   4.208
84544W        W52918   5.352  36.500  10.978
84545W        W52919  31.975  32.582  14.843
84546W        W52920   2.346  18.096  14.370
84547W        W52921  17.751  14.104   1.402
84548W        W52922  44.784  18.178  13.060
84549W        W52923   4.280  12.231   0.748
84550W        W52924  11.167   7.841   3.696
84551W        W52925  38.956  34.483   3.778
84552W        W52926  24.980  34.950   1.302
84553W        W52927  40.465   2.254  10.542
84554W        W52928  31.983   1.399  14.914
84555W        W52929  43.447   0.338  11.026
84556W        W52930  15.734  32.104  10.612
84557W        W52931  11.316  16.121  14.382
84558W        W52932  43.351  41.312   1.831
84559W        W52933   4.422  28.597   3.805
84560W        W52934  26.976  32.515   2.372
84561W        W52935  35.964  34.012   4.190
84562W        W52936   4.920  44.978  10.945
84563W        W52937   2.926  14.792  14.945
84564W        W52938  29.967  30.108  11.594
84565W        W52939  31.909  31.597   1.214
84566W        W52940  42.938  14.185  11.858
84567W        W52941  32.142  40.356   4.294
84568W        W52942  43.924  22.539  14.893
84569W        W52943  30.938  41.012  14.906
84570W        W52944  41.530   2.918   2.267
84571W        W52945   8.177  37.581  12.970
84572W        W52946   6.188  14.777  11.507
84573W        W52947  32.141  42.816   1.703
84574W        W52948  29.531   8.169   1.350
84575W        W52949  20.654  34.542  13.369
84576W        W52950  22.084  26.603   4.335
84577W        W52951  34.890  44.431  10.035
84578W        W52952  14.280  33.403  12.482
84579W        W52953  10.268  26.586   2.679
84580W        W52954  18.130   3.302  12.933
84581W        W52955   5.383   5.754   3.201
84582W        W52956  30.581  24.645   1.441
84583W        W52957  18.265  42.001   1.733
84584W        W52958  44.452  38.956   3.787
84585W        W52959  29.971  41.474   4.345
84586W        W52960   7.194   2.444   5.139
84587W        W52961  12.294  16.568   4.313
84588W        W52962  34.952   8.885   4.239
84589W        W52963  44.311  17.233   5.108
84590W        W52964   1.811  30.518   2.250
84591W        W52965  16.737  42.417   0.282
84592W        W52966  32.497  14.612  14.869
84593W        W52967  12.223  32.950   4.705
84594W        W52968  30.071  35.417  13.349
84595W        W52969  19.150  37.559   1.291
84596W        W52970   6.260  17.772  10.605
84597W        W52971  36.944  37.020   1.351
84598W        W52972  16.644  14.107   4.309
84599W        W52973   8.845  34.994  13.821
84600W        W52974  13.715  18.122   0.481
84601W        W52975   0.983  28.985   4.630
84602W        W52976  13.617  44.971   2.290
84603W        W52977  44.424  44.351   2.182
84604W        W52978   7.676  19.730   4.782
84605W        W52979   7.369   9.261  11.925
84606W        W52980  38.438  10.275  14.416
84607W        W52981  11.365  23.085   1.423
84608W        W52982  14.118  20.060  11.447
84609W        W52983  36.996  22.666  11.411
84610W        W52984   9.280  20.727   5.096
84611W        W52985   6.691   5.888   4.203
84612W        W52986  40.797  11.791  14.433
84613W        W52987  11.670  24.493  14.970
84614W        W52988  17.689  42.312  12.839
84615W        W52989  25.575   1.887   3.806
84616W        W52990  40.318  27.485  14.022
84617W        W52991  34.000  41.427  13.025
84618W        W52992  15.269  19.560   4.174
84619W        W52993  13.304  30.071  14.024
84620W        W52994  20.534   8.364  10.529
84621W        W52995  41.913  35.858   0.412
84622W        W52996  39.048  28.549   4.352
84623W        W52997  12.778  21.038   3.654
84624W        W52998  20.539  22.727   4.264
84625W        W52999  20.152  41.967   3.239
84626W        W53000  23.587  28.514  12.060
84627W        W53001  23.162  32.624   2.898
84628W        W53002  38.554  31.028  14.371
84629W        W53003  38.891  26.589  11.923
84630W        W53004  31.611   6.680   4.708
84631W        W53005  29.158  30.643   2.678
84632W        W53006  44.943  12.652   5.282
84633W        W53007   5.782   2.238  11.505
84634W        W53008  20.256  29.121  14.357
84635W        W53009  10.252   0.401   3.319
84636W        W53010  44.885  20.716  10.462
84637W        W53011  34.530  25.978  10.577
84638W        W53012  39.020  14.732  13.830
84639W        W53013  11.157  38.543   0.254
84640W        W53014  26.181   8.809  13.845
84641W        W53015  22.713  31.560   3.631
84642W        W53016  24.085  23.592  13.025
84643W        W53017  31.943  16.575   0.964
84644W        W53018  10.225   6.736   0.443
84645W        W53019  13.116  28.654   1.441
84646W        W53020  27.172   5.852   1.742
84647W        W53021  38.906   0.864  10.505
84648W        W53022  19.540  27.658  14.429
84649W        W53023  18.225  24.122   1.355
84650W        W53024   3.757  23.562  10.912
84651W        W53025   6.922   1.937  10.641
84652W        W53026  18.128  15.718   0.329
84653W        W53027  15.104  13.250  12.579
84654W        W53028  22.099  31.606  11.380
84655W        W53029  11.130  24.714   0.472
84656W        W53030  38.824  20.176  14.938
84657W        W53031  23.104   1.415   1.365
84658W        W53032  21.253  30.458   0.363
84659W        W53033  14.117  26.694  12.458
84660W        W53034  11.322   9.306   4.705
84661W        W53035  29.607   8.860  11.125
84662W        W53036  17.762  40.521  12.011
84663W        W53037  18.753  17.235  10.601
84664W        W53038   3.822   7.875  14.953
84665W        W53039  25.008   5.802   2.899
84666W        W53040  44.271  23.137  14.442
84667W        W53041  44.010  21.112   0.751
84668W        W53042  21.066  12.715   3.150
84669W        W53043  17.573  24.981   3.339
84670W        W53044  17.254  33.475   4.673
84671W        W53045  12.789  34.614   4.239
84672W        W53046  41.483  20.206  12.831
84673W        W53047  31.032   6.419  12.576
84674W        W53048  25.538  30.588   9.944
84675W        W53049   9.858  33.996   1.270
84676W        W53050  35.860   0.254  13.438
84677W        W53051  23.618  25.685   3.765
84678W        W53052  18.690   6.759   1.269
84679W        W53053  35.402  32.427   4.174
84680W        W53054  10.247  12.810   5.225
84681W        W53055  19.261   0.430   4.232
84682W        W53056  23.559  34.419   1.921
84683W        W53057  32.496  44.830   3.633
84684W        W53058  10.679  19.696   1.424
84685W        W53059  31.152  30.066   3.790
84686W        W53060  19.595  16.596  12.993
84687W        W53061   9.325   2.755   2.790
84688W        W53062  16.111   0.957  12.407
84689W        W53063  27.063  40.466  11.486
84690W        W53064  17.778  31.526   1.700
84691W        W53065  16.079  13.123  12.964
84692W        W53066   1.286  16.705  11.475
84693W        W53067  23.510  14.700   0.909
84694W        W53068  44.393   8.191  14.941
84695W        W53069  25.070  41.479  14.813
84696W        W53070  44.300  22.072  11.402
84697W        W53071  26.166  27.536   1.809
84698W        W53072   5.752  11.350  11.445
84699W        W53073  34.988  34.580   9.960
84700W        W53074  10.826  21.119  14.012
84701W        W53075  24.034  28.078  14.466
84702W        W53076  29.532  33.482   2.764
84703W        W53077  21.747  43.004  12.509
84704W        W53078  22.107  44.967  13.002
84705W        W53079  33.987  24.091   2.897
84706W        W53080  13.604  43.463   1.695
84707W        W53081  31.023  42.983  13.396
84708W        W53082  32.635  23.020  12.918
84709W        W53083   8.232  27.564   2.375
84710W        W53084  13.289   3.762  14.445
84711W        W53085  15.774  18.291   4.686
84712W        W53086  44.368   8.334   2.413
84713W        W53087  39.045  32.131   1.735
84714W        W53088  27.147   1.420   4.694
84715W        W53089  14.778  29.998   0.328
84716W        W53090  43.444  13.193  12.465
84717W        W53091  15.684  39.827  11.960
84718W        W53092  18.667  44.902   0.364
84719W        W53093  26.573  18.621   2.373
84720W        W53094  12.619  18.718  12.345
84721W        W53095  38.438  12.714  14.933
84722W        W53096  28.986   8.860  11.106
84723W        W53097  17.608  20.532   3.159
84724W        W53098  16.770  16.188   2.404
84725W        W53099  21.043   6.335   0.257
84726W        W53100  30.548  33.441  11.023
84727W        W53101  42.806   4.761  13.056
84728W        W53102  35.913  28.489  11.596
84729W        W53103  28.099   7.832   3.286
84730W        W53104   8.882  14.782  12.547
84731W        W53105  40.802   2.730  10.953
84732W        W53106  33.041   1.907   2.892
84733W        W53107  15.091  13.782  11.053
84734W        W53108  33.934  15.636   2.898
84735W        W53109  23.720  28.045  10.453
84736W        W53110   2.839  20.270  10.904
84737W        W53111  39.455  42.400  11.121
84738W        W53112  16.216  30.038   1.253
84739W        W53113  32.059   2.741  11.944
84740W        W53114  38.483  39.521  13.889
84741W        W53115  11.789   1.821  11.397
84742W        W53116  13.295   2.820  13.502
84743W        W53117  35.102  30.530   5.082
84744W        W53118  31.975  25.630   4.832
84745W        W53119  13.253   9.156   2.196
84746W        W53120   8.731  39.830  12.552
84747W        W53121  44.959  31.579   4.751
84748W        W53122   6.335  23.240   5.209
84749W        W53123  35.403  20.162  14.303
84750W        W53124  43.373   6.344  14.938
84751W        W53125  34.986  29.481  14.847
84752W        W53126  15.732   7.869   4.136
84753W        W53127   4.785  35.419   1.833
84754W        W53128  35.071  11.647   2.191
84755W        W53129  29.070  17.110   2.205
84756W        W53130  14.265   3.334   4.125
84757W        W53131   8.703  11.331  10.623
84758W        W53132  32.469  11.254   4.297
84759W        W53133   8.378  39.549  12.532
84760W        W53134   8.877  42.871  12.404
84761W        W53135   6.813  43.482   3.154
84762W        W53136  20.096  16.753  14.471
84763W        W53137   3.311   9.317  14.945
84764W        W53138  12.675  19.689  11.429
84765W        W53139  30.634  30.952  12.403
84766W        W53140  25.092  31.638   1.232
84767W        W53141   9.303   6.868  14.779
84768W        W53142  44.368   3.861   3.808
84769W        W53143  11.331  11.332   1.862
84770W        W53144  21.105  28.084  12.495
84771W        W53145  32.945   5.314  13.528
84772W        W53146  26.556  39.369  12.540
84773W        W53147  23.092   1.276   4.669
84774W        W53148  18.178  33.943   3.812
84775W        W53149  26.688  20.226   2.408
84776W        W53150  23.184   2.233   3.244
84777W        W53151  15.720  29.956  11.871
84778W        W53152  22.042  25.491  12.000
84779W        W53153  15.249  37.561   2.228
84780W        W53154   7.312  36.378   0.290
84781W        W53155   0.254  43.835   3.345
84782W        W53156  32.910  33.400  11.547
84783W        W53157  30.513   9.749   1.886
84784W        W53158  27.455  24.022  12.490
84785W        W53159  11.248  18.544  12.351
84786W        W53160  24.485  21.069  13.466
84787W        W53161  35.411  10.756   0.788
84788W        W53162   5.874  13.141  11.422
84789W        W53163  10.352  24.217   2.874
84790W        W53164  32.101   8.813   0.769
84791W        W53165  28.438  44.935   3.253
84792W        W53166  17.718  38.542  10.928
84793W        W53167  40.520  22.548  10.152
84794W        W53168  10.694  25.555  13.350
84795W        W53169  18.752  43.916  14.492
84796W        W53170  29.581  25.658  11.956
84797W        W53171  12.327  29.971  11.033
84798W        W53172  29.431  22.230   4.613
84799W        W53173  35.089  27.943  10.619
84800W        W53174  40.023  40.940  14.364
84801W        W53175  26.138  25.201  12.461
84802W        W53176  33.604  16.199  13.906
84803W        W53177  35.516  12.212  13.398
84804W        W53178  39.901  26.680   0.807
84805W        W53179   2.734   2.898   1.365
84806W        W53180  41.868  29.946  14.875
84807W        W53181   2.941  33.552  14.292
84808W        W53182  41.923  12.317   1.755
84809W        W53183  40.501   0.262   4.201
84810W        W53184  33.874  26.472  14.028
84811W        W53185  12.654  42.493  12.934
84812W        W53186  12.743  38.448  12.910
84813W        W53187  27.671  36.481   0.837
84814W        W53188  38.950   7.294  14.413
84815W        W53189  33.393  42.794   4.707
84816W        W53190   4.409  32.128   2.330
84817W        W53191  13.186  26.688   3.708
84818W        W53192  27.474  17.722  14.281
84819W        W53193  36.347  19.733  10.531
84820W        W53194   0.260  18.237   1.269
84821W        W53195  24.557  21.754   4.277
84822W        W53196  11.649  43.386  13.398
84823W        W53197   3.779   2.245   3.778
84824W        W53198  27.974  19.592   3.673
84825W        W53199  20.128  20.254   4.197
84826W        W53200  33.109  12.293  14.761
84827W        W53201  12.266  28.145   2.229
84828W        W53202  33.101  32.533   3.853
84829W        W53203   4.398   0.833   4.155
84830W        W53204  24.100  22.563  11.375
84831W        W53205  31.097  29.940   3.185
84832W        W53206  20.523   9.262  11.860
84833W        W53207   0.957   3.275   0.427
84834W        W53208  26.467   4.271   2.224
84835W        W53209  44.794   8.794   1.269
84836W        W53210  25.617  23.227  10.467
84837W        W53211  42.806   0.887  12.874
84838W        W53212  12.165  44.949   2.232
84839W        W53213  31.101  15.717   4.726
84840W        W53214  26.492  19.123   3.704
84841W        W53215  26.594  10.237   0.946
84842W        W53216  23.713   4.940   2.806
84843W        W53217  28.181  43.301  13.802
84844W        W53218   6.187  23.588  14.374
84845W        W53219  40.328   6.916   1.810
84846W        W53220  25.678  26.160   3.750
84847W        W53221  44.486   7.234   0.762
84848W        W53222  10.666  13.319  12.478
84849W        W53223   1.269  27.503  10.458
84850W        W53224  23.526   6.374   2.771
84851W        W53225  10.218  26.084   1.768
84852W        W53226  10.718   5.759   4.137
84853W        W53227   0.397   1.354   1.300
84854W        W53228  25.971  12.648  11.865
84855W        W53229   8.272   0.876   3.765
84856W        W53230  15.327  26.489   4.298
84857W        W53231   3.401   4.741  10.510
84858W        W53232  11.335  37.968   4.597
84859W        W53233  33.611  33.087  12.945
84860W        W53234  11.636  17.100   2.195
84861W        W53235  30.567  14.222  10.912
84862W        W53236   6.868  44.829   4.624
84863W        W53237  32.480  21.079   9.919
84864W        W53238  33.053  12.157   0.794
84865W        W53239  37.340  22.029   4.157
84866W        W53240  39.982  13.690  13.957
84867W        W53241   9.323  28.520   2.258
84868W        W53242  27.613  18.545  13.446
84869W        W53243  34.971  34.882  12.079
84870W        W53244  27.558  28.078  14.985
84871W        W53245  34.948  41.931   2.196
84872W        W53246  29.604  31.635  13.057
84873W        W53247  11.243  34.561  12.364
84874W        W53248  37.893  16.727   1.261
84875W        W53249   2.864  29.003   2.800
84876W        W53250   4.934  20.655  12.506
84877W        W53251   2.860   0.921   3.647
84878W        W53252  16.127   8.825   1.908
84879W        W53253  21.199  28.455  13.061
84880W        W53254   4.398  15.225  10.634
84881W        W53255   4.783  36.932   3.641
84882W        W53256  33.589  24.169   2.677
84883W        W53257  30.413  35.878  10.910
84884W        W53258  25.507  28.458  13.336
84885W        W53259  36.528  40.040   3.264
84886W        W53260   1.867   2.292  14.441
84887W        W53261  14.732  43.872  12.956
84888W        W53262  12.835  22.675  13.351
84889W        W53263  43.294   7.228   1.287
84890W        W53264   4.272   4.777  14.999
84891W        W53265  25.121  34.868   2.823
84892W        W53266  42.899  11.180  14.454
84893W        W53267  39.515  11.336   0.950
84894W        W53268   2.783  44.789   4.694
84895W        W53269  36.968  36.078  14.959
84896W        W53270   9.257  26.597   3.212
84897W        W53271  24.701  10.669   1.284
84898W        W53272  14.802  21.136  12.485
84899W        W53273  40.410  40.039  11.477
84900W        W53274  10.858  20.269   4.833
84901W        W53275  22.157  19.128  11.466
84902W        W53276  19.690   2.777  12.576
84903W        W53277  42.526  18.096   4.768
84904W        W53278  29.926  37.852  13.898
84905W        W53279   8.386  10.278  14.369
84906W        W53280  14.325  33.017   0.965
84907W        W53281   8.390   6.877  14.761
84908W        W53282  18.706  44.290   0.361
84909W        W53283  29.128  25.199   2.221
84910W        W53284  20.751  40.840   2.309
84911W        W53285  35.088   1.908   0.460
84912W        W53286  39.808  31.561  14.865
84913W        W53287  38.052  32.933  12.379
84914W        W53288   4.873   4.941   4.796
84915W        W53289  18.724   4.711  11.442
84916W        W53290  20.685  34.910  10.961
84917W        W53291  32.957   9.228  10.581
84918W        W53292  21.641   2.963  13.423
84919W        W53293  35.016  15.259  10.423
84920W        W53294  32.064  14.723   2.250
84921W        W53295  18.116  22.053   0.736
84922W        W53296  34.023  39.866  14.852
84923W        W53297   5.910  27.066   0.259
84924W        W53298   8.184  23.095  12.497
84925W        W53299   4.758   1.334  12.851
84926W        W53300  30.041   5.699  14.963
84927W        W53301  29.121  25.991  11.028
84928W        W53302  26.191  29.059   2.870
84929W        W53303  11.203  35.993  13.461
84930W        W53304  35.487  29.601  11.554
84931W        W53305  41.371  27.504  11.508
84932W        W53306   2.258  15.680  10.134
84933W        W53307  35.083  18.621  14.868
84934W        W53308  32.119  32.958  10.498
84935W        W53309  37.555   6.234  12.926
84936W        W53310   2.318   4.786   2.670
84937W        W53311  35.074  42.023  11.415
84938W        W53312   5.794  11.267   0.824
84939W        W53313  18.281  15.674  10.974
84940W        W53314   3.898  12.262   2.682
84941W        W53315   2.760  41.320   3.655
84942W        W53316  21.528   4.345   0.394
84943W        W53317  34.465   5.322  14.435
84944W        W53318  22.150  33.933  14.461
84945W        W53319  32.409  36.998   0.956
84946W        W53320  37.379  21.081  11.072
84947W        W53321  43.920  38.454  11.010
84948W        W53322   7.398  32.953   0.294
84949W        W53323  44.484   3.293   0.289
84950W        W53324  39.830  20.178   3.341
84951W        W53325   4.822  32.571  10.593
84952W        W53326  14.227  30.435   2.223
84953W        W53327  40.336  37.359  10.102
84954W        W53328  24.143  30.510  13.012
84955W        W53329   1.757  32.443  14.513
84956W        W53330  10.705  28.157   1.297
84957W        W53331  20.699  22.010   0.786
84958W        W53332   2.950  22.638   0.371
84959W        W53333  13.720   6.244   1.402
84960W        W53334  21.172  22.690   5.151
84961W        W53335   5.374  21.615  13.915
84962W        W53336   9.388  35.435  12.446
84963W        W53337  20.721  20.767   2.330
84964W        W53338  11.168  21.213   4.277
84965W        W53339  21.703  31.019   4.138
84966W        W53340  12.287  10.219  12.421
84967W        W53341   1.313  18.283  11.379
84968W        W53342  42.488   2.777   0.798
84969W        W53343   0.266   5.808  10.456
84970W        W53344  43.911  36.072  13.805
84971W        W53345  38.841   4.354   1.446
84972W        W53346  28.591  26.655   1.699
84973W        W53347  29.499   1.386   1.360
84974W        W53348  30.917   6.729  14.838
84975W        W53349  23.623  36.470  11.500
84976W        W53350  32.612  44.496  14.789
84977W        W53351  11.274  37.015  12.385
84978W        W53352  43.332   8.859   4.678
84979W        W53353   8.405  15.723  14.981
84980W        W53354   5.390  28.605   1.726
84981W        W53355  36.410   4.306   2.716
84982W        W53356  28.110  31.956   4.666
84983W        W53357  15.249  24.096   0.762
84984W        W53358   8.404  21.672   2.804
84985W        W53359  12.836   8.195   4.272
84986W        W53360  15.809  17.671   4.227
84987W        W53361  15.633  36.377  12.989
84988W        W53362  34.401  43.393  11.918
84989W        W53363   9.289  15.097   4.676
84990W        W53364  29.523   5.724  14.989
84991W        W53365  23.036  27.960   2.687
84992W        W53366  22.051  11.760   0.898
84993W        W53367  38.386  33.488  10.619
84994W        W53368  20.768  32.623   0.732
84995W        W53369   3.243   8.780   2.787
84996W        W53370  29.497   6.205  10.536
84997W        W53371  19.600   9.791  14.924
84998W        W53372  44.867  30.513  14.831
84999W        W53373  31.520  36.899   1.839
85000W        W53374  15.144  16.289   1.412
85001W        W53375  14.133  13.604  12.411
85002W        W53376   9.701  40.397  12.880
85003W        W53377   3.719  36.023   3.236
85004W        W53378   4.924  26.645  13.931
85005W        W53379  11.752  22.182  10.917
85006W        W53380   4.945  16.202  12.988
85007W        W53381  36.402  30.478   0.759
85008W        W53382  15.315  23.090  13.833
85009W        W53383  13.302  16.728  12.494
85010W        W53384  35.064   6.414   1.731
85011W        W53385  12.325  42.314   2.884
85012W        W53386  41.959  42.779  13.830
85013W        W53387  11.180   9.347   1.786
85014W        W53388  38.905   9.280   4.298
85015W        W53389   2.228  37.961  13.478
85016W        W53390  38.823  35.385  11.882
85017W        W53391  34.022   8.843  14.463
85018W        W53392   7.738  10.191   5.133
85019W        W53393   4.836  15.294  10.098
85020W        W53394  12.659  11.133   1.900
85021W        W53395  27.574   1.365  13.336
85022W        W53396  21.181  28.526  14.429
85023W        W53397  29.075  40.345  11.022
85024W        W53398   5.330   7.197   0.467
85025W        W53399   9.302  12.229   0.956
85026W        W53400  40.313   8.214  11.487
85027W        W53401  34.993  39.403   0.845
85028W        W53402  40.426  37.430  13.401
85029W        W53403   2.910  24.662   4.327
85030W        W53404  32.537  34.959   0.407
85031W        W53405   0.854   9.724  11.887
85032W        W53406  32.960  31.987  11.104
85033W        W53407  28.661  16.179   0.734
85034W        W53408  13.741  35.859  11.926
85035W        W53409  14.691  25.964  14.914
85036W        W53410  17.625  18.091  10.578
85037W        W53411   0.326  22.080  13.438
85038W        W53412  40.920  24.532  14.777
85039W        W53413   0.988   8.894  13.335
85040W        W53414  10.270  39.847  12.387
85041W        W53415   3.426  23.072   2.249
85042W        W53416  37.446  37.919  12.858
85043W        W53417   0.783  13.843  12.446
85044W        W53418  42.400  43.875  13.860
85045W        W53419   6.387   5.310  12.431
85046W        W53420  13.301   8.265  12.911
85047W        W53421  10.778  34.074   4.770
85048W        W53422   1.407  34.970   1.827
85049W        W53423  29.449   5.299  11.041
85050W        W53424  27.115  10.362   1.724
85051W        W53425   8.164  39.433   3.663
85052W        W53426  26.126   7.731   2.815
85053W        W53427   1.296  24.056   3.260
85054W        W53428  41.911  22.164  13.507
85055W        W53429  37.073  22.724   3.648
85056W        W53430   5.757  20.662   0.921
85057W        W53431  28.005  20.727   0.921
85058W        W53432  28.053  39.324  14.802
85059W        W53433  37.060  30.567   1.300
85060W        W53434  38.856   5.818   1.321
85061W        W53435   9.849  18.788   3.866
85062W        W53436   7.733  38.410  10.638
85063W        W53437  39.927   2.780   2.192
85064W        W53438   2.792  24.016   4.128
85065W        W53439   7.274  18.726  10.065
85066W        W53440  18.721  11.282   3.816
85067W        W53441  33.886  20.052   3.309
85068W        W53442   8.194   0.821  14.326
85069W        W53443  18.276  44.462   1.356
85070W        W53444  21.252  12.302  14.488
85071W        W53445  15.637  16.672   4.125
85072W        W53446  13.132  25.132   1.706
85073W        W53447  17.703  17.211   3.168
85074W        W53448  26.594  24.081  14.377
85075W        W53449  19.148  14.598   0.431
85076W        W53450  32.965  44.489   0.780
85077W        W53451  27.949  13.126  12.364
85078W        W53452  37.924  42.287  13.337
85079W        W53453   6.791  29.535  12.092
85080W        W53454  12.212  14.676  11.982
85081W        W53455  43.341  13.293   2.189
85082W        W53456  19.696  23.700  12.374
85083W        W53457   8.733  35.981   1.211
85084W        W53458  37.448  38.044   3.197
85085W        W53459  41.848  17.210   4.697
85086W        W53460  31.938  30.597   2.762
85087W        W53461  25.110  13.771  12.555
85088W        W53462   5.438  16.702  12.998
85089W        W53463  14.807   6.343   0.266
85090W        W53464  28.146  36.086  13.791
85091W        W53465  27.088  36.503   3.263
85092W        W53466   5.238  13.311  12.871
85093W        W53467   3.376  14.213   0.931
85094W        W53468  41.395   9.643   4.752
85095W        W53469  41.979  15.273   3.727
85096W        W53470   8.393  44.819  12.908
85097W        W53471   7.293  31.632   2.814
85098W        W53472   8.239   1.913   2.400
85099W        W53473  27.622  24.177   3.777
85100W        W53474  12.829   6.324   3.707
85101W        W53475  43.821   0.803   2.411
85102W        W53476   8.835   0.474  13.969
85103W        W53477  12.670   0.300   2.181
85104W        W53478  34.608  12.672   0.413
85105W        W53479   9.357  38.519  14.476
85106W        W53480  10.355  17.566   3.306
85107W        W53481   3.350   9.325  13.488
85108W        W53482  23.568  30.932   0.455
85109W        W53483  19.209  25.655   1.266
85110W        W53484  38.853  18.210   4.120
85111W        W53485  20.192   3.341   2.397
85112W        W53486  44.010  17.663   0.458
85113W        W53487   4.741  17.142  11.894
85114W        W53488  36.353  33.942   0.256
85115W        W53489  18.587   3.813  11.559
85116W        W53490  40.350  32.410  11.449
85117W        W53491  12.208  42.885  10.600
85118W        W53492   9.377  10.274  12.393
85119W        W53493   1.978  43.328   0.935
85120W        W53494   8.768  34.037  10.617
85121W        W53495  41.455  41.464  11.896
85122W        W53496  11.366   9.298   2.269
85123W        W53497  34.015  16.141   3.379
85124W        W53498  36.990  31.412  12.512
85125W        W53499  34.060  41.399  12.460
85126W        W53500   7.765  12.795  12.011
85127W        W53501  27.040  16.200   1.368
85128W        W53502  32.054  16.136   3.794
85129W        W53503  18.722  18.168  11.954
85130W        W53504  35.431  44.846  10.614
85131W        W53505  42.011  33.988   2.261
85132W        W53506  37.960  28.025   9.935
85133W        W53507  13.682  10.817   1.414
85134W        W53508  36.939   6.737  14.845
85135W        W53509  43.838  10.151  10.425
85136W        W53510  33.425  43.361   2.677
85137W        W53511  36.980  12.230   4.712
85138W        W53512   0.831   5.306   2.304
85139W        W53513  15.098  11.331   2.839
85140W        W53514  30.610  39.006  13.916
85141W        W53515  32.559  28.968   3.796
85142W        W53516  12.647  18.206   2.773
85143W        W53517  13.139  41.426  12.473
85144W        W53518  19.259  26.536  13.355
85145W        W53519  13.280  40.408  12.470
85146W        W53520  11.758  44.789  13.400
85147W        W53521  20.175  32.461  11.128
85148W        W53522  35.864   7.375  12.901
85149W        W53523  38.522  21.046   5.149
85150W        W53524   4.259   7.262   1.317
85151W        W53525  19.232  34.395   3.647
85152W        W53526  17.571   6.839   1.800
85153W        W53527   2.765  40.384  11.396
85154W        W53528  42.511  14.148  13.009
85155W        W53529  13.827  30.058   2.747
85156W        W53530  23.120  35.074  11.897
85157W        W53531  21.101   9.767   2.368
85158W        W53532   8.882   7.678   0.367
85159W        W53533   6.722  42.994   0.851
85160W        W53534  16.248   7.397   1.443
85161W        W53535  24.520  44.764   0.410
85162W        W53536  30.626  21.604   1.726
85163W        W53537  26.037  42.947   3.292
85164W        W53538  44.919  39.049   2.399
85165W        W53539   8.254   6.821  10.422
85166W        W53540  38.884  18.253   0.727
85167W        W53541   6.191  29.922   5.589
85168W        W53542  28.060  21.249   4.758
85169W        W53543  29.493  38.055   4.222
85170W        W53544  37.344  11.318   4.608
85171W        W53545  30.480   6.843   3.840
85172W        W53546  41.036  35.576  11.001
85173W        W53547  22.741   9.706  13.974
85174W        W53548  11.143  15.200   0.956
85175W        W53549  25.519  16.806   2.381
85176W        W53550  40.819  21.082   3.681
85177W        W53551  34.458  30.976   4.658
85178W        W53552  31.960  39.904   3.280
85179W        W53553  16.759  13.631   1.802
85180W        W53554  34.076  38.904  12.367
85181W        W53555   6.891   1.753   5.191
85182W        W53556  24.521  30.022  11.442
85183W        W53557   6.825   1.239  14.946
85184W        W53558   8.853  35.447  13.922
85185W        W53559  41.512  26.676   3.386
85186W        W53560   5.202  12.650  13.827
85187W        W53561  28.649  19.572  14.450
85188W        W53562  16.690  13.824  12.426
85189W        W53563  16.286  10.677   1.924
85190W        W53564  14.097  43.991   2.731
85191W        W53565  44.437  41.330   4.285
85192W        W53566  35.582   7.379  14.383
85193W        W53567  19.555  10.681  12.094
85194W        W53568  12.733  38.886   2.364
85195W        W53569  17.299  29.026   3.161
85196W        W53570  12.645  33.105  14.429
85197W        W53571  23.705  29.087  11.599
85198W        W53572   5.846  32.009   0.326
85199W        W53573  11.857  14.280   3.290
85200W        W53574  19.155   8.703   0.448
85201W        W53575   5.330  32.004   2.224
85202W        W53576  15.617  29.436  12.900
85203W        W53577  44.314   4.290  12.375
85204W        W53578  30.097  17.606   4.217
85205W        W53579   6.422  34.088   0.913
85206W        W53580   1.303  12.675   4.265
85207W        W53581  26.678   1.362  13.856
85208W        W53582  26.612  13.828  10.964
85209W        W53583  42.345  29.066  13.460
85210W        W53584  43.484  13.663  12.958
85211W        W53585  27.510  31.050  14.852
85212W        W53586  23.489  44.302   3.861
85213W        W53587  44.477  18.556   5.224
85214W        W53588  24.706  32.946  12.509
85215W        W53589  22.701  40.980  12.903
85216W        W53590  29.930  15.736   4.286
85217W        W53591  18.677  13.349  12.366
85218W        W53592  12.158  23.624   3.830
85219W        W53593  12.670   4.217  11.856
85220W        W53594  11.627  37.482   5.093
85221W        W53595   7.396  21.708  12.859
85222W        W53596  24.221   5.248  11.071
85223W        W53597  14.793  25.169   9.967
85224W        W53598  12.643  30.050   1.717
85225W        W53599  18.076  14.247   1.216
85226W        W53600  16.107  25.186   1.407
85227W        W53601  38.984  14.663   3.318
85228W        W53602  40.511  41.471  13.316
85229W        W53603  27.046  28.446  14.443
85230W        W53604  18.609  35.528  11.411
85231W        W53605  35.077   9.212  11.580
85232W        W53606  11.237  40.310   0.330
85233W        W53607  44.868  40.352   1.927
85234W        W53608  15.648  33.431   3.716
85235W        W53609  24.686   0.944   0.831
85236W        W53610  22.623  28.486   4.748
85237W        W53611  26.533  31.606   3.730
85238W        W53612  20.600  10.300  13.413
85239W        W53613   2.882  21.513  11.442
85240W        W53614  40.950   3.724   2.250
85241W        W53615  19.121  30.498   1.817
85242W        W53616  20.649  17.739  13.969
85243W        W53617  35.915  25.992   2.822
85244W        W53618   1.449  44.467   2.815
85245W        W53619  28.474  36.980  13.386
85246W        W53620  21.254   4.369  13.473
85247W        W53621  21.146  32.939  14.461
85248W        W53622  19.574  28.632   2.900
85249W        W53623  27.566  22.695  14.504
85250W        W53624  44.774  37.578   0.451
85251W        W53625  27.637  13.109  12.009
85252W        W53626  26.009   8.258  10.472
85253W        W53627  33.887  29.151   1.785
85254W        W53628  14.308  39.064  12.433
85255W        W53629  29.622   5.899  12.393
85256W        W53630   1.382   0.951  13.038
85257W        W53631   8.819  36.406  13.473
85258W        W53632  19.269  30.637  12.939
85259W        W53633   6.406  32.594  11.889
85260W        W53634  32.557   6.753  11.454
85261W        W53635  20.550  44.319   4.333
85262W        W53636  15.169  34.107   3.200
85263W        W53637  28.615  17.084   0.323
85264W        W53638  24.626  35.977  10.532
85265W        W53639  25.151   6.853  11.468
85266W        W53640  43.476   0.326  14.294
85267W        W53641   9.687  41.972   2.394
85268W        W53642  44.994  13.832  13.009
85269W        W53643  30.930  39.403  10.450
85270W        W53644  14.811  35.856  13.795
85271W        W53645  31.112  19.071  14.985
85272W        W53646  39.480   0.884   4.280
85273W        W53647  15.147  31.493  12.447
85274W        W53648  14.775  33.474   0.751
85275W        W53649  14.606  37.582   1.709
85276W        W53650  21.688  22.029   0.468
85277W        W53651  34.422  37.360  11.005
85278W        W53652  31.572  30.590   2.400
85279W        W53653  11.721  18.604   0.959
85280W        W53654  29.615  38.551   1.860
85281W        W53655   6.342  23.587   3.637
85282W        W53656  29.122  26.699  14.761
85283W        W53657  26.703   5.747  10.549
85284W        W53658  32.002   0.947   2.886
85285W        W53659  39.320   3.947  14.030
85286W        W53660  34.584  18.086   3.376
85287W        W53661  19.662  35.389   0.781
85288W        W53662  21.233  36.951  14.466
85289W        W53663  24.133   9.255  11.545
85290W        W53664  17.762  28.097   3.280
85291W        W53665  30.483  24.222  13.848
85292W        W53666  33.986  19.779  10.404
85293W        W53667  23.090   9.371  14.329
85294W        W53668  34.479  15.184   1.430
85295W        W53669  41.821   1.890  11.559
85296W        W53670  40.013  32.500  10.633
85297W        W53671   8.743  29.075   2.883
85298W        W53672  31.488  31.030  13.310
85299W        W53673  40.308  39.836  12.970
85300W        W53674  24.708  12.197   1.866
85301W        W53675  17.197   1.956   4.665
85302W        W53676   6.903   1.901  14.503
85303W        W53677  19.078  36.846   1.746
85304W        W53678  29.023  34.062  13.799
85305W        W53679  30.141  23.036   0.913
85306W        W53680  14.337   5.267   4.786
85307W        W53681  43.968  32.896  13.015
85308W        W53682  33.881  37.863  12.950
85309W        W53683  10.767  44.860  14.935
85310W        W53684  15.146   9.815  11.545
85311W        W53685  13.716  34.927  13.063
85312W        W53686  32.939  26.154  14.500
85313W        W53687  31.927  15.187   1.909
85314W        W53688  31.438   1.824   4.701
85315W        W53689   4.735  31.483  10.497
85316W        W53690   8.689   4.850  12.484
85317W        W53691  18.154  15.612  12.914
85318W        W53692   8.825  39.480   0.880
85319W        W53693   5.194  42.868  12.579
85320W        W53694  14.178  15.677  14.309
85321W        W53695  11.777  29.442   1.270
85322W        W53696  42.354  17.686   0.363
85323W        W53697  18.603  33.120  13.392
85324W        W53698  44.003  15.083   1.281
85325W        W53699  29.531  15.297   2.298
85326W        W53700  15.627  22.558  13.524
85327W        W53701  36.914  37.078   4.667
85328W        W53702  36.075  43.309  11.467
85329W        W53703  25.144   3.350   1.872
85330W        W53704   0.438  24.986  12.359
85331W        W53705   6.739  20.066  10.143
85332W        W53706  25.545  44.845   2.815
85333W        W53707  34.003  26.549   4.817
85334W        W53708  19.087   4.919  10.481
85335W        W53709  38.832  36.580  10.587
85336W        W53710  22.141  40.516   2.224
85337W        W53711  23.116  18.058   0.741
85338W        W53712  21.595  11.216   1.301
85339W        W53713   0.858  10.146   1.869
85340W        W53714  38.329   9.848   0.406
85341W        W53715  20.531  19.729   2.733
85342W        W53716  24.604  17.760  14.486
85343W        W53717  37.357  35.462  13.309
85344W        W53718  35.575  11.172  13.907
85345W        W53719  13.807   5.865   2.680
85346W        W53720  28.983  27.985   1.285
85347W        W53721  14.649  31.459   3.870
85348W        W53722  31.600  21.132   4.131
85349W        W53723  18.583  40.483  11.537
85350W        W53724  31.105  12.360   2.237
85351W        W53725  21.712  30.954  14.890
85352W        W53726   7.869  24.105   5.706
85353W        W53727   2.939  42.374  10.407
85354W        W53728  23.491  11.781   2.684
85355W        W53729  24.103  18.772   0.428
85356W        W53730  43.840  43.995   4.695
85357W        W53731  21.574  21.689   0.441
85358W        W53732  26.069  33.877  11.407
85359W        W53733  33.388  44.369  13.980
85360W        W53734   0.931  44.371  13.375
85361W        W53735  24.648  40.991  12.580
85362W        W53736  42.334   6.839  11.059
85363W        W53737  42.462  39.342  12.519
85364W        W53738   0.883  42.994   4.124
85365W        W53739  43.816  42.325   2.771
85366W        W53740  30.096  20.135   3.819
85367W        W53741  18.109  40.508   4.794
85368W        W53742  40.964   2.328  12.832
85369W        W53743  37.867   0.936  11.402
85370W        W53744   0.965  40.532   5.110
85371W        W53745  17.148   1.862  12.406
85372W        W53746   6.716  10.260  14.943
85373W        W53747  15.748  33.948  14.327
85374W        W53748  11.130  36.508   3.804
85375W        W53749  44.763  10.834   4.309
85376W        W53750  40.017  17.719   1.765
85377W        W53751  17.274   8.379   1.801
85378W        W53752  15.649   4.784   3.287
85379W        W53753  41.040  32.411   0.244
85380W        W53754  44.496  26.988   0.261
85381W        W53755  42.520  35.964  13.908
85382W        W53756  20.028   1.947  14.948
85383W        W53757   8.829  36.509  10.521
85384W        W53758  32.449   7.272   3.226
85385W        W53759  24.617   9.744   1.239
85386W        W53760  35.043  19.776  14.031
85387W        W53761  33.450  24.077   0.248
85388W        W53762  15.651  25.210  12.990
85389W        W53763  26.190  19.277  14.496
85390W        W53764  30.481   7.803  11.951
85391W        W53765  38.544   2.235  14.304
85392W        W53766  18.662  30.614  13.979
85393W        W53767   4.896  25.051  11.959
85394W        W53768  38.944  25.129  11.019
85395W        W53769   4.257  26.491   0.321
85396W        W53770  11.643  10.698   4.180
85397W        W53771  41.028  18.203  12.973
85398W        W53772  16.104  26.481   9.943
85399W        W53773  42.485  25.178   3.798
85400W        W53774  38.544  19.151   2.759
85401W        W53775  39.421   3.251   0.902
85402W        W53776   6.323   5.336  11.461
85403W        W53777  15.088  26.951   3.273
85404W        W53778   6.184  19.274  13.012
85405W        W53779  40.871   2.819   2.705
85406W        W53780  14.253  37.975  12.480
85407W        W53781   3.763  36.435   4.766
85408W        W53782   0.942  11.645   4.764
85409W        W53783  29.069   0.771   0.960
85410W        W53784  31.066  16.803  11.122
85411W        W53785  34.935  22.512   4.283
85412W        W53786   0.975  16.630   1.370
85413W        W53787  18.160  17.146   1.928
85414W        W53788  15.676  33.485   2.362
85415W        W53789  17.611  17.120  11.561
85416W        W53790  37.927  15.775   1.696
85417W        W53791  39.477  17.270   2.809
85418W        W53792  28.124  14.330   9.969
85419W        W53793  30.595   4.211  13.446
85420W        W53794  16.082  33.421   0.408
85421W        W53795  37.942   9.820   3.833
85422W        W53796  28.060   0.782  13.815
85423W        W53797  21.133  15.612  10.947
85424W        W53798  22.591  20.243  10.614
85425W        W53799  14.588  17.745   1.736
85426W        W53800  28.995  19.647   3.770
85427W        W53801  24.117  30.628   2.756
85428W        W53802  10.649  18.263   2.294
85429W        W53803   7.695  40.055  11.602
85430W        W53804  28.094  44.266   0.300
85431W        W53805  12.320   9.211   2.715
85432W        W53806  44.352  32.564   1.745
85433W        W53807  22.745   1.958  11.915
85434W        W53808   8.744  15.632  13.972
85435W        W53809  21.224  42.782   3.164
85436W        W53810  23.028  21.720  10.434
85437W        W53811  37.387   6.338   9.956
85438W        W53812  37.856  27.068   4.607
85439W        W53813  41.950  12.691  14.001
85440W        W53814   5.899  36.899   1.412
85441W        W53815  12.190  18.285  13.890
85442W        W53816  40.429  26.180  14.966
85443W        W53817  11.770  27.508   3.806
85444W        W53818  19.729  40.037   4.167
85445W        W53819  19.724  43.272   2.261
85446W        W53820  34.445  18.247   3.812
85447W        W53821  11.689  44.464   0.822
85448W        W53822  39.870  40.943  11.436
85449W        W53823  31.936  33.944  13.520
85450W        W53824  42.989  31.614  10.939
85451W        W53825  23.029   1.413  11.976
85452W        W53826  20.554  17.580  14.832
85453W        W53827  39.921  19.715  12.907
85454W        W53828  27.629  44.906   1.877
85455W        W53829  28.586  41.911   0.479
85456W        W53830   7.678  33.469  12.428
85457W        W53831  40.903   6.334   2.182
85458W        W53832  37.416   0.342   1.793
85459W        W53833  40.815  30.566   0.330
85460W        W53834  29.090  26.663   2.860
85461W        W53835  32.939  14.747   1.406
85462W        W53836   6.837   4.875  12.405
85463W        W53837  30.013  15.743   0.817
85464W        W53838  32.022  36.934  12.538
85465W        W53839  26.977  41.888  13.479
85466W        W53840  30.623   8.184  14.764
85467W        W53841  17.568   1.335   3.342
85468W        W53842  30.515  14.732   1.325
85469W        W53843  32.395  12.307   0.399
85470W        W53844  12.271  29.429   1.748
85471W        W53845  25.711  16.304  12.006
85472W        W53846  26.501  35.509  14.923
85473W        W53847   5.932  26.136   4.708
85474W        W53848  37.377  41.795   3.279
85475W        W53849  36.489   4.274  14.933
85476W        W53850  44.821  36.995  12.510
85477W        W53851   1.478   2.326  14.854
85478W        W53852   3.392  29.167  11.477
85479W        W53853  10.300  35.942  10.925
85480W        W53854  21.034  21.122   4.137
85481W        W53855  30.128  11.734  12.839
85482W        W53856  33.542  39.375  10.112
85483W        W53857   6.917  31.022   3.793
85484W        W53858  14.203  38.374   1.241
85485W        W53859   9.787  26.139  12.556
85486W        W53860   0.294   6.328   0.844
85487W        W53861  40.389  39.889   4.810
85488W        W53862  40.963  35.860  12.553
85489W        W53863  21.637  24.991  12.843
85490W        W53864  24.070   7.198  11.943
85491W        W53865  11.738  19.735  14.309
85492W        W53866  38.850  26.170  12.528
85493W        W53867  13.269  22.501   9.961
85494W        W53868  10.374  32.083   0.431
85495W        W53869   6.419   9.653   0.256
85496W        W53870  41.910  13.779  11.043
85497W        W53871  13.243   7.777  14.416
85498W        W53872  29.010  33.621   4.605
85499W        W53873  31.611  22.129   1.827
85500W        W53874  35.084  32.612   2.702
85501W        W53875  18.160  43.912  13.322
85502W        W53876  40.042   4.807   4.666
85503W        W53877  35.927  41.027  13.902
85504W        W53878  23.548  31.976  11.116
85505W        W53879  43.393  11.297   0.324
85506W        W53880  19.736  33.028   3.301
85507W        W53881  12.223  42.377  10.572
85508W        W53882  28.130  13.321  14.928
85509W        W53883  10.639  42.429   2.900
85510W        W53884   1.458   4.307   0.784
85511W        W53885  39.001  11.223  13.543
85512W        W53886   5.221  29.450   2.662
85513W        W53887  30.441  17.650   2.341
85514W        W53888   9.361   0.320   2.702
85515W        W53889   5.298  29.579   0.794
85516W        W53890  25.073  43.888   1.379
85517W        W53891  28.951  17.687   4.687
85518W        W53892  42.302  37.393   3.214
85519W        W53893  33.389  32.620   0.271
85520W        W53894  43.005   4.360   0.889
85521W        W53895  11.626   7.393  11.612
85522W        W53896  28.538   3.285   2.357
85523W        W53897   1.874  28.595   3.367
85524W        W53898  37.969  17.226  11.896
85525W        W53899  35.481  38.847  13.060
85526W        W53900   6.832  44.272  12.496
85527W        W53901   4.732  41.903  14.772
85528W        W53902  15.608  20.578   0.741
85529W        W53903  40.854  14.163   1.392
85530W        W53904  16.076  13.167   0.794
85531W        W53905  14.152  14.309   1.378
85532W        W53906   3.460  37.932  10.427
85533W        W53907  25.509  40.409  14.800
85534W        W53908  14.116  31.990   3.672
85535W        W53909  22.515  44.829   0.395
85536W        W53910  40.869  15.623   3.351
85537W        W53911   9.358  17.277   0.479
85538W        W53912   1.473  12.289  14.499
85539W        W53913  43.829  42.379  14.011
85540W        W53914  22.251  39.993  12.040
85541W        W53915  29.017  30.100   3.259
85542W        W53916  42.025   6.921   2.381
85543W        W53917  24.023  30.582   0.402
85544W        W53918  20.086  23.044  10.980
85545W        W53919  11.354   8.217  13.977
85546W        W53920   5.930   0.482   3.769
85547W        W53921  13.704   4.843   0.735
85548W        W53922   0.925  34.433   3.743
85549W        W53923  10.699  44.000  14.477
85550W        W53924   8.704  36.444   4.204
85551W        W53925  25.138  28.139   3.181
85552W        W53926  32.540  18.605  10.508
85553W        W53927  25.646  17.564   1.346
85554W        W53928   1.426  24.013  10.612
85555W        W53929  10.201  31.623  12.851
85556W        W53930  15.784   0.302   1.930
85557W        W53931  37.059  36.360   1.319
85558W        W53932  44.350  33.875   4.203
85559W        W53933   2.455  35.028  11.991
85560W        W53934  34.441  17.561   3.685
85561W        W53935  13.734   4.271  14.287
85562W        W53936  24.646  29.587   1.350
85563W        W53937  16.099   3.403  12.030
85564W        W53938  35.979  24.693   3.660
85565W        W53939   7.264   9.239   4.597
85566W        W53940   4.702   5.890  11.944
85567W        W53941  35.948  28.036   1.287
85568W        W53942  31.487  30.516   3.201
85569W        W53943  20.201  39.442   2.241
85570W        W53944  36.422  18.183  12.985
85571W        W53945  17.580   0.406  13.384
85572W        W53946  23.490  40.873   3.379
85573W        W53947   7.382  24.124  12.513
85574W        W53948  39.416  32.586   2.230
85575W        W53949  37.350  15.213   0.286
85576W        W53950  16.140  34.427  14.889
85577W        W53951  10.718  24.527   1.724
85578W        W53952  29.074  31.076   2.698
85579W        W53953   3.717   0.345   2.235
85580W        W53954  27.582  35.049   2.846
85581W        W53955   1.888  11.274   4.229
85582W        W53956  32.103  21.049  12.982
85583W        W53957  24.598  36.844  14.986
85584W        W53958  18.577  34.105   3.773
85585W        W53959   1.341  19.193   4.636
85586W        W53960  19.234  33.904   0.735
85587W        W53961  14.814  29.107  10.478
85588W        W53962  31.011  29.050   4.185
85589W        W53963  17.247  16.727   2.664
85590W        W53964  41.817  30.992  11.560
85591W        W53965  18.552  18.065  14.999
85592W        W53966  27.687  40.414   3.753
85593W        W53967  21.725  30.589  10.405
85594W        W53968  15.616  34.488  13.323
85595W        W53969  29.616   0.818  13.886
85596W        W53970  27.063   0.323   5.139
85597W        W53971  41.836  27.028   1.388
85598W        W53972  34.372  13.754  13.895
85599W        W53973   9.158  18.666  10.501
85600W        W53974  30.492  15.256   1.244
85601W        W53975   0.838   9.304  14.892
85602W        W53976   3.353  43.362   0.319
85603W        W53977  15.779   4.360   1.886
85604W        W53978  33.567  24.215  11.445
85605W        W53979  19.752  44.302  11.945
85606W        W53980   3.715  35.574  14.370
85607W        W53981  18.187  26.512   1.795
85608W        W53982  22.187  21.043  10.947
85609W        W53983  19.637   4.348  11.391
85610W        W53984   6.381  14.678  13.388
85611W        W53985  23.197   2.924   1.889
85612W        W53986   9.274  44.795  13.465
85613W        W53987  38.544   9.801   9.568
85614W        W53988   3.907  28.983   3.284
85615W        W53989  30.011  40.308  14.875
85616W        W53990  12.163  37.379   1.890
85617W        W53991   0.814  35.060  12.053
85618W        W53992   1.816  12.233  14.912
85619W        W53993  11.686  35.498   3.208
85620W        W53994  32.499  10.289  14.505
85621W        W53995  39.858  18.098  10.461
85622W        W53996   8.701  38.969  11.577
85623W        W53997  23.204  36.580  10.493
85624W        W53998  17.735  22.592  13.368
85625W        W53999  26.180   5.869   4.799
85626W        W54000  35.491   1.381   2.380
85627W        W54001   6.682  25.200  11.909
85628W        W54002   1.917  40.511  11.496
85629W        W54003  41.304   7.758  14.442
85630W        W54004  40.927   2.426  12.544
85631W        W54005  34.409  27.997   1.887
85632W        W54006  22.586  27.980  14.458
85633W        W54007  34.892   7.242   1.331
85634W        W54008  42.915  27.190   4.158
85635W        W54009   8.251  20.599  12.870
85636W        W54010  37.554   2.359   2.694
85637W        W54011  35.944  32.598   2.834
85638W        W54012  31.592   2.351  14.951
85639W        W54013  42.009  41.012   4.176
85640W        W54014   7.718  13.671  11.534
85641W        W54015  33.428   8.288  12.963
85642W        W54016  25.697   6.766  14.921
85643W        W54017   2.872  16.665  11.551
85644W        W54018  10.773   1.954  11.872
85645W        W54019   1.894  18.771  12.478
85646W        W54020   4.241  41.392  13.944
85647W        W54021  14.307  27.097  12.486
85648W        W54022  12.245   3.711   0.372
85649W        W54023  42.320  27.019  10.422
85650W        W54024  43.021  17.072  14.924
85651W        W54025  23.616  32.081  10.458
85652W        W54026   6.687   2.316   4.203
85653W        W54027   8.780  23.589  13.964
85654W        W54028  20.714  38.836   4.718
85655W        W54029  37.842  10.677   3.319
85656W        W54030  13.143  32.496   1.855
85657W        W54031   8.816  18.231  10.921
85658W        W54032  26.472   0.802  12.055
85659W        W54033   6.396   3.258   3.708
85660W        W54034   5.697  22.506  11.875
85661W        W54035   4.232  24.979  10.445
85662W        W54036  34.500  10.734   4.766
85663W        W54037  23.515  35.106   4.285
85664W        W54038  18.765  29.474   1.710
85665W        W54039   0.458  25.711  13.022
85666W        W54040   8.755  11.685  11.477
85667W        W54041  33.540  10.241  13.886
85668W        W54042  22.104  13.347   4.776
85669W        W54043  18.728  35.925  11.453
85670W        W54044   8.719  14.661   4.730
85671W        W54045  13.218   0.307   2.376
85672W        W54046   6.393  18.212  13.807
85673W        W54047  28.073  24.119  13.954
85674W        W54048   8.163  20.561   3.747
85675W        W54049  32.507   8.385  14.335
85676W        W54050  35.051  25.036  13.055
85677W        W54051  33.087  43.479   1.285
85678W        W54052   7.217   8.277  10.452
85679W        W54053  18.053  14.210  11.936
85680W        W54054  33.116  24.153   0.341
85681W        W54055   0.896  25.710  14.355
85682W        W54056  35.450  40.370  11.927
85683W        W54057   7.762  44.484   4.817
85684W        W54058  35.048  41.326   4.255
85685W        W54059   6.406   2.875   1.428
85686W        W54060  37.455   3.323   4.164
85687W        W54061  41.801  12.291  14.946
85688W        W54062  19.709   0.945  13.451
85689W        W54063  43.299  19.724  12.921
85690W        W54064  14.151  17.267   0.377
85691W        W54065  42.493  21.230   3.240
85692W        W54066  21.070  16.740  10.508
85693W        W54067   7.795  37.419  13.336
85694W        W54068  21.244  26.084   2.709
85695W        W54069  29.464   0.828  11.529
85696W        W54070   1.473  37.992   3.791
85697W        W54071  29.949  33.907   3.655
85698W        W54072  21.172  39.331  12.871
85699W        W54073  21.226  34.928  12.417
85700W        W54074  43.338  42.448  12.960
85701W        W54075  18.615  34.981   4.629
85702W        W54076  11.849  44.770  11.582
85703W        W54077  12.343   1.969  11.903
85704W        W54078  16.148   2.945   1.328
85705W        W54079  36.044  43.854  12.897
85706W        W54080  30.103  34.566   4.241
85707W        W54081  43.899   6.247   1.932
85708W        W54082  29.130  43.418   4.737
85709W        W54083  43.999  30.088   2.309
85710W        W54084   7.908  21.042   4.269
85711W        W54085  31.057  27.488   2.356
85712W        W54086  29.463  24.590  13.973
85713W        W54087  38.565   6.733  11.114
85714W        W54088  28.934   7.213   0.483
85715W        W54089   8.689  10.797  11.992
85716W        W54090  29.037  34.592  11.474
85717W        W54091  31.071  43.279   4.672
85718W        W54092  12.754   1.793  11.547
85719W        W54093  30.993  18.087  12.841
85720W        W54094  33.958  18.211   2.853
85721W        W54095   9.152  39.541   4.264
85722W        W54096  30.471  25.479   1.873
85723W        W54097  16.744  28.022   3.259
85724W        W54098  29.962  27.958   4.345
85725W        W54099  20.067   6.277   0.820
85726W        W54100  12.710  34.575  13.319
85727W        W54101   7.811  22.709  13.007
85728W        W54102   9.645   2.358   1.907
85729W        W54103  12.124  35.096  10.951
85730W        W54104  34.443  14.767  11.406
85731W        W54105  40.948  11.835  10.948
85732W        W54106  13.268  27.466  12.917
85733W        W54107   8.365  43.466   0.281
85734W        W54108  26.685  13.668   4.327
85735W        W54109  43.427  22.226  14.830
85736W        W54110  22.549   0.280  14.970
85737W        W54111  30.132  22.172   2.389
85738W        W54112   8.386   6.769   3.848
85739W        W54113  44.283   8.222   3.315
85740W        W54114  20.250  37.341  10.024
85741W        W54115  29.583  25.555   0.825
85742W        W54116  30.423  23.044  11.419
85743W        W54117  26.671  11.714  10.635
85744W        W54118  12.223   5.379  13.013
85745W        W54119  30.580   0.799  11.473
85746W        W54120  40.525  35.400  13.401
85747W        W54121  28.038   1.821   1.412
85748W        W54122  23.020  41.383  11.978
85749W        W54123  21.254  10.773   0.838
85750W        W54124  35.385   7.191  12.536
85751W        W54125  12.296  13.331   3.192
85752W        W54126  32.892  17.675   0.465
85753W        W54127  44.753  20.036   1.382
85754W        W54128   0.461  31.982   4.626
85755W        W54129  22.158   5.906   2.797
85756W        W54130  35.965  28.673   2.794
85757W        W54131  23.049  42.425   2.762
85758W        W54132  12.206  11.820   2.400
85759W        W54133  30.940  20.664   4.702
85760W        W54134   4.874  28.085  12.969
85761W        W54135   2.881  17.584   3.244
85762W        W54136  24.549  29.452   3.255
85763W        W54137  37.570  17.701   1.760
85764W        W54138  29.038  42.520  13.920
85765W        W54139  33.567  12.785  10.623
85766W        W54140  23.076  15.644   4.608
85767W        W54141  24.031  22.675  14.337
85768W        W54142  16.692   3.402   1.330
85769W        W54143  27.612  22.123   4.764
85770W        W54144  14.331  16.715   1.870
85771W        W54145  31.016  14.258  11.946
85772W        W54146  39.012  22.575   2.824
85773W        W54147   4.881   4.214  10.524
85774W        W54148   8.706  40.460  14.766
85775W        W54149  37.987   9.853  11.875
85776W        W54150  23.034  22.637   1.907
85777W        W54151  32.128  12.802   1.389
85778W        W54152  40.902  11.251  11.967
85779W        W54153  23.509  39.843   1.708
85780W        W54154  13.702  44.880   4.273
85781W        W54155   8.343  27.546   9.487
85782W        W54156  24.095  13.707  10.541
85783W        W54157  30.530   5.734  13.533
85784W        W54158   9.227  33.468  10.405
85785W        W54159  21.653   9.741  11.900
85786W        W54160  42.372   1.239   3.162
85787W        W54161  23.078   1.779   4.166
85788W        W54162  15.690  24.499   1.228
85789W        W54163  15.642  29.124  14.893
85790W        W54164  26.958  21.099   1.891
85791W        W54165  41.302   7.685  11.858
85792W        W54166  17.200  37.484  11.494
85793W        W54167  14.264  29.533   0.902
85794W        W54168  40.919   6.716  11.019
85795W        W54169   5.286   6.204  10.591
85796W        W54170  33.417   4.808  12.437
85797W        W54171  22.673   0.487   3.375
85798W        W54172  20.099  25.691  11.430
85799W        W54173  38.055  37.913  11.394
85800W        W54174  33.971  10.653  12.896
85801W        W54175  32.080  28.174  12.422
85802W        W54176   7.294  43.495  11.101
85803W        W54177  14.307   1.433   1.267
85804W        W54178   6.873  32.460  13.994
85805W        W54179  19.610   6.865   4.252
85806W        W54180  19.276   9.808   1.698
85807W        W54181  14.722  18.196  13.447
85808W        W54182  13.732  11.658  11.971
85809W        W54183  37.839  40.398  14.510
85810W        W54184   9.177   7.767  13.410
85811W        W54185   2.271  11.148   1.349
85812W        W54186  31.913  21.261  10.894
85813W        W54187  28.103  21.086   0.766
85814W        W54188   8.250  22.632   0.941
85815W        W54189  43.011   0.431  14.861
85816W        W54190   3.326  29.608   3.643
85817W        W54191  10.835   8.353   2.758
85818W        W54192  34.569  44.451   0.815
85819W        W54193   5.796  20.134   2.771
85820W        W54194  32.041  42.952   3.348
85821W        W54195   1.779  43.899   1.703
85822W        W54196  37.529   4.396  14.976
85823W        W54197  39.997  20.594  14.349
85824W        W54198  39.557  43.883   0.263
85825W        W54199  42.858  44.418   3.678
85826W        W54200   9.849  27.454  13.314
85827W        W54201   6.683  27.583  12.967
85828W        W54202   6.323  42.455  12.917
85829W        W54203  26.024  29.428  12.547
85830W        W54204  28.503  44.864  10.531
85831W        W54205  31.144  31.054  11.011
85832W        W54206  43.389  12.299  13.012
85833W        W54207  31.610  38.376  14.364
85834W        W54208  42.845  23.723  11.935
85835W        W54209  19.780  16.203   1.701
85836W        W54210   2.908  34.407  12.945
85837W        W54211   5.743   1.269   4.805
85838W        W54212  42.447  10.240   2.258
85839W        W54213  39.441  40.421  11.126
85840W        W54214  32.441  13.140  10.900
85841W        W54215  27.958  18.705   0.908
85842W        W54216  14.654  12.854  11.579
85843W        W54217  13.112  13.333   0.358
85844W        W54218  24.665  13.230   2.376
85845W        W54219  44.887  29.017   2.890
85846W        W54220   6.731   3.722  13.797
85847W        W54221  36.987   1.400   1.425
85848W        W54222  11.260   6.403  11.456
85849W        W54223  27.516   3.375   4.749
85850W        W54224  19.086  27.157   2.206
85851W        W54225   6.691  30.658  10.426
85852W        W54226  28.602  33.480   1.903
85853W        W54227   7.666  30.985   1.358
85854W        W54228  42.361   6.256  14.948
85855W        W54229   9.796   6.874  12.846
85856W        W54230  40.985  33.612  11.024
85857W        W54231   6.224   7.249  13.373
85858W        W54232  32.020  23.074  14.385
85859W        W54233  22.007  36.451  12.852
85860W        W54234  18.681  13.710  11.124
85861W        W54235   0.853  42.400  14.504
85862W        W54236  41.824  39.412  11.403
85863W        W54237  31.571  26.559   0.963
85864W        W54238   0.934  25.029  13.444
85865W        W54239  20.726   0.374   2.369
85866W        W54240  17.701  27.606  14.993
85867W        W54241   4.822  39.015   3.814
85868W        W54242  10.737  34.940  10.591
85869W        W54243  40.446  10.779   1.829
85870W        W54244  23.109  33.425   4.120
85871W        W54245  43.954   8.810   4.782
85872W        W54246  33.020  39.998   1.256
85873W        W54247  43.987  30.991   0.863
85874W        W54248  22.655   6.391  14.822
85875W        W54249  34.914   7.832   0.454
85876W        W54250  17.634  39.412  10.916
85877W        W54251   7.701   1.298  14.997
85878W        W54252   4.715  24.009   1.722
85879W        W54253  33.410  43.428  11.901
85880W        W54254  14.759  31.646   0.450
85881W        W54255   4.773  37.855  14.378
85882W        W54256  22.652  31.001  10.610
85883W        W54257  32.620  12.708  13.388
85884W        W54258  13.283   8.288   3.772
85885W        W54259  31.513  19.074   1.442
85886W        W54260   9.705  41.427  11.860
85887W        W54261  32.888  27.052  10.969
85888W        W54262   6.714  31.971  10.604
85889W        W54263  40.941  25.078  14.477
85890W        W54264  15.148  11.315   1.230
85891W        W54265  23.056  12.690  14.023
85892W        W54266  16.144  42.837   3.332
85893W        W54267  18.715  41.406  14.311
85894W        W54268  14.127  44.790  10.629
85895W        W54269   5.776  29.547  10.905
85896W        W54270  38.438   9.742  13.402
85897W        W54271  30.036  19.645  10.989
85898W        W54272  37.881  38.552  10.983
85899W        W54273  33.907  30.563  10.621
85900W        W54274  36.954  36.375   1.722
85901W        W54275   5.267  35.033   3.243
85902W        W54276  30.506  23.671  12.864
85903W        W54277  37.884  31.456   2.179
85904W        W54278  37.959  18.109  11.942
85905W        W54279  17.095   9.890  11.079
85906W        W54280  44.311   0.482  13.059
85907W        W54281   6.905  20.098   0.396
85908W        W54282  16.178  26.540  13.972
85909W        W54283  18.266   9.314  12.839
85910W        W54284  39.887  21.096   2.294
85911W        W54285  32.512   5.224  11.897
85912W        W54286   3.941  43.312   4.766
85913W        W54287  14.329   5.244   2.219
85914W        W54288  20.171  26.153   4.284
85915W        W54289  43.834  42.843  12.087
85916W        W54290  12.323  19.205   2.401
85917W        W54291  29.980  22.591  10.968
85918W        W54292  40.488  17.238   3.305
85919W        W54293  28.557   8.893  13.413
85920W        W54294  11.714  38.892  11.560
85921W        W54295   3.781  28.063  13.878
85922W        W54296  28.510  43.351   9.560
85923W        W54297  25.045  30.993   2.801
85924W        W54298  18.769  31.471  10.437
85925W        W54299  41.851  29.920  11.034
85926W        W54300  20.090   6.326   1.815
85927W        W54301  25.182  38.478  10.972
85928W        W54302  38.564  22.108   2.784
85929W        W54303  21.106  18.213  10.097
85930W        W54304   9.321  32.899   0.843
85931W        W54305  10.318  14.811  11.897
85932W        W54306  44.426  32.449  12.529
85933W        W54307  30.154  43.352  14.889
85934W        W54308  30.089  10.671   0.787
85935W        W54309   5.714  13.710   3.244
85936W        W54310  39.062  25.054   4.216
85937W        W54311  39.490  19.622  11.601
85938W        W54312  18.230  29.148   1.230
85939W        W54313  22.251  12.821   0.834
85940W        W54314  22.169  37.447   0.262
85941W        W54315  11.850  17.251  11.440
85942W        W54316   9.673  26.013  14.894
85943W        W54317  37.442  34.062  11.066
85944W        W54318  37.970   0.887  11.091
85945W        W54319  44.775  16.209   3.343
85946W        W54320  15.679  31.128   3.159
85947W        W54321  44.980  19.594  11.445
85948W        W54322  21.041   2.962  12.982
85949W        W54323  39.016  43.436   4.768
85950W        W54324  16.758  28.949  11.094
85951W        W54325  32.584  12.199  14.428
85952W        W54326  22.057  42.779  13.521
85953W        W54327  25.162  16.785  10.990
85954W        W54328   9.327   0.847   0.416
85955W        W54329  11.751  32.413  13.915
85956W        W54330  38.848  12.811  11.554
85957W        W54331  25.628  19.072   3.202
85958W        W54332  42.880  39.479  10.437
85959W        W54333  38.472   1.238   3.275
85960W        W54334  18.089  11.714  13.358
85961W        W54335  40.935  29.575   3.173
85962W        W54336  41.427   9.650   0.856
85963W        W54337  33.994   3.361   0.852
85964W        W54338   6.887  40.022   2.253
85965W        W54339  28.621  21.105  10.928
85966W        W54340  41.504  41.892  12.519
85967W        W54341  24.159  13.632  13.957
85968W        W54342  24.031  19.714   4.268
85969W        W54343   8.741  11.647   4.617
85970W        W54344  22.247  35.513   1.447
85971W        W54345  38.408  33.562   4.218
85972W        W54346  35.857  14.605   2.287
85973W        W54347  38.850  39.318  14.947
85974W        W54348  12.164  42.361  14.882
85975W        W54349  14.143  19.141  12.452
85976W        W54350  42.790  21.098  13.331
85977W        W54351   8.325  24.529   2.677
85978W        W54352  43.427  14.712  10.529
85979W        W54353  22.589  35.373  12.968
85980W        W54354  15.304  36.504   3.773
85981W        W54355  44.394  42.806   0.961
85982W        W54356  16.754  38.401  13.793
85983W        W54357  27.517   3.328   0.334
85984W        W54358  10.724  32.413  13.043
85985W        W54359  17.629  24.149  10.636
85986W        W54360   9.649  31.409   4.630
85987W        W54361   5.199  34.589   2.308
85988W        W54362  44.887  39.952   0.880
85989W        W54363   2.270  43.802   2.364
85990W        W54364  34.516  25.563  13.973
85991W        W54365  16.731  12.806   4.303
85992W        W54366  31.464  35.409   1.317
85993W        W54367  31.083  43.463   1.805
85994W        W54368   2.260  17.072  12.560
85995W        W54369  37.854  24.652   1.385
85996W        W54370   1.917  29.108  11.080
85997W        W54371  16.280  37.933   4.697
85998W        W54372   4.894  25.073   5.164
85999W        W54373  25.480  32.126   3.160
86000W        W54374   8.844  30.490  14.006
86001W        W54375  19.097  27.636  14.505
86002W        W54376  39.039  11.664   4.195
86003W        W54377  13.149  20.631  14.885
86004W        W54378  16.098  43.321  14.814
86005W        W54379   2.246  31.007   3.674
86006W        W54380  21.626  39.817  11.036
86007W        W54381  38.823   9.649   0.421
86008W        W54382  36.380  14.650   3.743
86009W        W54383  21.521   9.671   1.216
86010W        W54384   7.904  27.501   2.401
86011W        W54385  37.947  39.060  11.987
86012W        W54386  14.177  40.932  12.339
86013W        W54387  18.646   0.452  11.460
86014W        W54388  19.056  30.093  13.365
86015W        W54389   3.351  13.708   4.647
86016W        W54390  35.928  36.505  13.505
86017W        W54391  17.223  21.747   1.913
86018W        W54392  34.972  11.866  12.454
86019W        W54393  15.315  15.193   0.859
86020W        W54394  32.086  38.070  13.508
86021W        W54395  31.986  38.413  11.430
86022W        W54396  30.425  14.601  12.450
86023W        W54397  27.094  40.453  11.062
86024W        W54398  24.114  36.474   1.367
86025W        W54399   1.475  11.291   3.206
86026W        W54400  40.522  39.016  14.991
86027W        W54401   9.192   4.812  10.452
86028W        W54402  28.158  11.201   0.358
86029W        W54403   2.741  38.336  12.034
86030W        W54404  43.911  33.912  14.936
86031W        W54405  18.292  26.607   0.411
86032W        W54406  31.566   0.751  14.386
86033W        W54407  30.067  21.732   3.812
86034W        W54408   6.424  33.516  12.024
86035W        W54409  30.479  24.681   3.333
86036W        W54410   3.354  11.773  11.961
86037W        W54411  11.363  26.587  12.538
86038W        W54412   7.769  20.187   4.707
86039W        W54413  24.577  27.618   1.699
86040W        W54414  10.300  37.433  13.538
86041W        W54415  35.993  24.718  13.484
86042W        W54416  35.979  39.985  11.988
86043W        W54417  12.358  18.216   3.649
86044W        W54418  21.742  32.076  11.029
86045W        W54419  17.203  25.976  12.969
86046W        W54420   0.749  17.585  14.947
86047W        W54421  35.017   9.782  10.974
86048W        W54422   4.300  35.506   4.178
86049W        W54423  42.800   0.851  12.455
86050W        W54424  30.450  37.030   3.160
86051W        W54425  27.046   0.960   1.842
86052W        W54426  31.017   0.301   2.275
86053W        W54427  26.202  13.182  12.017
86054W        W54428  25.554  17.735   3.294
86055W        W54429   7.410  17.791   1.431
86056W        W54430  29.503  33.022   3.219
86057W        W54431  37.027  23.199   4.813
86058W        W54432  26.685  44.269  11.892
86059W        W54433  11.307  19.195   2.800
86060W        W54434  21.619  11.707  10.548
86061W        W54435  21.073   7.887   3.866
86062W        W54436  34.965  11.296   1.698
86063W        W54437   5.213  34.889   1.852
86064W        W54438  16.599  34.969  11.976
86065W        W54439  23.010   7.361  11.528
86066W        W54440  33.396  19.744   2.393
86067W        W54441   8.753  25.021  13.879
86068W        W54442   2.821  36.975   4.681
86069W        W54443  21.085   8.338  13.391
86070W        W54444  19.761   2.436   1.283
86071W        W54445  30.985  25.068   4.632
86072W        W54446  27.448  44.956  14.472
86073W        W54447  13.670   0.450  11.436
86074W        W54448  18.195  20.221  12.452
86075W        W54449  34.509  10.690  11.040
86076W        W54450  25.691  23.565  12.488
86077W        W54451  25.009  27.029   1.753
86078W        W54452  42.471  42.308   0.813
86079W        W54453  25.101  44.915   0.836
86080W        W54454  20.107  18.271  12.348
86081W        W54455  38.333  35.077   3.663
86082W        W54456  26.658  22.561   4.306
86083W        W54457  19.202  15.094   2.766
86084W        W54458  35.988  25.588   3.828
86085W        W54459  33.062  28.598   3.647
86086W        W54460  42.477  33.966  11.572
86087W        W54461   2.850  33.384  10.566
86088W        W54462  44.797  20.675   4.313
86089W        W54463  10.194  10.873  14.373
86090W        W54464  42.348  21.663   1.868
86091W        W54465  33.042  10.364  13.434
86092W        W54466  13.663  40.335   0.923
86093W        W54467  31.422  12.210  11.463
86094W        W54468  14.194  19.663   0.874
86095W        W54469  20.720   4.249  11.413
86096W        W54470   5.767  44.815  10.499
86097W        W54471  28.054  41.400  10.889
86098W        W54472   5.207   5.850  11.127
86099W        W54473  23.165  22.595  12.867
86100W        W54474  43.504  17.714   2.201
86101W        W54475  12.307   8.897   0.809
86102W        W54476  30.977  36.566  11.933
86103W        W54477  40.483  11.188  11.014
86104W        W54478   2.267   2.773   1.882
86105W        W54479   5.774  44.388   2.205
86106W        W54480  43.386  30.649  10.408
86107W        W54481  33.514  29.964  10.496
86108W        W54482  15.229  36.493   4.687
86109W        W54483  12.640  36.448   4.255
86110W        W54484   4.765   2.796  12.030
86111W        W54485  34.530  15.194  14.322
86112W        W54486  28.670  31.994   4.287
86113W        W54487  19.051  23.526   1.815
86114W        W54488  27.158  24.557  12.465
86115W        W54489  43.961  22.570   4.834
86116W        W54490  11.256  10.800  10.424
86117W        W54491  15.219  11.782   5.081
86118W        W54492   7.849  42.810  11.895
86119W        W54493  40.819  12.126   0.782
86120W        W54494  10.177  16.216   2.189
86121W        W54495  34.518   1.309   1.805
86122W        W54496  32.900   0.804   3.830
86123W        W54497  15.144   6.806  14.298
86124W        W54498  39.529  30.125   4.273
86125W        W54499  18.097  17.246  14.431
86126W        W54500  26.191  18.136  12.012
86127W        W54501  43.415  17.666   2.782
86128W        W54502  13.744  27.961   0.730
86129W        W54503  32.052  30.164   0.402
86130W        W54504   7.682  28.617  13.909
86131W        W54505   1.439  41.032  11.589
86132W        W54506   6.407   1.921  10.552
86133W        W54507  27.526  16.234   2.198
86134W        W54508  19.131  34.524   3.243
86135W        W54509  33.565  33.919  14.332
86136W        W54510  13.195   6.303  11.390
86137W        W54511  37.922  34.936   0.249
86138W        W54512   3.422  26.492   3.815
86139W        W54513  21.173  16.090   1.394
86140W        W54514   4.888  13.751  11.410
86141W        W54515   9.332  23.533  14.009
86142W        W54516  19.139  40.530  10.515
86143W        W54517  18.581  32.098   3.728
86144W        W54518  42.489  28.443  13.484
86145W        W54519  35.935  26.678  10.931
86146W        W54520  41.829  31.998  11.931
86147W        W54521  23.235  42.832   5.131
86148W        W54522  15.109  42.370   2.725
86149W        W54523  22.709  33.109  11.115
86150W        W54524  41.329  36.515  12.999
86151W        W54525   3.906  21.655   2.342
86152W        W54526  12.733  20.102   3.212
86153W        W54527  31.006  32.124   5.195
86154W        W54528   0.299  10.849  14.300
86155W        W54529  16.604  27.647   3.371
86156W        W54530  37.382  34.383  12.007
86157W        W54531  32.584  38.019   2.830
86158W        W54532  19.617  19.068   1.371
86159W        W54533  22.593   9.205   2.366
86160W        W54534  10.714  33.097  12.416
86161W        W54535   9.877  35.086   0.397
86162W        W54536  14.656  23.553  11.587
86163W        W54537  18.745  24.595  11.022
86164W        W54538   1.908  23.214  12.964
86165W        W54539   1.826  18.050  10.942
86166W        W54540  16.086  39.512   1.800
86167W        W54541  19.589  32.958  10.959
86168W        W54542   1.421  13.198   4.354
86169W        W54543   2.350   1.760   5.163
86170W        W54544  30.921  36.003   1.781
86171W        W54545  41.804  40.859  14.940
86172W        W54546  26.107  25.135   0.765
86173W        W54547   6.682  36.576  12.354
86174W        W54548  17.800  22.062  14.794
86175W        W54549  23.219  41.014  13.903
86176W        W54550  34.884  27.002   1.257
86177W        W54551   8.825  21.090   5.204
86178W        W54552  28.096  40.811   0.479
86179W        W54553   2.925  42.885   0.758
86180W        W54554  40.052  12.854  12.035
86181W        W54555   2.939  19.673  12.557
86182W        W54556  16.803  24.679  14.298
86183W        W54557  12.755   2.393   4.292
86184W        W54558   4.316   9.881  13.347
86185W        W54559  27.076  40.894  13.034
86186W        W54560  20.149  39.821  12.093
86187W        W54561  17.602  19.224  11.007
86188W        W54562  12.824  41.809   3.745
86189W        W54563  31.942  34.094   4.153
86190W        W54564  24.116   9.170   3.303
86191W        W54565  40.878   8.803   1.794
86192W        W54566  16.809  25.177  13.837
86193W        W54567   9.316  27.954   3.277
86194W        W54568   3.425  30.090   0.943
86195W        W54569   4.900  20.038  12.558
86196W        W54570  26.068   4.219  12.937
86197W        W54571  43.514   6.262   0.874
86198W        W54572  30.454  25.968  12.454
86199W        W54573  30.919  41.886  14.350
86200W        W54574  44.773  13.200  10.966
86201W        W54575  42.973   5.698  12.418
86202W        W54576  12.611  19.565   2.247
86203W        W54577   2.463   6.400   0.738
86204W        W54578  29.647   1.363   1.700
86205W        W54579  27.017  33.538  14.862
86206W        W54580  25.020  21.099  10.460
86207W        W54581   9.159  19.052  10.994
86208W        W54582  27.657  16.712   1.417
86209W        W54583   8.703   7.738   2.708
86210W        W54584  37.409  27.971   3.676
86211W        W54585  41.353   2.439   4.779
86212W        W54586   0.376  35.451   4.122
86213W        W54587  42.388  16.270   4.659
86214W        W54588  28.001   4.732   1.888
86215W        W54589  21.710  37.892   0.395
86216W        W54590   9.858   3.805  13.975
86217W        W54591  26.511   8.331   0.269
86218W        W54592   5.373   1.934  12.008
86219W        W54593   7.355  39.547  14.772
86220W        W54594   4.218  10.186  11.968
86221W        W54595  24.724  18.780   2.696
86222W        W54596   3.382  12.210   3.633
86223W        W54597  41.857  14.749  10.538
86224W        W54598   0.903  18.667   1.704
86225W        W54599  43.837  43.850   1.856
86226W        W54600   2.456  16.590   0.858
86227W        W54601  40.013  24.004   1.696
86228W        W54602  33.029  16.098  14.291
86229W        W54603   5.211  41.837   0.938
86230W        W54604  17.226  10.781   5.126
86231W        W54605  43.811  11.325  10.509
86232W        W54606   9.765  40.421   1.308
86233W        W54607  29.666   4.287  13.943
86234W        W54608  35.564  14.204  10.627
86235W        W54609  22.631  42.386  13.340
86236W        W54610  18.286  21.685   1.427
86237W        W54611  16.154  38.824   4.214
86238W        W54612   4.425  42.826   4.207
86239W        W54613  27.157  23.650   0.870
86240W        W54614   6.826  36.476   3.704
86241W        W54615  30.934  15.210   3.331
86242W        W54616   8.281   2.414   2.882
86243W        W54617  35.039  36.923   4.186
86244W        W54618  44.768   3.403  10.507
86245W        W54619  13.163  30.512  10.604
86246W        W54620  36.970  16.587   3.743
86247W        W54621  11.227  28.035   2.683
86248W        W54622   5.689  10.853  11.111
86249W        W54623  10.199  20.267   0.957
86250W        W54624   8.721  15.193   3.779
86251W        W54625   8.354  10.186   4.221
86252W        W54626   4.921  26.000   2.354
86253W        W54627  16.583  38.844  12.538
86254W        W54628  23.722  32.534  14.837
86255W        W54629  15.760  23.662  11.000
86256W        W54630  27.073  31.590   1.416
86257W        W54631  35.094  19.693  14.896
86258W        W54632   3.919  17.720  14.915
86259W        W54633  27.026  21.704  14.772
86260W        W54634  40.942  43.849   2.267
86261W        W54635  35.417  11.149   0.256
86262W        W54636  40.800  34.552   1.346
86263W        W54637  18.672  39.053  11.914
86264W        W54638  28.538   1.774  11.086
86265W        W54639  27.166  44.001  12.509
86266W        W54640  30.586  23.158  12.968
86267W        W54641   8.224   3.461  11.935
86268W        W54642  44.982  36.852  14.862
86269W        W54643  26.006   6.732   1.402
86270W        W54644  31.111  37.901   4.653
86271W        W54645  28.534  15.731   4.192
86272W        W54646  20.691  14.672  13.343
86273W        W54647  18.609   7.397   0.870
86274W        W54648  28.577  22.725   4.290
86275W        W54649  41.880  28.078  14.767
86276W        W54650  28.157   2.462   3.201
86277W        W54651  20.194  17.220  14.848
86278W        W54652  10.383  12.675  11.479
86279W        W54653  20.740  43.508   4.744
86280W        W54654  16.122  32.974   4.649
86281W        W54655  32.136  32.142  14.329
86282W        W54656   8.164   4.350   2.409
86283W        W54657   5.237  14.203   3.383
86284W        W54658  36.011  10.735   4.822
86285W        W54659  42.890  27.998   4.195
86286W        W54660   9.175  23.612  10.899
86287W        W54661  29.614  34.057   1.427
86288W        W54662  40.403  24.115   3.152
86289W        W54663  16.262   9.158  14.781
86290W        W54664  35.415  19.194   2.271
86291W        W54665  23.522  11.295   1.895
86292W        W54666   7.291  34.911  13.413
86293W        W54667  28.946  41.971  10.509
86294W        W54668   0.935   2.882  12.358
86295W        W54669  37.443  12.668   1.273
86296W        W54670  36.078   5.747   1.385
86297W        W54671  32.506  27.060  11.519
86298W        W54672  35.981  13.336  11.391
86299W        W54673  33.387  36.382   0.810
86300W        W54674  17.186  35.423   2.735
86301W        W54675  40.877  36.989  14.361
86302W        W54676  41.805  35.531  13.548
86303W        W54677  17.691   6.732  13.465
86304W        W54678  10.361   8.381   4.634
86305W        W54679  25.193  13.116  13.821
86306W        W54680  33.512  37.506   2.192
86307W        W54681  18.185  38.377  14.493
86308W        W54682  29.124  23.038  11.381
86309W        W54683   2.791   8.808  13.488
86310W        W54684  18.137   1.282  12.916
86311W        W54685  15.325  36.385   2.825
86312W        W54686  31.466   8.736   1.736
86313W        W54687  28.951  38.846   1.444
86314W        W54688  12.263  25.160   0.269
86315W        W54689  14.832  36.970  11.887
86316W        W54690  17.132   8.853  11.046
86317W        W54691  38.957   4.217  11.433
86318W        W54692   4.411  42.011  14.891
86319W        W54693  21.197  32.442   0.820
86320W        W54694   8.834  26.031  14.319
86321W        W54695  30.489  43.994  12.426
86322W        W54696  28.097   5.313  14.012
86323W        W54697  37.006   5.824   3.643
86324W        W54698   5.322  18.655  10.080
86325W        W54699  32.961  11.668  10.407
86326W        W54700  14.711   7.729  14.385
86327W        W54701  23.081  24.565  12.495
86328W        W54702  35.386  25.601   0.907
86329W        W54703   5.751  14.127   1.694
86330W        W54704   2.298  37.519   4.815
86331W        W54705   7.826  22.654  11.462
86332W        W54706  43.476   9.698  12.987
86333W        W54707   6.720   5.854   1.257
86334W        W54708   3.763  27.535   3.798
86335W        W54709  39.427  26.614   4.735
86336W        W54710  33.413   4.856  14.381
86337W        W54711  34.611  12.746   1.351
86338W        W54712  15.267  24.565   2.412
86339W        W54713  35.042  32.082  12.476
86340W        W54714  24.647  44.370   4.620
86341W        W54715  38.966  28.487   0.413
86342W        W54716  19.749  27.494  11.122
86343W        W54717  13.239  24.573  10.559
86344W        W54718  41.424  17.280   2.692
86345W        W54719  34.563  10.362  11.596
86346W        W54720  17.765  25.216   1.871
86347W        W54721  38.533   1.838  13.468
86348W        W54722  38.821   5.931   1.744
86349W        W54723  13.843   5.338  13.027
86350W        W54724  19.696   1.795   1.909
86351W        W54725  37.888   3.739  11.954
86352W        W54726   7.900  24.534  12.876
86353W        W54727  25.162  36.428  14.002
86354W        W54728   8.731   2.906   5.741
86355W        W54729   8.765  23.216  14.449
86356W        W54730  39.881   7.283   2.348
86357W        W54731  41.036  31.489  13.428
86358W        W54732  10.156  27.633   0.949
86359W        W54733  43.771  36.905   3.320
86360W        W54734  19.046  31.433   2.293
86361W        W54735   0.764  21.534  13.356
86362W        W54736  38.956  32.472   0.432
86363W        W54737  11.292  20.260  10.568
86364W        W54738   3.280  36.031   3.275
86365W        W54739  17.582  33.380   0.298
86366W        W54740  43.461  22.201   3.810
86367W        W54741  17.556  25.595   3.383
86368W        W54742  12.329  20.679   3.778
86369W        W54743   7.778  36.586   3.269
86370W        W54744  34.419  24.612   4.713
86371W        W54745   3.787   5.203   2.738
86372W        W54746   5.411  27.613  14.837
86373W        W54747  18.100  25.195   4.664
86374W        W54748  11.760  14.604  12.366
86375W        W54749  34.096  11.174  12.025
86376W        W54750  23.215   7.902   4.705
86377W        W54751  19.716  13.620  11.930
86378W        W54752  35.419  21.512  14.008
86379W        W54753  31.913  39.999  14.761
86380W        W54754  32.113  21.073   0.869
86381W        W54755   3.937   6.913  12.497
86382W        W54756  41.482   8.354  11.603
86383W        W54757   6.288  12.326  13.500
86384W        W54758  40.914  37.372   1.774
86385W        W54759  20.130  39.463   5.196
86386W        W54760  31.606  13.737  11.428
86387W        W54761  33.388  40.361   0.338
86388W        W54762  40.355  31.427  11.081
86389W        W54763   1.973  31.939  13.517
86390W        W54764  43.839  11.326   4.263
86391W        W54765  16.597  12.334   2.286
86392W        W54766  43.002  14.691  12.089
86393W        W54767   9.348  35.390  12.091
86394W        W54768   0.956  14.264  13.515
86395W        W54769  14.614  39.834  11.602
86396W        W54770  18.695  40.416  12.568
86397W        W54771  16.106   1.404  12.366
86398W        W54772  19.263  42.426  11.081
86399W        W54773  13.764  23.189  14.487
86400W        W54774   7.907  21.115   0.948
86401W        W54775  35.504  34.082  10.590
86402W        W54776  10.873  10.234  13.883
86403W        W54777  43.456   7.723   1.801
86404W        W54778   0.465  28.120   3.763
86405W        W54779  22.611   5.772  12.568
86406W        W54780   2.247  31.993  13.867
86407W        W54781   9.240  29.436   2.844
86408W        W54782  32.084  30.092  14.023
86409W        W54783  24.211   9.313  13.849
86410W        W54784  27.126  30.942  12.506
86411W        W54785   1.848  16.132  14.368
86412W        W54786  12.631  17.797   4.165
86413W        W54787  24.551   6.424  14.925
86414W        W54788  11.212  43.309   0.253
86415W        W54789  24.500  18.752   3.827
86416W        W54790  44.934  25.990   0.400
86417W        W54791   4.777  16.083  13.414
86418W        W54792  18.666  32.565  13.490
86419W        W54793  38.561  22.730  11.386
86420W        W54794  22.739  41.471  10.970
86421W        W54795   7.725  19.650   5.164
86422W        W54796  15.296  40.442   0.940
86423W        W54797  31.488  27.132   0.938
86424W        W54798  29.957  16.697  10.968
86425W        W54799  26.671  18.252   0.454
86426W        W54800  35.902  19.217  10.476
86427W        W54801   9.250  30.505   1.872
86428W        W54802   4.928  36.438  13.339
86429W        W54803  42.865  10.183  13.913
86430W        W54804   7.286  19.539  14.325
86431W        W54805  16.188  11.760   4.148
86432W        W54806   3.321  26.625  13.395
86433W        W54807  11.227  28.638   1.333
86434W        W54808   4.920   7.239   4.324
86435W        W54809  38.948  21.039  12.368
86436W        W54810  25.179  13.642   2.290
86437W        W54811  35.393  14.293  14.317
86438W        W54812  28.141  27.001  10.550
86439W        W54813  13.750  30.021   3.359
86440W        W54814  32.958  10.647  14.504
86441W        W54815  40.008   6.832  12.903
86442W        W54816  31.600   5.385   3.363
86443W        W54817  34.045  38.338   4.630
86444W        W54818  28.939   4.849  11.121
86445W        W54819  20.634  27.582  13.885
86446W        W54820  44.294  10.346   3.153
86447W        W54821  13.263  42.401   3.676
86448W        W54822   3.318  34.579   3.183
86449W        W54823  37.968  11.322  13.793
86450W        W54824  42.915  26.014  11.485
86451W        W54825  21.228  22.109   1.887
86452W        W54826  22.025  15.712   9.943
86453W        W54827  38.393  21.159   3.674
86454W        W54828  34.604  29.616   4.190
86455W        W54829  32.007  15.824   3.747
86456W        W54830   5.800  35.069   0.826
86457W        W54831  24.685  30.655   2.680
86458W        W54832  14.732  35.597   1.798
86459W        W54833  23.599  24.173   2.386
86460W        W54834  44.359  44.990  11.035
86461W        W54835  15.088   5.387  11.445
86462W        W54836  33.448  38.009   4.758
86463W        W54837   1.753   0.334   1.280
86464W        W54838  20.736  31.428  10.892
86465W        W54839  43.325  39.442  14.027
86466W        W54840  30.161   5.815  10.622
86467W        W54841   0.282  42.281   2.360
86468W        W54842  25.507   8.362  13.509
86469W        W54843  37.873   1.464  12.043
86470W        W54844  34.935  36.976  13.041
86471W        W54845  15.087  39.978  12.451
86472W        W54846  33.057  36.566   3.362
86473W        W54847  19.777  44.459   2.255
86474W        W54848  11.194   6.222  14.988
86475W        W54849   1.426  43.922   2.763
86476W        W54850  20.146   3.235   4.233
86477W        W54851  27.550  19.661   0.846
86478W        W54852  25.121  30.465   3.227
86479W        W54853  16.733  27.190   0.768
86480W        W54854  23.549  18.280  14.470
86481W        W54855  22.582   4.712  12.573
86482W        W54856  30.646  10.651   3.164
86483W        W54857   9.334  13.795   0.336
86484W        W54858  14.275  13.846   2.403
86485W        W54859  33.477   7.341   0.799
86486W        W54860   4.725   7.292  11.531
86487W        W54861  19.043  43.863  13.432
86488W        W54862   8.890  15.657   4.217
86489W        W54863  11.660  40.028   0.322
86490W        W54864  40.882   8.405   4.123
86491W        W54865  22.028  21.201   3.281
86492W        W54866  19.099  29.935   2.213
86493W        W54867  18.278  19.738  10.510
86494W        W54868   3.811  39.460   2.317
86495W        W54869   5.875  26.105   2.314
86496W        W54870  12.749  29.004   3.773
86497W        W54871  41.414  18.157   1.902
86498W        W54872  37.384  12.663   4.643
86499W        W54873  24.495  43.863   2.734
86500W        W54874   6.749  35.360   4.700
86501W        W54875  18.594  19.135  14.342
86502W        W54876   3.392  36.934   4.124
86503W        W54877  32.520   2.769  10.536
86504W        W54878  37.954  34.447  14.399
86505W        W54879  20.664  26.624  11.480
86506W        W54880  23.189  28.624  12.376
86507W        W54881  38.517  25.216  11.023
86508W        W54882  40.901  39.397   2.730
86509W        W54883  43.019   1.444   2.831
86510W        W54884  15.640  28.933   0.257
86511W        W54885   3.408  42.883  11.966
86512W        W54886  26.676  22.701   0.857
86513W        W54887  15.131  16.103  14.457
86514W        W54888   2.333  15.161  10.442
86515W        W54889  36.842  21.532  10.424
86516W        W54890  28.035  23.650  10.572
86517W        W54891  41.036  38.353   0.276
86518W        W54892  37.509  10.283   0.435
86519W        W54893   6.213  21.029  11.088
86520W        W54894  18.789  24.044  13.467
86521W        W54895   8.693   4.362   5.121
86522W        W54896  36.387   2.780  14.402
86523W        W54897   7.295  21.194  13.945
86524W        W54898   4.287  21.733   0.750
86525W        W54899  40.913  18.094  13.883
86526W        W54900   8.882   8.870   4.350
86527W        W54901  30.507  26.487  12.392
86528W        W54902  35.462  32.098  14.363
86529W        W54903  13.810  34.983  11.371
86530W        W54904  30.032  14.269   0.390
86531W        W54905   2.791   7.252   1.342
86532W        W54906  13.223  32.133   5.315
86533W        W54907   8.331  34.994   0.339
86534W        W54908  41.977   1.945  12.473
86535W        W54909  21.027   5.361  12.891
86536W        W54910  37.493  16.173  14.496
86537W        W54911  26.984  11.708  12.445
86538W        W54912  33.040   2.901  12.021
86539W        W54913  12.634  44.918  11.092
86540W        W54914  44.836   2.325   4.214
86541W        W54915   7.310  11.342   2.739
86542W        W54916  10.370  37.412   2.823
86543W        W54917   6.280   7.347  11.074
86544W        W54918  29.088  20.129  12.081
86545W        W54919  12.312   7.771   0.823
86546W        W54920  44.977  19.671   1.389
86547W        W54921  37.947  17.666   0.459
86548W        W54922  27.624  38.506   4.247
86549W        W54923  23.082  29.439   3.224
86550W        W54924  39.020  31.532  12.350
86551W        W54925  13.164  20.226   0.772
86552W        W54926  32.456  24.649   3.733
86553W        W54927  22.534  12.138  12.022
86554W        W54928  33.609  22.250   1.837
86555W        W54929  27.639   2.826   1.867
86556W        W54930  12.848  25.972   2.365
86557W        W54931  28.185  31.480   0.879
86558W        W54932  31.919  23.714  11.857
86559W        W54933   1.262  31.548   1.925
86560W        W54934  37.937  15.090  14.022
86561W        W54935  27.186  23.534  12.979
86562W        W54936  24.098  11.835  12.038
86563W        W54937   5.407  38.406  12.484
86564W        W54938   6.682   4.268   4.687
86565W        W54939   6.893   7.341  13.800
86566W        W54940  29.074  18.746  14.312
86567W        W54941  41.897  28.668   2.865
86568W        W54942  38.411  20.118  14.021
86569W        W54943  20.611   8.379   0.286
86570W        W54944  16.311  36.593   4.637
86571W        W54945  16.172   6.337  14.012
86572W        W54946  40.413  34.566  13.942
86573W        W54947  17.679  18.777  11.879
86574W        W54948   1.810  10.635   1.424
86575W        W54949   3.301  10.291  13.435
86576W        W54950   1.868  30.147  11.918
86577W        W54951  23.649  38.821   2.381
86578W        W54952   3.722  36.994  14.876
86579W        W54953  22.503   9.161   4.801
86580W        W54954   1.361  44.360  11.528
86581W        W54955  26.147   5.818  12.537
86582W        W54956  25.100  18.066  11.937
86583W        W54957  13.219  32.543   3.649
86584W        W54958   4.434   7.177   4.611
86585W        W54959  44.495  19.098  12.892
86586W        W54960  19.603   5.251   4.173
86587W        W54961  13.685  36.093   0.811
86588W        W54962  25.973  18.626   1.931
86589W        W54963   1.910  16.281   3.386
86590W        W54964  44.888  19.108   3.184
86591W        W54965  24.602  23.172   0.254
86592W        W54966   1.413  39.054   3.700
86593W        W54967  44.932  28.047   1.720
86594W        W54968  14.273  38.906  13.520
86595W        W54969  44.815  30.562   2.715
86596W        W54970   4.293   7.771  13.454
86597W        W54971   4.242   2.457  14.880
86598W        W54972  33.908  36.585   0.461
86599W        W54973  15.253   8.798  13.951
86600W        W54974   6.306   5.816  11.863
86601W        W54975   2.823  28.141  11.506
86602W        W54976  29.946   3.770   4.665
86603W        W54977  20.223  29.944  12.082
86604W        W54978  29.933  41.028   2.783
86605W        W54979  34.539  42.489  14.361
86606W        W54980  15.685  32.075  14.406
86607W        W54981  19.153  27.020  14.961
86608W        W54982  32.942  20.270   2.875
86609W        W54983  40.475  41.990  11.555
86610W        W54984  42.821  25.672  13.336
86611W        W54985  18.660   5.235  10.479
86612W        W54986  41.028  19.174   3.287
86613W        W54987  36.974  20.196   0.732
86614W        W54988  15.601   9.768   3.384
86615W        W54989  34.494  31.559   4.831
86616W        W54990  35.005  36.588  11.046
86617W        W54991  26.545  39.869  14.947
86618W        W54992  40.339  34.418  12.350
86619W        W54993  40.372   7.823   5.273
86620W        W54994  22.169  27.031   4.608
86621W        W54995  30.504  32.993   3.841
86622W        W54996  32.971  27.120   4.789
86623W        W54997  25.970  12.119  13.532
86624W        W54998  31.429  12.837  11.995
86625W        W54999   0.351  22.714   2.414
86626W        W55000  32.005  29.983  12.569
86627W        W55001  22.141  43.828  11.033
86628W        W55002  31.561  35.978   2.900
86629W        W55003  35.503  22.735  13.914
86630W        W55004  19.087  35.491   3.654
86631W        W55005  25.472  33.920   2.405
86632W        W55006  17.276  29.635   4.779
86633W        W55007  26.522   7.878   4.245
86634W        W55008  32.916  38.526   4.283
86635W        W55009  40.356  39.476  13.933
86636W        W55010   6.281  35.042  14.295
86637W        W55011   3.392   3.865   3.162
86638W        W55012  12.776  39.857   2.411
86639W        W55013   5.740  31.626  13.502
86640W        W55014  28.160  26.136  13.368
86641W        W55015  24.695   6.786  12.465
86642W        W55016  25.525   9.336   0.254
86643W        W55017  16.315  39.865  13.420
86644W        W55018  11.325  10.668   2.291
86645W        W55019  26.464  34.541   4.128
86646W        W55020  13.111   0.744   4.611
86647W        W55021  27.465  10.259   3.634
86648W        W55022   3.940  10.876   3.793
86649W        W55023  43.872  13.152   4.767
86650W        W55024  20.096  41.841  14.884
86651W        W55025  38.828   5.328   1.338
86652W        W55026  37.069  31.577   4.195
86653W        W55027   1.844  27.644  11.479
86654W        W55028   7.246  42.016  13.984
86655W        W55029  36.497  14.253   3.314
86656W        W55030  30.590  25.477  13.332
86657W        W55031   5.825  40.483   4.598
86658W        W55032  31.469  17.613  13.057
86659W        W55033  38.452  26.154  12.433
86660W        W55034   1.456  38.855  12.970
86661W        W55035  33.903   0.863   0.857
86662W        W55036  39.419  25.965  11.956
86663W        W55037  40.326  42.394  14.763
86664W        W55038  26.972  44.885  10.523
86665W        W55039  26.046  17.605   9.552
86666W        W55040  36.017  11.742   0.921
86667W        W55041  33.983  11.198  14.944
86668W        W55042  31.431  25.495  12.507
86669W        W55043   8.248  43.322   4.822
86670W        W55044  12.743  42.492   1.394
86671W        W55045   5.812   3.856   5.287
86672W        W55046  12.755  24.710   2.709
86673W        W55047  17.778  38.870  10.020
86674W        W55048  37.530  12.169   2.195
86675W        W55049   4.864  14.171   2.279
86676W        W55050  38.839  15.263   4.186
86677W        W55051  39.019  18.240  10.075
86678W        W55052   9.161  15.583   3.650
86679W        W55053   3.297  32.974   2.189
86680W        W55054  36.591  10.174   4.696
86681W        W55055  27.635  35.852  14.952
86682W        W55056   9.870  41.296   0.347
86683W        W55057   0.453  23.225   4.306
86684W        W55058  14.217  19.670   3.826
86685W        W55059  10.668  11.821   0.444
86686W        W55060  26.006   5.251  13.899
86687W        W55061  32.611  16.729   4.628
86688W        W55062   4.338  18.722  11.895
86689W        W55063  25.696   0.877   3.781
86690W        W55064  19.704  28.494   1.230
86691W        W55065   2.950  35.589  14.855
86692W        W55066  29.056  43.412  14.765
86693W        W55067  33.596  28.566  12.067
86694W        W55068  34.087  41.400   4.243
86695W        W55069  29.568  44.966  13.986
86696W        W55070  39.834  16.237  14.922
86697W        W55071  11.818  38.941  14.765
86698W        W55072  30.124  23.574  13.307
86699W        W55073   0.339  25.685  11.969
86700W        W55074  30.916  25.066   5.294
86701W        W55075   0.370   1.335  10.520
86702W        W55076  16.708  16.152  14.316
86703W        W55077  28.042  20.217   3.805
86704W        W55078   6.292  17.768  12.365
86705W        W55079   0.445  12.768  12.341
86706W        W55080  34.080   5.687   0.791
86707W        W55081  39.536  18.228  11.861
86708W        W55082  16.135  10.783   0.854
86709W        W55083   4.224  16.685  11.023
86710W        W55084  25.000   0.812   1.856
86711W        W55085   6.794  32.070   3.335
86712W        W55086   7.328   4.273   0.803
86713W        W55087  26.663   3.851   5.214
86714W        W55088  43.493  30.144   2.223
86715W        W55089  21.681  36.527   3.740
86716W        W55090  24.623  19.622   1.842
86717W        W55091  24.575  33.541  12.381
86718W        W55092  43.838  29.044  11.015
86719W        W55093   9.155   8.271   3.355
86720W        W55094  22.504   4.397   0.430
86721W        W55095  14.283  14.835   1.250
86722W        W55096   8.783  29.462   4.612
86723W        W55097  41.786  16.764  13.012
86724W        W55098  20.168  36.374  12.578
86725W        W55099  32.079  20.032  10.984
86726W        W55100   9.389  33.589   2.316
86727W        W55101  11.788  41.474  14.858
86728W        W55102  36.873   2.725  12.996
86729W        W55103   9.177   2.916  11.612
86730W        W55104  43.990  15.685  14.965
86731W        W55105  38.551  23.718   2.757
86732W        W55106   5.802  40.541  13.872
86733W        W55107  27.071  18.626   2.306
86734W        W55108  17.769   3.306   2.294
86735W        W55109   1.467   8.793  11.385
86736W        W55110  22.656   8.900  12.077
86737W        W55111  21.211   4.380  12.030
86738W        W55112  10.699  38.944   0.402
86739W        W55113   7.339  38.517   0.322
86740W        W55114  27.193  35.431   0.853
86741W        W55115  26.182   1.291   3.294
86742W        W55116  41.406  39.504   4.144
86743W        W55117  41.386   0.254   1.728
86744W        W55118   8.273   6.195  14.394
86745W        W55119   1.419  28.536   4.299
86746W        W55120  19.121  13.263  12.829
86747W        W55121  22.119  36.949   1.382
86748W        W55122  39.560  26.980   4.831
86749W        W55123   6.900  28.566  13.482
86750W        W55124   5.730   6.760  13.845
86751W        W55125  30.596   6.730  13.365
86752W        W55126  19.058  30.488  14.983
86753W        W55127  37.934  13.104  13.993
86754W        W55128   2.953   2.379  10.425
86755W        W55129  17.086  37.486  13.006
86756W        W55130   4.854  37.558  11.432
86757W        W55131  33.535  34.549  11.001
86758W        W55132  38.382  37.458  10.485
86759W        W55133  17.180  34.464   3.820
86760W        W55134  12.136  36.540  14.409
86761W        W55135  41.842  26.702   3.710
86762W        W55136  41.804  20.096  10.480
86763W        W55137  36.096  35.901   1.439
86764W        W55138  42.443  44.492  11.021
86765W        W55139  15.306  26.492  11.554
86766W        W55140  20.110   1.298  12.916
86767W        W55141   5.412  40.350   1.387
86768W        W55142   3.907  43.373   4.171
86769W        W55143  19.086  13.764  13.425
86770W        W55144  30.577   0.927   1.296
86771W        W55145  36.427  20.713  13.497
86772W        W55146  15.223  12.219  11.605
86773W        W55147   9.814  31.961  11.396
86774W        W55148   5.418   0.377  12.483
86775W        W55149  23.710  19.561  14.400
86776W        W55150  35.974  19.592  13.054
86777W        W55151  43.509  41.940   3.222
86778W        W55152  11.319  15.261  12.091
86779W        W55153  38.367  43.355   4.806
86780W        W55154  19.592  39.433  11.916
86781W        W55155  40.979  26.194  11.027
86782W        W55156  29.995  20.605   1.251
86783W        W55157  28.590   6.317   1.845
86784W        W55158  20.647  11.866  12.065
86785W        W55159  14.267  12.769   2.732
86786W        W55160  25.200  39.028   5.099
86787W        W55161  13.111  19.096  11.869
86788W        W55162  22.660  12.192  12.456
86789W        W55163   8.856   0.293  11.522
86790W        W55164  38.067  15.219  12.922
86791W        W55165   1.374  15.761   0.413
86792W        W55166  27.113  20.565   4.689
86793W        W55167  32.913  17.102  14.423
86794W        W55168   2.823   5.207   1.283
86795W        W55169  15.166  44.489  14.469
86796W        W55170  37.404  26.965  13.528
86797W        W55171  19.060  36.973   3.168
86798W        W55172  44.373  29.041   0.245
86799W        W55173   6.413   3.268   0.867
86800W        W55174  30.967   3.279  14.780
86801W        W55175  37.568  42.953  12.515
86802W        W55176  16.603  36.456   0.375
86803W        W55177  19.593   2.732   1.810
86804W        W55178  33.416  15.193   1.374
86805W        W55179  26.622  22.038  10.416
86806W        W55180  21.544  18.631   4.716
86807W        W55181  30.581  44.826  14.365
86808W        W55182  43.772  21.064  10.452
86809W        W55183   7.382   5.196  12.868
86810W        W55184  35.073   3.785   4.636
86811W        W55185  42.294  17.272  14.906
86812W        W55186   1.898  13.695   3.266
86813W        W55187  41.484   8.848  13.327
86814W        W55188  26.975  33.394  13.800
86815W        W55189  43.475   1.790  12.414
86816W        W55190  21.634   9.187  14.024
86817W        W55191  12.737  43.433  13.818
86818W        W55192  33.064  27.031  13.407
86819W        W55193   8.834  33.113   0.469
86820W        W55194  10.753  10.249  10.458
86821W        W55195  44.418  38.935   3.295
86822W        W55196  13.698  21.133   3.364
86823W        W55197  36.427  32.518  10.948
86824W        W55198  29.659   6.353  10.955
86825W        W55199  28.479   2.261   1.369
86826W        W55200  44.501  40.433   2.822
86827W        W55201  10.183  38.563   0.939
86828W        W55202  35.425  31.441  14.501
86829W        W55203  14.742  43.839   0.944
86830W        W55204  32.489  27.512  13.974
86831W        W55205   3.923  10.279  10.935
86832W        W55206  24.193  24.146   5.169
86833W        W55207   2.273  36.984   2.287
86834W        W55208  40.859  28.115   1.250
86835W        W55209  38.538  24.614  10.621
86836W        W55210  40.502   0.357  12.502
86837W        W55211  28.444  39.050  10.126
86838W        W55212  11.242  34.931  14.945
86839W        W55213  33.015   3.819  10.409
86840W        W55214  24.038  33.404   2.758
86841W        W55215  25.155  15.767   1.323
86842W        W55216  35.604  37.037  14.436
86843W        W55217  30.495  43.284  10.565
86844W        W55218   7.774  25.534  14.343
86845W        W55219  33.976   6.393  11.525
86846W        W55220  16.270  35.927  11.062
86847W        W55221  19.049  10.369   1.278
86848W        W55222  42.398  15.745  10.572
86849W        W55223  12.231  25.962  13.407
86850W        W55224   1.936  23.692  12.403
86851W        W55225  15.821  16.777  11.002
86852W        W55226  35.531   3.425   5.226
86853W        W55227  26.516  30.471  10.457
86854W        W55228  21.702  34.587   2.316
86855W        W55229   8.306  23.722  14.877
86856W        W55230  43.375   5.861  13.435
86857W        W55231  34.595  13.661   4.252
86858W        W55232  19.076  26.997  10.439
86859W        W55233  25.182  37.447  11.915
86860W        W55234  34.576  39.375   2.197
86861W        W55235  18.761   1.743  13.380
86862W        W55236  14.199  22.147   3.641
86863W        W55237  32.394  15.300  14.308
86864W        W55238  40.442  26.655  12.913
86865W        W55239  20.674  39.465  13.322
86866W        W55240  25.120  40.819   1.339
86867W        W55241  38.827   8.300  10.585
86868W        W55242  40.954  13.122  12.916
86869W        W55243  27.527  36.488   4.326
86870W        W55244   4.832  20.119   0.780
86871W        W55245  36.548  16.258   1.773
86872W        W55246  29.174  10.743  10.405
86873W        W55247  20.676  18.090   1.338
86874W        W55248  17.710  31.469  11.613
86875W        W55249  24.504  30.448  13.027
86876W        W55250  32.418  13.735   1.903
86877W        W55251  21.161  30.533   2.702
86878W        W55252  19.758  31.940   1.912
86879W        W55253  23.697  43.998   0.759
86880W        W55254   2.254  41.453   1.232
86881W        W55255  20.752  29.015  12.034
86882W        W55256  34.971   2.728  11.974
86883W        W55257  34.522  19.590   0.925
86884W        W55258   6.874  44.789  14.457
86885W        W55259   1.470  12.708   3.713
86886W        W55260   2.436  20.679  14.324
86887W        W55261  37.071   5.336   2.181
86888W        W55262  12.843  44.346  10.137
86889W        W55263  31.511  17.221  12.059
86890W        W55264  23.674  33.885  13.799
86891W        W55265   8.335  31.532  13.510
86892W        W55266  17.739  37.003   1.857
86893W        W55267  21.539   1.939   1.393
86894W        W55268  30.497   7.406   3.335
86895W        W55269  44.378  16.201   4.666
86896W        W55270  27.486  25.000  11.029
86897W        W55271  26.039  24.975   2.205
86898W        W55272  32.071   7.670  11.106
86899W        W55273  13.608   6.777  12.006
86900W        W55274   1.341   0.775   1.302
86901W        W55275  38.436  26.122   1.720
86902W        W55276  32.428   7.274  11.946
86903W        W55277  43.779  15.304  12.023
86904W        W55278  12.668  41.961  11.500
86905W        W55279   3.927  18.733   4.625
86906W        W55280  19.219  21.643   1.806
86907W        W55281  34.930  42.032  10.518
86908W        W55282  17.113  11.286  14.346
86909W        W55283  36.361  18.595  13.311
86910W        W55284  20.127  29.445  14.368
86911W        W55285  42.399  24.038   1.225
86912W        W55286  36.006  44.855   0.291
86913W        W55287  33.516   6.324  14.873
86914W        W55288  23.644  36.353   2.245
86915W        W55289  39.900  39.883   2.206
86916W        W55290  43.941   4.330   4.347
86917W        W55291  26.615   4.761   1.893
86918W        W55292  15.158  19.157   1.773
86919W        W55293  39.526  24.563  10.433
86920W        W55294  26.456   4.749  11.024
86921W        W55295  29.958  22.026  13.882
86922W        W55296  21.206  31.031   1.850
86923W        W55297   8.162   9.251  12.904
86924W        W55298   7.234  11.823  12.426
86925W        W55299   0.412  15.805  13.368
86926W        W55300   6.354  42.928  11.556
86927W        W55301  38.996  29.096   2.215
86928W        W55302  21.565  33.403   3.843
86929W        W55303  21.576  11.322   1.842
86930W        W55304  15.278  10.215  11.477
86931W        W55305  20.649   0.836   1.765
86932W        W55306  44.323  33.439  11.478
86933W        W55307  44.797  20.176  11.525
86934W        W55308  28.591  14.237   0.885
86935W        W55309  23.698  35.393  14.791
86936W        W55310  13.660  25.064   1.873
86937W        W55311  27.675   0.765   0.773
86938W        W55312  28.557  12.285  10.965
86939W        W55313  12.360  35.492  11.053
86940W        W55314  30.107  12.216   0.342
86941W        W55315  14.271  13.164  11.438
86942W        W55316  34.491   6.409  11.957
86943W        W55317  44.897  18.549   2.364
86944W        W55318  44.999  30.481  12.918
86945W        W55319  21.111  42.914  13.983
86946W        W55320  15.729  11.695  11.910
86947W        W55321  43.798   6.899  11.967
86948W        W55322   9.202  18.154  14.446
86949W        W55323  16.186  43.890  13.057
86950W        W55324   3.805  17.636  12.965
86951W        W55325  11.656  22.116  10.080
86952W        W55326  28.656  15.241   1.382
86953W        W55327  32.455  32.968   4.182
86954W        W55328  27.533   9.387   1.886
86955W        W55329   7.274  39.525  13.336
86956W        W55330  29.115  27.005   0.861
86957W        W55331  20.241  17.131  12.460
86958W        W55332  16.205  44.788   4.131
86959W        W55333  13.732  33.560   4.776
86960W        W55334   4.893  24.046  12.374
86961W        W55335  23.138  18.667  10.608
86962W        W55336  17.688   9.376   2.834
86963W        W55337  39.404  41.525   0.814
86964W        W55338  34.606  29.581   1.770
86965W        W55339  25.468  28.051   2.230
86966W        W55340   1.327  38.057   3.267
86967W        W55341  24.709   1.309   0.729
86968W        W55342  37.517  36.064   3.834
86969W        W55343  12.303   3.297  12.453
86970W        W55344  28.496  29.079   3.278
86971W        W55345  14.673  33.947   2.663
86972W        W55346   3.899  12.784  14.922
86973W        W55347  29.048  40.342   2.670
86974W        W55348  43.967  22.682  12.022
86975W        W55349   8.829  40.348   3.868
86976W        W55350  30.456  18.164  11.499
86977W        W55351  35.972   7.791   3.267
86978W        W55352  27.993  25.612   1.863
86979W        W55353  26.646  42.866  12.556
86980W        W55354   7.247   2.260  13.035
86981W        W55355  16.623  30.098  10.985
86982W        W55356  30.079  34.085  14.307
86983W        W55357  42.364  37.572   2.286
86984W        W55358  40.373   0.904   5.195
86985W        W55359  24.153  26.519   2.309
86986W        W55360  29.135  28.155  14.368
86987W        W55361  17.720  34.977   1.733
86988W        W55362  44.475   3.775  12.435
86989W        W55363  28.066  24.079   1.820
86990W        W55364   7.208  41.375  11.877
86991W        W55365  12.156   3.764  13.358
86992W        W55366   7.221  43.470  14.513
86993W        W55367  15.176  16.203  11.482
86994W        W55368  34.946  40.380   3.259
86995W        W55369  43.515  33.036  12.449
86996W        W55370  12.761  22.031  13.872
86997W        W55371  29.644  13.829   0.337
86998W        W55372  35.388  41.998  12.967
86999W        W55373  16.748  36.374   2.688
87000W        W55374  40.497  23.721  10.161
87001W        W55375   4.840  31.067   0.355
87002W        W55376  34.014  40.930   1.309
87003W        W55377  37.493  44.976  14.853
87004W        W55378  14.694  43.364   2.671
87005W        W55379  42.996   7.369  14.952
87006W        W55380  10.784  41.386  11.023
87007W        W55381  36.522  32.589   4.817
87008W        W55382   1.902  14.182  13.046
87009W        W55383  10.789  31.933  11.375
87010W        W55384   4.377  27.614  12.367
87011W        W55385  41.330  19.683   2.723
87012W        W55386  36.548  32.574   2.391
87013W        W55387  31.611  41.890   4.811
87014W        W55388   3.840   2.374  11.070
87015W        W55389  13.211  24.718   0.805
87016W        W55390   8.242  36.563   4.200
87017W        W55391  30.550  29.119  14.870
87018W        W55392  15.302  25.624   3.868
87019W        W55393  40.010   1.390   0.833
87020W        W55394  36.927  20.033  10.455
87021W        W55395   5.401   5.239   3.849
87022W        W55396   5.420   4.733   2.817
87023W        W55397  29.524  35.024   3.177
87024W        W55398  18.060   8.245   1.885
87025W        W55399  31.451  25.110   0.374
87026W        W55400  44.464   8.258  10.592
87027W        W55401   2.353  26.058  13.967
87028W        W55402  44.824  33.418  13.823
87029W        W55403  21.112  41.536  11.578
87030W        W55404  30.623   0.972  11.042
87031W        W55405  31.554   3.907  13.876
87032W        W55406  22.077  23.676   0.271
87033W        W55407  15.614  33.568   1.243
87034W        W55408  34.414  40.966  13.341
87035W        W55409  34.529  14.601  11.907
87036W        W55410  11.676  10.814  13.049
87037W        W55411   6.245  29.496   1.754
87038W        W55412  11.650  32.103  11.122
87039W        W55413  24.492  38.989  13.496
87040W        W55414  42.483   6.248  13.521
87041W        W55415  16.312   9.323   0.965
87042W        W55416  39.887  42.285   3.229
87043W        W55417  12.799  40.038  11.034
87044W        W55418  14.211   9.882   0.803
87045W        W55419  19.239  26.199  10.899
87046W        W55420  19.184  21.083   0.285
87047W        W55421  29.049   5.328   3.683
87048W        W55422  28.145  42.027  12.474
87049W        W55423  16.756  29.922  14.384
87050W        W55424  16.694  13.167  10.936
87051W        W55425   5.781  41.431   4.185
87052W        W55426   8.168  13.845  14.494
87053W        W55427  15.811  29.479   4.352
87054W        W55428  41.802  32.543  12.890
87055W        W55429  23.084  39.874  13.842
87056W        W55430  42.337  11.277  14.942
87057W        W55431  35.953  34.959  11.395
87058W        W55432  20.169  35.379  13.857
87059W        W55433  13.201  11.667   0.466
87060W        W55434  27.558  44.494  13.524
87061W        W55435  12.221   9.698  13.916
87062W        W55436   6.815  10.784   1.254
87063W        W55437  24.583  42.435  11.877
87064W        W55438  36.875  37.458  11.977
87065W        W55439  36.044  12.118   1.865
87066W        W55440  24.576  28.536  12.462
87067W        W55441  29.038  39.035  11.858
87068W        W55442   8.680  42.829   0.867
87069W        W55443  15.129  43.005  14.912
87070W        W55444   2.826  14.698   2.232
87071W        W55445  37.029  22.023   2.280
87072W        W55446  13.749   4.403  10.582
87073W        W55447  29.051  35.975   2.247
87074W        W55448  22.209  34.431   1.865
87075W        W55449  39.330  38.046   3.643
87076W        W55450  44.854   4.908   0.380
87077W        W55451  12.708  19.777  13.959
87078W        W55452   5.383  41.379   0.447
87079W        W55453  39.318   3.738   0.933
87080W        W55454  23.193   9.780   4.130
87081W        W55455   4.406  38.932  13.496
87082W        W55456  23.675  16.185  14.958
87083W        W55457  19.742   2.932   4.606
87084W        W55458  27.685  15.653   4.783
87085W        W55459  35.980  43.331  10.629
87086W        W55460  34.990  10.738  12.984
87087W        W55461   8.686   1.939   1.699
87088W        W55462  43.992  39.861   3.193
87089W        W55463  19.552  20.097   5.233
87090W        W55464  22.146  35.094   1.798
87091W        W55465  27.953   2.307   0.287
87092W        W55466  11.195  17.701   3.346
87093W        W55467  21.642  28.081   2.220
87094W        W55468  16.265  14.737  10.526
87095W        W55469  34.083  25.663   2.292
87096W        W55470   8.234   1.390   0.251
87097W        W55471  41.476  11.761   1.894
87098W        W55472  30.001   3.249  14.947
87099W        W55473  11.626   6.409   4.709
87100W        W55474   2.401  24.483   0.280
87101W        W55475   8.333  16.663  14.969
87102W        W55476  40.048  11.132  12.496
87103W        W55477  36.852  25.118   1.743
87104W        W55478  27.185  27.585   3.788
87105W        W55479  44.824  30.535   0.372
87106W        W55480  34.601  24.663   4.223
87107W        W55481  28.631  19.074  13.994
87108W        W55482   4.220  15.177   2.217
87109W        W55483   3.272  12.839  13.393
87110W        W55484  11.710  19.267  13.321
87111W        W55485  24.196  28.938   5.654
87112W        W55486   8.210  24.064  12.036
87113W        W55487  11.224  23.564  13.506
87114W        W55488  34.434  27.964   3.254
87115W        W55489  16.753  25.580  12.937
87116W        W55490  41.900  31.922  10.126
87117W        W55491   3.253   1.417  11.855
87118W        W55492  20.172  21.743   3.361
87119W        W55493  23.019  36.542  11.983
87120W        W55494  15.696  43.854  14.940
87121W        W55495  36.426  34.586   2.722
87122W        W55496   6.802   1.242   1.916
87123W        W55497  14.240  21.028   2.232
87124W        W55498  15.228  11.234  14.377
87125W        W55499  24.159  34.983  14.302
87126W        W55500  36.526  22.159  11.603
87127W        W55501  24.084  32.964  13.344
87128W        W55502  40.917  19.537  13.002
87129W        W55503  37.337  16.750  12.364
87130W        W55504  17.658  23.114  14.428
87131W        W55505   5.705  42.283  11.939
87132W        W55506  12.283  27.539   1.426
87133W        W55507  16.580   0.298   2.298
87134W        W55508   1.431   3.349   0.896
87135W        W55509  31.098  26.018   0.787
87136W        W55510  23.533  36.978   2.681
87137W        W55511   3.334  30.468  11.421
87138W        W55512  24.493   3.235   3.810
87139W        W55513  17.599  21.614  13.364
87140W        W55514   8.739  19.136  13.468
87141W        W55515  12.810  13.666  13.373
87142W        W55516   7.865  14.789  13.428
87143W        W55517  24.998  15.311  13.363
87144W        W55518  14.808   8.774  13.038
87145W        W55519  43.006  32.079  10.940
87146W        W55520  29.097  43.462  13.036
87147W        W55521  26.580  43.469   3.232
87148W        W55522  16.188  35.064   2.765
87149W        W55523  10.197  31.989  10.434
87150W        W55524  43.891  43.367   4.716
87151W        W55525  33.437  29.061   1.925
87152W        W55526   2.792  14.759  10.894
87153W        W55527   0.250  27.965   2.780
87154W        W55528   4.407   6.825   2.668
87155W        W55529  22.670   7.767  14.013
87156W        W55530  37.840  43.819   3.245
87157W        W55531  10.866  44.418  13.924
87158W        W55532  35.877  22.614  11.901
87159W        W55533   8.677  15.098   1.248
87160W        W55534   2.278   5.287   3.146
87161W        W55535  10.212  21.692  14.406
87162W        W55536  35.546  33.103   4.779
87163W        W55537  20.244  17.785   2.806
87164W        W55538  28.442  14.757   1.427
87165W        W55539  20.663  37.339   0.878
87166W        W55540  12.297  27.104   1.226
87167W        W55541  33.920  17.281  13.871
87168W        W55542  15.732   6.390  12.974
87169W        W55543  37.964  30.097  14.809
87170W        W55544  39.974   7.708   2.843
87171W        W55545   8.247  15.106  14.010
87172W        W55546  28.450  43.438   0.416
87173W        W55547   6.264  24.534   3.852
87174W        W55548  15.597   4.735   4.782
87175W        W55549   8.279  32.045   1.232
87176W        W55550  20.525  41.850   4.212
87177W        W55551  22.207  37.349  14.326
87178W        W55552   9.783  24.641   0.413
87179W        W55553   1.970   4.370   4.642
87180W        W55554   7.855  40.830   1.880
87181W        W55555   6.240  37.500  12.536
87182W        W55556  44.359  12.327  11.007
87183W        W55557  36.911   5.214   4.744
87184W        W55558  28.447  40.867   0.471
87185W        W55559  33.029  40.374  11.958
87186W        W55560  14.652  13.705   0.398
87187W        W55561  23.651  24.170   0.276
87188W        W55562  14.746  24.509   0.395
87189W        W55563  38.427  26.159  10.413
87190W        W55564  13.623   1.432   1.896
87191W        W55565  18.722  19.276   3.770
87192W        W55566  21.044  37.505  12.513
87193W        W55567   7.873  39.042   0.935
87194W        W55568   5.412  37.457   4.820
87195W        W55569  43.272  14.317   1.789
87196W        W55570  29.554  27.666  12.571
87197W        W55571  11.173  20.230   4.712
87198W        W55572   2.280  27.124   3.249
87199W        W55573  18.731  43.802   1.294
87200W        W55574  10.166  37.522   9.985
87201W        W55575  21.053   1.238  14.809
87202W        W55576   5.747  40.814   4.130
87203W        W55577   5.297  20.072   0.337
87204W        W55578   9.649  39.907   2.209
87205W        W55579  24.038   0.976   0.299
87206W        W55580  25.627  33.932  13.545
87207W        W55581  38.549  20.128   3.303
87208W        W55582  17.596  26.014  13.517
87209W        W55583  10.735  12.240  12.449
87210W        W55584  31.118  38.534  10.536
87211W        W55585  18.065   9.334   4.691
87212W        W55586  18.151  32.563  13.047
87213W        W55587  17.759  28.526   2.742
87214W        W55588   1.854  21.511  13.336
87215W        W55589   7.783  12.835   2.382
87216W        W55590  30.917  11.343   4.347
87217W        W55591  40.388  26.480  10.893
87218W        W55592  34.939  38.944  12.897
87219W        W55593  39.551  34.546  13.448
87220W        W55594  40.812  12.855  11.596
87221W        W55595  30.134  37.375  13.533
87222W        W55596  42.830   3.792   4.767
87223W        W55597  12.189  26.017   1.258
87224W        W55598   8.161  34.875   4.772
87225W        W55599  24.185  16.738  13.528
87226W        W55600  29.451  24.026  13.020
87227W        W55601  24.075  21.046  12.077
87228W        W55602  16.671  11.373   3.272
87229W        W55603   7.256  16.181   4.201
87230W        W55604  11.815   0.929   2.185
87231W        W55605  10.190  20.138   9.963
87232W        W55606   2.948   8.355  11.960
87233W        W55607  18.231  39.373  13.315
87234W        W55608  40.498   6.870   2.799
87235W        W55609  34.031  34.911  11.978
87236W        W55610  38.497  37.866   2.342
87237W        W55611  15.218  28.160   0.349
87238W        W55612  12.692   4.735   3.191
87239W        W55613  31.427   5.412  11.987
87240W        W55614  15.119  24.611  11.962
87241W        W55615  43.891  43.876  10.521
87242W        W55616  14.666  29.668   4.691
87243W        W55617  26.613  31.959   2.253
87244W        W55618   5.323  31.460  11.523
87245W        W55619  26.677   1.374   4.827
87246W        W55620  31.511  42.978  11.406
87247W        W55621  40.837  25.670  14.031
87248W        W55622  15.760  17.175  11.945
87249W        W55623  12.209  25.084  12.864
87250W        W55624   7.809  41.403   0.960
87251W        W55625  40.481  21.536  10.596
87252W        W55626   8.173  17.716  12.550
87253W        W55627  23.600  23.206  11.911
87254W        W55628  25.203  12.665   1.224
87255W        W55629  24.521  10.874   4.629
87256W        W55630  18.663  25.493   2.877
87257W        W55631  23.522  28.060   0.409
87258W        W55632  15.658   3.309  10.464
87259W        W55633  38.519  36.885  12.440
87260W        W55634  33.438  29.613  13.018
87261W        W55635  13.188  36.981   0.790
87262W        W55636  22.539   3.936  12.976
87263W        W55637  44.867  35.089  14.992
87264W        W55638   7.772  10.212   4.830
87265W        W55639   7.402  36.583   3.220
87266W        W55640  20.585  32.608   0.455
87267W        W55641   5.740  31.630   2.869
87268W        W55642   3.236  23.179  11.576
87269W        W55643  19.632  42.460   2.693
87270W        W55644  29.655  24.168   3.766
87271W        W55645  43.312  39.414   3.154
87272W        W55646  31.908   5.406  13.493
87273W        W55647   9.717  39.538  12.085
87274W        W55648  14.690  11.696   3.320
87275W        W55649   9.357   9.873   3.830
87276W        W55650  12.356  29.920   0.921
87277W        W55651   9.366  42.894  13.423
87278W        W55652  30.585   2.289   4.320
87279W        W55653   8.851  25.096  11.504
87280W        W55654  34.965  33.608  11.905
87281W        W55655  35.058  14.272  13.006
87282W        W55656  22.608   2.406  14.334
87283W        W55657  15.084  28.966  13.944
87284W        W55658  11.720   5.803   4.185
87285W        W55659  25.587  17.714  13.962
87286W        W55660  23.013   0.331   0.780
87287W        W55661  38.822  25.710   3.659
87288W        W55662  26.596   3.229  12.077
87289W        W55663  33.582  32.417   3.784
87290W        W55664  34.037  19.662  14.933
87291W        W55665  26.616  40.323   0.732
87292W        W55666  16.595  10.284   5.141
87293W        W55667   1.443   9.150   2.801
87294W        W55668  23.151   6.323  12.481
87295W        W55669  40.516  21.705   4.268
87296W        W55670  26.601  20.226   4.706
87297W        W55671  31.024  34.605   1.822
87298W        W55672  43.936  43.270  13.894
87299W        W55673   0.934   7.284   5.284
87300W        W55674  14.146  14.193  12.876
87301W        W55675   9.783   4.776  12.918
87302W        W55676   5.777  10.190  11.877
87303W        W55677   4.788   3.380   9.960
87304W        W55678   0.489   0.972   1.710
87305W        W55679  26.674  34.000  10.431
87306W        W55680  28.037   5.890  11.484
87307W        W55681  22.047   0.744  14.840
87308W        W55682   3.836  10.350   0.314
87309W        W55683  40.336  33.005  14.924
87310W        W55684  32.911  11.337  14.880
87311W        W55685  20.122  27.529  10.980
87312W        W55686  15.735  30.654  10.593
87313W        W55687  16.617  39.020  13.975
87314W        W55688  41.411  11.755   0.379
87315W        W55689  25.651  38.983   2.670
87316W        W55690  31.906  43.938  13.922
87317W        W55691  39.017   6.740   5.081
87318W        W55692  44.415  32.917  10.599
87319W        W55693   4.774   7.671   4.230
87320W        W55694   6.873  30.646   4.339
87321W        W55695  15.740  27.598   0.294
87322W        W55696  21.543   0.869  11.975
87323W        W55697  10.249  15.273   0.741
87324W        W55698  36.579  26.538  12.877
87325W        W55699  28.551  20.690  11.870
87326W        W55700  31.442  17.801   3.803
87327W        W55701  12.323  23.614  13.993
87328W        W55702  26.021  41.005  11.435
87329W        W55703   0.344  38.357  12.396
87330W        W55704   9.775  21.602   4.275
87331W        W55705  18.752  11.826   3.640
87332W        W55706  43.408  18.052   2.827
87333W        W55707  34.993  12.327   4.269
87334W        W55708  21.540   4.257  14.785
87335W        W55709  16.273  11.641  13.940
87336W        W55710  27.685  24.644  13.930
87337W        W55711  33.394   0.954  10.561
87338W        W55712  11.302   5.909  10.411
87339W        W55713   9.245  28.644  13.487
87340W        W55714  35.578  30.938   2.181
87341W        W55715   1.256  18.761   3.374
87342W        W55716  28.680  40.469  12.469
87343W        W55717  31.933  43.880   1.320
87344W        W55718  26.488  34.498   1.412
87345W        W55719  44.826  10.810  12.390
87346W        W55720  39.416  13.833  11.384
87347W        W55721  35.913  34.382   4.205
87348W        W55722  40.523   9.216   5.294
87349W        W55723  30.604   1.794   2.303
87350W        W55724  22.573  10.280  14.368
87351W        W55725   6.291  40.805   2.403
87352W        W55726  23.092  34.507  12.535
87353W        W55727   6.866  31.029  12.442
87354W        W55728   6.683  42.493   2.703
87355W        W55729  36.348  16.286   2.692
87356W        W55730   3.272  21.190  13.497
87357W        W55731  33.591  44.758   1.743
87358W        W55732  33.059  40.445  11.576
87359W        W55733   4.330  24.625  10.550
87360W        W55734   3.333  33.533  14.426
87361W        W55735  11.145  33.616  13.055
87362W        W55736  32.495  21.606  13.426
87363W        W55737   4.818  37.954   0.290
87364W        W55738   9.713  13.295  14.338
87365W        W55739  11.733  43.336  14.828
87366W        W55740  38.005  40.502  11.595
87367W        W55741   6.831  15.164   0.884
87368W        W55742   4.889   2.447   2.306
87369W        W55743   2.400  29.561   3.863
87370W        W55744  26.998  34.895   1.393
87371W        W55745   5.810   0.951  12.565
87372W        W55746  35.404  13.177  13.964
87373W        W55747  26.559  41.823  10.496
87374W        W55748  43.907   3.277   0.349
87375W        W55749  41.496  18.659   0.322
87376W        W55750  13.615  24.973   2.798
87377W        W55751  12.721  25.991  13.321
87378W        W55752  42.013   0.939   4.834
87379W        W55753   5.239  19.576  10.910
87380W        W55754   3.898  25.596  12.029
87381W        W55755   6.765  26.101   1.442
87382W        W55756   2.800  36.563  10.991
87383W        W55757  21.684   0.794  10.978
87384W        W55758  21.536  44.442  11.972
87385W        W55759  29.530  25.542   0.459
87386W        W55760   3.732  14.675  13.418
87387W        W55761  36.896   1.887   2.764
87388W        W55762   1.430  36.878   4.773
87389W        W55763   0.400  36.054  10.409
87390W        W55764  29.588  20.537  11.411
87391W        W55765  10.144   2.776   2.298
87392W        W55766   5.767  11.348   4.317
87393W        W55767  11.842   1.824  12.880
87394W        W55768   5.435   1.472  12.912
87395W        W55769  20.659  38.004  14.312
87396W        W55770  17.193  14.714  10.149
87397W        W55771   0.802  11.225  13.806
87398W        W55772  22.618   3.869  14.017
87399W        W55773   4.875   5.400  11.519
87400W        W55774  10.863  15.287   0.342
87401W        W55775  19.779   1.237  11.917
87402W        W55776   7.894  43.018   0.867
87403W        W55777  12.274  37.956   1.370
87404W        W55778   0.782  17.762   0.798
87405W        W55779   0.464  44.776  14.282
87406W        W55780  34.001   7.676   1.334
87407W        W55781  10.297  31.934   2.896
87408W        W55782   3.861  20.099  14.417
87409W        W55783  39.957  16.656   0.746
87410W        W55784  16.073  30.142  13.044
87411W        W55785   9.813   8.857  12.421
87412W        W55786  22.126  33.995   2.229
87413W        W55787  35.859  41.818   0.906
87414W        W55788  29.529  40.529  13.459
87415W        W55789  35.367  36.925   3.154
87416W        W55790   2.917  29.076  11.925
87417W        W55791  44.347  40.985  14.379
87418W        W55792   2.855  20.207  11.915
87419W        W55793   9.651  42.412  12.826
87420W        W55794  35.101  28.097  12.871
87421W        W55795  24.019  40.493  12.491
87422W        W55796  21.141   2.965   1.873
87423W        W55797  13.802  17.064   0.925
87424W        W55798  41.928  37.549   4.711
87425W        W55799  26.587  16.195  11.569
87426W        W55800   5.698  15.119  13.822
87427W        W55801   0.437  33.042   0.874
87428W        W55802   1.390  20.216  11.950
87429W        W55803   5.725  34.009   2.218
87430W        W55804  35.039   8.402   1.277
87431W        W55805  41.010  30.937   0.389
87432W        W55806  16.776   9.731  13.004
87433W        W55807  38.550  14.771  13.323
87434W        W55808  36.052  29.584   3.381
87435W        W55809  31.012   1.461  11.919
87436W        W55810  36.857  38.472   3.700
87437W        W55811  10.835  40.919   1.808
87438W        W55812  40.812  22.148   4.266
87439W        W55813   7.689  36.377   4.170
87440W        W55814   5.853  19.111  14.813
87441W        W55815  37.031   3.724   0.922
87442W        W55816   6.244   0.299   1.751
87443W        W55817   6.255  16.625   1.212
87444W        W55818  15.819  21.637   3.284
87445W        W55819  38.498   2.453   4.754
87446W        W55820  35.038  27.972   0.889
87447W        W55821   8.895  34.085   4.308
87448W        W55822  43.940  19.115   1.423
87449W        W55823  18.060  44.428  11.498
87450W        W55824  13.805   6.409  11.400
87451W        W55825  29.126  30.920   2.275
87452W        W55826   3.865  37.043  14.454
87453W        W55827  18.196  19.589   1.312
87454W        W55828  40.810  13.233  13.820
87455W        W55829  40.839  12.830  14.481
87456W        W55830  37.490  27.671   2.708
87457W        W55831  22.165   3.424  14.993
87458W        W55832  11.225  30.491  11.018
87459W        W55833  35.029   3.756   1.441
87460W        W55834   4.337  34.395   4.201
87461W        W55835   2.925  30.040  12.887
87462W        W55836   4.827  39.466  10.430
87463W        W55837  38.524  30.466  11.594
87464W        W55838  41.967  38.337   2.775
87465W        W55839  10.375  36.427   5.108
87466W        W55840  32.071  26.976  12.515
87467W        W55841   6.738  24.638  14.803
87468W        W55842  22.153   0.832  13.529
87469W        W55843  37.904   9.219   1.384
87470W        W55844  25.108  37.056  11.891
87471W        W55845  30.028  44.925  14.893
87472W        W55846   6.874  25.468   2.295
87473W        W55847  42.433  24.579  12.925
87474W        W55848  11.745  38.413   4.330
87475W        W55849  28.146  19.623   2.873
87476W        W55850  13.808   9.163  13.524
87477W        W55851   8.212  15.236  13.423
87478W        W55852  22.701  14.136  10.500
87479W        W55853  32.508  31.002  14.490
87480W        W55854   2.374  18.215  13.991
87481W        W55855  11.262  28.172  13.926
87482W        W55856  21.677  18.091   0.243
87483W        W55857   0.813   8.312  10.961
87484W        W55858  27.188  37.041  10.957
87485W        W55859  35.481  25.607  13.907
87486W        W55860  37.987  14.175  12.435
87487W        W55861   9.646  39.517   3.847
87488W        W55862  43.966  24.230   4.150
87489W        W55863  42.482  36.496   4.688
87490W        W55864  33.982  39.993  13.839
87491W        W55865  39.010  26.566   3.345
87492W        W55866  38.346   6.365   2.713
87493W        W55867   6.850   2.453  10.496
87494W        W55868  30.575  44.276   0.278
87495W        W55869  35.372  22.700   2.821
87496W        W55870  31.426  40.383   0.900
87497W        W55871  36.054  21.645  12.563
87498W        W55872   7.259   2.372   3.317
87499W        W55873  35.394  10.246   3.705
87500W        W55874  35.022  12.793   2.245
87501W        W55875   6.894  21.235  12.046
87502W        W55876  19.178  16.687  14.830
87503W        W55877  41.376  11.295  10.586
87504W        W55878  28.040  35.432  11.443
87505W        W55879  33.062   9.259  12.456
87506W        W55880  20.535  28.516  12.431
87507W        W55881   9.330  19.118   2.790
87508W        W55882  10.369  14.609  14.814
87509W        W55883  12.266  43.825   0.366
87510W        W55884  23.023  44.869  13.494
87511W        W55885   5.309   9.887  12.417
87512W        W55886   9.824  42.491   4.328
87513W        W55887   0.380  28.022  10.597
87514W        W55888  38.410  24.690  12.086
87515W        W55889  14.186  34.987   0.367
87516W        W55890  19.610  34.934   1.238
87517W        W55891  21.755  18.556  10.628
87518W        W55892  24.592  25.556  13.050
87519W        W55893  35.361  36.882  12.394
87520W        W55894  35.966   7.690  13.016
87521W        W55895  30.496  42.499   4.743
87522W        W55896   4.266   2.839  10.626
87523W        W55897   3.856  28.672  12.898
87524W        W55898  43.369   5.810   2.321
87525W        W55899   5.364  33.069   1.785
87526W        W55900  31.110  17.183   2.366
87527W        W55901  30.041  38.069  10.516
87528W        W55902  40.050   0.319   1.247
87529W        W55903  24.034  41.866   4.794
87530W        W55904  27.681  27.018  10.426
87531W        W55905  44.378  12.242  10.634
87532W        W55906   7.866  11.276   0.248
87533W        W55907  16.675   0.936   0.271
87534W        W55908   7.730  15.277  11.509
87535W        W55909   3.781   6.859   3.235
87536W        W55910  15.260  24.575   1.887
87537W        W55911  33.585  32.458  11.597
87538W        W55912  15.761  17.267   0.765
87539W        W55913  20.695  40.830  12.967
87540W        W55914  27.193   9.154  13.325
87541W        W55915  39.883  39.482  14.448
87542W        W55916  21.618  15.227  14.436
87543W        W55917  29.094  21.141   3.351
87544W        W55918  44.456  15.796   3.162
87545W        W55919  23.036  31.941   5.241
87546W        W55920   8.761  11.254  11.022
87547W        W55921  19.726  23.211  11.901
87548W        W55922  30.050   5.337  13.333
87549W        W55923  10.379  27.560  14.448
87550W        W55924  22.617  11.844   5.193
87551W        W55925   4.928  30.070   3.179
87552W        W55926  25.161  29.145   2.838
87553W        W55927  39.389  22.629  12.516
87554W        W55928  25.588  16.282   0.481
87555W        W55929  31.032   4.803   5.164
87556W        W55930  21.099  29.081  11.610
87557W        W55931  18.707  31.105  14.800
87558W        W55932  27.511  15.591  14.922
87559W        W55933  33.105  42.802  12.043
87560W        W55934   0.266   8.879  13.413
87561W        W55935  25.023  13.642   0.345
87562W        W55936   7.183  15.099  14.849
87563W        W55937   4.331  24.160   4.748
87564W        W55938  14.823  39.399  10.537
87565W        W55939   4.886  15.648  12.948
87566W        W55940  31.637   6.739   2.194
87567W        W55941  38.373  28.530  11.078
87568W        W55942  21.555  29.527   4.749
87569W        W55943   5.292  24.540  12.928
87570W        W55944  30.106   0.286   0.952
87571W        W55945  12.286  32.450   0.391
87572W        W55946  38.485  17.765  14.832
87573W        W55947  13.731  24.652   3.228
87574W        W55948   9.356  28.047   1.349
87575W        W55949  22.246   5.214   0.906
87576W        W55950  15.191  39.929  11.912
87577W        W55951  32.962  19.128  12.475
87578W        W55952  29.169  34.515   2.293
87579W        W55953  31.086  42.444  13.809
87580W        W55954  25.015  30.069  14.942
87581W        W55955  42.801   5.900   4.327
87582W        W55956  13.724  32.593  14.493
87583W        W55957   1.399  19.746  13.853
87584W        W55958  13.307  22.502  12.380
87585W        W55959   1.246  16.804  12.061
87586W        W55960  10.343  40.514  11.468
87587W        W55961  12.788  33.579  12.986
87588W        W55962  24.540  21.114  12.456
87589W        W55963  31.004  22.164   1.755
87590W        W55964  40.954  14.623   2.190
87591W        W55965  17.779  22.156   1.235
87592W        W55966  21.586  39.013  10.993
87593W        W55967  17.707  40.388   3.634
87594W        W55968  29.919  18.080  13.909
87595W        W55969  18.789  17.698  11.039
87596W        W55970   5.255   5.346  10.899
87597W        W55971  44.922  30.074   2.221
87598W        W55972  25.580  42.422   0.934
87599W        W55973   5.813  32.959  14.474
87600W        W55974  11.707   5.877   4.832
87601W        W55975  18.739  39.829  10.037
87602W        W55976   3.717  21.680   2.721
87603W        W55977  23.142  33.398  11.468
87604W        W55978  32.116   1.252  13.321
87605W        W55979  39.885  21.244  10.513
87606W        W55980  37.413   0.933  12.902
87607W        W55981   1.460   1.922  14.314
87608W        W55982  23.656  14.771   3.181
87609W        W55983   5.691  20.744   2.219
87610W        W55984  28.171  11.237  12.552
87611W        W55985   3.307  36.897   3.800
87612W        W55986   0.831  12.199   4.761
87613W        W55987   1.446   5.781  10.501
87614W        W55988  19.560   0.312   0.957
87615W        W55989  19.556  36.471  10.994
87616W        W55990   3.408   8.295   4.263
87617W        W55991  21.048  25.663   4.600
87618W        W55992   0.371  35.895   4.215
87619W        W55993   3.885  10.702   1.262
87620W        W55994   3.252  18.125  13.544
87621W        W55995   1.306   5.294   0.405
87622W        W55996  40.039  29.432   4.219
87623W        W55997  39.539  26.164   2.371
87624W        W55998  35.954  21.624   1.294
87625W        W55999  15.621   8.774  12.837
87626W        W56000   9.727  20.260  11.563
87627W        W56001  26.687  33.390  14.004
87628W        W56002   8.791   7.761   0.750
87629W        W56003  21.756   8.755   3.861
87630W        W56004  23.607  21.216  14.903
87631W        W56005   2.926  34.873  10.972
87632W        W56006   5.323  13.311   0.891
87633W        W56007  31.053   8.702  10.909
87634W        W56008  22.742  18.213   2.775
87635W        W56009  41.869  34.896  11.083
87636W        W56010  22.728   3.884  10.524
87637W        W56011  22.128  24.480  10.465
87638W        W56012  17.667  19.749  12.422
87639W        W56013   3.822  28.495  12.526
87640W        W56014   5.233  30.111  13.429
87641W        W56015   5.304  14.251  11.874
87642W        W56016  10.713  23.720   2.713
87643W        W56017  38.344  19.196  11.420
87644W        W56018  41.402  18.744  12.016
87645W        W56019  24.184   7.200   1.730
87646W        W56020  36.996   2.245  14.828
87647W        W56021   9.769  33.122   3.731
87648W        W56022  30.997   3.911   2.402
87649W        W56023   9.657  15.709  14.321
87650W        W56024   6.361  32.126   4.145
87651W        W56025  26.042  38.939  10.930
87652W        W56026  39.316  42.797   1.769
87653W        W56027   8.839  36.066   0.470
87654W        W56028  38.848   0.442  10.149
87655W        W56029   2.845  35.558   3.323
87656W        W56030  10.774  36.363   3.701
87657W        W56031  19.277  21.643   3.650
87658W        W56032  35.069  25.987  13.406
87659W        W56033   1.732  31.443  14.894
87660W        W56034  39.819  33.120  10.904
87661W        W56035   5.748  22.144   4.178
87662W        W56036  31.048  44.386  10.997
87663W        W56037  33.596  28.952  11.532
87664W        W56038  28.491  17.616   0.938
87665W        W56039  38.073  40.880   0.347
87666W        W56040  25.662   7.665   4.599
87667W        W56041  21.021  16.153   3.821
87668W        W56042  44.280   1.243  10.027
87669W        W56043   0.815  30.041   2.782
87670W        W56044  24.229  32.589  13.855
87671W        W56045  38.057  13.184   3.631
87672W        W56046  26.980   2.769   4.132
87673W        W56047   0.772  16.085   1.883
87674W        W56048   6.424  25.619   1.720
87675W        W56049  17.632   9.185  10.916
87676W        W56050   4.740  35.571   2.198
87677W        W56051  19.141  33.416  13.996
87678W        W56052  37.530  38.898   0.357
87679W        W56053  15.318  27.462  12.560
87680W        W56054  35.950   8.877  12.907
87681W        W56055  24.704   7.334  12.575
87682W        W56056  13.325  30.512   4.658
87683W        W56057  41.869  29.507   2.837
87684W        W56058  14.793  32.138   2.712
87685W        W56059  44.880   0.912   0.842
87686W        W56060  16.720   0.468   3.684
87687W        W56061  37.065  14.116  13.000
87688W        W56062  36.913  21.139   0.436
87689W        W56063   2.812  28.942   0.341
87690W        W56064  41.367   1.805   3.639
87691W        W56065  26.101  36.060   1.881
87692W        W56066  29.435  22.208  10.412
87693W        W56067  31.457  34.506   1.272
87694W        W56068  29.122  10.762  11.520
87695W        W56069  23.020  30.044   1.891
87696W        W56070  42.775  17.219  11.517
87697W        W56071  42.508  39.445  14.314
87698W        W56072  26.141  41.474  11.472
87699W        W56073  12.295  17.278  14.832
87700W        W56074   6.787  16.690  12.012
87701W        W56075  28.470  35.876  10.422
87702W        W56076  16.582  19.054   0.482
87703W        W56077  20.067   7.173  12.579
87704W        W56078  40.459  28.041  10.894
87705W        W56079   4.911  12.215   1.830
87706W        W56080  14.793  24.207  14.978
87707W        W56081  11.853  38.050   4.634
87708W        W56082  32.534  42.405  10.406
87709W        W56083  27.660  11.285   3.181
87710W        W56084  22.608  21.091  13.823
87711W        W56085   3.383  24.668   3.320
87712W        W56086   3.794  13.212   0.376
87713W        W56087  34.590  22.508  11.945
87714W        W56088  11.235  15.234  10.478
87715W        W56089  26.055   9.356   3.709
87716W        W56090  25.539   9.741   4.255
87717W        W56091  32.901  27.186  12.367
87718W        W56092  36.841  22.084  12.967
87719W        W56093  15.327  32.404   1.710
87720W        W56094  14.695  10.816  11.580
87721W        W56095   4.441  17.687  10.487
87722W        W56096  10.680  11.333   4.713
87723W        W56097  22.651  39.903  12.874
87724W        W56098  12.717  25.153   4.649
87725W        W56099  33.533  36.859  11.033
87726W        W56100  43.408  25.530   2.794
87727W        W56101   2.943  43.017  11.451
87728W        W56102  19.547   6.893   3.273
87729W        W56103  31.426  25.503   2.299
87730W        W56104  32.935  14.288  12.353
87731W        W56105   9.349  14.734  11.954
87732W        W56106   4.822  17.692  10.486
87733W        W56107  30.104  19.086  12.030
87734W        W56108  25.150  16.712  13.398
87735W        W56109   9.377   2.316   1.237
87736W        W56110  35.014  33.588  13.994
87737W        W56111  41.936  30.022   0.892
87738W        W56112  23.069   3.899   2.187
87739W        W56113  39.944  41.482   0.421
87740W        W56114  10.646  30.022  11.562
87741W        W56115  15.211   8.654   0.946
87742W        W56116  41.871  28.494   1.274
87743W        W56117  19.168   5.376   0.887
87744W        W56118  28.651  16.678  10.503
87745W        W56119  24.682  44.759   3.242
87746W        W56120  30.096   5.235   0.775
87747W        W56121  36.364  36.581  10.552
87748W        W56122  40.041  44.453  14.856
87749W        W56123  35.864  13.644   0.838
87750W        W56124  10.187  31.107  12.372
87751W        W56125  42.818  24.718   0.331
87752W        W56126  36.072   8.813  14.927
87753W        W56127   9.860   4.404   4.673
87754W        W56128  42.973  12.632   0.780
87755W        W56129   7.267  23.012   4.644
87756W        W56130  30.129   6.352  13.498
87757W        W56131   2.306   8.658  10.933
87758W        W56132  12.742   6.292  12.410
87759W        W56133  34.036  33.032   2.881
87760W        W56134  35.470  42.311  10.954
87761W        W56135   1.741  24.711  14.446
87762W        W56136   2.467  14.740  11.012
87763W        W56137  35.461   6.876  11.521
87764W        W56138  30.133  34.897   4.734
87765W        W56139  21.178  27.028   2.717
87766W        W56140  34.539  34.538  11.076
87767W        W56141   2.361  22.618  13.331
87768W        W56142  32.477  28.466  13.054
87769W        W56143  19.131   2.401   0.847
87770W        W56144  21.704  33.471  12.443
87771W        W56145  44.268  36.361  10.552
87772W        W56146   9.214  21.241   5.140
87773W        W56147  31.056  10.283  12.016
87774W        W56148  25.587  14.658   0.906
87775W        W56149   0.492  11.213   4.725
87776W        W56150  28.611  38.455   2.211
87777W        W56151  38.518  35.533  12.002
87778W        W56152   6.296   4.439  14.354
87779W        W56153  19.723  29.611  12.490
87780W        W56154  16.811   7.403  12.823
87781W        W56155  40.973   3.419  14.972
87782W        W56156   6.279   0.468   3.226
87783W        W56157  30.494  37.522  10.563
87784W        W56158  10.754  37.886  12.576
87785W        W56159   3.735  27.550   1.265
87786W        W56160   7.365  30.933  11.437
87787W        W56161  38.895   2.761   3.831
87788W        W56162  25.605   9.190   2.287
87789W        W56163  44.938  12.755  13.546
87790W        W56164  36.593   1.361  14.456
87791W        W56165  38.367  12.755  12.444
87792W        W56166  11.721  36.947  11.446
87793W        W56167  30.514  31.486  11.392
87794W        W56168  34.569  15.630   3.271
87795W        W56169  41.413  35.085  14.948
87796W        W56170  29.148  31.544   3.847
87797W        W56171  43.929  26.500   1.283
87798W        W56172   7.196  30.504   1.283
87799W        W56173   0.866  19.139  12.034
87800W        W56174  21.678  11.346   4.280
87801W        W56175  44.332  16.805   3.196
87802W        W56176   1.264  27.622   1.908
87803W        W56177  22.585  12.124   2.338
87804W        W56178  28.186   4.382   2.381
87805W        W56179  32.400  12.345  13.934
87806W        W56180  28.444  30.490  11.943
87807W        W56181  39.376  27.030  12.425
87808W        W56182  44.411  18.255  13.027
87809W        W56183   6.206  17.272   4.283
87810W        W56184   6.788  23.714   1.442
87811W        W56185  24.568  27.678   3.211
87812W        W56186   4.798  39.351  12.523
87813W        W56187  38.840  31.138  12.533
87814W        W56188  42.797  30.475   3.789
87815W        W56189  33.582   2.879  14.888
87816W        W56190  13.335  27.489   2.830
87817W        W56191  25.675  22.132   4.138
87818W        W56192   5.772  13.305  12.963
87819W        W56193  11.197   8.267   1.699
87820W        W56194  10.349  39.907   4.630
87821W        W56195   8.677   8.828  14.793
87822W        W56196  20.688  37.485  11.573
87823W        W56197  30.162   1.298   4.619
87824W        W56198  29.590  42.874  13.443
87825W        W56199  24.197   7.299   3.670
87826W        W56200   7.394  35.100  11.521
87827W        W56201   7.194  19.151   0.324
87828W        W56202   1.274  12.273  13.520
87829W        W56203  15.669  42.460   4.173
87830W        W56204   4.781   7.329  10.413
87831W        W56205  34.417  38.368   2.851
87832W        W56206  11.795  18.634  11.076
87833W        W56207  18.240  11.127   3.668
87834W        W56208   4.750  36.075   5.311
87835W        W56209  21.541  21.680   1.838
87836W        W56210  43.811  31.997  10.104
87837W        W56211  23.575   4.875   1.242
87838W        W56212  44.006  44.821   4.271
87839W        W56213  30.979  30.479  12.477
87840W        W56214  11.274  12.661   0.380
87841W        W56215  27.673  26.555  10.059
87842W        W56216   9.818  31.597   2.267
87843W        W56217  39.970  25.122  10.447
87844W        W56218  26.584  28.033   3.852
87845W        W56219  15.180  33.540   1.831
87846W        W56220  37.434   3.929  11.613
87847W        W56221  39.884   3.349  13.923
87848W        W56222  10.174  32.056   1.293
87849W        W56223  23.022  41.902   0.845
87850W        W56224  28.079   8.737  11.100
87851W        W56225  33.444  22.579   0.387
87852W        W56226  18.659   2.310  14.450
87853W        W56227  13.763  21.209  12.825
87854W        W56228  39.459  44.958  12.463
87855W        W56229   7.248   9.187   4.299
87856W        W56230  32.627  39.475  11.563
87857W        W56231   5.898   2.889  11.608
87858W        W56232  39.492  20.529   4.748
87859W        W56233  28.971  24.048   1.879
87860W        W56234  40.370  11.660   4.808
87861W        W56235  41.894  17.195  10.489
87862W        W56236  22.642   2.469  12.873
87863W        W56237  40.445   4.843   0.330
87864W        W56238  11.654  42.295  12.464
87865W        W56239   8.258  44.456  14.839
87866W        W56240  44.304  42.897  13.475
87867W        W56241   3.898  28.175   1.309
87868W        W56242  21.114  41.943  11.051
87869W        W56243  38.946  11.685  14.383
87870W        W56244  15.212  32.064   4.746
87871W        W56245  32.931  25.128   0.258
87872W        W56246  25.658  37.496  10.078
87873W        W56247  23.652   5.242   1.756
87874W        W56248  15.713  25.994  12.494
87875W        W56249  18.681   2.468   1.423
87876W        W56250  22.507  27.157   0.445
87877W        W56251  39.442  31.908  11.999
87878W        W56252  14.610  40.303   4.127
87879W        W56253  18.611  19.095   2.238
87880W        W56254  21.087  34.041  10.974
87881W        W56255   1.774  31.572   0.968
87882W        W56256  21.159   6.678   4.816
87883W        W56257  40.354  15.174  13.000
87884W        W56258  20.181  37.494  10.481
87885W        W56259  10.770   5.238   0.313
87886W        W56260  27.566  43.902   1.864
87887W        W56261  33.070  39.025   3.661
87888W        W56262  28.643  34.024  14.446
87889W        W56263  26.660  17.146   1.347
87890W        W56264  33.539  14.249  11.594
87891W        W56265  21.052  41.985  10.588
87892W        W56266  23.510  38.030  13.820
87893W        W56267   0.835  30.607   5.169
87894W        W56268   3.277  19.733   0.917
87895W        W56269  41.331  32.890   0.779
87896W        W56270  17.269  23.641   4.644
87897W        W56271   8.737  25.600   3.321
87898W        W56272  26.137  23.211   1.840
87899W        W56273  11.203  19.049  12.968
87900W        W56274   2.243   8.289  10.495
87901W        W56275  22.218   4.720   1.222
87902W        W56276  28.599   8.197   0.920
87903W        W56277  43.310  17.093  13.869
87904W        W56278  30.494  26.090   2.218
87905W        W56279  22.123  24.669  12.349
87906W        W56280  18.599  36.871  14.927
87907W        W56281  31.530  29.048  11.967
87908W        W56282  36.953   6.859  10.445
87909W        W56283  44.308   6.904   1.302
87910W        W56284   9.384  27.636  11.554
87911W        W56285  16.743  23.555  10.515
87912W        W56286  18.724  29.999   0.457
87913W        W56287  30.982  30.491   3.731
87914W        W56288  13.764  20.067   4.821
87915W        W56289  43.928  30.939  14.824
87916W        W56290  24.678  28.528   1.864
87917W        W56291  22.696  29.162  10.590
87918W        W56292   8.246  21.035   3.691
87919W        W56293  44.965   1.263  14.416
87920W        W56294  42.807  38.995   4.667
87921W        W56295  19.045   5.815   2.403
87922W        W56296  26.125  42.856  11.093
87923W        W56297  35.368  31.132   3.214
87924W        W56298  35.031   9.659   0.423
87925W        W56299  39.844  43.971   1.304
87926W        W56300  25.218  28.565  11.428
87927W        W56301  37.990  10.723  12.496
87928W        W56302  37.894  19.624   4.800
87929W        W56303  27.991   1.290   2.348
87930W        W56304  17.089  22.249  13.901
87931W        W56305  21.196  25.611  11.879
87932W        W56306  14.104  42.953  12.908
87933W        W56307  12.796  28.588  13.014
87934W        W56308   9.274  34.452   1.441
87935W        W56309  35.460   3.414  14.851
87936W        W56310  17.759   3.728   3.669
87937W        W56311  14.607  32.963   2.331
87938W        W56312  33.024  31.611   1.835
87939W        W56313  14.717  29.505   0.450
87940W        W56314  14.281  23.045   2.205
87941W        W56315  37.411  14.652  13.406
87942W        W56316   5.259  13.350  14.333
87943W        W56317   1.382  31.937   4.132
87944W        W56318  40.410   6.370   4.355
87945W        W56319  43.878  40.030  11.600
87946W        W56320  14.287   8.339  12.874
87947W        W56321   2.355  41.302   4.729
87948W        W56322  30.595  31.985   5.082
87949W        W56323  40.375  27.176   2.335
87950W        W56324  31.432   1.368   3.660
87951W        W56325  30.991  39.328   1.411
87952W        W56326  36.502  29.028   3.361
87953W        W56327  33.408  17.062   3.740
87954W        W56328   6.917  39.060   3.369
87955W        W56329  37.355  18.651  11.523
87956W        W56330  43.332  19.618  13.943
87957W        W56331  24.000  32.636  10.491
87958W        W56332  27.524   6.403   1.925
87959W        W56333   7.772  11.279   4.762
87960W        W56334  38.337  33.103  13.023
87961W        W56335  15.696  21.192   1.434
87962W        W56336  35.576  44.853  14.971
87963W        W56337  41.407  29.584   0.431
87964W        W56338  13.768  20.254  11.898
87965W        W56339  26.011  24.996  14.353
87966W        W56340  37.035  43.991  14.386
87967W        W56341   7.399  15.199   4.150
87968W        W56342  44.291  27.961  11.439
87969W        W56343   5.801  23.631  12.453
87970W        W56344  42.914   3.246  10.423
87971W        W56345  26.095   1.903   3.825
87972W        W56346   7.192   5.281   2.790
87973W        W56347  41.333  12.807  14.310
87974W        W56348  33.426  33.919  10.620
87975W        W56349  17.587   0.368  12.026
87976W        W56350  44.866   9.198   4.764
87977W        W56351   2.360  11.749   2.235
87978W        W56352  18.211   4.943  13.446
87979W        W56353   1.480  27.623   2.786
87980W        W56354  19.579   9.282   1.871
87981W        W56355  27.122  37.074  11.406
87982W        W56356  43.468   4.393   3.153
87983W        W56357   4.814  35.415   0.476
87984W        W56358  17.125  33.427  14.932
87985W        W56359  11.128  18.615   4.260
87986W        W56360  33.387  42.864   3.750
87987W        W56361  13.630  22.612  13.383
87988W        W56362  38.857  30.134  10.141
87989W        W56363   4.705  37.843   3.320
87990W        W56364  29.093  18.201   2.385
87991W        W56365  19.637   2.865   3.842
87992W        W56366   0.449  20.111  14.842
87993W        W56367  29.621  11.836  14.388
87994W        W56368   6.804  26.637  13.801
87995W        W56369  30.562  25.115  13.810
87996W        W56370  43.409  31.003  10.479
87997W        W56371   0.323  39.476  12.357
87998W        W56372   0.380  13.760  12.547
87999W        W56373   6.215  21.588   3.850
88000W        W56374  17.218  25.602  11.998
88001W        W56375   6.724  18.163  14.423
88002W        W56376   5.213  21.632  13.340
88003W        W56377  37.497  32.097  14.934
88004W        W56378  19.580  34.873   2.753
88005W        W56379  15.653   7.773   0.882
88006W        W56380  40.475  33.399   4.713
88007W        W56381   3.390  27.177   4.835
88008W        W56382  15.813  35.862  11.447
88009W        W56383   6.706  19.707  11.593
88010W        W56384  25.987  22.541  11.874
88011W        W56385  21.189  13.758   3.848
88012W        W56386  31.090   6.705  11.961
88013W        W56387   7.370   1.441  12.503
88014W        W56388  35.867  21.667  12.048
88015W        W56389  37.544  35.417  14.945
88016W        W56390   7.177  44.799  11.550
88017W        W56391  43.936  11.683   4.220
88018W        W56392  16.709   2.907   4.290
88019W        W56393  42.432  32.425   4.720
88020W        W56394   9.244   0.309   3.222
88021W        W56395   6.830  24.091  13.874
88022W        W56396  35.881  14.160   5.247
88023W        W56397  13.667  28.004  13.545
88024W        W56398  16.596   5.330  10.550
88025W        W56399  32.945  11.865   4.600
88026W        W56400  23.085  40.446   0.395
88027W        W56401  25.158  37.500   2.695
88028W        W56402  28.483  38.885  13.390
88029W        W56403   0.402  22.014  10.418
88030W        W56404  38.435   5.343   4.746
88031W        W56405  10.830  20.076  11.907
88032W        W56406  26.106  13.157   3.249
88033W        W56407   7.734  31.624   5.225
88034W        W56408  17.131   5.788  10.414
88035W        W56409   8.295  15.240  12.009
88036W        W56410  38.508  18.606   1.426
88037W        W56411  15.122  17.115   0.884
88038W        W56412  29.034  21.186  10.451
88039W        W56413  24.709  35.960   1.256
88040W        W56414  19.576  44.492  10.889
88041W        W56415  43.843  42.025  12.871
88042W        W56416  19.144   1.424   1.355
88043W        W56417  43.832  24.539  12.538
88044W        W56418  29.594  26.540   5.221
88045W        W56419  44.900  33.131  12.454
88046W        W56420  17.110  12.658  10.560
88047W        W56421  24.095  18.131  14.492
88048W        W56422  10.839  19.604   5.134
88049W        W56423  43.011  11.753  10.969
88050W        W56424  35.063   0.800  11.501
88051W        W56425  19.683  38.922  14.438
88052W        W56426   8.201  21.156  11.544
88053W        W56427  19.772   7.668   1.830
88054W        W56428  12.829  44.482   1.394
88055W        W56429  42.509  27.031  11.546
88056W        W56430  43.357  31.603   2.348
88057W        W56431  28.612  10.148   4.354
88058W        W56432  34.964  19.759   1.361
88059W        W56433  25.176   0.745  14.359
88060W        W56434  10.223  15.191   4.789
88061W        W56435  29.959  35.482  10.949
88062W        W56436  41.451  13.208   0.826
88063W        W56437  20.051  13.622   0.909
88064W        W56438   7.897   3.420  14.478
88065W        W56439  10.371   5.243  11.505
88066W        W56440  38.545  32.895   2.684
88067W        W56441  39.428  14.139  12.365
88068W        W56442  12.318  10.701  12.423
88069W        W56443   3.735   3.240   4.125
88070W        W56444  26.128  22.199   4.836
88071W        W56445  22.606  36.576  13.895
88072W        W56446  22.186   6.239   0.896
88073W        W56447   4.699  16.568   1.337
88074W        W56448  18.172  40.859  14.782
88075W        W56449  42.850  12.176  11.962
88076W        W56450   4.714  40.548   3.188
88077W        W56451  16.256  13.636   4.606
88078W        W56452  24.078  25.624  10.500
88079W        W56453  35.082  34.906  13.956
88080W        W56454   6.266  17.563   0.895
88081W        W56455  29.175  26.497  10.408
88082W        W56456  29.584   0.315   4.750
88083W        W56457  28.478   6.852  13.011
88084W        W56458   9.777  23.586   4.799
88085W        W56459  18.586  39.512  11.521
88086W        W56460  35.403  28.593  11.008
88087W        W56461  35.529   0.494  12.550
88088W        W56462  23.618  39.058   1.228
88089W        W56463  17.267   1.942   3.174
88090W        W56464  18.628   3.242   0.773
88091W        W56465  26.607   2.434   3.175
88092W        W56466   5.430  11.867  12.458
88093W        W56467   4.264  13.644  10.419
88094W        W56468  36.012   4.317  12.926
88095W        W56469  10.874   1.287   4.177
88096W        W56470  44.962   0.968  11.062
88097W        W56471  37.851  22.103   2.791
88098W        W56472  21.561  17.124   3.644
88099W        W56473  44.348  39.403  12.579
88100W        W56474   1.817  39.509   1.445
88101W        W56475  44.465   9.308   3.337
88102W        W56476  20.688  30.450  10.618
88103W        W56477  29.453  21.605   3.245
88104W        W56478  10.200  12.170   3.791
88105W        W56479  32.397  13.803   3.336
88106W        W56480  21.236  34.995  11.512
88107W        W56481  35.035  26.470   5.317
88108W        W56482  21.098   6.772  14.441
88109W        W56483  36.914   1.948   1.862
88110W        W56484  38.018  39.813   3.701
88111W        W56485  13.698  20.052   1.267
88112W        W56486   0.477  26.690  13.017
88113W        W56487  32.514  13.334  13.330
88114W        W56488  24.574  33.909  10.455
88115W        W56489  10.730  17.702  13.458
88116W        W56490  11.782  38.336   2.287
88117W        W56491  38.024  36.464   4.749
88118W        W56492  31.597  44.869   0.438
88119W        W56493  31.021  26.176  13.397
88120W        W56494  16.195  23.207  12.847
88121W        W56495  19.691  37.562  10.056
88122W        W56496  17.087  41.299   4.798
88123W        W56497  38.921   6.732   4.827
88124W        W56498  36.965   9.385   9.495
88125W        W56499  28.972  33.619  13.044
88126W        W56500  27.485  34.899  11.855
88127W        W56501  23.641  25.200  11.903
88128W        W56502   7.175  31.592  12.876
88129W        W56503  14.782   4.768  14.947
88130W        W56504  35.455  19.054  12.516
88131W        W56505  41.974   4.423  14.834
88132W        W56506  26.122   9.293   1.780
88133W        W56507  32.504  34.018  12.554
88134W        W56508   2.441  30.499   4.349
88135W        W56509   6.292  26.496   2.782
88136W        W56510  34.106  14.782  10.454
88137W        W56511  24.563  37.568  12.894
88138W        W56512   7.324  22.742  10.563
88139W        W56513   0.849  31.519   2.677
88140W        W56514  17.103  11.692  13.437
88141W        W56515  36.864  33.974   3.838
88142W        W56516  14.631   5.414  14.006
88143W        W56517  24.980  39.344  11.450
88144W        W56518  21.138  19.548   1.327
88145W        W56519   8.832  34.477  14.007
88146W        W56520  17.294  12.210   4.604
88147W        W56521  26.145   3.278  14.820
88148W        W56522  11.822  36.097   3.222
88149W        W56523  22.237  27.687  11.127
88150W        W56524  24.117   3.405   0.270
88151W        W56525  11.867  33.480  12.990
88152W        W56526  29.628  28.592   0.827
88153W        W56527  19.260  44.993   2.665
88154W        W56528  21.094  25.494   2.836
88155W        W56529  17.589  27.645   3.834
88156W        W56530  27.131  11.691   0.348
88157W        W56531  12.804  39.966  13.504
88158W        W56532  40.345  32.989   3.697
88159W        W56533  19.052  15.784  11.074
88160W        W56534  28.141  36.554   0.481
88161W        W56535  42.337   9.373  13.513
88162W        W56536  19.614  14.185  11.374
88163W        W56537  28.956  25.967  11.403
88164W        W56538   0.863  11.793  14.508
88165W        W56539  39.518   8.272   4.309
88166W        W56540  12.779  24.516   0.469
88167W        W56541  19.279  20.559  10.443
88168W        W56542  11.833  10.218   3.738
88169W        W56543  32.453   5.796   0.364
88170W        W56544  38.352   5.393   2.178
88171W        W56545  40.925  20.115  11.056
88172W        W56546   5.876  29.945   4.248
88173W        W56547   8.703   2.933   3.672
88174W        W56548  34.863  14.154  10.622
88175W        W56549  24.621  43.368  11.460
88176W        W56550  13.191   4.936  11.946
88177W        W56551  17.218   9.370   5.190
88178W        W56552  13.610   1.294  14.298
88179W        W56553  37.028  13.766  14.512
88180W        W56554  31.562  39.888   4.704
88181W        W56555  37.387  34.068  13.048
88182W        W56556  13.291  20.607   0.387
88183W        W56557  32.524  32.901  13.948
88184W        W56558  37.983  18.661  13.810
88185W        W56559  37.950  11.292   0.393
88186W        W56560  34.576  27.043   3.266
88187W        W56561  23.042  23.238  11.079
88188W        W56562  43.390  14.701   2.292
88189W        W56563   6.280  20.762  10.465
88190W        W56564  33.880  26.656   3.163
88191W        W56565  25.581  23.683  14.942
88192W        W56566  14.267  43.016  11.975
88193W        W56567  11.761  36.385  12.860
88194W        W56568   4.425  15.797   0.945
88195W        W56569  28.954   1.836  14.300
88196W        W56570  32.102   6.336   0.853
88197W        W56571  37.974   1.905   4.272
88198W        W56572  15.281  10.762  10.038
88199W        W56573   7.788  22.655   3.712
88200W        W56574   5.849  29.159  11.928
88201W        W56575   3.263  42.031  10.435
88202W        W56576  11.357  43.865  13.010
88203W        W56577  42.007  12.699  13.006
88204W        W56578   0.866  10.777  10.631
88205W        W56579   2.446   9.382   1.317
88206W        W56580  35.365  11.139   1.793
88207W        W56581   1.935   1.348   0.409
88208W        W56582  35.051   5.363  14.374
88209W        W56583  43.515  10.151   4.749
88210W        W56584  28.604  31.435  11.117
88211W        W56585   8.852  41.908   0.377
88212W        W56586  35.959  22.668  13.430
88213W        W56587  40.975  12.614   3.630
88214W        W56588  23.987  31.929  13.324
88215W        W56589  40.857  29.924   3.820
88216W        W56590  26.489   7.707  10.588
88217W        W56591  27.455  10.284   3.215
88218W        W56592  11.657  30.426  12.852
88219W        W56593   9.234  44.350   4.302
88220W        W56594  36.889  42.951  11.463
88221W        W56595  44.871  25.019   0.730
88222W        W56596  21.673   5.339   3.843
88223W        W56597  21.588  25.980  13.392
88224W        W56598   2.408  16.755   0.285
88225W        W56599  32.039  36.905   1.928
88226W        W56600  18.630  29.468  12.988
88227W        W56601  39.855  21.075  14.495
88228W        W56602   8.240  24.640   5.142
88229W        W56603  23.702  37.378  12.059
88230W        W56604  13.245  44.966  10.550
88231W        W56605  41.956  29.619  14.364
88232W        W56606  18.757   4.834   0.742
88233W        W56607  15.251  44.499   4.804
88234W        W56608   4.887  33.027  14.762
88235W        W56609  17.115  25.089  14.427
88236W        W56610  27.965   3.799   4.308
88237W        W56611  42.350  27.143   0.333
88238W        W56612   9.170  38.873   3.357
88239W        W56613  26.209  21.758   4.286
88240W        W56614  30.065  29.583   4.621
88241W        W56615  41.823  39.535   1.390
88242W        W56616  37.452  23.171  14.516
88243W        W56617   9.371  11.643  10.496
88244W        W56618  13.803  43.790  13.887
88245W        W56619  37.989  15.228   4.340
88246W        W56620  14.753  14.813  12.956
88247W        W56621   1.285  31.531   0.440
88248W        W56622  20.766  21.710   2.328
88249W        W56623   7.383   0.458   3.201
88250W        W56624  34.557  10.708   1.211
88251W        W56625  31.080  21.686   1.424
88252W        W56626   0.780  14.706   2.684
88253W        W56627  25.005  42.844  11.963
88254W        W56628  17.682  19.726   2.694
88255W        W56629  13.207  42.938   4.647
88256W        W56630  40.975  17.090  14.347
88257W        W56631   7.885  37.853  12.374
88258W        W56632  40.370  22.197   4.179
88259W        W56633  22.716  16.087  11.004
88260W        W56634  22.518  26.474   4.327
88261W        W56635  31.117  24.014   2.706
88262W        W56636   5.691   7.265   3.798
88263W        W56637  29.173  16.754   4.722
88264W        W56638  40.320  21.581   2.765
88265W        W56639   2.832  23.213  10.422
88266W        W56640  21.150  15.256  11.499
88267W        W56641  17.782  25.584  10.628
88268W        W56642  28.531  23.016   3.862
88269W        W56643  30.136  30.577   1.875
88270W        W56644  43.943   8.721  10.574
88271W        W56645   2.775   4.888   1.377
88272W        W56646  10.783  30.557  11.588
88273W        W56647  34.951  21.182  12.385
88274W        W56648  33.895  26.052  14.779
88275W        W56649   6.360  13.197   4.317
88276W        W56650   6.188  33.538   0.849
88277W        W56651  42.810  21.187   1.275
88278W        W56652  17.601  20.225   2.739
88279W        W56653   8.382  27.491   1.247
88280W        W56654  16.729  28.600  10.495
88281W        W56655   6.215  13.725   0.432
88282W        W56656  42.929  12.211  10.549
88283W        W56657   5.388   3.394   1.340
88284W        W56658   6.901  39.853   4.200
88285W        W56659  44.492  38.988  12.834
88286W        W56660  15.585  42.516  11.469
88287W        W56661  24.980  34.868   0.799
88288W        W56662   8.254  31.116  13.944
88289W        W56663  21.214   9.172  13.919
88290W        W56664  39.845  21.727   2.724
88291W        W56665  33.013  16.185   0.377
88292W        W56666   1.898  15.609   1.311
88293W        W56667  38.373  31.051   4.700
88294W        W56668  25.218  25.690   2.348
88295W        W56669   3.778   9.255  13.000
88296W        W56670  38.987  15.150   1.282
88297W        W56671  22.089  18.279  12.533
88298W        W56672   2.318  11.370  14.887
88299W        W56673  31.465  39.318   0.264
88300W        W56674  14.775  25.592   3.826
88301W        W56675  11.850  27.592   4.606
88302W        W56676   0.409   3.730   3.871
88303W        W56677  20.707  38.904   1.426
88304W        W56678   5.841   6.207   0.406
88305W        W56679   0.873   4.365   3.310
88306W        W56680  26.170   4.710   0.944
88307W        W56681   5.431   5.373  14.506
88308W        W56682   7.303  27.163  14.358
88309W        W56683  44.841   4.308   3.207
88310W        W56684  26.990  37.983   1.313
88311W        W56685   3.303   3.883   4.644
88312W        W56686  30.604  44.907  12.459
88313W        W56687  32.594  12.720   2.700
88314W        W56688  12.357  12.242   4.770
88315W        W56689  36.545  36.484   3.350
88316W        W56690  43.510  23.124  14.421
88317W        W56691  33.960  14.726  11.966
88318W        W56692  12.716  17.691   3.183
88319W        W56693   0.987  13.811   3.385
88320W        W56694  25.605   1.297   1.856
88321W        W56695  33.457  38.531  12.395
88322W        W56696  43.795  35.413  11.075
88323W        W56697  41.009  40.409   3.201
88324W        W56698  12.798  44.473   3.713
88325W        W56699  33.491  31.641   1.832
88326W        W56700  11.311  39.455  12.392
88327W        W56701  12.653  15.746  13.845
88328W        W56702  34.108  37.928   0.310
88329W        W56703  33.987  16.762   1.434
88330W        W56704  30.633  27.452   3.864
88331W        W56705  32.032  28.450   2.241
88332W        W56706   8.180  18.133   4.800
88333W        W56707   6.879  31.425  13.961
88334W        W56708  43.903  17.661   4.721
88335W        W56709  22.581  36.371   4.274
88336W        W56710  37.453  14.219   1.272
88337W        W56711  26.067  34.065   3.215
88338W        W56712  23.032  41.858  12.097
88339W        W56713  20.140  13.307  10.543
88340W        W56714   4.777  22.579  14.473
88341W        W56715  42.304  31.089   2.184
88342W        W56716  25.002  13.750   1.444
88343W        W56717  34.870   3.920   2.298
88344W        W56718  32.025  29.991  11.409
88345W        W56719  18.101   0.338   1.313
88346W        W56720   3.934  10.817   2.826
88347W        W56721  18.640  28.998  13.424
88348W        W56722   1.762  19.756  14.982
88349W        W56723  19.766  35.495  14.991
88350W        W56724  21.245  43.450  13.852
88351W        W56725  35.439   4.778  12.511
88352W        W56726  33.425   2.833  10.464
88353W        W56727  37.028   6.841  14.429
88354W        W56728  21.061  43.844   4.247
88355W        W56729  44.000   9.276  11.909
88356W        W56730  26.144  27.020   0.472
88357W        W56731  15.599   3.340   0.952
88358W        W56732  17.733  25.135  10.625
88359W        W56733   5.408  10.266   3.316
88360W        W56734   7.824  33.466  14.866
88361W        W56735  30.586  14.148  11.958
88362W        W56736  12.315  19.568  13.945
88363W        W56737  41.505  44.480   1.268
88364W        W56738   2.763  16.571   4.242
88365W        W56739  27.029  16.123   0.307
88366W        W56740  18.192  28.185   2.269
88367W        W56741  12.186  41.901  12.886
88368W        W56742  10.368  41.029  11.897
88369W        W56743  34.117  38.026   2.842
88370W        W56744  28.653  43.477   5.260
88371W        W56745  33.067  22.747  13.816
88372W        W56746  10.705  15.608   3.795
88373W        W56747  36.047  21.126   4.125
88374W        W56748  13.123  10.314  14.349
88375W        W56749   7.839  30.036   1.818
88376W        W56750  42.896  11.210  14.788
88377W        W56751   9.166  23.623   2.378
88378W        W56752  27.467  34.081   2.412
88379W        W56753  39.558  10.205  14.975
88380W        W56754   2.317  20.705  12.346
88381W        W56755   2.257  25.705  12.397
88382W        W56756   8.693  26.124   4.144
88383W        W56757  44.347  24.542   1.323
88384W        W56758  29.004  24.546  11.991
88385W        W56759  24.129  25.145  14.417
88386W        W56760  44.753   0.476   3.339
88387W        W56761  28.093  24.530   1.934
88388W        W56762  34.097  36.535   3.682
88389W        W56763   1.402  16.772   1.410
88390W        W56764  40.826  11.220   2.725
88391W        W56765   8.797  21.636  13.317
88392W        W56766   2.289  35.985   0.770
88393W        W56767  15.689   6.411  13.483
88394W        W56768  26.025  19.655   4.754
88395W        W56769  26.480  32.980   4.613
88396W        W56770   7.869   0.363   2.758
88397W        W56771   9.186  23.543   9.991
88398W        W56772  16.628  26.060  13.890
88399W        W56773   9.224  20.693  11.036
88400W        W56774   6.340  27.013   0.438
88401W        W56775  24.566  38.957  12.992
88402W        W56776  30.448  20.655  12.381
88403W        W56777   4.738   2.378  13.359
88404W        W56778  35.907   7.174  10.126
88405W        W56779  16.704  41.456   2.238
88406W        W56780   7.707  21.177  12.004
88407W        W56781  26.150  26.008  11.450
88408W        W56782  19.540  10.667  13.414
88409W        W56783   6.402   9.714   0.883
88410W        W56784  24.572  36.882   2.246
88411W        W56785  42.031  34.046  13.807
88412W        W56786  13.169  38.503  14.816
88413W        W56787  30.011  39.032  14.960
88414W        W56788  19.141  29.160  14.344
88415W        W56789  31.622  33.883   1.776
88416W        W56790  43.798  31.440   1.445
88417W        W56791  29.564  32.408  14.371
88418W        W56792  10.648  42.463   4.304
88419W        W56793   4.869  36.866  12.007
88420W        W56794  20.048  34.876   1.740
88421W        W56795  17.564  15.250  12.049
88422W        W56796   0.405  27.021  13.499
88423W        W56797  44.413  33.570   0.379
88424W        W56798   5.847  27.548   1.354
88425W        W56799   3.398  12.822  10.558
88426W        W56800   9.271   0.834   2.244
88427W        W56801  27.540  12.188   3.223
88428W        W56802  37.485  17.222   1.854
88429W        W56803  35.400  40.030   1.851
88430W        W56804   7.196  41.902   4.705
88431W        W56805  34.569  10.381  13.380
88432W        W56806  39.379   2.937  14.444
88433W        W56807  30.484  13.666  11.031
88434W        W56808  38.042   5.934   1.904
88435W        W56809  44.469  38.959   2.806
88436W        W56810  44.467  25.137   3.761
88437W        W56811  33.109  35.893   4.223
88438W        W56812   1.285  36.914   1.761
88439W        W56813  15.651  15.289   4.190
88440W        W56814  20.193   4.757  14.322
88441W        W56815  39.420  40.464  14.851
88442W        W56816  10.723  36.361  10.954
88443W        W56817  24.556  12.844  10.466
88444W        W56818  44.368  21.020  11.865
88445W        W56819  26.063  37.521  13.479
88446W        W56820  26.644   5.703  11.900
88447W        W56821  40.505   1.863   4.339
88448W        W56822  26.154   3.885   2.222
88449W        W56823   6.789  10.190  14.503
88450W        W56824  38.504  22.201  12.386
88451W        W56825  16.593  37.518   4.666
88452W        W56826  23.012  26.567  10.575
88453W        W56827   1.404  27.040  11.035
88454W        W56828   9.249  24.483  14.484
88455W        W56829   4.903  42.859  11.558
88456W        W56830  28.477  37.461  12.916
88457W        W56831  31.429  15.108   2.843
88458W        W56832  40.477   4.323   4.815
88459W        W56833  13.745  28.095   0.370
88460W        W56834  10.749  36.976  14.906
88461W        W56835  22.017  35.365   0.342
88462W        W56836   2.321  33.972   3.692
88463W        W56837  39.009  23.208   1.860
88464W        W56838   1.949  21.663  12.033
88465W        W56839  31.414  43.935  14.862
88466W        W56840  29.575  32.992  11.004
88467W        W56841  29.646  37.556  14.407
88468W        W56842  28.951   7.728  11.449
88469W        W56843   7.332  11.342  14.430
88470W        W56844  21.688   2.746  14.478
88471W        W56845  15.239  14.714   0.437
88472W        W56846   1.257  43.515   1.361
88473W        W56847   1.748  30.496  12.349
88474W        W56848  21.061  18.762   2.281
88475W        W56849  38.871  29.117  12.896
88476W        W56850  43.423  16.241  11.491
88477W        W56851   0.820  35.502   3.687
88478W        W56852  34.456  12.684  11.105
88479W        W56853  25.986  20.665   1.857
88480W        W56854   1.905  44.932   1.729
88481W        W56855  34.045  18.247   3.306
88482W        W56856   1.353  13.770  14.407
88483W        W56857  43.306  21.043   0.306
88484W        W56858  37.565  16.282   3.760
88485W        W56859  24.103   9.825  10.981
88486W        W56860  44.263  15.747  11.920
88487W        W56861  18.165  13.221  14.459
88488W        W56862  20.742  11.333  10.443
88489W        W56863  30.503  39.530  13.938
88490W        W56864  18.165  39.813   2.847
88491W        W56865  39.991   3.930   1.345
88492W        W56866  26.046   5.758  12.870
88493W        W56867   9.754   1.966  10.460
88494W        W56868  24.215  40.814   0.268
88495W        W56869  14.239  18.589   1.923
88496W        W56870  31.630  11.735   2.282
88497W        W56871  16.604  44.783   2.861
88498W        W56872  12.682   2.291  11.057
88499W        W56873   5.278  20.047   1.806
88500W        W56874  23.671   8.795   4.285
88501W        W56875  28.515  20.179  10.642
88502W        W56876  36.443  15.265   2.794
88503W        W56877  42.812  44.889  10.923
88504W        W56878  43.860   7.382   1.812
88505W        W56879  16.593  10.769   5.148
88506W        W56880  25.108  22.011  10.892
88507W        W56881   2.271  10.705  10.968
88508W        W56882  17.243  29.625   0.303
88509W        W56883  28.935  34.436  12.363
88510W        W56884  41.341  30.462   1.329
88511W        W56885  32.886  34.983   4.300
88512W        W56886  42.799   5.369   0.309
88513W        W56887   0.941  25.650  11.896
88514W        W56888   7.306   1.469  12.977
88515W        W56889  35.945  27.186  12.960
88516W        W56890  24.030  23.683  13.447
88517W        W56891  10.749   7.680  14.468
88518W        W56892  37.922   7.389  11.994
88519W        W56893  33.923  17.739   2.251
88520W        W56894  34.920  13.601   0.783
88521W        W56895  44.365  17.646   4.351
88522W        W56896  12.351  26.489   3.756
88523W        W56897  15.309  31.123  14.403
88524W        W56898  23.537  37.919  11.412
88525W        W56899  24.091  13.320  13.027
88526W        W56900   0.335   3.349  14.391
88527W        W56901  42.987  36.380  13.320
88528W        W56902  11.770  23.659  10.480
88529W        W56903  36.452  15.590   4.353
88530W        W56904  42.412  13.166  14.972
88531W        W56905  25.659  10.237  11.912
88532W        W56906   4.880  30.011   3.714
88533W        W56907  33.070  21.617  11.946
88534W        W56908  16.247  34.567  14.354
88535W        W56909  37.943   3.455   0.740
88536W        W56910  24.504  26.526   1.317
88537W        W56911  30.635  16.181   4.713
88538W        W56912  23.210  24.032   4.806
88539W        W56913  13.728  27.155   0.761
88540W        W56914  15.256  42.855  10.440
88541W        W56915  23.547  44.420  14.930
88542W        W56916  13.624  29.963  14.823
88543W        W56917  27.565  20.102   1.921
88544W        W56918  10.338  17.062   4.122
88545W        W56919   6.908   5.874  14.884
88546W        W56920  38.886  12.337   3.376
88547W        W56921  40.955  19.662   2.335
88548W        W56922  16.646  27.977   1.308
88549W        W56923  43.969   6.264   3.284
88550W        W56924  35.487  41.816  10.563
88551W        W56925  17.188   8.277   0.923
88552W        W56926   3.242  27.650  14.817
88553W        W56927   0.340  44.767   1.366
88554W        W56928  14.269   0.832   3.247
88555W        W56929  42.776   3.397  13.338
88556W        W56930  39.982  41.448   2.806
88557W        W56931  41.460  31.935   0.327
88558W        W56932   4.412  16.302   4.158
88559W        W56933   7.875  16.238   3.327
88560W        W56934   8.272   9.196  12.573
88561W        W56935  35.464  10.868  10.407
88562W        W56936  43.376  32.928   3.705
88563W        W56937  22.139  29.517   4.225
88564W        W56938  26.087  39.353   0.835
88565W        W56939   7.255   3.800  10.547
88566W        W56940  38.009   3.460  11.415
88567W        W56941  19.107  19.141   3.759
88568W        W56942  33.571  20.702   2.418
88569W        W56943  21.670  26.658  12.995
88570W        W56944  30.657   8.776  10.607
88571W        W56945  44.999   7.301  13.869
88572W        W56946   9.307  22.055  13.960
88573W        W56947   0.783  17.254   5.322
88574W        W56948   8.766   6.304  14.982
88575W        W56949  13.642  36.371  13.009
88576W        W56950  24.213   2.233  11.431
88577W        W56951  27.594   8.724   0.917
88578W        W56952  35.049   7.295   4.129
88579W        W56953  17.562  26.632   4.325
88580W        W56954  22.718   8.173  14.478
88581W        W56955  30.062  44.986   1.867
88582W        W56956  38.051  35.005   3.347
88583W        W56957  32.608  40.884   3.670
88584W        W56958  19.215  22.680   3.151
88585W        W56959  37.378  26.115  14.387
88586W        W56960   1.976  22.642  11.452
88587W        W56961   6.805  12.317   4.651
88588W        W56962   3.356  20.165   0.938
88589W        W56963   8.783  39.453  13.989
88590W        W56964  15.116  34.435  13.387
88591W        W56965  30.998  30.130   4.647
88592W        W56966  36.352  32.945  14.437
88593W        W56967  32.527  24.715   2.857
88594W        W56968  24.671  31.121   9.977
88595W        W56969  34.511  39.018   3.149
88596W        W56970   7.889  21.106  12.454
88597W        W56971  20.601  41.892  12.989
88598W        W56972  15.758   1.973  10.947
88599W        W56973  39.381  17.688   1.374
88600W        W56974  40.049  22.226   1.906
88601W        W56975  35.990  37.972  13.974
88602W        W56976  44.286  14.231  10.500
88603W        W56977  11.773  20.259   1.914
88604W        W56978  11.686   7.710  10.943
88605W        W56979  12.774   0.788  11.119
88606W        W56980  15.646  12.334   3.276
88607W        W56981  20.152   1.463  13.313
88608W        W56982  43.768  26.166  13.472
88609W        W56983  12.302  24.052   1.437
88610W        W56984  35.491  27.995   3.820
88611W        W56985  16.101  22.189  12.558
88612W        W56986  20.557   6.188  10.521
88613W        W56987  25.070  29.429   4.155
88614W        W56988  23.015  15.089   0.394
88615W        W56989  31.421   9.289  11.909
88616W        W56990  16.093  33.055   3.643
88617W        W56991  10.842  27.193  10.936
88618W        W56992   0.474   4.749   4.681
88619W        W56993  40.971  17.239   0.943
88620W        W56994  34.393  20.606   3.743
88621W        W56995  31.908   1.763  12.981
88622W        W56996  19.682  21.607   3.816
88623W        W56997  23.596  29.563  10.461
88624W        W56998  29.470  44.362  10.605
88625W        W56999   9.790  30.063   3.786
88626W        W57000  16.787  37.889  10.954
88627W        W57001   0.315  17.086   4.303
88628W        W57002  18.743  24.621  14.510
88629W        W57003  35.438   0.822  13.413
88630W        W57004   9.815  42.479  14.790
88631W        W57005  41.331  33.420   4.834
88632W        W57006  36.960  38.910  10.506
88633W        W57007  20.558  18.628  14.764
88634W        W57008   1.402  42.824  14.832
88635W        W57009  38.013  39.378  14.989
88636W        W57010  20.165  24.009  10.457
88637W        W57011   5.817   5.361   3.257
88638W        W57012  24.159   0.422   0.454
88639W        W57013  29.610  28.069   4.772
88640W        W57014  11.211  15.163  14.913
88641W        W57015  11.231  33.055   4.170
88642W        W57016   2.271  44.975  11.001
88643W        W57017  30.421  33.620  14.471
88644W        W57018  11.302  22.522   3.203
88645W        W57019   1.815  27.003   3.359
88646W        W57020   5.913  28.087  14.515
88647W        W57021  26.042   5.430   2.895
88648W        W57022  42.368  20.184  11.919
88649W        W57023  43.903  25.137   2.414
88650W        W57024  34.561   8.674  12.463
88651W        W57025  11.295  43.406   2.892
88652W        W57026  36.975  11.654  13.532
88653W        W57027  35.092   3.336  12.851
88654W        W57028  26.993  33.957  12.984
88655W        W57029  35.936  38.026  12.955
88656W        W57030  13.344   0.982  13.917
88657W        W57031  30.142  29.460   1.448
88658W        W57032  28.125  11.285  10.057
88659W        W57033  39.475  13.658  12.055
88660W        W57034  43.425  26.953   3.200
88661W        W57035  25.112  10.829   2.235
88662W        W57036  44.843  26.534  10.900
88663W        W57037  23.216   9.654   0.253
88664W        W57038  22.692   6.360   3.696
88665W        W57039  27.045  17.112  11.564
88666W        W57040   2.338  31.993  13.358
88667W        W57041   9.711  36.365  11.885
88668W        W57042  26.549  35.524   2.179
88669W        W57043  12.723  41.018   1.887
88670W        W57044  34.031   6.765  14.850
88671W        W57045   1.438  27.096   3.855
88672W        W57046  43.289  42.933   2.708
88673W        W57047  38.007  41.003   1.277
88674W        W57048  10.823  38.559  14.973
88675W        W57049  24.643  19.623  11.607
88676W        W57050  35.015  36.052   0.867
88677W        W57051  32.446  42.432  11.439
88678W        W57052  43.990  14.275   2.793
88679W        W57053  32.556  17.708   2.400
88680W        W57054  38.834  32.932  10.576
88681W        W57055  43.840  14.735  11.117
88682W        W57056  28.936  24.706  10.965
88683W        W57057  34.403   2.945   2.854
88684W        W57058  16.186  34.369   0.905
88685W        W57059   6.847  38.551   3.256
88686W        W57060  38.375  23.610   1.720
88687W        W57061  43.308   5.696  12.973
88688W        W57062   9.390  33.930   4.336
88689W        W57063  28.581  22.555   4.624
88690W        W57064  33.037  31.598   4.661
88691W        W57065  29.167  23.501  10.949
88692W        W57066   5.388  33.495  11.063
88693W        W57067   7.797  40.865  11.111
88694W        W57068   9.828  44.885   4.655
88695W        W57069  21.622  22.723  11.096
88696W        W57070  19.608  35.404   3.324
88697W        W57071   7.228   8.887  11.856
88698W        W57072  19.199  10.799  10.924
88699W        W57073   4.217   4.432  11.466
88700W        W57074  12.313  41.513   3.283
88701W        W57075   1.831  24.499   2.773
88702W        W57076  19.545  32.008   0.307
88703W        W57077  27.980  28.995  11.103
88704W        W57078  21.125  31.103  13.378
88705W        W57079  25.033  37.341  12.484
88706W        W57080  10.156  44.450   1.757
88707W        W57081   9.733  35.014  10.478
88708W        W57082  31.922  35.103   0.765
88709W        W57083  34.455  34.562   1.866
88710W        W57084  43.837  28.120   4.628
88711W        W57085  40.393  26.601   3.835
88712W        W57086  38.019  21.092   2.743
88713W        W57087  26.994  32.020  14.764
88714W        W57088  34.463   1.307   4.290
88715W        W57089  43.002  16.661  12.509
88716W        W57090  25.073   0.471  14.344
88717W        W57091  26.508  22.576  12.831
88718W        W57092  43.822  28.152  12.847
88719W        W57093  14.198  23.600   1.411
88720W        W57094   8.874  33.413  14.995
88721W        W57095   8.666  38.547   4.161
88722W        W57096  36.872   6.689  12.841
88723W        W57097   7.196  31.083   0.746
88724W        W57098  10.366  37.352   1.774
88725W        W57099  22.008  33.397  14.853
88726W        W57100   4.290  38.426  11.567
88727W        W57101   3.440   0.431   2.259
88728W        W57102   5.839  13.686   1.848
88729W        W57103  19.103  11.335   3.372
88730W        W57104  10.192  40.912  11.483
88731W        W57105   1.407  33.472  12.478
88732W        W57106  44.280  32.020  13.927
88733W        W57107  28.519   1.845   3.266
88734W        W57108  20.185  16.688  11.465
88735W        W57109  27.146  13.293  11.551
88736W        W57110  21.651  44.453  10.947
88737W        W57111  17.075  40.415   4.795
88738W        W57112  23.611  32.476  13.451
88739W        W57113   6.713  24.725   9.975
88740W        W57114  43.480  16.167   4.626
88741W        W57115  22.167   0.971   1.758
88742W        W57116  44.450  38.050   0.748
88743W        W57117  24.173   9.208   2.843
88744W        W57118  29.579   1.748   1.433
88745W        W57119  26.015  37.885   0.272
88746W        W57120  28.150  27.039   3.273
88747W        W57121   1.318  18.552  14.321
88748W        W57122   2.817  29.584   2.678
88749W        W57123   1.325  12.307   1.837
88750W        W57124  13.130  35.935  11.585
88751W        W57125   2.469  41.345  13.944
88752W        W57126  37.884   4.897   3.150
88753W        W57127  42.353  27.985  13.969
88754W        W57128  34.106  38.456  11.554
88755W        W57129  22.030  13.118   3.660
88756W        W57130  22.523  28.609   1.366
88757W        W57131   6.688  34.512   4.344
88758W        W57132  20.719  10.739  12.525
88759W        W57133  12.798  28.065  12.408
88760W        W57134  44.444  22.031   3.170
88761W        W57135  36.934  40.509   4.334
88762W        W57136  17.601  42.348   1.307
88763W        W57137  11.163  17.250  10.631
88764W        W57138  29.489  35.380  13.315
88765W        W57139   5.825  41.395  13.526
88766W        W57140   2.409   6.391   2.782
88767W        W57141  29.077  12.284  11.906
88768W        W57142  44.497  28.055   1.286
88769W        W57143  38.551   6.341  14.966
88770W        W57144  10.312  12.295  13.853
88771W        W57145  41.527   4.213   1.919
88772W        W57146  23.215  42.456   4.202
88773W        W57147  35.880  27.969   4.733
88774W        W57148  12.191  36.024  13.900
88775W        W57149  26.150   7.241  14.292
88776W        W57150  27.484  40.820   4.599
88777W        W57151  24.165   5.396   3.710
88778W        W57152  21.253  25.653  14.850
88779W        W57153  26.659  30.053  12.036
88780W        W57154  11.815   8.325  11.919
88781W        W57155   1.278  22.244  14.345
88782W        W57156  18.616  40.862   0.406
88783W        W57157  11.740   0.249  10.570
88784W        W57158   0.483  14.264  12.418
88785W        W57159  33.078  23.148   3.367
88786W        W57160   6.676  26.111  12.571
88787W        W57161  31.422  21.677  10.988
88788W        W57162  17.095   7.349  11.118
88789W        W57163  20.526   4.856   0.866
88790W        W57164   2.256   7.187  14.904
88791W        W57165   6.344  42.429  10.966
88792W        W57166  44.487  12.665   4.749
88793W        W57167  14.718   1.482   3.688
88794W        W57168   6.726  22.636  12.940
88795W        W57169  18.657  30.640   2.213
88796W        W57170  23.665  12.774   4.741
88797W        W57171   5.289  27.993  13.477
88798W        W57172   0.331  12.235  14.768
88799W        W57173  13.719   5.728   4.277
88800W        W57174  41.503  27.094  13.834
88801W        W57175   3.844  19.218   2.254
88802W        W57176  31.121  24.186   3.773
88803W        W57177   8.735  26.028  12.849
88804W        W57178  20.067  30.046  12.543
88805W        W57179  43.869  12.844  11.538
88806W        W57180   2.766  22.631  10.409
88807W        W57181  30.146   0.982  10.430
88808W        W57182   6.310  15.782   4.682
88809W        W57183   5.377   6.794   1.327
88810W        W57184  32.992  34.458  11.460
88811W        W57185  16.809   6.236   1.404
88812W        W57186  34.921  21.591   2.316
88813W        W57187   1.279   4.290  13.912
88814W        W57188  27.630  21.215   2.306
88815W        W57189  27.117  35.006  11.034
88816W        W57190  39.917  39.939   0.810
88817W        W57191  43.954  39.333   2.203
88818W        W57192  37.860  37.480   5.181
88819W        W57193  36.406  34.607  13.975
88820W        W57194  15.212   3.785   0.307
88821W        W57195  33.584  13.761   4.128
88822W        W57196  43.488  27.098   1.833
88823W        W57197  19.183  26.486  11.559
88824W        W57198  30.564   7.772   0.886
88825W        W57199   5.269  10.355  13.025
88826W        W57200  44.815  21.715   1.886
88827W        W57201  43.866  33.030   0.899
88828W        W57202  35.974  21.535   2.188
88829W        W57203  37.046  14.717  10.459
88830W        W57204  35.035  35.473   3.656
88831W        W57205   3.741  30.643  11.491
88832W        W57206  36.988  24.158   1.276
88833W        W57207   3.885  43.806   4.277
88834W        W57208  21.231  26.951   1.403
88835W        W57209   1.755  36.853   1.830
88836W        W57210   9.726  33.989   1.797
88837W        W57211  28.582  11.164   4.745
88838W        W57212  30.437  17.614  11.944
88839W        W57213   2.434  10.775  11.585
88840W        W57214  26.089  23.095  11.054
88841W        W57215   7.834  22.218  11.114
88842W        W57216  13.293  14.237  13.898
88843W        W57217  38.439  20.083  10.464
88844W        W57218   7.673   6.868   1.234
88845W        W57219  29.948  38.383  13.502
88846W        W57220   2.279  33.448   2.344
88847W        W57221  26.564   7.369   4.630
88848W        W57222  35.595   7.314  13.867
88849W        W57223  32.902  19.276  14.795
88850W        W57224  37.887  12.790   1.402
88851W        W57225  11.635  13.144   5.256
88852W        W57226  22.666  11.219  10.971
88853W        W57227  24.486  42.358   2.270
88854W        W57228  20.123   0.354  13.384
88855W        W57229  35.935  44.969  13.416
88856W        W57230  15.726  25.554   1.884
88857W        W57231  44.365  36.908   4.672
88858W        W57232  20.051  37.526  12.574
88859W        W57233  35.066  17.167  12.995
88860W        W57234   6.904   4.826   3.826
88861W        W57235   0.840  41.500  11.444
88862W        W57236   6.429  19.177  14.991
88863W        W57237  18.163   2.392  11.045
88864W        W57238  23.069  43.488   0.423
88865W        W57239  14.223  35.524   4.703
88866W        W57240   8.192  13.713  12.407
88867W        W57241   4.292   2.765   1.339
88868W        W57242   2.454  40.047  12.072
88869W        W57243  22.075   9.317   4.618
88870W        W57244  28.673  31.995  12.386
88871W        W57245  21.142  36.948  13.338
88872W        W57246  10.675  43.983   3.187
88873W        W57247  35.375  35.507   0.294
88874W        W57248  20.604  28.158   3.809
88875W        W57249  17.251   4.777   2.679
88876W        W57250  37.513   8.701  13.507
88877W        W57251  19.253   6.302  12.402
88878W        W57252  15.304  11.840   0.304
88879W        W57253   9.684  35.514   3.785
88880W        W57254  28.435  10.721  13.407
88881W        W57255   5.357   0.930   2.749
88882W        W57256  39.392  32.911  11.987
88883W        W57257   7.785   9.259  11.866
88884W        W57258  43.495  28.471   0.762
88885W        W57259   3.798  18.666  11.022
88886W        W57260   4.212  33.886   3.763
88887W        W57261  20.664  16.669  12.382
88888W        W57262  16.216   3.734   4.711
88889W        W57263  21.520  27.547  12.910
88890W        W57264  44.766  32.469   1.386
88891W        W57265  24.035   9.711  13.504
88892W        W57266  27.519  38.933   1.284
88893W        W57267  30.420   6.300   4.629
88894W        W57268  32.408  22.203   0.383
88895W        W57269  38.026  16.279   1.885
88896W        W57270  28.531  17.652   0.323
88897W        W57271  12.232  21.674  12.859
88898W        W57272  13.677  36.499   1.810
88899W        W57273  26.138  15.798  14.298
88900W        W57274   6.251  27.616  13.919
88901W        W57275  13.753  25.117   1.391
88902W        W57276  35.416   0.467   0.432
88903W        W57277  26.630   4.858  11.977
88904W        W57278  39.382  36.971  14.943
88905W        W57279  16.622  20.722   0.453
88906W        W57280  19.696  21.203   4.119
88907W        W57281  42.991  20.274   3.315
88908W        W57282  38.390  10.862  10.525
88909W        W57283  21.224  36.021  13.884
88910W        W57284   3.459   3.763  14.420
88911W        W57285  18.064   3.856  13.492
88912W        W57286  44.470   9.377   4.599
88913W        W57287  13.608   7.718   4.312
88914W        W57288  10.680   5.336   2.274
88915W        W57289  14.681  39.897   4.808
88916W        W57290   7.751   6.732  11.092
88917W        W57291  27.956  15.277  13.409
88918W        W57292   8.807  20.086   5.241
88919W        W57293  32.983  31.012   2.329
88920W        W57294   2.764  37.989  11.878
88921W        W57295  39.831  37.524  11.900
88922W        W57296  23.238  25.527   0.250
88923W        W57297  11.796  12.694   3.721
88924W        W57298  23.093  37.938  11.601
88925W        W57299  25.138  43.516   3.856
88926W        W57300   7.366  21.654  10.631
88927W        W57301  30.594  44.855   4.131
88928W        W57302   8.740  25.192  14.893
88929W        W57303   7.708   6.188  13.449
88930W        W57304  38.431  24.697  12.546
88931W        W57305  32.052  42.386  11.548
88932W        W57306   4.912   3.876   1.391
88933W        W57307  44.935   8.736  12.492
88934W        W57308  38.824  40.457   4.719
88935W        W57309  19.687  39.337  14.968
88936W        W57310  31.946  23.227   4.778
88937W        W57311  43.979   5.871   3.205
88938W        W57312  36.030  19.122  13.876
88939W        W57313  13.252  42.869   3.161
88940W        W57314  23.555  43.350  14.278
88941W        W57315  32.959  41.329   2.394
88942W        W57316  39.385   6.188   1.748
88943W        W57317   3.223  16.584  14.913
88944W        W57318  42.485  32.945  14.324
88945W        W57319  22.603   3.409  13.826
88946W        W57320  14.731  21.156  10.502
88947W        W57321  37.989  37.414   1.798
88948W        W57322  22.214   0.952  12.466
88949W        W57323  35.600   3.240   4.143
88950W        W57324  17.634  24.593  10.630
88951W        W57325  14.625  22.174   3.290
88952W        W57326  38.401  32.070   2.861
88953W        W57327  41.810  34.520  11.492
88954W        W57328  41.009  21.223  13.971
88955W        W57329  14.273  29.428  12.033
88956W        W57330  29.146  31.031   4.196
88957W        W57331   8.850  22.137   1.701
88958W        W57332   9.245  16.261  14.495
88959W        W57333  14.741   0.400   4.622
88960W        W57334  20.760  23.140  10.989
88961W        W57335  41.870  34.097  14.793
88962W        W57336  29.484  14.339   1.280
88963W        W57337  19.267  40.923   0.784
88964W        W57338  26.962  26.647   3.158
88965W        W57339  23.196  10.222  12.368
88966W        W57340   3.816  40.347   2.344
88967W        W57341  24.091   4.733   5.218
88968W        W57342   6.428   9.181  12.382
88969W        W57343  20.080  22.026   0.482
88970W        W57344   2.737  34.408   1.269
88971W        W57345  38.970  22.996   0.728
88972W        W57346  12.782  29.462  12.843
88973W        W57347  37.455   4.358  11.436
88974W        W57348  42.982  20.107   4.216
88975W        W57349  10.163  44.991  12.835
88976W        W57350  17.681  24.547   2.284
88977W        W57351  16.273  42.284  10.604
88978W        W57352   7.286  40.808   0.879
88979W        W57353   1.253  11.824   1.856
88980W        W57354   8.822  41.999   2.847
88981W        W57355  19.104  23.015   2.787
88982W        W57356   5.876   9.167   3.183
88983W        W57357   3.750  27.463   1.766
88984W        W57358  23.668  15.293  10.644
88985W        W57359  42.509   5.344   1.260
88986W        W57360  43.382  25.149  14.502
88987W        W57361  11.129  14.304   2.817
88988W        W57362  16.187  21.684   2.778
88989W        W57363   4.727  25.593   3.827
88990W        W57364   2.935  40.837   1.767
88991W        W57365  17.110  30.423   0.760
88992W        W57366  13.144  34.118  13.524
88993W        W57367  21.718  23.074  14.502
88994W        W57368  25.572  20.110   2.806
88995W        W57369  10.304  28.058   3.714
88996W        W57370  39.499   3.785   1.815
88997W        W57371  27.001  24.116   1.888
88998W        W57372  18.607   8.665   2.708
88999W        W57373  32.536   1.973  14.360
89000W        W57374  25.090   0.856   0.964
89001W        W57375  32.435   2.325   4.172
89002W        W57376  22.714  44.003   3.797
89003W        W57377  40.921  33.510  14.909
89004W        W57378  10.791  19.556   2.308
89005W        W57379  11.251  32.573  10.627
89006W        W57380  29.471   3.766   0.964
89007W        W57381  19.570  24.116  14.514
89008W        W57382  27.579  40.027   2.755
89009W        W57383  15.733  10.684   1.803
89010W        W57384  37.882  26.966  11.555
89011W        W57385  23.687   1.940   1.842
89012W        W57386  32.042  40.366   3.357
89013W        W57387   4.250   1.830   0.264
89014W        W57388  29.613  12.741  14.909
89015W        W57389  21.132  30.621   0.914
89016W        W57390  20.610  42.868   4.725
89017W        W57391  14.723  26.159  12.464
89018W        W57392  24.028  44.428   5.291
89019W        W57393  10.174   8.288   1.372
89020W        W57394  38.447   7.885  10.415
89021W        W57395  24.069  31.458   4.680
89022W        W57396  40.822  34.964  11.585
89023W        W57397  25.142   9.166  12.031
89024W        W57398   6.795   8.311  11.610
89025W        W57399  20.525  31.640  13.451
89026W        W57400  44.906  21.243  14.481
89027W        W57401  34.553  17.184  11.046
89028W        W57402  41.911   9.225   4.631
89029W        W57403  31.591  13.767   0.315
89030W        W57404  19.753  29.636  14.429
89031W        W57405  29.430   5.346  13.972
89032W        W57406  30.432  14.812   3.854
89033W        W57407  13.731  39.015  14.939
89034W        W57408   9.852  37.003  14.905
89035W        W57409   3.789  27.111  12.501
89036W        W57410  32.949  39.406  11.566
89037W        W57411  14.289   7.408  10.951
89038W        W57412  31.588  41.875  12.837
89039W        W57413  11.662  22.249  11.939
89040W        W57414   9.180  40.904   3.197
89041W        W57415  17.274  22.622  11.006
89042W        W57416  38.480   2.909   3.283
89043W        W57417   5.845  23.987   3.756
89044W        W57418  41.906   9.880  14.510
89045W        W57419  23.223  29.951  11.434
89046W        W57420  15.633  37.478   2.214
89047W        W57421  24.563   0.962  11.481
89048W        W57422  28.023  26.512   2.737
89049W        W57423  25.537  19.582  14.026
89050W        W57424  41.923  26.200  11.502
89051W        W57425  11.783  33.927   4.210
89052W        W57426  43.975  12.315   1.850
89053W        W57427  22.048  35.050   3.194
89054W        W57428  26.664  11.801  12.487
89055W        W57429  24.051  32.535   1.356
89056W        W57430  29.040  38.393  13.437
89057W        W57431  42.812  44.443  10.461
89058W        W57432  41.792   1.813   4.600
89059W        W57433  25.641  24.168   0.320
89060W        W57434  28.538   7.901   2.850
89061W        W57435  20.263  40.516  10.081
89062W        W57436  30.545  38.397  12.470
89063W        W57437  36.581  44.341  14.865
89064W        W57438   9.844  20.235  14.450
89065W        W57439  39.931  38.071  11.985
89066W        W57440   9.647  31.564   0.388
89067W        W57441   4.259   4.722  11.396
89068W        W57442  38.417   0.754   2.249
89069W        W57443  23.179  27.519  11.485
89070W        W57444  39.378   2.945  12.979
89071W        W57445  18.163  32.523   3.315
89072W        W57446  13.224  26.061  14.030
89073W        W57447  16.176  18.549   1.257
89074W        W57448  12.790  36.364  11.548
89075W        W57449   2.765  33.877  13.894
89076W        W57450  23.704  11.348   2.824
89077W        W57451  36.016  14.647  14.386
89078W        W57452  21.166  29.077   2.296
89079W        W57453  24.131  16.213  14.817
89080W        W57454  24.974  19.707  13.827
89081W        W57455   4.840   4.262   4.219
89082W        W57456  34.895  37.421   3.303
89083W        W57457  33.922  23.562  10.443
89084W        W57458  19.187  30.116  10.547
89085W        W57459  26.056  24.033  14.859
89086W        W57460   7.780  24.494   4.691
89087W        W57461  23.010   6.827   3.147
89088W        W57462  27.999  40.421   3.643
89089W        W57463  28.007  35.057  11.548
89090W        W57464  42.998  21.150  11.910
89091W        W57465   5.195  27.471   2.811
89092W        W57466  23.729  19.136  11.916
89093W        W57467  19.601  44.879   3.822
89094W        W57468  34.023  42.487  11.953
89095W        W57469   1.874  27.621   1.347
89096W        W57470  32.963   5.436   0.329
89097W        W57471  44.794  39.893  14.842
89098W        W57472  24.678  25.130  13.479
89099W        W57473  12.280  44.406   4.314
89100W        W57474  24.187  43.352   1.787
89101W        W57475   2.271  10.352  13.411
89102W        W57476  23.220  37.423   1.328
89103W        W57477   6.862  15.681  13.806
89104W        W57478  24.521  24.140  10.957
89105W        W57479  25.497  34.445  12.445
89106W        W57480   3.862  16.219   2.200
89107W        W57481  20.246   8.828   2.284
89108W        W57482  22.215  35.591   3.730
89109W        W57483  28.164  29.990  14.789
89110W        W57484  24.695   2.848  12.054
89111W        W57485  42.287  39.356  13.390
89112W        W57486  26.577  19.689  13.396
89113W        W57487  15.239  19.550  13.835
89114W        W57488  11.671   2.760   0.473
89115W        W57489  21.123  38.460  11.497
89116W        W57490  29.147  14.270   1.702
89117W        W57491  11.844   3.941   2.675
89118W        W57492  15.671  28.605   3.729
89119W        W57493  24.657  17.729  13.886
89120W        W57494  40.434  36.913   1.855
89121W        W57495  21.660  42.826   4.712
89122W        W57496  29.580  41.901  10.913
89123W        W57497   1.972  14.190  12.522
89124W        W57498  23.671   6.915   2.218
89125W        W57499  23.132  21.262  12.964
89126W        W57500   1.942  18.628   1.420
89127W        W57501  11.798  11.298   3.715
89128W        W57502  40.538  43.309  10.607
89129W        W57503  34.912  32.042  14.869
89130W        W57504  38.072  24.571   2.412
89131W        W57505   9.851   7.390   0.879
89132W        W57506  15.628  16.661  10.019
89133W        W57507  30.073  22.230   3.672
89134W        W57508  44.927  18.144  13.972
89135W        W57509   0.924  18.176  10.429
89136W        W57510   0.976  25.168   2.846
89137W        W57511  43.785  14.128   4.781
89138W        W57512  23.604  12.662  13.055
89139W        W57513  30.426  38.849   0.740
89140W        W57514  37.055  44.488   0.363
89141W        W57515  15.265  27.145   1.785
89142W        W57516  37.851   6.759   3.368
89143W        W57517  34.111  36.919   3.859
89144W        W57518  22.501  21.653   0.801
89145W        W57519  27.574  24.180  13.324
89146W        W57520  17.239  31.477  12.360
89147W        W57521  43.954   9.224  12.393
89148W        W57522  15.163  18.073  12.993
89149W        W57523   8.742   3.865  14.838
89150W        W57524   0.393   6.743   0.887
89151W        W57525   6.325  11.265   0.958
89152W        W57526  41.901  11.679   2.784
89153W        W57527  22.245  21.552  13.016
89154W        W57528  39.810   7.220   3.871
89155W        W57529  25.617  20.542  12.430
89156W        W57530  21.225   8.846  13.312
89157W        W57531  37.527  31.561   3.195
89158W        W57532  18.706  31.541  13.899
89159W        W57533  27.011  41.498  11.535
89160W        W57534   4.766  39.040   0.269
89161W        W57535   6.797  22.679   4.241
89162W        W57536  20.736  23.584   4.262
89163W        W57537  23.559  33.057   0.463
89164W        W57538   6.773  10.307   1.350
89165W        W57539  14.742  20.081  11.086
89166W        W57540  39.517  30.959  11.529
89167W        W57541  39.532  32.936  10.584
89168W        W57542  34.461  38.331  13.007
89169W        W57543  40.441  30.625   4.186
89170W        W57544  34.557  41.354   0.398
89171W        W57545  17.203   0.900   0.350
89172W        W57546  15.705  16.584   0.850
89173W        W57547  41.407  11.632  10.620
89174W        W57548  31.930  38.338  14.420
89175W        W57549  11.200   4.331   3.806
89176W        W57550  16.263  28.621  11.547
89177W        W57551   0.897  32.620  12.012
89178W        W57552  31.106  37.454  13.025
89179W        W57553   9.262  27.506  14.982
89180W        W57554  23.117   6.768  10.496
89181W        W57555  19.544  25.554  12.842
89182W        W57556  11.651  13.256  10.440
89183W        W57557   7.301   1.781   1.294
89184W        W57558  20.254  30.914  11.375
89185W        W57559   5.755  37.394  14.861
89186W        W57560  25.019  31.134  14.315
89187W        W57561  31.093   2.400  10.534
89188W        W57562  22.222  19.090   1.280
89189W        W57563  18.716   5.778   4.638
89190W        W57564  30.536  41.351  11.511
89191W        W57565  39.550  11.137  14.464
89192W        W57566  11.800  36.913   0.449
89193W        W57567  29.597  41.471   2.267
89194W        W57568  15.637  36.856   2.272
89195W        W57569   9.252  37.060   4.144
89196W        W57570  15.782  26.137  12.076
89197W        W57571  41.881  20.643  14.324
89198W        W57572   2.808  20.079  11.539
89199W        W57573  20.222  25.133   2.742
89200W        W57574  29.163  11.669  10.527
89201W        W57575  25.498   8.358  11.097
89202W        W57576  23.193  19.583  14.861
89203W        W57577  28.061  39.973   1.799
89204W        W57578  40.858  19.687  10.593
89205W        W57579  12.278  37.533   4.674
89206W        W57580  34.463  40.037   3.163
89207W        W57581  12.811   9.848   9.959
89208W        W57582  19.241  18.604   2.320
89209W        W57583   0.851  33.453   1.733
89210W        W57584  43.301  13.222  14.430
89211W        W57585  39.534  31.644   2.314
89212W        W57586  41.435  18.160  12.865
89213W        W57587  36.356  17.247   0.809
89214W        W57588  19.558  11.669  14.409
89215W        W57589  32.059  40.005   2.389
89216W        W57590   2.824  43.506   3.255
89217W        W57591  13.321  37.549  12.041
89218W        W57592  32.109  27.636   3.694
89219W        W57593  25.110  33.442  14.408
89220W        W57594   4.828  41.859  11.089
89221W        W57595   2.811  11.278   1.756
89222W        W57596  38.820  18.102  11.395
89223W        W57597  28.137   9.867  11.091
89224W        W57598  43.347  40.832   1.421
89225W        W57599  24.685   3.313  13.498
89226W        W57600   1.949  42.925  11.415
89227W        W57601   8.268  29.493   3.704
89228W        W57602  34.387   4.867  13.952
89229W        W57603  37.062  32.404   1.234
89230W        W57604  12.294  36.347   3.782
89231W        W57605   2.804   1.374   4.349
89232W        W57606   4.784  11.837  11.571
89233W        W57607  31.639  35.859   1.328
89234W        W57608  44.445  35.950   2.764
89235W        W57609  33.462  16.808   3.230
89236W        W57610   0.962   1.775  11.466
89237W        W57611   8.361  14.122   5.250
89238W        W57612  39.851   6.765   4.679
89239W        W57613  44.381  10.268  13.519
89240W        W57614  44.945  42.324   4.838
89241W        W57615  24.186  12.232  14.765
89242W        W57616  23.176  16.255  10.440
89243W        W57617  43.434  13.780   0.473
89244W        W57618  31.581  21.652  13.507
89245W        W57619  44.992  28.136   1.396
89246W        W57620  13.172   6.811  11.454
89247W        W57621  27.010  24.681   3.302
89248W        W57622  23.048  41.511   4.670
89249W        W57623  33.624   2.953  13.430
89250W        W57624   4.394  36.500   4.698
89251W        W57625   8.799  29.014   2.242
89252W        W57626   0.896  26.141  11.086
89253W        W57627  16.263   3.912  11.962
89254W        W57628  43.824   2.742  12.438
89255W        W57629  35.920  25.029   2.771
89256W        W57630  34.425   7.863   2.732
89257W        W57631  26.527  40.447  13.311
89258W        W57632   6.396  37.016   2.716
89259W        W57633  25.514  20.118   3.145
89260W        W57634  32.920   5.283  14.866
89261W        W57635   2.872  20.596   3.699
89262W        W57636  39.446   2.895   3.668
89263W        W57637   7.230   8.824   4.627
89264W        W57638  19.767  30.019  14.821
89265W        W57639  31.916  18.079   4.157
89266W        W57640  23.546  28.558   3.198
89267W        W57641  16.627  28.633  13.466
89268W        W57642  17.660  34.420  12.406
89269W        W57643  39.995  14.669   0.790
89270W        W57644  35.983  21.536  13.310
89271W        W57645  26.646  10.781  13.398
89272W        W57646  20.539   3.819  12.913
89273W        W57647  35.600  27.486  14.027
89274W        W57648  30.150  22.050  11.576
89275W        W57649   4.730  40.894  14.001
89276W        W57650   0.355  33.542   2.365
89277W        W57651  22.076  39.392  12.824
89278W        W57652  11.797   4.729   5.171
89279W        W57653  32.531  21.174   3.361
89280W        W57654  27.035  15.744  14.491
89281W        W57655  24.124  37.365  13.838
89282W        W57656  17.576  30.629   1.715
89283W        W57657  29.075  11.325   0.896
89284W        W57658  22.581  41.957   2.828
89285W        W57659  30.923   3.300   5.267
89286W        W57660  15.697  18.194  12.003
89287W        W57661  35.962  39.407   3.217
89288W        W57662  18.759  19.593   4.286
89289W        W57663   5.827  22.223   2.390
89290W        W57664  38.566  35.554  13.030
89291W        W57665  15.255  22.196  12.554
89292W        W57666  42.877  25.155  11.477
89293W        W57667   1.437  13.800  10.404
89294W        W57668  30.591  40.984   0.955
89295W        W57669  41.039  21.641   1.826
89296W        W57670   0.902  39.963   3.696
89297W        W57671  41.955  19.551  11.388
89298W        W57672  24.697  25.668  14.408
89299W        W57673  24.219  35.436   1.431
89300W        W57674  10.140  12.194  14.972
89301W        W57675  18.177  15.791  10.453
89302W        W57676  15.106  26.570  14.863
89303W        W57677   9.808  44.967   2.863
89304W        W57678  35.041  25.153  11.479
89305W        W57679  18.069  30.429  13.042
89306W        W57680  10.826  15.252  10.502
89307W        W57681  41.488  22.131  10.945
89308W        W57682  38.020  42.336   0.967
89309W        W57683  41.937   5.847   0.895
89310W        W57684  13.284  42.024   2.847
89311W        W57685  35.944  23.498  11.589
89312W        W57686   2.340   7.344  13.408
89313W        W57687  14.640   4.371  12.342
89314W        W57688  22.151   8.211   2.221
89315W        W57689  21.189  39.884  14.872
89316W        W57690  23.197  31.404  10.125
89317W        W57691  40.871   1.474   0.751
89318W        W57692  16.097   5.407  13.382
89319W        W57693  31.455  43.283  12.405
89320W        W57694   8.701   1.766   3.186
89321W        W57695  35.545   4.441  10.485
89322W        W57696   9.753  12.625  10.430
89323W        W57697  10.198   8.395   2.200
89324W        W57698  21.627   2.383   3.159
89325W        W57699  34.049  30.415   0.301
89326W        W57700  35.452  24.600  11.483
89327W        W57701   2.305  16.217   0.890
89328W        W57702  31.071  19.599  12.359
89329W        W57703  23.735   3.948   2.278
89330W        W57704  16.254   4.759  11.542
89331W        W57705  10.679   9.394   2.805
89332W        W57706   5.335  19.045  10.975
89333W        W57707  32.038  19.618   3.816
89334W        W57708  43.972  17.572  13.880
89335W        W57709  42.473  36.985   1.799
89336W        W57710  36.947  29.024  10.432
89337W        W57711   9.813  40.030  12.094
89338W        W57712  16.695  13.629  10.550
89339W        W57713  40.350   2.390   5.237
89340W        W57714  40.028   0.798  12.393
89341W        W57715   3.284  30.551  14.275
89342W        W57716  14.166   0.785  12.058
89343W        W57717  22.189  25.559  11.051
89344W        W57718  13.126  32.110   2.818
89345W        W57719  42.297  12.346  14.873
89346W        W57720  15.771  21.617   2.706
89347W        W57721  24.141  33.121   1.410
89348W        W57722  25.558  27.950  12.352
89349W        W57723  32.530  24.209   0.775
89350W        W57724  44.755  40.998   4.701
89351W        W57725  33.907  30.464   2.803
89352W        W57726   9.244  31.015  13.892
89353W        W57727  35.512  30.079  12.002
89354W        W57728  37.525  21.178   0.257
89355W        W57729  14.252  27.169  14.861
89356W        W57730   7.313  26.619  13.493
89357W        W57731  13.111  36.568  11.443
89358W        W57732  22.633  18.658  10.493
89359W        W57733   6.819  30.133   1.344
89360W        W57734   3.310  13.625   3.821
89361W        W57735  28.681  28.992   4.644
89362W        W57736  13.718  23.228  13.438
89363W        W57737   8.775  17.109  12.854
89364W        W57738   5.749   5.744   3.682
89365W        W57739  15.776  28.959   2.406
89366W        W57740  13.758  20.726  13.819
89367W        W57741  43.988  19.719  14.478
89368W        W57742  41.450  44.416  13.011
89369W        W57743  44.280  11.705  13.386
89370W        W57744  15.140  44.832  10.443
89371W        W57745  18.615  26.967  12.418
89372W        W57746  29.433   0.485  14.339
89373W        W57747  10.142  25.569   2.185
89374W        W57748  24.667   2.257   0.772
89375W        W57749   3.248  31.014   2.409
89376W        W57750  11.636  29.074   4.160
89377W        W57751  31.432  30.477   0.398
89378W        W57752  16.103   5.689  11.038
89379W        W57753  35.087   2.415  14.429
89380W        W57754  23.684  15.329   2.234
89381W        W57755  11.721  24.008  13.980
89382W        W57756  16.598  42.783  12.052
89383W        W57757  18.567  18.721  11.387
89384W        W57758  34.018  30.481   3.677
89385W        W57759  20.134  30.022   2.702
89386W        W57760  16.110  26.142   1.876
89387W        W57761  39.984   0.369   4.306
89388W        W57762  36.453  33.546   4.173
89389W        W57763  42.396  32.992   2.383
89390W        W57764   7.346  43.001  12.508
89391W        W57765  11.654  41.875  12.384
89392W        W57766   7.391   5.695  13.045
89393W        W57767  35.893   4.755   0.751
89394W        W57768   6.221   7.764  13.002
89395W        W57769  41.483  39.892  13.810
89396W        W57770  30.940  37.870   2.756
89397W        W57771  33.975  42.461   2.700
89398W        W57772  44.883  24.709  12.049
89399W        W57773  36.434   6.773  10.482
89400W        W57774  23.220   5.909  14.825
89401W        W57775  41.407  10.694   3.153
89402W        W57776  31.581  18.290  11.875
89403W        W57777  33.470  43.938  13.018
89404W        W57778  36.362   5.336  14.515
89405W        W57779  44.397   3.929   2.856
89406W        W57780  31.593  18.620   4.626
89407W        W57781  41.826  19.560   3.322
89408W        W57782  32.062  25.492  10.932
89409W        W57783   5.318  26.660  14.313
89410W        W57784  36.453   8.289   4.308
89411W        W57785  29.041  18.635  13.339
89412W        W57786  39.958  28.525  10.904
89413W        W57787  20.759   2.258  13.504
89414W        W57788  30.025  29.575   3.293
89415W        W57789  10.782  36.960  12.876
89416W        W57790  30.565  35.417   4.146
89417W        W57791   0.746  18.644  13.880
89418W        W57792  42.378  22.037  14.814
89419W        W57793  14.107  25.615   2.755
89420W        W57794   6.844  31.630  14.443
89421W        W57795  16.583  28.437   3.223
89422W        W57796   2.960  43.503   1.227
89423W        W57797  40.920   9.372  14.410
89424W        W57798  29.469  38.874  10.500
89425W        W57799  21.645  26.003   3.345
89426W        W57800  44.494  32.515  13.051
89427W        W57801  41.935  22.074   2.705
89428W        W57802  36.893  18.147   2.371
89429W        W57803  22.695  37.477   5.314
89430W        W57804  22.638   7.748   2.744
89431W        W57805  21.169  16.706   1.386
89432W        W57806  22.107  19.617   1.356
89433W        W57807  16.267  15.183  11.406
89434W        W57808  42.857  23.685  14.941
89435W        W57809  35.934  15.216   1.324
89436W        W57810  13.189  29.441   4.679
89437W        W57811  23.610  11.213   0.761
89438W        W57812  35.073  17.256   2.832
89439W        W57813  13.835  27.966  11.911
89440W        W57814  17.097  21.046   5.318
89441W        W57815  38.397  21.128   2.739
89442W        W57816   5.759  31.917   5.215
89443W        W57817   2.414   7.370  12.579
89444W        W57818   9.218  13.207   2.851
89445W        W57819  31.079   1.457   1.933
89446W        W57820  27.995  32.071  10.537
89447W        W57821   8.796  15.643   5.302
89448W        W57822  19.762  31.633  12.420
89449W        W57823  44.444   7.289  11.983
89450W        W57824  17.732   0.831  10.946
89451W        W57825  16.268  35.572   3.844
89452W        W57826  34.615  26.619   2.234
89453W        W57827   0.385   0.959   3.342
89454W        W57828  26.566  42.992   3.838
89455W        W57829  19.644   7.813   4.627
89456W        W57830  31.558  28.097  10.612
89457W        W57831   9.342  14.637  10.968
89458W        W57832  37.433  14.153   2.204
89459W        W57833  19.758  33.447  10.934
89460W        W57834  26.157  44.853   4.600
89461W        W57835  11.347  13.146  14.787
89462W        W57836   0.302  24.716   2.777
89463W        W57837   6.301   5.832   1.868
89464W        W57838  35.518  29.507   1.717
89465W        W57839  19.046  27.604  14.836
89466W        W57840  10.224   8.207   0.920
89467W        W57841  30.627  24.604  13.836
89468W        W57842   7.372  37.056  14.998
89469W        W57843  17.106  12.802  11.488
89470W        W57844  43.422   3.747   1.755
89471W        W57845  41.877  34.425  12.002
89472W        W57846   8.704  24.644   1.915
89473W        W57847   7.316  30.145  11.521
89474W        W57848  14.690   7.738   0.414
89475W        W57849  44.275  42.511  11.878
89476W        W57850  39.399  17.801   0.312
89477W        W57851   0.268  12.710   1.250
89478W        W57852  11.268  12.660  10.597
89479W        W57853  38.927  18.732  12.406
89480W        W57854  11.761  17.734  13.462
89481W        W57855  22.131  39.394  11.503
89482W        W57856  21.124  38.378  14.811
89483W        W57857   5.326   2.299   2.719
89484W        W57858   4.421  22.693   4.820
89485W        W57859  17.219  38.956  10.094
89486W        W57860  39.433   1.277  12.352
89487W        W57861  16.107  39.016  11.079
89488W        W57862  29.612  36.063  11.084
89489W        W57863  32.474  22.998   3.656
89490W        W57864   6.867  13.261   3.809
89491W        W57865  24.130  22.525  11.864
89492W        W57866  29.494  38.920   0.365
89493W        W57867  14.792   4.709   2.845
89494W        W57868  10.341   2.462  14.779
89495W        W57869  17.753  31.934   0.943
89496W        W57870   6.420  21.176  14.990
89497W        W57871  42.993  13.195  10.940
89498W        W57872  25.652  24.700  12.905
89499W        W57873  16.174  27.558  12.044
89500W        W57874  30.446  17.137   2.221
89501W        W57875   8.804   9.337   4.329
89502W        W57876   4.350  31.415  13.934
89503W        W57877  44.420  20.028   4.131
89504W        W57878   8.827  10.144  13.442
89505W        W57879  31.085  44.800  12.026
89506W        W57880  41.853  13.271   2.838
89507W        W57881  10.845  17.094   1.440
89508W        W57882  19.544  13.208  11.044
89509W        W57883   2.228  12.657  11.005
89510W        W57884  39.441   5.883  13.411
89511W        W57885  16.150  29.155   2.286
89512W        W57886  19.632  23.033  12.500
89513W        W57887  32.114  29.138  13.493
89514W        W57888  37.364  29.497  11.570
89515W        W57889  19.746  14.810  10.903
89516W        W57890  10.640  14.194  13.938
89517W        W57891  11.233   6.327  11.996
89518W        W57892  35.525   1.244  11.574
89519W        W57893  37.491  31.431  14.916
89520W        W57894   2.928  23.651   3.868
89521W        W57895  29.165  21.583  11.079
89522W        W57896  28.965  25.185   4.309
89523W        W57897  40.054  29.447   0.967
89524W        W57898  11.333  42.329  12.494
89525W        W57899  28.175  26.627  10.019
89526W        W57900   5.760  36.586  12.897
89527W        W57901  27.983  30.422  13.916
89528W        W57902  20.268  38.884   3.748
89529W        W57903  15.596  32.423  10.475
89530W        W57904  13.303  32.455  10.617
89531W        W57905  23.546  33.044  12.881
89532W        W57906  14.322  41.346   0.763
89533W        W57907  32.450  30.004  14.515
89534W        W57908  40.943  40.800  12.939
89535W        W57909  37.571  35.050   2.297
89536W        W57910  14.129   4.225  14.980
89537W        W57911  16.598   4.444   2.840
89538W        W57912  22.134  37.933   9.540
89539W        W57913  30.009  16.729   0.838
89540W        W57914  41.334  17.203   5.319
89541W        W57915  11.777  41.825   1.451
89542W        W57916  10.747  22.078   4.829
89543W        W57917  42.504   1.749  13.313
89544W        W57918  32.996   3.709  11.073
89545W        W57919   4.807  26.982  10.904
89546W        W57920  12.179  13.220  13.955
89547W        W57921  10.747  16.309   0.260
89548W        W57922  25.092  21.111   3.795
89549W        W57923  22.620  11.743   0.939
89550W        W57924  24.479   5.739   4.721
89551W        W57925  12.628   5.319   3.282
89552W        W57926  28.578  30.428  14.765
89553W        W57927  11.194   6.723  14.873
89554W        W57928  40.805  30.418   1.445
89555W        W57929   4.227   4.258  13.386
89556W        W57930   5.856  20.223   3.779
89557W        W57931   9.358  15.178  13.867
89558W        W57932  31.610  14.616   3.698
89559W        W57933  16.191  18.662  14.493
89560W        W57934  15.672  44.902   0.865
89561W        W57935  18.253  29.581  12.530
89562W        W57936  14.828  12.324   3.721
89563W        W57937  40.325  43.801   0.861
89564W        W57938  22.208  21.231  10.432
89565W        W57939   4.908  14.160  12.042
89566W        W57940  33.122  17.243   2.747
89567W        W57941  14.685  35.600  11.886
89568W        W57942  33.965  31.012   4.620
89569W        W57943  39.466  28.047  14.505
89570W        W57944  33.910  39.026   1.831
89571W        W57945  12.787  43.989   2.668
89572W        W57946  15.315  10.875   3.751
89573W        W57947  33.459  33.602  11.995
89574W        W57948  36.984  30.616   4.727
89575W        W57949  18.119  44.872  12.414
89576W        W57950   5.698   1.304   1.304
89577W        W57951  34.022  43.824   1.876
89578W        W57952  39.883  21.127  12.514
89579W        W57953  20.762  40.399   0.866
89580W        W57954  22.578  25.164   4.831
89581W        W57955  38.381  34.865  11.000
89582W        W57956  38.423   2.297   1.334
89583W        W57957  12.783  20.086   0.751
89584W        W57958   7.887  23.686   1.808
89585W        W57959  34.382  19.046  13.899
89586W        W57960  31.075  21.144  14.021
89587W        W57961  31.896  27.959   1.794
89588W        W57962  11.693   2.458   4.783
89589W        W57963  25.616   1.441  14.960
89590W        W57964  27.189  11.797   0.809
89591W        W57965  36.541  34.899   0.837
89592W        W57966  22.538  10.301   5.202
89593W        W57967  15.579   6.899  14.974
89594W        W57968  23.513  10.191   3.191
89595W        W57969  27.036  34.580   1.782
89596W        W57970   8.728  17.585  11.040
89597W        W57971  42.419   0.784  12.089
89598W        W57972  20.601   0.414  10.436
89599W        W57973   5.405  24.053  10.133
89600W        W57974  11.145   6.263   1.804
89601W        W57975  14.637  24.648   1.443
89602W        W57976  30.143  19.131   1.803
89603W        W57977  13.734  42.822  13.817
89604W        W57978  38.425  18.132   0.280
89605W        W57979  14.625   8.371   4.248
89606W        W57980  16.800  44.836  14.944
89607W        W57981  35.570  24.975   2.308
89608W        W57982   1.857  33.941  14.394
89609W        W57983   5.276  28.522  10.935
89610W        W57984  32.484   9.167   1.783
89611W        W57985  36.505  26.110   4.144
89612W        W57986  30.014  16.693  14.849
89613W        W57987   7.286  26.637   2.219
89614W        W57988  33.435  32.594   0.742
89615W        W57989   4.786  21.055  14.464
89616W        W57990  21.572  39.810  13.334
89617W        W57991  39.387  14.805   0.921
89618W        W57992  22.583  23.641   4.313
89619W        W57993   3.947  42.347   2.740
89620W        W57994  40.444  18.761  14.956
89621W        W57995  28.577  23.682  14.812
89622W        W57996  24.062  31.144  14.974
89623W        W57997  39.416  32.944  14.945
89624W        W57998  13.186   5.709   4.615
89625W        W57999   3.343   2.803  12.382
89626W        W58000  37.968  30.459   4.834
89627W        W58001  28.962  22.083  12.854
89628W        W58002   8.217   7.799   1.761
89629W        W58003  25.647   3.909   1.852
89630W        W58004  17.659  34.896   4.633
89631W        W58005   5.906  24.029   1.259
89632W        W58006  15.273   5.240   4.203
89633W        W58007  19.163   2.285   3.305
89634W        W58008   1.250  11.174   4.605
89635W        W58009  15.679  30.913  14.930
89636W        W58010  10.781  27.149  13.515
89637W        W58011   3.747  30.585   3.265
89638W        W58012  29.455  14.190   2.710
89639W        W58013   6.780  33.939   0.862
89640W        W58014  17.642  30.036   0.848
89641W        W58015  16.724  17.264  10.407
89642W        W58016  22.180   1.457   3.698
89643W        W58017  22.509  21.044  11.909
89644W        W58018  24.225  38.440   4.607
89645W        W58019  16.198  14.254  13.515
89646W        W58020  13.802  39.326   2.838
89647W        W58021  37.949  18.584   2.324
89648W        W58022  33.006   3.306  12.553
89649W        W58023  43.504  22.651  11.893
89650W        W58024  21.135  30.950  10.524
89651W        W58025   5.810  12.201  11.429
89652W        W58026  36.401  33.029   2.887
89653W        W58027  16.265  11.203  10.489
89654W        W58028  12.721  11.693  12.831
89655W        W58029  21.136  25.218   2.272
89656W        W58030  26.109   2.242   2.405
89657W        W58031  41.435  30.428  14.428
89658W        W58032  33.612  19.698  14.864
89659W        W58033  21.615  35.362  14.931
89660W        W58034  44.433  37.532   2.734
89661W        W58035  24.484   3.846  10.527
89662W        W58036  16.283  27.606  11.490
89663W        W58037   2.817  28.088   0.781
89664W        W58038  28.130   6.247   1.284
89665W        W58039  26.638   3.844   2.785
89666W        W58040   8.200  25.594  12.031
89667W        W58041   7.905  17.802   9.636
89668W        W58042  23.605  17.255  14.329
89669W        W58043  29.624  41.418  10.920
89670W        W58044  17.129  24.085   0.734
89671W        W58045  27.635  20.036  10.596
89672W        W58046  19.218  14.751  10.583
89673W        W58047  27.175   3.229  13.498
89674W        W58048  26.669   0.312  10.927
89675W        W58049  15.670   2.726   0.267
89676W        W58050  12.727  17.295  11.028
89677W        W58051  10.241   3.831  11.577
89678W        W58052  41.020   7.796   4.790
89679W        W58053  20.199  12.747   2.340
89680W        W58054  20.639  28.954  11.120
89681W        W58055   3.912   8.779   3.378
89682W        W58056  17.691  24.182  14.463
89683W        W58057  43.371  37.513  13.930
89684W        W58058  28.536  25.563  13.879
89685W        W58059  18.602  36.093   4.242
89686W        W58060   9.676  25.612   4.322
89687W        W58061   1.374  36.397  12.894
89688W        W58062  17.586  35.973  14.503
89689W        W58063   1.249  37.983  11.547
89690W        W58064  13.175  37.966   3.815
89691W        W58065  20.197  30.552   3.852
89692W        W58066   8.730  42.300  14.964
89693W        W58067   1.465  30.548  11.412
89694W        W58068  24.505  33.581   1.292
89695W        W58069   2.243  27.562   2.236
89696W        W58070  33.116   3.828   0.813
89697W        W58071  22.044  28.577   0.882
89698W        W58072  38.446  35.853   0.785
89699W        W58073  12.275   3.955  14.352
89700W        W58074  28.444  11.281   1.395
89701W        W58075  28.064  16.118  12.360
89702W        W58076  35.049  37.901   1.285
89703W        W58077  27.606  20.223   4.151
89704W        W58078  15.159  40.383  13.800
89705W        W58079  19.654   2.740   2.299
89706W        W58080  41.494  40.984  13.412
89707W        W58081  12.737  20.084  10.932
89708W        W58082  11.140  21.539   0.320
89709W        W58083  33.461   9.780  14.894
89710W        W58084  31.609  41.484  13.448
89711W        W58085  31.481  19.052  12.477
89712W        W58086  17.579  33.554  10.461
89713W        W58087  18.221  26.570  10.508
89714W        W58088  18.055  23.128   4.826
89715W        W58089  38.996  33.894  10.903
89716W        W58090   2.464  12.639   4.836
89717W        W58091  29.084  42.963  13.919
89718W        W58092   6.704   2.898  10.428
89719W        W58093  38.515  36.012   1.427
89720W        W58094   3.931  18.561  10.561
89721W        W58095  13.336  35.392   4.809
89722W        W58096   3.304   2.865  14.776
89723W        W58097  32.985  33.063   4.821
89724W        W58098  13.743   3.402  14.280
89725W        W58099  31.489  13.105   0.391
89726W        W58100   5.434  24.581   0.747
89727W        W58101  15.792  21.566  10.966
89728W        W58102  19.172  19.623  12.063
89729W        W58103  36.983  26.505   0.857
89730W        W58104  35.443  28.048  11.481
89731W        W58105   0.418  20.205  10.511
89732W        W58106  16.782  44.900   0.390
89733W        W58107  30.118  18.063  11.438
89734W        W58108  21.736  22.674   2.835
89735W        W58109   9.734  25.211  13.845
89736W        W58110  25.133  30.085  12.071
89737W        W58111  31.060  26.587   1.243
89738W        W58112  43.406  31.943   3.169
89739W        W58113  15.615  31.920   4.725
89740W        W58114  14.833   5.251  10.574
89741W        W58115  12.340   7.731  13.844
89742W        W58116  10.277  10.787   1.828
89743W        W58117  22.664  20.542  13.821
89744W        W58118  37.577  27.170  14.479
89745W        W58119   7.670   5.200   1.757
89746W        W58120  33.125   9.191  13.860
89747W        W58121  39.052  25.567   2.718
89748W        W58122  36.424  41.367   4.343
89749W        W58123  24.983   8.259  11.959
89750W        W58124  27.013  33.507  10.950
89751W        W58125  25.580  44.757   1.402
89752W        W58126  16.640  14.615  14.957
89753W        W58127  36.443  41.526  14.971
89754W        W58128   7.685   3.856  12.942
89755W        W58129   3.237  37.474  11.502
89756W        W58130   6.811  44.380  11.458
89757W        W58131  35.374  34.451  13.845
89758W        W58132  41.042  38.866   3.838
89759W        W58133  21.100   4.894   5.232
89760W        W58134  38.516  24.147   4.748
89761W        W58135  30.573  27.153   1.416
89762W        W58136  25.559  30.477   5.768
89763W        W58137  42.943  23.637   4.288
89764W        W58138   8.673  29.660   2.299
89765W        W58139  21.067  29.578   3.789
89766W        W58140   6.716  35.106  11.005
89767W        W58141   5.692  17.752  14.467
89768W        W58142  26.096  14.597   4.787
89769W        W58143  43.380  32.005  11.886
89770W        W58144  24.683  31.442   9.470
89771W        W58145  28.516   4.772  12.896
89772W        W58146  19.056  17.788  10.482
89773W        W58147  42.895  42.438  14.823
89774W        W58148  27.656  37.073  14.891
89775W        W58149  12.231  22.559   0.832
89776W        W58150   7.189  12.611  12.374
89777W        W58151   8.270  41.475  14.760
89778W        W58152   3.376  32.569  14.448
89779W        W58153  23.228   7.900   1.375
89780W        W58154  34.390  16.722   2.319
89781W        W58155   3.822  34.523  10.143
89782W        W58156   0.986  30.091   3.780
89783W        W58157  10.233  40.483  12.058
89784W        W58158  22.615  42.910  14.790
89785W        W58159  42.524  25.114  11.067
89786W        W58160  15.275  22.517   1.841
89787W        W58161  24.507   4.821   4.605
89788W        W58162  12.267  37.956  14.999
89789W        W58163  29.654  44.334  12.003
89790W        W58164  29.451  18.712  10.628
89791W        W58165  25.135  29.511  12.560
89792W        W58166  15.689  24.584  13.841
89793W        W58167  28.677  39.912   4.274
89794W        W58168  28.004   4.728   0.963
89795W        W58169  44.281   3.403   0.889
89796W        W58170  38.991  32.074   0.962
89797W        W58171  13.807  33.966   1.761
89798W        W58172  37.497  32.929  14.959
89799W        W58173   0.770  36.080   2.663
89800W        W58174  14.818  11.649  11.373
89801W        W58175   2.433   8.859  14.818
89802W        W58176  27.096   6.760  12.896
89803W        W58177   1.857  35.604   4.744
89804W        W58178  21.059  39.899  12.473
89805W        W58179  32.503  11.866  14.935
89806W        W58180  23.233  31.089  10.034
89807W        W58181  30.080  38.833  11.119
89808W        W58182   4.770   1.318  10.078
89809W        W58183   3.370  17.286   0.952
89810W        W58184  25.015  30.034   1.421
89811W        W58185   0.885  14.306   4.670
89812W        W58186   7.786  13.169   0.458
89813W        W58187   1.319  37.985  11.912
89814W        W58188  22.736  23.203  11.485
89815W        W58189  44.865   6.833  12.408
89816W        W58190  18.144   4.803   3.273
89817W        W58191   4.435  24.008  13.890
89818W        W58192  43.776  26.963  13.377
89819W        W58193  32.950   6.207   1.376
89820W        W58194  20.109  20.253  12.989
89821W        W58195  44.863   8.362   3.662
89822W        W58196  21.644  31.579   4.827
89823W        W58197  20.740  36.512  13.421
89824W        W58198   9.305  16.265   1.385
89825W        W58199  18.262  29.593  12.876
89826W        W58200  10.721  16.657   3.363
89827W        W58201  37.903   4.346   1.376
89828W        W58202  21.636   2.962   3.784
89829W        W58203  33.115  18.056   2.303
89830W        W58204  13.828  43.421   4.635
89831W        W58205   0.831  36.888   0.326
89832W        W58206  14.321  42.294  11.416
89833W        W58207  14.271  40.882   2.728
89834W        W58208  33.898   2.404  11.114
89835W        W58209  20.769   3.843   2.769
89836W        W58210   1.955  26.105  11.422
89837W        W58211  41.823  36.896  12.485
89838W        W58212  26.624  17.769   3.235
89839W        W58213  29.025  39.008   1.823
89840W        W58214   7.267  32.094   3.181
89841W        W58215   3.430  12.153  12.090
89842W        W58216  29.435  39.915  14.898
89843W        W58217  36.030   9.246   3.843
89844W        W58218  11.138  40.959   2.330
89845W        W58219   4.897   6.413   0.442
89846W        W58220  37.499  13.802  13.425
89847W        W58221  26.969   5.220  14.349
89848W        W58222  14.240  44.285   1.214
89849W        W58223  41.843  41.538   1.757
89850W        W58224   0.934  12.310  13.402
89851W        W58225  34.488  16.588   4.275
89852W        W58226  30.420  37.528  14.471
89853W        W58227  19.068  28.471  14.969
89854W        W58228  33.427  17.742   1.870
89855W        W58229   1.467  15.292   0.948
89856W        W58230  40.394  32.455   3.760
89857W        W58231   5.341  10.329  10.107
89858W        W58232  35.887   2.784  13.033
89859W        W58233   9.291   7.768  11.096
89860W        W58234   4.280  19.264   3.630
89861W        W58235  36.354  31.927   4.695
89862W        W58236   4.351  42.961  13.888
89863W        W58237   2.885   4.220  14.017
89864W        W58238   6.211  12.727   1.883
89865W        W58239   6.725   5.710   2.714
89866W        W58240   9.327  19.587   3.709
89867W        W58241  21.580  30.484  13.354
89868W        W58242  15.316   0.981  13.973
89869W        W58243  21.646   4.400  12.561
89870W        W58244  37.057  37.569   1.796
89871W        W58245  43.461  26.458  10.901
89872W        W58246  13.157  28.587  11.887
89873W        W58247  42.367  29.077   4.779
89874W        W58248  12.184   1.397   4.292
89875W        W58249  10.741   0.922   4.118
89876W        W58250  34.377  31.528  12.992
89877W        W58251  36.954  29.124   2.801
89878W        W58252   8.255   0.335  14.790
89879W        W58253  15.622  42.921   2.325
89880W        W58254   4.277   0.337   2.742
89881W        W58255  31.153  25.156  12.459
89882W        W58256  35.504  33.901  13.522
89883W        W58257  25.691  34.999   3.842
89884W        W58258  31.124  12.175   2.666
89885W        W58259  30.633  44.295  12.349
89886W        W58260  17.197   7.800   1.362
89887W        W58261  37.498  39.944   2.334
89888W        W58262   3.325  26.004  13.427
89889W        W58263  44.785  39.346  12.997
89890W        W58264  39.000  42.906  11.897
89891W        W58265  27.471  10.678   2.760
89892W        W58266  31.548  31.512  10.404
89893W        W58267  33.496  31.921  14.790
89894W        W58268  11.202   8.770  12.451
89895W        W58269  42.336  14.822  10.462
89896W        W58270  20.243  15.090   1.432
89897W        W58271   0.752  44.820   4.622
89898W        W58272  15.307   6.852  13.020
89899W        W58273  41.854  32.135   3.775
89900W        W58274  39.374   8.802  12.412
89901W        W58275  41.469  41.887   1.232
89902W        W58276   1.397  10.241  12.436
89903W        W58277  26.682   5.718   3.775
89904W        W58278  28.062   1.280   1.921
89905W        W58279   7.749   7.727   4.328
89906W        W58280   6.733  13.730  11.935
89907W        W58281   5.815  16.576   0.757
89908W        W58282  27.007  16.153   3.800
89909W        W58283  19.251  21.100  10.568
89910W        W58284  22.138  28.438  13.846
89911W        W58285  30.490   5.203   1.431
89912W        W58286   9.326  26.647  14.356
89913W        W58287  26.467  17.141   4.345
89914W        W58288  44.872  34.924   9.924
89915W        W58289   8.287  25.091  12.523
89916W        W58290   2.766  37.055  14.021
89917W        W58291   9.324  35.548  10.494
89918W        W58292  10.235  27.682   2.254
89919W        W58293  21.592  21.049   5.130
89920W        W58294  18.570   1.422  10.447
89921W        W58295   0.363  38.331   3.863
89922W        W58296  24.097   2.884  14.397
89923W        W58297  23.037   1.360   0.898
89924W        W58298  22.143  21.074   0.390
89925W        W58299  24.017   1.756   3.821
89926W        W58300  27.012  25.157   1.888
89927W        W58301   8.723   1.828   2.271
89928W        W58302  40.813   2.371   2.884
89929W        W58303  30.420  30.974   4.339
89930W        W58304  18.622   4.373  14.465
89931W        W58305  18.574  30.001   4.145
89932W        W58306  32.942  20.087   1.314
89933W        W58307  20.585  38.863   2.683
89934W        W58308  39.910  36.912  11.542
89935W        W58309  13.334  33.899  14.515
89936W        W58310  25.472   7.344  10.922
89937W        W58311  14.124  12.133  12.479
89938W        W58312  16.768   9.772   5.571
89939W        W58313   0.870  36.849   0.892
89940W        W58314  13.250   9.648   4.177
89941W        W58315   1.304   8.819  10.542
89942W        W58316  23.625   6.807   4.638
89943W        W58317  23.733  33.996  12.459
89944W        W58318   3.387  34.104  11.988
89945W        W58319  28.013  38.852  12.078
89946W        W58320  23.093  15.151  10.934
89947W        W58321  10.744  12.622  10.561
89948W        W58322  44.393  41.873  11.890
89949W        W58323  17.606  36.487   4.146
89950W        W58324   5.397  24.017  11.526
89951W        W58325   4.387   7.685  11.457
89952W        W58326  40.905   9.826   3.251
89953W        W58327  37.043  43.832  11.109
89954W        W58328  13.321  10.875  11.483
89955W        W58329  40.990   6.837  13.791
89956W        W58330  21.240  28.093  10.600
89957W        W58331   0.761  32.470   0.432
89958W        W58332  24.183  19.702   2.416
89959W        W58333  13.794  37.484  13.429
89960W        W58334  31.447  12.712  10.984
89961W        W58335   9.721  11.634   1.737
89962W        W58336  18.251  29.962  13.005
89963W        W58337  41.395  29.157  12.045
89964W        W58338  42.308  19.185  12.543
89965W        W58339  34.474  36.901   2.742
89966W        W58340   9.162  32.995  10.934
89967W        W58341   0.308  16.671  10.480
89968W        W58342   0.341  33.086  12.537
89969W        W58343  30.918  28.610  11.459
89970W        W58344   6.791  19.534   5.248
89971W        W58345  17.061  29.601  10.424
89972W        W58346  44.965  34.473   1.279
89973W        W58347  10.212  33.512  13.492
89974W        W58348   4.861  26.611  14.934
89975W        W58349  11.728   8.809   4.144
89976W        W58350  25.677  14.710  14.849
89977W        W58351   6.378  13.292  12.858
89978W        W58352  42.400  36.513   0.811
89979W        W58353  15.288  11.265   3.246
89980W        W58354  35.556  19.116  13.383
89981W        W58355   4.423   2.784  10.905
89982W        W58356   2.938  12.714   3.249
89983W        W58357  26.140   8.756   1.212
89984W        W58358  10.817  20.554   1.782
89985W        W58359   8.746  30.564   4.118
89986W        W58360  22.125  14.741  12.489
89987W        W58361  29.472  12.116   2.794
89988W        W58362  34.872  22.120  14.401
89989W        W58363  23.621  18.767  10.427
89990W        W58364  42.392  13.633  14.871
89991W        W58365  42.784  42.452   0.960
89992W        W58366   1.354  30.126   0.868
89993W        W58367  32.941  18.195  13.844
89994W        W58368   2.323   5.207  14.450
89995W        W58369   7.726   8.223  11.494
89996W        W58370  42.508  41.463   0.806
89997W        W58371  34.877   2.827  11.384
89998W        W58372  10.248   6.207   4.642
89999W        W58373  13.324  40.322  11.418
90000W        W58374  32.891  42.330  13.392
90001W        W58375  21.535  31.517   9.457
90002W        W58376  33.521  32.089   0.420
90003W        W58377   8.260   5.808   4.117
90004W        W58378  24.004  17.260   4.603
90005W        W58379  23.631  34.874  10.619
90006W        W58380  10.814  41.798   3.707
90007W        W58381  41.481   7.295  12.528
90008W        W58382  23.214   2.266  11.443
90009W        W58383   5.295   4.353   9.675
90010W        W58384  39.484   1.261   0.797
90011W        W58385  12.847   0.330   1.305
90012W        W58386  15.771  31.953  11.858
90013W        W58387   5.915  42.848  10.520
90014W        W58388  38.971  16.110  14.762
90015W        W58389  32.991   0.420  11.929
90016W        W58390  44.863  17.256   4.163
90017W        W58391  11.747  32.926   2.214
90018W        W58392  37.073  11.648   1.863
90019W        W58393  42.493   2.914   3.163
90020W        W58394  33.926  34.060   1.863
90021W        W58395  28.570  15.603  11.557
90022W        W58396  15.132  21.117  14.991
90023W        W58397  42.524  25.982  11.483
90024W        W58398  10.768   5.766  12.437
90025W        W58399  17.229  44.473  11.967
90026W        W58400  25.163  29.629   3.274
90027W        W58401  20.268   0.942  14.296
90028W        W58402  33.126  42.800   3.712
90029W        W58403  36.554  24.051  12.570
90030W        W58404  42.517  34.375   3.164
90031W        W58405   9.153  29.057   5.689
90032W        W58406  26.470  40.357  14.398
90033W        W58407   0.298  44.389  14.356
90034W        W58408  40.991  28.609   1.394
90035W        W58409  18.121   9.853  13.040
90036W        W58410  37.505  24.596   1.855
90037W        W58411  41.853  12.841   1.807
90038W        W58412   8.281  23.591  11.588
90039W        W58413  16.804  25.706   1.774
90040W        W58414  10.748  15.763   1.265
90041W        W58415   0.491  24.061   1.371
90042W        W58416  28.608  16.813   0.321
90043W        W58417  27.460  18.555   2.332
90044W        W58418  23.169  36.554  13.448
90045W        W58419  37.948  36.036   4.298
90046W        W58420  39.932  32.958  14.361
90047W        W58421  13.168  39.846   0.840
90048W        W58422   3.885  14.272  14.799
90049W        W58423  12.653  33.032   3.331
90050W        W58424  44.886  37.519  14.003
90051W        W58425   2.288   1.916  10.632
90052W        W58426   7.666  37.554  14.312
90053W        W58427  32.049  41.985  10.433
90054W        W58428  42.936   9.302   4.305
90055W        W58429  21.082  30.509   1.846
90056W        W58430  12.759  37.924   4.814
90057W        W58431   6.853  12.350   3.176
90058W        W58432   3.756  44.326  10.080
90059W        W58433  26.592  42.402   4.193
90060W        W58434  32.926  20.166  11.980
90061W        W58435   0.785  39.376  14.295
90062W        W58436   5.274  26.013   1.713
90063W        W58437  33.905  37.512   0.341
90064W        W58438  28.947   7.873   4.818
90065W        W58439  25.217  30.947   1.424
90066W        W58440   7.696  38.365  12.473
90067W        W58441  17.268  19.100   0.441
90068W        W58442  21.707  18.594  14.850
90069W        W58443  29.603  34.405   4.645
90070W        W58444  38.972  16.131  11.497
90071W        W58445  11.644  30.433  14.483
90072W        W58446  32.110  20.737  12.986
90073W        W58447  21.039  10.870  13.365
90074W        W58448  27.119  28.575  13.015
90075W        W58449  34.517  26.062   0.396
90076W        W58450  18.682  41.880  12.035
90077W        W58451  44.890  19.062  14.497
90078W        W58452  10.826  12.795  12.415
90079W        W58453  18.698  14.205  11.376
90080W        W58454   8.264  34.890   3.851
90081W        W58455  22.228  12.343   0.901
90082W        W58456  17.652  26.169  12.421
90083W        W58457  14.802  22.647  14.875
90084W        W58458  17.273  22.086   4.316
90085W        W58459  32.600  12.740   0.938
90086W        W58460  41.038  33.015   3.274
90087W        W58461   8.371  42.431  11.088
90088W        W58462  22.154  17.679  13.960
90089W        W58463  21.140  31.612   2.772
90090W        W58464  40.887  27.514  14.440
90091W        W58465   2.423  37.546  13.011
90092W        W58466  17.255  18.059  14.501
90093W        W58467   0.918  18.598   2.285
90094W        W58468  11.739  22.033   4.142
90095W        W58469  18.052   1.312  11.549
90096W        W58470   6.762   4.325   1.215
90097W        W58471  30.927  18.111   3.729
90098W        W58472   2.460  25.147  11.558
90099W        W58473  44.876  28.642  10.582
90100W        W58474  23.195   2.926   2.328
90101W        W58475  20.041  23.636  13.996
90102W        W58476  31.144  38.343   2.220
90103W        W58477   5.919  40.494   0.402
90104W        W58478  27.521  12.239   4.703
90105W        W58479   9.152  28.146  13.847
90106W        W58480  16.120  11.750   0.262
90107W        W58481  16.264  44.829  14.936
90108W        W58482  34.390  29.986  13.520
90109W        W58483  27.518   9.200  11.101
90110W        W58484  30.046  30.089   0.933
90111W        W58485  18.109  17.610  12.038
90112W        W58486   7.746  27.686  14.913
90113W        W58487  12.338  33.430   2.797
90114W        W58488   6.332   1.463  11.540
90115W        W58489  18.566  11.697   1.318
90116W        W58490  35.885  15.598   0.469
90117W        W58491  33.996   2.414  10.429
90118W        W58492  34.039   8.283  14.920
90119W        W58493  35.595  26.158   4.693
90120W        W58494  18.107   1.760  12.380
90121W        W58495  23.016  38.043  12.824
90122W        W58496  40.826  36.458  14.011
90123W        W58497   8.253   3.399   4.607
90124W        W58498  10.675  42.954  11.926
90125W        W58499  23.163  21.119   2.246
90126W        W58500   0.801  10.861   4.241
90127W        W58501  37.400  40.836   4.628
90128W        W58502  26.962  36.486   3.670
90129W        W58503   1.896   5.875  14.382
90130W        W58504  39.425   2.322  14.837
90131W        W58505  24.220  43.921  13.916
90132W        W58506  23.225  39.867  13.063
90133W        W58507   3.265  32.987  11.961
90134W        W58508  12.191  32.134   2.188
90135W        W58509  37.421   8.832   4.731
90136W        W58510  41.891  40.814   2.363
90137W        W58511   9.165  29.015   2.755
90138W        W58512  36.546  35.458  12.375
90139W        W58513  14.170  25.690  10.614
90140W        W58514  24.581  13.613  13.453
90141W        W58515  30.928  43.773   4.637
90142W        W58516  15.633  12.255   0.942
90143W        W58517  27.555  14.330  13.509
90144W        W58518  25.662  16.243  13.496
90145W        W58519  29.934  38.489  12.578
90146W        W58520   6.340  23.180  14.504
90147W        W58521  30.462   5.905   1.280
90148W        W58522  24.186  37.505  13.382
90149W        W58523   8.674  42.464  10.429
90150W        W58524  11.808   3.369  10.108
90151W        W58525  18.768  26.088   3.718
90152W        W58526  36.999  30.100  14.384
90153W        W58527  25.962  36.913  10.486
90154W        W58528  10.259  18.728   2.850
90155W        W58529  13.721  31.077  11.598
90156W        W58530  39.554   0.480   4.669
90157W        W58531   8.720  13.838  11.885
90158W        W58532  13.681  15.210   3.641
90159W        W58533   7.790   3.856   0.759
90160W        W58534  12.670  18.272   0.939
90161W        W58535  30.548  42.487  12.939
90162W        W58536  18.547   9.885  12.946
90163W        W58537  13.178  44.002   1.802
90164W        W58538  39.417  18.289  12.518
90165W        W58539  35.415  27.955   1.929
90166W        W58540  12.313  22.738   1.903
90167W        W58541  11.708  27.180   0.965
90168W        W58542  41.979  39.032   1.935
90169W        W58543  40.853  35.394   1.909
90170W        W58544  19.677  36.849  13.807
90171W        W58545   9.779   8.210   3.270
90172W        W58546  38.016  31.645   3.183
90173W        W58547  30.420  40.861  13.349
90174W        W58548  15.265  30.629   4.653
90175W        W58549  16.715  16.265   1.254
90176W        W58550  42.515  37.980  13.929
90177W        W58551  12.629  29.031   1.882
90178W        W58552   6.833   3.395   1.874
90179W        W58553   5.305  42.845   0.873
90180W        W58554   2.797  29.635   0.262
90181W        W58555  28.946  41.029  14.903
90182W        W58556  33.579  17.652   0.861
90183W        W58557  35.505   8.706   0.441
90184W        W58558  35.461  39.899   0.475
90185W        W58559  26.139  29.084  11.077
90186W        W58560  15.281  40.801  10.593
90187W        W58561   3.358  30.428  12.461
90188W        W58562  32.054  25.086   2.677
90189W        W58563  28.492  39.334  14.419
90190W        W58564  27.187  41.434   2.209
90191W        W58565  42.437  35.021   0.880
90192W        W58566  37.456   8.742   2.398
90193W        W58567  43.514  18.273  10.968
90194W        W58568  27.145   1.266   1.253
90195W        W58569  14.694  29.968  10.521
90196W        W58570   7.216  40.830   1.278
90197W        W58571   5.767   4.717   4.778
90198W        W58572  32.598  37.406   2.206
90199W        W58573  30.066  39.450   0.947
90200W        W58574  16.283  13.725   3.350
90201W        W58575   1.331  41.320  14.343
90202W        W58576  42.364  19.070  11.500
90203W        W58577   1.750  32.913   4.219
90204W        W58578   2.236  43.441  14.973
90205W        W58579  13.628   7.905  12.469
90206W        W58580  35.567  11.240  14.868
90207W        W58581  18.057  16.787   3.677
90208W        W58582  30.003  20.271  10.473
90209W        W58583  36.065  18.178  14.886
90210W        W58584  43.820  29.963   3.238
90211W        W58585  37.521  32.080  10.898
90212W        W58586  39.857  19.657   4.622
90213W        W58587  36.060  10.220   5.228
90214W        W58588  41.522  40.871   4.650
90215W        W58589  40.546   3.847   0.329
90216W        W58590   2.304  34.439   2.286
90217W        W58591   7.693  34.602   1.287
90218W        W58592  40.501   5.719   1.373
90219W        W58593  35.094   0.894   3.845
90220W        W58594  25.610  12.173  13.494
90221W        W58595  39.453  13.116  11.514
90222W        W58596   9.201   9.211   1.292
90223W        W58597  20.233  13.750  13.858
90224W        W58598  44.819  44.860   1.732
90225W        W58599  30.927  34.079  12.572
90226W        W58600   2.841  43.501   3.845
90227W        W58601  41.389   1.373  11.014
90228W        W58602  15.652   2.300   1.242
90229W        W58603  42.876  32.928  10.079
90230W        W58604  19.240  34.048  10.520
90231W        W58605  20.201  21.181  14.831
90232W        W58606  28.673  43.875   1.887
90233W        W58607   8.207  19.164  10.573
90234W        W58608  32.402   3.320   4.612
90235W        W58609  39.473  10.752   3.160
90236W        W58610  12.265  34.424  12.489
90237W        W58611  24.698   5.832  12.974
90238W        W58612  43.497  12.741  14.353
90239W        W58613  27.052  42.323  13.403
90240W        W58614   4.319  34.065  10.569
90241W        W58615  43.769  14.696   3.267
90242W        W58616  35.580  12.679  12.933
90243W        W58617  39.432  23.061  11.961
90244W        W58618  17.718  19.551  11.967
90245W        W58619  35.993  17.670  12.030
90246W        W58620  14.259  36.491   1.876
90247W        W58621  29.043  34.930  13.793
90248W        W58622  27.586  33.540  14.510
90249W        W58623  35.961  38.529  13.050
90250W        W58624  11.253  36.532   4.228
90251W        W58625  31.506   1.795   1.748
90252W        W58626  44.362  24.558  14.778
90253W        W58627  43.975  30.649  11.485
90254W        W58628  33.007  23.546   3.666
90255W        W58629   6.858  20.720  13.458
90256W        W58630  32.959  43.486  14.939
90257W        W58631  10.295  25.612  14.462
90258W        W58632  24.160  44.374  11.520
90259W        W58633   1.311   7.703  12.000
90260W        W58634  27.998  39.472   4.134
90261W        W58635  29.627  19.193  10.413
90262W        W58636   5.310  44.423  13.516
90263W        W58637   5.267  13.673   0.941
90264W        W58638  23.651   3.926   3.359
90265W        W58639  44.466   1.417  12.579
90266W        W58640  38.426   8.265  11.530
90267W        W58641  19.590  44.886   0.389
90268W        W58642   9.712  10.229   3.332
90269W        W58643  23.987  27.984   2.670
90270W        W58644  27.600  30.593   2.790
90271W        W58645  13.147  22.644  11.070
90272W        W58646  14.297  43.845   1.803
90273W        W58647  39.025  15.664  14.469
90274W        W58648   3.782   9.813  13.335
90275W        W58649  14.319   0.869  11.086
90276W        W58650  42.299  23.084  10.408
90277W        W58651  31.404  34.935  11.103
90278W        W58652  35.385   6.279  13.973
90279W        W58653  44.901  41.355   2.341
90280W        W58654  12.724  27.480   4.806
90281W        W58655  16.219  17.649   1.247
90282W        W58656  13.665  10.167   3.155
90283W        W58657  24.085  12.229  10.471
90284W        W58658  17.144  32.138   3.737
90285W        W58659  42.304  29.969   3.372
90286W        W58660  11.774  24.220   1.804
90287W        W58661  13.121  24.150  12.857
90288W        W58662  41.896  32.117   1.343
90289W        W58663  25.566  23.163   1.791
90290W        W58664  32.124  24.112  13.396
90291W        W58665  35.569   5.882  14.995
90292W        W58666  30.654   6.333  10.533
90293W        W58667   0.401  23.707  14.460
90294W        W58668  26.475  16.647   3.321
90295W        W58669  26.515  26.981  11.570
90296W        W58670  36.519  26.641  10.080
90297W        W58671  14.752  38.415   0.843
90298W        W58672  23.050  13.650   3.348
90299W        W58673   8.868   6.272  13.361
90300W        W58674   8.667   0.263  11.099
90301W        W58675  36.970  31.637   0.759
90302W        W58676  29.668  13.282  14.490
90303W        W58677  29.458  20.200  12.365
90304W        W58678  22.199  40.875  14.791
90305W        W58679  16.127  17.566   3.674
90306W        W58680  42.473  39.989   1.771
90307W        W58681  32.520  15.743   0.429
90308W        W58682   0.482   1.465   2.341
90309W        W58683  24.592  35.014  11.416
90310W        W58684   6.363  34.999   4.749
90311W        W58685  15.160  34.978  14.940
90312W        W58686  43.009  35.496  11.085
90313W        W58687   1.301   1.799  11.558
90314W        W58688  25.087   0.420  13.873
90315W        W58689   5.371  42.832  12.913
90316W        W58690  35.938  42.376   3.684
90317W        W58691  36.977  39.478   4.616
90318W        W58692  14.294   1.832  12.468
90319W        W58693  24.623  27.481   2.899
90320W        W58694  16.080  36.990   3.800
90321W        W58695  42.451  35.058  14.467
90322W        W58696  19.204  12.277  10.944
90323W        W58697   9.270   8.688  14.930
90324W        W58698  44.995  27.154   0.306
90325W        W58699  29.594   7.860  13.950
90326W        W58700  33.459  20.695   3.369
90327W        W58701  38.055  21.731  12.974
90328W        W58702  41.873  39.911   2.841
90329W        W58703  24.713  22.575  14.365
90330W        W58704  24.594  21.695  14.907
90331W        W58705  38.052  32.907  14.881
90332W        W58706  22.509  36.867  10.055
90333W        W58707  19.181  31.095   2.201
90334W        W58708  22.583  29.478   3.192
90335W        W58709  40.332  27.100  14.488
90336W        W58710   0.832   8.781  13.051
90337W        W58711  13.328  32.492  14.464
90338W        W58712  21.629  12.124  11.520
90339W        W58713  26.004   4.252  13.892
90340W        W58714  36.027  13.797  13.807
90341W        W58715  32.130  40.532   0.934
90342W        W58716  36.090  18.108   4.151
90343W        W58717   7.893  38.475  11.606
90344W        W58718  40.047  14.106   2.833
90345W        W58719  38.548  40.979  12.407
90346W        W58720  33.609  43.983  13.416
90347W        W58721  29.451  44.426   1.297
90348W        W58722  35.944   5.301   1.341
90349W        W58723   2.777   9.753  13.800
90350W        W58724  14.129  37.066   3.856
90351W        W58725   1.783  29.605   3.744
90352W        W58726   3.772   8.294  11.891
90353W        W58727  15.795  40.951  10.942
90354W        W58728  32.614  42.902   3.646
90355W        W58729  19.177  37.007  13.484
90356W        W58730  11.172  21.023   3.855
90357W        W58731   9.306  20.582   4.209
90358W        W58732  31.968   0.810  12.974
90359W        W58733  38.564  25.703   4.258
90360W        W58734  17.240  16.270  14.345
90361W        W58735   5.818  31.516  12.058
90362W        W58736  35.963  33.997  14.966
90363W        W58737  44.288   0.427  14.997
90364W        W58738  17.274  30.457  10.025
90365W        W58739  22.621   3.731   2.707
90366W        W58740  33.117  31.606   2.347
90367W        W58741   0.911   7.372  11.983
90368W        W58742   0.383  18.641   2.267
90369W        W58743  25.598  42.000  10.504
90370W        W58744  37.048   9.315   4.247
90371W        W58745  42.923  23.219  14.919
90372W        W58746  13.802   4.933   1.381
90373W        W58747  41.998  33.483  10.077
90374W        W58748  31.073  31.076   3.777
90375W        W58749  15.729  23.160   3.665
90376W        W58750  41.918  41.495   4.794
90377W        W58751  11.275  27.663   0.762
90378W        W58752   3.750  40.950   3.149
90379W        W58753  14.615   7.322   1.889
90380W        W58754  37.497   6.193   2.245
90381W        W58755  17.062  33.129  14.433
90382W        W58756   8.898  28.444  13.472
90383W        W58757  10.818  31.568   2.691
90384W        W58758   4.230  20.623   2.237
90385W        W58759  22.074  32.517   1.791
90386W        W58760  27.574  42.363   5.221
90387W        W58761   2.889  17.655   4.170
90388W        W58762  38.031  33.383   4.664
90389W        W58763  24.025  21.683  12.494
90390W        W58764  29.575  17.721  12.851
90391W        W58765  21.597   5.305  11.109
90392W        W58766  27.192  34.919   3.651
90393W        W58767  13.675  22.142   4.343
90394W        W58768  44.758  44.394   9.953
90395W        W58769  27.080   7.890  11.973
90396W        W58770  36.590  33.982   0.791
90397W        W58771  41.814  10.811   1.907
90398W        W58772  17.767   6.891  12.383
90399W        W58773   7.854  24.592  14.299
90400W        W58774  43.328  44.286   2.392
90401W        W58775  21.536   8.321  11.011
90402W        W58776  18.232   9.745  13.539
90403W        W58777  20.054  41.392   4.827
90404W        W58778   6.753  35.938   4.346
90405W        W58779  20.599  31.120  13.005
90406W        W58780  42.787  12.194   0.795
90407W        W58781  35.954  13.325   0.941
90408W        W58782  43.367  25.080  11.552
90409W        W58783  11.251   5.306  14.324
90410W        W58784  31.581  32.567  12.006
90411W        W58785   9.172  39.041  12.395
90412W        W58786  42.023  14.291  13.812
90413W        W58787  13.193  25.194   2.295
90414W        W58788  44.790  40.919   2.864
90415W        W58789   3.323  34.438   3.717
90416W        W58790  36.487  20.155  14.294
90417W        W58791  40.342  22.680   4.779
90418W        W58792  42.294   4.405  12.508
90419W        W58793  33.897  31.954  11.930
90420W        W58794  13.746  28.953   2.734
90421W        W58795   1.369  24.708   0.342
90422W        W58796  26.048  16.567  11.024
90423W        W58797  11.271  34.406   0.851
90424W        W58798  35.534  15.235   4.202
90425W        W58799   9.837  23.106   3.696
90426W        W58800   5.425   6.242   0.349
90427W        W58801  30.126   2.253  10.916
90428W        W58802  17.295  44.472  13.868
90429W        W58803   0.892  24.027   4.599
90430W        W58804  18.197  41.926  10.644
90431W        W58805  17.074  29.163  10.074
90432W        W58806   9.366  41.483   2.862
90433W        W58807  15.159  11.801  10.075
90434W        W58808  29.658  34.447   1.786
90435W        W58809  21.560   8.339   0.834
90436W        W58810  18.142  27.522   2.319
90437W        W58811   3.879  40.515  10.563
90438W        W58812  17.176  38.924   1.724
90439W        W58813   5.356  16.259   0.465
90440W        W58814  12.854  17.213  11.419
90441W        W58815  42.391   4.748  14.392
90442W        W58816  33.427  30.440  12.410
90443W        W58817  30.617  39.965   3.361
90444W        W58818  25.066  43.005  14.771
90445W        W58819  37.521  33.130  12.942
90446W        W58820   5.374  31.029   4.208
90447W        W58821  34.061  36.093  12.928
90448W        W58822  34.100  36.066  10.943
90449W        W58823  25.663  10.222  14.985
90450W        W58824  29.537  36.913  11.426
90451W        W58825  25.530  31.996   1.394
90452W        W58826   4.915  14.221  14.360
90453W        W58827  12.708  22.063  13.006
90454W        W58828  43.516  44.388  11.059
90455W        W58829   7.811  22.718  10.991
90456W        W58830   6.310   8.244  11.949
90457W        W58831  20.588  43.405   0.268
90458W        W58832   0.906  41.411   2.189
90459W        W58833  15.615   5.218   3.359
90460W        W58834  35.548  22.236   4.675
90461W        W58835   0.487   8.692   1.377
90462W        W58836   2.789  11.868  13.801
90463W        W58837  26.153  31.086  12.369
90464W        W58838  20.240   2.923  13.375
90465W        W58839   5.274   5.925   3.838
90466W        W58840  17.696   4.832  11.898
90467W        W58841  21.702  34.883  14.940
90468W        W58842   3.240   9.730  11.987
90469W        W58843   5.720  43.843  10.984
90470W        W58844  17.067  44.357  10.417
90471W        W58845  21.747  14.273  12.017
90472W        W58846   9.183  13.800   1.428
90473W        W58847   0.976  26.019   2.320
90474W        W58848  38.956  31.058  14.818
90475W        W58849  22.589   2.295   1.853
90476W        W58850  29.030  19.587   0.884
90477W        W58851   6.318  20.180  10.477
90478W        W58852  11.248   5.903   0.875
90479W        W58853  28.598  29.620   3.698
90480W        W58854  13.750  15.782   0.819
90481W        W58855  44.419  28.962   4.260
90482W        W58856  36.379  32.015   4.264
90483W        W58857  31.991  21.213   4.314
90484W        W58858  42.923  26.154   0.441
90485W        W58859  42.932   6.731   4.815
90486W        W58860  30.147  37.409  14.458
90487W        W58861  35.917  23.090  13.061
90488W        W58862   0.914   6.354   1.407
90489W        W58863  30.948  41.011  12.982
90490W        W58864  43.793   5.348  11.948
90491W        W58865  26.101   1.839   2.679
90492W        W58866  22.160   1.810  12.387
90493W        W58867  15.160  34.016   4.829
90494W        W58868  19.573  17.634  12.474
90495W        W58869   9.213  23.219   3.860
90496W        W58870  27.466  19.145  11.575
90497W        W58871  21.027   5.710  11.978
90498W        W58872  38.509  15.763   4.679
90499W        W58873  19.589  44.474  13.340
90500W        W58874  30.493  11.821  10.962
90501W        W58875   1.262  36.363   3.214
90502W        W58876  22.233  16.569   0.806
90503W        W58877   5.390  39.520  11.521
90504W        W58878  13.272  19.069   3.795
90505W        W58879  42.961  15.145  11.509
90506W        W58880  26.985   2.859  13.008
90507W        W58881  32.467  29.954   2.840
90508W        W58882   5.897  33.406   4.762
90509W        W58883  22.997  19.765   2.236
90510W        W58884  29.630  38.503  12.963
90511W        W58885  14.290  39.377   1.922
90512W        W58886  19.057  27.653   1.240
90513W        W58887  23.987  29.026  13.810
90514W        W58888  26.520  29.173   0.959
90515W        W58889   3.953  25.167   2.235
90516W        W58890  28.659  23.026   1.236
90517W        W58891  11.301   3.297   0.950
90518W        W58892  41.852   0.373   0.282
90519W        W58893  28.060  37.391   2.367
90520W        W58894  33.501  41.855   0.392
90521W        W58895  19.162   9.827   4.730
90522W        W58896   6.720  24.563   0.255
90523W        W58897  12.719  30.560  14.946
90524W        W58898  25.097  41.913  10.910
90525W        W58899  15.083  17.668  13.374
90526W        W58900  29.048   8.379   3.755
90527W        W58901  29.084  36.070  13.398
90528W        W58902  18.669  39.451   0.901
90529W        W58903  33.590  16.178  11.884
90530W        W58904  11.129   3.752   4.782
90531W        W58905  19.039  38.369  12.379
90532W        W58906  12.789  28.598  10.472
90533W        W58907  24.591  16.249   3.238
90534W        W58908  34.561  44.894  11.389
90535W        W58909  28.598   8.329   2.686
90536W        W58910  13.105  26.951  11.588
90537W        W58911  38.064   7.341  10.033
90538W        W58912  22.673  19.597  11.088
90539W        W58913  19.592  43.418  14.908
90540W        W58914  37.908  31.402   4.788
90541W        W58915  29.428  27.017   2.355
90542W        W58916  38.401   4.412  14.003
90543W        W58917   9.654  21.091  13.943
90544W        W58918  26.457  39.003   2.708
90545W        W58919  42.409  22.188   2.339
90546W        W58920  27.606   3.320  12.497
90547W        W58921  20.721  40.034  12.918
90548W        W58922   0.911   8.662   3.201
90549W        W58923   1.305  25.051   2.763
90550W        W58924  17.236  28.983   3.791
90551W        W58925  32.138  23.211  10.491
90552W        W58926  17.721  15.649   2.297
90553W        W58927  35.514  26.097   2.718
90554W        W58928  22.626  30.123  14.981
90555W        W58929  17.099  14.328  11.061
90556W        W58930  39.854  24.677   2.728
90557W        W58931  11.713  14.802  13.889
90558W        W58932  13.824   1.776  10.997
90559W        W58933  10.375  24.679  10.411
90560W        W58934  17.167   1.966   4.206
90561W        W58935  21.567   1.868  10.887
90562W        W58936  32.000  36.089   3.637
90563W        W58937  34.446  29.522   4.675
90564W        W58938   7.666  22.641  13.473
90565W        W58939  24.713  16.082   4.638
90566W        W58940  12.710   2.389  14.339
90567W        W58941  33.130  22.244   3.277
90568W        W58942   0.442   5.224   4.269
90569W        W58943   9.741  29.580  13.339
90570W        W58944   5.402   3.720  13.388
90571W        W58945  26.677  12.176   4.262
90572W        W58946  38.024   5.738   2.355
90573W        W58947  32.466  17.726   4.251
90574W        W58948   1.400   6.322  14.956
90575W        W58949   8.301  24.554  14.917
90576W        W58950  11.354   8.787   4.632
90577W        W58951   8.793  40.375   4.678
90578W        W58952  40.377  29.015   3.305
90579W        W58953   6.877  32.934   1.833
90580W        W58954  28.491  18.112   5.083
90581W        W58955  29.039  25.479   2.367
90582W        W58956   8.250  30.431   0.892
90583W        W58957  28.942  39.511   1.287
90584W        W58958  39.005   0.938   2.374
90585W        W58959  40.460  38.542  13.860
90586W        W58960  29.558  30.434   4.236
90587W        W58961  11.354   9.330  10.551
90588W        W58962  29.594   2.762   4.686
90589W        W58963  34.929  37.878   3.257
90590W        W58964   2.415   6.369  13.328
90591W        W58965   2.302  41.039   4.324
90592W        W58966  30.655   5.205   3.204
90593W        W58967  37.499   4.252   1.716
90594W        W58968  18.237  23.500   0.811
90595W        W58969  22.565   7.329  14.343
90596W        W58970   4.394  21.732  10.427
90597W        W58971  36.076   7.666   0.937
90598W        W58972   1.451  32.615  13.916
90599W        W58973   9.232  37.848   2.723
90600W        W58974  25.054  42.007  12.448
90601W        W58975  12.724  28.033  11.021
90602W        W58976  41.991  26.157  13.488
90603W        W58977  22.215  30.948   3.711
90604W        W58978  26.167  42.928  14.978
90605W        W58979  16.263  38.364   3.750
90606W        W58980  30.579  33.912   2.853
90607W        W58981  41.944  13.805  12.927
90608W        W58982  31.051  24.013  12.946
90609W        W58983  30.079  43.403  12.356
90610W        W58984   2.327  21.612  13.956
90611W        W58985  33.561  32.576   1.718
90612W        W58986   5.929   4.773   4.206
90613W        W58987   3.347  28.549  12.524
90614W        W58988  43.803  24.111  10.564
90615W        W58989   6.900  14.229  14.975
90616W        W58990   6.772   2.301   5.138
90617W        W58991  36.004  42.407  13.861
90618W        W58992  16.167  41.427   0.296
90619W        W58993  30.062  24.147  13.987
90620W        W58994  19.132   2.959  13.519
90621W        W58995  24.534  37.412   2.244
90622W        W58996  21.621   3.322  12.554
90623W        W58997  38.980  10.208  11.567
90624W        W58998  41.477   9.150  13.864
90625W        W58999  34.974   1.827  10.634
90626W        W59000  25.163  42.373   1.353
90627W        W59001  41.452   9.354   4.297
90628W        W59002  29.606  41.485  10.466
90629W        W59003  22.532  14.127  14.393
90630W        W59004  43.322  17.282  10.016
90631W        W59005  43.828  32.563  14.506
90632W        W59006  20.528  33.431  14.766
90633W        W59007  20.629  16.274   2.407
90634W        W59008   0.947  41.462  13.327
90635W        W59009   2.874  29.493   1.285
90636W        W59010  27.560  16.105   1.323
90637W        W59011  13.607  16.187  10.456
90638W        W59012  13.658  41.870  13.418
90639W        W59013   6.256  38.446  13.791
90640W        W59014  25.592  24.115  13.458
90641W        W59015   8.879  40.435   2.333
90642W        W59016  41.396   7.712  14.789
90643W        W59017  42.809  35.520   1.805
90644W        W59018  41.862  40.385  11.044
90645W        W59019  15.274  41.825  12.963
90646W        W59020  19.736  37.402   0.811
90647W        W59021   8.657  11.685   1.800
90648W        W59022   8.396  23.070  14.396
90649W        W59023  42.012  25.060  10.054
90650W        W59024  18.678  37.051   1.400
90651W        W59025  18.719   7.408  12.430
90652W        W59026  37.923  18.070   1.914
90653W        W59027  19.717  31.611  10.546
90654W        W59028  12.174  20.084   2.735
90655W        W59029  11.737  15.698  14.965
90656W        W59030  26.030  31.123  10.994
90657W        W59031  17.617  37.462   2.365
90658W        W59032  33.458  28.524  13.929
90659W        W59033  34.914   2.421   1.931
90660W        W59034  26.546  38.983   4.615
90661W        W59035  17.763  33.488  14.915
90662W        W59036   2.350  39.061  11.120
90663W        W59037  34.477  35.378   0.387
90664W        W59038   5.207  28.533   4.659
90665W        W59039  28.492  29.577  13.537
90666W        W59040  14.607  38.539   0.277
90667W        W59041  15.729  28.970   9.940
90668W        W59042  13.266  42.465   1.439
90669W        W59043  15.670  35.030  11.531
90670W        W59044  33.028  32.068   1.345
90671W        W59045  28.941  28.028  11.978
90672W        W59046   1.467   1.821  14.020
90673W        W59047  16.089   4.308  11.877
90674W        W59048  21.661  11.152   4.802
90675W        W59049  40.410  24.670   2.783
90676W        W59050  16.141  29.030   2.755
90677W        W59051  31.129  43.883   4.162
90678W        W59052  10.157  15.784   0.952
90679W        W59053  14.185  20.672  14.830
90680W        W59054  40.832  17.176   3.207
90681W        W59055  24.724  22.539  12.470
90682W        W59056   6.761  11.708   0.287
90683W        W59057  43.010  35.450   2.846
90684W        W59058  26.486  30.533   4.263
90685W        W59059   0.296  36.399  13.436
90686W        W59060  17.258  44.484   1.908
90687W        W59061  18.608  27.010  10.928
90688W        W59062  36.567  42.294  13.993
90689W        W59063  26.026  20.651   1.413
90690W        W59064  25.694  33.050   3.361
90691W        W59065   6.341  44.810   1.439
90692W        W59066  16.282   1.330   3.692
90693W        W59067  37.863  20.682  10.642
90694W        W59068  23.706   8.169  12.394
90695W        W59069  20.099  13.257   3.368
90696W        W59070  28.039  24.219  12.435
90697W        W59071   3.407  22.139   4.654
90698W        W59072  21.646  24.581  14.387
90699W        W59073  14.118  33.087  10.991
90700W        W59074   6.224  40.488   0.765
90701W        W59075  35.432  16.720   2.272
90702W        W59076  33.571  24.980   2.682
90703W        W59077  19.681  39.487  14.377
90704W        W59078  13.614  43.003   3.802
90705W        W59079  21.747  35.015   2.746
90706W        W59080   4.846  29.601   2.664
90707W        W59081  27.060  37.049  13.847
90708W        W59082  13.619  27.464  14.924
90709W        W59083  12.687  19.093  12.561
90710W        W59084  36.571  25.092   4.183
90711W        W59085  21.147   2.895  11.421
90712W        W59086  32.905  16.743   3.838
90713W        W59087  10.181  41.512  13.397
90714W        W59088  19.547  20.177   0.440
90715W        W59089   0.883  20.090  11.376
90716W        W59090  29.524  31.490   4.647
90717W        W59091  41.498   6.241  11.470
90718W        W59092  25.693  43.905  13.029
90719W        W59093   4.895  19.596   2.810
90720W        W59094  41.009  23.519  13.405
90721W        W59095  22.553  15.752  11.600
90722W        W59096  25.179  40.482   3.655
90723W        W59097  25.540  43.376   0.292
90724W        W59098   5.310  14.119   0.796
90725W        W59099  17.662  28.628  14.815
90726W        W59100  23.529  27.162   1.348
90727W        W59101  12.760  37.047   1.834
90728W        W59102  33.909  11.280   0.371
90729W        W59103  24.050  11.627   2.688
90730W        W59104  33.982  10.844  14.344
90731W        W59105  22.138  36.977   9.467
90732W        W59106  40.364  22.582   4.319
90733W        W59107  27.999  17.772   1.812
90734W        W59108  40.360   8.778  12.532
90735W        W59109  27.663  41.801  12.533
90736W        W59110  27.120  42.514   4.195
90737W        W59111   5.407  32.886   1.220
90738W        W59112   8.254   3.391   3.254
90739W        W59113   7.292  13.730   0.749
90740W        W59114  31.458  11.670   0.323
90741W        W59115  34.595  16.795   1.426
90742W        W59116  29.134  11.213  13.363
90743W        W59117  23.586  22.130  13.864
90744W        W59118  18.085   4.915   3.715
90745W        W59119  23.001  38.449  13.497
90746W        W59120   5.879   4.742   0.377
90747W        W59121  26.966   2.231  11.115
90748W        W59122  35.912  39.030   0.439
90749W        W59123  34.462  16.758  10.936
90750W        W59124  13.843  29.438   1.233
90751W        W59125  23.998  21.099   4.350
90752W        W59126  40.342   7.200   9.978
90753W        W59127  22.092  20.134   4.208
90754W        W59128  21.194  36.356   2.676
90755W        W59129  33.877  44.298  14.491
90756W        W59130  41.026   5.398  13.426
90757W        W59131  34.957  25.183  13.815
90758W        W59132   0.349  33.472   1.789
90759W        W59133   9.218  24.109  12.445
90760W        W59134   0.868  21.070  14.461
90761W        W59135  35.874  24.558   0.926
90762W        W59136  31.014  36.083  11.584
90763W        W59137  24.508  18.620  13.965
90764W        W59138  19.657  34.383  14.883
90765W        W59139  42.461  36.843   3.237
90766W        W59140  44.001  28.063   1.358
90767W        W59141  22.998  31.064  11.999
90768W        W59142  37.896  27.511   4.666
90769W        W59143  18.167  12.338  11.032
90770W        W59144   5.254  12.298   2.267
90771W        W59145  21.677  30.149   9.662
90772W        W59146  36.441  38.845  11.496
90773W        W59147  18.702   2.373  14.778
90774W        W59148  15.308  34.564   4.291
90775W        W59149  18.674   4.855  14.956
90776W        W59150  22.701  31.976   1.352
90777W        W59151  18.188  20.747   4.329
90778W        W59152  24.141   0.304   2.369
90779W        W59153  10.781  28.167   4.116
90780W        W59154  43.375  16.779   2.291
90781W        W59155  29.576  14.181   2.200
90782W        W59156  39.380  28.027  11.933
90783W        W59157   9.206  22.157  12.008
90784W        W59158   2.790   4.720   1.877
90785W        W59159  41.035  30.435  11.516
90786W        W59160  10.854  10.831  13.870
90787W        W59161  23.713  10.799   1.841
90788W        W59162  33.008  14.812  11.535
90789W        W59163  12.697   3.315  14.387
90790W        W59164  24.572  42.299   4.795
90791W        W59165  42.831   8.237   1.745
90792W        W59166  21.045  44.862  13.509
90793W        W59167  23.997  34.404   2.228
90794W        W59168  35.523  24.001  13.048
90795W        W59169  21.753  32.033   3.745
90796W        W59170  25.612  37.484  14.872
90797W        W59171  11.142  10.149   2.845
90798W        W59172   1.388  43.293  10.441
90799W        W59173  44.853  33.883   4.157
90800W        W59174  28.022  10.302  10.459
90801W        W59175  29.050  14.332  14.459
90802W        W59176   8.348  33.610   4.198
90803W        W59177  22.538   1.412  12.070
90804W        W59178  36.956  42.512   4.658
90805W        W59179  12.180  36.079  10.644
90806W        W59180  37.577  15.202   4.297
90807W        W59181  40.337  10.155  11.613
90808W        W59182  11.742  36.895   4.729
90809W        W59183  21.667   6.336   4.819
90810W        W59184  38.053  12.165   2.360
90811W        W59185  42.914  25.485   1.402
90812W        W59186   0.864  30.490  13.037
90813W        W59187  33.475  21.055   9.923
90814W        W59188  38.923  36.428  12.548
90815W        W59189   5.908  32.060  12.356
90816W        W59190  16.734  32.546  12.560
90817W        W59191  35.947  12.620  12.828
90818W        W59192  16.576  21.604  12.458
90819W        W59193  41.816  27.189   0.924
90820W        W59194  37.391   4.275  14.515
90821W        W59195   1.819   7.249   2.355
90822W        W59196   2.454  20.761  11.868
90823W        W59197  21.160  13.748   4.704
90824W        W59198   4.301  44.924  10.548
90825W        W59199  12.360  32.021   3.696
90826W        W59200   9.647  12.715  11.598
90827W        W59201   7.707  13.239   3.379
90828W        W59202   1.407  41.504   1.308
90829W        W59203  27.636  31.489  14.504
90830W        W59204  15.796  14.607   3.324
90831W        W59205  24.659  44.864   2.186
90832W        W59206  19.259  25.680   1.926
90833W        W59207   3.356  32.899   3.737
90834W        W59208  35.364  18.715  12.371
90835W        W59209  41.822  32.086   4.282
90836W        W59210   9.354  11.296  11.090
90837W        W59211  44.882   1.258   2.813
90838W        W59212  31.546   5.836  12.992
90839W        W59213  11.836  43.487  12.992
90840W        W59214  21.551  38.447  11.091
90841W        W59215  35.445   3.414   0.870
90842W        W59216  34.950  40.319  13.034
90843W        W59217   7.333  34.428  14.969
90844W        W59218  14.758   7.340   3.165
90845W        W59219  43.365  28.674   1.759
90846W        W59220  44.926  23.073  14.429
90847W        W59221  26.502  43.858   4.635
90848W        W59222  40.435  43.406  14.794
90849W        W59223  34.919  30.589  11.872
90850W        W59224  30.558  17.666   1.218
90851W        W59225  10.768  34.552   1.281
90852W        W59226   9.246  21.516   3.723
90853W        W59227  16.624  14.729   4.213
90854W        W59228  16.621  13.160   3.651
90855W        W59229  22.189  26.469   0.402
90856W        W59230  41.817   6.209  12.871
90857W        W59231  16.664   8.369   1.816
90858W        W59232  18.261  42.411   0.893
90859W        W59233  15.165  12.846  12.014
90860W        W59234  13.256  20.103   1.920
90861W        W59235  35.495  35.064  13.845
90862W        W59236   4.887  17.615  11.127
90863W        W59237   7.335  24.575  14.838
90864W        W59238   4.249  10.262  12.467
90865W        W59239  17.653  11.346   3.343
90866W        W59240  42.480  36.841  10.627
90867W        W59241  44.311  19.686   2.724
90868W        W59242  23.205  33.433  12.403
90869W        W59243  14.707   3.755  13.830
90870W        W59244  25.033   4.845  11.456
90871W        W59245  40.853  32.102   4.712
90872W        W59246  26.166  43.408   3.836
90873W        W59247  19.213  20.210  11.947
90874W        W59248  27.659  27.176   4.256
90875W        W59249  37.935  30.541  11.091
90876W        W59250  13.842  20.674   4.199
90877W        W59251  33.002   2.355   1.713
90878W        W59252   9.794  38.985  14.328
90879W        W59253  28.550  19.655   4.679
90880W        W59254  20.106  30.636   2.753
90881W        W59255  21.640  33.612  12.834
90882W        W59256  22.078  17.688  10.610
90883W        W59257  26.602  26.987  12.906
90884W        W59258  33.961  23.184  13.044
90885W        W59259  13.155  29.116  13.917
90886W        W59260  14.252  19.677  10.556
90887W        W59261  10.761  16.084  14.848
90888W        W59262  17.658   8.678  11.993
90889W        W59263  20.767  20.031  12.977
90890W        W59264   4.267   9.212   4.798
90891W        W59265   3.716  20.130  10.640
90892W        W59266  36.903  13.805   2.674
90893W        W59267  38.473  41.412  12.863
90894W        W59268  22.716  38.006   4.148
90895W        W59269  21.234  15.618  14.963
90896W        W59270  38.994  28.101   2.262
90897W        W59271  16.583  35.017   4.818
90898W        W59272  41.984  28.669   3.647
90899W        W59273  17.237  22.091   3.286
90900W        W59274   9.876  31.027   2.223
90901W        W59275  30.460  24.636   0.929
90902W        W59276  29.016  40.451   4.646
90903W        W59277   4.303  40.304  10.410
90904W        W59278  42.344  35.543  12.043
90905W        W59279  36.363   5.422  12.362
90906W        W59280  11.772  36.056   4.345
90907W        W59281  13.742  12.339   1.358
90908W        W59282   3.757  18.206   5.137
90909W        W59283  20.183  17.666   0.249
90910W        W59284  12.645  23.100   1.876
90911W        W59285  10.185  30.593  14.849
90912W        W59286  34.996  33.527   0.898
90913W        W59287  23.064  31.624   3.649
90914W        W59288  18.549  23.207   2.711
90915W        W59289  37.865  40.874  11.613
90916W        W59290  23.596  42.915   2.307
90917W        W59291  23.105   3.719   1.808
90918W        W59292  44.962  22.545   2.871
90919W        W59293  37.929   1.831   9.923
90920W        W59294  42.400  24.602  14.462
90921W        W59295  24.076   9.771   4.619
90922W        W59296  33.392  25.096  14.466
90923W        W59297  27.990   7.735   0.880
90924W        W59298  41.430  25.146   1.383
90925W        W59299  31.076  25.551  14.399
90926W        W59300  31.527   3.415   2.741
90927W        W59301  10.363   7.330  13.052
90928W        W59302  19.271  39.964  14.024
90929W        W59303  17.260   1.876  12.086
90930W        W59304  15.147  21.575   3.303
90931W        W59305   5.818   5.361  10.121
90932W        W59306  28.453  27.084   1.808
90933W        W59307  25.491  39.865   0.778
90934W        W59308   0.893  42.518   1.340
90935W        W59309  17.153   6.339  12.492
90936W        W59310  31.903  31.981  13.947
90937W        W59311  40.417  32.943   0.951
90938W        W59312  10.776  32.930  12.901
90939W        W59313  28.931  25.488   1.795
90940W        W59314   4.709  39.837  14.881
90941W        W59315  20.660  27.483  11.007
90942W        W59316  15.587  33.584  13.055
90943W        W59317  32.508   4.881  14.913
90944W        W59318  28.021  41.449  11.905
90945W        W59319  31.532  43.504  14.847
90946W        W59320  16.094  28.546  13.463
90947W        W59321   7.671  27.022  13.535
90948W        W59322   0.944  41.980  10.981
90949W        W59323   6.895  40.856   1.362
90950W        W59324  44.342   8.176   3.762
90951W        W59325  28.941  42.334  12.501
90952W        W59326  35.378   0.772   0.367
90953W        W59327   1.756   5.368   4.767
90954W        W59328   4.221  18.722   0.258
90955W        W59329  36.887  27.129  12.893
90956W        W59330   8.771   3.248  12.474
90957W        W59331   4.851  27.480   1.914
90958W        W59332  22.641  40.305  14.904
90959W        W59333  11.251  19.768  10.638
90960W        W59334  18.137  30.150   2.750
90961W        W59335  13.632  36.528   0.923
90962W        W59336  13.724   8.335   3.706
90963W        W59337  34.596  31.505  11.512
90964W        W59338  31.531  20.163   2.304
90965W        W59339   2.346   4.870  10.113
90966W        W59340  39.901  14.184  12.049
90967W        W59341  42.429  21.236  13.006
90968W        W59342   0.379  14.323  11.550
90969W        W59343  31.927  10.740   0.324
90970W        W59344  18.605   6.810  13.429
90971W        W59345  24.560  44.894  13.923
90972W        W59346  28.513  23.705   3.854
90973W        W59347  30.488   1.420   2.728
90974W        W59348  27.942   9.862  14.782
90975W        W59349  18.640  18.678  14.789
90976W        W59350   6.267  19.757   4.345
90977W        W59351  14.282  39.334   1.326
90978W        W59352  44.970  15.639  10.620
90979W        W59353  28.140  32.955  13.040
90980W        W59354   0.297  19.049   1.723
90981W        W59355   2.356  26.982   2.703
90982W        W59356  41.921  27.685   1.387
90983W        W59357   5.925  43.989   4.161
90984W        W59358  44.943  31.125  14.300
90985W        W59359   2.765   2.766  14.964
90986W        W59360  10.650   5.267  14.032
90987W        W59361  11.719   8.403   1.410
90988W        W59362  40.511  14.210   2.723
90989W        W59363  37.022   4.289  11.938
90990W        W59364   5.904  11.773  14.795
90991W        W59365  12.642  11.635  11.028
90992W        W59366   5.784  16.173   4.203
90993W        W59367  10.670  16.762   2.305
90994W        W59368  24.052  41.421   5.081
90995W        W59369  18.727  11.799   2.298
90996W        W59370  17.092  44.294  10.921
90997W        W59371   4.820  42.822   2.233
90998W        W59372   7.906  30.093  10.476
90999W        W59373  20.707   5.886   4.311
91000W        W59374  13.140  29.459   4.333
91001W        W59375  44.806  33.464   4.744
91002W        W59376   6.211  22.729  14.391
91003W        W59377  32.619   5.364   0.389
91004W        W59378  31.450  22.615   0.897
91005W        W59379   6.197   2.819   0.814
91006W        W59380  31.902  31.973   3.718
91007W        W59381  24.169  42.963  12.826
91008W        W59382  10.721   3.817  11.495
91009W        W59383  37.020  20.563  13.000
91010W        W59384   0.850  15.662  14.364
91011W        W59385   9.345   3.421  14.328
91012W        W59386  35.425  44.410   1.706
91013W        W59387   3.811  26.550  11.377
91014W        W59388  13.615  31.088   3.712
91015W        W59389  19.774  34.955  11.985
91016W        W59390   5.811  16.210  11.964
91017W        W59391  32.431  27.582  10.961
91018W        W59392  18.627   9.659   3.199
91019W        W59393  26.101  44.785  13.861
91020W        W59394  11.363  11.638   3.166
91021W        W59395   7.226   9.828  13.417
91022W        W59396   0.459  23.132   2.878
91023W        W59397  18.754  19.778  14.427
91024W        W59398   3.859   3.791   2.332
91025W        W59399  20.218   5.738   2.794
91026W        W59400  21.525  13.302  13.059
91027W        W59401  14.247  25.064   2.251
91028W        W59402   2.914  29.546  14.394
91029W        W59403  36.007  23.013   2.373
91030W        W59404   9.341   8.259   2.186
91031W        W59405  35.097   7.776   1.254
91032W        W59406  39.344  33.388  13.351
91033W        W59407  14.677  18.623  14.016
91034W        W59408   9.233  16.157   2.733
91035W        W59409  23.026  38.949   1.894
91036W        W59410  29.560   3.231   0.902
91037W        W59411   9.874  11.830  11.859
91038W        W59412  26.545   2.752   3.185
91039W        W59413  15.705  43.977   2.208
91040W        W59414   4.421  33.999  12.495
91041W        W59415  25.095   1.973  14.371
91042W        W59416   5.862   3.255  10.108
91043W        W59417  17.112  42.473   4.122
91044W        W59418  14.593  42.488   4.176
91045W        W59419  33.974  19.260   4.296
91046W        W59420   4.786   4.767  10.003
91047W        W59421  13.730  20.208   0.902
91048W        W59422   7.868   9.361   0.730
91049W        W59423  38.409   2.415   4.184
91050W        W59424  25.581  10.709  11.505
91051W        W59425   2.422  20.702   1.741
91052W        W59426  19.062  13.306  10.890
91053W        W59427  13.318  27.002   4.601
91054W        W59428  42.509  11.813  13.424
91055W        W59429  10.800  31.934  12.450
91056W        W59430  27.631   5.247  12.068
91057W        W59431  27.958   6.803  12.885
91058W        W59432  35.000  10.751   4.202
91059W        W59433  32.403   0.358   1.849
91060W        W59434  10.384  24.514   2.685
91061W        W59435   2.248   1.370   2.352
91062W        W59436  41.837   2.867   2.806
91063W        W59437   3.929  12.334   4.626
91064W        W59438   2.315  33.554   3.243
91065W        W59439  21.190  41.499  12.397
91066W        W59440  23.162  39.491   9.460
91067W        W59441  40.834  13.236  11.025
91068W        W59442  11.637  13.727  10.489
91069W        W59443  42.478  17.234   3.775
91070W        W59444  32.042  38.857  14.889
91071W        W59445  24.012  10.366  13.927
91072W        W59446  34.453   2.346  13.436
91073W        W59447   1.356  17.128   3.365
91074W        W59448   2.789  35.449   1.306
91075W        W59449  12.622   3.842   0.774
91076W        W59450  43.413   5.259   3.843
91077W        W59451  41.411   5.295   2.897
91078W        W59452  12.624  25.213   1.422
91079W        W59453  12.830  39.471   1.720
91080W        W59454  10.286  29.108  13.900
91081W        W59455   1.397  44.310   2.405
91082W        W59456   1.477   4.304  14.766
91083W        W59457   6.890  23.996  13.353
91084W        W59458   5.806  29.965  13.817
91085W        W59459  11.822  22.573   4.206
91086W        W59460  34.466   5.839   0.861
91087W        W59461  23.561  16.159   1.792
91088W        W59462   6.841  14.267  11.108
91089W        W59463  16.305  28.584  12.990
91090W        W59464  26.989  35.082  12.994
91091W        W59465  24.693   8.213  14.770
91092W        W59466  11.813  29.129  10.919
91093W        W59467  10.377  18.081   0.952
91094W        W59468  11.356  30.429   3.815
91095W        W59469  14.305  29.656   0.368
91096W        W59470  10.145   2.354  10.574
91097W        W59471  29.654  18.565   0.789
91098W        W59472  44.465  40.369   3.169
91099W        W59473   5.316  25.096  14.394
91100W        W59474  31.926  33.462   0.434
91101W        W59475  24.576   6.846  13.347
91102W        W59476  31.518  18.565   0.941
91103W        W59477  17.692  22.057   4.832
91104W        W59478   1.745  16.111  13.849
91105W        W59479  35.540  13.607  11.862
91106W        W59480   9.659  16.567  11.870
91107W        W59481  44.916  19.121  13.331
91108W        W59482   3.770  31.937   2.367
91109W        W59483  10.782  35.508   4.346
91110W        W59484  28.037  41.016  14.928
91111W        W59485  31.935  42.804  13.053
91112W        W59486  26.684  33.508   2.249
91113W        W59487  15.318  25.544   4.313
91114W        W59488  38.975  19.272   0.277
91115W        W59489  39.412  11.344  14.873
91116W        W59490  36.355   9.187   0.399
91117W        W59491  36.508   9.336   1.742
91118W        W59492  36.944  11.775   2.726
91119W        W59493  27.025  23.188   4.611
91120W        W59494   5.291  13.287  12.430
91121W        W59495  25.704  33.439   1.418
91122W        W59496  26.117  21.064  14.961
91123W        W59497  40.933  21.108   4.818
91124W        W59498  17.754  13.304   2.674
91125W        W59499   1.822  24.567   1.265
91126W        W59500   3.823  29.163   0.847
91127W        W59501  22.039  32.606  11.945
91128W        W59502  32.511  38.054  11.375
91129W        W59503  39.911  38.848   2.860
91130W        W59504  24.008  44.367  11.957
91131W        W59505  23.209   5.228   0.930
91132W        W59506  34.902  44.827  10.993
91133W        W59507  34.527  34.597  14.425
91134W        W59508  25.672  26.126  14.997
91135W        W59509  43.418  26.994  11.057
91136W        W59510  29.070  23.607   2.863
91137W        W59511  22.635   4.308   3.837
91138W        W59512  25.140  18.112   2.805
91139W        W59513  38.871  36.527   2.669
91140W        W59514  23.109  36.578   4.221
91141W        W59515   8.246  15.295  11.030
91142W        W59516   7.224  32.892  11.482
91143W        W59517  39.986  39.324  11.565
91144W        W59518  43.808  44.415  13.331
91145W        W59519  41.961  33.441  14.335
91146W        W59520  14.610   3.716   1.827
91147W        W59521   3.929  33.502  11.097
91148W        W59522  11.775  22.995   1.424
91149W        W59523  26.053   8.836   3.342
91150W        W59524  21.148  14.171   1.215
91151W        W59525  11.256  23.069  14.987
91152W        W59526  16.739   4.877  11.472
91153W        W59527  30.130   9.709   4.257
91154W        W59528   7.294   7.276   3.841
91155W        W59529  34.026  25.157   0.943
91156W        W59530  44.341   0.967   3.162
91157W        W59531   8.735   3.442   5.284
91158W        W59532   4.421  30.974  14.361
91159W        W59533  17.290  15.239  13.976
91160W        W59534  12.833   3.328   3.681
91161W        W59535  38.019  20.565   1.895
91162W        W59536  25.700  10.303  14.385
91163W        W59537  15.724  21.711  12.907
91164W        W59538   6.755  36.480   0.363
91165W        W59539  33.594   0.762  13.894
91166W        W59540  36.014  25.103  10.504
91167W        W59541  44.387  35.587  11.920
91168W        W59542   0.851  34.974  11.060
91169W        W59543  22.180  44.350  12.891
91170W        W59544  40.494   5.814  13.522
91171W        W59545  41.984  23.698  14.825
91172W        W59546  33.560   1.950  14.920
91173W        W59547  18.108   0.813   1.346
91174W        W59548  42.951  21.031   5.147
91175W        W59549  35.435  32.006   2.286
91176W        W59550  44.787  16.680  11.863
91177W        W59551   4.862  12.128  12.052
91178W        W59552   3.927   5.235   4.693
91179W        W59553  15.769  27.607  12.534
91180W        W59554  17.180  22.576  12.872
91181W        W59555   0.323  31.555  14.852
91182W        W59556  33.411  35.520  11.871
91183W        W59557  18.549  20.267   4.223
91184W        W59558   8.333   6.269   3.675
91185W        W59559   3.806  18.701  12.043
91186W        W59560   0.275  42.477   1.729
91187W        W59561  28.535  12.681  11.372
91188W        W59562  44.836  40.938   0.842
91189W        W59563   9.777  25.666   4.828
91190W        W59564  40.315  29.926  11.998
91191W        W59565  23.665  41.866   4.806
91192W        W59566   7.412   4.830  12.029
91193W        W59567  34.901  17.684  14.812
91194W        W59568  17.287  24.681   2.890
91195W        W59569  43.863  19.718   0.736
91196W        W59570  36.351   8.824   1.302
91197W        W59571  33.596  18.579   9.964
91198W        W59572  31.456  17.293   2.814
91199W        W59573  33.105  44.946   1.419
91200W        W59574   9.707  23.506   2.724
91201W        W59575  22.088  22.720   1.697
91202W        W59576  24.114  28.508  14.961
91203W        W59577  40.542  35.505  11.992
91204W        W59578  37.429   7.265   1.245
91205W        W59579   2.759  35.385   2.885
91206W        W59580   7.694   2.372  14.386
91207W        W59581  33.580  42.306  12.576
91208W        W59582  44.843  35.371  11.861
91209W        W59583  41.474  45.000  14.946
91210W        W59584  30.921   6.904   2.756
91211W        W59585   0.819   0.950   0.449
91212W        W59586  15.733   3.808   0.878
91213W        W59587  44.768  20.264  13.463
91214W        W59588  26.160  22.147  12.926
91215W        W59589  16.697  30.544   1.775
91216W        W59590  29.624  13.105   2.735
91217W        W59591   7.721   2.267  10.049
91218W        W59592   2.918  42.899   1.805
91219W        W59593  14.277  18.738  10.971
91220W        W59594  38.895  10.376   0.873
91221W        W59595  14.595  44.441  12.542
91222W        W59596  32.067  37.464  13.309
91223W        W59597  25.532  19.060  14.798
91224W        W59598  30.540  26.167  13.921
91225W        W59599   0.413  19.598   0.755
91226W        W59600   7.906  36.391   5.202
91227W        W59601  22.126  23.508  12.501
91228W        W59602   4.408  21.730   3.701
91229W        W59603  15.175   4.396  12.923
91230W        W59604  13.820  22.036   0.945
91231W        W59605  35.492  42.496  14.402
91232W        W59606  35.400  30.453  12.879
91233W        W59607   7.758  29.117   4.750
91234W        W59608  38.517   8.797  13.899
91235W        W59609  16.650  43.443   4.256
91236W        W59610   5.238  25.058   5.084
91237W        W59611  25.643  15.152   0.764
91238W        W59612   3.759   7.792   4.124
91239W        W59613  15.161  14.660  14.330
91240W        W59614  20.625  26.180  11.450
91241W        W59615  34.579   3.444  12.900
91242W        W59616  31.405  40.412   0.476
91243W        W59617  28.029  34.572  14.847
91244W        W59618  31.417  19.158   0.873
91245W        W59619  39.378  11.648  11.063
91246W        W59620  25.505  26.051   2.202
91247W        W59621  12.153  27.189   3.288
91248W        W59622  16.283  25.071   2.221
91249W        W59623  42.924   4.400  12.901
91250W        W59624   8.219  18.167   1.878
91251W        W59625  40.362  37.884   1.861
91252W        W59626  37.059  15.146   2.880
91253W        W59627  39.422  23.054  14.319
91254W        W59628  30.985  34.970  12.522
91255W        W59629  41.021  31.981  13.319
91256W        W59630   4.699  12.631   0.811
91257W        W59631  19.586  16.153   2.255
91258W        W59632  43.869   7.221   0.393
91259W        W59633  32.542   0.398   2.213
91260W        W59634  38.957  39.552  11.555
91261W        W59635  38.894  33.054  11.094
91262W        W59636   4.747  17.292  13.003
91263W        W59637   9.657  34.059   0.360
91264W        W59638  28.473  40.392  11.588
91265W        W59639   1.286   5.420  13.528
91266W        W59640  26.006  38.357   3.752
91267W        W59641   7.399  35.042   0.457
91268W        W59642  44.006  29.534  12.019
91269W        W59643   6.864  41.008   0.475
91270W        W59644  21.070   6.224   1.805
91271W        W59645   8.854  34.058   0.455
91272W        W59646  43.290  27.064  13.313
91273W        W59647   4.218   6.355  13.836
91274W        W59648  31.900  33.585   1.701
91275W        W59649  31.451  16.248  11.543
91276W        W59650  43.298   6.365  12.562
91277W        W59651  19.562  14.104   3.211
91278W        W59652  39.931  20.233  14.485
91279W        W59653  10.753   3.780  14.928
91280W        W59654  18.067  29.157  12.875
91281W        W59655  42.351  43.967  10.997
91282W        W59656  33.986  19.739   3.801
91283W        W59657   3.394  37.924   1.768
91284W        W59658  19.662   8.732  14.514
91285W        W59659  20.739  33.485  10.540
91286W        W59660  35.546  18.692  14.395
91287W        W59661  23.522  35.475  11.046
91288W        W59662  23.525  26.026  13.993
91289W        W59663  20.575   3.336  13.317
91290W        W59664   2.933  12.637  14.351
91291W        W59665  23.649  36.853   1.307
91292W        W59666  38.408  15.596   0.359
91293W        W59667  32.495   3.785   1.733
91294W        W59668   6.320  44.288  13.386
91295W        W59669  34.485  38.833   1.842
91296W        W59670   1.387  43.014  11.059
91297W        W59671  43.017  13.110  11.927
91298W        W59672  20.732  23.131  11.382
91299W        W59673  20.671  25.081   3.854
91300W        W59674  31.536  38.997   1.858
91301W        W59675   7.708  31.580  14.474
91302W        W59676  21.600   2.765   0.964
91303W        W59677  43.793  10.785  14.366
91304W        W59678  35.584  40.373  10.987
91305W        W59679  15.674  42.024  13.387
91306W        W59680  15.646  35.009  10.562
91307W        W59681  43.311  17.250  10.499
91308W        W59682  11.197  35.498   1.210
91309W        W59683   2.773  37.851   4.804
91310W        W59684  43.936  15.112  13.885
91311W        W59685  39.864  18.197  14.373
91312W        W59686   6.213  17.729   3.268
91313W        W59687  22.128   6.293  13.019
91314W        W59688  40.971   6.323   0.274
91315W        W59689   6.289  30.093  10.120
91316W        W59690  32.020  19.144  14.824
91317W        W59691  20.696  44.895  13.326
91318W        W59692  42.871  20.124  11.996
91319W        W59693  14.320  22.999  11.871
91320W        W59694  38.911  27.034  12.839
91321W        W59695  19.597   2.920   4.307
91322W        W59696  23.019   3.415  10.409
91323W        W59697   0.435  15.664   3.840
91324W        W59698   7.793   4.290   0.274
91325W        W59699  10.344  27.614   4.190
91326W        W59700  11.622  28.956  12.010
91327W        W59701  10.375  42.386   0.448
91328W        W59702  28.020   8.900   1.318
91329W        W59703  44.414  16.123  13.879
91330W        W59704  41.988   3.828   1.724
91331W        W59705  34.886   5.257  12.449
91332W        W59706  40.922   4.232  12.009
91333W        W59707  42.338  43.345  11.435
91334W        W59708  39.430  28.974   3.269
91335W        W59709  42.464   2.314   4.165
91336W        W59710  12.779  27.159   3.165
91337W        W59711  29.456   0.477   5.691
91338W        W59712  40.481   3.743  13.059
91339W        W59713  17.164  12.813  14.274
91340W        W59714   1.856  26.630   5.248
91341W        W59715  28.186   0.806  14.986
91342W        W59716   8.712  16.194   4.832
91343W        W59717   9.789  36.921  12.033
91344W        W59718   3.717   6.379   2.830
91345W        W59719  16.770  12.286   1.896
91346W        W59720  44.324  21.517  14.295
91347W        W59721  19.197  36.544  12.559
91348W        W59722  29.921  39.878  13.957
91349W        W59723  22.245   7.695  14.496
91350W        W59724  39.906  33.518   0.372
91351W        W59725  39.824  32.507   3.797
91352W        W59726  30.909   2.796  13.930
91353W        W59727  38.030  24.715   1.702
91354W        W59728  40.373  20.706  12.028
91355W        W59729  30.434   4.233  10.411
91356W        W59730   9.283   4.355   0.373
91357W        W59731   3.709  24.655   2.368
91358W        W59732  24.640  14.789   3.335
91359W        W59733   4.304   2.781   3.155
91360W        W59734   5.365  44.484   1.236
91361W        W59735  40.854  29.613  10.551
91362W        W59736  24.546  19.222  12.424
91363W        W59737   6.912  37.993  12.560
91364W        W59738   1.291   9.219   0.291
91365W        W59739  27.131   0.450  13.478
91366W        W59740  10.634  35.977   4.238
91367W        W59741  17.113  34.086   4.790
91368W        W59742  36.387  33.996  10.925
91369W        W59743  21.018  26.164  12.919
91370W        W59744  10.350  13.177  13.947
91371W        W59745   9.213   5.841   4.177
91372W        W59746  13.317  22.576  12.889
91373W        W59747   6.836   8.793   3.184
91374W        W59748  40.811   9.380  14.985
91375W        W59749  12.713  14.143  14.016
91376W        W59750  30.924  39.380   4.786
91377W        W59751  22.614  44.426  14.871
91378W        W59752  22.133  39.337  13.804
91379W        W59753  26.957  12.670   5.230
91380W        W59754  39.975  37.392   1.745
91381W        W59755  22.673  36.561  12.342
91382W        W59756  31.143  44.337   2.379
91383W        W59757  39.476  30.019  14.389
91384W        W59758   9.697   9.744  13.945
91385W        W59759  21.094  25.022  10.517
91386W        W59760  17.292  13.811  12.833
91387W        W59761   3.361  17.674  12.390
91388W        W59762  43.893  43.889   0.452
91389W        W59763  44.375  29.984  11.577
91390W        W59764  10.335  30.976  12.851
91391W        W59765  29.538   9.876   0.783
91392W        W59766  37.457   5.260   1.390
91393W        W59767  44.888  32.407   3.370
91394W        W59768  21.617  31.136  13.888
91395W        W59769  10.237  12.270   4.794
91396W        W59770  27.035   8.740  12.483
91397W        W59771  13.691  18.732  12.389
91398W        W59772  40.903  27.127  14.274
91399W        W59773  21.514  41.350  11.408
91400W        W59774  17.679  40.826  10.500
91401W        W59775  36.067  13.158  10.483
91402W        W59776  13.738  14.203   4.318
91403W        W59777   8.185  44.895  13.791
91404W        W59778  18.271  34.442   2.300
91405W        W59779  21.085  33.507  11.542
91406W        W59780  34.079  44.879   2.753
91407W        W59781  30.144  30.556   4.129
91408W        W59782  17.698  39.343  12.520
91409W        W59783  43.356  40.055  12.443
91410W        W59784  28.608  20.691  11.463
91411W        W59785  40.401  22.512  14.962
91412W        W59786   6.874  12.248  14.512
91413W        W59787   7.893  15.627  13.403
91414W        W59788  15.629  29.584   1.873
91415W        W59789  13.825  16.569   1.449
91416W        W59790   9.234  44.312  13.456
91417W        W59791   9.650  31.050   5.745
91418W        W59792  26.672  34.930   4.246
91419W        W59793  10.694  35.883   3.841
91420W        W59794  28.001  23.091   3.859
91421W        W59795  12.690   7.864   2.216
91422W        W59796  31.899   5.757   4.617
91423W        W59797   0.397  40.914  11.927
91424W        W59798  42.840  35.886   1.769
91425W        W59799  32.123  26.143  13.448
91426W        W59800  23.081  18.258   2.743
91427W        W59801  27.458   4.333   2.388
91428W        W59802  13.334  37.047  12.031
91429W        W59803   0.762  19.750  11.101
91430W        W59804  12.360  35.532   1.304
91431W        W59805  39.423  17.581   2.396
91432W        W59806  12.287   8.678  12.978
91433W        W59807  31.115  35.965   3.717
91434W        W59808  13.321  37.547   4.277
91435W        W59809  20.233  30.052  13.911
91436W        W59810  10.172  14.127  11.872
91437W        W59811  19.194  42.000   3.809
91438W        W59812  30.552  23.996   3.164
91439W        W59813  35.598  41.866  13.537
91440W        W59814  15.093  10.208   3.280
91441W        W59815  42.502  13.810  10.957
91442W        W59816   7.262   1.894   1.836
91443W        W59817  12.827  36.505  14.930
91444W        W59818   4.898  38.987   4.323
91445W        W59819   1.918  35.488  12.925
91446W        W59820  32.109  19.242  12.471
91447W        W59821  28.666   9.329   4.208
91448W        W59822  16.238  30.618  13.888
91449W        W59823  26.043  23.493   2.208
91450W        W59824  13.126  18.760  12.047
91451W        W59825  15.114  36.946  14.941
91452W        W59826  22.160  10.340   2.382
91453W        W59827  37.489  39.503  14.892
91454W        W59828  15.653  15.090  13.987
91455W        W59829  38.551  32.427   2.900
91456W        W59830  35.055  14.326   9.930
91457W        W59831  34.413  41.522  11.492
91458W        W59832  30.649   8.729  11.112
91459W        W59833  42.859  38.819   3.852
91460W        W59834   9.747  36.565   4.203
91461W        W59835  19.202   6.788   1.374
91462W        W59836  42.477  40.467   0.271
91463W        W59837   8.222  43.476  12.901
91464W        W59838  31.099  22.203   2.249
91465W        W59839  24.663  17.602  11.605
91466W        W59840  14.209   5.933   4.177
91467W        W59841  31.444  34.468   0.774
91468W        W59842  11.131  43.414   1.753
91469W        W59843   8.802   1.902  12.891
91470W        W59844  19.620  22.038   2.667
91471W        W59845  13.718  39.050  11.029
91472W        W59846  21.045  16.147  11.103
91473W        W59847  16.217  32.614   3.217
91474W        W59848  32.116   6.911   2.796
91475W        W59849   7.684  13.648   3.385
91476W        W59850  34.962  27.481   2.362
91477W        W59851  26.158  33.451   3.177
91478W        W59852  39.391  44.946   2.879
91479W        W59853  40.814   8.769  13.828
91480W        W59854   3.353  19.644  11.000
91481W        W59855  34.584  29.022   4.682
91482W        W59856  37.451  25.531  12.977
91483W        W59857  35.496  10.655   3.163
91484W        W59858  40.926  27.942   2.677
91485W        W59859  41.846  32.598   1.859
91486W        W59860   9.851  38.882   0.728
91487W        W59861  22.141  26.619   0.736
91488W        W59862  37.396  35.483   1.406
91489W        W59863  25.050  36.431   4.295
91490W        W59864  12.776  35.383   4.220
91491W        W59865  43.328  44.440  10.516
91492W        W59866  21.641  10.667   1.756
91493W        W59867   2.847   3.787  12.562
91494W        W59868  38.863   7.776  11.097
91495W        W59869   4.380   6.360   2.184
91496W        W59870  23.684  18.636   3.171
91497W        W59871  26.606  38.567   4.248
91498W        W59872  32.410  33.398   0.253
91499W        W59873  13.288  44.501   1.930
91500W        W59874   1.354  11.634   3.243
91501W        W59875  26.054  10.264   1.697
91502W        W59876  20.186  44.759   0.804
91503W        W59877  27.623  18.257  12.050
91504W        W59878  25.170  17.743  12.545
91505W        W59879  29.054  43.271  11.584
91506W        W59880  26.125  15.650  11.902
91507W        W59881  22.614  23.052   1.767
91508W        W59882   7.754  43.337  12.541
91509W        W59883  43.484  14.159   2.336
91510W        W59884  31.535  15.644   0.341
91511W        W59885  16.166  12.226   4.269
91512W        W59886  25.050  14.821   2.381
91513W        W59887  24.690  41.949   2.236
91514W        W59888  32.554  31.540  14.894
91515W        W59889  41.515  31.449  13.991
91516W        W59890   4.359  35.945  13.462
91517W        W59891  17.268   4.333  12.999
91518W        W59892  20.729  44.469  11.438
91519W        W59893  37.061  16.240   2.895
91520W        W59894  35.603  36.022   1.407
91521W        W59895  24.123  25.679   3.278
91522W        W59896  34.539  35.993  13.336
91523W        W59897  10.326  31.481  10.891
91524W        W59898   0.926  32.456   4.190
91525W        W59899  24.562   1.838   1.820
91526W        W59900  10.787  18.593  12.987
91527W        W59901   5.697  22.182  11.435
91528W        W59902  14.104  44.889  11.962
91529W        W59903  31.638   6.288   2.232
91530W        W59904  42.979  39.853   1.417
91531W        W59905  17.569  22.513  13.851
91532W        W59906  27.186  18.255  11.511
91533W        W59907  17.634  31.123   2.255
91534W        W59908  36.073  30.656   2.211
91535W        W59909  36.520   8.655   4.782
91536W        W59910   4.830   0.747   2.903
91537W        W59911  28.166  20.633  14.022
91538W        W59912  40.811  14.258  13.962
91539W        W59913  31.547   2.463   0.873
91540W        W59914  23.176  27.184   2.222
91541W        W59915  31.571  44.274   4.774
91542W        W59916  11.154  26.022  12.871
91543W        W59917  19.669  42.393   1.854
91544W        W59918  32.537  37.494  12.510
91545W        W59919  30.514  33.939  14.761
91546W        W59920  15.303  10.754  14.516
91547W        W59921  11.274  44.432   2.708
91548W        W59922  29.607  37.454  10.147
91549W        W59923  32.963   9.736  14.466
91550W        W59924  31.548  39.898   2.311
91551W        W59925  15.110  21.641   1.791
91552W        W59926   7.171  17.295  11.386
91553W        W59927  24.673  37.511  10.606
91554W        W59928  39.036  14.789   2.869
91555W        W59929   7.797   3.444   2.416
91556W        W59930  15.327  25.588  10.492
91557W        W59931  12.703  43.970  14.022
91558W        W59932  22.039  43.832  10.512
91559W        W59933  27.612  43.785   3.792
91560W        W59934  36.860  21.020  11.104
91561W        W59935  18.573   2.265   2.735
91562W        W59936  22.240   2.286   2.892
91563W        W59937  11.247  42.445  11.561
91564W        W59938  11.356  17.213  12.530
91565W        W59939  19.193  36.592  13.367
91566W        W59940  13.186  22.235   1.724
91567W        W59941   4.419  29.486   1.703
91568W        W59942   7.686  32.993   1.816
91569W        W59943   4.293  42.001  10.927
91570W        W59944  43.516   8.386  14.923
91571W        W59945   3.799  12.650   3.287
91572W        W59946  38.450   0.951  12.469
91573W        W59947   9.796  40.433   1.722
91574W        W59948   1.785  34.519  11.469
91575W        W59949   6.212  14.763   4.822
91576W        W59950  23.235  19.754   4.710
91577W        W59951  39.055  44.363  11.066
91578W        W59952   9.369  25.611  14.997
91579W        W59953  39.324  33.924  14.357
91580W        W59954  26.092   7.213  14.815
91581W        W59955  31.020   2.765   2.844
91582W        W59956  33.995  35.495   3.642
91583W        W59957  31.018  36.077  11.936
91584W        W59958  27.497  39.538  13.440
91585W        W59959  35.574  13.292   3.170
91586W        W59960  32.614  12.254   2.412
91587W        W59961  30.650  14.210   0.254
91588W        W59962  41.864   8.273   3.708
91589W        W59963  24.085  14.132   4.742
91590W        W59964  12.842  34.969   4.188
91591W        W59965  35.585  13.688  12.392
91592W        W59966  27.125   0.360  14.373
91593W        W59967  23.554  24.635   3.704
91594W        W59968  37.969   7.396  14.389
91595W        W59969  37.502  10.838  12.081
91596W        W59970  39.508  18.733   3.854
91597W        W59971   8.682  36.517  12.454
91598W        W59972   4.237  17.104  10.521
91599W        W59973  35.462  31.609   0.797
91600W        W59974  26.992   6.877   2.738
91601W        W59975  15.254  41.007   0.931
91602W        W59976  42.422   8.324   3.309
91603W        W59977  26.473  35.462   3.250
91604W        W59978  21.042  20.237   4.218
91605W        W59979   1.442  23.150  12.405
91606W        W59980  31.466  10.783  14.884
91607W        W59981  23.613  39.441  12.459
91608W        W59982  37.885  42.780  13.979
91609W        W59983  35.860  39.395  13.536
91610W        W59984  39.020  28.968  11.537
91611W        W59985   7.353  20.126   2.812
91612W        W59986  11.813  31.082  12.548
91613W        W59987  15.282   9.712  13.937
91614W        W59988  25.576  25.215  13.319
91615W        W59989  17.274  31.608   1.881
91616W        W59990  22.073  19.228  13.930
91617W        W59991  11.333   4.441   3.159
91618W        W59992  11.724  16.756   1.402
91619W        W59993  26.505  42.916   0.793
91620W        W59994  28.138   7.182   4.166
91621W        W59995  44.776  31.897  14.856
91622W        W59996  37.927  15.283  11.402
91623W        W59997  17.287  23.211   3.858
91624W        W59998  24.197  37.582  14.896
91625W        W59999  15.150  26.583   2.210
91626W        W60000  42.839  23.649  13.533
91627W        W60001  10.639  44.837   0.272
91628W        W60002  28.458   0.767  11.468
91629W        W60003  19.100  20.091  14.974
91630W        W60004   0.449  42.514  13.011
91631W        W60005  21.226  17.665  13.037
91632W        W60006  29.666  33.408   1.231
91633W        W60007  27.627  12.627   1.922
91634W        W60008  39.048  31.929  13.483
91635W        W60009  33.463   1.365  11.489
91636W        W60010  25.995  34.876   4.311
91637W        W60011  32.467   1.775  13.838
91638W        W60012  16.232  12.321  11.081
91639W        W60013  16.185  26.651  11.399
91640W        W60014   8.196  10.760   4.761
91641W        W60015  20.095  27.152   4.134
91642W        W60016  27.593  42.962   5.188
91643W        W60017   2.738  18.081  10.962
91644W        W60018  34.073  41.509  13.849
91645W        W60019  34.915  32.554  14.802
91646W        W60020  38.527  43.784   0.842
91647W        W60021   2.864  39.061   0.344
91648W        W60022  41.356  40.845   3.728
91649W        W60023  44.463  44.278   0.907
91650W        W60024   8.861  20.154   4.285
91651W        W60025  18.557  31.516  11.483
91652W        W60026   2.416  25.710   4.796
91653W        W60027  40.825  36.531  10.525
91654W        W60028   5.785  12.711  12.086
91655W        W60029  13.344   0.442   4.129
91656W        W60030  28.112  31.441  11.027
91657W        W60031  12.627  37.958   3.849
91658W        W60032  41.839   0.427  14.394
91659W        W60033  41.945  24.975   3.251
91660W        W60034  21.626  17.200   3.260
91661W        W60035  38.921  21.048  13.385
91662W        W60036  30.988   1.968  11.072
91663W        W60037  27.521  36.951   3.382
91664W        W60038  13.800  28.123   2.897
91665W        W60039   9.890   2.343  11.469
91666W        W60040  24.667   8.884   2.671
91667W        W60041  15.175  21.020   1.270
91668W        W60042  35.046  35.540   4.603
91669W        W60043   6.393  35.535  14.477
91670W        W60044   6.901  34.086  13.970
91671W        W60045  22.119  11.641   4.253
91672W        W60046  34.610  23.730   2.317
91673W        W60047   8.804   8.236   0.365
91674W        W60048  17.647  17.145   1.370
91675W        W60049  31.440   2.761  11.529
91676W        W60050  32.939   1.881  10.588
91677W        W60051  27.541   2.903  12.460
91678W        W60052  21.103  39.973  11.476
91679W        W60053   0.972   5.402  12.849
91680W        W60054  11.345  18.063   4.629
91681W        W60055  29.491  30.014   3.161
91682W        W60056  13.331   2.377   0.730
91683W        W60057  30.012  18.608   1.312
91684W        W60058  34.412  17.779  14.346
91685W        W60059   1.818  17.229   5.305
91686W        W60060  17.598  29.001   0.463
91687W        W60061   3.290  38.028   1.269
91688W        W60062  11.318  40.800  13.980
91689W        W60063  39.458  36.858   0.422
91690W        W60064  13.219  29.577  14.298
91691W        W60065  17.701  13.317  14.763
91692W        W60066  25.468  33.566   4.148
91693W        W60067  38.832  36.463   3.760
91694W        W60068  20.185   4.266   2.691
91695W        W60069  31.068  16.222   4.188
91696W        W60070  17.165  34.421   0.853
91697W        W60071  16.702  23.065  11.992
91698W        W60072  34.533  19.627  14.425
91699W        W60073  25.115   8.788  14.465
91700W        W60074   7.717  30.065  14.288
91701W        W60075   2.275  34.453   0.777
91702W        W60076   6.843  43.491  11.879
91703W        W60077   8.884  35.552  11.116
91704W        W60078   2.302  10.704  13.398
91705W        W60079  15.711  17.301  13.047
91706W        W60080  24.149  42.305   2.864
91707W        W60081  39.876  40.364  13.911
91708W        W60082  28.581  24.034   0.305
91709W        W60083  34.600  41.499   3.253
91710W        W60084  15.311  31.425   2.368
91711W        W60085   4.277  39.026   3.802
91712W        W60086  27.512  24.570  12.478
91713W        W60087  20.204  17.146   1.791
91714W        W60088  22.699  16.151  12.909
91715W        W60089  29.959  36.436  10.980
91716W        W60090  20.747  27.499  10.540
91717W        W60091  28.979  33.394  14.292
91718W        W60092  29.649  30.970  13.857
91719W        W60093   3.361  38.853  13.962
91720W        W60094  39.451   2.387   3.686
91721W        W60095  31.090  29.503   4.153
91722W        W60096  37.911   4.720  13.355
91723W        W60097   8.271  29.622   1.804
91724W        W60098  16.762   6.243  10.467
91725W        W60099  11.711  38.018  10.935
91726W        W60100  18.724  29.128   0.289
91727W        W60101   7.285   4.291  10.970
91728W        W60102  31.443   9.731  13.854
91729W        W60103  43.307  27.137   2.876
91730W        W60104  33.435  23.136   0.273
91731W        W60105  39.868  32.105   5.091
91732W        W60106  17.769  31.134   3.767
91733W        W60107  37.433  21.201  13.892
91734W        W60108  36.975  20.140  12.423
91735W        W60109  11.136  18.704   0.441
91736W        W60110   0.359  20.524  12.437
91737W        W60111   1.421  39.473  11.398
91738W        W60112  38.371  17.234  11.063
91739W        W60113  11.775  11.331   1.834
91740W        W60114   3.257  16.302   2.388
91741W        W60115  17.088  30.072   2.242
91742W        W60116  17.125   5.779  11.501
91743W        W60117  24.178  29.642  11.389
91744W        W60118  44.812   2.291   4.672
91745W        W60119   0.427  34.473   1.415
91746W        W60120  33.472   7.386  14.486
91747W        W60121  30.989  28.025  14.987
91748W        W60122  14.637   1.471  12.485
91749W        W60123  33.950  43.337   2.821
91750W        W60124  19.210  36.903   1.319
91751W        W60125  27.662  23.576  12.074
91752W        W60126   8.727  22.613  10.531
91753W        W60127  31.055   7.782  12.066
91754W        W60128  27.686  12.768   2.833
91755W        W60129  33.967  40.470   2.352
91756W        W60130  40.870   4.285   0.843
91757W        W60131  26.977  42.396  10.542
91758W        W60132   2.748  36.873  14.833
91759W        W60133   9.704  23.682   3.651
91760W        W60134  12.240   3.393  13.804
91761W        W60135  35.504  15.601  11.957
91762W        W60136  17.263  18.700  14.443
91763W        W60137  30.101  27.674   0.854
91764W        W60138  34.602  11.146  12.468
91765W        W60139  43.973  18.706   2.281
91766W        W60140  13.670  18.226  12.842
91767W        W60141  32.920  42.854  12.496
91768W        W60142  37.078  20.559   2.370
91769W        W60143   7.756  16.737  12.489
91770W        W60144  33.010  10.738   1.905
91771W        W60145   5.707   4.775   3.220
91772W        W60146  23.016   7.273   4.833
91773W        W60147  28.452   0.982  10.895
91774W        W60148   5.848  35.904   2.888
91775W        W60149  18.713  41.998  13.062
91776W        W60150   6.253   3.747   1.297
91777W        W60151  15.725  22.029   2.740
91778W        W60152  22.012  34.888  10.628
91779W        W60153  15.629  25.971  13.043
91780W        W60154   1.261   9.847   4.599
91781W        W60155  29.982  39.505  11.585
91782W        W60156  41.917  39.398  14.001
91783W        W60157  21.097  34.430   0.781
91784W        W60158   8.873   9.261   0.370
91785W        W60159  36.539  32.503  12.425
91786W        W60160  41.865  14.753   3.806
91787W        W60161   8.403   3.288   4.259
91788W        W60162  10.642  24.998   0.364
91789W        W60163  10.360  38.446   2.385
91790W        W60164  12.282  35.093   2.779
91791W        W60165  22.205   2.873  14.371
91792W        W60166  11.798   2.296   2.767
91793W        W60167  20.744  26.703   3.686
91794W        W60168  33.061  10.821   2.393
91795W        W60169  33.085  24.575   0.740
91796W        W60170  10.222  18.786   0.844
91797W        W60171  20.114   0.393  14.765
91798W        W60172   0.324  23.166  14.417
91799W        W60173  28.096  12.851   1.248
91800W        W60174  13.239  37.990  13.845
91801W        W60175  39.418  43.886  13.528
91802W        W60176  11.724  33.109   4.164
91803W        W60177  13.812   0.885  12.397
91804W        W60178  43.495  38.458  11.106
91805W        W60179  40.419   3.327  11.050
91806W        W60180  40.479  29.462  13.510
91807W        W60181  33.463   8.171   0.796
91808W        W60182  39.963   5.418   1.350
91809W        W60183  41.809  11.159   1.829
91810W        W60184  14.630   1.950   3.689
91811W        W60185  42.318  30.605  13.832
91812W        W60186  41.380  16.754   1.294
91813W        W60187  35.014  14.122  14.912
91814W        W60188  40.454  23.689  12.549
91815W        W60189  12.699  27.025  12.405
91816W        W60190  13.226   9.835   3.273
91817W        W60191  43.936  36.920  12.019
91818W        W60192  35.937  20.680  14.296
91819W        W60193  39.881   6.817   3.325
91820W        W60194   9.774  36.355  11.396
91821W        W60195  35.575  44.934   0.862
91822W        W60196  32.411  14.670   4.284
91823W        W60197   0.293  38.457   2.368
91824W        W60198  10.844  40.969  11.913
91825W        W60199  29.132  21.570   0.855
91826W        W60200   8.711   0.982   4.115
91827W        W60201  17.116  20.611  12.547
91828W        W60202  24.609   3.908  14.816
91829W        W60203  34.532  24.144  12.924
91830W        W60204  20.574   1.802   2.777
91831W        W60205   8.854  30.580  11.547
91832W        W60206  42.961   0.754   1.840
91833W        W60207  27.483  35.102  11.555
91834W        W60208  37.064  43.509   4.748
91835W        W60209  31.609   7.864   3.723
91836W        W60210  11.315  22.177   4.281
91837W        W60211  27.472  43.019  10.442
91838W        W60212  38.543  23.052  14.026
91839W        W60213  40.899  30.088  14.337
91840W        W60214   0.367   7.252   3.809
91841W        W60215  34.592  36.055  11.380
91842W        W60216  35.914   2.801  10.634
91843W        W60217  38.921   0.404   4.330
91844W        W60218  32.023  32.619   0.317
91845W        W60219  44.307  16.177   3.715
91846W        W60220  29.920  12.797  13.857
91847W        W60221  28.991  31.034  10.555
91848W        W60222  19.606  31.502   4.201
91849W        W60223  13.796   5.856  10.430
91850W        W60224   6.714  39.337   0.896
91851W        W60225  15.312  17.632   3.654
91852W        W60226   8.831  20.750  12.013
91853W        W60227  37.075  17.225  13.816
91854W        W60228  41.460  30.037  11.396
91855W        W60229   1.762  37.391   4.144
91856W        W60230  19.628  40.413  10.409
91857W        W60231  13.171  30.425   0.469
91858W        W60232  31.059  40.845   1.263
91859W        W60233  40.822  11.156   1.740
91860W        W60234  40.430   2.306   3.683
91861W        W60235   3.259  22.191  13.475
91862W        W60236   7.683  36.961  13.521
91863W        W60237  27.575  20.532   3.381
91864W        W60238  30.600   0.899   4.191
91865W        W60239  15.715  38.042   0.755
91866W        W60240  39.340  28.563   0.782
91867W        W60241  23.019   1.974   2.678
91868W        W60242  14.332   8.284   9.570
91869W        W60243  25.964  18.735   2.237
91870W        W60244  12.827  39.910   2.709
91871W        W60245  11.756  21.099  11.116
91872W        W60246   4.905  24.531   2.249
91873W        W60247   5.275  32.429  14.277
91874W        W60248   4.259  15.248  11.413
91875W        W60249  12.338   5.836  14.895
91876W        W60250   9.772  19.717   0.465
91877W        W60251  18.217  43.791   1.890
91878W        W60252  23.085  14.702  10.575
91879W        W60253  27.156  15.669  12.917
91880W        W60254  24.990  18.591  13.890
91881W        W60255  22.583  24.507   4.149
91882W        W60256   3.916  14.308  10.497
91883W        W60257   0.282   2.813   4.202
91884W        W60258  35.996  34.377  14.285
91885W        W60259   9.193   6.709   2.261
91886W        W60260  16.086   3.882   0.758
91887W        W60261  38.567  22.652  12.852
91888W        W60262   6.228  32.093  12.475
91889W        W60263  28.002  15.728  14.787
91890W        W60264   5.887  23.196   9.629
91891W        W60265   8.800  40.525   1.777
91892W        W60266  13.692  26.025   4.208
91893W        W60267   8.730  12.667   1.713
91894W        W60268  25.712  14.637  11.589
91895W        W60269  43.407   1.868   4.165
91896W        W60270  12.258  32.509   2.363
91897W        W60271  43.948  31.409  13.976
91898W        W60272   5.316  27.098  14.781
91899W        W60273   7.697   1.795  12.406
91900W        W60274  38.055  10.264   5.185
91901W        W60275  42.362  44.947  11.549
91902W        W60276  37.558  10.840  14.483
91903W        W60277  42.294  16.802  10.953
91904W        W60278  37.050  13.127   1.242
91905W        W60279  43.898  19.543  10.972
91906W        W60280  44.856  24.155  10.576
91907W        W60281  15.618   3.270  13.969
91908W        W60282  34.553   2.354   2.785
91909W        W60283  19.589  44.902  11.063
91910W        W60284  14.284  38.028   2.771
91911W        W60285   2.858   1.775  12.390
91912W        W60286  42.988  31.596  14.876
91913W        W60287  36.981  27.593   0.336
91914W        W60288   1.969  34.923   4.835
91915W        W60289   7.316   3.805  13.389
91916W        W60290  14.629  41.467  14.347
91917W        W60291  29.129  29.484   4.273
91918W        W60292   8.777  28.457   2.883
91919W        W60293  42.945  25.555  14.493
91920W        W60294  21.244   0.984   5.157
91921W        W60295  27.452   3.353   3.168
91922W        W60296  10.334   0.272   1.812
91923W        W60297   6.716  31.538  11.506
91924W        W60298   0.906  18.240  11.872
91925W        W60299   9.761   4.410   0.920
91926W        W60300  44.288  10.328  11.542
91927W        W60301  28.617  38.023   2.723
91928W        W60302  28.084   3.322  12.834
91929W        W60303  25.967  16.085  11.907
91930W        W60304  39.498  26.535   3.764
91931W        W60305  29.520  10.164   4.693
91932W        W60306   8.216  33.874  13.386
91933W        W60307   8.863  14.648  14.354
91934W        W60308  42.810   3.947   1.336
91935W        W60309  31.536  31.939  10.991
91936W        W60310  25.071  13.303   2.685
91937W        W60311   4.905  28.590   3.372
91938W        W60312  34.485   2.350  11.383
91939W        W60313  43.407  25.145  13.328
91940W        W60314  32.440  21.093  12.377
91941W        W60315  43.975  11.230  14.404
91942W        W60316   4.319  11.761   0.743
91943W        W60317   9.723  27.554  12.345
91944W        W60318  19.164  12.853  10.966
91945W        W60319  38.333  16.072  11.515
91946W        W60320  38.863  15.130  13.449
91947W        W60321  21.062   5.342   1.797
91948W        W60322  16.094  41.028   3.854
91949W        W60323  14.829   3.385   1.757
91950W        W60324  19.280  15.706   2.679
91951W        W60325  12.159   3.850   4.196
91952W        W60326  34.400   0.330  12.071
91953W        W60327  41.338  43.767   3.664
91954W        W60328  40.948  28.466  13.492
91955W        W60329  34.574  41.884   4.304
91956W        W60330   6.814  26.539   9.574
91957W        W60331  39.855  21.728  12.442
91958W        W60332   5.383  28.071  11.448
91959W        W60333  17.660  38.076  14.904
91960W        W60334   6.679  42.793  11.962
91961W        W60335  34.041  22.502  14.974
91962W        W60336  27.522   4.840   3.263
91963W        W60337  21.092  32.424   0.265
91964W        W60338  14.315  28.537  10.475
91965W        W60339  14.225  21.077  11.611
91966W        W60340  18.622   2.848  11.559
91967W        W60341  33.580  20.218   2.290
91968W        W60342  23.630  18.086   4.264
91969W        W60343   1.955  44.268  11.495
91970W        W60344  31.951  16.682  11.906
91971W        W60345  18.729  24.007  13.858
91972W        W60346  15.166   3.301  10.410
91973W        W60347  41.390   3.237  14.279
91974W        W60348  18.245  29.546   2.298
91975W        W60349  36.451  21.017   0.248
91976W        W60350   5.321  28.960  13.948
91977W        W60351  27.510  44.812  13.389
91978W        W60352  21.740   0.350   1.446
91979W        W60353  38.877  17.692  11.033
91980W        W60354  12.708  40.853   2.340
91981W        W60355  34.045  22.549   0.912
91982W        W60356  22.229  24.712  13.506
91983W        W60357  18.657  23.630   3.179
91984W        W60358  18.784  27.156  13.473
91985W        W60359  14.647  40.483  13.968
91986W        W60360  18.574  28.151   0.943
91987W        W60361  11.315  40.861   3.808
91988W        W60362  20.044  29.549   4.295
91989W        W60363   6.195  23.046   0.335
91990W        W60364  12.170   0.286   2.318
91991W        W60365  40.469   7.362  11.039
91992W        W60366   0.958  43.479  13.368
91993W        W60367  36.918  29.089   4.634
91994W        W60368  22.098  10.749   0.444
91995W        W60369   4.808  38.501  13.886
91996W        W60370   5.698   0.278   4.791
91997W        W60371  21.720   0.314  14.935
91998W        W60372  13.245   9.749  13.488
91999W        W60373  25.523  37.477  11.429
92000W        W60374  44.360  21.148  13.523
92001W        W60375  22.111  28.941   2.346
92002W        W60376  21.145  14.265  10.471
92003W        W60377  14.332  33.031   4.769
92004W        W60378  35.065  37.551   3.698
92005W        W60379  16.136  24.659  10.965
92006W        W60380  12.625   6.374   2.773
92007W        W60381  44.874  16.616   4.259
92008W        W60382  25.595  34.981  12.977
92009W        W60383  24.095  13.333   3.315
92010W        W60384  43.779  25.521   4.122
92011W        W60385  28.460  10.254   3.301
92012W        W60386  25.482  31.418   0.290
92013W        W60387   0.937  36.369   3.339
92014W        W60388  31.412  37.927   2.284
92015W        W60389  38.516  31.582   3.781
92016W        W60390  30.631  38.887  14.282
92017W        W60391  17.636  22.182   0.941
92018W        W60392  11.710  43.329   1.212
92019W        W60393   8.841  15.129   1.931
92020W        W60394   3.942  12.132  12.860
92021W        W60395  32.491   4.894   0.788
92022W        W60396  42.393  32.520  13.833
92023W        W60397   9.844  44.302   4.670
92024W        W60398   3.869  39.404  11.572
92025W        W60399  37.398  40.464   0.350
92026W        W60400  14.779   4.417  13.523
92027W        W60401   3.442   1.305  13.483
92028W        W60402  12.630  36.486   3.823
92029W        W60403  35.099  22.681   4.720
92030W        W60404  42.502   1.825   0.831
92031W        W60405   8.834  23.589   0.335
92032W        W60406  25.995  41.316   4.297
92033W        W60407  15.176  28.671   3.735
92034W        W60408  35.526  38.893  13.316
92035W        W60409  13.645  31.976  11.413
92036W        W60410  35.530  16.682  11.970
92037W        W60411  12.839  26.092   0.348
92038W        W60412  22.184   7.293   1.879
92039W        W60413  42.464  15.309  10.954
92040W        W60414   8.705  17.761  10.466
92041W        W60415  36.536  43.444  10.410
92042W        W60416   3.765   3.346  11.034
92043W        W60417  44.445  39.844   4.169
92044W        W60418   3.849  38.482  14.842
92045W        W60419  15.190  33.537  14.923
92046W        W60420  16.777  42.295   4.311
92047W        W60421   9.878  35.929  13.905
92048W        W60422  25.698  39.002   4.706
92049W        W60423   7.745  43.345  12.889
92050W        W60424   5.792   5.761   1.449
92051W        W60425  13.823  16.593   2.335
92052W        W60426  30.562  13.228   5.163
92053W        W60427   6.334  13.310   1.927
92054W        W60428  14.833  10.675   3.201
92055W        W60429  42.389  40.964  11.559
92056W        W60430  24.663  25.975  10.936
92057W        W60431  25.625  19.693   1.347
92058W        W60432  35.410  35.441   0.763
92059W        W60433  35.933  40.874   2.745
92060W        W60434  13.178  12.319   0.275
92061W        W60435   0.298  16.598   1.858
92062W        W60436   9.817  38.558  14.499
92063W        W60437  11.737  41.430  12.475
92064W        W60438  12.849  29.537   4.800
92065W        W60439  23.151  30.602  11.016
92066W        W60440  39.554  43.883   2.402
92067W        W60441  16.803  25.645  12.413
92068W        W60442  14.596   3.339  13.010
92069W        W60443   6.818   0.941  14.361
92070W        W60444  23.722  38.071   4.639
92071W        W60445  41.417  30.137   0.901
92072W        W60446  39.534  32.086   1.350
92073W        W60447  32.502  10.757   4.755
92074W        W60448  19.688   1.755  12.565
92075W        W60449  28.439  28.541   4.831
92076W        W60450  28.172  22.557   5.185
92077W        W60451   0.810   3.794   3.840
92078W        W60452  33.443   8.253   1.776
92079W        W60453  18.084  10.239   2.312
92080W        W60454   1.271  27.607  14.960
92081W        W60455  28.619  36.986   2.750
92082W        W60456  27.515  38.946   1.832
92083W        W60457   1.306  44.307   4.277
92084W        W60458  26.512  20.619   1.269
92085W        W60459  29.147  34.593  13.368
92086W        W60460   6.366  39.025  12.909
92087W        W60461   8.678  34.934   5.173
92088W        W60462  10.827   8.398  14.945
92089W        W60463  32.906  37.349   2.787
92090W        W60464  23.045  26.461   0.434
92091W        W60465  14.746  30.438  12.449
92092W        W60466  32.592  38.422   4.661
92093W        W60467  10.876  30.435  12.446
92094W        W60468  43.416  16.158  10.983
92095W        W60469  19.283  17.746   0.247
92096W        W60470  43.342  36.010  12.580
92097W        W60471  13.754  40.975   2.891
92098W        W60472  33.386  33.115  14.483
92099W        W60473  20.584   2.400  11.473
92100W        W60474  39.849   0.798  13.988
92101W        W60475   6.745  22.243   2.759
92102W        W60476  35.110  20.693  10.964
92103W        W60477  37.878  32.969   2.315
92104W        W60478   1.273  39.951  14.999
92105W        W60479  27.062   6.424  10.985
92106W        W60480  26.158  30.453   3.853
92107W        W60481   2.307  44.906  12.010
92108W        W60482   6.220   4.261   1.436
92109W        W60483   9.650   8.829   2.378
92110W        W60484   2.935   7.805   1.863
92111W        W60485  17.295   2.445   0.865
92112W        W60486   8.809  17.741   2.379
92113W        W60487  20.746  30.028   1.934
92114W        W60488  35.551  25.710   4.148
92115W        W60489   7.747  26.647  13.337
92116W        W60490  17.703  40.870  12.389
92117W        W60491  35.543   9.692   1.861
92118W        W60492  40.312  10.346   1.717
92119W        W60493   6.338  23.616   1.435
92120W        W60494  18.211   3.397  10.890
92121W        W60495  28.033   2.463  12.011
92122W        W60496  26.124   5.790   2.714
92123W        W60497  30.560   9.351   4.267
92124W        W60498   8.271  38.404   2.843
92125W        W60499  37.506  25.560  14.458
92126W        W60500  40.340  14.632  11.871
92127W        W60501   0.827   0.849  10.942
92128W        W60502  27.585  14.696  13.977
92129W        W60503   9.750  37.020   1.349
92130W        W60504  23.144  17.647   3.340
92131W        W60505  28.497  25.058   1.268
92132W        W60506  13.294  10.659   0.480
92133W        W60507  21.613   6.323   3.807
92134W        W60508  10.187  22.707   5.103
92135W        W60509   8.688  41.499  10.463
92136W        W60510  15.714  13.759   4.637
92137W        W60511  33.915  31.974  13.335
92138W        W60512  21.042  15.750  12.081
92139W        W60513   0.981  28.553   2.337
92140W        W60514  28.456   5.720  13.898
92141W        W60515  22.684  43.788   0.404
92142W        W60516  27.473  27.691  13.524
92143W        W60517  40.452  16.251  11.551
92144W        W60518  39.964   3.838  12.884
92145W        W60519  39.340  35.102  12.840
92146W        W60520  41.336   5.783   4.121
92147W        W60521  11.306  20.755  10.617
92148W        W60522  35.010  40.342  13.964
92149W        W60523   9.661   4.267   4.191
92150W        W60524  26.558  41.925   0.335
92151W        W60525  18.185  34.060   0.399
92152W        W60526  10.637  31.558   0.410
92153W        W60527  21.039  17.565  14.946
92154W        W60528  37.505  30.914  10.548
92155W        W60529  15.228   0.756   2.305
92156W        W60530  22.239  34.563   0.305
92157W        W60531  40.451  43.823   0.300
92158W        W60532  38.823  10.741   0.785
92159W        W60533  43.330  31.544  12.068
92160W        W60534  11.172  28.057  13.450
92161W        W60535  25.199  37.863   2.218
92162W        W60536  31.601  19.191  12.879
92163W        W60537  21.032  27.591  10.051
92164W        W60538  33.579  35.375  12.884
92165W        W60539  18.635   8.351   4.757
92166W        W60540  15.613   5.813  11.534
92167W        W60541  15.142   2.374  12.468
92168W        W60542  32.942  38.418   1.854
92169W        W60543   1.909  41.992   3.838
92170W        W60544  27.633  23.101  12.340
92171W        W60545  17.705   6.213   1.426
92172W        W60546  39.461  43.474   2.882
92173W        W60547  44.843  11.640   0.248
92174W        W60548  13.261  42.023  11.444
92175W        W60549  22.573  14.169  11.045
92176W        W60550  24.022  18.115   4.795
92177W        W60551  43.877  24.619   3.255
92178W        W60552  19.156  24.170   1.327
92179W        W60553  21.025  33.887  11.881
92180W        W60554  39.867  26.122   0.832
92181W        W60555  16.805  30.941   0.963
92182W        W60556  38.986   5.407   4.733
92183W        W60557  40.323  15.089  14.995
92184W        W60558   7.714   3.952   4.206
92185W        W60559  36.091  33.073  10.925
92186W        W60560  23.684   6.827   3.718
92187W        W60561  15.709  16.181  13.335
92188W        W60562  10.293   9.819  11.119
92189W        W60563  27.137   6.345   0.925
92190W        W60564  15.724  24.990   4.242
92191W        W60565  37.066  32.019  10.932
92192W        W60566  11.311  14.597   1.928
92193W        W60567  21.165  11.671  14.895
92194W        W60568  43.363  27.673   1.759
92195W        W60569  31.032  10.297   4.730
92196W        W60570  18.781  44.862   4.115
92197W        W60571  33.060  30.067  12.829
92198W        W60572  32.440  28.056  14.805
92199W        W60573  14.803  11.150   9.494
92200W        W60574  44.359  20.252   1.804
92201W        W60575  36.957  23.129  14.905
92202W        W60576  10.875   0.461   2.265
92203W        W60577  17.563  43.928  10.405
92204W        W60578  40.399  26.957  12.970
92205W        W60579  18.050  13.702  13.503
92206W        W60580   5.891  33.625   2.864
92207W        W60581   0.388  44.000   4.223
92208W        W60582   0.960  14.145  13.013
92209W        W60583  12.836  35.561   3.181
92210W        W60584  35.877  44.449   4.143
92211W        W60585  44.330  36.016   1.862
92212W        W60586   6.802  44.924   4.234
92213W        W60587   9.667  32.937  12.506
92214W        W60588  11.781  12.715  10.583
92215W        W60589  38.564  44.884  12.430
92216W        W60590  25.489  14.600   3.745
92217W        W60591  29.051  26.465  13.407
92218W        W60592  24.979  27.133  11.901
92219W        W60593  39.476   8.383  14.496
92220W        W60594  26.537   3.221   4.702
92221W        W60595  15.118  44.986   4.314
92222W        W60596   0.329  24.056   3.154
92223W        W60597   6.369   3.220  12.991
92224W        W60598  10.316  40.407  12.571
92225W        W60599  38.370   3.881  11.432
92226W        W60600  27.692  22.531   2.397
92227W        W60601  33.394  16.137   1.908
92228W        W60602  30.456  23.535  14.345
92229W        W60603  36.060   6.369   1.762
92230W        W60604  30.022  26.165   4.801
92231W        W60605  32.605  13.704   4.299
92232W        W60606   5.305  37.020   3.152
92233W        W60607   5.327  25.112  11.858
92234W        W60608   1.429  43.348  11.971
92235W        W60609   8.758  27.579   4.631
92236W        W60610   0.938  39.464   0.470
92237W        W60611  39.015  32.627  13.481
92238W        W60612  32.407  27.521   0.837
92239W        W60613  13.751   4.859   2.195
92240W        W60614  14.125   0.877   4.320
92241W        W60615   5.752  19.213  10.512
92242W        W60616   9.744  29.553  10.467
92243W        W60617  13.704  38.422   3.857
92244W        W60618  42.029  10.721  12.503
92245W        W60619  29.651  31.550   4.282
92246W        W60620  44.796   9.696   1.337
92247W        W60621  15.189  31.083   0.423
92248W        W60622  18.695  12.351   1.230
92249W        W60623  32.613  35.900   0.382
92250W        W60624  39.921  19.065  14.813
92251W        W60625  20.242  37.039   2.725
92252W        W60626  14.680   2.337   4.188
92253W        W60627   2.456  12.261  12.431
92254W        W60628  16.231  36.992  10.560
92255W        W60629  39.534  10.164   0.369
92256W        W60630  38.978  17.197  14.334
92257W        W60631   3.823  44.875   4.158
92258W        W60632  41.521  36.883  12.458
92259W        W60633   4.917  32.105  11.889
92260W        W60634  37.337  43.277  14.806
92261W        W60635  36.474  22.566   4.123
92262W        W60636   3.420  28.973   9.993
92263W        W60637  23.194  22.525   1.370
92264W        W60638   5.335   8.285   3.354
92265W        W60639  22.051  21.027  13.000
92266W        W60640  12.732  44.270  12.385
92267W        W60641  43.385  28.656   3.815
92268W        W60642  37.930   9.326   1.725
92269W        W60643  24.213  19.232  11.889
92270W        W60644   0.336  15.738  10.639
92271W        W60645   9.847   7.205   4.621
92272W        W60646  23.037  17.101   9.929
92273W        W60647  44.906   9.348   2.839
92274W        W60648  23.127  44.313  11.559
92275W        W60649  19.776  30.077   4.715
92276W        W60650   1.413   9.231  11.474
92277W        W60651   9.269  32.887   4.762
92278W        W60652  30.134  32.594  14.835
92279W        W60653   2.241  42.307  11.441
92280W        W60654  20.189  27.131  11.124
92281W        W60655  31.091  38.863  10.909
92282W        W60656   9.863  33.037  14.468
92283W        W60657  12.792   0.297   0.922
92284W        W60658  15.668  19.164   1.292
92285W        W60659  17.125  24.109   2.261
92286W        W60660   7.202  32.103   0.760
92287W        W60661  31.008  19.049  14.025
92288W        W60662  38.917  28.603   3.647
92289W        W60663  27.183  15.765  11.874
92290W        W60664  42.031   3.390  12.982
92291W        W60665  41.898   2.748  13.883
92292W        W60666  44.943  26.130  13.524
92293W        W60667  12.351  22.142  10.518
92294W        W60668  24.008  40.350  11.035
92295W        W60669  19.179   6.859  12.094
92296W        W60670  30.623  30.632  11.950
92297W        W60671  28.160   4.900   5.112
92298W        W60672  44.831   9.307   0.828
92299W        W60673  33.976   0.269   1.929
92300W        W60674  16.232  21.108   3.370
92301W        W60675  16.268  10.755  10.629
92302W        W60676  17.154  42.357   3.258
92303W        W60677  40.439  26.198   2.398
92304W        W60678  12.218  28.941  10.617
92305W        W60679  13.188   3.411  11.120
92306W        W60680  34.472  21.556  14.956
92307W        W60681  34.051  20.714  12.550
92308W        W60682  33.386   7.356   2.790
92309W        W60683  35.932  34.056  13.812
92310W        W60684  15.237  22.600   0.336
92311W        W60685  19.236  31.941   2.765
92312W        W60686  44.814   0.804  13.363
92313W        W60687  17.665  23.608  13.027
92314W        W60688  41.912   5.706  12.882
92315W        W60689  17.067  20.087  10.628
92316W        W60690   3.244  29.073  12.481
92317W        W60691  17.597   4.834   3.325
92318W        W60692  35.093  39.838  14.487
92319W        W60693   3.749  28.477   3.355
92320W        W60694   4.327  13.217  13.921
92321W        W60695  42.351  14.123   1.804
92322W        W60696   9.876  11.206   3.669
92323W        W60697  23.177  27.656  13.035
92324W        W60698  36.551   0.438   3.194
92325W        W60699  13.112  12.653   4.781
92326W        W60700  44.258   7.195  14.311
92327W        W60701  44.373   4.704  12.417
92328W        W60702   0.820  13.839   3.855
92329W        W60703  33.112  25.185  13.062
92330W        W60704  27.091   1.242   2.688
92331W        W60705  43.419  11.179   3.860
92332W        W60706  43.928  16.106   3.825
92333W        W60707  36.464  17.110   1.720
92334W        W60708   9.232  14.168  12.924
92335W        W60709  43.818  22.738  12.896
92336W        W60710  29.509  27.615  13.507
92337W        W60711  34.972  34.090   0.812
92338W        W60712   5.247   4.331  11.018
92339W        W60713   8.729  43.991  12.859
92340W        W60714   1.953  18.147   4.798
92341W        W60715   2.757   1.815   2.226
92342W        W60716  19.765  30.997   0.440
92343W        W60717  44.335  18.118  11.401
92344W        W60718  27.985  31.570  13.988
92345W        W60719  13.253  29.598  10.594
92346W        W60720  39.342  18.131   3.771
92347W        W60721  26.021  24.117  13.974
92348W        W60722  25.503   9.171  10.564
92349W        W60723  28.593  12.836  13.012
92350W        W60724  17.258  38.065  11.907
92351W        W60725   3.431  20.182   3.280
92352W        W60726  40.503  33.603  14.919
92353W        W60727  36.071  43.883   2.307
92354W        W60728   8.372   8.193   1.757
92355W        W60729   0.874   4.258   4.639
92356W        W60730  37.523  19.674   0.908
92357W        W60731  17.760  10.784   0.934
92358W        W60732  20.650  12.659  12.469
92359W        W60733  43.844   2.437  13.913
92360W        W60734  30.514  43.273  14.915
92361W        W60735  25.611   0.925  13.845
92362W        W60736  17.203   6.405   3.255
92363W        W60737  33.072  40.045  14.420
92364W        W60738  30.991  21.606  10.579
92365W        W60739  36.041  32.065  13.442
92366W        W60740  20.223  43.857  14.807
92367W        W60741   6.889  42.876  13.848
92368W        W60742  32.987   4.414   0.913
92369W        W60743  31.589  33.403   0.817
92370W        W60744  11.180   0.365  13.977
92371W        W60745  15.707  14.747   1.827
92372W        W60746   5.700   9.665   4.680
92373W        W60747   8.180  12.181  13.467
92374W        W60748  41.002  37.434   3.863
92375W        W60749  37.394  16.660   1.819
92376W        W60750  42.782  38.528  11.451
92377W        W60751   0.418   3.726  14.977
92378W        W60752  31.099  11.235   2.754
92379W        W60753  32.622  40.359  13.060
92380W        W60754  42.025   2.361  11.915
92381W        W60755   5.305  23.211   1.932
92382W        W60756   1.317  23.632  10.585
92383W        W60757  43.508  28.053   1.243
92384W        W60758  40.363  23.223  14.281
92385W        W60759  17.283   3.907  10.583
92386W        W60760  41.943  32.034  12.454
92387W        W60761   9.256  28.168   0.450
92388W        W60762  44.948   1.762  10.478
92389W        W60763   9.703  39.995  10.889
92390W        W60764  23.230   3.952  14.825
92391W        W60765  43.002   2.824   3.676
92392W        W60766  18.738  11.645  13.979
92393W        W60767   7.374   1.426  14.945
92394W        W60768  21.215  18.089   4.717
92395W        W60769   1.264  36.408  12.534
92396W        W60770  21.738   0.881   1.239
92397W        W60771  25.713  39.421   0.313
92398W        W60772  36.376   3.439  12.028
92399W        W60773  40.416  16.754   4.167
92400W        W60774   3.872  11.309  12.351
92401W        W60775  15.192  26.618   3.339
92402W        W60776   3.218  30.023   3.747
92403W        W60777  21.166  32.128   9.927
92404W        W60778  42.922  15.611  11.456
92405W        W60779   8.778  29.055   0.480
92406W        W60780  44.375  19.198  13.468
92407W        W60781  27.660  35.357   2.893
92408W        W60782  10.670  29.040  11.899
92409W        W60783  28.510  30.954  13.894
92410W        W60784  39.039  21.088   0.264
92411W        W60785   4.861  10.646   3.374
92412W        W60786  33.521  27.477  10.153
92413W        W60787  15.587  24.649  11.528
92414W        W60788  26.520  23.015   0.258
92415W        W60789  36.906   1.285  14.371
92416W        W60790  41.836  11.160   3.791
92417W        W60791  11.797   4.785   3.359
92418W        W60792   6.912  31.629  12.954
92419W        W60793  28.125  11.786   1.842
92420W        W60794  40.046  32.519   0.311
92421W        W60795  42.876  38.830   2.765
92422W        W60796  39.980  38.455  12.430
92423W        W60797  10.198  29.051  10.601
92424W        W60798  44.786   2.730   3.683
92425W        W60799  20.702  27.519  14.961
92426W        W60800  13.167  30.490  10.972
92427W        W60801   1.806  32.591   0.729
92428W        W60802  40.401  38.988   5.274
92429W        W60803   0.363   8.396  12.849
92430W        W60804  21.564   8.837  14.796
92431W        W60805  27.185  36.082   4.195
92432W        W60806  32.530  24.532   1.920
92433W        W60807  40.521  43.365   0.858
92434W        W60808  41.317  18.095   4.285
92435W        W60809  37.857   3.427   3.636
92436W        W60810   2.743   3.883  11.019
92437W        W60811  21.113  25.077  10.127
92438W        W60812   0.275  23.731   4.613
92439W        W60813  27.114  12.763  14.301
92440W        W60814  15.626   1.740  14.985
92441W        W60815   8.809  40.357  13.337
92442W        W60816   8.367  26.185  13.505
92443W        W60817  19.546  18.058  13.919
92444W        W60818  37.472   8.373  13.821
92445W        W60819  40.464  18.668   5.120
92446W        W60820   5.306   9.294   3.726
92447W        W60821  38.030  23.200  12.496
92448W        W60822   5.316   9.865  14.770
92449W        W60823   8.382  18.724   5.321
92450W        W60824  21.100  34.927  13.481
92451W        W60825  20.660  17.306  12.890
92452W        W60826  12.119  38.360   2.390
92453W        W60827  34.931  33.425   4.198
92454W        W60828  13.636  18.669   2.305
92455W        W60829   5.794  28.613   1.803
92456W        W60830   6.817  30.486  13.893
92457W        W60831   4.930  23.029   0.435
92458W        W60832  39.903  34.880  10.954
92459W        W60833   9.817  13.296   3.647
92460W        W60834   3.274  21.542   1.385
92461W        W60835  11.240  42.433  10.963
92462W        W60836  13.347  20.188  10.954
92463W        W60837  34.432   0.804   2.682
92464W        W60838  17.567   8.344   2.356
92465W        W60839  32.494  42.440   3.861
92466W        W60840  39.056  26.957   1.909
92467W        W60841   9.652  15.242   0.384
92468W        W60842   2.922  26.489  13.982
92469W        W60843   7.794   5.689   4.197
92470W        W60844  20.751   7.696   2.685
92471W        W60845  32.031  21.604  11.420
92472W        W60846   7.738  41.845   1.274
92473W        W60847  44.882   6.309  13.964
92474W        W60848  10.281  37.375  13.022
92475W        W60849  19.056  37.035   4.647
92476W        W60850  17.184  16.672  12.824
92477W        W60851  10.209  29.520   0.442
92478W        W60852  43.305   9.706   3.681
92479W        W60853  15.287  23.662   4.132
92480W        W60854  40.884  15.680  11.068
92481W        W60855  33.085  43.433   0.745
92482W        W60856  41.341  17.573  14.834
92483W        W60857  10.252   1.917  14.807
92484W        W60858  10.765   5.402   1.267
92485W        W60859   5.773  24.975   3.211
92486W        W60860   5.872  11.257   0.279
92487W        W60861  14.778  12.360   0.254
92488W        W60862   4.923   3.709  10.983
92489W        W60863  14.817  20.576   2.403
92490W        W60864   9.807  38.435  10.516
92491W        W60865  41.971  24.155  12.492
92492W        W60866  34.919   6.369  14.022
92493W        W60867   9.857  41.851   0.382
92494W        W60868  27.559  36.407   3.192
92495W        W60869  29.472  44.356  12.435
92496W        W60870   3.844  41.934  14.760
92497W        W60871   6.869   0.461  13.987
92498W        W60872   4.219  39.373  13.966
92499W        W60873  25.564  18.726   3.266
92500W        W60874  39.958  40.982   3.683
92501W        W60875  11.241  24.202   4.230
92502W        W60876  25.517  24.210  11.581
92503W        W60877   0.316  26.466  14.319
92504W        W60878   0.420  19.285   3.759
92505W        W60879  11.160   5.882   3.772
92506W        W60880  30.907  33.040  12.348
92507W        W60881  32.474  13.693  13.852
92508W        W60882   6.918   3.337  13.447
92509W        W60883  39.400   9.229   1.775
92510W        W60884   4.410   6.730   1.267
92511W        W60885  36.393   9.671  14.366
92512W        W60886   5.290  31.456  13.386
92513W        W60887  35.374  12.135  12.866
92514W        W60888  22.672   0.390   2.275
92515W        W60889  31.464   0.316   0.805
92516W        W60890  31.405   2.966  13.982
92517W        W60891   6.229  11.172   1.716
92518W        W60892  23.156   4.293   0.338
92519W        W60893  42.922  11.129   3.633
92520W        W60894  39.505  31.440  11.420
92521W        W60895  29.638   2.383  14.959
92522W        W60896  28.584  33.500   3.666
92523W        W60897  41.364   0.933  14.444
92524W        W60898  19.666  16.712  14.870
92525W        W60899  41.303  27.125   2.850
92526W        W60900  23.617  29.657   2.405
92527W        W60901  37.925  26.615  13.854
92528W        W60902  16.572  11.348  11.004
92529W        W60903  37.989   1.295   3.802
92530W        W60904  26.195  38.544  11.027
92531W        W60905  18.101  44.302   0.451
92532W        W60906  28.511   2.238  10.631
92533W        W60907  15.235  30.649  11.525
92534W        W60908  28.650  44.902  14.363
92535W        W60909  23.610   5.810  12.016
92536W        W60910   2.927  12.624  11.063
92537W        W60911  39.883  17.217   0.348
92538W        W60912   4.397   3.796   3.321
92539W        W60913  24.532   8.832   4.625
92540W        W60914  21.677  25.675  10.918
92541W        W60915  33.557  25.044   3.289
92542W        W60916  41.789  16.309   1.232
92543W        W60917  30.984  18.265   2.387
92544W        W60918  27.566  21.172   1.832
92545W        W60919   1.741  24.982   4.831
92546W        W60920  32.114  19.239  12.903
92547W        W60921  17.303  19.615   5.082
92548W        W60922   0.984  43.339   0.929
92549W        W60923  30.415   7.879  10.969
92550W        W60924  36.931  18.168  13.426
92551W        W60925   5.784  39.956   4.607
92552W        W60926  16.168  19.644   1.251
92553W        W60927  35.444   0.773  10.563
92554W        W60928  43.857  39.023   2.348
92555W        W60929  23.628  42.280  13.543
92556W        W60930  35.564   9.248  11.561
92557W        W60931  43.945  22.630  12.400
92558W        W60932  32.118  43.906  11.540
92559W        W60933  33.430  43.021   3.259
92560W        W60934   5.319  34.561   1.394
92561W        W60935  34.011  26.674   1.790
92562W        W60936  31.114  36.475   1.697
92563W        W60937   3.857   2.965  12.080
92564W        W60938  40.417  20.671   2.741
92565W        W60939   7.351   9.680   1.260
92566W        W60940   7.719  13.186   0.818
92567W        W60941   5.254  34.562  11.002
92568W        W60942  29.049  29.962   4.122
92569W        W60943  24.105   3.255   5.133
92570W        W60944  36.348  26.977   4.313
92571W        W60945  37.522   6.339   4.230
92572W        W60946  21.211  33.001  10.018
92573W        W60947  20.134   1.902   3.307
92574W        W60948  10.274  43.808  11.918
92575W        W60949  25.004  25.696   3.741
92576W        W60950   5.420  25.607  12.573
92577W        W60951  40.042  36.904  10.988
92578W        W60952  31.582   1.857  13.040
92579W        W60953  12.759  17.305  13.947
92580W        W60954  12.220   6.293   3.818
92581W        W60955  38.028  26.189   2.226
92582W        W60956  18.143  28.042   0.856
92583W        W60957  18.153  19.092   0.888
92584W        W60958   9.364  27.942   2.291
92585W        W60959  32.587  24.593   0.333
92586W        W60960  44.344  38.850  14.828
92587W        W60961  30.155  42.416   0.472
92588W        W60962   3.954  24.557  14.980
92589W        W60963   6.891   5.300   0.316
92590W        W60964  11.624  36.496   1.763
92591W        W60965  19.119  15.198   2.225
92592W        W60966   8.394  22.554  10.951
92593W        W60967  23.718  28.470  11.565
92594W        W60968  21.703  12.184  10.417
92595W        W60969  10.797  29.426   0.394
92596W        W60970  33.030  25.476  11.860
92597W        W60971  36.052   7.318   2.892
92598W        W60972  41.455  12.224   1.929
92599W        W60973   0.300   9.305  11.967
92600W        W60974  10.680   7.669  13.977
92601W        W60975  16.759  17.184   1.303
92602W        W60976   3.452  42.335   4.231
92603W        W60977  18.114  15.590  14.385
92604W        W60978  31.994   3.305   2.262
92605W        W60979  34.496  25.209  14.845
92606W        W60980  26.075  41.839  12.419
92607W        W60981  12.718  32.070   3.784
92608W        W60982   5.911   6.756   2.419
92609W        W60983  29.576  39.978   1.362
92610W        W60984   3.764  35.915  14.016
92611W        W60985  10.803   5.248  14.461
92612W        W60986  34.504  10.214  12.985
92613W        W60987  28.111  26.017   0.836
92614W        W60988  10.301  12.815   0.937
92615W        W60989  40.993  38.434  11.899
92616W        W60990   2.745  21.604  10.446
92617W        W60991   4.720  15.182  12.912
92618W        W60992  29.086   1.884   4.624
92619W        W60993  25.143  43.875  10.446
92620W        W60994   9.674  34.606   4.304
92621W        W60995  30.414  36.519   4.829
92622W        W60996  24.543  35.042  13.506
92623W        W60997   1.298   1.464  14.505
92624W        W60998   8.302  40.325  12.403
92625W        W60999  25.067  10.799   0.914
92626W        W61000   6.820  41.882   0.831
92627W        W61001   4.866  41.895  13.033
92628W        W61002  15.649  17.151   1.922
92629W        W61003  24.707  32.485  12.889
92630W        W61004  17.575   4.881  12.918
92631W        W61005   1.869  39.965   4.136
92632W        W61006  11.314   3.926  10.902
92633W        W61007  34.380  24.139   2.233
92634W        W61008  30.983  30.516  14.323
92635W        W61009  13.247  18.694   2.792
92636W        W61010  33.617  14.303   1.874
92637W        W61011   0.869  35.383  11.935
92638W        W61012  20.190  14.696  11.924
92639W        W61013  11.632  27.191   2.353
92640W        W61014  36.430  21.628   2.713
92641W        W61015  19.210   2.875  12.380
92642W        W61016  13.846  20.766   0.299
92643W        W61017  39.494  35.526   0.301
92644W        W61018  16.657  35.961  11.988
92645W        W61019  30.583  17.775   3.261
92646W        W61020  14.248  18.591   1.407
92647W        W61021   1.741  28.947  11.910
92648W        W61022  41.434  32.134   0.920
92649W        W61023   9.307  12.713  13.387
92650W        W61024  30.628  41.538  12.405
92651W        W61025  42.868  30.046   3.737
92652W        W61026   0.850   2.411  13.503
92653W        W61027  31.465  16.632  14.327
92654W        W61028  17.138   1.849  10.563
92655W        W61029  26.137  37.568  12.904
92656W        W61030   5.754   4.737   2.180
92657W        W61031  25.611   2.271  11.488
92658W        W61032  25.526  18.072  13.023
92659W        W61033  22.620  22.680  11.913
92660W        W61034  31.068  36.041   3.274
92661W        W61035  22.119  38.417   1.358
92662W        W61036  21.057   0.273  14.944
92663W        W61037  25.133  26.635  12.440
92664W        W61038   5.410  29.633  12.509
92665W        W61039  25.986  30.053   0.733
92666W        W61040  20.719  34.945   2.850
92667W        W61041  19.545  32.060   4.650
92668W        W61042  27.574  40.972   3.679
92669W        W61043   5.901  37.869   4.262
92670W        W61044  43.841  24.688  11.909
92671W        W61045   6.276  21.670  14.876
92672W        W61046  40.428  42.432  14.481
92673W        W61047  29.967   4.874  14.308
92674W        W61048  42.319  43.456   3.738
92675W        W61049  17.143  11.224  13.997
92676W        W61050  35.871  32.526  14.842
92677W        W61051  11.782   2.945  11.075
92678W        W61052  20.153  21.079   1.289
92679W        W61053  38.400  33.043   3.729
92680W        W61054   1.447  11.772   1.367
92681W        W61055  31.046   2.776   3.346
92682W        W61056   0.343   7.187   2.343
92683W        W61057  41.456  25.604  11.607
92684W        W61058   6.747  13.729   2.199
92685W        W61059  23.676  29.150  13.922
92686W        W61060  32.992  38.528   0.396
92687W        W61061  36.930   8.342  11.563
92688W        W61062  30.496  23.548   4.670
92689W        W61063   9.689  12.293   1.329
92690W        W61064  26.159   7.317   2.328
92691W        W61065  32.587  38.905  14.030
92692W        W61066  24.177  16.159  12.404
92693W        W61067   6.689   3.376   2.293
92694W        W61068  38.374  37.397   1.761
92695W        W61069  36.551  35.484  11.979
92696W        W61070  41.940  41.910   1.826
92697W        W61071  11.351   4.752   0.963
92698W        W61072   4.842  43.505  11.032
92699W        W61073  32.616   6.257   1.390
92700W        W61074  14.329  36.356   4.771
92701W        W61075  13.258  13.657   0.773
92702W        W61076  17.237  29.041  10.934
92703W        W61077  20.102  19.558   3.252
92704W        W61078   3.728  18.576  12.560
92705W        W61079  23.498  15.159  14.912
92706W        W61080   0.974   4.328   0.849
92707W        W61081  33.480   3.893   2.779
92708W        W61082  34.519  41.326   2.827
92709W        W61083   1.299  36.508   2.683
92710W        W61084   3.454  18.127   1.406
92711W        W61085  28.576  16.209   2.898
92712W        W61086  42.966  14.272  14.917
92713W        W61087   3.363  30.092  14.010
92714W        W61088  31.537  23.025   4.248
92715W        W61089  24.048  23.512   3.207
92716W        W61090  35.413  35.898  10.985
92717W        W61091  15.303  14.200  10.611
92718W        W61092  11.231  43.922   0.814
92719W        W61093  28.968   9.834  10.456
92720W        W61094  10.778  44.955   0.903
92721W        W61095  20.051  15.178  10.534
92722W        W61096  21.067  29.651   1.843
92723W        W61097  44.981  34.560   2.903
92724W        W61098  25.059  26.698   1.878
92725W        W61099  22.620  33.521   4.676
92726W        W61100  12.127  17.691  13.517
92727W        W61101  23.548   8.789  11.541
92728W        W61102  39.527  44.771   1.312
92729W        W61103  32.436  11.802   3.187
92730W        W61104  34.453   6.882  13.322
92731W        W61105  15.323  13.840  14.438
92732W        W61106  44.885  38.030  12.480
92733W        W61107  20.679  36.955  14.485
92734W        W61108   0.281  13.636  12.067
92735W        W61109  28.511  17.288   1.737
92736W        W61110  36.975   0.311   4.777
92737W        W61111   7.696  28.089   3.369
92738W        W61112   1.398   0.356  14.501
92739W        W61113   9.272  18.702  11.441
92740W        W61114   8.328  15.319   2.331
92741W        W61115  43.794   8.268   1.884
92742W        W61116   2.810  15.150   3.745
92743W        W61117  25.577  37.877   3.277
92744W        W61118  44.482  23.111   3.345
92745W        W61119  12.835  13.281   1.796
92746W        W61120   4.333   0.458  14.278
92747W        W61121  36.888   7.794  13.336
92748W        W61122  42.873  41.441  10.910
92749W        W61123   0.962  23.070   2.195
92750W        W61124  11.806   6.808  14.799
92751W        W61125   0.335  36.848   1.347
92752W        W61126  33.472  11.280  10.108
92753W        W61127  25.983  33.452  12.540
92754W        W61128   2.256  39.491   0.754
92755W        W61129  27.533  42.998  13.998
92756W        W61130   2.810  43.379   2.232
92757W        W61131  31.480  22.006   0.918
92758W        W61132  24.516  22.524  10.893
92759W        W61133  18.657  26.959  14.799
92760W        W61134   5.827  38.894  11.384
92761W        W61135  29.965  38.457   3.765
92762W        W61136   2.225  39.489  12.345
92763W        W61137   4.235  34.902  10.948
92764W        W61138  28.666  10.294   1.340
92765W        W61139   9.350  33.422  12.495
92766W        W61140  21.157  19.073  11.465
92767W        W61141  38.029  29.117  12.891
92768W        W61142  37.403  31.999   2.762
92769W        W61143  12.692  24.494   4.816
92770W        W61144  39.509  38.039   0.856
92771W        W61145   5.861  43.781   3.787
92772W        W61146  13.640  42.880  12.074
92773W        W61147   9.198  28.026   1.772
92774W        W61148  21.634  33.065  12.971
92775W        W61149  20.199  13.334   1.445
92776W        W61150  37.079  31.592   3.286
92777W        W61151  42.456  21.051   1.212
92778W        W61152  22.574  10.822  14.919
92779W        W61153  42.454   2.297   2.768
92780W        W61154   8.670   7.210  13.384
92781W        W61155  35.980  22.095   4.837
92782W        W61156  16.714  23.178  12.936
92783W        W61157  11.652  14.261  10.468
92784W        W61158   8.705  42.338  12.988
92785W        W61159  13.263   2.315  11.989
92786W        W61160  24.034   1.249  12.077
92787W        W61161  23.512   2.810  12.957
92788W        W61162  44.500  32.990  12.511
92789W        W61163   7.368  21.687   4.812
92790W        W61164  43.977  25.609  12.918
92791W        W61165  35.899  38.962   1.714
92792W        W61166   5.888  18.110   0.405
92793W        W61167  38.471  13.292  12.388
92794W        W61168  22.537  24.032  11.127
92795W        W61169  44.465  25.086  13.548
92796W        W61170  22.033   5.783  11.607
92797W        W61171   6.270  41.995   4.309
92798W        W61172  23.180  40.004   5.172
92799W        W61173  20.267   6.783   1.727
92800W        W61174  29.476   6.699   0.913
92801W        W61175  26.620  43.774   0.848
92802W        W61176  24.699   1.328   0.474
92803W        W61177  15.245   8.864  14.374
92804W        W61178   0.378   3.252  13.870
92805W        W61179   3.382   4.360  14.016
92806W        W61180  25.606  30.967   1.906
92807W        W61181  34.538  12.779  14.788
92808W        W61182  36.389  29.566   2.276
92809W        W61183  44.275  32.400  11.985
92810W        W61184  15.107   0.446   4.199
92811W        W61185  33.433  40.356   0.792
92812W        W61186  36.359  18.730   1.250
92813W        W61187  10.788   9.696  13.419
92814W        W61188  33.979  37.041  10.897
92815W        W61189  29.153  34.005   1.840
92816W        W61190  12.852  29.424   1.814
92817W        W61191   1.801  33.970  13.394
92818W        W61192  37.398  37.012  14.411
92819W        W61193  43.436  31.128   4.713
92820W        W61194  16.310  26.990  11.908
92821W        W61195   3.388  41.519   3.819
92822W        W61196   2.944  16.664   0.812
92823W        W61197  15.817  40.953   4.167
92824W        W61198  33.947  26.579   0.416
92825W        W61199  26.649   0.849  12.564
92826W        W61200  37.029  16.078   1.701
92827W        W61201  20.218  16.121  13.846
92828W        W61202  15.160  42.837   2.292
92829W        W61203  40.981   1.317  10.446
92830W        W61204   0.865  16.684   0.383
92831W        W61205  23.607  20.525   4.308
92832W        W61206  14.741   6.890  11.501
92833W        W61207  25.033  32.954  12.535
92834W        W61208  26.478   2.791  12.840
92835W        W61209  39.417   3.333  13.876
92836W        W61210  28.627  33.091   2.698
92837W        W61211  27.943  39.455  11.540
92838W        W61212  32.413   5.811  11.073
92839W        W61213  12.161  27.179   2.831
92840W        W61214  44.887  37.946   3.295
92841W        W61215  40.418   7.804  14.356
92842W        W61216  25.473   4.232   3.770
92843W        W61217  35.504   3.904  12.085
92844W        W61218  33.964   9.307  12.078
92845W        W61219  33.101  34.511  13.529
92846W        W61220  26.571   7.186  14.376
92847W        W61221  28.501  41.321   4.140
92848W        W61222  37.927  11.797  12.083
92849W        W61223   3.232  18.205  10.893
92850W        W61224  36.038  17.201   1.315
92851W        W61225  36.058   1.804   4.691
92852W        W61226  31.411  28.605   2.302
92853W        W61227  37.083  41.436   2.368
92854W        W61228  30.608  25.067   0.248
92855W        W61229  44.465  18.559  14.904
92856W        W61230  37.372   5.435  14.389
92857W        W61231   4.431  41.501   3.178
92858W        W61232  31.003   7.381   3.644
92859W        W61233  34.921  44.381  11.041
92860W        W61234   7.886  14.832  11.415
92861W        W61235   8.846  41.919   1.254
92862W        W61236  24.127  39.524   3.645
92863W        W61237  24.977  42.800   1.821
92864W        W61238  18.121  34.418  14.446
92865W        W61239  44.992  25.589   1.387
92866W        W61240   9.768  33.579   2.355
92867W        W61241   3.819   1.369  14.920
92868W        W61242  44.851  43.798  12.371
92869W        W61243  43.415  43.782  12.380
92870W        W61244   6.261  34.582   3.343
92871W        W61245  41.010  43.903   1.836
92872W        W61246  15.203  38.495  11.912
92873W        W61247   0.967  36.413  13.515
92874W        W61248  21.523   0.873   0.940
92875W        W61249  29.518  18.546   4.647
92876W        W61250  37.053  24.559   1.214
92877W        W61251  32.088  23.596  14.940
92878W        W61252  37.441  19.552  13.999
92879W        W61253  21.588  33.422   2.375
92880W        W61254  26.564  38.427  12.868
92881W        W61255  29.925  28.678   1.708
92882W        W61256  13.263  21.229  13.886
92883W        W61257  10.355  33.011   3.238
92884W        W61258  33.399   3.434   2.769
92885W        W61259  22.683  40.302  12.456
92886W        W61260  31.471  27.603   1.448
92887W        W61261   3.461  13.135   1.297
92888W        W61262  43.333  25.077   4.275
92889W        W61263  12.340  10.673   4.266
92890W        W61264  37.841   1.897   5.154
92891W        W61265  17.574  26.499  13.952
92892W        W61266  16.094   1.976  13.955
92893W        W61267  31.025   8.805   2.810
92894W        W61268  33.084  20.542   0.960
92895W        W61269  35.405  12.836  11.571
92896W        W61270  43.281  40.549  10.482
92897W        W61271  21.137  19.776   2.182
92898W        W61272  23.561  40.977  12.937
92899W        W61273  41.974   4.868   4.131
92900W        W61274  14.641   1.731  12.393
92901W        W61275  32.033  19.598   2.292
92902W        W61276  42.466  35.002   1.395
92903W        W61277  17.095  28.021   3.736
92904W        W61278   3.340  18.278   0.765
92905W        W61279  43.949  30.944   0.421
92906W        W61280   9.198  26.610  12.399
92907W        W61281  42.879  23.490   0.306
92908W        W61282  15.743  41.368  11.022
92909W        W61283   5.361  31.429  14.391
92910W        W61284  32.619  12.824   4.768
92911W        W61285   3.847  24.005   3.795
92912W        W61286   2.281  10.252  11.060
92913W        W61287  33.044   2.885   1.831
92914W        W61288  26.530  23.108   2.306
92915W        W61289   1.763  42.022  13.873
92916W        W61290   4.713  32.122  11.017
92917W        W61291  33.567  40.397  10.447
92918W        W61292  28.977  22.730   4.693
92919W        W61293  20.058  33.102  14.844
92920W        W61294  29.071   4.699   4.175
92921W        W61295  31.100  43.891  14.377
92922W        W61296  18.660  37.388  11.870
92923W        W61297  12.196   7.787   2.828
92924W        W61298  38.469   9.262   9.471
92925W        W61299  22.203  28.558  13.328
92926W        W61300  41.382  14.318  11.090
92927W        W61301  31.119   1.878   0.765
92928W        W61302  13.623  25.493   3.790
92929W        W61303  32.461  24.711  11.107
92930W        W61304  42.867  35.882  11.395
92931W        W61305  30.125  44.462   4.725
92932W        W61306  44.486   6.232  11.413
92933W        W61307  29.436  32.632  13.460
92934W        W61308  35.485  14.700  13.342
92935W        W61309  40.818  11.154   2.209
92936W        W61310  18.687  17.099   1.710
92937W        W61311  16.259  41.521   4.705
92938W        W61312  40.358  29.157   3.685
92939W        W61313   9.190   5.296  11.424
92940W        W61314  31.462  15.717  14.285
92941W        W61315  23.087  31.580  11.973
92942W        W61316   0.894  22.220   1.342
92943W        W61317  36.020  19.067  12.457
92944W        W61318   3.917  22.013   1.272
92945W        W61319  39.991   2.429   3.770
92946W        W61320   1.888  24.196   4.835
92947W        W61321  39.424  29.111  12.892
92948W        W61322  34.907  24.493   0.739
92949W        W61323  10.255  28.445  10.560
92950W        W61324  27.562   5.281  14.770
92951W        W61325   4.298  26.151  14.894
92952W        W61326  20.031  17.600   3.294
92953W        W61327  29.161   9.832  14.483
92954W        W61328   2.814  27.197   2.766
92955W        W61329   9.384  15.593   0.736
92956W        W61330  14.805   6.678  14.945
92957W        W61331  27.968  17.662  11.533
92958W        W61332  36.942  13.711  12.831
92959W        W61333  40.923  33.392   1.421
92960W        W61334  24.536   5.819   2.279
92961W        W61335  25.967  24.583  11.858
92962W        W61336  37.019  44.473  13.960
92963W        W61337   5.901  30.037  11.904
92964W        W61338  22.619  42.883   0.749
92965W        W61339  12.329   8.228   4.275
92966W        W61340  41.395  28.564  14.361
92967W        W61341  28.069  33.540  13.488
92968W        W61342   9.334  42.791  10.554
92969W        W61343  24.503  24.021   0.433
92970W        W61344  10.670  30.159  12.525
92971W        W61345   8.162   4.231  13.890
92972W        W61346  27.985  29.113   9.989
92973W        W61347  14.283   0.261   0.842
92974W        W61348  25.180  37.538  12.996
92975W        W61349  42.874   0.754   2.705
92976W        W61350   6.211  15.664   2.245
92977W        W61351  27.943  26.648  10.983
92978W        W61352  13.334  30.419  12.413
92979W        W61353   6.258  28.110   5.295
92980W        W61354  43.450   8.321  12.019
92981W        W61355  17.685   8.361   3.812
92982W        W61356  39.322   5.200   3.223
92983W        W61357  18.239  40.349  11.005
92984W        W61358  10.252  26.581  11.004
92985W        W61359  43.374   9.796   2.821
92986W        W61360  25.080  11.172  12.401
92987W        W61361  12.136  41.034  14.903
92988W        W61362  37.955   5.747   3.320
92989W        W61363   3.305  20.605  13.319
92990W        W61364   6.373  11.292  11.091
92991W        W61365   2.847  14.329  10.429
92992W        W61366  16.124  30.549  14.943
92993W        W61367  39.551  11.818  13.459
92994W        W61368   3.387   3.418   2.873
92995W        W61369  41.830  23.142  11.518
92996W        W61370  22.210  20.043   1.362
92997W        W61371   5.324  31.031  12.366
92998W        W61372  16.149  22.590   0.810
92999W        W61373  10.285   7.820  14.431
93000W        W61374  34.482  42.493   1.332
93001W        W61375   1.257  28.935   4.125
93002W        W61376  27.562  33.100  11.969
93003W        W61377   0.293  24.142   1.767
93004W        W61378  38.398   6.270   3.173
93005W        W61379  37.456   9.153   0.819
93006W        W61380  22.534  21.066  14.451
93007W        W61381   8.723  39.945   1.426
93008W        W61382   2.244  26.994  10.468
93009W        W61383  14.787  33.438  14.025
93010W        W61384   7.287  13.326   3.181
93011W        W61385  13.275   2.951  12.070
93012W        W61386  28.480  36.465   3.699
93013W        W61387   4.854  41.378   2.778
93014W        W61388  29.048  13.786  12.441
93015W        W61389  20.217   9.867   3.844
93016W        W61390  10.812  30.984  13.900
93017W        W61391  23.732  16.117  12.918
93018W        W61392  32.989  34.516   4.651
93019W        W61393  42.986  38.538  13.960
93020W        W61394  11.683  15.246  14.007
93021W        W61395   6.408  32.464   2.763
93022W        W61396  19.655   0.406   1.222
93023W        W61397  28.086  27.681  12.895
93024W        W61398   9.811  34.974  14.965
93025W        W61399  39.996   4.278  14.019
93026W        W61400   4.917  23.125  13.526
93027W        W61401   3.814  19.572  14.299
93028W        W61402  13.752   9.277   1.697
93029W        W61403  42.516   9.703  13.339
93030W        W61404  17.579  34.370   1.928
93031W        W61405  39.533   5.860   3.336
93032W        W61406  11.192  16.620  11.481
93033W        W61407   4.273   9.876   2.820
93034W        W61408   2.414   0.401   0.829
93035W        W61409   5.781  39.336  14.434
93036W        W61410  29.973  35.556  12.932
93037W        W61411   0.288   1.834  13.512
93038W        W61412  21.084  18.158   2.746
93039W        W61413  21.090  13.298   5.208
93040W        W61414  14.297  27.479  14.942
93041W        W61415  28.500  36.971  11.091
93042W        W61416  25.069   3.761   0.408
93043W        W61417  17.258   7.406   3.374
93044W        W61418  40.340  13.702  13.821
93045W        W61419  22.525  24.108   0.748
93046W        W61420  33.021  32.912   0.729
93047W        W61421   9.885  44.809  13.044
93048W        W61422  20.700  11.314   3.249
93049W        W61423  44.365  42.467  14.363
93050W        W61424   2.414  30.519  10.578
93051W        W61425   8.262  42.870   2.807
93052W        W61426   2.740  34.514   0.423
93053W        W61427   8.848  31.573  12.504
93054W        W61428  34.439  27.588  11.516
93055W        W61429   2.741  39.318  10.987
93056W        W61430  38.429  18.618   1.735
93057W        W61431   2.942  30.652  14.448
93058W        W61432  11.157   8.309   4.292
93059W        W61433  33.538  40.867   0.363
93060W        W61434  32.958  42.350   0.266
93061W        W61435  27.182   9.714   2.673
93062W        W61436  10.806  41.394   0.919
93063W        W61437  29.594  12.821  11.091
93064W        W61438  31.969  25.111   4.195
93065W        W61439  24.579  15.595   2.706
93066W        W61440  22.126  11.173   0.763
93067W        W61441  10.213  43.911   9.972
93068W        W61442  22.571  19.248   2.796
93069W        W61443  26.473  41.006   2.182
93070W        W61444   5.386  12.849   3.638
93071W        W61445  19.626  36.012  10.628
93072W        W61446   4.828  23.583  11.117
93073W        W61447   4.747  12.768  11.887
93074W        W61448   4.220  16.262  12.519
93075W        W61449  29.989  33.619   1.368
93076W        W61450  24.510  29.066  12.580
93077W        W61451  26.579  43.340   5.568
93078W        W61452  35.981  12.839  11.908
93079W        W61453   6.896  17.730   3.738
93080W        W61454  42.016   4.926   5.186
93081W        W61455   9.827  37.043  13.016
93082W        W61456  26.618  18.212  13.794
93083W        W61457  23.622  33.591   3.352
93084W        W61458  20.141  29.488  13.846
93085W        W61459  38.396  20.203  14.960
93086W        W61460  39.058  30.016   4.345
93087W        W61461   6.245  21.185   4.191
93088W        W61462  32.630  23.003   0.452
93089W        W61463  38.475  35.569   3.241
93090W        W61464  22.587  25.480   0.959
93091W        W61465   8.868   3.782  13.964
93092W        W61466  22.659  43.468   0.958
93093W        W61467  22.163  43.360  14.963
93094W        W61468  30.152  38.558   2.270
93095W        W61469  37.541   2.864  11.966
93096W        W61470  15.321  32.462  14.970
93097W        W61471  40.519  29.075   1.277
93098W        W61472  20.668   7.376  11.995
93099W        W61473  21.078   6.185  12.490
93100W        W61474  36.409   2.357  11.439
93101W        W61475   6.407  29.548   4.137
93102W        W61476   9.704  18.182   1.306
93103W        W61477  37.038  24.087   4.808
93104W        W61478   8.673  29.046  12.482
93105W        W61479  21.209  38.010   4.212
93106W        W61480  37.078  40.542   0.815
93107W        W61481   8.339  12.718   2.813
93108W        W61482  33.942   5.778  13.351
93109W        W61483  27.478  13.815   1.757
93110W        W61484   7.869  26.062   1.395
93111W        W61485  13.158  29.121  12.415
93112W        W61486  44.358  26.060  12.484
93113W        W61487  20.541  37.916  13.417
93114W        W61488  32.393   6.899   1.297
93115W        W61489  31.546   6.819  14.032
93116W        W61490  13.174  36.933  10.967
93117W        W61491  30.479  11.174  11.374
93118W        W61492  44.423  18.637  11.022
93119W        W61493  29.566  19.136  13.442
93120W        W61494   7.264  11.722  12.959
93121W        W61495   8.333  10.670   2.347
93122W        W61496  29.518  43.294  13.437
93123W        W61497   2.232   2.720   4.324
93124W        W61498  17.798   1.388   1.252
93125W        W61499  21.082  20.547  11.025
93126W        W61500   2.322  44.827  12.884
93127W        W61501  10.701  15.114  11.492
93128W        W61502  29.455   0.758  10.593
93129W        W61503   3.437  41.440  12.955
93130W        W61504   6.281  23.621  12.899
93131W        W61505  41.375  22.676  14.828
93132W        W61506  29.668   3.229  14.873
93133W        W61507  14.137   5.927  12.459
93134W        W61508  19.263  42.405   3.220
93135W        W61509   7.180  43.304   1.797
93136W        W61510  23.170  17.676  11.399
93137W        W61511  16.191  44.505  13.526
93138W        W61512  44.818  22.077  12.511
93139W        W61513   7.184  10.175  10.507
93140W        W61514  42.464  36.586   4.297
93141W        W61515   5.750  23.140   9.934
93142W        W61516  32.423  16.149   2.322
93143W        W61517  40.396  32.400  14.445
93144W        W61518  31.081   4.284   0.961
93145W        W61519  27.948   9.224   4.609
93146W        W61520  28.668   0.411   5.222
93147W        W61521  20.576  13.742  12.901
93148W        W61522  23.091  11.306   0.423
93149W        W61523  19.639  43.401   3.784
93150W        W61524  40.853  35.882  13.390
93151W        W61525   7.895  44.270   5.252
93152W        W61526   1.325   1.914   0.734
93153W        W61527  13.195  35.000   0.859
93154W        W61528  25.182  23.237   3.342
93155W        W61529   2.359  32.958   4.228
93156W        W61530   2.321  12.325  12.030
93157W        W61531  34.408   9.185  14.350
93158W        W61532   7.864  40.864   3.766
93159W        W61533   3.880  18.747   3.853
93160W        W61534  16.716  20.105  12.964
93161W        W61535  20.268  40.868   0.836
93162W        W61536  43.370  11.314   3.353
93163W        W61537   6.315  44.472  13.993
93164W        W61538  26.077   9.255  11.931
93165W        W61539   2.836  22.597   4.633
93166W        W61540   0.477   2.845   1.320
93167W        W61541   9.708   7.912  12.065
93168W        W61542  11.132  35.535   4.338
93169W        W61543  34.597  35.436   2.885
93170W        W61544   2.353   8.862  13.542
93171W        W61545  15.794   0.853  11.858
93172W        W61546  28.628  35.033   1.787
93173W        W61547  29.605  42.792   0.371
93174W        W61548   3.712  26.051  12.879
93175W        W61549  18.180   9.873   2.770
93176W        W61550  42.951  22.710  12.957
93177W        W61551  41.926  27.470   0.952
93178W        W61552  15.695  31.116  12.827
93179W        W61553  10.183  14.304   2.406
93180W        W61554  12.141  17.133  13.361
93181W        W61555  34.586  20.240   1.326
93182W        W61556  25.552  21.580  14.505
93183W        W61557   4.287  28.491   0.905
93184W        W61558  34.061   9.793   1.430
93185W        W61559   6.368  34.458  11.593
93186W        W61560  23.147  31.524  14.967
93187W        W61561   1.477   6.388   2.750
93188W        W61562  17.112  18.168   4.757
93189W        W61563   9.702  27.533  12.855
93190W        W61564   4.282  19.174   0.917
93191W        W61565  40.926  20.729   4.694
93192W        W61566  12.152   2.943   3.863
93193W        W61567  43.339  18.181   1.804
93194W        W61568  44.504  22.053  13.910
93195W        W61569  39.921  38.413  10.967
93196W        W61570  40.441   2.773  10.557
93197W        W61571  37.950  25.986  12.005
93198W        W61572  11.751   2.730   4.248
93199W        W61573  36.376  17.173  14.966
93200W        W61574  41.450  24.214  12.064
93201W        W61575   3.863  26.460   0.264
93202W        W61576  13.297  11.748  12.843
93203W        W61577  42.455  13.749   1.841
93204W        W61578  22.544   2.309  11.384
93205W        W61579  32.079   8.397   4.314
93206W        W61580  39.017  26.528  12.481
93207W        W61581  24.160   1.774  10.152
93208W        W61582  29.953  35.897  13.837
93209W        W61583  22.238  15.791  11.113
93210W        W61584  20.602  40.816   2.688
93211W        W61585  28.463   9.734  13.439
93212W        W61586  43.814  40.384   4.167
93213W        W61587   2.900  44.499  14.349
93214W        W61588   6.888  16.181   1.308
93215W        W61589  44.488  25.217   4.795
93216W        W61590  17.118  20.742   0.448
93217W        W61591  16.638  25.134   4.123
93218W        W61592   8.727  11.302  14.815
93219W        W61593  24.612  17.150   2.190
93220W        W61594  29.068  22.196   0.406
93221W        W61595  32.941   9.723   0.920
93222W        W61596  29.475  34.501   2.184
93223W        W61597  32.593  41.939  10.491
93224W        W61598   9.647  16.157   2.241
93225W        W61599   0.807   0.831   2.341
93226W        W61600  22.214  40.827   4.214
93227W        W61601   7.367  11.761  14.963
93228W        W61602  21.263  34.045  12.422
93229W        W61603   2.360  27.107   0.816
93230W        W61604  26.096  13.644  13.012
93231W        W61605  20.592  36.577   2.899
93232W        W61606  15.240  18.707   0.247
93233W        W61607  32.983  31.005  12.477
93234W        W61608  28.012  35.885  11.414
93235W        W61609  22.585  33.009  13.454
93236W        W61610   3.252   6.758   0.872
93237W        W61611   4.410  35.360   3.702
93238W        W61612   1.402  33.520  14.402
93239W        W61613   7.891  17.713  14.913
93240W        W61614  19.722   0.287   4.221
93241W        W61615  31.039  35.404   0.365
93242W        W61616  26.124  25.021   1.908
93243W        W61617  37.865  31.131  14.812
93244W        W61618  12.306  16.786  12.377
93245W        W61619   1.403  15.115  11.109
93246W        W61620  20.050  31.934  12.439
93247W        W61621  17.640  36.423   0.261
93248W        W61622   4.713  30.491  13.392
93249W        W61623   9.392  36.507   1.439
93250W        W61624  38.875   4.753  11.036
93251W        W61625  16.788  22.509   3.356
93252W        W61626  18.253  12.144  14.803
93253W        W61627   1.357  27.954  12.092
93254W        W61628   6.258  14.166   2.876
93255W        W61629  40.392  30.440  12.352
93256W        W61630  24.182  26.989   4.223
93257W        W61631  13.194  23.178   1.269
93258W        W61632   6.220   1.813  13.506
93259W        W61633  27.040  32.480   3.727
93260W        W61634  41.431  19.698  12.515
93261W        W61635  30.135   7.713   1.860
93262W        W61636   0.862  11.712  13.381
93263W        W61637  39.910  39.538   4.786
93264W        W61638  28.490  27.540  12.012
93265W        W61639  21.038  33.594   1.879
93266W        W61640  11.200  13.750  12.080
93267W        W61641   4.855  11.733   3.840
93268W        W61642  41.296  23.512  13.946
93269W        W61643  23.208  11.846  10.479
93270W        W61644   5.923   9.303  10.423
93271W        W61645   9.170  17.782   1.780
93272W        W61646  37.933  19.088   2.666
93273W        W61647  38.356  30.098   1.285
93274W        W61648  26.591   3.917   4.144
93275W        W61649  33.903  41.999  11.933
93276W        W61650  37.443  27.088  12.082
93277W        W61651  39.322  23.155   4.696
93278W        W61652  34.484  22.060  13.443
93279W        W61653   9.177  42.843  13.828
93280W        W61654  22.118  17.082  10.898
93281W        W61655  24.213  12.268  12.917
93282W        W61656  24.143  30.055   5.156
93283W        W61657  20.167   7.830   1.261
93284W        W61658  16.716   4.305   4.748
93285W        W61659  39.879   6.236   2.670
93286W        W61660  18.658   8.282   4.313
93287W        W61661  16.737  29.944  12.549
93288W        W61662   5.733  14.167  11.408
93289W        W61663  14.812  32.033  13.472
93290W        W61664  28.642  41.340  13.520
93291W        W61665   0.289   2.345   3.784
93292W        W61666  12.172  42.944   2.191
93293W        W61667  34.055  41.525   3.677
93294W        W61668  44.859  18.580  14.441
93295W        W61669  16.743  10.857  13.940
93296W        W61670  15.767   2.287  13.064
93297W        W61671  12.340  26.676  12.375
93298W        W61672  21.097  39.002   3.274
93299W        W61673  29.491  40.543  11.116
93300W        W61674  12.812   3.263  14.815
93301W        W61675  42.306  44.960  12.909
93302W        W61676  37.992  35.550  13.538
93303W        W61677  13.198  25.159  11.454
93304W        W61678   6.348  25.560  13.415
93305W        W61679  13.674  16.198   2.805
93306W        W61680  15.130  39.882   3.797
93307W        W61681  27.102  37.019   0.830
93308W        W61682   9.160   8.324  13.493
93309W        W61683  10.722  27.000  11.969
93310W        W61684  15.187   8.246   5.632
93311W        W61685  44.803  37.056   3.860
93312W        W61686  18.268  32.621   4.164
93313W        W61687  36.405  28.014  10.512
93314W        W61688  12.737  31.965   1.371
93315W        W61689  23.628   0.759  14.333
93316W        W61690  18.172  42.866  13.823
93317W        W61691  13.684  11.805  10.989
93318W        W61692   3.839  20.111   1.339
93319W        W61693  31.635  33.917  13.949
93320W        W61694  21.101   9.780  10.553
93321W        W61695  38.920  38.997  14.989
93322W        W61696  10.248  36.848  14.835
93323W        W61697  29.064   6.836   1.336
93324W        W61698  35.931   4.358   0.817
93325W        W61699   2.726  26.028  11.995
93326W        W61700  21.081  39.884  10.577
93327W        W61701   0.285   0.300   4.119
93328W        W61702  14.214  10.637  12.492
93329W        W61703  40.029   6.817   0.287
93330W        W61704  20.685  40.451   3.839
93331W        W61705  44.297  21.639   5.264
93332W        W61706  31.569   5.697   3.833
93333W        W61707  41.315   2.235  14.904
93334W        W61708  12.736  34.069   3.774
93335W        W61709  27.636   1.316  12.843
93336W        W61710  10.845  12.215   0.443
93337W        W61711  12.741  42.985  12.430
93338W        W61712  11.865  43.795   2.344
93339W        W61713  13.751   2.297  14.330
93340W        W61714  25.196  22.175   3.338
93341W        W61715  42.012  10.301  14.868
93342W        W61716  11.687  14.336  11.927
93343W        W61717  20.034  25.500   2.385
93344W        W61718  28.470  42.962  10.489
93345W        W61719  13.740  12.629   2.228
93346W        W61720  28.668   2.351   4.337
93347W        W61721  26.195  26.011  14.302
93348W        W61722  27.491  43.448  14.008
93349W        W61723  18.561   6.793  14.284
93350W        W61724  10.872  14.145   2.237
93351W        W61725   0.874  26.179   0.293
93352W        W61726  27.088   0.828  14.907
93353W        W61727  34.961  19.058  11.891
93354W        W61728  18.729  42.976  13.908
93355W        W61729  37.371  17.685  14.027
93356W        W61730  29.561  22.561   3.194
93357W        W61731  31.100  11.168   0.422
93358W        W61732  17.095  23.055  13.886
93359W        W61733  37.341  25.478  10.995
93360W        W61734   0.467  16.317  11.017
93361W        W61735  39.964  14.121  11.588
93362W        W61736  15.818  37.497  11.495
93363W        W61737  44.340   5.319  12.380
93364W        W61738   7.806  39.482   0.359
93365W        W61739  10.640  33.126  11.541
93366W        W61740  13.241  26.609   2.397
93367W        W61741  33.129  38.555  14.288
93368W        W61742   1.273   0.871   4.142
93369W        W61743  10.205  28.979   4.118
93370W        W61744  44.933   2.940   2.315
93371W        W61745  29.147  32.591  12.843
93372W        W61746  19.242  12.819  14.350
93373W        W61747  24.486  43.451   0.400
93374W        W61748  37.927  38.334  13.445
93375W        W61749  30.115   2.886  12.888
93376W        W61750  37.853  38.827   3.787
93377W        W61751  24.015  11.724  14.960
93378W        W61752   2.398   9.331   2.735
93379W        W61753  43.416   6.282  11.905
93380W        W61754  25.547  15.288   4.798
93381W        W61755  14.715  32.482   0.312
93382W        W61756   0.852  38.969   0.341
93383W        W61757   1.400  28.631  10.572
93384W        W61758  22.123  19.068   3.165
93385W        W61759  17.780  22.537   1.800
93386W        W61760   2.746  23.021   4.650
93387W        W61761  39.552  18.119   0.262
93388W        W61762  31.419   9.874   2.238
93389W        W61763  30.924   1.865   4.832
93390W        W61764  32.554   3.739  14.458
93391W        W61765  15.638   2.864   2.225
93392W        W61766  10.782  35.598  12.892
93393W        W61767   5.382  44.352   9.924
93394W        W61768  39.314   2.833   3.344
93395W        W61769  35.924  29.458  14.352
93396W        W61770  33.490  33.054   1.893
93397W        W61771  26.113   2.330  14.450
93398W        W61772  37.847  22.623  13.799
93399W        W61773  36.457  33.900   3.791
93400W        W61774  14.268  34.875  11.422
93401W        W61775   0.783  39.981  12.871
93402W        W61776   8.335  24.104   9.447
93403W        W61777  27.511  22.560   0.400
93404W        W61778  28.475   7.805   1.436
93405W        W61779   5.838  20.704  14.417
93406W        W61780  42.295  23.669  10.599
93407W        W61781   2.792  36.509   1.298
93408W        W61782   6.412  29.643  10.025
93409W        W61783  15.756  44.813   1.863
93410W        W61784  27.448  41.510   3.274
93411W        W61785  18.053   1.427   3.316
93412W        W61786  33.990  41.440  10.898
93413W        W61787  20.691  35.035  12.425
93414W        W61788  16.710  36.563   0.756
93415W        W61789  40.966  15.675   2.871
93416W        W61790  39.492  29.502  14.881
93417W        W61791  38.538  27.468  13.013
93418W        W61792  38.375  44.279   0.912
93419W        W61793  20.680  24.698   0.422
93420W        W61794   4.222  34.457  12.494
93421W        W61795   3.390  44.420  10.558
93422W        W61796   8.776   9.361   0.918
93423W        W61797  34.379   3.445  14.473
93424W        W61798  20.690  40.045  12.519
93425W        W61799  36.496  18.685   1.830
93426W        W61800  35.577   1.954  12.359
93427W        W61801   0.763   2.758   3.293
93428W        W61802   8.164  17.166   2.891
93429W        W61803  38.408  11.818   0.448
93430W        W61804  39.333   1.932   2.727
93431W        W61805  41.449  23.034   2.776
93432W        W61806  21.253   2.286   5.116
93433W        W61807  25.471  30.949  11.564
93434W        W61808  34.932   0.285   2.717
93435W        W61809   0.823   6.419   3.758
93436W        W61810  20.583  25.546  12.575
93437W        W61811  13.786   4.410  11.561
93438W        W61812  13.602   3.298   0.916
93439W        W61813  31.915  43.298  14.841
93440W        W61814  34.490   5.409  14.870
93441W        W61815  38.939  11.352  12.395
93442W        W61816  32.985  12.626  11.508
93443W        W61817  20.049   2.406  11.395
93444W        W61818   9.838  38.057   4.222
93445W        W61819  23.132   0.781   2.898
93446W        W61820  28.522   7.266  11.903
93447W        W61821   1.388   1.413  13.994
93448W        W61822  43.879  20.055   1.331
93449W        W61823   0.327  10.873   1.818
93450W        W61824  25.647  15.779   4.747
93451W        W61825  11.372  32.984  13.930
93452W        W61826   9.809  31.463   0.893
93453W        W61827  41.376  41.919   1.705
93454W        W61828  35.600   2.863  12.476
93455W        W61829  40.894  20.750   3.186
93456W        W61830   1.797  37.528   1.274
93457W        W61831  26.962  14.127   4.225
93458W        W61832  38.385  24.520  11.474
93459W        W61833  10.782  34.028   0.767
93460W        W61834  18.141  17.618  14.379
93461W        W61835  12.158  43.878  14.793
93462W        W61836  40.837  44.449  11.394
93463W        W61837  40.858  11.138  10.959
93464W        W61838  26.158  31.439   1.350
93465W        W61839   8.870  18.597  11.896
93466W        W61840  20.725  32.017  13.445
93467W        W61841  15.085  42.966   4.829
93468W        W61842  16.745  23.595  12.446
93469W        W61843  39.448  12.126   3.370
93470W        W61844  40.895  18.074   3.673
93471W        W61845   9.191  35.402   0.752
93472W        W61846  12.669  17.572  14.369
93473W        W61847  29.445  41.335  13.405
93474W        W61848  13.338  11.182  10.478
93475W        W61849  44.316  32.548   0.883
93476W        W61850   9.271  14.129   4.674
93477W        W61851  41.020  18.728   1.727
93478W        W61852   7.349  10.227  13.920
93479W        W61853  17.635  38.931   0.407
93480W        W61854  37.912   6.762  14.028
93481W        W61855  12.855  29.023  14.814
93482W        W61856  24.560  10.355  14.292
93483W        W61857  11.371  32.427  10.904
93484W        W61858   3.781  26.624   4.328
93485W        W61859  43.767  38.872   0.421
93486W        W61860   8.390   2.447  11.438
93487W        W61861  13.815  10.289  13.988
93488W        W61862  19.746  14.282  12.081
93489W        W61863  43.976  42.448  12.472
93490W        W61864  26.147  32.564  14.389
93491W        W61865  20.140  19.562  13.799
93492W        W61866  22.079  42.792  12.469
93493W        W61867  19.122  39.860  10.514
93494W        W61868  32.502  37.040  14.435
93495W        W61869  34.518  13.785   2.851
93496W        W61870  32.594  34.868   0.878
93497W        W61871  28.941  34.869   2.371
93498W        W61872  44.769  29.008   1.310
93499W        W61873  10.289   4.437   1.737
93500W        W61874   3.955  37.559  12.458
93501W        W61875  41.302   2.877   3.826
93502W        W61876  34.495  35.423   0.851
93503W        W61877  13.263  38.992  10.618
93504W        W61878  16.207   1.910   0.772
93505W        W61879  20.682  42.323   2.754
93506W        W61880  42.499   5.430  10.568
93507W        W61881   5.319  28.943   4.155
93508W        W61882  21.629  11.194  14.783
93509W        W61883  21.162  27.015   2.211
93510W        W61884  21.165  40.529  10.046
93511W        W61885   5.818  19.602  11.095
93512W        W61886  18.549   2.777  13.333
93513W        W61887  35.513  37.509  14.376
93514W        W61888  17.180   8.724   4.323
93515W        W61889  24.680   9.805   4.788
93516W        W61890  35.020  33.603  14.980
93517W        W61891  14.756  43.374  13.346
93518W        W61892  40.833  27.618   3.153
93519W        W61893   9.822   2.344  14.415
93520W        W61894  41.410  19.540  11.014
93521W        W61895  32.031  38.330   4.303
93522W        W61896  19.213  15.225   0.935
93523W        W61897   8.674  25.528  14.948
93524W        W61898  20.061  43.811   2.222
93525W        W61899  35.077  43.014   4.264
93526W        W61900  20.267   6.716  12.371
93527W        W61901  37.408  31.646   0.308
93528W        W61902  28.113  12.345   4.773
93529W        W61903  42.016   6.346  14.772
93530W        W61904  12.222  12.776   2.219
93531W        W61905  33.885  25.607  13.389
93532W        W61906  35.884  42.501   0.286
93533W        W61907  12.338  29.576  14.996
93534W        W61908  14.759  23.492   0.407
93535W        W61909   0.827   1.391   4.306
93536W        W61910  36.450   3.278  10.989
93537W        W61911   3.913   9.789  10.479
93538W        W61912  14.145   6.421  13.540
93539W        W61913   2.435  18.251  12.895
93540W        W61914  10.320  43.791   3.658
93541W        W61915  44.483  24.687   1.865
93542W        W61916  17.209  12.354   2.832
93543W        W61917  21.656  44.981  11.538
93544W        W61918  41.036   8.803  11.584
93545W        W61919  39.920  22.743  12.907
93546W        W61920  25.118   3.371   0.337
93547W        W61921   7.888   9.157  10.480
93548W        W61922  16.316  40.977  13.496
93549W        W61923   2.795  26.701   3.785
93550W        W61924   1.965  17.574  12.838
93551W        W61925  44.934  19.230   0.269
93552W        W61926  38.883  10.760  10.887
93553W        W61927  14.263   4.768  10.098
93554W        W61928  11.633  28.462   2.391
93555W        W61929  37.388  29.016  13.366
93556W        W61930  10.783   1.320   1.302
93557W        W61931  35.899  41.000  13.511
93558W        W61932   0.973  16.753   2.390
93559W        W61933  39.024  27.489   0.732
93560W        W61934  16.693  15.642   0.863
93561W        W61935  32.545  15.152  14.877
93562W        W61936  17.790  41.514   3.683
93563W        W61937  44.434  14.748  10.509
93564W        W61938   4.862  20.575  13.893
93565W        W61939  39.446  33.977  12.386
93566W        W61940  27.621  33.413   2.869
93567W        W61941  16.735  31.598  11.403
93568W        W61942  43.851  17.672   0.875
93569W        W61943  23.013   1.927   1.840
93570W        W61944   8.783  22.043  13.352
93571W        W61945  11.298   1.339   2.363
93572W        W61946   6.788  42.925  11.532
93573W        W61947  15.097  28.974   1.770
93574W        W61948   3.422  14.277  12.541
93575W        W61949  21.756  38.347  12.559
93576W        W61950  22.738  43.797  13.964
93577W        W61951   3.332  26.147   1.697
93578W        W61952  27.170   9.660   4.631
93579W        W61953   5.435   7.308  14.867
93580W        W61954  22.051  15.245   3.704
93581W        W61955  42.420  26.683  10.129
93582W        W61956   8.362  37.347  13.493
93583W        W61957  38.363  18.275   4.668
93584W        W61958  14.150  15.325   2.221
93585W        W61959  36.423  10.717   1.211
93586W        W61960  28.661  21.668   1.224
93587W        W61961  19.042   3.798   0.448
93588W        W61962   7.673  19.109  13.910
93589W        W61963  13.632  41.399  12.521
93590W        W61964  19.570  19.147   2.744
93591W        W61965  16.110  33.588  10.971
93592W        W61966  42.904  25.009  14.398
93593W        W61967  18.257  16.190   0.771
93594W        W61968   2.772  17.756   2.801
93595W        W61969   4.227  28.116  12.888
93596W        W61970  15.789  37.874  14.406
93597W        W61971  13.117  37.346   3.724
93598W        W61972  43.500  40.836   2.897
93599W        W61973  39.496  37.904   1.737
93600W        W61974   0.307   3.243  12.366
93601W        W61975  32.026   6.271  11.920
93602W        W61976  10.279  21.172  10.907
93603W        W61977  12.142  14.241  11.960
93604W        W61978  13.602   5.866  14.491
93605W        W61979  35.005  18.160  14.327
93606W        W61980  22.706  42.788   4.182
93607W        W61981   6.764  42.312  14.857
93608W        W61982   9.393  36.562  14.819
93609W        W61983  38.034  38.032   0.801
93610W        W61984  40.935   1.756   2.334
93611W        W61985  17.280  29.474   1.907
93612W        W61986   1.410  19.586   2.858
93613W        W61987  27.667  33.943   2.827
93614W        W61988  41.038  22.735   1.754
93615W        W61989  37.393  15.736  12.961
93616W        W61990  29.130   9.214  14.407
93617W        W61991  41.888   1.412  10.541
93618W        W61992  44.342  18.282  11.928
93619W        W61993   8.661   6.426  11.103
93620W        W61994  33.024  10.154   2.195
93621W        W61995  20.623  35.490   0.839
93622W        W61996  33.595  41.799   2.740
93623W        W61997   1.881   7.378  14.473
93624W        W61998  16.738  38.418   2.665
93625W        W61999   3.710  27.146  12.834
93626W        W62000  37.006  25.980  11.573
93627W        W62001  33.048   3.350  13.882
93628W        W62002  11.797  37.003  12.368
93629W        W62003  34.871  14.630   3.692
93630W        W62004  15.203  22.127   2.842
93631W        W62005  26.577  17.755  10.949
93632W        W62006  18.078   6.377  12.979
93633W        W62007  24.622  27.501   2.324
93634W        W62008  14.735   8.363  13.313
93635W        W62009  44.943  31.495  13.501
93636W        W62010  31.421  16.079   0.831
93637W        W62011  16.315  42.404  14.838
93638W        W62012  43.891  40.401  14.349
93639W        W62013  19.087  13.677  14.936
93640W        W62014  38.876  16.645  12.490
93641W        W62015  14.710  40.885   0.369
93642W        W62016  25.708  12.769  12.908
93643W        W62017  16.225  10.779   3.296
93644W        W62018  22.729  18.089   2.322
93645W        W62019  42.961  42.871  11.027
93646W        W62020  33.524   9.211   1.750
93647W        W62021   9.812   1.331   3.297
93648W        W62022  13.136  22.064  14.430
93649W        W62023  42.400   3.846   4.183
93650W        W62024   0.392  41.950  12.041
93651W        W62025  42.791  34.459   2.342
93652W        W62026  11.359  22.139   1.705
93653W        W62027  44.436  16.240  12.041
93654W        W62028  30.547  21.021  12.825
93655W        W62029  13.673   0.294   1.766
93656W        W62030  28.540  32.003  10.436
93657W        W62031  24.126  21.112  13.794
93658W        W62032  26.051  30.630  13.339
93659W        W62033  34.927  32.034  12.022
93660W        W62034  23.541   5.911   2.326
93661W        W62035  27.030  12.137   1.869
93662W        W62036  12.301   1.309  14.849
93663W        W62037  43.464  35.014  12.092
93664W        W62038  42.351  18.713  14.894
93665W        W62039  17.093   1.840   1.272
93666W        W62040  28.440   6.414  14.839
93667W        W62041   1.474  34.560   3.857
93668W        W62042  44.894   8.893   0.471
93669W        W62043  26.629  32.042   4.272
93670W        W62044  14.132  36.540   3.157
93671W        W62045   3.395  41.313  10.565
93672W        W62046  10.363  18.728   3.250
93673W        W62047  29.995  10.368  13.309
93674W        W62048  40.318  28.149  13.897
93675W        W62049   1.897  42.395   1.900
93676W        W62050  30.459  34.074  14.499
93677W        W62051   0.887  33.490   2.209
93678W        W62052  29.613  43.785  13.426
93679W        W62053  29.550  40.513   2.757
93680W        W62054  23.699  11.822  14.762
93681W        W62055   6.207   8.287   3.376
93682W        W62056   3.221  14.312   1.809
93683W        W62057  39.320   0.966   0.739
93684W        W62058  38.865  36.962  14.481
93685W        W62059   1.850  12.784   4.317
93686W        W62060  41.906  23.566  10.570
93687W        W62061  23.551  39.019   5.120
93688W        W62062  34.010   3.341  11.557
93689W        W62063  44.462  40.338   3.760
93690W        W62064  33.885  13.741  12.983
93691W        W62065  39.948  43.484   0.797
93692W        W62066  42.366  29.639  14.495
93693W        W62067  35.451  16.072   3.282
93694W        W62068   0.248  41.878  13.031
93695W        W62069   4.862  32.016  12.899
93696W        W62070  17.177  12.164  10.905
93697W        W62071  41.383  44.403  13.855
93698W        W62072  37.038   1.886  13.994
93699W        W62073  12.138  39.352  14.926
93700W        W62074  26.665  31.100   2.705
93701W        W62075  13.222  28.572   1.829
93702W        W62076   2.242  44.847   2.303
93703W        W62077   5.703  35.398  10.564
93704W        W62078  39.421  21.243  14.291
93705W        W62079  12.161  44.909  11.984
93706W        W62080   7.325  42.341   2.799
93707W        W62081   2.465   0.959  14.475
93708W        W62082  15.233  43.827  14.354
93709W        W62083   8.668  34.469   3.751
93710W        W62084  32.392   3.281  13.840
93711W        W62085  11.631  17.586   3.294
93712W        W62086  39.908  43.407  13.460
93713W        W62087  27.148  22.671   2.886
93714W        W62088  15.690  25.651   2.385
93715W        W62089   7.741  30.985   4.805
93716W        W62090  16.572   4.829  14.861
93717W        W62091   8.734  13.835   0.793
93718W        W62092  20.241   1.274  12.404
93719W        W62093   5.357  10.262  14.281
93720W        W62094   9.199  19.168   0.434
93721W        W62095  43.492   9.852   1.290
93722W        W62096  23.506  22.118   3.699
93723W        W62097  44.319  43.831  11.942
93724W        W62098  41.327   9.237  11.013
93725W        W62099   2.422  12.311  11.414
93726W        W62100  28.064  26.095  12.906
93727W        W62101  43.326  38.838   0.456
93728W        W62102  32.093  41.522  14.408
93729W        W62103  17.146  23.207   1.448
93730W        W62104  40.432  27.569  11.559
93731W        W62105  21.522  14.236   2.413
93732W        W62106  15.129   3.374  12.959
93733W        W62107   7.185   0.321   0.270
93734W        W62108  39.548  41.814   1.824
93735W        W62109  12.706   1.402  13.973
93736W        W62110   2.932   0.960   2.734
93737W        W62111  34.038   5.792  14.302
93738W        W62112  18.718  27.593   4.641
93739W        W62113  33.518  23.628   2.778
93740W        W62114   7.400  23.089  14.297
93741W        W62115  39.029  36.084   1.842
93742W        W62116  23.206   4.900   1.395
93743W        W62117  39.854  36.994  14.359
93744W        W62118   7.743  43.443   0.289
93745W        W62119  26.112   6.768   4.702
93746W        W62120  33.444  39.025  12.518
93747W        W62121   2.291  22.070   2.744
93748W        W62122  31.045   2.892   3.870
93749W        W62123  35.563   9.847  13.850
93750W        W62124  12.673  30.147  14.410
93751W        W62125   2.950  37.416   4.794
93752W        W62126  35.457  15.634   4.620
93753W        W62127  29.652   1.285   2.694
93754W        W62128   5.293  12.242  11.880
93755W        W62129  23.122  16.697   5.186
93756W        W62130   2.471  13.258  10.610
93757W        W62131   6.332  23.006   0.893
93758W        W62132  18.671  22.702  14.361
93759W        W62133   4.857  22.222   2.748
93760W        W62134  44.407  38.064   1.775
93761W        W62135   3.923  25.486  13.530
93762W        W62136   7.177  18.233   0.764
93763W        W62137   7.780  20.689  13.005
93764W        W62138  25.154  33.126   4.726
93765W        W62139  21.691  18.220  14.855
93766W        W62140  31.920   9.338  12.871
93767W        W62141  16.741  19.727   0.333
93768W        W62142  15.305   5.404   2.676
93769W        W62143   9.154  44.468   2.832
93770W        W62144  14.754  24.047   1.785
93771W        W62145  15.667  14.804  14.026
93772W        W62146  34.546  34.474  11.463
93773W        W62147  32.482  44.374   0.946
93774W        W62148  10.309  20.137  13.428
93775W        W62149  10.218  43.378   1.363
93776W        W62150  41.457  39.044  14.811
93777W        W62151  41.451  39.325  11.540
93778W        W62152  29.026   4.862   2.897
93779W        W62153  37.387   6.356   4.710
93780W        W62154  30.431  13.675   0.273
93781W        W62155  38.834  17.086  12.067
93782W        W62156   4.384   4.356   1.262
93783W        W62157   1.322   6.291  13.903
93784W        W62158  40.944  20.586   1.427
93785W        W62159  37.470  10.828  11.583
93786W        W62160  43.444   4.337   2.210
93787W        W62161  10.240  28.124  13.327
93788W        W62162  42.308  42.472  12.908
93789W        W62163  42.780   3.380  10.015
93790W        W62164  19.060  25.674  12.503
93791W        W62165  11.841  15.731   0.778
93792W        W62166  12.123   4.817  14.924
93793W        W62167  21.152   3.427  14.759
93794W        W62168  41.386  33.001  14.426
93795W        W62169  34.415  36.906   3.363
93796W        W62170  26.509  36.962   4.189
93797W        W62171  13.615  19.659  13.369
93798W        W62172  10.701  38.969  14.786
93799W        W62173   9.858  24.984  14.887
93800W        W62174  23.600  38.950  10.565
93801W        W62175   2.456   0.386   3.168
93802W        W62176  43.896  18.262   3.274
93803W        W62177   8.340  30.527   4.655
93804W        W62178  31.435   4.731   3.666
93805W        W62179  10.142  44.927   0.820
93806W        W62180  15.793   7.345   1.243
93807W        W62181   5.926  26.021   3.275
93808W        W62182  42.009  38.907  10.515
93809W        W62183  13.787   0.466  14.966
93810W        W62184  22.590  42.940   2.281
93811W        W62185  12.288  23.552   1.935
93812W        W62186  12.130  25.207  11.064
93813W        W62187  38.014  20.230   3.360
93814W        W62188  29.127  18.194  10.625
93815W        W62189  31.979   5.751   1.281
93816W        W62190  29.070  21.582   3.330
93817W        W62191  38.908   6.782   4.128
93818W        W62192  21.686  21.042   3.824
93819W        W62193  23.683  32.027   5.182
93820W        W62194  16.109  14.808   0.861
93821W        W62195  33.445  42.431   3.253
93822W        W62196  43.890  12.723   0.482
93823W        W62197  41.952  39.522   4.766
93824W        W62198  30.555   0.848  13.479
93825W        W62199  10.676   3.806  11.121
93826W        W62200  26.617  23.492  10.470
93827W        W62201   8.747  12.734   4.242
93828W        W62202  36.475  11.647   3.180
93829W        W62203  23.718  12.234   4.797
93830W        W62204  37.830  18.293  14.020
93831W        W62205  43.402   4.771   9.958
93832W        W62206  32.499  21.047   1.759
93833W        W62207   1.417   0.805   4.696
93834W        W62208  35.854  24.093   3.344
93835W        W62209  41.846  24.986  14.875
93836W        W62210  18.109   1.901  12.873
93837W        W62211   5.370  11.307   1.374
93838W        W62212  24.132  28.994  13.324
93839W        W62213  17.795   5.347  14.032
93840W        W62214   6.888  22.689  13.440
93841W        W62215  37.487   1.290  13.825
93842W        W62216  16.154  43.384   4.345
93843W        W62217  17.625  42.383  13.866
93844W        W62218   8.709  40.807  12.910
93845W        W62219  44.413  29.100   1.393
93846W        W62220  28.593   6.882   4.158
93847W        W62221  14.745   9.651  11.425
93848W        W62222  28.951  34.925  12.557
93849W        W62223  32.082  23.727   1.231
93850W        W62224  14.825  14.306   2.856
93851W        W62225  37.353  21.677   1.276
93852W        W62226   7.207   2.857  14.928
93853W        W62227   7.232  20.758  12.380
93854W        W62228  36.356  16.228  12.935
93855W        W62229   4.871  28.114   4.705
93856W        W62230  14.113  39.428   4.292
93857W        W62231  40.386  25.659  10.926
93858W        W62232  32.082  37.536   1.282
93859W        W62233   0.332  22.086  14.290
93860W        W62234  30.645   8.288  11.552
93861W        W62235  36.573  10.724  12.428
93862W        W62236  24.709  16.689  13.519
93863W        W62237  20.038   7.884   3.772
93864W        W62238  27.151  33.612   2.740
93865W        W62239   0.757  33.488   1.307
93866W        W62240   3.231   0.976   3.656
93867W        W62241  26.104   1.274   0.763
93868W        W62242  38.950  41.511  13.539
93869W        W62243  36.947  44.771   1.879
93870W        W62244  34.428  21.078  13.465
93871W        W62245   9.829  37.519   2.292
93872W        W62246  25.151  43.849   4.689
93873W        W62247   3.223  21.721   0.420
93874W        W62248  17.792  42.285  12.082
93875W        W62249   0.792  39.870  11.394
93876W        W62250   6.260  27.668   4.220
93877W        W62251  35.016   9.184   4.763
93878W        W62252  41.004  36.899   1.913
93879W        W62253  31.979  25.215   0.412
93880W        W62254  33.463  25.109   1.404
93881W        W62255   4.939   8.698  13.877
93882W        W62256  37.577  21.679  11.489
93883W        W62257  39.942  19.058   4.130
93884W        W62258  14.259  36.375  14.415
93885W        W62259   2.324  35.442   3.760
93886W        W62260   3.801   3.723   1.812
93887W        W62261  29.981  16.665  13.843
93888W        W62262  22.152  19.070   4.194
93889W        W62263  13.327   9.318  10.156
93890W        W62264  27.608  20.212   3.660
93891W        W62265  12.832   3.384   2.705
93892W        W62266  22.247  40.507   1.368
93893W        W62267  28.939   6.241   0.820
93894W        W62268  27.048  22.539   0.955
93895W        W62269   3.225  12.730   3.691
93896W        W62270  30.993  41.992   0.885
93897W        W62271  12.768  10.670   3.804
93898W        W62272  25.137   6.302   1.398
93899W        W62273  30.982  16.810  14.949
93900W        W62274   4.919   0.475   0.444
93901W        W62275  41.032  36.861   2.884
93902W        W62276  37.959  29.011   4.662
93903W        W62277  32.096   1.276  11.898
93904W        W62278   9.643   7.234   1.253
93905W        W62279   4.284  13.649  11.099
93906W        W62280   1.942  44.773  14.812
93907W        W62281  10.373  43.322  14.345
93908W        W62282  20.175   4.266  13.966
93909W        W62283  17.189   7.796   0.253
93910W        W62284  43.948  37.403  12.876
93911W        W62285  43.925  38.828   2.889
93912W        W62286  35.385   4.903  10.487
93913W        W62287   1.884   1.277  13.541
93914W        W62288  25.067   6.360   2.296
93915W        W62289  17.733   9.849  12.391
93916W        W62290  35.941   9.317  14.282
93917W        W62291  28.672  28.012  11.961
93918W        W62292  32.461  25.490  11.937
93919W        W62293  33.487  39.422   3.789
93920W        W62294  43.376  21.642  11.555
93921W        W62295  37.938   9.890   1.225
93922W        W62296  33.584   5.797   3.208
93923W        W62297  24.043  14.725   2.216
93924W        W62298  28.009   3.870  13.037
93925W        W62299  30.110  24.207  12.464
93926W        W62300  39.908  13.709  14.876
93927W        W62301  39.010   1.867   0.884
93928W        W62302  18.132  42.871   1.813
93929W        W62303  40.410   4.398   2.364
93930W        W62304  19.759   3.435   0.758
93931W        W62305  10.807  33.527   3.301
93932W        W62306  17.694  33.577   3.635
93933W        W62307  30.056  38.940  14.361
93934W        W62308  17.285  35.429   2.182
93935W        W62309  31.943  14.141  10.621
93936W        W62310  19.236  15.815   4.175
93937W        W62311   1.419  13.305  12.055
93938W        W62312  39.339  31.633   4.227
93939W        W62313   9.383  23.514   3.870
93940W        W62314  11.844  36.566  14.913
93941W        W62315  17.093  18.219   0.422
93942W        W62316   1.479  27.538   3.661
93943W        W62317  35.599  21.733   3.834
93944W        W62318  39.906  22.543   1.314
93945W        W62319   0.463  37.945  12.824
93946W        W62320   2.420  12.750   2.325
93947W        W62321  38.834  44.913  13.384
93948W        W62322   6.745   9.801   3.819
93949W        W62323  32.073  41.811  12.493
93950W        W62324  20.171  25.620  13.881
93951W        W62325  33.593  31.129  13.839
93952W        W62326  38.372  25.970   0.826
93953W        W62327  28.516  38.459   0.315
93954W        W62328  27.550  25.520   0.959
93955W        W62329  20.559  43.312  12.876
93956W        W62330  27.659   1.328  11.492
93957W        W62331  15.287  20.733   0.826
93958W        W62332  13.300  17.255  14.854
93959W        W62333  30.463  28.957  13.796
93960W        W62334   5.273   3.292   0.321
93961W        W62335   7.832   3.363   0.381
93962W        W62336  32.922  22.087   4.656
93963W        W62337   0.366  31.563  12.478
93964W        W62338   3.785   7.265   3.201
93965W        W62339   1.864   8.703  11.515
93966W        W62340  11.784  12.156   1.304
93967W        W62341  26.699  21.608  11.444
93968W        W62342  30.957  13.791   4.219
93969W        W62343   4.363  23.170  12.976
93970W        W62344  12.295   0.770  13.923
93971W        W62345  14.173  25.473   0.322
93972W        W62346  15.591  23.584   0.831
93973W        W62347  21.248  35.088  10.904
93974W        W62348   6.753  19.555   4.210
93975W        W62349  18.750  35.508  10.472
93976W        W62350  31.522  11.840   0.963
93977W        W62351  19.767  36.369   3.221
93978W        W62352  11.293   1.731   1.340
93979W        W62353  19.623  17.143   0.258
93980W        W62354   3.741  33.086   2.333
93981W        W62355   5.278  10.663   0.941
93982W        W62356   4.294  41.426   1.362
93983W        W62357   8.762   2.802  12.402
93984W        W62358  13.808  23.041  12.863
93985W        W62359  34.068  29.032   3.321
93986W        W62360  43.886   8.779   2.278
93987W        W62361  11.250   8.827  11.472
93988W        W62362  24.215  11.855  13.874
93989W        W62363   9.388  17.665   2.866
93990W        W62364  36.556  40.893   2.799
93991W        W62365  40.469  20.762  13.488
93992W        W62366  16.148  42.400  10.985
93993W        W62367   6.197  33.972   2.899
93994W        W62368  40.400   0.403  10.426
93995W        W62369  44.477  34.964  10.498
93996W        W62370  23.640  16.714  11.916
93997W        W62371  37.489   8.850   2.753
93998W        W62372  11.165  33.536  11.606
93999W        W62373  44.804  33.095   3.792
94000W        W62374  27.686  14.720   1.871
94001W        W62375   2.850  11.752  14.935
94002W        W62376   4.411  23.993  13.311
94003W        W62377  44.468  21.727  11.606
94004W        W62378   5.218  24.010   5.640
94005W        W62379  32.522  24.225   4.310
94006W        W62380  44.006  42.422   3.334
94007W        W62381  41.018  26.115  13.059
94008W        W62382  16.190  25.621  11.421
94009W        W62383  27.016  17.136   1.230
94010W        W62384  17.095  40.904  12.043
94011W        W62385  26.978  18.616   0.246
94012W        W62386   9.250  40.866  14.449
94013W        W62387  33.932  26.069  14.000
94014W        W62388  42.026  35.076   2.270
94015W        W62389   0.443  32.932  14.490
94016W        W62390  22.524   8.678  13.481
94017W        W62391  34.593   5.226  14.014
94018W        W62392  15.661  11.777   1.806
94019W        W62393   3.722  32.498  13.523
94020W        W62394  15.613  22.684   4.654
94021W        W62395  33.609  32.017  11.066
94022W        W62396  25.097   0.271  10.583
94023W        W62397   1.973  13.179  13.499
94024W        W62398  10.174  36.403  12.953
94025W        W62399   1.466  36.990   0.243
94026W        W62400   9.352  16.106  12.539
94027W        W62401  44.995   7.351   3.752
94028W        W62402  33.957  24.167  10.968
94029W        W62403  17.722  30.448   2.299
94030W        W62404  13.344  39.549   3.817
94031W        W62405  43.485  19.639   2.298
94032W        W62406  16.131   4.398  12.882
94033W        W62407  18.646  12.179  11.387
94034W        W62408  25.075  43.289  14.968
94035W        W62409  34.111  36.579   1.888
94036W        W62410   9.218  12.206  11.088
94037W        W62411  41.010  30.110  11.884
94038W        W62412   8.693  10.776   4.831
94039W        W62413  18.596  32.967  10.489
94040W        W62414   1.344  10.792   4.250
94041W        W62415  29.615   1.243   3.839
94042W        W62416  35.360  21.747  14.332
94043W        W62417  28.051  38.404   2.694
94044W        W62418  23.517   8.750  12.892
94045W        W62419  34.533  16.277  12.879
94046W        W62420  42.781  18.601   4.249
94047W        W62421   5.242   6.817   3.312
94048W        W62422  22.194  32.053  13.850
94049W        W62423  19.206  40.934   1.702
94050W        W62424  43.416   9.189  14.312
94051W        W62425  34.543  41.806  11.397
94052W        W62426   2.357  29.131   4.679
94053W        W62427  32.950  41.016   0.763
94054W        W62428  24.009  39.947  10.118
94055W        W62429  20.670   2.778   1.423
94056W        W62430  34.488  21.671   1.228
94057W        W62431  26.111  41.958  10.456
94058W        W62432  10.212   3.214  14.298
94059W        W62433  24.043  26.529  10.887
94060W        W62434  17.748  43.364  11.613
94061W        W62435  28.989  29.085   3.769
94062W        W62436  40.853  24.126   0.264
94063W        W62437  15.182  40.364   1.717
94064W        W62438  23.543  34.970  12.044
94065W        W62439  38.529   8.239   4.339
94066W        W62440   4.345   8.394   2.810
94067W        W62441   2.456  33.892  13.923
94068W        W62442  35.081   8.258  12.414
94069W        W62443  21.685  33.513   1.751
94070W        W62444  42.470  31.135   2.675
94071W        W62445  44.302  40.825   2.764
94072W        W62446  34.425   5.403  11.440
94073W        W62447   6.345  44.884   4.622
94074W        W62448  29.612   8.675  10.051
94075W        W62449  43.365   9.218   4.780
94076W        W62450  33.458  22.663   5.251
94077W        W62451  26.139  33.046  13.309
94078W        W62452  20.149   7.243   3.308
94079W        W62453  31.986  19.142   1.386
94080W        W62454   0.776   2.272   4.821
94081W        W62455   9.391   3.311   0.951
94082W        W62456  17.595   9.291   2.202
94083W        W62457  21.648  38.003  11.867
94084W        W62458  38.006  37.887   3.843
94085W        W62459   7.872   5.797  12.340
94086W        W62460  15.611  36.411   4.294
94087W        W62461  28.028   1.370  10.515
94088W        W62462   1.854  43.404  12.019
94089W        W62463   6.327  17.667   4.351
94090W        W62464  43.424  25.701   3.175
94091W        W62465   5.833   7.671   0.919
94092W        W62466  19.687  23.050   3.303
94093W        W62467  44.909  28.523   3.842
94094W        W62468  36.010   7.867  13.949
94095W        W62469  16.131  17.292   1.725
94096W        W62470  30.022  23.688  13.809
94097W        W62471  18.058  11.725   3.719
94098W        W62472  32.987   1.952  11.410
94099W        W62473  23.703  23.202   4.232
94100W        W62474   3.857  17.116  10.908
94101W        W62475  44.376  18.633  10.426
94102W        W62476   8.756  43.472   0.889
94103W        W62477  32.133  23.515   0.939
94104W        W62478  29.590  22.149   1.860
94105W        W62479   7.783   5.816  11.056
94106W        W62480  36.480  12.617   4.330
94107W        W62481   1.815  34.994  10.524
94108W        W62482  31.534  30.115   2.262
94109W        W62483   7.816  25.711   0.351
94110W        W62484  13.748  11.635   3.369
94111W        W62485  33.445  40.395  11.587
94112W        W62486  29.597  35.948   2.798
94113W        W62487  23.985  33.418  10.596
94114W        W62488  43.380  38.514   3.159
94115W        W62489  33.601   4.824  10.084
94116W        W62490  42.320  29.971  12.392
94117W        W62491  28.984   4.795   1.912
94118W        W62492   4.801   3.832   9.946
94119W        W62493   2.805  24.533  14.366
94120W        W62494  26.155  34.047   1.264
94121W        W62495  28.520   5.901   4.686
94122W        W62496   9.225  41.913   4.151
94123W        W62497  21.628  37.372  12.510
94124W        W62498  15.583  41.903  14.000
94125W        W62499   8.248  36.844   2.298
94126W        W62500  22.096   1.400  14.982
94127W        W62501  24.055  36.573  10.450
94128W        W62502  41.429  25.189   0.415
94129W        W62503  18.631  39.942  12.082
94130W        W62504   4.257  23.103  13.838
94131W        W62505  14.673  42.437  13.397
94132W        W62506  39.437  15.694   4.353
94133W        W62507  11.336  27.560  11.884
94134W        W62508  21.027  28.677  13.384
94135W        W62509   5.903   2.848   4.638
94136W        W62510  18.268  29.591  13.375
94137W        W62511  30.989  16.640   4.129
94138W        W62512  29.656  32.017   3.767
94139W        W62513  19.123  30.463  11.607
94140W        W62514  10.218  33.465   1.822
94141W        W62515  23.548  23.560   1.326
94142W        W62516  24.013  27.063  13.404
94143W        W62517  23.538  26.068   4.604
94144W        W62518  15.795  12.833  12.970
94145W        W62519  19.705  15.170   0.866
94146W        W62520  37.505   0.927   5.237
94147W        W62521  24.650  32.395  11.088
94148W        W62522  19.102  24.054  13.322
94149W        W62523  38.045  21.186   3.310
94150W        W62524  15.326   4.745   4.832
94151W        W62525  36.933  16.747  14.420
94152W        W62526  22.572  24.630   3.764
94153W        W62527  39.850  24.020  10.434
94154W        W62528  32.630  15.587  10.477
94155W        W62529  16.689  24.056   0.320
94156W        W62530  10.796  31.556   2.345
94157W        W62531  13.219  22.719   3.844
94158W        W62532  16.637  25.490  10.992
94159W        W62533  10.814   0.955   1.444
94160W        W62534   8.748   1.264   2.253
94161W        W62535   2.731  34.496   4.752
94162W        W62536  23.668  18.637  14.998
94163W        W62537  20.262  38.054  13.001
94164W        W62538  28.635   2.456  13.852
94165W        W62539  41.852  13.674   4.219
94166W        W62540  16.104  32.471  14.488
94167W        W62541   6.704  38.487  12.451
94168W        W62542  38.046  41.860   0.730
94169W        W62543  34.518  27.981   2.792
94170W        W62544   6.361  12.814   2.224
94171W        W62545  31.520  26.678   3.765
94172W        W62546   5.296  43.888   1.348
94173W        W62547   7.780   6.837   2.319
94174W        W62548  11.658   3.758   2.303
94175W        W62549  14.700   7.315  10.100
94176W        W62550   5.839   3.734  14.494
94177W        W62551  43.346  19.625  11.970
94178W        W62552  10.741   8.880  13.981
94179W        W62553  32.920  24.672  13.530
94180W        W62554  25.983  22.044  12.423
94181W        W62555  17.206  16.578  14.758
94182W        W62556  10.707  14.794  12.068
94183W        W62557  28.059   3.894   2.729
94184W        W62558   2.912  12.818   3.795
94185W        W62559  10.641  13.846  11.020
94186W        W62560  40.827   1.743  10.591
94187W        W62561  28.092   9.243  13.364
94188W        W62562  22.148  16.700  12.453
94189W        W62563  13.821  31.001   2.392
94190W        W62564  32.581  36.881  11.019
94191W        W62565   9.364  29.998  12.468
94192W        W62566   3.258  22.029  11.437
94193W        W62567  31.630  14.589  10.946
94194W        W62568  14.286  41.490  12.080
94195W        W62569  13.781  43.849  11.016
94196W        W62570  26.700  25.009  11.421
94197W        W62571  38.850   3.386  14.840
94198W        W62572  17.228   3.877  11.515
94199W        W62573  33.089  31.967  11.605
94200W        W62574  12.118  26.464  11.373
94201W        W62575   9.737  14.203   3.222
94202W        W62576  15.604  25.625  12.886
94203W        W62577  16.761  37.021  14.000
94204W        W62578  38.446  18.754  11.515
94205W        W62579  24.613  31.430  10.947
94206W        W62580  36.493  41.462  13.017
94207W        W62581   4.224  21.055   4.798
94208W        W62582  39.832  23.601  12.442
94209W        W62583  42.431  34.398  13.472
94210W        W62584  40.491  22.175   0.942
94211W        W62585  30.420  14.825  10.414
94212W        W62586  33.540  43.272   1.228
94213W        W62587  41.522  42.343   1.791
94214W        W62588  30.130   3.747  10.529
94215W        W62589  16.112  32.565   1.798
94216W        W62590  35.853   7.737   4.133
94217W        W62591   5.866  30.492   0.733
94218W        W62592  27.063  20.175   3.172
94219W        W62593  16.592  41.814  13.006
94220W        W62594  42.470  22.724  14.890
94221W        W62595  44.269  20.102   0.294
94222W        W62596   2.960  27.130   3.646
94223W        W62597  23.056   6.186   4.314
94224W        W62598  40.483   0.805  11.885
94225W        W62599  15.693   3.258   0.411
94226W        W62600  41.445  39.029   4.321
94227W        W62601  24.987  17.675   5.279
94228W        W62602   0.476  10.666   0.453
94229W        W62603  22.159   3.767  11.875
94230W        W62604   0.917  43.927   2.412
94231W        W62605   8.712  39.001   2.876
94232W        W62606  39.428  19.732   3.165
94233W        W62607  29.972  21.630  14.283
94234W        W62608   0.301  14.148   4.613
94235W        W62609  41.013  43.344   4.224
94236W        W62610  36.477   9.213   2.400
94237W        W62611  26.109   7.747  13.961
94238W        W62612  23.099  11.181  11.932
94239W        W62613  26.510  17.171   3.743
94240W        W62614  26.053  16.692  14.856
94241W        W62615  27.084  40.929  11.125
94242W        W62616  16.609  35.887   1.797
94243W        W62617  10.148  44.495   2.816
94244W        W62618  11.141  10.330  13.933
94245W        W62619  19.143  22.585   4.822
94246W        W62620   0.300   8.227  12.027
94247W        W62621  42.502  38.992   0.964
94248W        W62622  26.654  43.806  14.885
94249W        W62623  37.863  40.507  12.509
94250W        W62624  41.843  21.629   3.826
94251W        W62625  44.865  29.961  13.884
94252W        W62626  27.145  27.590  13.997
94253W        W62627  11.798  35.877   3.642
94254W        W62628  29.445  33.975  11.900
94255W        W62629  44.478  20.202  14.013
94256W        W62630  25.095  37.354  11.579
94257W        W62631  13.203  15.091  13.370
94258W        W62632  28.930   2.293  10.998
94259W        W62633  44.871  13.651   2.696
94260W        W62634  26.515  31.574   3.349
94261W        W62635   8.245  14.592   3.646
94262W        W62636   3.854   2.852  12.351
94263W        W62637  20.662  32.999   2.773
94264W        W62638  12.244  42.466  12.480
94265W        W62639  28.435  31.510  14.967
94266W        W62640  30.483  11.256   0.865
94267W        W62641  42.948   4.842   1.234
94268W        W62642  20.240  10.777  12.823
94269W        W62643  38.034  11.861   4.606
94270W        W62644  19.219  28.552   3.861
94271W        W62645  44.337  44.416   5.276
94272W        W62646   8.715   0.943   2.703
94273W        W62647  28.474  38.936  12.845
94274W        W62648  16.131  23.703   3.699
94275W        W62649  38.540  42.382   3.188
94276W        W62650  13.653  20.666  14.416
94277W        W62651  20.131  27.678  12.829
94278W        W62652  38.932  36.085  14.804
94279W        W62653  33.089  35.102  13.499
94280W        W62654  30.054  24.149   0.741
94281W        W62655  29.046   5.933   0.876
94282W        W62656  17.105   5.220  12.046
94283W        W62657   7.400  33.046   3.780
94284W        W62658  27.975  23.042  12.882
94285W        W62659  20.154  36.371  10.962
94286W        W62660   8.684  10.682   0.308
94287W        W62661  28.063  28.633   0.824
94288W        W62662   8.287  43.894  11.557
94289W        W62663   1.405  35.478   3.764
94290W        W62664  15.289  17.096   3.837
94291W        W62665  27.979  43.922   1.929
94292W        W62666  44.270  16.098  10.442
94293W        W62667  35.517   9.686   4.768
94294W        W62668  20.594  44.898  12.091
94295W        W62669  23.698   1.946  11.523
94296W        W62670   6.774   6.253   3.766
94297W        W62671  24.715  28.033   4.667
94298W        W62672  42.908  24.063  12.384
94299W        W62673  15.694   3.762  10.529
94300W        W62674  14.756  22.026  13.397
94301W        W62675  32.551   0.292   0.302
94302W        W62676  38.025  24.535   2.857
94303W        W62677  32.138  37.356  13.946
94304W        W62678  31.102  27.195  13.511
94305W        W62679  17.778  24.175  12.400
94306W        W62680  42.896  34.497  13.388
94307W        W62681  12.254  16.132   0.396
94308W        W62682   5.332   8.205   2.788
94309W        W62683   2.306   1.313   3.629
94310W        W62684  13.770   5.428   1.450
94311W        W62685  11.158   9.254   4.179
94312W        W62686  30.086  35.578   3.706
94313W        W62687  19.734  42.840  11.996
94314W        W62688  20.176  26.666  11.976
94315W        W62689  12.305   5.689   4.212
94316W        W62690  40.996  18.235  13.516
94317W        W62691  23.131   9.821  11.976
94318W        W62692  21.114  15.586  10.065
94319W        W62693  24.498  11.228  14.784
94320W        W62694  35.935   9.822   4.336
94321W        W62695  21.615   2.816   2.747
94322W        W62696   9.267  28.509  13.993
94323W        W62697  11.828  30.141  10.502
94324W        W62698   0.476  41.410   4.835
94325W        W62699  23.605  13.822   4.158
94326W        W62700  17.720  11.335   1.797
94327W        W62701  37.039  36.451  11.548
94328W        W62702  39.444   8.720   1.813
94329W        W62703  10.155  30.545   1.226
94330W        W62704  15.605  11.335  11.518
94331W        W62705  25.102   0.447  10.902
94332W        W62706  30.489  22.747   3.749
94333W        W62707   6.369   2.226   2.670
94334W        W62708  17.082  29.076  13.975
94335W        W62709  32.566  10.189   1.731
94336W        W62710  15.669  37.547  10.577
94337W        W62711   2.777  40.309  10.533
94338W        W62712  22.157  44.837  11.993
94339W        W62713  37.415  15.091   3.764
94340W        W62714  41.421  13.335  11.000
94341W        W62715  13.345  41.997  12.038
94342W        W62716   7.249   2.282   2.386
94343W        W62717  38.542   3.394  13.994
94344W        W62718  30.044  14.747   2.673
94345W        W62719  21.152  14.721   1.319
94346W        W62720  26.678  19.696  10.504
94347W        W62721  11.719  21.687  13.860
94348W        W62722  32.098  31.549   2.902
94349W        W62723   2.365  35.101  13.061
94350W        W62724  20.173  35.863   0.737
94351W        W62725  35.408  12.345  11.434
94352W        W62726   3.226  40.853  13.546
94353W        W62727  22.572  25.116   2.209
94354W        W62728  42.418  43.871  10.534
94355W        W62729   7.687  14.695   3.215
94356W        W62730  26.569   9.868   2.701
94357W        W62731   0.347  35.533  13.403
94358W        W62732  38.356  18.202  13.515
94359W        W62733  33.945  19.062  14.829
94360W        W62734  32.888  33.034  12.002
94361W        W62735   5.428  15.730   1.815
94362W        W62736  29.154  17.065   4.822
94363W        W62737  35.902  42.484   1.771
94364W        W62738  25.702  30.001   4.208
94365W        W62739  21.090  23.489  10.939
94366W        W62740  23.149  25.506  13.361
94367W        W62741   5.358   1.339  11.478
94368W        W62742   2.842   7.798  13.059
94369W        W62743  31.007  14.128  14.328
94370W        W62744   0.413  36.062  11.527
94371W        W62745  28.958  41.865  13.967
94372W        W62746  12.654  34.441   4.739
94373W        W62747   0.338  16.709   1.219
94374W        W62748  19.177  33.011   1.852
94375W        W62749  21.106  40.505  12.004
94376W        W62750  24.093  18.694  14.868
94377W        W62751  29.975   8.691  10.543
94378W        W62752  26.051  40.459   0.311
94379W        W62753  32.405   6.408  10.047
94380W        W62754  18.105   1.837   4.645
94381W        W62755   6.753  21.127   3.801
94382W        W62756  20.633   5.204  14.957
94383W        W62757  34.867  40.362  14.967
94384W        W62758   0.325  33.443   3.663
94385W        W62759  20.714   5.712  13.462
94386W        W62760  43.331  30.144  12.836
94387W        W62761   9.703  22.055  12.435
94388W        W62762  21.657  30.463   1.301
94389W        W62763  13.191  20.166  14.890
94390W        W62764  41.347   7.787  12.539
94391W        W62765  13.282  44.851   3.841
94392W        W62766  12.660   6.817   2.282
94393W        W62767  35.588  37.381   2.349
94394W        W62768   3.833  30.132  14.515
94395W        W62769  34.951  42.882  13.332
94396W        W62770   9.160  29.495  14.006
94397W        W62771   4.344  28.080  14.282
94398W        W62772  13.770  31.919   3.854
94399W        W62773  41.789  11.211  14.487
94400W        W62774  43.281  38.330   2.894
94401W        W62775  23.130  44.951   2.787
94402W        W62776  36.543   6.256   2.738
94403W        W62777  12.244  19.226   2.807
94404W        W62778  12.287  41.329  12.496
94405W        W62779  33.893   3.901   2.705
94406W        W62780  11.621  29.512   1.883
94407W        W62781   1.915   2.922  11.046
94408W        W62782  16.575  25.085  12.934
94409W        W62783  28.166  17.090   0.349
94410W        W62784   7.409  10.717  12.038
94411W        W62785  33.082  18.229   4.607
94412W        W62786  13.292  12.283   2.830
94413W        W62787  32.947  44.005  11.123
94414W        W62788  19.582   4.362  12.947
94415W        W62789  27.193   8.334   4.269
94416W        W62790  19.730  20.129  14.464
94417W        W62791  41.530  42.491   1.366
94418W        W62792   7.317  27.617   2.780
94419W        W62793   7.762   7.278   1.826
94420W        W62794  24.706  36.850  14.010
94421W        W62795  29.468  29.553  10.494
94422W        W62796  36.068  35.542  12.459
94423W        W62797  40.339  44.924   2.335
94424W        W62798  40.951  24.683   4.153
94425W        W62799  11.833  23.723   2.684
94426W        W62800  31.972   3.298   0.853
94427W        W62801  27.620  14.292  12.387
94428W        W62802  37.521  32.417  12.578
94429W        W62803  22.211  20.145  13.811
94430W        W62804  15.226  27.656   1.790
94431W        W62805  28.139  32.559  12.522
94432W        W62806  29.532  18.081   4.664
94433W        W62807  31.907  35.110   3.706
94434W        W62808  24.104  41.434  11.922
94435W        W62809  36.502  29.477  10.987
94436W        W62810  35.086  21.190   4.292
94437W        W62811  33.092  32.496  13.315
94438W        W62812   7.889  21.047  14.983
94439W        W62813  22.704  23.199   1.276
94440W        W62814  23.495  43.881   4.296
94441W        W62815  17.787  32.519   4.808
94442W        W62816  18.738  30.113   1.749
94443W        W62817  26.072   5.269   2.292
94444W        W62818  25.088  41.860  14.786
94445W        W62819  38.377  13.322  10.911
94446W        W62820  34.099   7.736  10.522
94447W        W62821  14.143   6.693  11.128
94448W        W62822  31.434  10.779   0.900
94449W        W62823  28.034  28.478  10.993
94450W        W62824  31.938  42.466   3.184
94451W        W62825  15.752  11.660  14.417
94452W        W62826  39.375   1.772   0.890
94453W        W62827   0.468  24.223  12.009
94454W        W62828  43.323   8.898   3.226
94455W        W62829   7.755  25.533  10.645
94456W        W62830  38.913  43.880  10.442
94457W        W62831  15.671   2.447   3.201
94458W        W62832   5.426  44.395  11.903
94459W        W62833  34.884  41.892   3.379
94460W        W62834  21.543  25.555  11.418
94461W        W62835   2.773  19.199  14.852
94462W        W62836   8.809  21.044   1.345
94463W        W62837  17.127  42.343   2.327
94464W        W62838  32.561  32.998   1.861
94465W        W62839   0.959  33.006  10.979
94466W        W62840  34.035  43.814  14.411
94467W        W62841  24.536  16.721  13.929
94468W        W62842  30.036  27.962   1.872
94469W        W62843  39.383  21.663   4.602
94470W        W62844   6.370  22.055  13.326
94471W        W62845  20.768  32.103   1.222
94472W        W62846  11.737  26.143  12.011
94473W        W62847  26.018  26.598  12.436
94474W        W62848  12.306  20.749  14.906
94475W        W62849   0.334  33.901   0.820
94476W        W62850  16.767  44.373  14.417
94477W        W62851  16.242   1.288   4.783
94478W        W62852  12.813  42.007   0.845
94479W        W62853  40.362  39.879  14.979
94480W        W62854  35.944   5.867   0.859
94481W        W62855  22.736  22.041   1.885
94482W        W62856   4.436   1.822   3.675
94483W        W62857  22.150  29.061  12.970
94484W        W62858  17.656  14.223   0.814
94485W        W62859  11.241  10.294  10.529
94486W        W62860  31.414   3.260   1.289
94487W        W62861  17.592  43.346   1.276
94488W        W62862  14.169   8.306   0.892
94489W        W62863  30.475  42.940   3.699
94490W        W62864  24.704  11.276   1.783
94491W        W62865  15.625  20.038   0.875
94492W        W62866  19.074   7.674   4.671
94493W        W62867  34.038  13.708   2.712
94494W        W62868  29.948  32.140   3.284
94495W        W62869  28.465  36.500  14.845
94496W        W62870  17.272   6.717   2.775
94497W        W62871  33.600  14.678  14.421
94498W        W62872  44.363  27.183   3.782
94499W        W62873  30.554  21.037  11.589
94500W        W62874  39.558   6.384   2.250
94501W        W62875   0.338  43.500  12.894
94502W        W62876  13.739  32.121   2.404
94503W        W62877  15.741   4.442  12.489
94504W        W62878  20.579   8.733  10.444
94505W        W62879  18.210  36.016  13.883
94506W        W62880  28.156  30.997  13.374
94507W        W62881  36.944  42.864  10.545
94508W        W62882  37.947  37.078   1.928
94509W        W62883  28.679   8.393  13.878
94510W        W62884  16.753  18.683   0.251
94511W        W62885  40.373  29.147  10.513
94512W        W62886   4.226  33.065  10.598
94513W        W62887  12.791  42.406   3.169
94514W        W62888  40.798  39.373   0.323
94515W        W62889  31.939   6.315   3.170
94516W        W62890  14.210  35.926   4.324
94517W        W62891  21.229  31.989  13.426
94518W        W62892   5.918  26.494   3.733
94519W        W62893   4.318  43.302  11.096
94520W        W62894  15.262  38.545   4.697
94521W        W62895  30.584  14.249  11.460
94522W        W62896   7.316   6.726   1.250
94523W        W62897  34.531  16.677  12.881
94524W        W62898  34.454   8.385  11.528
94525W        W62899  25.611  18.072   4.217
94526W        W62900  28.589  44.452   3.220
94527W        W62901  17.739  25.653   4.293
94528W        W62902   1.277  34.894  14.002
94529W        W62903  17.571  27.623  10.645
94530W        W62904  18.208  37.871   3.173
94531W        W62905  22.643  11.823   3.281
94532W        W62906  26.126  31.484  13.420
94533W        W62907  25.185  31.549   2.703
94534W        W62908  35.953   4.250   4.759
94535W        W62909   5.766   5.872  14.880
94536W        W62910   7.296  33.424  12.858
94537W        W62911  19.631  34.410  10.901
94538W        W62912  19.708   4.760  11.523
94539W        W62913  10.721  34.043   0.414
94540W        W62914  26.993   6.807   1.385
94541W        W62915  44.963  32.071  13.973
94542W        W62916   6.770  13.608   3.223
94543W        W62917  44.756  29.590   3.173
94544W        W62918  23.231  25.694  12.045
94545W        W62919   6.811  33.457   3.147
94546W        W62920  30.969  21.125  11.429
94547W        W62921  16.760  42.948   2.341
94548W        W62922   3.879  15.125   4.760
94549W        W62923   0.948  17.655   4.600
94550W        W62924  24.050  43.892  13.031
94551W        W62925  37.018   1.420   2.242
94552W        W62926  40.006  13.176   1.441
94553W        W62927   1.299  22.635   2.797
94554W        W62928  12.661  17.626  12.970
94555W        W62929   5.783   8.322   3.842
94556W        W62930  19.078  23.172   1.791
94557W        W62931  25.498   5.326   3.833
94558W        W62932   9.884   1.766   0.388
94559W        W62933   2.753  12.335   1.391
94560W        W62934  40.488   3.245  10.507
94561W        W62935  41.846  14.632  12.482
94562W        W62936  25.697  29.154  10.037
94563W        W62937  10.197  43.292  11.556
94564W        W62938  32.570  32.057   4.119
94565W        W62939  27.186  28.939   3.704
94566W        W62940  29.593  28.938  11.984
94567W        W62941  22.732  44.887  11.885
94568W        W62942  19.058   1.437  12.344
94569W        W62943   9.206  17.116  10.003
94570W        W62944  23.056  10.258  10.429
94571W        W62945  34.516   4.737  11.963
94572W        W62946  16.777  39.382  13.889
94573W        W62947  14.803  42.300   2.291
94574W        W62948  34.971  28.572  14.818
94575W        W62949  36.421  10.685   4.788
94576W        W62950  15.702  14.182   5.236
94577W        W62951  21.645  11.804   3.805
94578W        W62952  38.014   5.742  11.053
94579W        W62953  27.583   1.258   5.174
94580W        W62954  17.182   7.394  12.472
94581W        W62955  29.600   4.741   2.791
94582W        W62956   3.286  25.484   2.285
94583W        W62957  40.547  43.808  12.365
94584W        W62958   3.925  24.978   4.690
94585W        W62959  44.468   1.958   4.639
94586W        W62960  31.569  42.488  11.044
94587W        W62961  25.492  15.809  11.876
94588W        W62962  39.987  23.101  14.912
94589W        W62963   4.208  27.171   0.267
94590W        W62964  30.057  31.913   0.864
94591W        W62965  18.551  44.477  12.981
94592W        W62966  10.765  23.710  12.463
94593W        W62967  27.530  22.217   1.298
94594W        W62968   3.237   1.775   0.331
94595W        W62969   6.810   2.459   2.844
94596W        W62970  23.703   1.870  12.895
94597W        W62971  43.269  44.839  12.392
94598W        W62972  33.129  36.000  12.863
94599W        W62973  27.100   1.907  13.513
94600W        W62974   3.840   6.300  14.469
94601W        W62975  41.882   8.844  13.054
94602W        W62976  31.140  14.271   1.738
94603W        W62977  33.038  14.263   1.744
94604W        W62978   4.412  33.494   4.792
94605W        W62979   7.381  18.707  10.545
94606W        W62980   0.269  32.078   3.280
94607W        W62981  14.809  13.603  14.966
94608W        W62982  18.724  22.036  10.492
94609W        W62983  41.408   0.413  11.859
94610W        W62984  42.462   8.800   3.159
94611W        W62985  43.000  34.972  10.525
94612W        W62986   3.270  35.080  14.516
94613W        W62987  15.740  44.369   3.311
94614W        W62988  22.611  34.918   0.743
94615W        W62989  20.644  18.238  14.346
94616W        W62990  17.641  26.480  10.585
94617W        W62991  43.921  36.889   2.734
94618W        W62992  18.211  16.676  12.459
94619W        W62993  25.565  18.195  11.102
94620W        W62994  21.574  36.999  14.806
94621W        W62995  14.656   7.186   0.828
94622W        W62996   4.414  29.081   3.664
94623W        W62997  24.724  36.405   0.269
94624W        W62998  25.640  32.050   2.760
94625W        W62999  14.187  24.478  12.987
94626W        W63000  26.678  25.143  12.367
94627W        W63001   9.355  10.766  11.950
94628W        W63002   0.385  33.930   0.279
94629W        W63003  40.515  33.090  11.509
94630W        W63004   5.716  38.552   3.748
94631W        W63005   6.733   9.237  12.430
94632W        W63006  24.108  36.522  10.964
94633W        W63007   8.267  40.008  13.504
94634W        W63008  39.970   7.181   5.305
94635W        W63009   2.751  29.624  13.330
94636W        W63010  44.404   9.677   3.250
94637W        W63011  26.987  23.733  12.397
94638W        W63012  15.266  39.489   3.846
94639W        W63013  22.192  41.399   2.662
94640W        W63014  42.303   9.312  12.380
94641W        W63015  39.377  31.028  13.849
94642W        W63016  22.130  28.159   0.829
94643W        W63017  19.699  13.766  12.575
94644W        W63018  40.942  19.743  12.411
94645W        W63019   2.777  25.029   0.314
94646W        W63020   0.791  19.069   0.446
94647W        W63021   9.685  35.022  11.090
94648W        W63022  42.786  40.433   0.445
94649W        W63023  23.632  34.526   4.208
94650W        W63024  44.960  36.868  11.064
94651W        W63025  15.714  38.560   2.726
94652W        W63026  32.098  13.160  11.548
94653W        W63027  38.920  36.412   4.726
94654W        W63028  14.286  25.572  13.029
94655W        W63029  17.277  10.187   5.277
94656W        W63030  25.581  12.815  13.940
94657W        W63031  14.742  26.004  11.444
94658W        W63032   9.659  42.972  11.114
94659W        W63033  36.010  31.945  12.454
94660W        W63034  25.474  10.833   1.420
94661W        W63035  40.894  10.149  12.911
94662W        W63036  12.257  12.829   0.430
94663W        W63037  31.451   4.743  10.551
94664W        W63038   5.688  38.958   4.298
94665W        W63039  16.185  33.415   2.309
94666W        W63040   5.269   7.808  10.566
94667W        W63041  28.517  38.387  11.977
94668W        W63042   5.394  13.654  10.908
94669W        W63043  37.549  31.987   3.171
94670W        W63044  14.705   9.376  14.450
94671W        W63045  21.024  37.917   9.469
94672W        W63046   9.152  12.291  13.505
94673W        W63047  40.919  24.528   3.304
94674W        W63048  41.836  12.165   4.220
94675W        W63049  36.916  31.039   4.658
94676W        W63050   3.232  12.698   0.291
94677W        W63051  40.444  13.266   1.383
94678W        W63052   9.772   1.930  14.407
94679W        W63053  19.562  13.810   0.275
94680W        W63054   2.249  10.797  12.505
94681W        W63055   9.263  25.125  13.399
94682W        W63056  40.004  12.839  14.386
94683W        W63057  36.961  23.173  13.012
94684W        W63058  39.911  15.583   2.752
94685W        W63059  21.223  34.554  10.515
94686W        W63060  22.064  36.065  13.035
94687W        W63061  25.605  21.079  12.505
94688W        W63062  40.433  14.314  12.974
94689W        W63063   8.204  32.060  14.365
94690W        W63064  39.384  10.234   0.796
94691W        W63065   8.390  29.134  13.423
94692W        W63066   5.761  38.966   3.310
94693W        W63067  10.243  23.630  11.111
94694W        W63068   7.388  19.575  12.371
94695W        W63069  32.068  23.102  11.392
94696W        W63070   0.832  44.867   0.875
94697W        W63071  29.484   6.216  11.945
94698W        W63072   1.292  29.541  11.426
94699W        W63073  39.826  24.707  10.904
94700W        W63074  13.797  37.361  14.879
94701W        W63075   7.354  15.093   1.864
94702W        W63076  19.061   5.714  11.106
94703W        W63077  34.441   9.148  13.919
94704W        W63078  28.546   0.984  14.433
94705W        W63079   9.805   6.203   3.706
94706W        W63080  19.258  12.242  12.946
94707W        W63081  39.913   3.259   2.698
94708W        W63082  13.162  42.517  11.051
94709W        W63083  26.023  28.638  14.507
94710W        W63084  37.478   7.398  13.819
94711W        W63085   1.364   8.248  12.525
94712W        W63086  13.228   4.719  13.330
94713W        W63087  39.472  30.491   0.283
94714W        W63088   6.379  32.000   5.092
94715W        W63089  33.910  17.678   4.120
94716W        W63090   8.797  18.226  14.500
94717W        W63091   1.875   4.245  11.561
94718W        W63092  23.154  28.452   4.331
94719W        W63093  26.114  10.160   0.776
94720W        W63094  34.927  40.993  13.915
94721W        W63095  14.325  32.143  14.952
94722W        W63096  27.575  18.590   3.164
94723W        W63097  41.373  38.058  14.447
94724W        W63098  40.916   8.696  13.502
94725W        W63099  26.668  27.053  13.409
94726W        W63100  40.964  15.820   3.792
94727W        W63101  24.229  11.680  10.446
94728W        W63102  21.628   7.266   2.244
94729W        W63103  12.656   9.198  10.403
94730W        W63104   4.392   0.383  14.991
94731W        W63105  29.493  15.691  14.291
94732W        W63106   8.350  39.961  10.452
94733W        W63107  33.524  35.533   1.421
94734W        W63108   6.793  11.156   4.225
94735W        W63109  10.215  21.070  10.031
94736W        W63110   7.302  16.152  13.318
94737W        W63111  15.121  31.016   2.206
94738W        W63112  13.837  20.162   2.671
94739W        W63113  44.368  38.516  10.953
94740W        W63114  28.059  16.282   2.704
94741W        W63115   4.311  11.788   1.791
94742W        W63116  33.434   2.434  11.439
94743W        W63117   4.417  33.394   4.186
94744W        W63118  36.008  13.702  11.123
94745W        W63119  22.124  31.992  12.378
94746W        W63120  27.655  18.659   3.647
94747W        W63121  24.167   2.350  10.562
94748W        W63122  14.676  39.841  13.316
94749W        W63123  16.598   3.442  12.545
94750W        W63124  36.881   3.952   3.262
94751W        W63125  22.061   3.411  12.531
94752W        W63126  20.164  24.006   4.336
94753W        W63127  28.047   3.225  10.590
94754W        W63128  11.173   3.861  13.835
94755W        W63129  10.840  24.172   3.296
94756W        W63130  30.460   5.286  13.993
94757W        W63131  37.930   7.333   0.811
94758W        W63132  40.306  35.043   3.363
94759W        W63133  20.036  14.822  13.801
94760W        W63134  12.141  15.623  10.016
94761W        W63135  41.951  41.002   3.376
94762W        W63136  13.258  34.391   1.261
94763W        W63137  38.000  35.512  13.862
94764W        W63138  32.888   3.390   3.384
94765W        W63139  41.522  10.217  13.548
94766W        W63140  31.944  21.033   5.305
94767W        W63141  23.691   5.431   2.752
94768W        W63142  27.453  30.000   3.326
94769W        W63143  43.787  21.724  13.958
94770W        W63144  37.847  35.603   1.276
94771W        W63145   4.837  35.864  10.572
94772W        W63146  17.078  30.122  14.496
94773W        W63147  26.204   4.764   1.788
94774W        W63148   1.918  28.138  10.934
94775W        W63149  29.064   8.396   1.782
94776W        W63150  37.896  35.516  11.006
94777W        W63151  31.507  34.464   0.247
94778W        W63152  15.736  39.837  14.407
94779W        W63153  10.174  23.640  12.360
94780W        W63154  35.454  11.128  10.424
94781W        W63155  30.506  25.109   3.347
94782W        W63156  28.480  12.635  10.522
94783W        W63157  11.843   0.843   4.732
94784W        W63158  28.520  22.221   4.774
94785W        W63159  12.618  39.048  12.054
94786W        W63160  40.545  10.248  10.606
94787W        W63161  18.143  31.484   1.295
94788W        W63162  30.541  23.701   3.817
94789W        W63163  13.111  30.486  10.092
94790W        W63164  20.730  26.526  12.903
94791W        W63165   9.288  15.787  14.408
94792W        W63166   8.765  40.958   4.247
94793W        W63167  29.548  26.170   4.349
94794W        W63168  30.047  35.908   4.701
94795W        W63169  15.702  44.922  13.052
94796W        W63170  23.191  36.557   1.400
94797W        W63171  25.508  32.560  11.597
94798W        W63172   8.802   4.273  14.766
94799W        W63173  33.108   2.285  11.372
94800W        W63174   7.296  24.064   2.381
94801W        W63175  41.415  28.544  13.901
94802W        W63176  40.363   9.807   2.417
94803W        W63177  17.182  22.109   3.770
94804W        W63178   4.929   2.244  12.467
94805W        W63179  39.888   4.343   2.847
94806W        W63180  10.337  35.467  13.887
94807W        W63181  18.200  44.949   4.608
94808W        W63182   4.341  42.489   4.608
94809W        W63183   8.703   5.828  14.996
94810W        W63184  20.030  39.439   4.169
94811W        W63185  10.727   1.855   4.832
94812W        W63186  28.615  31.089   3.175
94813W        W63187  11.700  30.497   2.416
94814W        W63188   0.891  39.384   0.950
94815W        W63189  29.589  11.757  10.561
94816W        W63190  42.491  24.978   1.931
94817W        W63191  33.030  14.644   3.752
94818W        W63192   6.883   7.206  14.954
94819W        W63193  25.688  30.565  10.535
94820W        W63194   9.297   4.281  10.432
94821W        W63195  20.132  34.911   1.250
94822W        W63196  27.121  29.643   1.432
94823W        W63197  36.478   4.235  14.393
94824W        W63198  32.427  28.009  12.576
94825W        W63199  44.391  25.670   2.303
94826W        W63200   1.324  41.030   0.845
94827W        W63201  24.635  16.182   0.825
94828W        W63202   7.881  31.518  11.889
94829W        W63203   7.904  10.826  13.917
94830W        W63204  29.996  31.987   1.419
94831W        W63205  10.871   4.222  13.453
94832W        W63206   1.481  29.165  11.549
94833W        W63207  29.519  35.931   9.997
94834W        W63208  36.848   6.869   5.602
94835W        W63209  11.852  41.935  13.921
94836W        W63210   3.933   3.776  11.068
94837W        W63211  35.551  29.666  12.414
94838W        W63212  32.928  44.390  12.021
94839W        W63213  26.176   0.365  10.517
94840W        W63214   1.933  28.578   4.741
94841W        W63215  37.488  15.691  11.100
94842W        W63216  18.770  25.045  13.970
94843W        W63217  19.577  36.466   3.796
94844W        W63218  30.015  30.074  12.469
94845W        W63219  18.646  42.406   2.703
94846W        W63220  23.233  36.042  13.822
94847W        W63221  32.603  16.798  11.939
94848W        W63222  36.351  37.996   0.947
94849W        W63223   0.377  17.693   2.810
94850W        W63224   9.692   2.454  11.924
94851W        W63225  15.116  39.954   0.272
94852W        W63226   0.377  35.519  12.020
94853W        W63227  17.160   6.287   1.725
94854W        W63228  27.645  35.877  14.400
94855W        W63229  31.462   2.378   1.441
94856W        W63230  25.658  32.888  11.535
94857W        W63231  40.009  43.508  10.604
94858W        W63232  39.555  13.817   3.309
94859W        W63233  38.447  28.953  13.812
94860W        W63234  23.109  13.762   3.722
94861W        W63235   9.744  41.367   0.926
94862W        W63236   9.333  14.140   1.217
94863W        W63237  24.081  37.925  12.482
94864W        W63238  21.585  39.358   9.963
94865W        W63239  38.820  10.335   1.284
94866W        W63240   9.362  22.652   2.668
94867W        W63241  30.574  29.171  12.840
94868W        W63242  17.256   9.844   0.394
94869W        W63243   8.273  40.548   4.237
94870W        W63244  36.573  39.339  14.988
94871W        W63245  42.917  13.838   1.753
94872W        W63246  30.655  37.485  14.978
94873W        W63247  12.628  24.652   1.376
94874W        W63248   6.839  37.451   2.255
94875W        W63249  17.217  35.085   1.727
94876W        W63250  15.805  18.548  10.580
94877W        W63251  21.566  24.532  13.890
94878W        W63252  21.226  15.140   1.212
94879W        W63253   8.767  20.691  14.984
94880W        W63254  43.419  12.260  12.484
94881W        W63255  35.505  16.175  12.894
94882W        W63256   6.911  32.978  13.342
94883W        W63257  12.296  26.048   4.714
94884W        W63258   3.754  25.974  11.454
94885W        W63259  23.647  22.019  14.912
94886W        W63260  35.477  23.683   3.353
94887W        W63261  10.844  21.234   3.167
94888W        W63262   8.314  21.658  12.840
94889W        W63263  33.445  35.489  13.484
94890W        W63264  18.759  26.984  12.036
94891W        W63265  43.407   4.861  14.919
94892W        W63266  14.156  37.978   4.274
94893W        W63267  27.567   2.863  10.410
94894W        W63268  34.971   5.316  10.603
94895W        W63269  23.586  40.846  11.426
94896W        W63270  28.580  38.478  10.970
94897W        W63271   7.846  27.478   3.673
94898W        W63272  32.425  26.668   2.837
94899W        W63273  37.481  31.050   4.132
94900W        W63274  40.413  12.301   4.219
94901W        W63275  25.511  21.559  14.971
94902W        W63276  31.543  37.990   1.304
94903W        W63277  17.156  10.339  10.151
94904W        W63278  23.562  42.960  11.411
94905W        W63279   1.959  25.113   2.841
94906W        W63280  28.038   0.337   0.967
94907W        W63281  41.367   4.210  14.331
94908W        W63282  41.974  29.942  11.905
94909W        W63283  23.206  38.029   0.819
94910W        W63284   3.319  33.035  11.485
94911W        W63285   6.861  37.366  14.987
94912W        W63286  13.707  15.668   2.815
94913W        W63287  26.604   8.882  11.378
94914W        W63288  15.597  43.506   2.715
94915W        W63289  29.479  26.458  11.882
94916W        W63290  38.983  24.082   4.608
94917W        W63291   9.193   3.879   9.481
94918W        W63292  21.544  17.157   0.304
94919W        W63293  13.327  12.201  11.988
94920W        W63294  11.287  39.504   1.908
94921W        W63295  12.806  37.898  13.931
94922W        W63296  28.526   7.805   3.224
94923W        W63297  19.085   2.401   1.813
94924W        W63298  43.453   0.321  11.947
94925W        W63299   2.411   6.886   4.211
94926W        W63300  35.919  26.655   5.156
94927W        W63301  42.307  17.093   3.305
94928W        W63302  12.794  23.214  11.513
94929W        W63303  17.235  12.830  13.826
94930W        W63304  28.483  38.551  14.850
94931W        W63305   7.314  23.648   0.737
94932W        W63306  23.640  24.070  14.768
94933W        W63307  16.160   3.943  12.568
94934W        W63308  28.084  12.256   1.416
94935W        W63309  33.384  27.480  14.785
94936W        W63310  22.651  26.137   4.820
94937W        W63311   1.933  26.018   0.888
94938W        W63312  27.046  39.393  12.043
94939W        W63313   9.388  43.820   1.821
94940W        W63314  25.022  30.908  12.097
94941W        W63315  35.029  44.496  12.845
94942W        W63316  22.741  27.034   0.757
94943W        W63317   7.193  21.575  14.314
94944W        W63318  13.822  34.412   1.323
94945W        W63319  35.961  10.342  13.315
94946W        W63320  42.304  16.269   0.383
94947W        W63321  30.470   7.844   2.392
94948W        W63322  44.983  25.500   4.300
94949W        W63323   9.839  14.219  14.372
94950W        W63324  17.128  41.472  13.900
94951W        W63325  37.086  38.838   3.710
94952W        W63326  12.785   5.271   2.749
94953W        W63327   5.435  10.802  10.934
94954W        W63328  42.869  18.175  12.047
94955W        W63329  30.500  15.620  11.990
94956W        W63330  24.709  10.204  11.049
94957W        W63331   4.440   0.988  10.507
94958W        W63332  42.307  11.276  13.467
94959W        W63333  40.868   3.865   3.692
94960W        W63334   1.889  32.592  10.430
94961W        W63335   1.910  40.994   3.831
94962W        W63336  43.288  25.590   1.344
94963W        W63337  36.521  38.422  13.820
94964W        W63338  34.060  23.099   2.201
94965W        W63339   0.779   9.219  11.399
94966W        W63340  13.715  15.173  11.082
94967W        W63341   4.834  31.034   1.417
94968W        W63342  41.883  20.613  10.514
94969W        W63343   6.397  34.606   1.739
94970W        W63344  11.638   7.689  12.088
94971W        W63345  26.017  41.013   0.815
94972W        W63346  43.887  15.121   3.735
94973W        W63347  29.166  29.557  10.528
94974W        W63348  32.057   8.244  13.404
94975W        W63349  14.195  32.108   2.336
94976W        W63350   7.672  32.094   0.423
94977W        W63351  43.990  37.500   2.262
94978W        W63352  25.128  18.079   5.237
94979W        W63353  27.029   1.918  13.064
94980W        W63354  27.619  44.773   4.712
94981W        W63355  21.051   3.785   3.814
94982W        W63356  26.549   1.320   3.680
94983W        W63357  12.615  10.723  14.370
94984W        W63358   9.194  37.012  12.092
94985W        W63359  42.797  33.000  13.480
94986W        W63360  10.243  19.111  10.454
94987W        W63361  29.138  11.817  12.448
94988W        W63362  10.730  26.076   0.479
94989W        W63363  44.902  31.473   1.359
94990W        W63364  29.958   0.973  14.880
94991W        W63365  29.075  20.194   3.375
94992W        W63366   9.718  19.285  11.394
94993W        W63367  13.742  37.833   3.713
94994W        W63368  38.828   2.943  13.490
94995W        W63369  41.995   1.768   0.880
94996W        W63370  38.548   7.306  11.964
94997W        W63371   4.941  33.393   0.308
94998W        W63372   5.256  23.166   3.194
94999W        W63373  21.036  19.654  14.296
95000W        W63374  43.360  42.879   9.932
95001W        W63375  15.619  39.539   4.122
95002W        W63376  12.636   1.253   1.395
95003W        W63377  35.485  25.101   0.796
95004W        W63378  10.383  16.566   0.440
95005W        W63379  23.602   7.296  13.056
95006W        W63380  25.980  37.453  13.882
95007W        W63381  43.907  12.164  11.528
95008W        W63382  15.231  13.761   2.407
95009W        W63383  21.133   3.318  10.493
95010W        W63384  22.150   3.841  12.556
95011W        W63385  18.173  12.677   1.400
95012W        W63386  15.754   7.189  11.012
95013W        W63387  26.496  12.266  12.530
95014W        W63388  27.136   2.457   1.910
95015W        W63389  11.726  32.135   5.208
95016W        W63390  31.154  17.763   4.144
95017W        W63391   7.804  36.909  11.558
95018W        W63392  43.406   3.768  12.510
95019W        W63393  42.821  22.597   0.849
95020W        W63394  26.974   9.193  12.089
95021W        W63395  42.519  26.645  13.827
95022W        W63396  35.935  28.505   0.440
95023W        W63397   7.773  36.901   3.842
95024W        W63398  18.175  44.913   0.468
95025W        W63399  24.134  35.480  12.574
95026W        W63400   1.858   9.288  11.513
95027W        W63401  11.765  15.578   4.828
95028W        W63402  11.789  31.042  10.627
95029W        W63403  29.054  34.059   4.694
95030W        W63404  40.892  27.052  10.419
95031W        W63405   6.829  34.488  14.505
95032W        W63406  10.764  22.018   0.361
95033W        W63407  42.946  33.583  14.793
95034W        W63408  11.762  29.087   2.715
95035W        W63409  43.944  24.068   1.308
95036W        W63410  31.066  41.949   2.763
95037W        W63411   7.745  36.089   4.825
95038W        W63412  29.989   6.336  10.511
95039W        W63413  38.829  42.779  14.005
95040W        W63414  32.545   9.165   3.159
95041W        W63415  15.174  44.269   1.393
95042W        W63416  44.420   1.317   1.743
95043W        W63417  39.960  42.343  10.509
95044W        W63418  40.500  35.443   0.386
95045W        W63419   8.894  41.871   4.169
95046W        W63420  14.160  27.634   2.785
95047W        W63421  42.840  33.550  13.960
95048W        W63422  11.361  38.404   2.779
95049W        W63423  37.343   2.251   0.358
95050W        W63424   8.844  27.151  11.926
95051W        W63425   7.330   2.808  11.900
95052W        W63426  31.622  10.170  12.023
95053W        W63427  27.048  34.918  12.480
95054W        W63428   1.890  27.956  12.482
95055W        W63429   4.911  23.717  13.523
95056W        W63430  11.340  17.577  14.389
95057W        W63431  18.605   2.754   2.705
95058W        W63432   2.754  34.930   0.816
95059W        W63433  21.527  25.977  14.812
95060W        W63434   3.928  27.562  14.313
95061W        W63435  20.735  42.018   3.790
95062W        W63436  33.413  20.731   4.683
95063W        W63437  24.065  38.957   2.269
95064W        W63438  13.282   3.843  13.961
95065W        W63439  19.058   1.323  11.125
95066W        W63440   7.746  14.104  13.064
95067W        W63441  25.049  41.330   3.827
95068W        W63442  41.463  38.499   4.612
95069W        W63443  23.699  14.124   5.142
95070W        W63444   8.190   2.378  10.996
95071W        W63445  17.105   0.259   4.113
95072W        W63446  34.481   7.668   1.335
95073W        W63447  26.134  23.606  13.362
95074W        W63448  23.183  31.124  14.462
95075W        W63449  36.023  35.498  11.088
95076W        W63450  23.130  12.151  12.967
95077W        W63451  41.528  43.901   1.370
95078W        W63452  18.061   4.208   3.672
95079W        W63453  11.328   1.322  11.945
95080W        W63454  43.410   5.220  10.636
95081W        W63455  35.437  41.313   2.822
95082W        W63456  32.973  40.823  13.532
95083W        W63457  23.037  12.646   2.885
95084W        W63458   5.867   5.352   0.884
95085W        W63459  11.309   0.303   3.745
95086W        W63460  32.087  26.094   1.416
95087W        W63461   2.966  16.256   3.866
95088W        W63462  18.584   6.242  11.488
95089W        W63463   9.184   8.796   2.715
95090W        W63464   1.798  14.658   1.214
95091W        W63465   1.836   5.295  13.821
95092W        W63466  26.671  20.558  10.591
95093W        W63467   2.751  39.983  14.409
95094W        W63468  34.396  28.448  11.492
95095W        W63469  17.303  15.776  12.925
95096W        W63470  21.072  20.612  12.071
95097W        W63471  39.397   8.872  10.474
95098W        W63472  28.160  43.844   4.646
95099W        W63473  16.212  26.496   3.241
95100W        W63474  41.308  21.620  13.333
95101W        W63475  27.191  30.937  11.948
95102W        W63476  13.246   1.915  14.433
95103W        W63477  25.662   2.746  12.516
95104W        W63478  11.668   0.447   0.369
95105W        W63479  18.570  22.221  11.097
95106W        W63480  40.392  43.859   1.347
95107W        W63481   3.862   6.717  12.995
95108W        W63482  32.920  21.671   3.813
95109W        W63483  15.224   4.737  10.930
95110W        W63484  40.382  28.988  14.365
95111W        W63485  21.758  25.669   3.214
95112W        W63486  34.970  40.459   4.317
95113W        W63487   8.308  25.497   5.666
95114W        W63488  29.471  28.041   9.990
95115W        W63489  31.543  39.518  12.431
95116W        W63490  34.028  42.845   2.255
95117W        W63491   0.293  37.468   0.825
95118W        W63492  39.538  35.960  10.896
95119W        W63493  17.262  18.211  11.007
95120W        W63494  10.824   3.741   4.807
95121W        W63495  36.563   7.848   3.347
95122W        W63496  27.970  30.658  10.964
95123W        W63497  36.429  29.167  13.905
95124W        W63498   3.335  22.701   2.739
95125W        W63499  36.022  37.366  14.923
95126W        W63500  40.055  19.202  12.427
95127W        W63501  21.594  17.219  14.382
95128W        W63502  14.133  15.322   1.377
95129W        W63503  41.385  41.408   3.324
95130W        W63504  44.907   7.364   2.885
95131W        W63505  29.478  34.564  11.479
95132W        W63506  10.291   2.384  13.456
95133W        W63507  41.956  31.931   2.373
95134W        W63508  42.433  14.720  14.914
95135W        W63509  15.633  19.175  14.394
95136W        W63510  17.625  44.800   4.297
95137W        W63511  14.149  28.441  12.022
95138W        W63512  35.054  11.272   4.314
95139W        W63513  42.980  41.961   2.716
95140W        W63514  31.467  11.732  12.486
95141W        W63515   5.900  26.964  13.503
95142W        W63516  31.501  26.117  13.383
95143W        W63517  35.544  44.475  12.383
95144W        W63518  26.984  26.554  14.968
95145W        W63519   7.676  13.602   0.304
95146W        W63520   1.299  25.631   0.903
95147W        W63521  37.856  20.643  13.049
95148W        W63522  38.389  42.974  11.126
95149W        W63523   4.892  33.021  13.943
95150W        W63524  18.149  42.433   1.393
95151W        W63525  43.819  38.522  13.315
95152W        W63526  39.052  12.350   4.600
95153W        W63527  32.435  10.196  12.993
95154W        W63528   4.786  29.456  13.959
95155W        W63529  25.081  17.137  13.517
95156W        W63530  29.479  15.087  10.509
95157W        W63531  14.769  32.001   3.307
95158W        W63532   6.401  13.666  13.877
95159W        W63533  23.105   9.297  12.910
95160W        W63534  37.936  39.810  13.899
95161W        W63535  23.666  30.603   1.267
95162W        W63536  43.000  28.611  12.503
95163W        W63537  21.024   0.810  13.410
95164W        W63538  36.449  28.099  14.860
95165W        W63539  31.947  35.416   4.330
95166W        W63540  39.943  12.184   1.446
95167W        W63541  33.035  39.532  14.835
95168W        W63542   3.816   2.320   1.876
95169W        W63543  44.007  28.656  13.335
95170W        W63544  28.569  32.085  11.496
95171W        W63545  43.499  30.576   1.384
95172W        W63546  17.105  33.413   5.225
95173W        W63547   1.420  36.976   3.787
95174W        W63548  12.229  13.138   3.857
95175W        W63549   7.215  29.015   5.128
95176W        W63550  24.486  25.000  14.871
95177W        W63551  18.117  13.161  12.932
95178W        W63552  41.332  40.994   4.186
95179W        W63553   9.747   6.911   3.329
95180W        W63554  39.551  43.876  14.439
95181W        W63555  13.753  20.220  13.436
95182W        W63556  34.066   2.925   4.602
95183W        W63557   3.353  22.043   9.938
95184W        W63558  34.870  20.543  12.037
95185W        W63559  22.097   5.437   3.832
95186W        W63560   1.802  35.007   4.277
95187W        W63561   5.730  44.271  12.018
95188W        W63562  11.190  29.008  11.904
95189W        W63563   7.784  19.652  10.468
95190W        W63564  41.793  29.632  11.586
95191W        W63565  34.056  20.224  13.546
95192W        W63566  30.940   5.699   4.196
95193W        W63567   2.356  35.871  11.402
95194W        W63568  40.920  32.047  14.932
95195W        W63569  38.382  24.096   3.700
95196W        W63570  33.049  24.088  11.441
95197W        W63571  15.651  18.677   2.745
95198W        W63572   6.850   6.733   2.815
95199W        W63573  21.142  32.908   1.888
95200W        W63574  24.224  38.483  11.402
95201W        W63575   7.666  24.036   1.758
95202W        W63576  34.077  39.332   1.912
95203W        W63577   5.914  18.641   4.332
95204W        W63578  12.757  36.942   4.121
95205W        W63579   6.354  41.410  10.905
95206W        W63580  36.379  30.071  11.890
95207W        W63581  43.862  34.085   1.276
95208W        W63582  28.078  25.206  14.336
95209W        W63583  20.269  33.574  13.009
95210W        W63584  17.114   6.244  10.480
95211W        W63585  44.935  19.619   0.479
95212W        W63586  21.589  41.393   0.958
95213W        W63587  21.576  44.924  11.927
95214W        W63588   8.679  31.632   1.919
95215W        W63589  36.890  13.208   3.843
95216W        W63590  33.489  43.447   1.841
95217W        W63591  33.039  29.041  11.865
95218W        W63592   7.764  37.481   0.891
95219W        W63593  30.648  40.982  13.012
95220W        W63594  33.928  43.304  12.032
95221W        W63595  20.588  44.341   0.349
95222W        W63596  41.471  10.647   3.677
95223W        W63597  39.550  16.754  10.634
95224W        W63598  42.440  20.641   1.398
95225W        W63599  25.591  26.635  11.926
95226W        W63600  23.031  21.520   0.857
95227W        W63601  29.151  16.729   1.347
95228W        W63602   2.461   1.820   0.918
95229W        W63603   3.287  20.038   1.714
95230W        W63604  41.355  27.636   2.364
95231W        W63605  37.990  18.214  14.473
95232W        W63606  34.573  20.681  11.432
95233W        W63607   9.330  41.842  11.943
95234W        W63608  26.145  11.853  13.042
95235W        W63609  10.350   6.384  13.985
95236W        W63610  44.304  34.076  14.461
95237W        W63611  31.582  21.173   3.276
95238W        W63612   9.240  37.401  14.778
95239W        W63613  42.778  41.337   2.199
95240W        W63614  44.427  43.371  14.401
95241W        W63615  11.827  35.011   3.646
95242W        W63616   2.231   8.841  11.996
95243W        W63617   2.312  37.505   5.246
95244W        W63618  20.184  39.895  11.595
95245W        W63619  12.176  25.158  12.568
95246W        W63620  17.697  21.126   3.808
95247W        W63621  26.019  43.915   4.738
95248W        W63622  22.124  33.057   2.865
95249W        W63623  27.048  25.486  14.951
95250W        W63624  37.075  39.936  12.932
95251W        W63625   8.697  29.651  12.089
95252W        W63626  30.445  24.180  11.999
95253W        W63627  37.494   2.921  10.962
95254W        W63628  17.625   2.938   4.611
95255W        W63629  15.751  36.038   1.891
95256W        W63630   7.779  34.067   2.348
95257W        W63631   7.740  31.014   9.947
95258W        W63632  30.992  13.682   0.349
95259W        W63633  40.860  29.151  11.505
95260W        W63634  17.219  37.454   4.788
95261W        W63635  23.164  24.028  13.307
95262W        W63636   8.342  29.125   2.409
95263W        W63637  15.776  38.534   0.249
95264W        W63638  36.916  27.997   3.786
95265W        W63639   0.791   9.226   4.194
95266W        W63640  23.018  18.559  11.526
95267W        W63641   7.745  37.361   1.934
95268W        W63642  28.010  11.758  14.859
95269W        W63643   0.277  40.977   3.833
95270W        W63644  24.562  34.396   3.340
95271W        W63645  34.059  24.698  11.991
95272W        W63646  33.086  31.133  10.588
95273W        W63647  37.012  44.365   1.757
95274W        W63648  42.921  30.935   1.748
95275W        W63649   1.736  27.953  13.371
95276W        W63650  34.048   5.841  13.974
95277W        W63651  39.358   7.199  12.901
95278W        W63652  29.459   5.861   1.710
95279W        W63653  41.477  19.128  10.450
95280W        W63654   1.971  40.858   4.145
95281W        W63655  42.814   6.294   2.663
95282W        W63656  11.772  40.525   9.973
95283W        W63657   6.215  38.860  11.503
95284W        W63658  11.701  12.790  11.441
95285W        W63659  14.619  35.029  14.846
95286W        W63660  23.127  11.229   4.336
95287W        W63661  17.244  41.459   2.334
95288W        W63662  18.254  20.075   1.726
95289W        W63663  24.630  20.712  13.318
95290W        W63664  17.675  12.812  14.385
95291W        W63665  44.348  42.023  12.907
95292W        W63666  33.026  10.205   3.775
95293W        W63667  40.817  16.696  13.469
95294W        W63668   0.380   9.382   1.358
95295W        W63669  31.517  43.464  13.034
95296W        W63670  11.230  19.137   2.293
95297W        W63671  35.066  39.425   4.651
95298W        W63672  32.418  10.337  12.514
95299W        W63673  28.961   2.963   3.351
95300W        W63674  10.873  28.045  10.633
95301W        W63675  11.744  27.499  11.438
95302W        W63676   2.918  33.509  14.955
95303W        W63677  23.726  21.560  14.878
95304W        W63678   3.759  36.915  12.979
95305W        W63679  17.763   8.708   4.715
95306W        W63680  32.078   7.806   5.261
95307W        W63681   0.907   9.333   1.902
95308W        W63682  12.345  34.110  10.899
95309W        W63683  10.750   2.379   1.759
95310W        W63684  31.907  36.520  10.606
95311W        W63685  28.104   7.700   1.914
95312W        W63686  14.762  18.725   3.682
95313W        W63687  36.549  30.121   3.255
95314W        W63688  16.233   4.828   3.376
95315W        W63689  30.143   8.279   2.319
95316W        W63690  22.201  40.952   5.793
95317W        W63691   7.783  23.672  14.777
95318W        W63692   3.772  24.493  10.958
95319W        W63693   9.741   8.375  13.326
95320W        W63694  40.029  18.050   1.912
95321W        W63695  27.139  36.477  12.031
95322W        W63696  23.497  32.096  13.818
95323W        W63697  34.049  31.569   3.265
95324W        W63698  39.882  35.388   1.390
95325W        W63699  40.473  35.460   1.742
95326W        W63700  33.517  33.382  14.998
95327W        W63701  17.761  42.368  13.330
95328W        W63702   5.418  27.031   2.416
95329W        W63703  20.269  11.172   0.908
95330W        W63704  28.020   8.257  11.468
95331W        W63705  38.955  19.613  12.896
95332W        W63706  16.206  18.726   1.806
95333W        W63707  23.214  23.704  13.794
95334W        W63708  16.280  38.948  14.858
95335W        W63709  20.657  29.083   4.355
95336W        W63710  13.603  38.921   2.239
95337W        W63711  37.879  22.675   3.727
95338W        W63712   5.350  42.939   4.629
95339W        W63713  31.501  31.050   4.811
95340W        W63714  40.385  12.779   1.342
95341W        W63715   3.232  24.165   4.223
95342W        W63716  28.075  31.897   0.887
95343W        W63717  21.685  39.314  12.079
95344W        W63718  30.465  40.014   1.365
95345W        W63719  17.193  36.077   1.406
95346W        W63720  44.760   0.329  11.019
95347W        W63721  36.081   2.805  14.938
95348W        W63722   7.265  40.881  12.519
95349W        W63723  12.668  37.911  13.447
95350W        W63724  33.913  34.950   1.899
95351W        W63725  20.235  31.905  11.394
95352W        W63726  22.661  28.512   4.270
95353W        W63727  31.099  14.231   2.403
95354W        W63728   3.930  36.370  10.937
95355W        W63729  27.171  22.109  11.059
95356W        W63730  20.564  38.358   0.396
95357W        W63731  20.089  22.089  12.895
95358W        W63732  28.564  24.511   0.825
95359W        W63733  44.297  24.079  14.413
95360W        W63734  28.497   7.239   1.323
95361W        W63735  35.987  27.591  12.367
95362W        W63736  32.070  43.293   3.340
95363W        W63737   3.861  10.829  11.071
95364W        W63738  19.592   8.291   0.853
95365W        W63739  42.782  33.928  12.563
95366W        W63740  24.991  20.759  12.081
95367W        W63741   6.739  37.368  12.082
95368W        W63742   7.340  43.825   4.737
95369W        W63743   1.340  18.209   3.235
95370W        W63744   9.719  16.157  14.884
95371W        W63745  41.009  38.430  12.986
95372W        W63746  20.265  43.311   3.149
95373W        W63747  26.997   1.388   3.774
95374W        W63748  16.671  19.672   3.378
95375W        W63749  19.581  16.169   2.732
95376W        W63750  14.807  32.515   0.859
95377W        W63751  34.083  39.424   0.792
95378W        W63752  35.405   6.808   0.478
95379W        W63753   9.377   3.710  13.891
95380W        W63754  32.077   8.781  11.533
95381W        W63755  42.348  41.801  12.006
95382W        W63756  18.730  44.479  14.809
95383W        W63757  24.198  44.859   2.215
95384W        W63758   9.312  12.646   2.775
95385W        W63759   7.367  37.962   2.722
95386W        W63760  43.883   1.885   1.820
95387W        W63761   4.702  44.813   1.313
95388W        W63762   9.342  43.878  10.964
95389W        W63763   6.303  31.068  12.927
95390W        W63764  30.916  37.844   1.220
95391W        W63765  43.386  26.016  14.836
95392W        W63766  33.416  41.898  14.832
95393W        W63767  14.300   7.337  10.079
95394W        W63768  33.040  19.567   4.139
95395W        W63769  24.054  19.667  12.499
95396W        W63770   4.777  16.772  14.379
95397W        W63771  23.521   9.156  13.838
95398W        W63772   9.846  41.036   3.722
95399W        W63773  16.277  22.528   2.193
95400W        W63774  23.531  31.963   5.770
95401W        W63775  31.114  17.111  14.514
95402W        W63776  21.179  23.187  13.351
95403W        W63777  17.303  41.404   2.731
95404W        W63778  27.174  33.943  12.501
95405W        W63779   0.788  36.431   2.205
95406W        W63780  42.525  23.241   0.343
95407W        W63781   1.876  26.525  12.438
95408W        W63782  28.929  12.150   2.801
95409W        W63783  22.654   7.898  12.951
95410W        W63784  25.696  30.037  12.567
95411W        W63785  30.113  19.280   3.320
95412W        W63786  28.184  25.529  10.917
95413W        W63787  17.197   6.835  14.917
95414W        W63788  25.073  40.469   1.783
95415W        W63789  33.554  13.305  10.461
95416W        W63790  14.205  37.905   0.744
95417W        W63791   7.295   7.772  12.049
95418W        W63792  30.979  35.979  14.815
95419W        W63793  21.117  21.667  12.971
95420W        W63794  20.638  23.679   0.462
95421W        W63795   1.468   1.434  12.549
95422W        W63796   0.971   5.701   2.849
95423W        W63797   0.365  42.782  10.423
95424W        W63798  10.219  11.202  10.502
95425W        W63799   6.256  37.928   1.364
95426W        W63800  14.286  23.525   2.734
95427W        W63801  13.652   4.792  10.915
95428W        W63802   0.314  37.004  11.055
95429W        W63803  17.088  14.207   1.280
95430W        W63804   9.379  14.128  14.479
95431W        W63805  12.291  17.212   3.839
95432W        W63806  22.067  39.060  11.078
95433W        W63807  25.660  16.806  14.370
95434W        W63808   1.859   1.349   1.922
95435W        W63809  38.379  21.654   0.906
95436W        W63810   3.269  23.563   2.842
95437W        W63811  26.689   1.393  14.792
95438W        W63812  31.638  38.355  12.095
95439W        W63813  42.780  20.704  11.509
95440W        W63814   9.206  11.825   4.663
95441W        W63815  40.474  30.601   0.894
95442W        W63816  37.394  15.113   1.215
95443W        W63817  31.534  39.035  12.942
95444W        W63818  19.169  41.295   3.870
95445W        W63819   2.328   5.702  13.519
95446W        W63820   1.372  10.706  14.298
95447W        W63821   2.230  38.952   5.125
95448W        W63822  20.548  35.545   1.426
95449W        W63823  36.999  22.658   3.180
95450W        W63824  29.174  38.034   0.880
95451W        W63825  21.213  33.460   3.832
95452W        W63826  33.100  40.854  13.974
95453W        W63827  20.640  40.801   3.205
95454W        W63828  40.519   5.367   2.878
95455W        W63829  28.556   7.775  11.100
95456W        W63830  32.948   4.283   3.758
95457W        W63831  43.950  18.169   0.782
95458W        W63832  33.616  42.435  13.034
95459W        W63833  24.586  12.311   4.198
95460W        W63834  26.573  23.578  13.008
95461W        W63835   6.714   2.919  13.533
95462W        W63836  31.554  42.398   4.653
95463W        W63837   3.436  40.036   4.638
95464W        W63838  43.856  18.713  13.541
95465W        W63839   0.281  37.921  14.501
95466W        W63840   5.758   5.343   5.295
95467W        W63841   1.780  16.640  13.838
95468W        W63842  38.832  44.349   3.692
95469W        W63843  17.595  26.062   2.767
95470W        W63844  36.027  28.571   0.786
95471W        W63845  32.515  29.142   2.205
95472W        W63846  22.504   6.897  14.473
95473W        W63847  38.365   4.763  13.342
95474W        W63848  32.919  19.576  10.956
95475W        W63849  21.064  36.920   1.808
95476W        W63850  25.532  30.067   1.720
95477W        W63851  21.528   0.473   1.841
95478W        W63852  40.957  13.721   2.273
95479W        W63853  43.397  19.604   4.631
95480W        W63854  31.921  43.474  12.959
95481W        W63855  41.879  12.733   4.229
95482W        W63856  23.199  25.483  12.831
95483W        W63857  15.806  17.659   2.830
95484W        W63858   8.686  42.484   3.311
95485W        W63859  44.336  43.345  11.448
95486W        W63860   7.881   5.905   0.445
95487W        W63861   9.332  40.494   0.756
95488W        W63862  39.856  13.306   2.725
95489W        W63863  14.652  35.451   0.342
95490W        W63864   3.946  31.014   3.701
95491W        W63865  30.107  44.334  11.867
95492W        W63866  39.013  22.631  11.384
95493W        W63867  40.936  21.143   2.876
95494W        W63868  11.163  44.273  14.032
95495W        W63869  25.697  30.131  11.975
95496W        W63870   7.903  11.868   0.808
95497W        W63871  15.189  34.944   4.222
95498W        W63872  27.691  21.545   3.815
95499W        W63873  35.016  34.368  13.020
95500W        W63874  23.633  12.132  14.423
95501W        W63875   3.783  26.648  12.045
95502W        W63876  32.138  34.590  11.554
95503W        W63877  43.775  20.658  10.561
95504W        W63878  14.786  41.802   2.215
95505W        W63879  11.368  11.831   4.347
95506W        W63880   5.838  18.762  12.542
95507W        W63881  16.310   6.340   4.795
95508W        W63882  18.075  20.098  12.890
95509W        W63883   0.323  37.580   1.220
95510W        W63884  15.137   7.802  11.081
95511W        W63885  25.486  24.637   3.824
95512W        W63886   4.360  20.577  10.501
95513W        W63887  42.792  19.748  13.373
95514W        W63888  41.868   0.919   5.276
95515W        W63889   3.743  36.844  11.998
95516W        W63890  43.967   8.838   1.905
95517W        W63891  20.243  36.366   3.814
95518W        W63892  37.442   7.708   0.835
95519W        W63893  18.094  38.454  10.561
95520W        W63894  11.173  40.808  12.965
95521W        W63895  44.378  40.855  10.444
95522W        W63896  44.318  34.991  11.405
95523W        W63897  34.090  15.707  12.401
95524W        W63898  35.888  26.477   4.155
95525W        W63899   3.251  30.962   5.150
95526W        W63900  27.141  37.555  10.076
95527W        W63901  20.709  36.001  12.373
95528W        W63902  38.457  38.472  10.477
95529W        W63903  33.080  39.919  11.024
95530W        W63904   2.878  44.406   4.802
95531W        W63905   7.357  11.842   4.819
95532W        W63906  10.670  37.077  13.386
95533W        W63907  37.940  10.273   4.222
95534W        W63908  14.145   1.367   4.222
95535W        W63909  19.728  12.790  14.329
95536W        W63910  33.132  18.765  11.453
95537W        W63911  17.727  27.623   1.881
95538W        W63912   0.406  14.647   2.773
95539W        W63913  17.227   7.807   4.304
95540W        W63914  37.975  40.954   2.670
95541W        W63915  43.940  20.705   3.229
95542W        W63916   1.460  44.855   3.315
95543W        W63917  19.753  40.390   0.360
95544W        W63918  32.458  20.235   4.745
95545W        W63919  41.408  41.490   1.736
95546W        W63920   8.696  27.492   2.371
95547W        W63921  19.196  38.568  11.392
95548W        W63922  13.226  15.803   1.770
95549W        W63923  41.818  10.155   0.738
95550W        W63924  21.043  40.489  14.771
95551W        W63925  22.662  21.621  11.090
95552W        W63926  21.719  41.825  14.304
95553W        W63927  42.017  28.644  11.068
95554W        W63928  42.466   9.672   0.776
95555W        W63929  24.048   8.185   0.379
95556W        W63930  39.944  38.866  10.981
95557W        W63931  28.545   3.245  13.826
95558W        W63932   5.790  17.188  12.878
95559W        W63933  41.412  40.410   0.468
95560W        W63934  16.163  40.337   4.228
95561W        W63935  23.640  38.972  10.063
95562W        W63936  25.152   7.787  10.897
95563W        W63937  13.607  42.824   3.215
95564W        W63938   1.467  26.598  11.402
95565W        W63939   9.179  44.433  12.869
95566W        W63940  30.482  28.156   5.175
95567W        W63941  16.719   8.354   2.290
95568W        W63942  27.511  40.504  13.959
95569W        W63943  11.221  20.074  14.893
95570W        W63944  30.596  24.992  13.046
95571W        W63945  39.817   8.237  11.552
95572W        W63946  20.543   6.820   4.325
95573W        W63947  22.576  42.803  10.612
95574W        W63948  27.960  36.058   4.715
95575W        W63949  16.675  10.817   2.323
95576W        W63950  37.442   4.386  11.962
95577W        W63951  32.016  19.146  13.383
95578W        W63952   3.850   7.375   3.811
95579W        W63953  40.349  23.645  12.958
95580W        W63954  21.145  19.187  13.482
95581W        W63955   2.267  34.071   0.399
95582W        W63956  15.651   5.903   0.806
95583W        W63957  22.057   3.884   1.214
95584W        W63958  35.910  26.194  10.564
95585W        W63959   0.899   6.316   1.913
95586W        W63960  26.526  35.984  10.077
95587W        W63961  39.382  40.500   3.770
95588W        W63962   1.767  20.180   3.819
95589W        W63963   9.765  29.670   5.319
95590W        W63964  39.315  16.615   4.225
95591W        W63965  10.699  22.205  12.856
95592W        W63966  23.167   1.813  14.765
95593W        W63967  37.951   6.310  13.429
95594W        W63968  22.555   7.745  13.473
95595W        W63969   1.762  18.214  14.904
95596W        W63970  18.216   3.422   4.826
95597W        W63971  41.956   3.931   0.448
95598W        W63972   1.430  42.466  12.349
95599W        W63973  32.086  17.073  11.451
95600W        W63974   4.724  41.435   4.597
95601W        W63975   8.722   9.266  11.612
95602W        W63976  12.134   1.395  12.916
95603W        W63977  35.072   2.315  11.007
95604W        W63978  38.341   7.887  14.798
95605W        W63979  43.936  38.477   2.289
95606W        W63980  15.807  22.178   3.670
95607W        W63981  31.921  24.147   1.428
95608W        W63982   5.768  34.407  14.029
95609W        W63983  36.440  30.536   0.322
95610W        W63984  37.483  21.026   1.333
95611W        W63985  24.158  18.101   1.823
95612W        W63986  17.255  30.509  13.844
95613W        W63987  36.450   6.406   3.807
95614W        W63988   7.414  28.523   4.763
95615W        W63989  30.491  22.713  14.927
95616W        W63990  18.604  38.943   4.277
95617W        W63991  23.077  16.124  14.847
95618W        W63992  24.106   5.396   4.118
95619W        W63993  27.453  17.255  12.506
95620W        W63994  14.771  43.511   1.887
95621W        W63995  10.336  19.610   1.251
95622W        W63996  43.393  10.641   0.857
95623W        W63997   7.910  31.917   2.698
95624W        W63998   1.278  43.987  12.008
95625W        W63999  21.062  24.044  14.852
95626W        W64000  44.417  29.141  14.894
95627W        W64001  16.129  34.912   2.213
95628W        W64002  27.142   6.723  13.996
95629W        W64003  17.563   2.924  14.457
95630W        W64004  31.974   9.301  10.931
95631W        W64005  16.700  22.557  11.946
95632W        W64006  26.638  35.853   1.725
95633W        W64007  24.071  25.002   4.659
95634W        W64008  43.813  39.451   2.900
95635W        W64009  30.428   5.316   2.801
95636W        W64010  38.490  33.936  14.389
95637W        W64011   7.381   1.944  12.992
95638W        W64012  43.511  20.711   2.712
95639W        W64013  10.666  30.094  10.409
95640W        W64014   2.917   8.689  10.421
95641W        W64015  42.923  15.199   4.682
95642W        W64016   2.450  13.824  13.014
95643W        W64017   4.298  33.106  13.028
95644W        W64018  35.880  21.662   4.642
95645W        W64019   1.917  36.003   3.801
95646W        W64020  27.006  16.807  14.476
95647W        W64021  28.028  24.652  11.565
95648W        W64022  30.103  18.168  12.078
95649W        W64023  20.711  25.990  12.403
95650W        W64024  10.203  39.003  12.455
95651W        W64025  29.031   0.785   5.293
95652W        W64026  20.547   3.317  14.342
95653W        W64027  23.233   5.787  12.067
95654W        W64028  21.644  38.026   2.186
95655W        W64029  16.785   1.754  14.889
95656W        W64030  29.518  43.405  11.528
95657W        W64031  15.170  31.140  12.855
95658W        W64032  40.860   1.309   2.706
95659W        W64033   6.256  40.533   4.665
95660W        W64034   6.310  39.816  13.504
95661W        W64035  40.995   6.369  13.811
95662W        W64036   3.410  29.529  13.527
95663W        W64037  10.188  36.064  13.035
95664W        W64038  16.154  19.268  13.798
95665W        W64039  27.498  24.577  13.001
95666W        W64040  17.631  35.997  14.795
95667W        W64041  24.542  24.018   4.635
95668W        W64042  18.545  13.812   0.266
95669W        W64043  40.505  16.108  14.874
95670W        W64044  18.234  36.443   1.774
95671W        W64045  39.366   4.364  10.534
95672W        W64046  42.888  41.925  10.888
95673W        W64047   7.232  40.515   0.396
95674W        W64048  32.541  26.067   2.298
95675W        W64049  11.844  39.397   2.816
95676W        W64050  20.183  23.666  11.939
95677W        W64051  12.846  32.539  13.490
95678W        W64052  15.626  38.885  14.950
95679W        W64053  31.049  30.982  13.884
95680W        W64054  23.632   1.432   1.927
95681W        W64055  30.999  18.064   0.749
95682W        W64056  21.071   7.877   1.754
95683W        W64057   4.409  31.081  10.464
95684W        W64058   9.730  34.590   3.280
95685W        W64059  32.998   0.865   4.137
95686W        W64060  40.802   3.230   0.918
95687W        W64061  25.202   1.884  10.909
95688W        W64062  29.075  35.596  11.115
95689W        W64063  16.808  24.000   3.644
95690W        W64064   4.351   0.432  12.456
95691W        W64065  40.431  42.962   0.745
95692W        W64066  38.948  41.883  14.938
95693W        W64067  22.609  25.477  13.347
95694W        W64068  29.967  33.072  12.420
95695W        W64069   2.840  20.742   1.404
95696W        W64070   1.732  11.273  11.391
95697W        W64071   0.314  14.159  13.914
95698W        W64072   2.393   7.768  14.444
95699W        W64073  17.304  34.980  10.616
95700W        W64074  25.667  19.553   4.620
95701W        W64075  14.174  12.780   1.747
95702W        W64076  15.152  37.570   2.881
95703W        W64077  22.131   6.896  14.873
95704W        W64078  29.544  10.255  14.932
95705W        W64079   7.351  30.622   3.672
95706W        W64080  42.013   7.397  11.376
95707W        W64081  15.315   3.898  11.952
95708W        W64082  44.322   6.249  12.953
95709W        W64083  26.976  26.026   2.830
95710W        W64084  23.048   4.837  12.935
95711W        W64085  14.231  20.599  14.486
95712W        W64086  33.966  23.228  12.014
95713W        W64087  31.507  20.274  13.882
95714W        W64088  40.976  29.945  12.971
95715W        W64089  36.938  33.429  11.070
95716W        W64090  13.603  13.142   1.388
95717W        W64091  16.149  32.931   1.288
95718W        W64092  42.937  38.857  10.629
95719W        W64093   8.735  40.970   0.869
95720W        W64094  38.518  20.746  14.368
95721W        W64095  19.093  36.915   0.299
95722W        W64096  10.225  32.079   4.803
95723W        W64097   3.809  26.675  10.437
95724W        W64098  31.510  11.129  13.015
95725W        W64099   1.780  41.482  14.377
95726W        W64100  43.400  22.684   1.431
95727W        W64101  26.594  17.598   2.826
95728W        W64102  17.666   8.742   0.874
95729W        W64103  18.717  22.168  14.360
95730W        W64104  38.359  12.317  13.481
95731W        W64105  39.393   4.359  14.318
95732W        W64106  44.882  31.519  10.953
95733W        W64107  26.528  37.548  13.029
95734W        W64108  44.389  20.522   2.267
95735W        W64109   2.466  44.871   2.745
95736W        W64110   7.675  24.195   2.663
95737W        W64111  25.483  29.096   1.803
95738W        W64112   6.848  33.874   3.343
95739W        W64113  18.199  41.945  13.408
95740W        W64114  36.063  17.583   1.733
95741W        W64115   4.875  42.313  12.439
95742W        W64116   2.761   1.322  11.399
95743W        W64117  34.479  44.788   2.804
95744W        W64118  41.830  37.507  13.333
95745W        W64119  43.279  41.447   2.885
95746W        W64120   4.282   6.338   1.828
95747W        W64121   2.380   6.803   3.356
95748W        W64122  28.497  44.335  13.417
95749W        W64123  25.069  33.534  13.031
95750W        W64124   4.834  12.280   4.721
95751W        W64125  26.559  30.954   5.157
95752W        W64126   8.823  28.990  13.884
95753W        W64127  39.996  29.433  12.963
95754W        W64128  36.086  39.863   0.459
95755W        W64129   5.337  25.079  13.443
95756W        W64130   0.792  31.559   1.423
95757W        W64131  11.646   4.823  11.386
95758W        W64132  42.463  40.413   2.786
95759W        W64133  41.504  40.829  12.977
95760W        W64134  37.534   7.255  13.368
95761W        W64135   3.728  21.128  13.829
95762W        W64136  26.952  29.432   2.186
95763W        W64137  38.540  43.944  10.539
95764W        W64138  26.552  15.098  11.867
95765W        W64139  15.213  20.760  13.462
95766W        W64140  32.514  22.689  10.520
95767W        W64141  38.858   9.329   5.180
95768W        W64142   1.923   8.713   3.246
95769W        W64143  27.115  10.639   2.238
95770W        W64144  44.939  38.385  12.054
95771W        W64145   9.647  30.423   4.695
95772W        W64146  37.958  18.166   2.707
95773W        W64147  40.395  33.893  14.359
95774W        W64148  10.869   5.245  12.968
95775W        W64149  20.765  40.308  12.956
95776W        W64150  16.575   4.424  11.057
95777W        W64151  22.513  32.449   1.437
95778W        W64152  10.792  39.486  13.353
95779W        W64153   6.187  20.590  12.373
95780W        W64154  42.916  34.589  11.376
95781W        W64155  44.304  26.142   3.214
95782W        W64156   9.837  18.655  13.536
95783W        W64157  27.562  40.319   0.344
95784W        W64158  29.017  15.686   2.699
95785W        W64159  29.024  19.626   1.315
95786W        W64160  17.665  36.509  10.988
95787W        W64161  30.021  39.328  12.529
95788W        W64162   2.259  39.448  14.789
95789W        W64163  22.087  14.153  11.495
95790W        W64164  28.501  12.281   4.812
95791W        W64165  15.668  36.091  12.578
95792W        W64166  20.629  31.593   4.216
95793W        W64167  35.032  32.566  11.977
95794W        W64168   9.711   9.698   2.205
95795W        W64169  42.523  29.978   1.702
95796W        W64170  27.990   9.644  10.505
95797W        W64171  17.725  41.874  13.462
95798W        W64172  20.063   3.410   3.381
95799W        W64173  41.913  18.689   3.822
95800W        W64174  30.997   5.395  13.898
95801W        W64175  16.605  17.673  13.378
95802W        W64176  22.572  44.488  10.415
95803W        W64177   0.795  42.007  12.039
95804W        W64178   0.933   8.724   2.791
95805W        W64179  31.041   8.390  14.319
95806W        W64180  24.134  11.652  12.368
95807W        W64181  15.289  14.218   0.393
95808W        W64182  16.252  11.348   3.687
95809W        W64183  12.222  28.154   3.159
95810W        W64184  39.837  30.964   1.907
95811W        W64185   2.276  28.630   3.745
95812W        W64186  10.282   4.781   2.773
95813W        W64187  43.371   5.764  11.453
95814W        W64188  44.393  12.339  11.975
95815W        W64189   6.824  15.325   1.361
95816W        W64190  13.670  29.057  13.993
95817W        W64191  43.020  19.248  11.910
95818W        W64192  22.169  23.117   0.403
95819W        W64193  31.084   6.336  12.980
95820W        W64194  14.590  33.940   2.218
95821W        W64195  11.729  37.543   4.210
95822W        W64196  23.635  31.085  11.874
95823W        W64197  36.387  37.500  14.396
95824W        W64198  34.568  25.165   0.920
95825W        W64199  31.136  36.426   4.805
95826W        W64200  31.971  26.496  14.017
95827W        W64201  34.940  39.810   0.328
95828W        W64202   2.927  37.900   2.669
95829W        W64203   5.919   0.453  13.944
95830W        W64204  37.438  16.129  13.974
95831W        W64205   3.713  15.639  13.897
95832W        W64206  31.946  21.670  14.932
95833W        W64207  20.661  27.147   3.321
95834W        W64208  41.428   1.841  12.000
95835W        W64209  43.806  22.560  10.480
95836W        W64210  39.494   4.392   3.312
95837W        W64211  23.638  39.871  13.371
95838W        W64212   6.880   8.669   0.873
95839W        W64213  10.768  35.991   0.256
95840W        W64214  26.651   3.868   0.407
95841W        W64215   3.847   8.375   4.180
95842W        W64216   1.332  10.653  11.430
95843W        W64217  22.055  28.088  11.495
95844W        W64218   6.411  20.607   1.832
95845W        W64219   4.338  44.399   3.225
95846W        W64220  22.584  34.516   9.965
95847W        W64221  24.604  11.365   4.172
95848W        W64222  40.971  12.789   0.400
95849W        W64223  28.931  36.995  12.481
95850W        W64224  35.365  36.905   1.438
95851W        W64225  18.137  37.996   3.856
95852W        W64226  20.147   2.912   3.671
95853W        W64227   0.951  30.138  13.997
95854W        W64228  12.702  35.054  13.013
95855W        W64229  34.415  20.058   4.242
95856W        W64230  42.402  34.458   0.877
95857W        W64231  43.933   1.390   3.826
95858W        W64232   3.732   5.893  14.329
95859W        W64233  24.134   0.961   1.847
95860W        W64234  10.781  31.137  12.390
95861W        W64235   4.287  28.027   1.762
95862W        W64236  10.732  16.702  11.051
95863W        W64237  19.585  37.518  13.984
95864W        W64238   9.743  32.595   4.149
95865W        W64239  23.004  23.607  11.856
95866W        W64240  41.452   7.690   0.753
95867W        W64241  16.308  21.202   0.314
95868W        W64242   4.715   6.727   1.826
95869W        W64243  23.666  39.449   0.329
95870W        W64244  27.646  37.931   0.429
95871W        W64245   1.394  23.600   1.710
95872W        W64246  24.104  12.134   1.299
95873W        W64247  36.477  38.486  14.322
95874W        W64248  27.987   8.860   3.276
95875W        W64249  12.132  29.528  12.004
95876W        W64250  34.519  20.040   4.835
95877W        W64251  22.624  31.432   0.260
95878W        W64252  30.650   3.916  14.842
95879W        W64253  11.845  42.921   3.682
95880W        W64254  32.116  40.860   0.431
95881W        W64255  11.140  33.490  13.825
95882W        W64256  19.076   7.854   2.334
95883W        W64257  41.411   3.398   0.319
95884W        W64258   6.320  20.749  13.405
95885W        W64259  13.654  27.173  13.838
95886W        W64260  26.204  35.005  14.368
95887W        W64261   8.194  36.474   2.196
95888W        W64262  24.648   2.819   3.841
95889W        W64263  10.259   2.905   2.760
95890W        W64264   8.339   8.274  10.906
95891W        W64265  31.534  31.538  13.307
95892W        W64266  40.941  32.500   4.779
95893W        W64267  40.382  24.081   0.780
95894W        W64268  10.278  27.140   2.255
95895W        W64269  35.510  12.214   4.832
95896W        W64270  14.194  30.539   3.811
95897W        W64271  11.208  17.087   4.610
95898W        W64272   5.690  37.408   2.296
95899W        W64273   7.216   6.424   0.255
95900W        W64274  20.565   8.787   3.674
95901W        W64275  23.139  44.920  12.041
95902W        W64276  37.999   3.296  11.969
95903W        W64277  24.493   2.330  12.971
95904W        W64278  44.992  36.586  14.807
95905W        W64279  12.809  23.995  12.037
95906W        W64280  15.640  16.144  10.437
95907W        W64281   5.432   0.346  14.968
95908W        W64282   5.788   5.751   2.841
95909W        W64283  31.918  21.646  12.948
95910W        W64284  10.877  23.227  11.517
95911W        W64285  28.475  17.304  13.530
95912W        W64286  31.647  21.656  12.891
95913W        W64287  32.454  24.029  11.519
95914W        W64288  39.370  12.189  13.972
95915W        W64289  11.792   8.747   3.661
95916W        W64290  31.611  36.472   2.745
95917W        W64291   5.747  16.676  10.584
95918W        W64292   7.245  35.576  12.448
95919W        W64293  25.057  26.595   3.674
95920W        W64294  38.074  36.039  14.862
95921W        W64295  23.079   7.328  10.637
95922W        W64296   8.710   6.846  11.043
95923W        W64297   7.833  30.113   2.227
95924W        W64298  32.391  14.297   3.799
95925W        W64299  25.593  15.272  10.511
95926W        W64300  22.525  14.669  13.341
95927W        W64301  44.959  35.500  13.359
95928W        W64302  25.962   4.285   3.331
95929W        W64303  15.687  26.568   5.218
95930W        W64304   4.278  35.438   1.245
95931W        W64305  21.249   0.410  11.041
95932W        W64306  32.541  29.518  10.952
95933W        W64307   2.261  41.524  14.895
95934W        W64308   9.298  21.041   1.820
95935W        W64309  40.854  23.547   2.313
95936W        W64310  28.521  19.227   2.248
95937W        W64311  28.553  35.861  12.408
95938W        W64312  17.567   6.242   3.251
95939W        W64313  14.244  38.847   0.851
95940W        W64314  17.720  34.992   2.273
95941W        W64315  43.879   7.335   4.711
95942W        W64316   0.845   4.860   3.155
95943W        W64317  24.540  20.711  14.490
95944W        W64318  12.140   6.830  13.386
95945W        W64319   6.185  36.362  11.416
95946W        W64320   4.258  20.258   2.761
95947W        W64321  10.256  25.176   4.273
95948W        W64322  37.461  24.973   0.741
95949W        W64323   5.267  25.141  12.557
95950W        W64324  17.208  41.390  12.364
95951W        W64325  37.395  12.676  11.059
95952W        W64326  25.530  20.767   3.346
95953W        W64327   9.889   7.188   1.769
95954W        W64328  23.684   5.306  11.505
95955W        W64329   2.811  31.934  11.380
95956W        W64330   6.799  37.967  13.461
95957W        W64331  39.469   9.791  13.429
95958W        W64332  33.007  14.733  13.842
95959W        W64333  27.981  37.434  11.111
95960W        W64334  18.104  14.684   1.784
95961W        W64335  40.019  39.558   2.827
95962W        W64336  32.943  22.728  12.849
95963W        W64337  24.122   5.426   1.730
95964W        W64338  14.760  44.409   1.743
95965W        W64339  17.598  11.776  14.352
95966W        W64340   4.256  29.977  10.577
95967W        W64341  34.597  43.285  11.399
95968W        W64342  34.567  23.508   2.709
95969W        W64343  18.631   9.751   4.190
95970W        W64344  35.055  32.898   2.876
95971W        W64345  27.585  44.284  11.441
95972W        W64346   7.796  16.768  13.964
95973W        W64347  33.894  11.234   1.852
95974W        W64348  42.814  35.465   3.343
95975W        W64349  24.032   2.826  13.372
95976W        W64350  21.592  36.016  14.920
95977W        W64351  20.617  22.550   2.184
95978W        W64352  43.848  23.121  12.839
95979W        W64353  37.984   4.737   4.192
95980W        W64354  13.715  27.970  11.585
95981W        W64355  13.668  16.152  13.822
95982W        W64356   2.734  16.159   3.384
95983W        W64357  35.923  17.677   0.950
95984W        W64358  18.709  24.623   1.873
95985W        W64359  39.043  32.394   1.830
95986W        W64360  12.722  28.577   3.725
95987W        W64361   5.329  42.883   3.706
95988W        W64362   1.239   6.892   2.845
95989W        W64363  16.125  37.919   2.179
95990W        W64364  43.777  10.233   2.387
95991W        W64365  41.388  12.159   2.189
95992W        W64366  11.150  21.248  14.893
95993W        W64367  38.837   4.245   4.249
95994W        W64368   3.287  34.979   0.855
95995W        W64369  21.030  29.448  11.074
95996W        W64370  22.522  41.383   0.842
95997W        W64371  41.914  37.082   1.224
95998W        W64372  29.649   2.269   2.876
95999W        W64373  28.507   3.267  14.497
96000W        W64374  41.964  44.284   4.214
96001W        W64375  33.065  35.452  14.771
96002W        W64376   7.783  39.363   4.771
96003W        W64377  40.412  27.661   3.747
96004W        W64378   2.335  15.724   2.395
96005W        W64379  41.796  29.516  12.929
96006W        W64380  16.311   4.218  11.095
96007W        W64381  26.460  27.477   0.385
96008W        W64382  16.652  10.234   4.772
96009W        W64383  44.265   6.291  14.928
96010W        W64384   4.727  35.470  10.993
96011W        W64385  11.244  17.625  13.409
96012W        W64386  36.439  16.141   4.281
96013W        W64387  10.776  26.636  12.070
96014W        W64388  12.325  12.762   1.274
96015W        W64389  19.103  22.236  12.554
96016W        W64390   8.336  23.699   5.275
96017W        W64391  39.031  36.974  11.027
96018W        W64392  21.673  16.590  12.518
96019W        W64393  19.608   1.810  10.152
96020W        W64394   2.918  25.148   2.663
96021W        W64395  44.488  13.293  12.354
96022W        W64396   9.877  17.710  10.483
96023W        W64397  26.563  11.838   1.836
96024W        W64398  42.294  30.615  13.352
96025W        W64399   4.247  43.374   0.908
96026W        W64400  28.983  44.870   3.360
96027W        W64401  28.643  33.958   3.229
96028W        W64402  26.143  22.525   2.899
96029W        W64403   3.905  43.491   1.412
96030W        W64404   5.690  24.197   5.270
96031W        W64405  13.623  12.632  11.049
96032W        W64406   3.316   8.363   4.632
96033W        W64407   6.264  12.844   0.887
96034W        W64408  38.044  39.423   4.625
96035W        W64409  29.150  36.461   2.230
96036W        W64410  24.543  28.655   0.751
96037W        W64411  26.960   9.238  14.513
96038W        W64412  16.730  43.951  12.573
96039W        W64413   2.932  43.505  13.872
96040W        W64414   3.313  23.074  14.841
96041W        W64415   6.286   0.783   2.398
96042W        W64416  43.934  12.641   3.739
96043W        W64417  33.115  21.625   4.792
96044W        W64418  35.950  26.592   1.430
96045W        W64419  29.026  40.405  14.505
96046W        W64420  35.589   9.819  13.487
96047W        W64421  22.640  23.615   3.852
96048W        W64422  29.947  21.066  11.950
96049W        W64423  31.994  44.919  13.416
96050W        W64424   4.311  12.819  13.039
96051W        W64425  43.999  26.633   0.296
96052W        W64426  14.140  42.321   0.416
96053W        W64427  22.031  30.004  14.931
96054W        W64428   3.256   7.184   4.731
96055W        W64429   2.278  28.457  11.069
96056W        W64430  26.135  37.970   3.784
96057W        W64431  43.298  11.130   2.858
96058W        W64432  30.054  33.487  11.891
96059W        W64433  33.076  27.630   4.777
96060W        W64434   1.379   8.750  12.856
96061W        W64435  41.962   8.893  14.770
96062W        W64436   0.805  13.784   0.807
96063W        W64437  13.841   6.768  13.435
96064W        W64438   7.208  11.271  11.581
96065W        W64439  38.547  21.174  13.822
96066W        W64440  31.055  35.074   2.731
96067W        W64441  10.290  37.014   0.355
96068W        W64442  18.712  26.637  12.417
96069W        W64443  38.028  24.038  14.487
96070W        W64444  24.004  11.156  11.115
96071W        W64445  27.188  21.166  13.847
96072W        W64446  36.061  31.083  12.471
96073W        W64447  13.645  34.093  14.953
96074W        W64448   3.336  38.005  11.048
96075W        W64449  17.183   2.390  13.926
96076W        W64450  22.571  40.044   4.227
96077W        W64451  17.285   0.333  13.994
96078W        W64452   3.738  32.411   1.375
96079W        W64453  38.404   9.817   4.613
96080W        W64454  16.621  38.874   1.426
96081W        W64455   1.475  26.014  10.426
96082W        W64456   3.926  42.001  11.073
96083W        W64457  20.083  39.833  10.630
96084W        W64458   3.871   9.199   0.806
96085W        W64459  13.759  23.502  13.905
96086W        W64460  29.471  22.611   4.722
96087W        W64461   8.863   5.251   0.448
96088W        W64462  14.265  17.099   4.338
96089W        W64463  24.184  14.197   9.996
96090W        W64464  43.387   1.443   2.796
96091W        W64465  24.541   6.922  14.456
96092W        W64466  37.841  18.233   5.151
96093W        W64467   5.759  12.190  10.988
96094W        W64468   8.358   5.744   0.869
96095W        W64469  44.467   1.804  14.928
96096W        W64470  38.039  29.940  11.537
96097W        W64471  15.794   1.361  10.525
96098W        W64472  43.829  26.572  12.546
96099W        W64473   7.806   2.776   2.396
96100W        W64474  18.648  28.089  12.939
96101W        W64475  41.841   5.696   2.885
96102W        W64476  21.161  31.447  10.051
96103W        W64477   3.902  34.040   0.292
96104W        W64478  14.700  14.658  13.425
96105W        W64479  28.972  41.874  11.478
96106W        W64480   7.674  17.765   5.316
96107W        W64481  16.186   2.961   4.769
96108W        W64482  37.448  37.075   2.357
96109W        W64483  42.483   1.434  11.430
96110W        W64484   0.918  18.594  13.440
96111W        W64485  37.455   7.268   1.772
96112W        W64486  23.097   8.278   3.252
96113W        W64487  37.879  32.095   2.688
96114W        W64488  10.870   8.247   0.941
96115W        W64489  44.444  11.795   3.801
96116W        W64490  16.295   5.425  11.505
96117W        W64491  26.957  41.790  12.836
96118W        W64492   4.253   9.291   2.397
96119W        W64493   3.725  32.608  13.005
96120W        W64494  27.555   7.797   1.281
96121W        W64495   1.745  21.242   4.179
96122W        W64496  29.176   6.317   2.882
96123W        W64497  20.566   2.912  11.907
96124W        W64498  25.178  27.520   1.361
96125W        W64499   3.331   0.815   2.208
96126W        W64500  37.396  28.618  11.899
96127W        W64501  22.608  29.486   5.206
96128W        W64502  15.150  30.632  14.797
96129W        W64503  42.960  17.284  12.066
96130W        W64504  20.150  31.518  14.788
96131W        W64505  35.466  38.908   3.758
96132W        W64506   6.207   2.293   3.670
96133W        W64507  27.487  26.566  11.125
96134W        W64508  27.058  30.114   0.411
96135W        W64509  16.276  30.162  12.046
96136W        W64510  39.339  39.808  13.018
96137W        W64511   3.734  31.970  13.960
96138W        W64512  14.772  42.508   3.836
96139W        W64513  16.108  19.771  12.920
96140W        W64514  19.658  36.031   1.926
96141W        W64515  27.470  22.554  11.407
96142W        W64516  35.904   7.840  10.519
96143W        W64517  28.467  33.974  14.779
96144W        W64518   1.328  13.787  11.604
96145W        W64519  15.118  24.135   2.802
96146W        W64520  24.181  27.489  10.555
96147W        W64521  23.111   9.332  11.981
96148W        W64522   5.837  30.062   3.761
96149W        W64523  34.057   7.289  12.452
96150W        W64524  26.525  15.195   1.835
96151W        W64525  26.630  19.202  13.890
96152W        W64526  30.513  20.062   3.258
96153W        W64527  32.532  39.818   2.296
96154W        W64528  34.023  17.205  11.538
96155W        W64529  23.015  31.614   0.901
96156W        W64530  27.487  24.541  14.882
96157W        W64531  15.717   8.278  12.990
96158W        W64532  10.326  19.725  10.057
96159W        W64533  10.195   3.259  10.933
96160W        W64534  43.833  39.047   3.822
96161W        W64535   9.876   0.889  12.928
96162W        W64536  36.063  33.061   4.138
96163W        W64537  36.367   4.707  10.157
96164W        W64538   2.279  12.318   4.275
96165W        W64539  21.132  42.823  10.133
96166W        W64540  26.535  27.623   3.788
96167W        W64541  40.864  10.776  12.093
96168W        W64542  22.110   6.325  10.503
96169W        W64543   1.405  21.732   1.855
96170W        W64544  30.580  25.968  11.035
96171W        W64545  12.758   1.453   4.264
96172W        W64546  41.945  43.985   1.711
96173W        W64547  38.826  35.092   2.782
96174W        W64548  10.753  20.536   3.741
96175W        W64549  41.373  39.964   0.461
96176W        W64550  21.535   8.877  10.437
96177W        W64551   0.944   3.906  10.983
96178W        W64552  41.338  33.551  11.047
96179W        W64553  37.839  27.051  10.989
96180W        W64554  25.986  18.678  11.371
96181W        W64555  40.995  37.915   0.775
96182W        W64556  33.510   3.353   3.647
96183W        W64557  13.665  35.870  11.017
96184W        W64558   8.838  17.138  10.557
96185W        W64559   9.328  10.324  11.964
96186W        W64560  35.023   3.784  14.346
96187W        W64561  18.098  24.683  13.452
96188W        W64562  40.317  25.487  12.876
96189W        W64563  37.072  10.292   4.201
96190W        W64564   9.163  22.096   1.316
96191W        W64565  20.144  12.729  12.983
96192W        W64566  24.197   7.757   3.178
96193W        W64567  30.068   9.166  11.373
96194W        W64568  31.959   8.179   2.819
96195W        W64569   9.879  37.358  11.879
96196W        W64570  28.995  18.776   1.922
96197W        W64571  22.594   8.381  10.580
96198W        W64572  43.512  32.494  12.417
96199W        W64573   0.814  26.959   1.719
96200W        W64574   6.246  42.008   3.337
96201W        W64575  33.566  36.979   3.705
96202W        W64576  27.613   5.770   3.636
96203W        W64577  35.595   3.450  13.854
96204W        W64578   6.420  39.426   3.798
96205W        W64579  24.585  37.068   2.758
96206W        W64580  26.082  38.076   1.798
96207W        W64581   6.899   3.952   5.242
96208W        W64582   3.372  15.101  10.570
96209W        W64583  24.987   7.804  14.809
96210W        W64584  23.533  10.342  13.056
96211W        W64585  40.810  12.339  14.845
96212W        W64586  35.489  43.446   3.685
96213W        W64587  27.660   3.322  10.960
96214W        W64588  41.786  20.223  13.803
96215W        W64589   6.371   9.378  10.062
96216W        W64590  28.502   1.878   0.371
96217W        W64591  37.017  35.001   3.763
96218W        W64592   6.681  33.024   2.272
96219W        W64593  31.152  21.645   4.809
96220W        W64594  35.965  41.889  12.527
96221W        W64595  11.135  37.531  14.346
96222W        W64596   0.290  42.833  12.002
96223W        W64597  29.940  11.183  13.401
96224W        W64598  25.585  39.336  13.899
96225W        W64599  33.514  27.178  10.509
96226W        W64600  38.508  24.499   4.158
96227W        W64601   1.353  42.788   1.432
96228W        W64602  12.627  23.536  12.884
96229W        W64603  34.511  19.130   3.847
96230W        W64604  17.210  22.555   1.272
96231W        W64605  27.032  42.822   4.196
96232W        W64606  11.685  31.991   0.794
96233W        W64607  30.628   8.208   4.154
96234W        W64608  18.249  28.568  14.832
96235W        W64609  18.560  10.868  14.319
96236W        W64610  11.640  20.673  10.540
96237W        W64611  39.315  10.186  11.968
96238W        W64612  28.182  32.580   3.344
96239W        W64613  39.336   4.848   2.257
96240W        W64614  12.357   9.701   2.843
96241W        W64615  33.120   1.952   4.306
96242W        W64616  40.817  40.881   2.731
96243W        W64617   9.756  20.028  12.019
96244W        W64618  22.179  23.149  13.439
96245W        W64619  35.362  33.913  13.965
96246W        W64620   6.866  43.900  10.628
96247W        W64621  23.626  11.366  13.812
96248W        W64622  18.260  24.493   3.220
96249W        W64623  24.685  30.149   2.242
96250W        W64624  14.130  39.351  14.787
96251W        W64625  11.216  11.199   4.780
96252W        W64626  32.115  33.486  10.504
96253W        W64627  36.437  12.203   4.249
96254W        W64628  20.573  15.222   4.660
96255W        W64629  35.500  41.401  10.447
96256W        W64630  33.548  42.431  14.404
96257W        W64631  16.285  22.670   1.782
96258W        W64632  29.153  41.019  10.484
96259W        W64633  41.336  17.729   3.385
96260W        W64634  33.026  27.567   1.927
96261W        W64635  28.656  13.713  12.003
96262W        W64636   6.292  26.115  13.322
96263W        W64637  25.544   3.933  12.503
96264W        W64638  25.216  44.897  11.378
96265W        W64639  40.435   2.249   1.788
96266W        W64640  36.403  22.183  10.572
96267W        W64641  38.501  40.938   1.380
96268W        W64642  32.999  15.664  11.099
96269W        W64643  38.851  31.414  12.010
96270W        W64644  23.556   7.298  13.892
96271W        W64645  41.500   2.465   0.445
96272W        W64646   5.422  42.408  14.421
96273W        W64647  21.578  38.846   0.825
96274W        W64648  13.189  21.724   2.670
96275W        W64649  10.234  19.049  14.280
96276W        W64650  24.186  39.475  14.024
96277W        W64651  32.037  37.368   4.196
96278W        W64652  16.647   0.778  10.530
96279W        W64653  42.978   8.405   0.858
96280W        W64654  44.879  37.046   4.695
96281W        W64655  21.116  20.186  12.539
96282W        W64656  17.746  14.651   4.315
96283W        W64657   2.327  21.681   0.860
96284W        W64658  15.153  39.337   3.166
96285W        W64659  12.286  22.220   2.902
96286W        W64660  22.572  12.624  12.492
96287W        W64661  21.704  23.722  11.021
96288W        W64662  18.289  39.867  14.980
96289W        W64663  17.092   0.889  14.287
96290W        W64664  26.191  23.656   1.809
96291W        W64665  33.020  30.423  14.969
96292W        W64666  35.940  39.008   2.822
96293W        W64667  23.530  39.957   1.449
96294W        W64668  35.858  14.108   1.392
96295W        W64669  11.327  39.516   0.862
96296W        W64670  24.145   4.327  14.996
96297W        W64671   5.341  32.475   0.826
96298W        W64672  39.829  34.466  12.001
96299W        W64673   3.350   0.987   5.197
96300W        W64674  15.294  10.809   2.797
96301W        W64675  41.002  36.582  12.926
96302W        W64676  32.576  26.084   2.739
96303W        W64677  40.475   5.917   2.757
96304W        W64678   3.271  10.776   3.360
96305W        W64679   5.286   4.709  11.056
96306W        W64680  44.462  13.294   1.320
96307W        W64681  31.553  16.103  13.308
96308W        W64682  40.494  30.999  11.402
96309W        W64683  24.632  14.254   3.219
96310W        W64684  39.512  15.108  13.032
96311W        W64685   8.781  13.738  12.501
96312W        W64686  44.411  38.377   0.949
96313W        W64687  18.064  26.574  11.959
96314W        W64688  37.999  41.359   3.652
96315W        W64689  25.669  38.931   3.712
96316W        W64690  17.659   0.395   0.287
96317W        W64691  43.775  10.853   2.180
96318W        W64692   8.331  42.785  10.931
96319W        W64693   0.844  16.669   0.737
96320W        W64694  28.945  17.770  12.442
96321W        W64695  27.582  34.036  10.511
96322W        W64696  27.485   7.244  12.380
96323W        W64697  11.817  37.033   3.318
96324W        W64698  18.070  10.186   4.123
96325W        W64699   5.269  19.216  12.417
96326W        W64700  31.943  24.508  12.070
96327W        W64701   6.280  44.338   1.851
96328W        W64702   4.328  33.418  12.540
96329W        W64703   0.372  40.422  14.032
96330W        W64704  35.937  15.216  14.804
96331W        W64705  28.618   0.845   3.314
96332W        W64706   5.920  19.228  14.330
96333W        W64707  10.789  39.061   1.737
96334W        W64708  16.216  27.018   3.343
96335W        W64709  39.446  11.682   0.399
96336W        W64710  40.495  22.045   2.297
96337W        W64711  15.712   3.453  12.838
96338W        W64712   1.904  26.651  14.907
96339W        W64713  41.358  37.341   1.930
96340W        W64714  28.170  40.852  12.910
96341W        W64715   3.828  26.579   2.311
96342W        W64716  25.125  42.338  10.533
96343W        W64717  42.945  12.739  11.962
96344W        W64718  32.011   4.834   4.643
96345W        W64719  35.457  21.605  11.429
96346W        W64720  24.042  25.036  13.385
96347W        W64721  34.548  24.637  14.971
96348W        W64722  43.278  26.201   3.766
96349W        W64723  32.588   5.706   3.321
96350W        W64724  32.597   9.827   1.735
96351W        W64725  17.785  20.033  10.987
96352W        W64726  34.575   9.210   1.229
96353W        W64727   0.842  33.086   1.217
96354W        W64728  20.059   5.270  14.841
96355W        W64729   5.754  23.684  11.061
96356W        W64730  14.663  32.629  12.341
96357W        W64731   4.384   8.725   2.239
96358W        W64732  39.954  31.424   2.755
96359W        W64733  34.891   1.961  13.435
96360W        W64734  11.236   2.251   2.824
96361W        W64735  37.930   5.201  10.493
96362W        W64736  44.768  17.191  11.451
96363W        W64737  32.481  12.245   1.221
96364W        W64738   8.898  10.752  14.304
96365W        W64739  44.924  14.117   1.451
96366W        W64740  14.185  32.464  14.810
96367W        W64741   1.767  24.559   2.277
96368W        W64742  25.488  10.145   2.758
96369W        W64743  26.175  35.075  11.527
96370W        W64744  18.756   9.362  12.840
96371W        W64745  39.814   6.801  11.985
96372W        W64746  33.512  33.466   0.347
96373W        W64747  36.961  31.420  14.391
96374W        W64748  12.257  26.078  14.284
96375W        W64749  10.143   4.797   2.374
96376W        W64750   6.347  26.096   1.762
96377W        W64751  29.986  20.765  11.382
96378W        W64752  16.752  37.056   1.844
96379W        W64753  21.224  12.135   3.858
96380W        W64754  30.115  18.773   4.326
96381W        W64755  31.626  40.480   2.700
96382W        W64756  40.900  38.411  13.859
96383W        W64757  16.671  35.515  10.581
96384W        W64758  26.514   2.418   0.374
96385W        W64759  12.202   0.826   3.281
96386W        W64760   0.471  37.338   4.147
96387W        W64761  24.582  33.127  11.912
96388W        W64762  10.876  10.696   0.256
96389W        W64763   1.740  16.796   2.404
96390W        W64764   2.945  43.939   3.145
96391W        W64765   6.805  35.934  11.414
96392W        W64766   2.409  16.768   1.242
96393W        W64767   1.314  16.167  10.505
96394W        W64768  22.089  18.077   0.803
96395W        W64769   6.248   5.889   2.873
96396W        W64770  13.235   5.812  13.496
96397W        W64771  31.957   6.235   2.405
96398W        W64772   8.212  42.417   1.278
96399W        W64773  18.704  11.263   3.264
96400W        W64774  17.195  25.674   3.806
96401W        W64775  39.534  18.198   2.289
96402W        W64776  35.369  28.474  14.852
96403W        W64777  25.633   3.276   0.267
96404W        W64778  15.642  39.840   0.347
96405W        W64779  37.372  19.688   2.683
96406W        W64780  12.170   0.409  12.412
96407W        W64781  32.986  32.531   2.767
96408W        W64782   2.926  22.072   0.918
96409W        W64783  14.603  42.430  11.909
96410W        W64784  38.067  24.991   0.744
96411W        W64785  37.049  39.360   0.944
96412W        W64786  11.669   7.811  10.450
96413W        W64787  33.948  42.349  10.457
96414W        W64788  30.478  13.265   4.332
96415W        W64789  31.561   9.303  13.478
96416W        W64790   8.849  24.046   1.281
96417W        W64791  35.518  33.984  14.381
96418W        W64792   4.753  13.269   1.297
96419W        W64793  20.636   2.924  14.874
96420W        W64794   8.756  40.050   0.882
96421W        W64795  13.112  24.177  14.514
96422W        W64796  44.310  16.241   0.924
96423W        W64797  38.530  31.912  11.972
96424W        W64798   4.230  29.556  14.794
96425W        W64799   1.320  14.630   4.224
96426W        W64800  21.197   3.858   5.145
96427W        W64801  12.782   2.744  13.797
96428W        W64802  35.964  20.631   0.433
96429W        W64803  42.803   6.835  14.864
96430W        W64804  30.081   8.248  14.787
96431W        W64805  32.005  23.170   2.882
96432W        W64806  19.683  14.706   3.296
96433W        W64807   0.788  10.204  13.492
96434W        W64808   6.796  29.131  13.016
96435W        W64809  15.773  17.596  12.416
96436W        W64810  28.437  38.073  13.461
96437W        W64811  14.325  27.112  14.378
96438W        W64812   9.836  39.912   0.801
96439W        W64813  38.502  40.816  11.395
96440W        W64814  41.418  14.129  14.954
96441W        W64815  24.637  15.692   4.729
96442W        W64816  36.959   6.229  12.057
96443W        W64817  40.006  10.731   4.240
96444W        W64818  38.472   3.289  11.874
96445W        W64819  21.100  33.585  11.965
96446W        W64820  33.484  31.494  11.054
96447W        W64821   7.255  28.033   0.917
96448W        W64822  19.669  33.900  11.008
96449W        W64823   8.164  36.515   1.697
96450W        W64824  12.794  43.801  12.394
96451W        W64825   3.333  31.957  12.470
96452W        W64826   2.422  36.488  11.483
96453W        W64827  33.481  15.811  12.457
96454W        W64828   1.327   0.827  12.512
96455W        W64829  31.502  18.273  13.798
96456W        W64830  12.226  38.461   4.668
96457W        W64831  23.015   6.215  14.474
96458W        W64832   9.349  25.572   4.757
96459W        W64833  36.412  23.568   1.926
96460W        W64834  31.497  44.937  10.911
96461W        W64835   4.818  16.196   1.827
96462W        W64836  43.817   7.697   0.293
96463W        W64837  37.861  24.639  13.039
96464W        W64838  35.590  35.374  13.902
96465W        W64839  29.489   9.179  11.070
96466W        W64840  44.285   7.272  13.447
96467W        W64841  12.820  27.963   4.286
96468W        W64842  22.593  23.047   2.829
96469W        W64843  10.734  30.586   1.289
96470W        W64844  13.287  26.001  13.522
96471W        W64845   2.791  14.813   1.730
96472W        W64846   3.812  16.228   0.332
96473W        W64847  26.655  25.546  14.399
96474W        W64848   3.901  28.958  14.798
96475W        W64849  25.127  38.426  14.012
96476W        W64850   5.929  29.088  13.391
96477W        W64851  23.181  12.700   4.292
96478W        W64852  26.989  19.613  11.030
96479W        W64853  28.588  26.550  12.918
96480W        W64854  30.505  26.104  11.984
96481W        W64855  11.258   7.854  12.076
96482W        W64856  27.450  27.562  11.450
96483W        W64857   1.313   7.895  14.358
96484W        W64858   5.255  24.697  14.291
96485W        W64859  20.611  40.424  11.872
96486W        W64860   9.213  38.337  12.572
96487W        W64861   4.919  17.102   2.213
96488W        W64862  19.583  15.106  14.353
96489W        W64863  18.070  39.376   3.703
96490W        W64864  31.544  10.176   3.716
96491W        W64865  10.672  16.664   4.299
96492W        W64866  23.543  16.811   0.843
96493W        W64867  36.406  20.060  13.510
96494W        W64868   5.863   1.881   2.770
96495W        W64869  30.471  41.860  14.011
96496W        W64870   5.787  11.130  11.934
96497W        W64871  19.561  21.253  14.878
96498W        W64872  43.838  21.656  12.519
96499W        W64873  34.011  29.059  11.884
96500W        W64874  12.327  19.203   4.727
96501W        W64875  18.758   1.900   4.663
96502W        W64876  31.434  15.620   3.665
96503W        W64877  34.411   1.924  12.875
96504W        W64878  12.772   6.881  10.463
96505W        W64879   2.282  42.373   0.246
96506W        W64880   4.255  22.121  11.527
96507W        W64881  31.623  16.195   3.828
96508W        W64882  30.955  23.690   0.481
96509W        W64883  27.558   9.277   2.733
96510W        W64884  30.061  36.875   3.197
96511W        W64885  23.214  35.032   1.924
96512W        W64886  10.820  26.076  14.512
96513W        W64887  14.826   4.403   0.846
96514W        W64888  17.077  41.791  13.386
96515W        W64889  25.135   9.874   4.340
96516W        W64890  36.408  11.686   1.231
96517W        W64891  11.128  11.140   3.161
96518W        W64892  15.314  18.749  13.420
96519W        W64893   2.275  35.086   2.720
96520W        W64894   7.746  13.171   4.768
96521W        W64895  35.953  19.253   4.678
96522W        W64896   8.215  11.632   4.289
96523W        W64897  25.620  10.660  12.522
96524W        W64898  37.370   9.204  11.916
96525W        W64899  33.492  36.460   3.323
96526W        W64900  20.627  34.438   0.405
96527W        W64901  40.432  14.111   5.306
96528W        W64902  20.165   2.771  12.443
96529W        W64903   5.855  42.507   1.773
96530W        W64904  41.456  17.669  11.090
96531W        W64905  33.598   7.757   3.282
96532W        W64906  19.609  14.308  10.629
96533W        W64907  34.898  29.484   0.946
96534W        W64908  16.642  19.535  13.038
96535W        W64909  11.251  41.881  13.035
96536W        W64910   2.413  22.174   3.730
96537W        W64911  18.234  34.591   1.233
96538W        W64912  12.191  16.150  12.950
96539W        W64913  12.122  12.838  11.469
96540W        W64914  24.077  35.371   4.645
96541W        W64915  29.605   2.753  12.081
96542W        W64916   4.332  15.671   1.300
96543W        W64917  37.945  39.428   1.277
96544W        W64918   8.395  36.526  12.467
96545W        W64919  23.079  38.845   3.179
96546W        W64920   1.297  11.307  12.516
96547W        W64921   1.945  23.660  14.283
96548W        W64922  36.482   9.305   4.681
96549W        W64923   6.375  41.427  13.509
96550W        W64924  14.242   9.769  13.980
96551W        W64925  35.009  29.154   1.352
96552W        W64926  19.674  31.604  13.373
96553W        W64927  43.426   1.460   0.472
96554W        W64928  19.642  40.445  12.470
96555W        W64929  29.661   0.875  14.409
96556W        W64930  41.962  19.643  12.064
96557W        W64931  33.088  26.584   0.441
96558W        W64932  23.195  33.072  11.887
96559W        W64933   2.809  31.094  13.044
96560W        W64934  34.535  24.179   3.343
96561W        W64935  32.935   5.759   4.690
96562W        W64936  34.533  40.860   3.642
96563W        W64937  35.477  22.044   3.295
96564W        W64938  22.034  30.465  14.831
96565W        W64939   8.845  19.159  13.896
96566W        W64940  37.498  34.866   1.736
96567W        W64941  19.052  23.999  11.508
96568W        W64942  24.696  14.329  14.027
96569W        W64943  17.094  36.407   1.704
96570W        W64944  14.230  36.376  12.946
96571W        W64945  43.284   6.875  10.589
96572W        W64946  40.893  27.942   1.716
96573W        W64947  42.379   3.381  12.013
96574W        W64948  27.091  23.680   0.259
96575W        W64949  42.409  37.392  13.432
96576W        W64950  36.889  33.553   3.209
96577W        W64951   6.910  23.578  14.482
96578W        W64952  21.657  29.167   3.180
96579W        W64953  33.587   1.793  12.907
96580W        W64954  22.007  21.638  11.121
96581W        W64955   5.815  40.005   2.799
96582W        W64956   2.817  16.734  10.614
96583W        W64957   1.467  36.011   0.453
96584W        W64958  23.595   6.426  12.089
96585W        W64959  41.838   3.357   0.413
96586W        W64960  24.174  31.597   2.400
96587W        W64961  16.689  36.021   4.334
96588W        W64962  18.780  13.721  12.846
96589W        W64963  18.157  38.894   4.653
96590W        W64964   7.714   8.884   0.339
96591W        W64965  19.580  28.460  12.876
96592W        W64966  20.726  40.501  14.378
96593W        W64967  17.188  43.410   2.736
96594W        W64968   1.279  27.662   4.749
96595W        W64969  14.264   7.699  11.478
96596W        W64970  44.487  17.284   2.821
96597W        W64971  40.387   2.344  13.808
96598W        W64972  29.959  37.443  10.890
96599W        W64973  41.941   0.384   0.860
96600W        W64974  30.909   4.860  12.929
96601W        W64975  36.895  27.049   4.275
96602W        W64976   6.360  35.426   2.751
96603W        W64977  20.271  36.450  13.869
96604W        W64978  34.055   6.917  12.976
96605W        W64979  15.642  16.774   3.694
96606W        W64980  13.650  25.209  12.051
96607W        W64981  15.302  43.926   4.819
96608W        W64982  39.357   6.894   1.223
96609W        W64983  19.139  23.629  14.016
96610W        W64984  12.762  30.146   2.365
96611W        W64985  14.735  44.502   4.345
96612W        W64986  26.038   8.746   1.912
96613W        W64987  19.270  20.078   4.183
96614W        W64988  24.651  28.108  12.922
96615W        W64989  22.088  10.352   1.303
96616W        W64990   6.312  12.706  14.823
96617W        W64991  43.283  14.754  13.533
96618W        W64992   4.837   9.331  10.155
96619W        W64993  37.402  13.665  12.865
96620W        W64994  28.098   7.693   0.271
96621W        W64995  31.417  27.628  11.505
96622W        W64996  35.485  17.695  11.380
96623W        W64997  30.544  27.127  12.404
96624W        W64998   6.204  41.337  12.928
96625W        W64999   9.338  26.046  14.758
96626W        W65000  43.843  24.041  13.835
96627W        W65001   5.198  39.876   5.279
96628W        W65002  41.315   1.440   0.781
96629W        W65003   5.704  26.549   2.741
96630W        W65004  31.152  16.253  13.892
96631W        W65005  32.891  33.015   4.199
96632W        W65006  16.800  43.360   1.299
96633W        W65007  34.589  37.054  13.403
96634W        W65008  31.104  43.380  14.380
96635W        W65009  39.869  33.946  14.984
96636W        W65010  42.861  17.584   4.179
96637W        W65011  27.994  41.012   4.204
96638W        W65012  32.921  36.431   1.828
96639W        W65013  24.563   0.878  12.393
96640W        W65014  25.218  23.229   1.253
96641W        W65015  12.167  33.506   0.749
96642W        W65016   0.798  44.302   1.439
96643W        W65017  18.241   5.426  10.917
96644W        W65018  13.813   6.870   4.283
96645W        W65019  40.472  13.752  10.611
96646W        W65020  30.013  41.297   0.849
96647W        W65021  35.517  32.570  12.883
96648W        W65022  44.272   5.814  14.436
96649W        W65023  18.172  11.128  13.891
96650W        W65024  39.829  10.198  11.607
96651W        W65025  44.969  22.681  10.932
96652W        W65026  20.035   2.246   2.229
96653W        W65027  13.669  30.597   3.346
96654W        W65028  35.474  41.044  12.968
96655W        W65029  43.427  44.809   4.817
96656W        W65030  30.509  20.567  11.965
96657W        W65031  15.083  44.899   1.336
96658W        W65032  15.690  15.301  11.069
96659W        W65033   4.240  12.231  11.120
96660W        W65034  23.131  33.099   0.902
96661W        W65035   5.301  33.128   0.832
96662W        W65036   2.851  31.013  13.942
96663W        W65037  24.021  10.255   0.956
96664W        W65038  28.156  19.740   2.239
96665W        W65039  11.865  28.443   3.777
96666W        W65040  30.604  43.803  13.357
96667W        W65041  10.244  42.899   4.681
96668W        W65042  10.195  22.186   3.663
96669W        W65043  43.795  27.653   0.392
96670W        W65044   9.163  10.753   3.744
96671W        W65045   0.929  19.133  14.804
96672W        W65046   2.856  39.415  13.423
96673W        W65047  37.971   1.464  10.639
96674W        W65048  37.472  36.525  12.538
96675W        W65049   5.434  30.975  13.536
96676W        W65050  11.792  15.641   1.704
96677W        W65051  41.928  12.289  10.902
96678W        W65052   4.253  31.574   1.287
96679W        W65053  36.998  39.514   1.767
96680W        W65054  18.714  42.355   4.692
96681W        W65055  39.001   1.434   4.684
96682W        W65056  10.682   4.395   2.179
96683W        W65057  10.644  24.549  13.483
96684W        W65058  44.841  43.319   2.377
96685W        W65059   0.354   9.860   1.230
96686W        W65060  14.658  30.563   4.749
96687W        W65061  29.002  40.507  14.018
96688W        W65062  35.913  35.571   1.225
96689W        W65063  14.199  31.427   3.208
96690W        W65064  37.533  12.757   4.344
96691W        W65065  22.664  14.612   1.302
96692W        W65066  39.393  27.133   1.397
96693W        W65067  34.908  18.279   0.739
96694W        W65068  21.756  40.398  12.396
96695W        W65069   0.963  11.158   2.816
96696W        W65070  40.385  19.714  14.902
96697W        W65071  25.634  31.624  14.014
96698W        W65072  26.466  43.948   1.842
96699W        W65073  22.642  24.056   2.331
96700W        W65074  32.609  19.737  13.026
96701W        W65075   7.752  29.966   0.299
96702W        W65076  31.634  31.070  13.804
96703W        W65077  33.534   6.271   3.718
96704W        W65078  19.116  15.111   0.243
96705W        W65079   0.248  34.007  12.355
96706W        W65080  26.125  26.160   2.845
96707W        W65081  21.076  33.006  12.560
96708W        W65082  19.672  12.344  12.968
96709W        W65083   6.727   5.350  12.827
96710W        W65084  22.669  44.459  11.004
96711W        W65085  16.665   4.884  11.005
96712W        W65086   9.676   9.648  10.440
96713W        W65087  19.204  44.977   1.905
96714W        W65088   6.860  42.291  14.493
96715W        W65089   3.727   7.235   2.753
96716W        W65090  29.990   7.347   1.400
96717W        W65091  10.191  31.600   0.321
96718W        W65092  42.471  44.324   2.699
96719W        W65093  13.720  27.179   4.244
96720W        W65094  13.262  40.530   1.218
96721W        W65095   9.218  18.222   5.095
96722W        W65096   3.290   9.864   3.786
96723W        W65097  15.152  29.026   2.294
96724W        W65098  41.446  17.258   1.216
96725W        W65099   5.842  16.666  14.377
96726W        W65100   3.381  31.964  13.050
96727W        W65101  25.020  23.585   9.987
96728W        W65102  10.179  33.049  10.465
96729W        W65103  32.436  38.853  11.965
96730W        W65104   8.246  41.985   0.389
96731W        W65105   7.237  34.995  14.284
96732W        W65106   0.451  24.571  10.562
96733W        W65107  43.514  41.492   0.326
96734W        W65108  34.459  34.076  14.493
96735W        W65109  32.397   9.644   2.712
96736W        W65110  16.209  36.946  14.499
96737W        W65111  13.248   7.854  12.872
96738W        W65112  14.181  22.151  11.942
96739W        W65113   9.264  30.066   4.257
96740W        W65114  42.840  31.133  10.615
96741W        W65115   5.387   7.900  11.516
96742W        W65116   2.409  18.765  11.938
96743W        W65117  11.754   7.719   3.686
96744W        W65118   3.710   6.222  10.086
96745W        W65119   9.881  42.971   2.744
96746W        W65120   2.264  21.034   5.092
96747W        W65121   7.872  29.485   0.447
96748W        W65122  33.515  30.959   4.756
96749W        W65123  42.431  21.512  13.927
96750W        W65124  22.607  19.665   2.326
96751W        W65125   6.379  33.062   2.897
96752W        W65126  12.762  27.063   3.637
96753W        W65127  18.760  16.728   1.798
96754W        W65128  29.124  33.564   2.828
96755W        W65129   9.318  28.649   9.602
96756W        W65130  44.304  17.211   1.416
96757W        W65131  24.982  36.975   3.861
96758W        W65132  43.439  38.507  13.826
96759W        W65133  38.001  41.924   2.271
96760W        W65134  35.916  35.495   0.774
96761W        W65135  39.409   5.903  14.439
96762W        W65136  24.003  12.836  10.627
96763W        W65137  25.176   8.196   0.859
96764W        W65138   9.185  15.164  13.312
96765W        W65139  34.440   7.824   3.753
96766W        W65140  12.842  25.039  13.926
96767W        W65141  43.486  36.904  11.943
96768W        W65142  28.054  10.253  10.025
96769W        W65143  42.920  19.063   2.418
96770W        W65144  19.605  19.687  11.934
96771W        W65145  27.656  28.569   4.744
96772W        W65146  26.076   0.452  11.085
96773W        W65147  34.424  30.146  14.371
96774W        W65148  24.990  44.765   1.906
96775W        W65149  32.467  21.115   2.795
96776W        W65150  25.608  43.364   0.822
96777W        W65151  11.830  18.237  12.858
96778W        W65152   6.861  35.103   0.866
96779W        W65153  41.962   4.221  10.584
96780W        W65154  36.423   7.405  13.347
96781W        W65155  37.534  43.511  10.543
96782W        W65156  26.602  10.249  11.515
96783W        W65157  36.423  25.666   0.333
96784W        W65158  32.904  35.556  13.451
96785W        W65159   1.382  10.744   3.855
96786W        W65160   5.339  12.785   1.848
96787W        W65161  19.622  41.364   2.796
96788W        W65162  11.350  26.066  14.873
96789W        W65163  24.139  21.537  10.424
96790W        W65164  25.498  40.363  12.890
96791W        W65165  18.642  18.168   1.815
96792W        W65166  38.486  17.586  11.394
96793W        W65167  31.920  18.077  13.916
96794W        W65168  15.243  25.631  12.028
96795W        W65169   8.775  21.167  12.844
96796W        W65170  40.871  19.661   0.919
96797W        W65171   3.361   4.716   0.457
96798W        W65172  36.921  25.628   4.637
96799W        W65173  12.180   3.272   3.314
96800W        W65174  11.634  32.929  13.455
96801W        W65175  23.230   4.890   2.750
96802W        W65176  15.102  23.527   1.851
96803W        W65177  10.159   3.403   0.937
96804W        W65178  40.518  41.803   1.916
96805W        W65179  10.773   5.734  12.091
96806W        W65180  33.130  44.474   3.366
96807W        W65181  16.099  31.545   3.237
96808W        W65182  27.105  41.904   1.850
96809W        W65183   6.820  35.499  14.022
96810W        W65184  26.041  41.940  13.963
96811W        W65185   3.386  22.561  14.364
96812W        W65186  43.845   9.671   1.281
96813W        W65187  13.795  43.461   2.880
96814W        W65188  38.042  34.921   3.857
96815W        W65189  32.935  26.560   2.295
96816W        W65190  11.283  35.963   1.889
96817W        W65191   3.785  31.913  10.150
96818W        W65192  17.711   0.444  14.822
96819W        W65193  11.765   1.813   5.284
96820W        W65194  38.866  35.076   1.261
96821W        W65195   6.739  10.377  11.411
96822W        W65196  13.729  32.583  12.050
96823W        W65197  37.357   0.374   2.264
96824W        W65198  22.113   1.399  10.890
96825W        W65199  16.661  17.772  14.342
96826W        W65200  39.417   4.866   4.283
96827W        W65201  36.393  14.156   4.169
96828W        W65202   1.429  12.162  11.910
96829W        W65203  17.596   7.799  11.121
96830W        W65204  38.041  27.525   1.704
96831W        W65205  30.415  19.625   0.319
96832W        W65206   9.344   1.377  12.358
96833W        W65207  23.644  15.736  12.491
96834W        W65208   3.820   0.335   3.186
96835W        W65209  28.578   2.918  14.965
96836W        W65210  32.987  21.132   3.182
96837W        W65211  38.362  15.294  12.948
96838W        W65212  18.669  32.936  14.333
96839W        W65213  14.791  30.514   2.209
96840W        W65214   0.305  22.071   3.699
96841W        W65215  15.579   1.960  12.526
96842W        W65216  26.702  12.705  14.836
96843W        W65217  24.631  21.180  11.439
96844W        W65218  26.552  27.672  12.579
96845W        W65219  11.139  14.195  13.313
96846W        W65220  32.465  33.985   3.317
96847W        W65221  30.575  21.170   0.469
96848W        W65222  17.278  14.275  11.402
96849W        W65223  14.782  14.673   0.398
96850W        W65224  44.934   6.681  14.297
96851W        W65225  39.528   3.392   1.784
96852W        W65226   5.749  32.613   4.718
96853W        W65227   6.197   7.271  12.991
96854W        W65228  14.097  11.834  14.879
96855W        W65229  15.676  23.506   2.823
96856W        W65230  33.430  36.551  12.573
96857W        W65231  27.194  35.434   3.690
96858W        W65232   2.929   8.686   1.418
96859W        W65233  15.248  12.737  10.943
96860W        W65234  22.197   9.283   0.823
96861W        W65235  12.750  34.555  12.911
96862W        W65236  32.101  28.662   3.350
96863W        W65237  38.913  11.854  13.416
96864W        W65238  21.633  15.297  12.054
96865W        W65239   3.402  10.850   0.865
96866W        W65240   9.186  44.889   3.820
96867W        W65241  12.717  22.604   1.339
96868W        W65242  14.321  16.287  13.373
96869W        W65243   9.662  28.949  11.120
96870W        W65244  35.464  11.637   0.303
96871W        W65245   1.407   3.873  11.557
96872W        W65246  35.966  12.169   3.379
96873W        W65247  32.920  21.528  14.951
96874W        W65248  31.130  42.869  12.936
96875W        W65249  36.896   8.190   2.714
96876W        W65250  17.637   8.830  14.430
96877W        W65251  18.553  32.912   1.435
96878W        W65252  14.109  21.649  11.023
96879W        W65253  28.947   3.360   2.676
96880W        W65254  23.533  25.077   4.737
96881W        W65255  26.499  39.353   4.632
96882W        W65256  13.684  10.813   5.763
96883W        W65257  28.474  17.591   2.186
96884W        W65258  22.069   2.786   3.208
96885W        W65259   7.353  35.463   4.285
96886W        W65260  12.166  36.382   0.787
96887W        W65261  29.666   4.328   1.708
96888W        W65262  36.350  34.071  14.469
96889W        W65263  29.003   6.220   4.831
96890W        W65264  33.502  16.717   2.231
96891W        W65265  40.325  41.471  11.400
96892W        W65266  36.350  24.988  10.446
96893W        W65267  43.997  10.336   2.892
96894W        W65268   0.871  25.093   3.307
96895W        W65269  31.638  26.086  12.976
96896W        W65270  16.216  15.227  11.899
96897W        W65271  35.107  11.790  10.632
96898W        W65272  34.964  33.924  13.031
96899W        W65273  15.162  44.803  13.335
96900W        W65274   5.283  12.747  11.602
96901W        W65275  43.377   4.376   4.352
96902W        W65276  10.810  42.814   1.242
96903W        W65277  40.395  27.505  11.921
96904W        W65278  36.573  38.907   1.276
96905W        W65279  27.635  34.475  12.552
96906W        W65280   0.805  22.614  14.396
96907W        W65281  40.428  12.348  11.486
96908W        W65282   3.811  24.061   1.794
96909W        W65283  34.913  23.036  13.027
96910W        W65284  31.482  19.778  14.889
96911W        W65285  24.565   3.329   0.774
96912W        W65286  10.270  23.640   3.662
96913W        W65287   9.693   1.315   3.665
96914W        W65288  25.188  38.010  14.344
96915W        W65289   6.882  28.508   5.304
96916W        W65290  23.715   1.958   4.331
96917W        W65291  32.622  34.082   2.795
96918W        W65292   7.262   0.298   4.831
96919W        W65293  27.997  17.188  11.050
96920W        W65294  15.086  27.127   2.402
96921W        W65295  35.561  24.168   0.832
96922W        W65296   9.728  35.946  13.049
96923W        W65297  20.626   3.262   2.748
96924W        W65298  42.386  29.476  12.073
96925W        W65299   2.857  30.081  12.024
96926W        W65300   6.690   1.284   3.254
96927W        W65301  35.052   8.189  10.604
96928W        W65302  41.851   7.202  10.990
96929W        W65303  26.177   0.889   5.186
96930W        W65304  42.023  31.603   0.837
96931W        W65305  26.584  39.865   1.702
96932W        W65306   2.300  25.198  14.978
96933W        W65307  32.981  25.089  13.484
96934W        W65308   0.248  13.817  14.987
96935W        W65309  30.647   9.389   3.757
96936W        W65310  29.504   2.335  10.499
96937W        W65311  40.899  28.491  14.473
96938W        W65312  16.151  24.703  13.422
96939W        W65313  30.010  21.693  12.399
96940W        W65314  17.209  36.845  12.052
96941W        W65315  44.757  23.198  10.622
96942W        W65316  11.649  15.806   3.742
96943W        W65317  37.860  23.582  10.491
96944W        W65318   8.236  17.228  13.988
96945W        W65319   2.388   9.868   2.256
96946W        W65320   6.291   4.824   5.208
96947W        W65321  15.305  16.683  10.591
96948W        W65322  21.131  40.441   1.717
96949W        W65323  44.823   1.372   1.930
96950W        W65324   2.893  10.323  14.505
96951W        W65325  16.270  22.162   4.818
96952W        W65326  30.552  31.944  13.512
96953W        W65327  41.939   8.349  14.324
96954W        W65328   0.438  41.844   3.763
96955W        W65329  38.364  23.053  12.093
96956W        W65330  33.412  13.187  13.426
96957W        W65331  27.982  32.968   1.368
96958W        W65332   7.311  36.419   4.125
96959W        W65333  20.561  13.740  11.888
96960W        W65334  16.782  10.305  10.038
96961W        W65335  37.869  25.103   2.289
96962W        W65336   1.395  18.630   1.725
96963W        W65337  32.474  21.679   2.753
96964W        W65338  42.791   5.425  10.930
96965W        W65339   9.869   2.308   2.666
96966W        W65340  14.807  25.142   2.902
96967W        W65341  22.587  35.001   3.262
96968W        W65342  33.471  31.422  11.556
96969W        W65343  23.068  29.023  12.415
96970W        W65344  39.835  44.403  10.549
96971W        W65345   1.358  18.719  12.974
96972W        W65346  30.468  34.422   4.699
96973W        W65347   9.689  30.447   1.314
96974W        W65348  26.528  38.886  11.926
96975W        W65349  41.439   5.729   4.721
96976W        W65350   1.950  36.090   0.373
96977W        W65351  34.101  17.727   2.825
96978W        W65352  31.986  41.299  13.405
96979W        W65353  22.667  27.021   2.803
96980W        W65354  44.951  26.501   0.876
96981W        W65355  28.077   8.664  11.875
96982W        W65356  37.369   0.776   0.898
96983W        W65357  24.113  25.138  11.878
96984W        W65358   3.853  23.083  13.531
96985W        W65359  10.645  38.843   0.847
96986W        W65360  12.786  28.660   1.230
96987W        W65361  18.714  28.498  11.990
96988W        W65362  11.637  31.019  11.452
96989W        W65363  41.309  13.195   4.818
96990W        W65364  11.256   4.346   2.311
96991W        W65365  35.002  16.176   2.788
96992W        W65366   4.252  43.899   3.743
96993W        W65367  13.299  20.037  12.906
96994W        W65368  18.176   4.731   4.259
96995W        W65369  37.059   7.194  11.561
96996W        W65370  42.943  34.455   1.795
96997W        W65371   6.310  35.399   0.448
96998W        W65372  28.997  33.473  14.019
96999W        W65373   4.271  36.043  14.975
97000W        W65374  18.157  29.584  10.956
97001W        W65375   7.343  37.982   1.445
97002W        W65376  16.268  35.475  10.436
97003W        W65377   0.284  29.646  13.882
97004W        W65378  19.137  41.515   4.274
97005W        W65379  24.186  29.664   4.748
97006W        W65380  26.472  39.859  14.452
97007W        W65381   2.814   4.234  13.341
97008W        W65382  42.345  32.053  13.949
97009W        W65383  27.549  26.073  10.510
97010W        W65384  12.289  42.439   2.217
97011W        W65385  12.200  34.480   0.352
97012W        W65386  21.164  19.143   2.863
97013W        W65387  25.058  22.097  12.495
97014W        W65388  39.325  22.251   0.266
97015W        W65389  31.074  43.831   0.871
97016W        W65390   0.418   0.422  14.465
97017W        W65391  20.686  38.009  12.369
97018W        W65392   5.798  18.687  14.497
97019W        W65393  33.959  14.237  10.941
97020W        W65394  11.841  43.417   4.298
97021W        W65395   6.326  16.190  11.454
97022W        W65396   0.493   8.868   2.675
97023W        W65397  29.154  12.629  13.415
97024W        W65398  36.924  11.344   0.246
97025W        W65399  21.717  40.819   5.607
97026W        W65400   4.332  23.007  14.328
97027W        W65401  17.556  44.314  13.495
97028W        W65402  39.371  28.077   0.246
97029W        W65403   3.397  19.739  13.348
97030W        W65404  42.305  27.681   1.885
97031W        W65405  28.628  32.895   1.898
97032W        W65406  30.922   2.949  14.291
97033W        W65407  24.619   5.888  12.083
97034W        W65408  34.405  21.058  11.590
97035W        W65409  27.484  40.830   0.768
97036W        W65410  20.586   6.894   3.235
97037W        W65411  17.777  39.999   3.207
97038W        W65412  23.699  21.043   3.701
97039W        W65413  11.130  23.525   1.888
97040W        W65414  27.546  21.547   1.419
97041W        W65415  44.005  40.414   1.837
97042W        W65416  21.545  13.184  10.916
97043W        W65417  24.189  41.419   1.223
97044W        W65418  35.516  14.220   4.188
97045W        W65419  10.699  23.551   4.796
97046W        W65420  14.791  40.335   3.351
97047W        W65421  31.993  30.655  13.978
97048W        W65422   1.250  16.608   4.278
97049W        W65423  32.990   0.329   1.695
97050W        W65424  26.120  17.587  13.468
97051W        W65425   3.916  20.567  13.885
97052W        W65426   8.388   2.903   4.311
97053W        W65427  15.242  29.965  11.566
97054W        W65428   3.439  11.672   3.686
97055W        W65429  26.027  41.489  13.820
97056W        W65430  18.789  31.540  10.997
97057W        W65431  10.153   4.843   3.349
97058W        W65432  11.338  17.609  11.869
97059W        W65433  44.960   1.807  14.011
97060W        W65434  17.092  24.141   0.389
97061W        W65435  21.226  35.584   4.636
97062W        W65436  29.142  29.044   4.177
97063W        W65437   4.788   1.802   3.372
97064W        W65438  20.748  36.566   4.733
97065W        W65439  28.157  42.416  10.135
97066W        W65440  14.667  20.555  14.803
97067W        W65441  33.896  35.023   3.805
97068W        W65442  15.754   8.198   4.169
97069W        W65443  20.143  24.083  12.070
97070W        W65444   6.773   5.415   5.281
97071W        W65445   5.902  11.716  12.874
97072W        W65446  37.534   3.727  13.541
97073W        W65447  33.920   4.758   1.292
97074W        W65448  39.871  39.005  13.850
97075W        W65449  40.472  28.522  10.549
97076W        W65450  44.996   7.849  13.465
97077W        W65451   2.234  12.362  14.867
97078W        W65452   9.830   5.309   1.357
97079W        W65453  38.876  17.119  11.500
97080W        W65454  28.668  29.965   4.662
97081W        W65455  24.013  31.079   1.925
97082W        W65456   8.391  17.279  12.838
97083W        W65457  11.240  28.994   0.396
97084W        W65458  31.637   4.293   0.802
97085W        W65459  16.604  33.435  14.281
97086W        W65460  34.999  13.195   3.285
97087W        W65461  21.093  39.555  11.525
97088W        W65462  19.548   9.706   3.257
97089W        W65463  25.654  13.648   3.847
97090W        W65464  31.597  15.084   3.275
97091W        W65465   8.274  29.085   1.450
97092W        W65466   2.918  40.006  13.518
97093W        W65467  24.208  39.530   1.259
97094W        W65468  11.319   3.956  11.868
97095W        W65469  40.884  21.537  11.902
97096W        W65470   0.955  25.529   1.705
97097W        W65471   6.742  33.501   4.719
97098W        W65472  11.740   0.398  13.998
97099W        W65473  26.567  22.171   1.261
97100W        W65474  22.572  42.466   1.769
97101W        W65475   4.204   1.445  10.940
97102W        W65476   1.780  10.271   4.698
97103W        W65477  44.303  20.551  11.412
97104W        W65478  24.132  43.344  14.396
97105W        W65479  10.214  41.902  12.945
97106W        W65480   1.294   0.834  14.840
97107W        W65481  32.598  44.401   1.257
97108W        W65482   5.866  38.855  13.043
97109W        W65483  40.384  38.982  14.024
97110W        W65484  18.633  38.510  14.989
97111W        W65485  14.314  34.908   2.286
97112W        W65486  43.497  10.822   4.601
97113W        W65487   2.876   8.350  12.882
97114W        W65488  35.604   5.896   4.668
97115W        W65489  43.840  35.463   0.881
97116W        W65490  23.227  39.861   2.404
97117W        W65491  27.029  14.727  10.518
97118W        W65492  12.209  18.679   3.279
97119W        W65493  14.270  40.490   5.120
97120W        W65494  39.906   0.746   4.193
97121W        W65495   6.879  29.514   1.868
97122W        W65496  21.146  33.557  12.985
97123W        W65497  42.474  24.035   0.783
97124W        W65498  43.907  13.119  12.533
97125W        W65499   0.971   1.918  10.428
97126W        W65500  38.029  25.537   3.841
97127W        W65501   0.913  33.940   3.694
97128W        W65502  23.127  15.265   2.321
97129W        W65503  42.822  44.876  12.567
97130W        W65504  30.005  30.999  13.042
97131W        W65505  28.136  24.598   0.432
97132W        W65506  27.515  28.115  11.914
97133W        W65507  37.022  36.092   1.924
97134W        W65508  32.453  34.003  14.493
97135W        W65509  14.214  31.008  14.816
97136W        W65510  21.028  30.558  14.282
97137W        W65511  33.512  17.180  12.903
97138W        W65512  36.919   4.428   4.616
97139W        W65513  35.868  38.048  14.417
97140W        W65514  14.309  44.930  11.007
97141W        W65515  16.272  11.240  13.531
97142W        W65516  23.190  33.565  13.886
97143W        W65517   0.321   5.808   1.900
97144W        W65518   4.906  22.197  14.374
97145W        W65519  13.750  18.706   1.423
97146W        W65520   6.395  29.432  11.470
97147W        W65521  28.661  15.158  12.021
97148W        W65522  20.572  35.458   1.699
97149W        W65523  34.498  28.946  12.835
97150W        W65524   8.694  34.443   0.372
97151W        W65525  23.211   7.877  11.391
97152W        W65526   9.356  40.957   4.274
97153W        W65527  40.407  17.104   1.743
97154W        W65528  21.052  20.660   0.912
97155W        W65529  42.421  32.600   1.415
97156W        W65530  30.429  28.031  11.401
97157W        W65531  39.961  35.398   1.789
97158W        W65532  30.098  44.857   0.307
97159W        W65533  28.451   0.330   0.728
97160W        W65534  26.184  23.548  14.800
97161W        W65535  25.543   3.761   2.708
97162W        W65536   4.765  44.763   0.731
97163W        W65537  32.585  17.155  11.033
97164W        W65538  16.686  39.967  10.527
97165W        W65539  10.298   0.480   1.411
97166W        W65540   1.933   6.345   5.083
97167W        W65541  44.453   5.207  11.528
97168W        W65542   5.733  13.284  13.832
97169W        W65543  40.366  35.015   4.200
97170W        W65544   1.348  23.010  14.412
97171W        W65545  19.712  36.053   4.239
97172W        W65546  30.563   1.242  13.342
97173W        W65547  14.280  26.145   2.875
97174W        W65548  36.578   3.955   3.265
97175W        W65549  15.802  10.717  10.973
97176W        W65550  32.407  24.643  13.989
97177W        W65551   7.866  19.533   3.630
97178W        W65552  20.247  36.429   1.380
97179W        W65553   5.337  17.685   2.378
97180W        W65554  44.949  12.794   1.437
97181W        W65555  12.296  22.705   1.397
97182W        W65556  13.764  13.655  11.418
97183W        W65557  40.956  18.282  10.924
97184W        W65558   6.240   3.359  10.159
97185W        W65559  26.563  37.087   1.732
97186W        W65560  40.929  31.466   0.816
97187W        W65561  28.110  38.967   3.737
97188W        W65562  18.651  27.626   0.301
97189W        W65563  37.052   4.757  13.939
97190W        W65564  19.170   2.798   4.827
97191W        W65565  25.679  31.057  13.500
97192W        W65566  12.648  26.693  14.500
97193W        W65567  33.574  36.481   3.713
97194W        W65568  34.501  31.943  14.770
97195W        W65569  36.960  25.624  14.884
97196W        W65570   6.679  29.425   0.910
97197W        W65571  21.253   1.941   2.407
97198W        W65572  24.225   6.723  13.794
97199W        W65573  30.913  18.229  14.856
97200W        W65574  21.744   8.375   1.436
97201W        W65575  38.001  35.866  10.427
97202W        W65576  44.838  37.445   2.312
97203W        W65577  22.149  43.011   2.786
97204W        W65578  27.082   3.908   4.603
97205W        W65579  28.435  18.066   4.813
97206W        W65580  15.800  22.086  13.947
97207W        W65581  43.310  35.559  10.990
97208W        W65582  15.279  35.371  14.504
97209W        W65583  24.078  29.614  12.844
97210W        W65584   1.263  39.033  13.370
97211W        W65585  39.557  39.977   0.833
97212W        W65586  36.021  36.063  13.832
97213W        W65587  28.448   2.806  12.851
97214W        W65588   6.809  20.665   4.689
97215W        W65589   9.345  39.838   3.823
97216W        W65590  33.043  35.544   3.828
97217W        W65591  30.067  40.447  10.633
97218W        W65592  23.161  42.939   0.396
97219W        W65593  18.659  42.926   2.330
97220W        W65594   2.393  22.728   0.413
97221W        W65595  26.469  44.843  14.810
97222W        W65596  31.424   8.195  14.907
97223W        W65597  38.406  18.052   3.797
97224W        W65598  29.929  10.822  13.386
97225W        W65599  40.372  42.837  11.918
97226W        W65600  37.386  22.174  12.850
97227W        W65601   1.466  34.600  11.482
97228W        W65602  37.352  12.321  12.070
97229W        W65603  39.314   9.811   4.683
97230W        W65604  15.714  35.001   1.416
97231W        W65605   7.879  12.649  10.598
97232W        W65606  41.868  15.810  13.942
97233W        W65607  26.576  17.773   0.312
97234W        W65608  29.540  33.488  12.536
97235W        W65609   9.159  20.713   4.771
97236W        W65610  24.170  19.068   3.647
97237W        W65611  38.837  11.723   0.784
97238W        W65612  23.682  20.556  10.417
97239W        W65613  18.245  12.298  12.035
97240W        W65614  21.090  21.733  11.984
97241W        W65615  29.498   2.752  13.486
97242W        W65616  15.725  23.501   4.812
97243W        W65617  37.955  20.112  13.336
97244W        W65618  14.244  29.527   4.225
97245W        W65619   8.345  35.532  12.006
97246W        W65620  16.080  15.235   0.955
97247W        W65621   2.251  27.577   1.931
97248W        W65622   7.865  38.048   3.723
97249W        W65623  41.876  32.885  13.882
97250W        W65624   9.739  40.980   2.306
97251W        W65625  38.389   9.197   1.335
97252W        W65626   7.883  31.532  10.905
97253W        W65627  31.469   5.389   3.662
97254W        W65628  30.613  32.509  10.631
97255W        W65629  19.245  37.938  14.031
97256W        W65630   7.801   1.343   1.432
97257W        W65631  34.924  22.566   2.296
97258W        W65632  39.970  18.174   0.751
97259W        W65633  30.987  11.734   3.211
97260W        W65634  31.111  16.158   2.194
97261W        W65635  12.765   6.370   1.448
97262W        W65636   0.834  20.066   1.239
97263W        W65637  30.108  24.527  11.482
97264W        W65638   1.934   6.235  13.796
97265W        W65639  13.609  20.235  11.068
97266W        W65640  10.836  40.882   2.383
97267W        W65641  27.470  16.744   3.306
97268W        W65642  33.080  21.710   0.370
97269W        W65643  10.680  23.724  11.061
97270W        W65644  39.451  18.277   4.275
97271W        W65645   8.274  42.899   0.285
97272W        W65646   1.942  30.997   2.180
97273W        W65647   8.228  34.968   4.189
97274W        W65648  34.555  41.936   0.450
97275W        W65649  34.400  26.986   1.335
97276W        W65650  23.675  16.746  14.956
97277W        W65651   6.253   4.704   9.624
97278W        W65652  25.618  15.778  13.356
97279W        W65653  30.494  41.905   3.248
97280W        W65654  11.275   9.154  12.949
97281W        W65655  38.056  18.160   0.759
97282W        W65656   8.374  37.528  14.352
97283W        W65657   2.861  13.771  10.921
97284W        W65658   2.427  10.381   1.419
97285W        W65659  12.850  24.200  12.382
97286W        W65660  11.633  40.007  13.412
97287W        W65661  31.580  40.040   3.258
97288W        W65662  39.926  42.432   1.420
97289W        W65663  23.091  17.659   9.552
97290W        W65664  15.662  18.567  11.563
97291W        W65665   4.303  10.318   1.899
97292W        W65666  29.554  32.430   1.306
97293W        W65667  35.518  27.530  11.390
97294W        W65668  18.572  27.506  11.855
97295W        W65669  39.841  13.822   1.407
97296W        W65670  30.022  10.264  11.988
97297W        W65671  24.559  19.089   1.711
97298W        W65672  32.958  32.518  12.525
97299W        W65673  33.459  22.086   2.278
97300W        W65674  35.549  12.796  11.047
97301W        W65675  25.199  32.915   4.319
97302W        W65676   3.783  34.446   3.840
97303W        W65677   1.468  26.541  13.439
97304W        W65678  12.770  31.057   4.634
97305W        W65679  44.491  27.489  13.897
97306W        W65680  13.180   1.898  14.822
97307W        W65681  40.369  41.001  14.494
97308W        W65682  35.439  18.737   1.239
97309W        W65683   6.367  26.563   4.620
97310W        W65684  15.179  39.062   1.414
97311W        W65685   1.379  40.442  11.117
97312W        W65686  26.186  10.726  10.444
97313W        W65687  12.220   3.914  12.473
97314W        W65688   2.865  15.626   2.400
97315W        W65689  17.622   5.819   1.410
97316W        W65690  30.569   8.818   3.166
97317W        W65691  25.967  16.172   2.408
97318W        W65692  18.669  14.598  12.017
97319W        W65693   0.478  39.356  14.416
97320W        W65694  30.128   3.947  12.966
97321W        W65695  40.529   6.908   3.699
97322W        W65696  38.499  29.526  11.414
97323W        W65697  16.763  20.582  14.832
97324W        W65698  37.895  10.365   3.311
97325W        W65699  25.035   7.261   4.641
97326W        W65700  17.293   5.366   3.238
97327W        W65701  25.569  22.634   0.465
97328W        W65702   8.771  22.135  13.971
97329W        W65703  16.226  35.067  14.402
97330W        W65704  32.944   2.871  11.435
97331W        W65705   4.882  23.516   1.369
97332W        W65706  40.007  11.659  11.005
97333W        W65707  39.054   7.219  10.145
97334W        W65708  35.050  33.004  14.913
97335W        W65709  21.558  31.086  14.335
97336W        W65710   7.349  34.609   0.282
97337W        W65711  33.429  34.400   2.742
97338W        W65712  29.065   4.862   0.475
97339W        W65713  18.592  41.927  13.875
97340W        W65714  43.352  30.993  14.384
97341W        W65715   3.905  39.476   0.940
97342W        W65716  25.555  22.675   1.723
97343W        W65717   6.223   7.666   0.249
97344W        W65718   9.852  14.103  12.562
97345W        W65719  40.476   8.271  14.978
97346W        W65720  31.431  36.377  14.814
97347W        W65721   9.353  24.721   2.277
97348W        W65722  13.662   4.879   3.684
97349W        W65723  37.088  14.686   0.302
97350W        W65724  34.530  15.179  13.990
97351W        W65725  35.065   1.465   2.270
97352W        W65726  31.154  10.737  14.902
97353W        W65727  16.667  22.594   1.708
97354W        W65728  44.494  44.975  14.342
97355W        W65729   5.879  42.842  11.098
97356W        W65730  12.257   6.874  12.466
97357W        W65731  27.561   0.758  10.148
97358W        W65732  44.761  40.022  13.474
97359W        W65733  40.450  35.056   5.092
97360W        W65734  40.407   3.898   1.350
97361W        W65735  23.191  18.279  13.538
97362W        W65736  32.002  39.321   2.828
97363W        W65737  16.093  12.160   2.187
97364W        W65738  22.032   5.773   3.643
97365W        W65739   7.281  41.008  13.496
97366W        W65740  19.767  42.327  12.080
97367W        W65741  11.354  14.251   1.438
97368W        W65742  23.116  26.474  11.407
97369W        W65743  40.359  43.455  10.894
97370W        W65744  15.288  33.434  12.417
97371W        W65745  14.325  10.194  14.294
97372W        W65746  41.001   2.891   3.682
97373W        W65747  24.725   8.365   0.963
97374W        W65748  36.064  23.576  10.981
97375W        W65749  23.144   8.828  12.004
97376W        W65750  22.073  41.870   2.734
97377W        W65751  13.731  29.432  11.037
97378W        W65752  10.316   5.378   1.717
97379W        W65753  31.644  35.373   1.854
97380W        W65754  27.043  35.932  13.950
97381W        W65755  16.075  37.873   3.644
97382W        W65756  16.255  23.193  11.870
97383W        W65757  19.608  30.582  10.913
97384W        W65758   3.859  29.519   0.375
97385W        W65759  29.537  17.620  11.068
97386W        W65760  16.284   4.414   2.795
97387W        W65761  21.717  13.638  11.474
97388W        W65762  29.043  41.538  12.897
97389W        W65763  13.693   3.820   4.150
97390W        W65764  25.475  37.352  10.896
97391W        W65765  10.879   6.266   4.647
97392W        W65766  33.493  25.564  14.379
97393W        W65767  20.174  29.455   0.394
97394W        W65768  44.915  28.094   3.315
97395W        W65769  14.627  22.559   3.194
97396W        W65770  38.847  36.529  14.931
97397W        W65771  33.564  10.147   0.386
97398W        W65772   1.912  32.928   2.316
97399W        W65773  39.491   5.782  10.457
97400W        W65774  11.148   0.861   3.698
97401W        W65775   9.767   5.812  11.548
97402W        W65776  39.980  25.682   4.717
97403W        W65777   8.732  25.677   2.720
97404W        W65778  25.639  27.690   4.690
97405W        W65779  44.915  22.248   4.810
97406W        W65780  13.695   9.889  12.053
97407W        W65781  39.898  31.987  10.898
97408W        W65782  12.704  42.439   3.777
97409W        W65783  38.569  23.149  10.913
97410W        W65784  28.660   6.881   4.747
97411W        W65785  18.133  42.463  11.566
97412W        W65786  37.575  28.537   3.344
97413W        W65787  31.486  36.445  10.417
97414W        W65788  17.238  35.877  11.461
97415W        W65789  39.931   1.884  11.445
97416W        W65790  38.819   4.794  12.568
97417W        W65791  18.052  27.575   4.229
97418W        W65792  25.698  40.481  14.385
97419W        W65793  37.830  28.679   1.901
97420W        W65794  21.024  13.127  10.905
97421W        W65795   0.357  43.381  11.909
97422W        W65796   4.373  25.132  12.472
97423W        W65797   7.186   7.803   2.220
97424W        W65798  29.565  26.039   0.438
97425W        W65799  30.056  16.126  13.480
97426W        W65800  33.918  39.952  11.867
97427W        W65801  43.797  36.952  13.383
97428W        W65802  29.609  10.851   2.304
97429W        W65803  31.022  25.183  11.885
97430W        W65804   1.277  26.184   1.859
97431W        W65805   7.685  37.037  10.409
97432W        W65806  36.018   4.923   9.934
97433W        W65807  20.210  22.012  12.480
97434W        W65808   5.280  39.428   3.225
97435W        W65809  38.870  11.260  11.008
97436W        W65810   2.404   0.792  11.476
97437W        W65811   2.903  27.175   1.750
97438W        W65812   9.204  16.231  14.979
97439W        W65813  28.085  44.909   2.259
97440W        W65814  23.614  25.192  12.566
97441W        W65815  42.418  12.236   0.861
97442W        W65816  27.449  43.907  13.389
97443W        W65817  30.525  35.378  10.957
97444W        W65818   0.885  32.107  13.477
97445W        W65819  44.907  27.493   0.336
97446W        W65820  30.454  37.389   4.153
97447W        W65821  29.571  43.962   5.800
97448W        W65822  14.267  40.416   4.829
97449W        W65823  19.654  31.015   0.823
97450W        W65824  16.616  24.667  12.841
97451W        W65825   6.363  37.005   3.202
97452W        W65826  11.182  26.473   1.353
97453W        W65827  21.600  26.575  11.878
97454W        W65828  38.539  44.379  11.476
97455W        W65829   6.295  37.853   0.924
97456W        W65830   4.346  30.142  10.958
97457W        W65831   1.361  32.439  13.548
97458W        W65832  36.372  17.168   4.720
97459W        W65833  21.729  43.414  11.948
97460W        W65834  34.005   1.430   2.367
97461W        W65835   8.168  27.667  14.353
97462W        W65836   8.734   7.276  14.921
97463W        W65837  15.613  15.608   1.737
97464W        W65838   5.356  30.145   3.231
97465W        W65839   9.169  40.965  11.377
97466W        W65840   9.256  32.075  12.470
97467W        W65841  31.553  37.412  13.802
97468W        W65842  24.704   4.896  11.111
97469W        W65843  20.259  43.463  11.443
97470W        W65844  29.552  19.618  12.956
97471W        W65845   4.822  28.477  13.449
97472W        W65846  30.551  39.858  12.364
97473W        W65847  18.272  24.998  11.558
97474W        W65848  33.545  29.021   4.138
97475W        W65849  21.630   3.406   3.791
97476W        W65850  26.488  11.261   3.342
97477W        W65851  13.739   1.311  12.084
97478W        W65852  27.010  31.445  12.893
97479W        W65853  29.536  23.221   3.259
97480W        W65854  27.173  42.821  11.407
97481W        W65855  27.116   7.858  10.497
97482W        W65856  23.709  14.660  11.494
97483W        W65857  41.356  14.724  12.839
97484W        W65858  11.132  17.785  13.868
97485W        W65859   8.286  37.945   3.649
97486W        W65860  35.883  29.926   0.735
97487W        W65861  25.030  14.112   3.345
97488W        W65862  34.987  13.678  14.847
97489W        W65863  33.557   2.417   3.297
97490W        W65864  20.639   8.257  13.063
97491W        W65865  23.542   4.299  10.644
97492W        W65866  41.393   4.772  11.550
97493W        W65867  11.704  35.474   2.286
97494W        W65868  16.263  15.223   1.243
97495W        W65869  13.187  16.082   1.329
97496W        W65870  21.619  26.640   9.974
97497W        W65871   6.368  30.112   4.232
97498W        W65872  15.651  37.931  12.379
97499W        W65873  33.508  42.298   0.735
97500W        W65874  33.957  11.668   0.867
97501W        W65875  29.938   9.809  14.424
97502W        W65876  13.310  30.514   3.715
97503W        W65877  14.291   8.740   2.360
97504W        W65878  41.008  19.147  12.369
97505W        W65879  37.072  24.096  13.417
97506W        W65880  12.639   6.918  11.860
97507W        W65881  26.176  21.552  12.866
97508W        W65882  13.109  22.050   3.685
97509W        W65883  27.485  30.482   3.218
97510W        W65884  25.094   6.255  13.374
97511W        W65885  23.076  14.600  13.973
97512W        W65886  37.844  24.636  13.501
97513W        W65887   8.697  21.605   9.621
97514W        W65888  42.903  29.081  12.089
97515W        W65889  30.952  42.824  14.447
97516W        W65890   9.317  32.009   2.247
97517W        W65891  22.744  20.238   2.776
97518W        W65892  38.536   8.254  14.369
97519W        W65893  36.419  33.888  12.045
97520W        W65894  13.781  11.770  14.463
97521W        W65895  37.881  10.258   3.725
97522W        W65896  40.428  42.793   9.963
97523W        W65897  25.983   6.254  13.510
97524W        W65898  35.064  42.444   2.868
97525W        W65899  23.229  34.534  14.327
97526W        W65900  40.833  18.673  14.832
97527W        W65901  24.080  28.467  10.416
97528W        W65902  36.907  16.114   0.404
97529W        W65903  24.159  25.964   4.208
97530W        W65904  32.439  44.402   2.756
97531W        W65905  38.863  23.104  13.808
97532W        W65906  35.398  27.080   0.745
97533W        W65907  40.978  28.606   0.483
97534W        W65908  23.987   3.437   0.792
97535W        W65909  36.564  35.025   5.304
97536W        W65910   4.282  14.257  14.892
97537W        W65911  38.847   7.214   3.806
97538W        W65912   0.473  22.186  14.816
97539W        W65913   2.448  18.562   4.163
97540W        W65914   8.678  26.153   0.431
97541W        W65915  22.188   7.283   1.361
97542W        W65916  22.075  25.184   5.260
97543W        W65917   0.491   1.800  14.347
97544W        W65918   7.185  26.196  14.864
97545W        W65919   0.316  30.066   4.352
97546W        W65920  11.691  34.955  12.445
97547W        W65921  14.169  34.954  14.310
97548W        W65922   1.928   9.266   0.318
97549W        W65923   7.726  43.898  12.828
97550W        W65924  39.329  35.566   3.698
97551W        W65925  14.752  30.521  11.499
97552W        W65926  34.446   4.309  14.803
97553W        W65927  20.723  14.303   1.436
97554W        W65928  10.275  33.443  14.308
97555W        W65929  30.455   9.817  12.548
97556W        W65930   8.764  12.619   0.830
97557W        W65931  32.018  40.019  10.442
97558W        W65932  37.344  34.865   3.283
97559W        W65933  11.784   5.822  14.801
97560W        W65934  25.971  17.083  12.386
97561W        W65935   0.420   3.437   3.307
97562W        W65936  26.093  18.753   4.184
97563W        W65937  31.615  25.189   0.943
97564W        W65938  18.613  39.427  10.487
97565W        W65939  24.187  33.029  10.640
97566W        W65940  34.506  30.564   2.787
97567W        W65941  31.570   8.742  11.409
97568W        W65942   2.444   8.380   4.763
97569W        W65943  13.171   8.217   1.424
97570W        W65944  21.635  35.908  14.434
97571W        W65945  18.724  32.074  12.416
97572W        W65946  32.466  37.897  14.283
97573W        W65947  18.124  21.757  11.577
97574W        W65948  17.190  26.170   4.677
97575W        W65949  32.080  29.964  11.881
97576W        W65950  12.702  24.160   2.337
97577W        W65951  19.672  44.377  14.306
97578W        W65952  44.826  41.920  13.470
97579W        W65953  40.377  19.264   3.215
97580W        W65954  20.030  43.371  13.986
97581W        W65955  11.644  27.126  12.006
97582W        W65956  28.935  19.693  12.407
97583W        W65957  21.157  12.294  12.395
97584W        W65958  40.456  34.570   3.739
97585W        W65959  34.948  42.986   4.826
97586W        W65960  39.935  34.894  12.983
97587W        W65961   2.943  40.458  12.082
97588W        W65962  43.972   9.360   2.837
97589W        W65963  43.367   2.812   1.446
97590W        W65964  21.701  39.948   2.770
97591W        W65965   7.697   3.399  10.012
97592W        W65966  42.523  43.315   1.415
97593W        W65967  44.884  29.640  13.951
97594W        W65968  27.687  35.585   4.817
97595W        W65969  38.998  42.833   1.430
97596W        W65970   4.421   3.780   4.712
97597W        W65971  21.695   5.860  14.991
97598W        W65972  15.668  32.521   4.639
97599W        W65973   0.399  39.325   3.866
97600W        W65974   6.213  16.167  14.436
97601W        W65975  20.665   1.874  13.315
97602W        W65976  36.519  25.648  11.479
97603W        W65977  27.521  44.967   3.169
97604W        W65978  18.197   9.288   2.894
97605W        W65979  28.035  32.463   3.774
97606W        W65980  36.526  44.326  13.516
97607W        W65981  15.773  35.891  10.593
97608W        W65982   7.865  31.997  13.952
97609W        W65983  14.780  36.072  14.406
97610W        W65984  21.752  33.454   4.636
97611W        W65985   3.861   7.831  13.497
97612W        W65986   3.734   6.282   1.231
97613W        W65987  42.897   7.230  10.024
97614W        W65988  28.642  24.630   4.232
97615W        W65989   6.255  30.028  12.352
97616W        W65990  25.523  42.386   3.303
97617W        W65991  43.873  15.265   2.774
97618W        W65992  29.443  37.855  12.413
97619W        W65993   8.693  29.567   3.165
97620W        W65994   5.435  13.616  14.406
97621W        W65995   1.839   6.755   1.708
97622W        W65996  38.909  21.112   1.809
97623W        W65997  17.798   4.208  14.760
97624W        W65998  43.973  35.594  13.889
97625W        W65999   3.801  12.303   3.202
97626W        W66000  42.977   2.911   0.378
97627W        W66001  34.434  43.433   0.305
97628W        W66002  29.050  25.067  11.375
97629W        W66003  10.265   6.188   4.310
97630W        W66004  34.449  31.120   1.295
97631W        W66005   4.350  30.416  13.897
97632W        W66006   9.789  27.615   1.820
97633W        W66007  33.080   4.248   3.148
97634W        W66008  17.589  33.916  11.465
97635W        W66009  44.467  23.066   4.150
97636W        W66010   7.253   4.386   1.846
97637W        W66011  13.835  11.662  13.434
97638W        W66012   3.425  11.255   0.357
97639W        W66013  27.609  10.725   3.258
97640W        W66014  25.664  23.727  11.905
97641W        W66015  24.681   7.669  14.495
97642W        W66016  23.068   3.457  13.898
97643W        W66017  16.106  19.732   3.317
97644W        W66018  33.439  23.591  10.527
97645W        W66019  15.701  38.422   1.286
97646W        W66020  37.547  10.745   1.258
97647W        W66021  26.086  38.854   3.744
97648W        W66022  34.410  25.624  12.420
97649W        W66023  40.510  20.552   3.750
97650W        W66024  23.208  23.212  14.832
97651W        W66025  41.499  14.294  12.570
97652W        W66026   0.460  31.022  14.877
97653W        W66027  40.399  17.748   0.254
97654W        W66028  30.506  16.160   2.667
97655W        W66029  16.586  17.078   4.712
97656W        W66030  11.171  40.015   2.326
97657W        W66031  35.938  38.465   1.360
97658W        W66032  36.449  36.475  14.916
97659W        W66033  28.131  12.246   0.731
97660W        W66034   8.687  18.662   3.369
97661W        W66035  24.640  21.141  14.476
97662W        W66036  36.938  36.000   2.352
97663W        W66037  30.958  32.465   1.886
97664W        W66038   0.963   5.431   3.705
97665W        W66039  21.214  17.129   0.269
97666W        W66040  29.984  27.989   1.235
97667W        W66041  12.744  10.335  12.032
97668W        W66042  43.325  43.343   1.804
97669W        W66043   5.401  38.325   0.890
97670W        W66044   8.762  28.489  10.426
97671W        W66045  23.129  43.453   2.874
97672W        W66046  10.284   9.712  14.508
97673W        W66047  42.475   0.320   4.288
97674W        W66048  26.601  10.784   3.650
97675W        W66049  15.717  30.547  14.904
97676W        W66050  10.221   1.340   3.772
97677W        W66051   6.862  19.683   2.853
97678W        W66052  38.398  39.936   0.837
97679W        W66053  30.984  10.844  12.874
97680W        W66054  27.087  14.719  12.458
97681W        W66055  10.703   5.400   2.762
97682W        W66056  37.410  18.186   2.855
97683W        W66057  30.161  16.570  11.483
97684W        W66058   4.822  31.014  10.968
97685W        W66059   7.730  27.972   2.247
97686W        W66060  39.928  10.841   1.918
97687W        W66061   7.742  18.124  13.441
97688W        W66062  31.113  11.371   1.363
97689W        W66063  12.667  11.302   4.729
97690W        W66064  19.761  37.348  10.515
97691W        W66065  10.333  38.050  14.028
97692W        W66066  16.614  18.211   3.221
97693W        W66067  39.859   4.226  14.418
97694W        W66068  37.574  35.027  10.560
97695W        W66069  27.509  21.682  12.381
97696W        W66070   5.862  41.372  14.461
97697W        W66071  21.626  16.291  12.062
97698W        W66072  19.723   8.793   4.222
97699W        W66073   2.225  12.774   5.179
97700W        W66074  35.050  27.022  13.857
97701W        W66075   8.313  32.947  12.375
97702W        W66076  23.110  30.556   1.833
97703W        W66077  25.138  42.308   4.640
97704W        W66078   4.285  36.527  11.423
97705W        W66079  10.728  11.305  13.320
97706W        W66080  39.411  23.527  14.930
97707W        W66081  35.539  23.134  14.926
97708W        W66082  28.592  29.548   3.146
97709W        W66083  42.364  28.987   0.414
97710W        W66084  39.531  29.044  13.337
97711W        W66085  12.655   9.362  13.879
97712W        W66086  30.997  42.505   3.645
97713W        W66087   2.893   5.339  12.406
97714W        W66088   4.321  12.332  10.504
97715W        W66089  17.090   5.268  12.849
97716W        W66090  40.489  31.083  14.930
97717W        W66091  36.918  28.559   4.694
97718W        W66092  27.062  20.626   0.329
97719W        W66093   5.777  12.808   4.794
97720W        W66094   7.360  13.246  13.846
97721W        W66095   9.270   3.798   3.267
97722W        W66096  42.969   5.264   4.325
97723W        W66097   2.957  41.976   1.827
97724W        W66098  20.166  34.879  11.031
97725W        W66099  22.688  36.940   0.370
97726W        W66100  26.487  40.825  12.830
97727W        W66101  20.055   5.743   4.643
97728W        W66102  22.192  27.043   2.768
97729W        W66103  10.303   0.933   2.800
97730W        W66104  23.694  43.349   1.409
97731W        W66105  40.004  12.256  11.398
97732W        W66106  17.744  15.813   3.155
97733W        W66107  20.622  19.683  13.902
97734W        W66108  37.919   1.475   2.195
97735W        W66109  34.988  42.290   3.797
97736W        W66110  38.555  37.880  12.979
97737W        W66111  36.862   8.883   3.857
97738W        W66112  44.407  42.439  10.158
97739W        W66113   6.911  39.364   4.342
97740W        W66114   9.177  28.646   3.238
97741W        W66115  40.949  40.496   0.816
97742W        W66116  15.271  25.591  14.997
97743W        W66117   1.308   2.305   3.824
97744W        W66118  21.096  28.518  13.844
97745W        W66119  16.307  31.970   1.443
97746W        W66120  21.142   7.298  13.033
97747W        W66121  23.043  44.464   3.260
97748W        W66122  16.151   4.300   0.968
97749W        W66123   4.720  43.987  10.522
97750W        W66124   6.276  15.728   3.172
97751W        W66125   7.817   5.900   4.838
97752W        W66126  26.479  24.070   3.263
97753W        W66127   4.258  41.809   2.715
97754W        W66128  20.115  12.785  10.907
97755W        W66129  28.486  32.393   1.214
97756W        W66130  31.598  11.785  14.791
97757W        W66131  41.492  39.030  13.325
97758W        W66132  28.471  12.128  10.469
97759W        W66133   5.244  21.538   2.241
97760W        W66134  34.073  42.018  12.379
97761W        W66135   5.766   1.945   4.785
97762W        W66136  23.100  15.262  13.333
97763W        W66137  27.085  30.485  12.027
97764W        W66138  14.606  42.483  13.942
97765W        W66139  14.610  23.237   3.758
97766W        W66140  44.356   0.988  14.333
97767W        W66141   7.379  28.075   5.114
97768W        W66142  38.948  35.939   3.196
97769W        W66143  38.538  16.635   1.218
97770W        W66144  28.066  10.322   1.838
97771W        W66145  11.631  17.701   3.679
97772W        W66146  12.217   5.215   4.800
97773W        W66147  22.708  33.527   1.271
97774W        W66148  15.320   4.833  12.396
97775W        W66149  29.069  40.865   3.261
97776W        W66150  38.977  11.370  14.932
97777W        W66151  20.086  37.017  11.937
97778W        W66152   4.937   9.386  12.346
97779W        W66153  17.749  41.973   2.380
97780W        W66154  43.342  26.562   1.856
97781W        W66155  29.047  35.922  13.021
97782W        W66156  15.590   6.844   2.683
97783W        W66157  35.543  30.653  10.548
97784W        W66158  16.659  11.155  13.881
97785W        W66159  38.072   4.909  11.916
97786W        W66160   4.268  31.493   3.766
97787W        W66161  36.369   6.265   0.415
97788W        W66162   2.391  24.202   0.370
97789W        W66163  26.460  41.362  11.518
97790W        W66164   7.780  18.702   2.753
97791W        W66165   2.375  26.673  11.453
97792W        W66166  36.841  32.480   0.762
97793W        W66167   6.917   7.301   3.723
97794W        W66168  10.701  13.105   0.394
97795W        W66169  30.458   6.885  12.353
97796W        W66170   9.256   6.273   1.394
97797W        W66171  33.599  32.974  12.365
97798W        W66172  24.559   2.258  12.410
97799W        W66173  23.630  40.427  14.869
97800W        W66174   1.773  44.358   3.304
97801W        W66175  17.219  20.054   1.298
97802W        W66176  27.588  12.298   4.237
97803W        W66177   3.326  42.868   2.200
97804W        W66178  12.755  34.065   0.964
97805W        W66179  38.013   7.382   0.444
97806W        W66180  20.109  43.990  13.433
97807W        W66181  28.668  28.073   2.206
97808W        W66182  14.592  30.987   0.835
97809W        W66183  19.723  17.625  13.341
97810W        W66184  23.111   8.690   3.798
97811W        W66185  14.217  15.129  10.491
97812W        W66186  14.141   9.216  11.501
97813W        W66187  40.011  20.271  11.383
97814W        W66188  27.500  12.772   3.186
97815W        W66189   1.290  20.252  10.924
97816W        W66190   5.276  23.006  14.296
97817W        W66191  31.536   1.866   2.726
97818W        W66192  24.091  12.246   2.813
97819W        W66193  17.132  36.856   1.801
97820W        W66194  14.134  23.994  11.585
97821W        W66195  41.021   0.752  14.945
97822W        W66196  34.009  42.512   4.232
97823W        W66197  37.868  13.279   2.319
97824W        W66198  15.819  24.588  14.449
97825W        W66199  32.539   3.312   3.215
97826W        W66200  40.898  26.613   0.284
97827W        W66201  37.429  36.474   0.368
97828W        W66202   1.948  17.766  14.988
97829W        W66203  17.066  10.742  13.998
97830W        W66204  26.669   3.740  12.454
97831W        W66205  21.201   7.854  14.455
97832W        W66206  14.237  43.984  13.357
97833W        W66207  24.205   8.337  10.899
97834W        W66208  25.649  21.244  11.027
97835W        W66209   7.324   7.707   4.638
97836W        W66210   8.679  11.160   0.258
97837W        W66211   6.842  29.928   0.408
97838W        W66212  30.921  20.070   0.258
97839W        W66213  29.512  40.016  14.482
97840W        W66214  14.128   2.808   4.626
97841W        W66215  31.969  18.084  13.433
97842W        W66216  44.826  21.035   0.266
97843W        W66217   2.898  13.662  12.825
97844W        W66218   7.416  43.861  14.919
97845W        W66219   5.322  18.691  10.618
97846W        W66220   7.703  27.476   4.689
97847W        W66221  25.014  18.212  10.919
97848W        W66222  35.537  23.611  14.978
97849W        W66223  40.458  29.133   0.412
97850W        W66224  22.115  11.656   3.776
97851W        W66225  31.530  31.052  11.946
97852W        W66226   7.726  43.896   1.311
97853W        W66227   5.791   6.688   3.167
97854W        W66228   2.861  35.978   1.437
97855W        W66229  16.781  40.449  14.513
97856W        W66230  37.562  11.727   1.235
97857W        W66231  43.367  19.548   4.202
97858W        W66232  23.535  32.396  10.149
97859W        W66233   7.736   0.249   3.264
97860W        W66234  18.157  27.036   1.269
97861W        W66235   4.854  30.506   1.870
97862W        W66236   1.259  29.506  13.877
97863W        W66237  13.340  18.595   4.619
97864W        W66238  25.597  32.952  11.989
97865W        W66239  21.208  18.584   3.659
97866W        W66240  20.681   3.322   1.785
97867W        W66241  23.549  32.892  11.040
97868W        W66242  41.331  31.101   2.727
97869W        W66243  15.666  34.119  11.506
97870W        W66244   6.189  40.420  10.478
97871W        W66245  33.896  18.662  14.963
97872W        W66246  19.204  21.197   1.893
97873W        W66247  36.406   2.423   3.306
97874W        W66248  40.933   1.824  14.483
97875W        W66249  23.128  34.044  10.478
97876W        W66250   2.871  13.656  12.560
97877W        W66251   9.756  10.269  12.855
97878W        W66252  18.617  36.003  14.955
97879W        W66253  11.267  15.198  10.898
97880W        W66254  25.005  19.685   1.932
97881W        W66255  38.840   1.278   4.202
97882W        W66256  12.632   0.982   1.299
97883W        W66257  29.663  44.879   5.279
97884W        W66258  13.283  20.549   1.428
97885W        W66259   2.347   6.909  11.510
97886W        W66260  16.188  39.937   0.728
97887W        W66261  33.508   1.832  11.495
97888W        W66262  13.744   6.391  13.424
97889W        W66263  44.421   1.310  10.904
97890W        W66264  37.346  32.919   0.800
97891W        W66265  12.792  18.573   0.938
97892W        W66266  15.700   9.258   1.737
97893W        W66267  23.016  41.408  12.529
97894W        W66268  11.672  11.744   0.280
97895W        W66269  28.580  32.011  12.063
97896W        W66270   3.800   7.688  14.288
97897W        W66271  37.447  36.382   4.711
97898W        W66272  11.334  32.141  13.417
97899W        W66273   5.750  18.119  10.543
97900W        W66274  32.439  28.458  11.569
97901W        W66275  21.686  34.410  11.939
97902W        W66276  32.126  10.292   5.181
97903W        W66277  39.455  37.893  11.902
97904W        W66278  20.622  24.478  13.848
97905W        W66279   1.249  32.498   4.314
97906W        W66280   6.230  42.362  13.387
97907W        W66281  34.393  28.605  11.951
97908W        W66282   5.799  26.068  10.095
97909W        W66283  22.586  39.444  13.526
97910W        W66284  15.680  20.631   3.224
97911W        W66285  21.669  44.423   0.825
97912W        W66286  25.548  30.612   5.256
97913W        W66287   6.324  21.082  10.570
97914W        W66288  15.808  30.013   4.264
97915W        W66289  17.124  16.646   4.341
97916W        W66290  44.771   1.890   1.436
97917W        W66291  17.278  43.323   4.265
97918W        W66292  38.881   1.793   1.222
97919W        W66293  44.792  42.787  10.513
97920W        W66294  28.081  33.002  11.074
97921W        W66295   1.275  40.022   3.738
97922W        W66296  17.696  33.885  10.981
97923W        W66297  22.032  44.993  13.796
97924W        W66298  39.419  18.624  12.068
97925W        W66299  11.349   7.798  10.977
97926W        W66300  21.640  24.011  13.317
97927W        W66301  29.927  37.362  12.921
97928W        W66302  20.241  39.556  13.808
97929W        W66303  22.704  19.255  14.436
97930W        W66304   8.740   4.783  14.877
97931W        W66305  38.518  31.084  11.927
97932W        W66306  26.077  40.372  10.934
97933W        W66307  41.392  21.728   3.155
97934W        W66308  34.071  29.922  11.961
97935W        W66309  32.923   9.306   4.749
97936W        W66310   6.427  25.983  10.112
97937W        W66311  14.785  35.451  10.632
97938W        W66312   0.438  35.993   0.316
97939W        W66313  17.734  29.485  12.960
97940W        W66314  21.112  24.604   0.306
97941W        W66315  43.516   0.812  10.477
97942W        W66316  30.585  22.669  12.388
97943W        W66317   3.305  30.421  14.929
97944W        W66318  37.543  23.665   4.281
97945W        W66319  35.893  41.923  11.878
97946W        W66320  13.105  25.513   4.215
97947W        W66321   8.178  19.685   4.172
97948W        W66322   3.435  29.125  10.965
97949W        W66323  23.140  28.621   0.806
97950W        W66324  36.885   6.895  11.999
97951W        W66325  44.405   4.392   0.743
97952W        W66326  24.511  36.911  14.512
97953W        W66327  29.456  39.035   2.192
97954W        W66328   1.363  19.089   4.184
97955W        W66329  35.596  31.944   5.134
97956W        W66330  20.239  19.677  12.380
97957W        W66331  40.416  34.374   3.310
97958W        W66332  35.081  31.899   0.259
97959W        W66333  18.773  25.963  10.902
97960W        W66334  19.133   7.783   3.799
97961W        W66335  31.529  31.436  14.423
97962W        W66336  37.580  40.052   1.845
97963W        W66337   2.763  35.083   3.374
97964W        W66338   8.774  38.512  10.152
97965W        W66339  33.988  25.597  14.396
97966W        W66340  26.077  33.089   4.173
97967W        W66341   1.866  32.897  14.025
97968W        W66342  36.470   4.884  10.934
97969W        W66343  20.758  35.874   0.937
97970W        W66344   5.865  23.522  11.464
97971W        W66345  41.439  15.747   3.698
97972W        W66346  15.701   3.323   2.707
97973W        W66347   4.361  31.453  13.517
97974W        W66348   1.279  43.870  10.469
97975W        W66349  32.412   2.445  14.948
97976W        W66350  37.532  44.802   0.436
97977W        W66351  37.457   0.257  10.611
97978W        W66352  11.262  26.963  12.028
97979W        W66353  13.113  30.979   2.676
97980W        W66354   3.407  17.733  14.922
97981W        W66355  12.641  44.276  12.902
97982W        W66356   6.847  38.074   4.624
97983W        W66357  27.530  24.049  13.980
97984W        W66358   3.782  21.132  12.352
97985W        W66359   8.179  21.724  10.004
97986W        W66360  10.804  40.405   1.819
97987W        W66361  33.455  25.973   0.866
97988W        W66362  29.058  36.586  13.454
97989W        W66363  28.184  24.132  14.769
97990W        W66364  11.637  34.877   1.350
97991W        W66365  10.144  30.473  11.429
97992W        W66366  43.900  37.924   3.378
97993W        W66367  37.889  42.298  12.830
97994W        W66368  14.647  25.160  12.548
97995W        W66369   8.271  21.738   1.395
97996W        W66370  35.472  20.158   4.342
97997W        W66371  15.691  12.790  10.152
97998W        W66372  44.339  38.517   2.226
97999W        W66373  24.046  13.662  12.903
98000W        W66374   1.928  44.454  12.557
98001W        W66375  18.665   0.820   3.640
98002W        W66376   1.760  24.705  11.861
98003W        W66377  12.302  26.603  12.033
98004W        W66378  27.558  34.552   1.697
98005W        W66379  11.855  19.184   2.397
98006W        W66380  31.492  36.371   2.196
98007W        W66381  31.002  41.507  10.515
98008W        W66382  19.678  32.997  13.840
98009W        W66383  18.721   9.307  14.400
98010W        W66384  35.460   1.315   3.792
98011W        W66385  25.127  44.380   1.863
98012W        W66386  44.780  40.531   2.776
98013W        W66387  32.045  24.594  10.495
98014W        W66388  29.426  15.817  14.862
98015W        W66389  22.566   3.411  10.521
98016W        W66390  43.309  37.974   1.430
98017W        W66391  38.527  22.216  11.087
98018W        W66392   8.187  33.582  14.490
98019W        W66393   2.878  35.489   3.852
98020W        W66394  41.835   9.790  13.494
98021W        W66395   4.332  26.606   0.953
98022W        W66396   8.753  12.780  13.052
98023W        W66397  25.668  26.028  13.887
98024W        W66398  11.310  31.561   3.202
98025W        W66399  30.512  20.030   2.729
98026W        W66400   3.764  33.895  12.995
98027W        W66401   5.419   7.784  12.096
98028W        W66402  26.018  18.786   1.417
98029W        W66403  29.925   3.313   2.256
98030W        W66404   0.268  13.127  14.491
98031W        W66405  21.594  38.861   2.863
98032W        W66406  23.178   9.173   2.418
98033W        W66407  39.964  13.754  11.407
98034W        W66408   0.912  10.220   2.841
98035W        W66409   2.952  25.192   1.325
98036W        W66410  13.674  24.209   4.717
98037W        W66411  11.622  26.537   4.606
98038W        W66412  15.684  43.327  14.806
98039W        W66413  28.527  11.815  11.095
98040W        W66414  33.950  40.958  13.807
98041W        W66415  32.575  44.766   4.815
98042W        W66416  34.931  29.637   4.602
98043W        W66417   1.452  16.256   3.156
98044W        W66418  33.011  33.431   0.751
98045W        W66419  15.186   6.684   1.694
98046W        W66420  31.435  19.157   0.421
98047W        W66421  39.029  29.600  12.061
98048W        W66422  42.453   3.830  12.573
98049W        W66423  23.082  17.679   3.755
98050W        W66424  28.099  27.605  14.021
98051W        W66425  36.579   8.289   3.841
98052W        W66426  38.520  28.004  12.926
98053W        W66427   4.220  26.967   3.748
98054W        W66428  21.044  17.764   4.703
98055W        W66429   7.794  26.484   1.451
98056W        W66430  37.541  25.604   2.319
98057W        W66431  10.242  11.299   2.385
98058W        W66432  10.273  24.506   0.393
98059W        W66433  25.480   8.669   2.759
98060W        W66434  36.039  31.988   2.217
98061W        W66435  22.621  17.672  14.366
98062W        W66436  27.615  26.021  11.446
98063W        W66437  41.330  26.013  14.981
98064W        W66438   7.277  22.697   4.677
98065W        W66439   8.238  27.127  14.462
98066W        W66440   7.822  30.416  11.889
98067W        W66441  14.778   1.977   1.370
98068W        W66442  28.570  21.250  13.963
98069W        W66443  19.078  26.668  12.358
98070W        W66444  40.487   7.236   1.220
98071W        W66445   9.717  15.594   1.701
98072W        W66446  43.964  23.616   2.683
98073W        W66447  29.086   3.269  11.520
98074W        W66448  24.202  37.975  13.332
98075W        W66449   6.239   5.704  13.838
98076W        W66450  19.106  36.007  13.871
98077W        W66451  43.925  34.012   2.277
98078W        W66452   4.257  21.090  13.907
98079W        W66453  20.755  10.672   4.819
98080W        W66454  15.757  33.981   0.435
98081W        W66455   1.961  18.115  13.862
98082W        W66456  27.689  19.714  14.504
98083W        W66457  15.237  12.119  12.493
98084W        W66458  38.925  33.510  11.565
98085W        W66459  32.956   2.327   0.873
98086W        W66460  30.122  38.882   0.769
98087W        W66461  10.668  20.146   1.734
98088W        W66462  31.078  29.092   1.409
98089W        W66463  23.115  36.994   1.788
98090W        W66464  32.971   1.361  13.426
98091W        W66465  14.719  28.558  11.982
98092W        W66466  27.447  33.467   1.295
98093W        W66467   3.828  27.667  12.392
98094W        W66468  31.043  14.153  12.375
98095W        W66469  33.992  26.951   0.469
98096W        W66470  34.958  12.834  10.112
98097W        W66471  24.713   6.776  11.373
98098W        W66472  30.001  13.764  12.454
98099W        W66473   3.431  42.352  14.841
98100W        W66474  26.466  28.076   5.242
98101W        W66475  16.731  10.756  11.403
98102W        W66476   5.851  27.987   4.300
98103W        W66477  42.778  27.525   4.655
98104W        W66478  22.011   0.334   0.410
98105W        W66479  43.436  29.667  11.110
98106W        W66480  31.531  42.829   4.617
98107W        W66481  21.263  17.190  12.061
98108W        W66482  18.163  15.322   1.405
98109W        W66483   6.825  39.471   3.782
98110W        W66484  40.947  38.997   0.337
98111W        W66485  34.081   6.275   1.302
98112W        W66486  17.097  28.940  14.309
98113W        W66487  26.681  32.391  12.027
98114W        W66488  23.713   6.418  10.631
98115W        W66489   8.790  19.098   0.327
98116W        W66490  19.594  41.857   0.829
98117W        W66491  36.035  23.060   3.798
98118W        W66492  28.030   4.249  13.936
98119W        W66493  42.452   6.879  13.519
98120W        W66494  41.375  20.642   1.914
98121W        W66495  30.058  22.710  12.068
98122W        W66496  28.674  14.617   4.325
98123W        W66497  42.465  16.180   4.163
98124W        W66498  20.758  28.143   0.378
98125W        W66499   9.854  22.098   3.178
98126W        W66500   3.356  27.162  14.852
98127W        W66501  28.134  27.170  13.859
98128W        W66502  23.042  39.357   3.747
98129W        W66503   6.334  21.085   5.282
98130W        W66504  35.929  36.919  14.927
98131W        W66505  15.755  12.292   4.201
98132W        W66506   4.907  44.878  12.970
98133W        W66507  13.137   3.851   2.368
98134W        W66508  29.022  21.523   4.135
98135W        W66509  39.462  10.150   3.191
98136W        W66510  21.045  29.170   0.262
98137W        W66511  16.737  40.397  10.640
98138W        W66512  41.951  31.558   2.381
98139W        W66513  19.064  33.110  14.913
98140W        W66514  23.129  16.119  14.386
98141W        W66515   3.924  37.879  12.420
98142W        W66516  44.403  34.390   3.772
98143W        W66517  17.172   5.318   1.723
98144W        W66518  29.460  32.106  14.322
98145W        W66519  20.575   5.922   1.275
98146W        W66520  14.137  12.698   1.347
98147W        W66521  12.127  28.115  13.381
98148W        W66522  16.145  44.291   4.344
98149W        W66523  19.220  35.066   3.213
98150W        W66524  21.070  10.663  13.878
98151W        W66525  13.278  24.140   3.313
98152W        W66526  34.935  21.135   4.830
98153W        W66527  31.592   8.220   2.285
98154W        W66528  26.699  27.493  10.635
98155W        W66529  24.055  41.832  10.561
98156W        W66530  19.596  24.118   3.265
98157W        W66531   9.341  13.233  14.499
98158W        W66532  26.481  41.398   4.187
98159W        W66533  23.015  17.119   3.760
98160W        W66534   6.831  41.380   4.156
98161W        W66535  21.194  21.550   4.824
98162W        W66536  43.407  20.229  12.542
98163W        W66537  26.987  35.519   0.274
98164W        W66538  30.956  37.391  13.347
98165W        W66539   7.777  12.265   0.409
98166W        W66540   3.453  29.431   3.297
98167W        W66541   7.359  35.515   0.293
98168W        W66542  32.889  26.642   3.367
98169W        W66543   3.305  35.458   3.280
98170W        W66544  12.688  29.162  12.470
98171W        W66545  25.607   5.716  14.361
98172W        W66546  29.670  43.964   5.178
98173W        W66547  43.386   4.702   2.719
98174W        W66548   2.790   6.857   4.348
98175W        W66549  34.392  15.094   0.431
98176W        W66550  25.066  41.398   1.828
98177W        W66551   8.805  29.069   1.229
98178W        W66552  42.359  12.286   4.821
98179W        W66553  36.410  36.435   0.271
98180W        W66554  39.019  43.942  14.279
98181W        W66555   9.183   2.733  13.029
98182W        W66556  19.725  25.120   2.852
98183W        W66557  17.557   4.705  12.560
98184W        W66558  26.609   6.249  13.442
98185W        W66559  28.469   1.959   2.707
98186W        W66560  16.569  31.039   3.145
98187W        W66561  24.718  25.035  13.834
98188W        W66562  18.149   7.223  12.030
98189W        W66563  25.071  39.510   2.850
98190W        W66564  36.075   9.736  14.955
98191W        W66565  37.413   6.855  10.112
98192W        W66566  32.454  40.399   0.889
98193W        W66567  19.195  13.785  11.032
98194W        W66568  35.434  35.938   3.810
98195W        W66569   9.717  38.834   4.204
98196W        W66570  36.554   1.412   2.349
98197W        W66571  39.496  35.909   3.222
98198W        W66572  34.079  12.780  10.586
98199W        W66573  21.715   9.246   3.213
98200W        W66574   1.333  27.482  12.525
98201W        W66575  31.941  12.749  11.936
98202W        W66576  40.941  26.549  11.899
98203W        W66577  33.069  14.597  11.894
98204W        W66578  30.652  27.015  13.906
98205W        W66579  22.573  22.686  13.940
98206W        W66580  33.444  27.682   2.892
98207W        W66581  38.468  32.045   2.222
98208W        W66582   9.726   7.248   0.395
98209W        W66583  17.748  36.577  14.931
98210W        W66584   9.787   3.885  11.976
98211W        W66585   8.226  34.024  14.975
98212W        W66586  43.823   9.199  14.004
98213W        W66587  35.946  32.635   5.208
98214W        W66588  11.133  27.507  14.951
98215W        W66589  10.714  35.586   4.736
98216W        W66590  16.683  37.840   0.256
98217W        W66591   3.434   9.649   2.265
98218W        W66592  22.501  16.261  12.416
98219W        W66593  40.320  21.257   5.210
98220W        W66594   5.925  13.209   2.764
98221W        W66595  21.737  25.697   4.761
98222W        W66596   3.779  20.146  10.941
98223W        W66597   5.843  27.618   2.355
98224W        W66598   2.309   4.263  11.014
98225W        W66599  12.735  24.573   0.965
98226W        W66600  10.848   7.759  14.852
98227W        W66601  26.075  13.328   1.697
98228W        W66602  12.236  36.489  10.955
98229W        W66603  33.615  42.416  13.854
98230W        W66604  27.946  16.708  10.552
98231W        W66605  17.573  42.944  13.997
98232W        W66606  34.874  39.999   2.286
98233W        W66607   3.247  27.196   3.322
98234W        W66608  40.845  33.401  13.535
98235W        W66609  39.525   7.696  13.348
98236W        W66610  32.024  20.209  14.026
98237W        W66611   4.889  44.817   4.625
98238W        W66612  11.713  12.152  12.563
98239W        W66613  40.358  10.822   4.767
98240W        W66614  19.148  16.259  13.466
98241W        W66615  10.852  39.349  10.498
98242W        W66616   5.248  40.547  12.576
98243W        W66617   7.280  23.676  14.959
98244W        W66618  20.580  36.561   2.401
98245W        W66619  21.668   9.676   3.375
98246W        W66620  44.458  34.479   4.777
98247W        W66621   8.703  40.010   1.860
98248W        W66622  30.919  31.409  11.068
98249W        W66623   2.862  22.669  11.013
98250W        W66624  14.319   9.179  13.803
98251W        W66625  35.578  15.137   4.675
98252W        W66626  25.190  36.892   2.332
98253W        W66627  36.459  30.431  13.417
98254W        W66628  20.155   9.285   0.250
98255W        W66629  38.943  22.099   2.209
98256W        W66630  25.531   1.881  13.826
98257W        W66631  38.948  10.718  10.503
98258W        W66632  29.991  40.874  11.511
98259W        W66633  40.433  38.849   4.779
98260W        W66634   5.436  34.416   1.772
98261W        W66635  34.512   8.305   4.340
98262W        W66636   0.456   1.373  11.463
98263W        W66637  26.481   2.853   3.638
98264W        W66638  39.983  22.528  12.556
98265W        W66639  15.304  12.744  14.501
98266W        W66640  19.540  34.548   1.823
98267W        W66641   4.350  23.583   2.776
98268W        W66642  12.304  13.297   4.293
98269W        W66643   3.915  43.982  11.938
98270W        W66644  44.404  34.605   2.220
98271W        W66645  30.963  39.461  14.848
98272W        W66646  22.591  41.933   4.788
98273W        W66647   5.839  21.252   2.835
98274W        W66648  12.347   8.861  11.114
98275W        W66649   9.656   6.332   4.344
98276W        W66650   8.299  32.066   3.870
98277W        W66651  19.239  38.851   3.793
98278W        W66652  23.647   9.876  12.043
98279W        W66653  13.838   1.868   3.348
98280W        W66654  32.397  23.501  14.369
98281W        W66655   9.240  37.955   1.285
98282W        W66656   1.947  43.821  11.886
98283W        W66657  19.163   1.737  13.545
98284W        W66658  26.589   3.881  10.451
98285W        W66659  13.776  43.367  13.025
98286W        W66660  27.061  39.860  13.008
98287W        W66661  30.494   1.812   1.222
98288W        W66662  20.235  19.600   4.338
98289W        W66663  35.500  32.453  10.433
98290W        W66664  20.694  10.184   9.923
98291W        W66665  17.147  35.919  14.009
98292W        W66666  37.072  32.461   4.116
98293W        W66667  36.536   7.808   2.203
98294W        W66668  19.550  22.031   0.350
98295W        W66669  12.263  16.253   2.361
98296W        W66670  30.911   2.331   1.407
98297W        W66671   0.464  41.416   0.879
98298W        W66672  39.434  34.050  12.977
98299W        W66673   8.323  11.203   2.696
98300W        W66674  42.320  23.519   1.911
98301W        W66675   7.863  20.058  11.856
98302W        W66676  13.650  32.094   4.327
98303W        W66677   7.902   5.844   3.152
98304W        W66678  18.130  20.630   2.766
98305W        W66679  12.835   2.239   1.317
98306W        W66680  19.204  13.263   0.481
98307W        W66681  28.462  19.264   2.721
98308W        W66682  32.093  15.114  11.592
98309W        W66683   5.719  12.821   1.925
98310W        W66684  30.127  22.229  14.812
98311W        W66685   1.772  14.151   4.702
98312W        W66686   5.699  25.470  11.923
98313W        W66687  20.083  13.752   3.331
98314W        W66688  19.685  33.109   0.410
98315W        W66689  25.057   6.802   3.317
98316W        W66690  12.838  38.851   3.644
98317W        W66691  20.598  15.753  10.531
98318W        W66692  19.606  26.603   3.838
98319W        W66693  26.469  34.052  14.952
98320W        W66694  28.072   8.327   0.466
98321W        W66695   8.716   7.185  12.075
98322W        W66696  13.120  11.319   2.185
98323W        W66697  24.678  16.173  14.446
98324W        W66698  33.116   9.845  13.473
98325W        W66699   9.735  16.576  13.412
98326W        W66700  41.470  42.849  10.596
98327W        W66701   2.824   6.698   0.460
98328W        W66702  22.529  27.064   1.330
98329W        W66703  26.601  32.629   0.940
98330W        W66704  32.573   2.748   3.319
98331W        W66705  33.522  41.345  13.361
98332W        W66706   7.815  43.821   3.661
98333W        W66707  37.528   3.440   0.888
98334W        W66708   3.266  26.153   1.335
98335W        W66709   7.367   1.466  13.851
98336W        W66710  15.776  16.810   0.357
98337W        W66711   4.862  34.024   2.390
98338W        W66712  26.973  12.631  10.421
98339W        W66713  31.614  14.757  11.475
98340W        W66714  42.342  22.622   3.334
98341W        W66715  11.711  25.037   0.729
98342W        W66716  29.481  16.099  13.452
98343W        W66717  35.369  29.998  12.973
98344W        W66718  36.897  33.877   1.217
98345W        W66719   7.392  34.468  12.866
98346W        W66720  11.302  21.694  11.046
98347W        W66721  11.712  25.146   4.218
98348W        W66722  24.227  19.151   0.788
98349W        W66723  23.633   7.204  13.410
98350W        W66724   8.876  23.626   2.261
98351W        W66725  14.597  35.074   2.781
98352W        W66726  43.318  33.535  13.489
98353W        W66727  40.803  23.067  14.951
98354W        W66728  19.244  35.106  10.446
98355W        W66729  10.637  37.910  11.457
98356W        W66730   3.921  22.734  10.954
98357W        W66731  21.720  39.356   2.280
98358W        W66732  15.672  14.194   0.854
98359W        W66733  21.588  13.214  14.288
98360W        W66734   0.988   0.319  12.533
98361W        W66735  18.251  29.604   4.310
98362W        W66736  14.279  40.483   2.187
98363W        W66737  33.110   9.788  11.591
98364W        W66738  38.973  13.786   2.871
98365W        W66739  12.262  43.851  12.033
98366W        W66740  27.077  15.704  10.474
98367W        W66741  39.810  39.420  11.909
98368W        W66742  29.610  44.321  13.874
98369W        W66743  12.737  27.581   1.354
98370W        W66744  28.108  34.080  12.531
98371W        W66745   5.728  10.878   0.930
98372W        W66746  35.923  38.017   0.743
98373W        W66747  28.136  26.613  13.835
98374W        W66748  38.954   6.717   5.602
98375W        W66749  12.743  21.149   1.888
98376W        W66750  18.288  16.226  11.989
98377W        W66751  22.583   8.308  13.860
98378W        W66752  31.535  11.775  13.436
98379W        W66753  16.078  29.474   1.369
98380W        W66754  19.139  39.400   0.253
98381W        W66755   6.259  12.760  13.345
98382W        W66756  32.448   0.914  14.804
98383W        W66757  12.634  23.084  14.813
98384W        W66758  41.872  24.201  13.026
98385W        W66759  42.494  35.982   4.214
98386W        W66760  44.260   8.876   1.880
98387W        W66761  20.531  28.107  12.526
98388W        W66762  14.211  28.607   3.290
98389W        W66763   0.447   3.955  13.921
98390W        W66764  23.110  28.018   0.767
98391W        W66765  30.010   6.221   1.869
98392W        W66766  34.439  19.700  13.817
98393W        W66767   7.257  12.282   3.288
98394W        W66768  12.239  32.890  13.988
98395W        W66769   6.790   9.887  12.870
98396W        W66770  43.497  19.177   1.718
98397W        W66771  24.167  28.937   5.322
98398W        W66772  40.398  30.935  14.442
98399W        W66773   1.742  33.935   1.721
98400W        W66774  15.634  19.101  10.613
98401W        W66775  20.057  31.117  12.464
98402W        W66776  15.123  40.342  12.528
98403W        W66777  27.536  38.987   3.770
98404W        W66778  22.168  40.023   1.898
98405W        W66779  14.272  27.507   3.852
98406W        W66780  13.711  36.563  11.031
98407W        W66781   2.451  21.242   0.945
98408W        W66782  34.950  43.396  11.069
98409W        W66783   9.162   4.297  14.505
98410W        W66784   5.758   1.958  14.938
98411W        W66785  26.078   4.921   2.190
98412W        W66786  39.405  19.041   4.335
98413W        W66787  17.591  28.169   1.236
98414W        W66788  33.575  31.641  12.477
98415W        W66789  10.770  32.517   2.788
98416W        W66790  42.463  37.054  11.862
98417W        W66791  18.247  33.901   2.214
98418W        W66792  15.678  14.238   0.319
98419W        W66793  35.566  18.597   4.771
98420W        W66794  21.089  18.626   1.379
98421W        W66795  40.361   4.339   1.227
98422W        W66796  30.459  16.589   1.896
98423W        W66797  13.635  15.106   3.257
98424W        W66798  26.647  12.173   0.484
98425W        W66799  44.778  12.806  12.027
98426W        W66800   3.233   4.330  11.043
98427W        W66801  28.588  14.134   3.189
98428W        W66802  39.452  14.645   3.176
98429W        W66803  13.681  33.465  12.943
98430W        W66804   2.297  10.872  14.806
98431W        W66805  25.142   9.157  13.005
98432W        W66806  17.598  22.045   4.253
98433W        W66807  18.752  28.472   1.745
98434W        W66808  43.401  43.915  11.413
98435W        W66809  16.242   7.320  11.954
98436W        W66810  28.476  43.276  10.961
98437W        W66811  14.112  28.468  12.471
98438W        W66812  42.904  39.539  11.473
98439W        W66813  25.163  26.591  14.348
98440W        W66814  22.021  33.969   3.685
98441W        W66815   6.365  23.083  11.007
98442W        W66816  23.669  42.018   1.878
98443W        W66817  22.027   2.289   1.374
98444W        W66818   8.311  35.009  14.022
98445W        W66819  16.734  12.614  14.959
98446W        W66820   7.759   0.860   1.251
98447W        W66821  30.434  27.634  13.401
98448W        W66822  30.456   1.322  13.952
98449W        W66823  31.087  11.816   2.294
98450W        W66824  23.086  28.476  12.056
98451W        W66825   7.701   7.882   2.214
98452W        W66826   3.856  38.561   4.731
98453W        W66827  18.746  42.814   4.265
98454W        W66828  17.153  10.235  14.483
98455W        W66829  39.995  19.042   0.904
98456W        W66830   7.316  40.980   3.178
98457W        W66831  37.370  30.009  13.521
98458W        W66832   0.332  14.784   0.358
98459W        W66833  34.110   0.308   3.867
98460W        W66834  23.719   6.741  11.929
98461W        W66835   6.707  27.188   1.426
98462W        W66836  30.524  13.828  10.492
98463W        W66837   1.270  43.787  12.878
98464W        W66838  40.852   3.236  12.952
98465W        W66839  20.103  22.717  10.043
98466W        W66840  29.432  33.888  14.322
98467W        W66841  26.590  22.197  13.026
98468W        W66842   7.862   4.254  14.025
98469W        W66843   8.675  16.138  13.374
98470W        W66844   2.946   2.754   3.674
98471W        W66845  16.616  39.348   1.864
98472W        W66846  28.611   2.914  11.947
98473W        W66847  14.620  30.596   3.340
98474W        W66848   7.196  42.519  12.983
98475W        W66849  44.912  17.267  14.949
98476W        W66850   2.722   5.254  11.568
98477W        W66851  13.139   3.329   2.682
98478W        W66852   6.707  13.802  13.352
98479W        W66853  20.184  32.115  10.511
98480W        W66854   6.746  41.014   1.886
98481W        W66855   9.876  35.995   0.333
98482W        W66856  11.180   2.959  10.444
98483W        W66857   3.296  28.174   0.923
98484W        W66858  20.646  24.042   1.289
98485W        W66859  23.535  44.753  10.949
98486W        W66860   0.481  32.036  14.012
98487W        W66861   3.231  10.156   4.808
98488W        W66862  23.541   8.307  14.390
98489W        W66863  15.780  33.076  10.622
98490W        W66864  16.768  34.456   2.807
98491W        W66865  43.018   4.371  14.289
98492W        W66866  18.117  36.527   2.827
98493W        W66867  29.972   6.709  11.441
98494W        W66868  28.993  20.753  10.473
98495W        W66869  29.496  40.367  10.028
98496W        W66870  33.411  44.890  13.513
98497W        W66871   5.398   8.278   1.835
98498W        W66872  31.152  15.635  10.467
98499W        W66873  29.974  28.145  14.863
98500W        W66874  23.071  34.075   2.331
98501W        W66875   2.905   9.159  14.390
98502W        W66876  37.476   0.428  13.885
98503W        W66877   1.319   3.900   1.905
98504W        W66878  17.771  26.025   0.927
98505W        W66879  34.950  29.961  13.350
98506W        W66880  20.597  43.508  14.011
98507W        W66881  24.128  38.972   0.247
98508W        W66882  30.007  34.979   4.162
98509W        W66883  14.684  44.882  13.915
98510W        W66884  15.235  42.783   1.286
98511W        W66885  34.067  11.668  13.833
98512W        W66886  35.090  14.689  11.074
98513W        W66887  35.426  16.632  11.059
98514W        W66888  39.954   5.412   0.446
98515W        W66889  20.090  41.306  12.965
98516W        W66890  21.563  15.105   1.264
98517W        W66891  20.033  32.060  10.102
98518W        W66892   3.882  31.069  13.474
98519W        W66893  13.190  33.988   4.224
98520W        W66894  11.627   7.881  12.975
98521W        W66895  25.535  20.179   4.794
98522W        W66896  21.598  21.041  12.500
98523W        W66897  43.395  43.893  11.961
98524W        W66898   6.820   2.876  10.068
98525W        W66899  41.491  34.085  14.957
98526W        W66900  33.417   2.467  14.501
98527W        W66901  35.434  33.509  10.511
98528W        W66902   7.726   3.418  14.967
98529W        W66903  20.036  31.412  12.459
98530W        W66904   6.696  42.015   1.916
98531W        W66905   9.799  27.466   3.635
98532W        W66906  22.641  10.298  12.904
98533W        W66907   8.386  44.773  14.478
98534W        W66908   9.685  14.229   4.263
98535W        W66909  22.135  15.098  13.022
98536W        W66910  39.998   9.203  10.914
98537W        W66911   2.789   5.219   3.367
98538W        W66912  25.138  14.639  13.050
98539W        W66913   1.453   1.385   2.316
98540W        W66914   2.878   2.351   1.260
98541W        W66915   9.856  28.654  10.432
98542W        W66916  25.588  23.503  13.912
98543W        W66917  26.091  26.580  13.522
98544W        W66918  23.667  13.706   2.333
98545W        W66919  34.992  39.005   0.944
98546W        W66920   5.921   2.889   2.310
98547W        W66921  25.981   6.292   3.279
98548W        W66922  35.408  22.682   3.304
98549W        W66923  29.104  22.675  12.830
98550W        W66924  33.443  20.699  13.454
98551W        W66925  35.897  33.129  14.934
98552W        W66926  39.343  29.028  10.941
98553W        W66927  41.531  34.034  13.324
98554W        W66928  14.210  20.635   1.869
98555W        W66929  33.989  43.300  11.556
98556W        W66930   1.424   3.331  11.940
98557W        W66931  16.583  35.559   1.788
98558W        W66932  26.465  39.828   1.296
98559W        W66933  19.076  26.522  11.127
98560W        W66934   6.221  20.152  11.391
98561W        W66935  17.224  18.681  12.984
98562W        W66936  10.845  12.265   0.822
98563W        W66937  40.391  29.979   2.770
98564W        W66938   6.916  41.913   4.278
98565W        W66939  22.117   0.763   0.290
98566W        W66940  19.764  24.491  11.890
98567W        W66941  37.554  41.420   1.706
98568W        W66942  44.975  23.099   2.828
98569W        W66943   5.784  24.986  13.971
98570W        W66944   6.241  39.864   2.751
98571W        W66945  15.698  10.200   4.829
98572W        W66946  18.083  14.335   3.314
98573W        W66947  30.637   2.360   0.827
98574W        W66948  13.724  42.959  11.099
98575W        W66949  20.065  28.954  12.350
98576W        W66950  41.017  36.537   0.321
98577W        W66951  39.468  17.217   0.817
98578W        W66952  22.040  38.852   0.474
98579W        W66953  32.119  32.521  13.949
98580W        W66954  21.525  39.380   2.718
98581W        W66955   3.395  38.070   4.168
98582W        W66956   8.319  23.069  11.071
98583W        W66957  15.099  42.935  13.958
98584W        W66958  18.582  42.306   1.450
98585W        W66959  37.439  40.994   4.350
98586W        W66960   4.345   1.252  14.834
98587W        W66961  42.946  29.460   4.771
98588W        W66962  18.052   4.878  10.957
98589W        W66963   1.400  19.062   2.860
98590W        W66964   3.826  10.293   3.850
98591W        W66965  14.172   8.721   3.336
98592W        W66966  11.244   9.868  13.018
98593W        W66967  15.206  41.364   3.352
98594W        W66968  24.489  30.433  14.498
98595W        W66969  44.864  10.243   0.447
98596W        W66970  38.381  32.041   3.279
98597W        W66971  15.597  25.616   2.700
98598W        W66972   8.300  10.201   2.826
98599W        W66973  33.122   8.784  11.416
98600W        W66974  30.610   7.753  15.000
98601W        W66975   1.933   1.322  12.856
98602W        W66976  42.779  14.278   4.634
98603W        W66977  42.882  35.870  13.331
98604W        W66978  41.822  41.888   0.726
98605W        W66979  18.168   5.878  11.592
98606W        W66980  12.802  21.574   0.897
98607W        W66981  33.507   4.274   0.297
98608W        W66982  43.918   8.801  12.982
98609W        W66983   4.711  19.641   5.112
98610W        W66984  42.308  20.217  14.884
98611W        W66985  11.205  41.437   1.851
98612W        W66986  10.738  29.426   1.861
98613W        W66987  34.991  44.948  13.445
98614W        W66988  31.153  30.100   1.367
98615W        W66989  12.811  15.620   3.300
98616W        W66990  28.495   0.401  10.960
98617W        W66991  17.683   0.957   1.302
98618W        W66992  41.405  23.628  12.346
98619W        W66993  34.875  39.947   1.373
98620W        W66994  26.024  30.951  10.596
98621W        W66995  26.589   3.720   2.208
98622W        W66996  23.697  32.451   2.848
98623W        W66997   5.733   5.896   4.252
98624W        W66998  12.229  10.331   0.887
98625W        W66999  44.350   5.777  14.817
98626W        W67000  14.276  31.633  14.409
98627W        W67001  34.595  16.595   3.186
98628W        W67002  13.767  39.864  10.440
98629W        W67003  25.209  17.756   1.435
98630W        W67004  33.974  16.602  14.899
98631W        W67005  39.007   7.856  13.792
98632W        W67006  14.825  25.001  11.531
98633W        W67007  44.421  32.075   4.753
98634W        W67008  38.943   6.716  14.387
98635W        W67009  24.095   8.756  11.950
98636W        W67010   0.484  32.891   1.261
98637W        W67011   9.698   0.863   4.315
98638W        W67012  16.302  11.724   3.784
98639W        W67013  26.124  33.572   0.416
98640W        W67014  13.818  24.128   3.256
98641W        W67015  39.421   0.336  13.950
98642W        W67016  38.466  43.969   3.266
98643W        W67017  37.554  21.227  13.010
98644W        W67018   3.361   7.366  12.444
98645W        W67019  28.933  23.233   4.270
98646W        W67020  32.976  15.174  14.360
98647W        W67021  23.159  28.464   9.994
98648W        W67022  25.542  39.377   2.379
98649W        W67023  13.678  28.478   1.275
98650W        W67024  38.859  37.345  13.018
98651W        W67025   1.897  17.575   1.352
98652W        W67026  13.795  22.119   2.729
98653W        W67027  42.492  28.012   3.763
98654W        W67028  10.283   3.729  10.944
98655W        W67029  22.027  27.509  10.566
98656W        W67030  19.244  21.134   2.312
98657W        W67031  31.412  24.213  14.407
98658W        W67032  24.201   6.349  11.602
98659W        W67033  31.552  17.633   2.285
98660W        W67034  35.053  21.080   3.347
98661W        W67035   3.765  39.523  13.444
98662W        W67036  42.012  42.376  13.833
98663W        W67037   4.308  40.437   1.450
98664W        W67038  16.742  31.091   2.694
98665W        W67039  13.253   7.415  11.403
98666W        W67040  11.820   1.737  13.812
98667W        W67041   7.274  11.130   0.958
98668W        W67042   2.375  11.158   3.743
98669W        W67043  37.455  20.044   4.162
98670W        W67044  19.049  36.553   2.326
98671W        W67045  24.021  28.042  12.399
98672W        W67046  15.183  35.569   3.352
98673W        W67047  38.038  15.749  12.473
98674W        W67048  27.023  30.475   2.761
98675W        W67049  34.883   0.403   3.864
98676W        W67050  35.991  30.465   1.704
98677W        W67051  12.214  19.762   1.252
98678W        W67052  43.350  33.032   0.742
98679W        W67053  34.938   5.876   1.898
98680W        W67054   8.896  10.223  14.803
98681W        W67055  15.663  27.521   2.862
98682W        W67056  14.132  35.595  11.899
98683W        W67057  39.465  21.213   2.879
98684W        W67058  26.181  16.590   0.854
98685W        W67059  32.545   7.836   4.337
98686W        W67060   6.322   0.888   3.260
98687W        W67061   7.293  15.148  11.869
98688W        W67062  36.365  11.744   4.141
98689W        W67063   1.801  28.975  10.466
98690W        W67064   8.322  23.020  13.337
98691W        W67065  40.938  17.071   0.298
98692W        W67066  38.976   9.288   1.755
98693W        W67067   1.963  33.078   3.836
98694W        W67068  19.585  36.968   4.730
98695W        W67069   5.714  23.232   0.406
98696W        W67070   7.825  36.007   0.924
98697W        W67071  22.500   7.276  12.501
98698W        W67072  30.623   3.910  13.346
98699W        W67073  30.148  33.993   4.167
98700W        W67074  15.159  12.717   2.211
98701W        W67075  14.647  24.571   2.199
98702W        W67076  22.523  25.632   3.336
98703W        W67077  28.959  34.868  13.385
98704W        W67078  41.857  28.153   0.383
98705W        W67079  35.513  43.905  13.795
98706W        W67080   0.470  40.047  13.002
98707W        W67081  32.985  22.230   0.825
98708W        W67082  33.031  31.555  13.378
98709W        W67083  41.483  23.659   1.371
98710W        W67084   6.704  35.919   4.741
98711W        W67085  13.296  37.497   0.374
98712W        W67086  33.414  10.210   2.205
98713W        W67087  24.638  44.337  12.834
98714W        W67088  21.047  40.520   3.836
98715W        W67089  21.150  17.242  13.381
98716W        W67090  23.539  26.594   4.212
98717W        W67091  42.365  41.815   1.847
98718W        W67092  42.318  26.483  14.854
98719W        W67093  10.665   5.864  14.491
98720W        W67094  22.075  13.824   0.909
98721W        W67095  22.131   7.876   3.715
98722W        W67096  17.069  24.050   2.698
98723W        W67097  39.049  20.647   3.358
98724W        W67098  29.482   0.491  13.448
98725W        W67099  11.146  13.601  12.468
98726W        W67100  36.009  19.652  10.596
98727W        W67101   4.314  10.734   2.343
98728W        W67102  35.980  23.167  10.948
98729W        W67103  24.093  27.493  11.020
98730W        W67104  19.125  29.959   4.737
98731W        W67105  22.084   4.815  14.332
98732W        W67106  44.769  32.910   0.432
98733W        W67107  16.283  16.084  13.848
98734W        W67108  17.222  34.609  10.969
98735W        W67109  25.510  37.000   3.645
98736W        W67110  28.538   0.489   3.251
98737W        W67111  37.516  14.095  11.429
98738W        W67112   2.936  26.019   1.897
98739W        W67113  37.517   8.724  14.029
98740W        W67114   0.380  12.632  13.400
98741W        W67115  36.398  44.872  11.514
98742W        W67116  36.539  28.991   4.149
98743W        W67117  33.594   7.222  10.896
98744W        W67118   0.875  35.575   1.827
98745W        W67119  36.035  12.781   2.273
98746W        W67120   8.271  11.662   3.148
98747W        W67121   6.321  37.956  14.494
98748W        W67122   7.385  41.840  14.930
98749W        W67123  10.729  32.011   3.359
98750W        W67124  42.966   1.350  14.495
98751W        W67125  32.083   2.813   4.132
98752W        W67126  18.054  13.144   1.869
98753W        W67127  16.144  14.119   2.323
98754W        W67128  41.472  43.274  13.406
98755W        W67129  41.898  30.415  13.507
98756W        W67130   4.221  31.442   4.277
98757W        W67131   0.804  17.304   4.732
98758W        W67132  16.133  44.837  10.406
98759W        W67133  10.860  32.020   1.706
98760W        W67134  34.547   9.192   2.411
98761W        W67135  29.088  12.277  11.044
98762W        W67136  27.142   8.815  11.022
98763W        W67137   2.792  16.213  10.470
98764W        W67138  16.299  34.419   4.323
98765W        W67139  14.762  12.756  14.893
98766W        W67140  39.334  15.228   2.752
98767W        W67141  37.006  26.594   4.281
98768W        W67142  23.530  25.714  10.499
98769W        W67143   8.893  30.921  14.848
98770W        W67144  40.368  11.290   2.855
98771W        W67145  42.887  12.754  14.898
98772W        W67146  21.669  41.491  11.875
98773W        W67147  44.462  19.050   1.352
98774W        W67148  31.521   4.246   2.357
98775W        W67149  13.702  41.483  12.942
98776W        W67150  35.860  10.180  12.448
98777W        W67151  17.575  32.528  11.496
98778W        W67152   4.874  26.613  14.425
98779W        W67153  28.594  27.119   2.892
98780W        W67154  36.519  32.941  10.630
98781W        W67155  25.558   9.206  11.082
98782W        W67156  44.493  41.330   3.310
98783W        W67157  41.526  29.980   1.914
98784W        W67158  28.938   2.890  13.464
98785W        W67159  21.630  25.985   1.360
98786W        W67160  25.067  42.853   0.478
98787W        W67161  38.495  34.393   3.385
98788W        W67162   7.271  26.556  10.530
98789W        W67163  14.296  17.655  13.806
98790W        W67164  44.829   0.459   1.320
98791W        W67165   5.437   6.327   3.165
98792W        W67166  21.546  15.675   4.706
98793W        W67167  22.056  32.529   0.271
98794W        W67168  23.678  16.246   4.161
98795W        W67169   9.822  14.657   3.150
98796W        W67170  42.512  22.619   3.794
98797W        W67171  25.605  37.541  13.815
98798W        W67172   5.712  29.975  13.507
98799W        W67173  26.124   1.818  14.418
98800W        W67174  42.012  44.340  12.896
98801W        W67175  24.190  17.725  11.502
98802W        W67176  26.546  41.381   0.880
98803W        W67177   2.444  34.406   1.287
98804W        W67178  42.022  25.169   0.869
98805W        W67179  23.659   7.262  14.443
98806W        W67180  19.599  18.733  11.489
98807W        W67181  28.513   1.891  11.904
98808W        W67182  28.558  21.145   0.439
98809W        W67183  30.642   2.413  12.412
98810W        W67184   5.762  17.733   2.228
98811W        W67185   8.378  39.921   3.280
98812W        W67186   5.922   9.374   0.285
98813W        W67187  41.002  35.057   0.769
98814W        W67188  35.013   9.879   1.377
98815W        W67189  18.672  29.463  11.421
98816W        W67190   3.760  28.492  13.833
98817W        W67191  31.947  39.448  10.630
98818W        W67192  35.875  42.377   0.727
98819W        W67193   4.783   4.944  13.526
98820W        W67194  17.581  42.988  13.449
98821W        W67195  41.362  33.877  13.866
98822W        W67196  21.027   8.372  12.069
98823W        W67197  14.118  24.187   0.376
98824W        W67198  15.328  34.503  14.937
98825W        W67199  37.434  19.180   0.830
98826W        W67200  13.779  24.702  12.870
98827W        W67201   5.927  21.056  11.014
98828W        W67202  12.137  27.047  14.797
98829W        W67203  20.708  23.080  12.086
98830W        W67204  36.899   0.910   3.267
98831W        W67205   9.730   6.756  14.327
98832W        W67206  16.120   8.355  13.010
98833W        W67207  29.144   9.659  11.989
98834W        W67208  15.621  30.476  12.444
98835W        W67209   5.800  26.067  10.946
98836W        W67210  10.344  32.905   2.269
98837W        W67211   9.792  21.629  11.075
98838W        W67212  42.326  35.900   2.772
98839W        W67213  15.678  42.030   1.408
98840W        W67214  33.925  41.396  14.279
98841W        W67215  11.855  30.089   3.371
98842W        W67216  34.504  33.971  11.088
98843W        W67217  22.240  12.150  12.399
98844W        W67218   4.713  19.234  10.927
98845W        W67219  39.468   5.888   1.336
98846W        W67220  31.508  43.772  12.078
98847W        W67221  23.241  28.185  13.871
98848W        W67222  14.605   8.809   3.170
98849W        W67223  29.502  41.490  12.406
98850W        W67224  39.512  24.025  13.430
98851W        W67225  16.256  30.626   2.280
98852W        W67226  36.008  38.388   2.350
98853W        W67227  20.579  13.793   2.229
98854W        W67228   1.404  41.938   2.792
98855W        W67229   7.891   1.397   0.754
98856W        W67230  11.137  27.689   2.198
98857W        W67231  21.751   8.310  14.777
98858W        W67232  28.034   1.239  12.910
98859W        W67233   9.773   0.940  12.537
98860W        W67234  26.098  35.466  10.896
98861W        W67235   2.389  36.950  11.559
98862W        W67236  32.432  25.713   3.282
98863W        W67237  16.670   6.264   4.677
98864W        W67238  38.908  12.782  10.108
98865W        W67239  28.653  17.062   4.689
98866W        W67240  27.621  20.073  10.918
98867W        W67241  17.591  23.046   2.687
98868W        W67242  14.164  43.334   4.131
98869W        W67243  32.410  33.564   3.670
98870W        W67244  41.882  36.488   1.275
98871W        W67245   1.946  37.028  10.415
98872W        W67246  19.676   4.344   1.862
98873W        W67247  14.630  29.108   2.190
98874W        W67248  39.461  35.982   2.381
98875W        W67249  24.621  40.381   2.854
98876W        W67250  38.519   1.904  11.474
98877W        W67251  29.452  12.646  12.990
98878W        W67252  31.419  34.906   3.178
98879W        W67253  17.577   7.292   0.302
98880W        W67254  26.967  17.111   3.713
98881W        W67255  27.960   5.928  11.040
98882W        W67256  40.345   4.930  11.883
98883W        W67257   3.823   9.255  13.323
98884W        W67258  38.004  27.027   1.447
98885W        W67259  31.584  17.603  11.455
98886W        W67260  27.480  33.940  14.763
98887W        W67261  35.574  23.149  13.446
98888W        W67262  22.136  38.942   4.179
98889W        W67263  25.026  24.027   2.317
98890W        W67264  27.145  27.618  14.927
98891W        W67265  39.366  19.194  11.067
98892W        W67266   6.892  29.006   1.735
98893W        W67267   6.765  18.596   2.192
98894W        W67268  43.353  34.578   1.890
98895W        W67269  24.093  20.664   4.304
98896W        W67270  12.856  13.332   2.254
98897W        W67271  16.702  28.046  13.467
98898W        W67272  20.761  24.689   3.342
98899W        W67273  26.527  32.888  14.419
98900W        W67274  14.200   6.203  13.863
98901W        W67275  24.486  32.418   5.196
98902W        W67276  30.634  10.320  14.933
98903W        W67277   3.449  40.526  13.510
98904W        W67278  12.333  43.270   1.725
98905W        W67279  39.453  31.037   2.795
98906W        W67280   3.368   9.749  13.978
98907W        W67281  27.609  26.126   3.237
98908W        W67282  30.044  35.475  14.977
98909W        W67283  39.544   9.155   2.245
98910W        W67284  42.935  41.948  12.053
98911W        W67285  10.261   5.746  11.914
98912W        W67286  35.968  24.207   4.630
98913W        W67287  17.212  38.394  12.830
98914W        W67288  21.159  39.028   4.790
98915W        W67289  19.110   9.646   4.221
98916W        W67290   0.456  38.537   1.402
98917W        W67291  13.299  43.809  12.521
98918W        W67292  33.024  13.308   3.273
98919W        W67293  39.854  27.575   2.413
98920W        W67294  34.110  40.534  14.865
98921W        W67295  29.560   5.272  12.578
98922W        W67296  34.888  29.424  13.885
98923W        W67297  18.647  35.999   2.239
98924W        W67298  26.605  43.294   2.663
98925W        W67299   2.889  19.080  13.001
98926W        W67300  34.035  31.473  11.393
98927W        W67301  20.115   7.332   4.267
98928W        W67302  21.154  10.358   1.740
98929W        W67303   5.888  39.377  13.484
98930W        W67304   3.953  28.003   4.312
98931W        W67305  16.710  33.890  12.375
98932W        W67306  44.853  30.418  10.484
98933W        W67307  34.557   8.172   3.358
98934W        W67308  22.574  38.832  12.518
98935W        W67309  19.654  43.960  14.325
98936W        W67310   2.760  26.615  13.509
98937W        W67311  22.108  27.097   1.726
98938W        W67312  39.983  31.973  10.564
98939W        W67313   5.794  23.612   5.292
98940W        W67314  16.682  16.289  10.627
98941W        W67315  19.598  34.982  13.005
98942W        W67316   9.651  32.936  14.868
98943W        W67317  25.591  31.506  14.861
98944W        W67318   1.800  44.267   4.830
98945W        W67319   3.289  20.105  11.861
98946W        W67320  38.833  25.042  11.406
98947W        W67321  13.845  31.582  10.551
98948W        W67322   5.859  32.007   1.284
98949W        W67323  10.324  39.953  14.962
98950W        W67324  24.516  43.900  12.364
98951W        W67325   4.907  10.219   0.455
98952W        W67326  20.125  38.401   0.869
98953W        W67327  29.437   0.317  12.068
98954W        W67328   6.734  18.283  10.644
98955W        W67329  37.052  24.167   2.832
98956W        W67330  40.366  15.721   5.206
98957W        W67331  10.374   3.440  10.503
98958W        W67332   2.366   2.764  14.968
98959W        W67333  40.502  28.658  13.396
98960W        W67334   5.350  44.309  11.563
98961W        W67335  34.010   3.235   1.440
98962W        W67336  19.580  17.780  11.609
98963W        W67337  25.696  39.892  14.496
98964W        W67338  35.426   9.313  12.076
98965W        W67339  37.865  16.219   4.689
98966W        W67340  32.091   1.855   9.960
98967W        W67341  29.468  12.321   3.679
98968W        W67342  13.141  22.640  13.319
98969W        W67343  31.610  20.230  10.960
98970W        W67344  25.669  28.092  14.389
98971W        W67345  25.055  19.632  11.474
98972W        W67346  11.226  23.617   4.784
98973W        W67347   1.370  35.578   1.323
98974W        W67348  22.050  34.957  13.333
98975W        W67349   7.241  29.549  11.055
98976W        W67350  30.163  39.959   2.413
98977W        W67351  22.535  21.711  13.346
98978W        W67352  23.007  42.859   3.771
98979W        W67353  37.034  40.997   0.874
98980W        W67354  19.541  23.490   0.368
98981W        W67355  32.121   8.175   1.355
98982W        W67356   0.878  30.143   4.747
98983W        W67357  30.524  27.646   4.168
98984W        W67358   2.405   2.347   1.862
98985W        W67359  25.624  10.803   4.158
98986W        W67360  39.852  15.325   4.176
98987W        W67361  23.145  41.334  14.899
98988W        W67362  33.499  21.734  10.966
98989W        W67363  23.013   5.795  12.472
98990W        W67364  43.380  27.523   0.288
98991W        W67365   9.287  23.116  13.987
98992W        W67366  24.024  10.872  11.507
98993W        W67367  12.235  13.670   0.255
98994W        W67368   3.780   4.354   4.174
98995W        W67369  34.974  42.440  13.948
98996W        W67370  11.212  22.592  10.917
98997W        W67371  31.426  11.805  13.863
98998W        W67372  41.343  26.601  10.479
98999W        W67373  10.719  31.599  13.405
99000W        W67374  22.083  14.201   3.195
99001W        W67375  10.259   2.346  11.076
99002W        W67376  25.651  23.226  13.545
99003W        W67377  23.192  40.858  11.928
99004W        W67378  24.218  15.769   0.281
99005W        W67379   9.371  19.196   5.271
99006W        W67380  15.125  12.725   0.773
99007W        W67381  31.625  44.279  12.364
99008W        W67382  25.141  39.340   3.699
99009W        W67383  26.555  29.498   4.774
99010W        W67384   4.241  31.470  14.865
99011W        W67385  27.582  14.696  10.547
99012W        W67386  29.505   8.838   2.289
99013W        W67387  20.538  30.046  13.855
99014W        W67388  30.512  20.640  12.965
99015W        W67389  36.480  37.890  13.484
99016W        W67390   7.267   5.769   3.707
99017W        W67391   4.857  42.952   0.768
99018W        W67392  28.062   2.727  14.784
99019W        W67393  15.642  23.579   2.206
99020W        W67394  14.734   3.424  11.399
99021W        W67395   2.356  32.455  12.991
99022W        W67396  37.838  33.526  14.445
99023W        W67397  28.631   1.378  14.324
99024W        W67398  17.281  18.660   3.329
99025W        W67399  22.669  13.156  12.551
99026W        W67400  43.331  25.202   3.231
99027W        W67401  30.643   8.332  12.454
99028W        W67402  13.218  25.679  12.986
99029W        W67403  21.735  16.680   2.788
99030W        W67404  29.936  41.877  13.312
99031W        W67405  38.380  37.578  13.926
99032W        W67406  35.427  22.121   1.871
99033W        W67407  43.468  22.148   4.716
99034W        W67408  23.648  19.557  12.483
99035W        W67409  10.842   8.738  11.480
99036W        W67410  40.365  19.193   4.687
99037W        W67411  24.542  23.623  14.769
99038W        W67412  20.708  21.611   0.923
99039W        W67413  43.273  26.608  10.433
99040W        W67414  12.234  44.437   1.448
99041W        W67415  43.961  10.147   3.802
99042W        W67416  28.067  35.494  12.001
99043W        W67417   1.952   8.679  12.536
99044W        W67418  24.684  40.369   4.651
99045W        W67419  23.062  13.741  10.993
99046W        W67420  40.804  34.978   1.852
99047W        W67421   2.326  38.524   3.744
99048W        W67422  34.515  12.205   4.154
99049W        W67423   6.775  30.504  14.453
99050W        W67424  27.605   1.315   2.292
99051W        W67425  32.938  36.049   1.370
99052W        W67426  31.432  35.358  14.856
99053W        W67427  21.066  16.672   0.828
99054W        W67428   7.256  12.721   4.756
99055W        W67429  38.877  35.973  10.063
99056W        W67430   0.454   6.394  11.608
99057W        W67431  30.432  34.959  12.350
99058W        W67432  31.628  30.468  10.540
99059W        W67433   2.722  39.370   3.865
99060W        W67434  25.122  38.954   3.805
99061W        W67435  13.250   4.824  12.439
99062W        W67436  39.992  17.300  10.621
99063W        W67437  24.188  24.656  12.506
99064W        W67438  34.939   5.398   0.753
99065W        W67439  19.681  40.901  14.828
99066W        W67440  34.964  10.235   0.382
99067W        W67441  19.578   6.382  14.931
99068W        W67442  41.999  30.565  14.318
99069W        W67443  30.605  34.613   4.244
99070W        W67444  36.974  35.977   2.889
99071W        W67445  15.093   8.284  12.050
99072W        W67446  30.005  40.891  13.473
99073W        W67447  14.189   0.775   1.866
99074W        W67448  15.177  35.866   0.913
99075W        W67449  24.532  44.942  12.966
99076W        W67450   5.893   3.344  11.872
99077W        W67451  14.207  44.448  11.008
99078W        W67452  16.176  27.942  10.959
99079W        W67453  43.457  23.563   2.858
99080W        W67454   7.346   7.333   2.754
99081W        W67455  36.533  35.967   1.775
99082W        W67456   3.849   5.787  14.870
99083W        W67457  31.615  21.615  11.512
99084W        W67458  36.985   9.175  10.965
99085W        W67459  31.494  43.312  10.464
99086W        W67460   9.349  31.500   2.305
99087W        W67461  34.073  37.372   0.959
99088W        W67462  42.017  26.141  12.384
99089W        W67463  26.556  28.655   4.128
99090W        W67464  34.404   7.228   0.302
99091W        W67465  17.148  16.603  11.573
99092W        W67466   3.432  35.900  14.785
99093W        W67467  17.582  43.494  12.082
99094W        W67468  39.438   4.349  14.823
99095W        W67469  14.262  19.556   4.826
99096W        W67470  11.271  25.700  12.026
99097W        W67471  31.929  14.820   1.281
99098W        W67472  12.610  18.777   2.883
99099W        W67473  41.828  11.323  14.828
99100W        W67474  12.275  35.935   2.236
99101W        W67475   8.736  14.291   4.755
99102W        W67476  25.655  14.311   2.250
99103W        W67477  39.557   4.243   4.738
99104W        W67478  26.119   2.928  12.878
99105W        W67479  24.112   5.847   1.847
99106W        W67480  38.416   5.918  13.006
99107W        W67481  32.008  18.592  11.969
99108W        W67482  30.459  14.761   0.731
99109W        W67483  26.580  41.928  14.900
99110W        W67484   0.953   3.382  12.543
99111W        W67485  39.450   7.284   4.710
99112W        W67486  27.525  42.390  12.473
99113W        W67487  42.918  27.034   0.918
99114W        W67488   9.245  11.709   4.246
99115W        W67489  39.839  18.657   3.795
99116W        W67490  23.618  26.549   3.719
99117W        W67491  37.876  41.533   4.272
99118W        W67492  15.680   8.858   1.445
99119W        W67493   6.328   3.939   4.838
99120W        W67494  27.027  34.878   0.483
99121W        W67495  27.626  14.599   0.770
99122W        W67496   8.873   7.734  11.578
99123W        W67497  36.953   3.372  12.084
99124W        W67498  44.899  19.553  12.510
99125W        W67499  38.041  42.957   0.271
99126W        W67500  22.179  17.673  13.351
99127W        W67501  20.137  42.307   0.348
99128W        W67502  25.160  14.661   3.846
99129W        W67503  10.658  17.116  13.861
99130W        W67504  40.369  44.323   4.709
99131W        W67505  38.013   0.435  12.374
99132W        W67506  18.552  34.990  14.418
99133W        W67507   7.770   3.814  10.494
99134W        W67508   2.905  22.017  14.779
99135W        W67509  32.961  27.688  11.445
99136W        W67510  25.190  14.188   2.284
99137W        W67511  15.687  37.876  14.007
99138W        W67512  28.965  44.980  12.531
99139W        W67513  31.016   7.235  10.562
99140W        W67514  44.008  12.715   3.177
99141W        W67515  11.362   2.366  13.444
99142W        W67516  43.905  41.818   0.460
99143W        W67517   6.332   7.703  13.423
99144W        W67518  11.667  20.236  14.963
99145W        W67519  37.372  42.010   3.654
99146W        W67520  34.007  33.987   2.226
99147W        W67521  34.592  41.340  14.950
99148W        W67522  25.065  35.425   1.347
99149W        W67523  28.594  31.584  12.454
99150W        W67524  18.215  20.724   1.726
99151W        W67525  25.607  34.113   0.439
99152W        W67526  44.827  43.824  10.425
99153W        W67527  10.697   1.369   2.713
99154W        W67528   6.240  34.570  13.919
99155W        W67529  17.133  23.490  13.872
99156W        W67530  17.211  41.437  10.038
99157W        W67531   3.279  11.223   4.343
99158W        W67532  26.471  27.625   9.951
99159W        W67533  26.161  24.055   1.301
99160W        W67534  28.616  37.350   0.250
99161W        W67535  27.150  30.008   2.336
99162W        W67536   7.693  28.099  10.911
99163W        W67537  14.668  14.114   1.441
99164W        W67538  11.782  44.443   3.236
99165W        W67539  27.648  10.676  12.343
99166W        W67540  14.642  29.990  14.993
99167W        W67541  28.535  28.492  11.900
99168W        W67542   5.371   9.340  14.778
99169W        W67543  22.124  22.218  14.866
99170W        W67544   9.179  22.639   9.923
99171W        W67545   1.795  18.132   2.673
99172W        W67546  41.797  22.613  14.903
99173W        W67547  20.125  42.522  13.852
99174W        W67548  10.203   4.247   2.356
99175W        W67549  27.945  29.604   1.740
99176W        W67550   8.352  21.032   9.449
99177W        W67551   7.724  30.468   4.123
99178W        W67552  31.456  19.758   0.474
99179W        W67553  44.422  16.621  12.518
99180W        W67554   0.338  35.041  12.984
99181W        W67555  31.118  43.499   3.637
99182W        W67556   0.961  43.493   1.882
99183W        W67557   6.253   8.362  10.414
99184W        W67558  35.357  13.310  13.422
99185W        W67559   3.405   0.901   2.763
99186W        W67560  24.654  10.692   0.332
99187W        W67561   0.320   6.425   4.116
99188W        W67562  30.073   1.475   2.316
99189W        W67563  31.612  25.009   1.787
99190W        W67564  37.083  13.704  10.528
99191W        W67565  37.903   6.421   1.826
99192W        W67566   5.905  18.122  13.854
99193W        W67567   7.343  11.831   2.304
99194W        W67568  39.386  40.938   0.898
99195W        W67569   9.272  36.575  14.381
99196W        W67570  30.544  41.365  11.945
99197W        W67571  34.015  35.370   4.743
99198W        W67572   6.189  14.281   5.283
99199W        W67573  29.055  42.406  13.442
99200W        W67574  35.034  21.668   3.294
99201W        W67575  13.124  27.590  13.399
99202W        W67576  18.614  30.062   3.807
99203W        W67577  10.799  18.558   5.113
99204W        W67578  34.550  35.089  11.374
99205W        W67579  18.275  36.925   4.614
99206W        W67580  19.710  41.043  14.419
99207W        W67581  19.258  21.107  11.471
99208W        W67582  31.524  30.082   1.770
99209W        W67583  32.121  37.397   2.704
99210W        W67584  18.286  25.612  11.864
99211W        W67585  17.703  17.661  13.411
99212W        W67586   6.766   9.774  12.423
99213W        W67587  14.623   3.354   3.344
99214W        W67588  44.318   8.701   0.762
99215W        W67589  24.717  34.009  12.350
99216W        W67590  22.621  40.043  10.946
99217W        W67591  18.653  28.053   1.249
99218W        W67592  36.475  24.723  12.425
99219W        W67593  42.405  34.985  14.859
99220W        W67594  10.761   8.250   3.857
99221W        W67595  42.515  33.527   2.817
99222W        W67596  30.033   6.857   0.404
99223W        W67597  40.954  12.178   3.859
99224W        W67598  19.667  41.351   2.246
99225W        W67599   0.815  33.607  13.890
99226W        W67600  10.318  30.146  12.860
99227W        W67601  18.743  15.141  14.383
99228W        W67602  29.437  29.962   0.394
99229W        W67603  10.682   5.836   1.450
99230W        W67604  12.757  27.662   2.403
99231W        W67605  34.873  15.167  11.086
99232W        W67606   5.860  29.080   0.850
99233W        W67607   2.730   9.825   4.117
99234W        W67608  32.549  22.127   2.411
99235W        W67609  32.023  10.153  10.942
99236W        W67610  29.969  23.023   3.837
99237W        W67611  29.569  34.112  10.554
99238W        W67612   7.894  19.592   1.915
99239W        W67613   5.885  27.684  14.016
99240W        W67614  15.810  42.502   2.269
99241W        W67615   4.406  28.179   3.815
99242W        W67616  10.705  39.012  12.859
99243W        W67617   6.361  17.180  12.426
99244W        W67618  21.517  13.775   3.639
99245W        W67619  40.797  16.648  12.470
99246W        W67620   4.341  39.038   1.237
99247W        W67621  31.501  15.092  14.377
99248W        W67622  25.211  41.791   2.204
99249W        W67623   7.297  14.717   0.386
99250W        W67624   5.917  35.504   1.879
99251W        W67625  11.288  24.125  11.568
99252W        W67626  28.028  13.147  13.543
99253W        W67627  36.951  10.766   0.728
99254W        W67628  13.845  39.913   0.384
99255W        W67629  27.967  44.273   0.946
99256W        W67630  10.289  36.434  10.980
99257W        W67631  11.841   8.723   1.320
99258W        W67632   8.799   0.938   5.082
99259W        W67633  11.675  39.423   3.352
99260W        W67634  19.596  15.172   3.252
99261W        W67635   0.467  40.894  12.412
99262W        W67636  40.997  22.530  11.448
99263W        W67637  38.420  14.792  10.484
99264W        W67638  17.148  17.702   3.659
99265W        W67639   6.224  22.169  14.444
99266W        W67640  33.503   7.402   3.289
99267W        W67641  15.135   4.871  11.471
99268W        W67642  20.099   0.379  12.449
99269W        W67643  29.133  31.921  12.840
99270W        W67644  14.186   2.386   0.281
99271W        W67645  34.985  40.899   1.769
99272W        W67646  13.195  23.194   2.375
99273W        W67647  29.513  15.674   2.712
99274W        W67648   1.383  29.007  12.466
99275W        W67649  35.408  21.260  10.494
99276W        W67650  44.396  42.878   4.615
99277W        W67651  15.257  25.683   0.385
99278W        W67652   5.258  20.720  10.932
99279W        W67653  43.796   5.324   2.237
99280W        W67654  17.153  34.487  13.455
99281W        W67655  37.385  26.172   0.247
99282W        W67656  27.456   9.216   3.320
99283W        W67657   5.206  39.916  14.486
99284W        W67658  23.241  24.639   4.299
99285W        W67659  39.888  16.235  12.527
99286W        W67660   6.700  12.761  12.546
99287W        W67661  27.058  29.541   3.854
99288W        W67662   0.349  37.556  12.560
99289W        W67663  13.229  41.945   0.380
99290W        W67664  31.069  29.551  13.479
99291W        W67665  31.511  11.151  12.363
99292W        W67666  41.020  44.814   1.838
99293W        W67667  28.562   8.812  10.580
99294W        W67668  26.151  39.440  13.430
99295W        W67669  26.671  11.774   0.833
99296W        W67670  44.362   9.775   4.338
99297W        W67671  22.210  11.330  13.028
99298W        W67672  13.744  20.603   3.150
99299W        W67673  14.305  10.172   5.738
99300W        W67674  20.183  29.044  10.451
99301W        W67675   7.322   4.941  14.359
99302W        W67676   5.830  17.255   2.410
99303W        W67677  18.641   0.346  10.546
99304W        W67678  40.988  27.634  13.435
99305W        W67679  34.062   9.312   3.660
99306W        W67680  35.084   4.411  13.335
99307W        W67681   9.742  14.609   4.731
99308W        W67682  27.057   8.804  14.875
99309W        W67683  40.409  13.238  13.908
99310W        W67684  14.630  14.309   0.770
99311W        W67685   9.218  44.366  11.117
99312W        W67686  31.452  39.553  14.025
99313W        W67687  40.809  19.272  11.543
99314W        W67688  18.192  42.962   4.191
99315W        W67689  35.015   2.753   2.816
99316W        W67690  28.598  44.439  11.585
99317W        W67691   6.766  16.656  13.472
99318W        W67692   8.819  29.466   1.835
99319W        W67693  13.624   5.780   1.849
99320W        W67694  30.544  33.410   4.120
99321W        W67695   9.361  40.536   4.347
99322W        W67696  29.505  39.370   2.264
99323W        W67697  32.124  28.971   1.326
99324W        W67698  29.560  13.202   1.701
99325W        W67699  40.365   1.434  14.913
99326W        W67700  27.027   7.714   3.678
99327W        W67701   8.774  23.524   1.346
99328W        W67702  16.586  33.922   1.307
99329W        W67703  39.327  34.908  10.005
99330W        W67704  40.002  24.607   0.737
99331W        W67705  31.493  19.746  13.523
99332W        W67706  41.363  13.312  14.973
99333W        W67707   6.760  20.062   4.826
99334W        W67708  23.034  14.664  10.954
99335W        W67709  37.984  32.043  11.085
99336W        W67710  19.053  18.695   1.833
99337W        W67711   3.762  43.959   0.422
99338W        W67712  11.180   0.922  10.993
99339W        W67713   1.457  43.303   1.887
99340W        W67714   9.876  23.704   3.371
99341W        W67715  16.760  25.554   3.376
99342W        W67716  18.609  10.323   3.826
99343W        W67717  33.120   5.296  12.567
99344W        W67718  25.984   3.795  14.851
99345W        W67719  25.090  33.453   1.426
99346W        W67720  25.691  15.766  14.412
99347W        W67721  11.149  30.601   1.889
99348W        W67722  43.513  21.237   3.148
99349W        W67723  42.288   1.933   4.171
99350W        W67724  18.603  25.497   2.357
99351W        W67725   5.361  30.412  13.912
99352W        W67726  32.513  36.020   2.706
99353W        W67727  14.335   5.789   4.643
99354W        W67728   9.361  11.763  14.912
99355W        W67729  30.034  35.936  12.464
99356W        W67730   5.302  38.043   1.717
99357W        W67731  22.546  38.438   2.782
99358W        W67732  32.549  29.545  11.877
99359W        W67733  15.740  20.625  10.428
99360W        W67734  10.300   9.317  11.401
99361W        W67735  33.900  32.123   0.776
99362W        W67736  15.580  38.019   2.339
99363W        W67737  32.608   8.347   0.432
99364W        W67738  31.024  36.080  14.470
99365W        W67739  15.698   8.258  13.799
99366W        W67740  39.837  33.877  12.911
99367W        W67741  19.760  21.551   0.902
99368W        W67742  21.158  25.195  13.398
99369W        W67743  14.823  35.479   2.826
99370W        W67744  22.623  13.836   1.314
99371W        W67745  17.706  26.015   4.641
99372W        W67746  39.515  27.140   3.699
99373W        W67747  15.604  12.724   0.860
99374W        W67748   6.680  20.606   0.815
99375W        W67749  20.196   5.855  14.417
99376W        W67750   7.704  16.101   0.305
99377W        W67751  33.888   8.285  13.841
99378W        W67752   0.426   9.298   1.899
99379W        W67753  26.681  35.101   1.374
99380W        W67754  19.691  31.414   4.723
99381W        W67755   1.743  43.912   2.839
99382W        W67756   3.383  36.037  11.106
99383W        W67757  42.303  34.113  13.029
99384W        W67758  43.948  33.877   2.677
99385W        W67759  16.079  25.626   1.290
99386W        W67760  29.425  33.932   2.204
99387W        W67761  18.702  20.639   3.764
99388W        W67762   7.755  20.672   2.306
99389W        W67763  28.626   6.709  14.506
99390W        W67764  22.605  21.565  10.614
99391W        W67765  39.841   0.790   2.890
99392W        W67766  14.756  29.081   4.812
99393W        W67767  10.383  43.779  13.472
99394W        W67768  30.536  14.650  11.996
99395W        W67769   4.441   0.440   1.732
99396W        W67770   8.253  42.980   4.129
99397W        W67771   1.441  20.637   2.269
99398W        W67772  27.454  44.877  11.452
99399W        W67773  40.415  13.159   4.161
99400W        W67774  43.965  30.078  10.532
99401W        W67775  38.969  29.433  10.923
99402W        W67776  11.362  41.473   4.831
99403W        W67777  11.245   6.195   2.888
99404W        W67778   1.913  16.682  11.398
99405W        W67779  10.807  11.242  12.459
99406W        W67780  35.446  31.461   0.262
99407W        W67781  23.722   0.763   1.746
99408W        W67782  25.983  30.038  11.456
99409W        W67783  37.844  32.391  14.846
99410W        W67784  23.513  17.725  12.021
99411W        W67785  43.771  22.653  14.450
99412W        W67786  18.571  41.300  13.799
99413W        W67787  14.153  29.563  12.849
99414W        W67788   5.902   1.966   1.212
99415W        W67789  24.503  16.233   1.269
99416W        W67790   1.393  44.504  13.878
99417W        W67791  44.388  25.962  13.833
99418W        W67792   7.829  30.057  14.791
99419W        W67793  13.288   6.758   4.745
99420W        W67794   5.868  23.589  11.937
99421W        W67795   5.838  37.512   0.881
99422W        W67796  40.829   0.794   2.761
99423W        W67797  37.898  24.045  12.043
99424W        W67798   0.760  24.089   3.249
99425W        W67799   2.948  14.759  11.969
99426W        W67800   9.840  32.573   2.758
99427W        W67801  43.281  27.978  12.901
99428W        W67802  28.055  26.682   2.333
99429W        W67803  21.135   6.361  14.475
99430W        W67804  20.092  40.469   5.219
99431W        W67805  10.199  10.292  14.868
99432W        W67806  35.506   7.400   0.277
99433W        W67807   0.298  27.081   1.382
99434W        W67808  10.371  26.979  12.941
99435W        W67809   1.368  22.236  11.931
99436W        W67810  42.028  31.515  12.411
99437W        W67811   3.453  10.760   2.204
99438W        W67812   7.683  32.041  14.486
99439W        W67813  30.913  41.808   3.819
99440W        W67814  27.584  41.444   0.289
99441W        W67815  43.285  26.465   1.262
99442W        W67816  26.114  30.426   0.468
99443W        W67817  14.747   8.306  13.039
99444W        W67818  38.364  33.459   3.227
99445W        W67819  17.790  42.017  12.457
99446W        W67820  10.257  15.752  10.050
99447W        W67821  26.032  42.938  14.001
99448W        W67822   6.369  11.649  12.406
99449W        W67823  41.929  19.052   0.471
99450W        W67824  10.220  39.413   2.892
99451W        W67825   6.202  25.650  13.838
99452W        W67826  22.024  34.469  10.458
99453W        W67827   5.847  38.364   1.765
99454W        W67828  19.737  30.507   3.153
99455W        W67829  39.491  22.676  13.499
99456W        W67830   0.968  38.361  11.462
99457W        W67831  14.800  41.823  14.317
99458W        W67832  24.046   8.721   4.710
99459W        W67833  19.556  31.491  14.467
99460W        W67834  15.286  22.520   2.736
99461W        W67835  10.876  13.694   3.843
99462W        W67836  31.065  10.216   3.292
99463W        W67837   1.352  21.731  13.976
99464W        W67838  18.110   1.254   2.802
99465W        W67839   4.249  22.232   1.811
99466W        W67840   8.307  12.227   4.772
99467W        W67841  43.424   2.456  13.529
99468W        W67842  21.136  34.432   4.689
99469W        W67843  11.292  20.586  11.098
99470W        W67844  15.313   3.792  10.642
99471W        W67845  11.718  14.686  12.877
99472W        W67846  10.355   8.368  12.578
99473W        W67847  23.559  29.604   0.766
99474W        W67848  32.023  16.155  13.797
99475W        W67849  41.407  29.560  14.459
99476W        W67850  36.082  40.524   1.406
99477W        W67851  13.235  43.317   0.335
99478W        W67852  17.796  31.020  11.578
99479W        W67853  44.485  34.909   2.214
99480W        W67854  36.370  12.624  12.343
99481W        W67855  42.292   3.290  13.814
99482W        W67856  44.383  29.574   2.413
99483W        W67857  15.273  24.003  13.940
99484W        W67858  44.986  26.482  13.503
99485W        W67859  30.958  28.630  14.386
99486W        W67860  24.072  26.562   1.430
99487W        W67861  17.268  24.999   3.691
99488W        W67862  36.903  16.279   3.699
99489W        W67863  37.414  16.803   0.918
99490W        W67864  23.610  25.521  13.461
99491W        W67865  20.029   0.899   4.714
99492W        W67866  27.474   4.368  12.984
99493W        W67867   6.331  30.047   3.381
99494W        W67868  29.484  16.582  11.858
99495W        W67869  33.948  34.925  11.540
99496W        W67870  44.859  44.460   2.358
99497W        W67871  37.966  19.118   0.857
99498W        W67872  27.652   9.176  10.572
99499W        W67873  29.499  44.839  11.973
99500W        W67874  33.958  32.523   3.297
99501W        W67875  27.001  42.481  12.033
99502W        W67876  29.571  26.097  10.968
99503W        W67877   7.286  28.657   2.346
99504W        W67878  31.998  44.436   1.816
99505W        W67879  20.755  21.660  14.399
99506W        W67880  15.310  16.646  12.448
99507W        W67881  17.164   5.776  11.125
99508W        W67882   9.225  30.635   2.842
99509W        W67883  20.067  33.624  12.036
99510W        W67884  29.007  42.991  10.909
99511W        W67885  23.089  37.059   3.350
99512W        W67886  13.300  20.717  10.537
99513W        W67887   3.245  30.938   3.753
99514W        W67888   9.801  15.815  11.904
99515W        W67889  33.502  39.343  13.475
99516W        W67890  31.044  20.127  12.533
99517W        W67891   2.261  32.625  14.328
99518W        W67892  23.716  38.339   3.636
99519W        W67893   7.387  13.265  11.088
99520W        W67894  43.911  21.240   2.182
99521W        W67895  31.524  26.500  13.991
99522W        W67896  42.987  34.525   4.720
99523W        W67897  38.067  12.629   1.926
99524W        W67898  15.659  21.537  12.371
99525W        W67899   6.215  27.984  14.486
99526W        W67900  32.438   4.753   2.832
99527W        W67901  24.015  32.522   3.823
99528W        W67902  18.103   0.791  13.960
99529W        W67903   2.895  33.495   1.884
99530W        W67904  23.984  24.175  11.608
99531W        W67905   0.795  11.226   4.732
99532W        W67906   4.411   3.285   0.825
99533W        W67907  11.805  10.326   1.217
99534W        W67908   5.323   6.318   4.830
99535W        W67909  33.910   7.313  10.974
99536W        W67910   4.842  23.535   4.166
99537W        W67911  38.985  32.517  13.837
99538W        W67912  40.506  19.133  12.945
99539W        W67913   6.283  26.972  11.984
99540W        W67914  28.020   5.870   4.253
99541W        W67915  44.276  22.621   0.782
99542W        W67916  30.436  32.955  12.918
99543W        W67917  28.950  37.866  13.310
99544W        W67918  40.364  24.643   3.384
99545W        W67919  16.699   9.767   3.638
99546W        W67920   2.933  34.085   3.642
99547W        W67921  24.613  20.677  12.936
99548W        W67922  41.409  21.228  11.385
99549W        W67923  30.093  19.584  11.974
99550W        W67924  33.578  14.265   4.307
99551W        W67925  26.964  36.054   1.261
99552W        W67926  42.404   9.682   2.185
99553W        W67927  23.726  33.534   1.723
99554W        W67928  41.406  13.844  10.550
99555W        W67929  44.910  21.150  13.464
99556W        W67930  29.002  30.010   2.796
99557W        W67931  26.504   8.211  12.508
99558W        W67932   1.417   9.831   3.356
99559W        W67933  20.550  26.579  12.505
99560W        W67934  22.653  27.589   2.233
99561W        W67935  18.730   6.195  13.324
99562W        W67936  32.447  41.949  12.544
99563W        W67937  35.861  19.156  11.103
99564W        W67938  19.271  28.035  11.959
99565W        W67939  29.578  34.894  11.455
99566W        W67940   0.881  12.662  14.987
99567W        W67941  34.591  37.880   3.870
99568W        W67942  43.001   7.791   2.331
99569W        W67943   3.386  31.903   3.208
99570W        W67944  19.747  38.950   5.120
99571W        W67945   5.376  15.228  13.523
99572W        W67946  19.583   3.401  11.867
99573W        W67947  13.636  34.596  14.361
99574W        W67948   5.309   1.463   1.769
99575W        W67949  37.908  19.240  12.054
99576W        W67950  37.017  12.783  10.438
99577W        W67951  32.517   0.364   3.182
99578W        W67952   2.805  19.634   4.309
99579W        W67953   7.310  37.868   2.337
99580W        W67954  42.863  40.968   3.306
99581W        W67955   7.710   8.318  11.905
99582W        W67956  23.548  28.486   1.707
99583W        W67957  44.833  16.214   0.741
99584W        W67958  26.155  29.488   3.752
99585W        W67959  18.076   5.361  12.993
99586W        W67960   9.732  42.983  12.954
99587W        W67961  38.831  24.989   4.681
99588W        W67962  38.325  27.116   3.803
99589W        W67963  18.632  34.400   1.885
99590W        W67964  18.717  22.162  11.984
99591W        W67965  36.960  28.658  14.832
99592W        W67966   6.230   4.214  10.968
99593W        W67967  20.686  26.011   0.908
99594W        W67968   0.315  13.233  11.575
99595W        W67969  41.339  24.084   0.359
99596W        W67970  35.364   0.886   3.381
99597W        W67971  14.178   5.434  13.437
99598W        W67972  18.553  39.977   0.470
99599W        W67973  44.974   8.226   2.215
99600W        W67974  27.185  11.213  13.912
99601W        W67975  44.831   9.202  12.058
99602W        W67976   7.762  14.697   4.684
99603W        W67977  35.407  13.155   2.407
99604W        W67978   8.664  41.809  11.100
99605W        W67979  42.282  19.165  11.856
99606W        W67980  27.036  12.837   1.931
99607W        W67981  27.087  32.119   0.418
99608W        W67982  21.114  19.100   1.404
99609W        W67983  22.626   2.314   2.698
99610W        W67984  17.122  25.133   0.377
99611W        W67985  21.255  23.581   2.812
99612W        W67986  14.137  14.675  12.442
99613W        W67987  12.301  38.347   0.799
99614W        W67988  23.568  32.406   4.321
99615W        W67989  42.873   2.875  13.057
99616W        W67990  34.037  25.111  14.905
99617W        W67991  43.410  10.648  14.913
99618W        W67992  21.120  38.819  13.388
99619W        W67993  13.261   1.743   3.180
99620W        W67994  20.757   0.330  11.613
99621W        W67995  43.812  21.628   0.245
99622W        W67996  36.881  44.441  14.344
99623W        W67997  27.501   3.241  12.055
99624W        W67998  41.023  25.054  13.854
99625W        W67999  29.032   0.441  10.644
99626W        W68000  43.464   9.377  12.958
99627W        W68001  31.633  14.709   3.315
99628W        W68002   4.342  22.721   1.379
99629W        W68003  10.307  12.265  12.543
99630W        W68004   5.862  24.679  10.431
99631W        W68005  36.908  29.647  10.491
99632W        W68006  41.889  29.977   3.829
99633W        W68007  18.551   5.704   3.650
99634W        W68008  17.221  12.666  13.445
99635W        W68009  41.812  17.092  10.086
99636W        W68010  24.074  40.530   4.779
99637W        W68011   1.967  44.993  11.570
99638W        W68012  35.059  21.716  12.915
99639W        W68013   3.449  19.579  13.047
99640W        W68014  30.524  39.344   0.746
99641W        W68015   8.196  26.028  12.483
99642W        W68016  32.944  38.489  13.979
99643W        W68017  41.028  34.052  14.845
99644W        W68018   7.724  43.950   0.821
99645W        W68019   5.713  26.000  14.911
99646W        W68020  33.434  41.368   0.467
99647W        W68021  16.792  42.988  13.019
99648W        W68022   7.675  10.308  13.404
99649W        W68023  28.511  17.615  12.381
99650W        W68024   2.389  35.892  14.859
99651W        W68025   7.843  18.097   3.207
99652W        W68026  25.708  11.270  14.913
99653W        W68027   1.266  26.105  13.001
99654W        W68028  24.590  30.653  11.537
99655W        W68029  32.408  37.553  12.881
99656W        W68030   9.722  38.486   1.845
99657W        W68031   7.732  32.421  14.288
99658W        W68032   1.453  17.066  11.004
99659W        W68033  25.987  39.462  12.542
99660W        W68034  19.646   4.757   3.367
99661W        W68035  18.746   4.838  14.435
99662W        W68036   2.962   8.667  14.028
99663W        W68037   6.908  22.606   2.709
99664W        W68038  37.341  26.614   4.323
99665W        W68039  28.018  35.050  11.931
99666W        W68040  39.917  33.890  12.495
99667W        W68041  35.368  34.372   0.444
99668W        W68042  13.836  30.462  10.515
99669W        W68043  13.787  17.765  14.290
99670W        W68044   4.832  19.236   3.345
99671W        W68045  19.264  16.107   3.282
99672W        W68046  44.004  10.342  11.581
99673W        W68047  33.490  31.447   1.388
99674W        W68048  39.314  26.119  12.342
99675W        W68049  40.956  26.470   2.351
99676W        W68050   7.775   7.382  11.120
99677W        W68051  24.066  42.986   3.156
99678W        W68052  30.481  28.598  12.031
99679W        W68053   2.288  24.123   3.317
99680W        W68054  24.689  25.553   0.818
99681W        W68055  18.202  43.998   4.287
99682W        W68056  32.552  44.276   1.858
99683W        W68057  22.083  12.771  14.466
99684W        W68058  36.370  42.502  14.451
99685W        W68059  38.368  10.211   1.790
99686W        W68060  18.615  33.452  14.501
99687W        W68061  15.222  22.667  14.369
99688W        W68062  16.798  34.391   1.752
99689W        W68063  30.560   9.234  12.541
99690W        W68064  22.062   9.393   1.220
99691W        W68065  43.993  17.770  13.353
99692W        W68066  39.876  32.404   4.308
99693W        W68067  37.431  42.847  14.849
99694W        W68068  26.092   4.261  13.411
99695W        W68069  43.299   1.829  12.922
99696W        W68070  39.384  18.251   4.658
99697W        W68071   6.296  30.528   2.320
99698W        W68072  22.512  19.615   0.480
99699W        W68073  38.406  21.524  14.944
99700W        W68074  44.921  39.950   1.347
99701W        W68075   9.180  41.934  14.863
99702W        W68076  24.714  24.006  13.477
99703W        W68077  37.080  20.168  12.900
99704W        W68078  38.894   3.712   0.818
99705W        W68079   7.892  12.781   4.127
99706W        W68080  28.113  38.004  12.890
99707W        W68081   6.333   3.256   5.648
99708W        W68082  44.875  10.213   4.352
99709W        W68083  40.313   1.972   1.931
99710W        W68084  41.408  20.234  13.328
99711W        W68085  37.535  20.213   4.788
99712W        W68086  31.617  12.278  14.906
99713W        W68087   4.763  44.264  12.448
99714W        W68088  30.912  27.943   4.654
99715W        W68089  11.679  33.428   0.893
99716W        W68090  41.908  40.432  10.449
99717W        W68091  31.519   3.426   4.704
99718W        W68092   1.352  12.818  10.961
99719W        W68093  30.086  26.516   4.789
99720W        W68094   5.320  16.626   0.837
99721W        W68095  25.085  17.158   0.901
99722W        W68096   5.208  43.391  14.980
99723W        W68097  13.179  27.607  13.909
99724W        W68098   1.405  31.104  10.436
99725W        W68099  34.514  19.120   0.730
99726W        W68100  34.449  32.929  13.022
99727W        W68101  43.824   2.260  10.477
99728W        W68102  32.110  38.353   2.825
99729W        W68103  38.022  14.717  10.963
99730W        W68104  34.553  37.563   5.238
99731W        W68105  24.230  22.251   1.868
99732W        W68106  19.139  20.587   2.415
99733W        W68107  40.047  28.527   4.609
99734W        W68108  38.517   3.423   2.753
99735W        W68109  25.697  12.340  12.005
99736W        W68110   9.720  34.609   4.607
99737W        W68111   7.298  26.505   4.324
99738W        W68112  17.763  23.206  11.467
99739W        W68113   4.809  27.668   4.220
99740W        W68114  42.521  22.231   1.785
99741W        W68115  11.706   0.777   4.325
99742W        W68116   5.357  13.167   3.755
99743W        W68117  35.485   9.883   3.842
99744W        W68118  23.591   9.393   4.716
99745W        W68119  19.244  14.610   2.382
99746W        W68120  12.122  44.953  13.858
99747W        W68121  39.464  11.756   3.292
99748W        W68122  40.970  14.309   2.717
99749W        W68123   9.759  16.773   0.839
99750W        W68124  38.854  33.118   3.165
99751W        W68125   7.826  27.079  14.004
99752W        W68126   5.333  28.988  11.496
99753W        W68127  16.685  15.646  10.970
99754W        W68128  17.796   7.244  11.120
99755W        W68129  34.574  27.946   0.357
99756W        W68130  17.273   5.239   3.863
99757W        W68131  38.536  19.122   3.667
99758W        W68132  20.077  23.559   0.867
99759W        W68133  13.603  37.088   0.837
99760W        W68134  24.082  17.086   3.656
99761W        W68135  42.819  37.515  14.856
99762W        W68136  20.555  10.303   2.812
99763W        W68137  22.016   0.770  14.488
99764W        W68138  24.981  12.619  12.922
99765W        W68139  29.487  42.335  12.032
99766W        W68140   8.279   7.329  13.500
99767W        W68141  33.480  33.043   4.768
99768W        W68142   8.818  21.195  14.299
99769W        W68143  22.611  23.222  12.932
99770W        W68144  40.438  16.775   2.405
99771W        W68145  37.988   7.213  14.878
99772W        W68146  42.018  35.915  11.435
99773W        W68147  12.661   2.293   4.798
99774W        W68148   9.195  10.725  13.462
99775W        W68149  19.612   6.234   3.288
99776W        W68150  23.577  11.647  12.440
99777W        W68151   7.708  23.102  14.911
99778W        W68152  31.597  36.467  13.003
99779W        W68153  29.555  38.040  13.518
99780W        W68154  30.967  43.985  11.957
99781W        W68155  44.834  29.090  13.320
99782W        W68156  26.680  13.105   0.313
99783W        W68157  17.564   1.959  14.951
99784W        W68158  22.558   5.245   2.372
99785W        W68159  18.260  41.404  12.928
99786W        W68160   7.225  43.795  11.413
99787W        W68161   5.434  34.480   4.836
99788W        W68162  11.323  39.940   0.354
99789W        W68163  40.460  15.677   2.312
99790W        W68164   5.416  11.688  11.400
99791W        W68165  34.946  36.096  11.964
99792W        W68166  33.621  39.481  12.434
99793W        W68167  23.672  37.917  10.933
99794W        W68168  11.260  44.781  14.406
99795W        W68169  36.393  37.955   2.780
99796W        W68170  41.407  34.938   3.732
99797W        W68171  28.533  12.724   3.163
99798W        W68172  10.794   3.786  13.360
99799W        W68173  38.903   5.307  14.423
99800W        W68174  28.455  42.937  14.392
99801W        W68175  14.264  30.524   4.611
99802W        W68176  29.539  16.793   1.357
99803W        W68177   2.360  27.022  14.983
99804W        W68178   7.825  29.057   2.398
99805W        W68179  28.651  13.736  12.870
99806W        W68180  16.149  36.360  11.082
99807W        W68181   1.278  25.179   0.350
99808W        W68182  26.134  13.642   4.281
99809W        W68183  11.730  34.049   2.828
99810W        W68184  22.023  30.050   5.258
99811W        W68185  41.434  20.643  11.542
99812W        W68186  17.629  12.156  11.990
99813W        W68187  23.646  34.086   3.366
99814W        W68188   6.349  21.228   3.153
99815W        W68189   6.231  14.689  12.482
99816W        W68190   5.857  37.847  13.937
99817W        W68191  13.758  16.274  11.858
99818W        W68192   8.369  25.982   9.642
99819W        W68193  32.529  38.009  12.424
99820W        W68194  42.824  25.667  11.588
99821W        W68195  17.158   6.686   0.934
99822W        W68196  14.185  32.915  14.311
99823W        W68197  17.617  15.634  12.553
99824W        W68198   7.730  11.622  12.440
99825W        W68199  12.239   0.983   1.328
99826W        W68200  43.362  38.075   3.151
99827W        W68201  43.900  41.430   1.771
99828W        W68202  23.555   7.748  10.464
99829W        W68203  37.444  25.685   0.392
99830W        W68204  23.119  36.952   1.284
99831W        W68205  22.243  11.178  12.488
99832W        W68206  30.517  34.443  10.977
99833W        W68207   5.698  32.528   2.371
99834W        W68208  37.525  11.206  13.337
99835W        W68209  22.149  40.517   5.082
99836W        W68210   1.835  42.805   2.824
99837W        W68211  22.147  20.216  12.430
99838W        W68212  18.249  38.005  14.779
99839W        W68213   5.423   2.959  13.353
99840W        W68214  40.487   6.871  14.422
99841W        W68215   4.385  17.720  13.350
99842W        W68216  26.486  31.464   1.781
99843W        W68217  24.000  21.172  10.525
99844W        W68218  23.067   7.697   2.376
99845W        W68219  19.232  25.005  12.370
99846W        W68220  33.878  38.531  10.549
99847W        W68221  28.583  12.616   0.805
99848W        W68222  30.659   0.800   2.240
99849W        W68223   4.845  27.478   0.414
99850W        W68224  15.097  30.926   1.878
99851W        W68225   6.297  34.452  12.908
99852W        W68226  34.068   4.819  14.934
99853W        W68227  32.456  11.303  12.061
99854W        W68228  20.739  11.791  12.576
99855W        W68229  19.623  37.547  12.933
99856W        W68230  43.431  32.941   4.341
99857W        W68231   5.334  28.174  14.965
99858W        W68232  43.839  18.144  11.955
99859W        W68233   5.356  26.555  12.908
99860W        W68234  22.186   3.358  13.894
99861W        W68235   8.329  20.031  14.831
99862W        W68236  33.924  10.383   0.846
99863W        W68237   3.423  13.347  11.870
99864W        W68238  11.769  42.840   5.115
99865W        W68239   9.800  14.682  13.060
99866W        W68240   8.783  22.618   3.753
99867W        W68241  40.887  30.034   2.675
99868W        W68242  17.076  10.855  13.348
99869W        W68243  14.326  20.220   1.921
99870W        W68244  23.152  38.536   2.858
99871W        W68245  15.586  29.944   1.291
99872W        W68246   8.729  43.963  12.450
99873W        W68247  20.598  26.680   4.640
99874W        W68248   8.268  20.716  14.459
99875W        W68249  16.720  18.168  14.937
99876W        W68250  42.334  38.335   3.814
99877W        W68251  24.577   9.313  13.494
99878W        W68252  36.949  14.779   4.238
99879W        W68253   9.855  42.807   1.849
99880W        W68254  22.035  27.964  12.476
99881W        W68255  13.264  35.471   1.740
99882W        W68256  40.521  21.530  14.474
99883W        W68257   2.896   0.823  13.519
99884W        W68258   7.843  41.341  11.601
99885W        W68259  29.432  35.415   4.778
99886W        W68260  38.519  30.981  11.536
99887W        W68261  16.134  35.046  11.920
99888W        W68262  21.122   9.795  12.484
99889W        W68263  41.303  43.435   0.807
99890W        W68264  40.919  16.719   3.840
99891W        W68265  34.082  28.499   3.336
99892W        W68266   0.322  17.677  12.546
99893W        W68267  30.128  27.198  12.080
99894W        W68268   9.201  43.398   3.203
99895W        W68269  43.831  34.526  11.431
99896W        W68270  15.317  33.096   3.320
99897W        W68271  12.674  30.452  13.425
99898W        W68272  18.244  27.470   0.836
99899W        W68273  22.224  30.096   3.767
99900W        W68274  17.174  14.115   0.951
99901W        W68275  23.091  21.624  14.388
99902W        W68276  23.150  18.660  14.820
99903W        W68277   4.309  21.591  11.609
99904W        W68278  23.206  13.710   1.371
99905W        W68279  44.932  31.586   4.275
99906W        W68280  21.679  38.014   5.602
99907W        W68281  32.983  43.774   2.744
99908W        W68282  10.281  24.495   0.900
99909W        W68283  30.996  30.961   2.338
99910W        W68284  11.299   1.917   2.820
99911W        W68285  16.746   7.348   1.759
99912W        W68286  18.655   8.897  10.508
99913W        W68287  31.149   2.852  10.912
99914W        W68288   0.249  16.692  11.588
99915W        W68289  17.298  35.934   2.243
99916W        W68290  41.036  28.491  11.008
99917W        W68291  13.201  16.756   4.708
99918W        W68292   1.839  12.190  12.026
99919W        W68293  24.597  13.689  12.998
99920W        W68294   1.321  26.495  12.385
99921W        W68295   9.658  11.227  13.849
99922W        W68296   3.226  24.100   1.447
99923W        W68297   4.878  11.647  12.056
99924W        W68298  36.993  20.594   4.142
99925W        W68299   3.414  34.432   0.898
99926W        W68300  17.137  43.904  14.464
99927W        W68301  41.850  38.465  12.851
99928W        W68302  39.014   7.698  12.865
99929W        W68303  33.474   7.361   1.870
99930W        W68304  15.111  32.400   1.316
99931W        W68305  30.593  36.500  13.935
99932W        W68306   6.345  38.403   4.655
99933W        W68307  33.089  33.501   4.227
99934W        W68308  28.177  37.510   3.794
99935W        W68309  23.595  14.163   3.307
99936W        W68310  19.151  19.767  10.527
99937W        W68311   4.400  14.709  14.302
99938W        W68312   0.802  42.776  11.100
99939W        W68313  12.757   7.343   4.347
99940W        W68314  43.438  38.894   3.800
99941W        W68315  31.950   3.935   0.859
99942W        W68316  13.739  40.389   1.245
99943W        W68317  16.584  13.297  12.442
99944W        W68318   4.406  12.769   1.791
99945W        W68319   9.779   1.407  14.981
99946W        W68320  23.694  14.150  10.527
99947W        W68321  25.579   4.261  11.880
99948W        W68322  17.569  36.857  10.467
99949W        W68323  30.073  34.969  11.474
99950W        W68324  22.704  37.346   1.722
99951W        W68325  38.068  12.831  13.385
99952W        W68326  34.919  18.113   4.191
99953W        W68327  36.971   0.264   1.319
99954W        W68328   4.273  16.193   1.871
99955W        W68329  10.657  27.942  11.089
99956W        W68330   5.723  38.061  14.955
99957W        W68331  11.644  43.993  13.843
99958W        W68332  15.730  35.506   2.313
99959W        W68333  12.261   1.390  10.614
99960W        W68334  44.832  24.146  12.051
99961W        W68335   0.446   6.708   2.685
99962W        W68336  11.675  41.483   5.098
99963W        W68337  39.441  33.464  10.528
99964W        W68338   4.756  34.890   4.152
99965W        W68339  10.861  30.077   2.872
99966W        W68340   7.212  27.599  10.512
99967W        W68341  30.982  10.240  10.013
99968W        W68342   8.717  13.337   1.243
99969W        W68343  31.059  39.024   5.219
99970W        W68344   6.405  30.532   3.732
99971W        W68345  41.889   9.855  11.864
99972W        W68346  15.140  22.062   3.225
99973W        W68347  35.059  11.784  10.990
99974W        W68348  38.440  13.123   1.913
99975W        W68349  25.510  21.205   3.778
99976W        W68350   4.264  14.695  10.913
99977W        W68351   8.806   9.772  11.383
99978W        W68352  13.643   8.177   2.370
99979W        W68353   1.257  41.833   1.847
99980W        W68354  10.346   9.813  14.832
99981W        W68355  40.321  38.894  14.465
99982W        W68356  23.552  11.866  14.490
99983W        W68357   4.314  27.512  14.841
99984W        W68358  27.063  31.958   0.938
99985W        W68359  34.503   6.283   1.752
99986W        W68360  33.123  35.925   3.735
99987W        W68361   4.394  34.539   2.240
99988W        W68362  22.145   7.716   0.736
99989W        W68363  19.634  12.724  12.005
99990W        W68364  17.690  27.591  12.440
99991W        W68365  11.712   1.362   4.670
99992W        W68366  19.596   3.860  11.101
99993W        W68367  42.351  35.044   3.195
99994W        W68368  12.708  40.380  12.561
99995W        W68369  32.931  13.625   0.254
99996W        W68370  17.217  39.533  12.397
99997W        W68371  42.367  17.770  11.900
99998W        W68372  15.817   8.805   0.757
99999W        W68373  43.432   8.825  12.519
    0W        W68374  26.206   1.271  13.542
    1W        W68375  31.512  34.595  11.422
    2W        W68376  42.787  38.047  10.976
    3W        W68377  13.818   7.696   0.476
    4W        W68378  25.558  25.569   0.425
    5W        W68379  38.455   6.846  10.041
    6W        W68380  10.174  41.299   1.309
    7W        W68381   5.211  12.819   3.153
    8W        W68382  17.738  10.833   2.890
    9W        W68383  44.412  10.222  14.958
   10W        W68384  43.922   7.899   1.864
   11W        W68385  44.875  34.967   0.315
   12W        W68386   8.803  14.803   5.084
   13W        W68387  12.143  19.264   1.365
   14W        W68388   4.845  26.144   0.476
   15W        W68389   8.261  25.176  12.959
   16W        W68390  37.562  29.105   2.264
   17W        W68391  24.215  30.042  11.027
   18W        W68392  34.454  22.722  10.902
   19W        W68393  38.429  19.540   1.865
   20W        W68394  41.882   7.382   4.801
   21W        W68395  32.409  30.085   4.288
   22W        W68396  14.786  19.555   1.295
   23W        W68397   1.787   8.890  11.972
   24W        W68398  26.651  11.246  14.416
   25W        W68399  32.899  11.627   0.900
   26W        W68400  23.503  14.803   1.758
   27W        W68401  23.066  11.358  11.129
   28W        W68402  36.454  14.202  10.900
   29W        W68403   3.938   5.708  12.080
   30W        W68404  15.652  23.541   4.225
   31W        W68405  19.631  42.345  13.895
   32W        W68406  42.503  30.534   4.180
   33W        W68407  37.479   6.868   2.230
   34W        W68408  10.800  25.030  11.053
   35W        W68409  11.345  42.434   3.776
   36W        W68410  20.144  20.054   0.957
   37W        W68411  11.840  19.188  14.817
   38W        W68412  24.039  28.592   4.740
   39W        W68413   8.786   9.361   5.265
   40W        W68414  33.077  20.083  11.100
   41W        W68415  41.442  23.712  10.912
   42W        W68416  15.105  28.599   4.775
   43W        W68417  32.100  29.649   2.253
   44W        W68418  23.984  38.414  13.009
   45W        W68419  22.676  10.776  11.103
   46W        W68420   5.369  27.607   4.299
   47W        W68421   2.320   4.755   1.927
   48W        W68422  32.602   0.438  11.607
   49W        W68423  20.169  10.322   1.846
   50W        W68424  22.737   2.275  13.321
   51W        W68425  30.586  37.425  11.503
   52W        W68426   7.414  14.250  13.476
   53W        W68427  14.762  25.664   2.782
   54W        W68428  31.532  31.927   3.185
   55W        W68429  22.649   8.811   1.767
   56W        W68430  36.560  10.251   1.436
   57W        W68431  10.262  22.127  10.934
   58W        W68432  14.119  37.420   5.088
   59W        W68433  20.585  40.425   5.100
   60W        W68434  16.266  15.201   3.683
   61W        W68435  13.638   4.864  13.983
   62W        W68436  42.930  44.008  13.516
   63W        W68437  26.479   6.785   2.187
   64W        W68438   9.375  39.334   1.791
   65W        W68439  43.505  10.364  10.143
   66W        W68440  37.061  41.425  12.469
   67W        W68441  42.804  40.871   4.668
   68W        W68442  37.900  21.166   1.730
   69W        W68443   0.949  37.554  13.432
   70W        W68444   4.388  43.476   1.303
   71W        W68445  25.008   4.224  13.956
   72W        W68446   1.273  26.037  12.442
   73W        W68447  20.064   0.903  10.635
   74W        W68448  34.596   8.818   2.364
   75W        W68449   0.428  16.664  14.975
   76W        W68450  28.599  36.055  13.024
   77W        W68451  14.742  10.280  12.847
   78W        W68452  21.068  19.777   4.302
   79W        W68453  20.227  26.688  13.329
   80W        W68454  17.725  38.852  14.023
   81W        W68455  27.640  33.067   0.841
   82W        W68456   5.705   6.890   0.467
   83W        W68457   5.196  10.853   4.163
   84W        W68458   9.237  32.000  10.014
   85W        W68459  40.416  18.179  14.452
   86W        W68460  19.720  17.590  13.874
   87W        W68461   7.769  20.694  10.505
   88W        W68462   4.321   3.795  10.408
   89W        W68463  26.039  28.482   1.818
   90W        W68464   8.393  38.828  11.415
   91W        W68465   4.297  29.035  10.602
   92W        W68466  28.541  37.403  10.501
   93W        W68467  39.437   8.816  14.295
   94W        W68468  27.551  44.334  13.837
   95W        W68469   1.428  13.637   3.789
   96W        W68470   3.283  33.895  12.364
   97W        W68471   4.394   5.340   2.258
   98W        W68472  18.129  42.361  14.873
   99W        W68473  36.425   8.329   4.820
  100W        W68474  39.888  41.880   1.705
  101W        W68475  28.575   5.221   4.330
  102W        W68476  25.072  18.569  10.048
  103W        W68477   7.858   2.313  13.317
  104W        W68478  21.263  39.553  10.536
  105W        W68479  37.371  34.943   0.435
  106W        W68480  10.796  11.692  10.576
  107W        W68481  29.946  42.921   1.266
  108W        W68482  13.819  17.166  10.546
  109W        W68483  43.997  13.311   0.963
  110W        W68484   4.920  35.543   3.770
  111W        W68485   9.171   6.758  10.409
  112W        W68486  34.025  13.288  10.458
  113W        W68487   5.209  40.853   4.828
  114W        W68488  33.579  41.345  11.576
  115W        W68489  40.905   2.792  11.374
  116W        W68490  11.865   6.200   2.730
  117W        W68491  11.816  30.093  12.065
  118W        W68492  32.902  30.943  14.381
  119W        W68493   5.770  14.619  14.319
  120W        W68494  27.635   6.345   3.658
  121W        W68495  36.878  40.431  12.919
  122W        W68496  21.195  11.726   4.797
  123W        W68497  17.132  22.510  12.001
  124W        W68498  22.697   9.167   1.818
  125W        W68499  10.201   3.306   1.873
  126W        W68500  37.884  17.232   0.762
  127W        W68501  15.178  17.300  14.012
  128W        W68502  31.057  41.464   4.287
  129W        W68503  13.830  20.550   3.710
  130W        W68504  41.376  25.130   3.757
  131W        W68505  10.225  32.915  14.889
  132W        W68506  18.050  29.023  14.011
  133W        W68507  38.901  38.909  12.983
  134W        W68508   6.210  32.043  12.086
  135W        W68509  20.242  27.007   1.422
  136W        W68510  34.063  16.184   2.688
  137W        W68511   4.736   5.926   1.248
  138W        W68512   2.456  30.100  11.572
  139W        W68513  28.144  31.443   0.263
  140W        W68514  43.314   4.791   0.389
  141W        W68515  25.687  41.462  14.426
  142W        W68516  27.141  17.257  12.064
  143W        W68517  35.424  40.498  14.800
  144W        W68518  13.171  30.612   4.177
  145W        W68519   4.713   7.185   3.219
  146W        W68520  21.710  29.441  14.991
  147W        W68521  37.066  28.025  10.538
  148W        W68522  12.618   4.853  11.514
  149W        W68523  15.753  32.103   1.350
  150W        W68524  17.088   3.342  11.984
  151W        W68525  38.445  13.202   2.875
  152W        W68526   6.767  41.039   2.178
  153W        W68527   4.445  39.326   4.289
  154W        W68528   9.736   7.823  13.987
  155W        W68529  24.010  33.611  10.930
  156W        W68530  40.877  39.464   4.295
  157W        W68531  39.845   5.272   4.751
  158W        W68532  42.899  35.521   0.880
  159W        W68533  41.370  18.604   0.794
  160W        W68534  39.514  30.486  14.011
  161W        W68535  26.580  18.554   5.318
  162W        W68536   6.888   0.912   4.306
  163W        W68537  12.189  30.516   3.667
  164W        W68538  20.685  15.317  11.461
  165W        W68539  16.783   0.863  11.451
  166W        W68540  20.130  14.655  12.439
  167W        W68541   3.332  21.233  11.545
  168W        W68542   9.275   9.721   3.286
  169W        W68543  42.448   2.367  13.341
  170W        W68544  20.698  23.993  12.077
  171W        W68545  33.012   1.468   0.815
  172W        W68546   5.719  37.862  13.453
  173W        W68547   2.321  36.429  13.929
  174W        W68548  22.574   2.766  14.931
  175W        W68549  37.394  36.391  11.870
  176W        W68550  33.111  43.323   2.687
  177W        W68551  33.428  17.258   1.384
  178W        W68552  20.038  25.546   1.224
  179W        W68553  30.642  20.043  11.397
  180W        W68554   7.868  11.174  11.485
  181W        W68555  29.509  16.184   4.344
  182W        W68556  17.305  27.093   1.433
  183W        W68557   6.775  20.181   1.897
  184W        W68558  30.033  20.657  14.445
  185W        W68559   0.796  41.029   4.749
  186W        W68560  27.674  34.542  13.896
  187W        W68561   0.963  13.622   2.729
  188W        W68562  32.498  13.664   1.437
  189W        W68563  39.834  23.492  13.832
  190W        W68564  32.984  11.135  12.571
  191W        W68565  35.000   7.904   2.872
  192W        W68566  23.225   4.722   9.992
  193W        W68567  19.160  16.800   2.290
  194W        W68568  18.217  22.620   3.722
  195W        W68569  32.935  15.171  11.896
  196W        W68570  25.561  18.600  12.533
  197W        W68571  25.011  23.515  10.425
  198W        W68572  38.557  32.614   3.814
  199W        W68573   9.843   5.913   3.850
  200W        W68574  11.737   2.279   1.831
  201W        W68575  35.503  14.265  11.520
  202W        W68576   2.230  15.178   4.652
  203W        W68577  17.586  42.456   0.420
  204W        W68578  27.024  17.574  12.023
  205W        W68579  12.665  34.500   0.251
  206W        W68580   4.736  14.120   0.362
  207W        W68581  28.668  19.244  14.772
  208W        W68582  24.109  29.927   2.383
  209W        W68583  39.027  38.400  13.885
  210W        W68584  34.425  19.594  11.581
  211W        W68585  32.480  16.162  13.056
  212W        W68586  22.076  13.225  13.959
  213W        W68587  27.069   8.327  10.631
  214W        W68588  18.565  26.529  10.948
  215W        W68589  25.045  14.622  11.390
  216W        W68590  37.009  31.544  10.945
  217W        W68591  18.693  21.559   0.959
  218W        W68592  31.442  36.061  12.885
  219W        W68593  30.062  29.960  10.437
  220W        W68594  15.770  22.671   5.262
  221W        W68595  28.658  20.230   0.918
  222W        W68596  38.335  31.439  10.905
  223W        W68597  20.541   9.731  12.906
  224W        W68598  23.663  40.050  12.039
  225W        W68599  11.853  22.204  13.451
  226W        W68600  42.011   3.245   1.346
  227W        W68601  10.343   4.819  12.342
  228W        W68602   8.872  36.446  11.967
  229W        W68603   0.283  22.011   0.855
  230W        W68604   3.231  20.545   4.629
  231W        W68605  44.877   7.904  14.029
  232W        W68606  11.336  20.268  13.960
  233W        W68607   5.347  44.808   2.263
  234W        W68608  17.237  34.037   2.733
  235W        W68609   4.795  34.532   0.461
  236W        W68610  15.215  13.781   4.699
  237W        W68611   4.848   1.414   2.383
  238W        W68612  41.489  34.483  14.279
  239W        W68613  18.142  35.494  12.339
  240W        W68614  11.297  24.516  14.937
  241W        W68615  22.564  25.706   4.154
  242W        W68616  27.451  18.758  11.465
  243W        W68617  31.518  30.022  13.858
  244W        W68618  38.076  23.709   5.189
  245W        W68619  26.192  11.305  12.565
  246W        W68620  30.053  35.380  14.280
  247W        W68621  17.127   3.417  10.991
  248W        W68622  17.297  18.604   1.259
  249W        W68623  28.563  28.180   0.922
  250W        W68624  22.040  42.290   1.802
  251W        W68625  29.496  18.607  13.855
  252W        W68626  27.138  26.009  11.450
  253W        W68627   3.433  29.950   2.345
  254W        W68628  21.239  27.017   3.181
  255W        W68629   6.711   6.322  14.865
  256W        W68630  41.419  36.368  10.525
  257W        W68631  37.544  21.059  12.562
  258W        W68632  16.095   4.886   0.866
  259W        W68633  15.201   7.294  14.444
  260W        W68634  17.093  11.767  10.902
  261W        W68635  12.622   4.810  13.813
  262W        W68636  43.335   4.378   0.963
  263W        W68637  12.731  33.538  12.345
  264W        W68638  19.615  37.388  12.053
  265W        W68639  25.036  23.192  11.995
  266W        W68640  12.116   7.209  14.823
  267W        W68641  43.810  14.726  11.501
  268W        W68642  36.089  24.159   4.200
  269W        W68643  21.223  19.191   2.235
  270W        W68644   4.731  10.701   1.328
  271W        W68645  21.713  44.409   1.264
  272W        W68646  10.701  41.451  14.486
  273W        W68647   3.746  31.007   3.321
  274W        W68648  33.548  14.329  10.939
  275W        W68649  16.282  40.799  13.810
  276W        W68650   8.166   6.792   0.296
  277W        W68651  10.199  21.567  12.017
  278W        W68652  15.303  27.016  12.552
  279W        W68653  22.091  36.550   2.255
  280W        W68654  31.014  11.805   4.805
  281W        W68655  29.484  12.751  11.941
  282W        W68656  11.281  32.395  14.812
  283W        W68657   7.692  20.132   0.299
  284W        W68658   0.304  26.200   2.401
  285W        W68659   1.954  15.247  10.417
  286W        W68660  41.471   8.389  12.473
  287W        W68661  22.095   2.410  11.494
  288W        W68662  34.063  24.131   3.285
  289W        W68663  28.981  14.143   2.813
  290W        W68664  41.388  12.220  10.921
  291W        W68665  16.756   2.763   0.813
  292W        W68666  10.173   4.406  13.869
  293W        W68667  36.921  35.598  12.475
  294W        W68668   1.897  29.576   1.852
  295W        W68669  10.846  28.607   4.812
  296W        W68670  18.705  44.878  10.906
  297W        W68671  30.161  26.520   3.199
  298W        W68672  12.319  23.077   4.729
  299W        W68673   1.969  38.333  14.833
  300W        W68674  35.416  31.587  12.829
  301W        W68675  18.061   0.410  14.414
  302W        W68676  29.061  34.086   3.721
  303W        W68677  41.492   7.408   2.200
  304W        W68678   9.204   3.227  13.971
  305W        W68679  14.676  26.036   1.389
  306W        W68680  16.257  17.066  13.506
  307W        W68681   5.820  30.501  13.548
  308W        W68682  20.544   6.308  14.846
  309W        W68683  40.510  39.904   2.713
  310W        W68684   7.805  34.925   0.337
  311W        W68685  13.719  38.054   1.922
  312W        W68686   7.290  33.989   2.850
  313W        W68687  37.897  36.480   3.196
  314W        W68688  39.326  13.332  13.860
  315W        W68689  38.882  26.523   4.114
  316W        W68690  40.386   3.229  12.922
  317W        W68691  39.489   3.780   3.162
  318W        W68692  38.835   0.470   3.256
  319W        W68693  24.645  26.998   0.852
  320W        W68694  31.980   7.857  12.868
  321W        W68695  11.282  41.986   0.861
  322W        W68696  44.444  28.995   3.838
  323W        W68697   3.320  26.041  11.484
  324W        W68698  41.372  22.097  12.469
  325W        W68699  41.795   0.974  14.893
  326W        W68700  37.886  10.670   2.239
  327W        W68701  41.961  37.019   3.195
  328W        W68702  43.940  43.453   0.868
  329W        W68703  43.925  36.077   1.323
  330W        W68704  44.914  32.996  13.433
  331W        W68705  22.207  26.051   1.212
  332W        W68706   2.466  19.089  13.819
  333W        W68707  23.988  11.307  11.423
  334W        W68708  42.977   0.323   4.772
  335W        W68709  11.288  11.170   0.326
  336W        W68710  27.656   2.237  10.560
  337W        W68711  28.089  16.154   5.249
  338W        W68712  44.772  19.620  13.526
  339W        W68713  16.719  17.561   3.342
  340W        W68714  23.993  42.354  12.072
  341W        W68715  27.523  43.924  11.547
  342W        W68716   9.290  14.702  14.892
  343W        W68717  25.100   8.335  10.535
  344W        W68718   0.396  43.905   1.436
  345W        W68719  16.148  41.414  11.118
  346W        W68720  24.064  27.948   2.291
  347W        W68721  41.339   6.309   2.229
  348W        W68722   0.883   3.837   2.704
  349W        W68723  36.947  39.524   1.264
  350W        W68724  23.001  17.654   5.124
  351W        W68725   3.811  24.101  14.470
  352W        W68726  43.495   3.841   2.841
  353W        W68727   2.235  37.366   0.786
  354W        W68728  10.637  15.164  12.056
  355W        W68729  42.988  32.139  13.946
  356W        W68730   0.483  41.295  10.423
  357W        W68731  37.581  30.117  13.964
  358W        W68732  44.978  27.107  11.867
  359W        W68733   3.827  30.077  12.345
  360W        W68734  19.197  31.134  14.373
  361W        W68735  29.145  33.626  13.496
  362W        W68736  43.468  23.112   4.797
  363W        W68737  14.285  15.731  13.967
  364W        W68738  18.228  14.100   4.628
  365W        W68739  37.488  21.539  12.016
  366W        W68740  18.683   0.797  12.081
  367W        W68741  27.193  25.138   0.385
  368W        W68742  19.040   8.164  11.014
  369W        W68743   1.933  16.164   2.756
  370W        W68744  27.592  41.511   1.819
  371W        W68745  23.521  29.068  10.094
  372W        W68746  36.068   4.204   1.422
  373W        W68747  25.128  40.419   0.334
  374W        W68748  38.567  23.662   2.337
  375W        W68749  18.679   6.375  11.911
  376W        W68750  25.103  16.760  10.413
  377W        W68751   0.376  20.556   4.215
  378W        W68752  37.554   9.883  12.997
  379W        W68753  43.953  23.549   0.340
  380W        W68754  26.060  17.768   5.747
  381W        W68755  36.555  26.637  12.046
  382W        W68756  31.461  36.572  11.012
  383W        W68757  34.445   2.449   1.833
  384W        W68758  19.766   7.369   1.322
  385W        W68759  31.452   3.444   3.288
  386W        W68760  12.779  30.997  12.534
  387W        W68761  39.888   0.781  14.434
  388W        W68762  31.633   0.301  13.920
  389W        W68763  27.451  34.569   4.601
  390W        W68764   8.232  27.512  10.591
  391W        W68765  30.055  10.749  12.397
  392W        W68766  29.617  30.023   2.221
  393W        W68767   0.423   4.729   4.115
  394W        W68768  42.028  25.474  14.813
  395W        W68769  37.840  31.120   2.215
  396W        W68770  11.856  10.862  14.845
  397W        W68771  11.282  15.646   0.423
  398W        W68772  17.596  27.469  11.472
  399W        W68773  29.484  10.207  13.523
  400W        W68774  37.873  19.605  10.963
  401W        W68775  22.527  34.490  12.441
  402W        W68776  27.622  14.121  14.983
  403W        W68777   2.816  25.055   4.120
  404W        W68778  36.522   5.913  10.539
  405W        W68779  28.632  24.543  13.901
  406W        W68780  17.252  43.462  12.900
  407W        W68781  18.099   8.765  14.472
  408W        W68782  11.232   5.260   0.370
  409W        W68783  24.091   2.906  11.418
  410W        W68784  40.930  18.143  14.943
  411W        W68785  24.982  11.665   2.323
  412W        W68786  39.351  27.122   4.314
  413W        W68787  34.370  21.018   3.275
  414W        W68788  28.036  15.194  14.303
  415W        W68789  41.834  31.987  11.405
  416W        W68790  39.872  23.013  12.089
  417W        W68791  24.552  21.036  14.937
  418W        W68792   0.966  14.329  10.978
  419W        W68793  19.225  24.589   4.248
  420W        W68794   5.263   2.402   4.836
  421W        W68795  18.761   0.280   3.806
  422W        W68796  29.590  13.605  12.032
  423W        W68797  39.927   0.458   2.886
  424W        W68798  18.132  28.992   4.751
  425W        W68799  41.004  25.522  12.824
  426W        W68800  26.168  30.479   2.673
  427W        W68801   6.887   5.781   0.728
  428W        W68802   9.668  21.065   1.266
  429W        W68803  29.054  34.115   0.394
  430W        W68804  20.257  12.318   0.942
  431W        W68805  22.127  42.425   2.855
  432W        W68806  25.565   3.825   4.291
  433W        W68807   6.215  44.324  12.865
  434W        W68808  43.393  40.431  11.607
  435W        W68809   0.873  22.073  13.888
  436W        W68810  22.526  17.722  10.950
  437W        W68811  39.031  12.202   3.778
  438W        W68812  16.589  33.590  12.553
  439W        W68813  21.576  39.438  14.874
  440W        W68814  15.685  22.162   1.887
  441W        W68815  23.562  24.587   4.264
  442W        W68816   6.892   2.336   0.740
  443W        W68817  13.742  38.073  10.584
  444W        W68818  12.226   3.303  10.959
  445W        W68819   4.298  30.471  11.888
  446W        W68820  30.448  20.730   1.740
  447W        W68821   6.823  15.200  11.395
  448W        W68822  33.566  16.266  14.954
  449W        W68823  22.525  32.528  13.854
  450W        W68824   1.909  42.420   2.742
  451W        W68825   0.248  43.446   0.814
  452W        W68826  24.713  18.163  13.853
  453W        W68827  34.430  39.438   2.881
  454W        W68828  22.007  38.941  12.945
  455W        W68829  25.545   4.871  13.056
  456W        W68830  25.490  42.996   1.279
  457W        W68831  26.124  10.227  14.823
  458W        W68832  39.324  20.245  12.865
  459W        W68833   8.838  10.190  14.401
  460W        W68834  24.545  40.408   0.353
  461W        W68835  26.627   4.832  10.606
  462W        W68836  30.921  16.751   2.672
  463W        W68837  32.421  36.561   2.708
  464W        W68838   2.961  18.197   0.809
  465W        W68839  13.249  25.036   3.318
  466W        W68840  15.139   4.385  11.388
  467W        W68841  23.158  30.567  12.377
  468W        W68842  37.005  43.868  11.378
  469W        W68843  17.797  20.145   1.367
  470W        W68844   1.813  37.876   3.330
  471W        W68845  36.561   0.416  14.826
  472W        W68846  13.199  10.866  12.838
  473W        W68847   7.760  34.013  13.058
  474W        W68848  12.746   0.329   4.610
  475W        W68849   8.724  38.537  12.913
  476W        W68850  15.182  35.004   2.210
  477W        W68851  11.659  28.143   0.755
  478W        W68852  18.128  18.082   2.770
  479W        W68853  41.501  33.042  10.634
  480W        W68854  14.634   4.711   0.397
  481W        W68855  34.902   9.764  13.876
  482W        W68856   8.270  18.725   2.676
  483W        W68857  18.151  32.005   4.203
  484W        W68858  40.999  31.508  12.921
  485W        W68859   7.254  22.663   5.221
  486W        W68860  37.434   0.456   3.326
  487W        W68861   9.833  43.814   4.634
  488W        W68862  10.144  35.593  10.464
  489W        W68863  21.138   2.954   2.239
  490W        W68864  39.540  43.857   1.723
  491W        W68865  36.388  24.045   3.810
  492W        W68866  11.328   6.712  14.470
  493W        W68867  23.112   9.697  12.359
  494W        W68868  19.063  20.572  12.413
  495W        W68869   0.948  17.574   0.456
  496W        W68870   3.796  33.394   3.821
  497W        W68871  15.181  16.240   2.769
  498W        W68872  36.014   6.865  13.533
  499W        W68873   2.935  41.385  12.075
  500W        W68874  14.733  33.602  11.499
  501W        W68875  44.939  18.235   4.826
  502W        W68876   2.373  35.558  10.592
  503W        W68877  37.361  42.950   2.738
  504W        W68878   3.777  17.607   3.226
  505W        W68879   3.395  26.506  14.328
  506W        W68880  27.587  22.158   0.465
  507W        W68881  12.284  42.775   0.323
  508W        W68882  31.583   2.261  12.496
  509W        W68883  27.024  21.203  14.376
  510W        W68884   0.391  25.194  11.095
  511W        W68885  40.863   9.186   1.754
  512W        W68886  36.524  23.141  12.090
  513W        W68887   5.740  44.493   2.879
  514W        W68888  24.679  40.365  11.513
  515W        W68889  30.625   2.919   2.708
  516W        W68890   7.710   9.684   0.436
  517W        W68891  23.594  14.334  11.574
  518W        W68892   5.231  29.548   0.330
  519W        W68893  24.196  13.779   4.262
  520W        W68894  32.046  12.342  10.902
  521W        W68895  18.282  29.991   3.277
  522W        W68896  35.013  14.646  14.898
  523W        W68897  26.570  25.685   2.342
  524W        W68898  21.093  36.938   4.801
  525W        W68899  10.670  42.022   0.437
  526W        W68900   9.694  22.627   0.255
  527W        W68901  31.046  21.705  11.949
  528W        W68902  35.094  41.868  12.402
  529W        W68903  26.552  34.443  11.948
  530W        W68904  21.704  14.709  11.461
  531W        W68905   2.354  38.453  12.031
  532W        W68906  25.171  35.509  14.801
  533W        W68907  31.049   9.332  13.958
  534W        W68908  43.851  34.106  13.810
  535W        W68909  22.064   4.848  12.567
  536W        W68910  30.027  33.967   2.665
  537W        W68911  42.454  27.971   3.329
  538W        W68912   6.689  37.485   3.676
  539W        W68913  43.430  11.316   1.713
  540W        W68914  33.388  34.472  10.031
  541W        W68915  43.792  17.187   4.300
  542W        W68916   9.832  36.980  10.959
  543W        W68917  10.212  34.445  14.849
  544W        W68918  13.312   6.420   0.915
  545W        W68919  29.453   3.943  14.820
  546W        W68920  42.461  33.993   4.708
  547W        W68921  18.063  10.870   2.874
  548W        W68922   9.854  13.281   1.442
  549W        W68923  36.043  32.922  10.513
  550W        W68924  13.714   8.738   2.292
  551W        W68925   1.809  44.335  14.991
  552W        W68926  41.312  37.884  12.010
  553W        W68927  29.172  31.540  10.919
  554W        W68928  12.709  40.358  12.078
  555W        W68929  17.252  14.719   4.832
  556W        W68930   6.301   7.860   4.777
  557W        W68931  10.320  23.491   4.283
  558W        W68932  36.947  40.953  14.940
  559W        W68933  39.490  27.651   0.851
  560W        W68934  30.077   0.330   2.243
  561W        W68935  34.869  14.631   0.340
  562W        W68936   1.434  34.442   0.277
  563W        W68937  23.723  21.757   3.760
  564W        W68938  23.161  33.907  12.456
  565W        W68939  15.710  39.027   3.323
  566W        W68940  22.196  32.609   0.834
  567W        W68941  17.128  19.086  11.579
  568W        W68942  42.900  18.569   3.324
  569W        W68943  27.602  13.787  10.611
  570W        W68944  25.139   0.966  10.519
  571W        W68945  11.627  19.261  13.801
  572W        W68946   6.806  42.287  13.062
  573W        W68947   4.279  40.464  14.764
  574W        W68948  22.071  19.635   0.734
  575W        W68949  13.166  14.095   4.762
  576W        W68950  10.813  43.447   2.769
  577W        W68951  34.389  39.535   4.689
  578W        W68952  33.597  37.903   4.234
  579W        W68953  15.129   6.788   2.255
  580W        W68954  39.343   6.831   4.264
  581W        W68955  23.640  34.961   1.321
  582W        W68956  30.419  36.378   0.903
  583W        W68957   6.919   0.873  12.356
  584W        W68958  35.957   3.825   0.297
  585W        W68959  35.855   5.853  13.476
  586W        W68960  39.319  37.451   5.186
  587W        W68961  41.307  36.376   2.730
  588W        W68962  27.556  17.668   1.778
  589W        W68963  41.342  17.197  13.849
  590W        W68964  20.752  21.545   1.330
  591W        W68965   8.365  27.653  12.070
  592W        W68966  31.976   6.704  13.469
  593W        W68967   8.726   3.289  11.007
  594W        W68968  34.945  40.846  12.994
  595W        W68969  20.203  31.907  12.879
  596W        W68970   9.255  15.707  13.458
  597W        W68971  41.500   9.242   4.628
  598W        W68972  12.330  43.818   4.113
  599W        W68973  21.542  24.059  13.058
  600W        W68974   6.727  22.145  13.948
  601W        W68975  40.974  42.989   1.251
  602W        W68976  22.012  36.374  10.443
  603W        W68977  33.511   7.665   2.778
  604W        W68978  24.081  37.910   1.785
  605W        W68979  11.745  29.947  12.947
  606W        W68980  18.160  42.527   0.342
  607W        W68981   7.908   1.839   5.083
  608W        W68982  40.804  35.059   1.274
  609W        W68983   6.243   6.398  11.968
  610W        W68984   8.706   4.294  10.093
  611W        W68985  23.523   4.810  14.849
  612W        W68986  36.456  27.191   0.951
  613W        W68987  29.001  17.612   3.293
  614W        W68988  35.046   6.810  12.463
  615W        W68989  37.459  39.913   4.668
  616W        W68990  25.506  32.024   4.751
  617W        W68991  17.289  17.556  12.380
  618W        W68992  30.500  31.455   1.392
  619W        W68993  44.268  45.000   9.992
  620W        W68994   0.477  12.699  10.494
  621W        W68995   7.384  28.060   2.351
  622W        W68996  40.969  10.276  13.935
  623W        W68997  39.461   8.329   3.325
  624W        W68998  34.487   0.374   1.811
  625W        W68999  28.520  29.488  14.895
  626W        W69000  20.566   1.736  11.042
  627W        W69001   2.327   1.807   1.321
  628W        W69002   6.737  41.415  11.585
  629W        W69003   9.164   7.774   1.741
  630W        W69004  15.098   9.252  11.432
  631W        W69005  15.188  29.100   3.751
  632W        W69006  42.500  35.964   1.736
  633W        W69007   4.255  15.262   4.146
  634W        W69008  20.524   0.462  12.558
  635W        W69009  14.824   5.805   4.313
  636W        W69010  32.590  43.345   1.933
  637W        W69011  20.061   6.389  11.531
  638W        W69012   0.306   1.377   0.762
  639W        W69013  28.039   1.373   3.181
  640W        W69014  36.873   9.770   5.188
  641W        W69015  22.015  14.782  13.894
  642W        W69016   2.266  17.734   4.208
  643W        W69017  26.958   6.283   3.239
  644W        W69018   6.305   3.802   5.272
  645W        W69019  16.742  26.189  11.914
  646W        W69020  18.194  43.960   0.831
  647W        W69021  21.548  32.434  13.837
  648W        W69022  25.102  10.781  13.926
  649W        W69023  13.136   1.326  11.612
  650W        W69024  11.355  34.948  11.028
  651W        W69025  42.342   5.906   2.317
  652W        W69026  34.000   9.316  11.498
  653W        W69027  40.335  29.642   4.290
  654W        W69028  11.752   2.229  12.059
  655W        W69029   4.767  34.991  12.540
  656W        W69030   7.821  38.907   2.874
  657W        W69031   1.328   3.740   3.758
  658W        W69032  14.170   2.386   2.381
  659W        W69033   7.748   1.844   4.691
  660W        W69034  44.998  38.534  13.919
  661W        W69035  37.520  15.728   2.695
  662W        W69036  42.994  40.377  12.034
  663W        W69037  22.251  22.731  14.016
  664W        W69038  15.247   9.793   2.254
  665W        W69039   2.246  12.652   1.859
  666W        W69040  13.820  15.099  13.990
  667W        W69041  28.524  42.291   5.166
  668W        W69042   6.770  28.934   0.807
  669W        W69043   8.319  22.537  12.545
  670W        W69044  29.168  35.052   1.341
  671W        W69045   8.366  44.991   2.178
  672W        W69046  18.741  28.012   1.771
  673W        W69047  34.960  38.456  13.422
  674W        W69048  36.903  19.578  14.913
  675W        W69049  32.637  15.625   2.786
  676W        W69050   2.245  30.584  13.439
  677W        W69051  22.060   4.816  13.358
  678W        W69052  19.235  18.087  11.969
  679W        W69053  24.012   5.847   4.764
  680W        W69054  40.395  19.135  14.892
  681W        W69055   9.857  26.511  12.522
  682W        W69056  16.250  37.936  14.910
  683W        W69057  15.723  12.199   2.286
  684W        W69058  12.814  11.158  11.102
  685W        W69059   8.863  11.623  12.359
  686W        W69060   5.932   8.382  13.909
  687W        W69061   0.390  12.787  11.076
  688W        W69062  14.279  43.827  10.567
  689W        W69063  42.300  43.956   4.284
  690W        W69064   9.358   3.299   2.692
  691W        W69065  12.152  12.329  14.396
  692W        W69066   5.403   8.258  12.416
  693W        W69067  11.774   1.744  11.078
  694W        W69068  21.669  18.096   4.159
  695W        W69069   4.889  17.156   1.901
  696W        W69070  44.785  35.571  10.435
  697W        W69071  28.553  16.751   4.834
  698W        W69072  39.546  27.581  11.869
  699W        W69073  16.088  23.658  11.584
  700W        W69074  33.398  12.132  11.534
  701W        W69075  24.109  29.495   0.787
  702W        W69076   4.923   2.927  14.961
  703W        W69077   2.301   1.376  13.435
  704W        W69078  14.266  38.405  10.975
  705W        W69079  23.610   7.728   4.743
  706W        W69080   0.248  22.654   0.309
  707W        W69081  21.072   7.401   1.424
  708W        W69082   2.766  21.123  10.560
  709W        W69083  10.148  20.209  12.827
  710W        W69084  33.982  33.061   3.290
  711W        W69085  11.308  13.841   0.766
  712W        W69086  23.723   2.909   4.129
  713W        W69087  26.201  41.805   3.776
  714W        W69088  30.498   3.368  10.529
  715W        W69089  43.294  28.989   2.838
  716W        W69090  11.235  25.583   0.244
  717W        W69091  35.600  30.070  10.422
  718W        W69092  35.047   4.936   3.745
  719W        W69093  40.333  10.866  10.930
  720W        W69094   9.198  25.212  13.022
  721W        W69095  16.181  42.965   2.836
  722W        W69096  18.651  21.613  12.422
  723W        W69097  30.126   6.257  12.093
  724W        W69098   2.752   6.207   4.198
  725W        W69099  38.927  38.530  11.014
  726W        W69100  36.556   8.208  14.823
  727W        W69101  28.087  30.505   1.401
  728W        W69102  43.999   0.779  13.890
  729W        W69103   1.287  39.989   0.732
  730W        W69104  15.102  20.108  13.318
  731W        W69105   5.929  21.551   3.247
  732W        W69106  13.669  40.797  12.568
  733W        W69107  28.628  43.768  12.950
  734W        W69108  37.989   7.176   5.285
  735W        W69109   8.819   0.745   2.312
  736W        W69110  25.584  17.140   9.962
  737W        W69111   3.842  13.757  13.000
  738W        W69112  33.467  42.324   3.745
  739W        W69113  17.666  32.636  10.968
  740W        W69114   6.832  25.128   2.861
  741W        W69115  17.800   2.336   1.220
  742W        W69116   6.787  16.284   0.437
  743W        W69117  22.574  32.495   4.157
  744W        W69118   8.387  18.216   9.527
  745W        W69119  33.533   8.371   9.941
  746W        W69120  35.470  17.634   1.745
  747W        W69121  23.527  17.628  10.414
  748W        W69122  34.868  23.615  14.365
  749W        W69123  30.603  42.813  14.019
  750W        W69124   9.725  26.165  11.428
  751W        W69125  33.468  10.274  11.072
  752W        W69126  36.363  42.905  12.545
  753W        W69127  39.869  39.870   1.297
  754W        W69128   4.857   3.408   3.363
  755W        W69129  25.587  11.815   4.682
  756W        W69130  12.157  23.050  11.036
  757W        W69131   1.346  22.164   2.306
  758W        W69132  35.857  44.813   1.851
  759W        W69133  40.889   5.693   1.718
  760W        W69134  28.644  15.758  11.022
  761W        W69135   8.743  34.393  12.474
  762W        W69136  10.644  22.670  11.993
  763W        W69137   4.404  36.533  12.464
  764W        W69138  22.706   5.206  14.935
  765W        W69139  20.528  11.265  11.035
  766W        W69140  20.700  40.524   1.933
  767W        W69141  26.008  17.097   0.811
  768W        W69142  30.587  24.621   2.412
  769W        W69143   8.750  38.365  11.423
  770W        W69144  18.140  23.686  10.519
  771W        W69145  40.403   5.416  10.998
  772W        W69146   2.788  32.497   3.632
  773W        W69147  27.633  33.987   1.904
  774W        W69148  18.143  14.308   0.767
  775W        W69149  18.230  13.815   3.164
  776W        W69150  31.507  30.496   1.411
  777W        W69151  32.592  43.016  10.519
  778W        W69152  43.279  25.990   4.629
  779W        W69153  31.971  16.748  10.500
  780W        W69154  41.422  17.079  12.441
  781W        W69155  44.435  22.162   0.475
  782W        W69156  15.795  42.348  13.528
  783W        W69157  32.564  11.320  12.362
  784W        W69158  26.118  30.058  11.995
  785W        W69159   7.743  13.315  10.953
  786W        W69160   4.893  21.101   4.304
  787W        W69161  14.179   3.259   0.353
  788W        W69162  25.555  17.782   4.147
  789W        W69163  32.961  25.187   1.883
  790W        W69164  44.347  32.396   4.810
  791W        W69165  23.068  22.710   4.173
  792W        W69166  10.372  23.712  14.477
  793W        W69167   6.888  41.445   4.630
  794W        W69168  26.136  14.773   2.719
  795W        W69169   5.426  41.905  13.825
  796W        W69170  20.692  25.037  13.816
  797W        W69171  28.603  11.645  11.913
  798W        W69172  37.551  33.550   4.788
  799W        W69173  28.474   1.329   9.643
  800W        W69174  35.392  11.142   2.390
  801W        W69175  18.173  11.668   0.379
  802W        W69176  36.393  35.891  10.895
  803W        W69177  20.246  33.014   1.738
  804W        W69178   8.376  31.518   0.745
  805W        W69179  27.154  40.898   3.811
  806W        W69180  37.539   4.771   5.313
  807W        W69181  20.612  27.089   3.750
  808W        W69182   8.774  10.178  12.976
  809W        W69183  38.955  18.597  14.476
  810W        W69184   1.408  41.497   3.724
  811W        W69185  36.513  17.168   1.396
  812W        W69186  24.554   1.308  13.900
  813W        W69187  24.145  15.630   3.804
  814W        W69188  24.608  11.250  11.903
  815W        W69189   6.802  30.605  12.477
  816W        W69190   9.792   9.314   4.308
  817W        W69191  13.231  40.972  14.806
  818W        W69192   7.297   5.927  10.978
  819W        W69193  10.365  27.632  10.094
  820W        W69194  35.043  16.181  13.980
  821W        W69195  22.538  28.038   2.816
  822W        W69196  34.558  43.942  13.443
  823W        W69197  25.647  15.716   5.139
  824W        W69198  43.331  29.432   4.748
  825W        W69199  31.899  38.868   2.341
  826W        W69200  38.349   1.934  13.927
  827W        W69201  15.773  27.026  14.392
  828W        W69202   0.463  36.451  12.443
  829W        W69203  23.999  30.091   2.679
  830W        W69204  39.372  23.561  12.954
  831W        W69205  38.492  38.553   3.351
  832W        W69206  26.589  42.001  10.992
  833W        W69207  23.509  15.655   3.318
  834W        W69208   3.809  17.111   2.356
  835W        W69209   4.927  23.717   3.749
  836W        W69210  22.022  17.072   0.329
  837W        W69211  34.555  38.874   2.796
  838W        W69212  24.712   7.269  11.000
  839W        W69213  27.110  27.171  13.908
  840W        W69214  44.940  27.666   3.318
  841W        W69215  13.750  15.733   4.804
  842W        W69216   9.833  25.211   1.245
  843W        W69217  27.162  29.029  14.791
  844W        W69218  26.158  10.319   3.802
  845W        W69219   9.208  19.583   4.637
  846W        W69220  31.606   3.323  10.566
  847W        W69221  29.579  12.125   0.450
  848W        W69222   6.346  16.675   2.673
  849W        W69223  38.546  32.136  12.406
  850W        W69224  44.987  12.315  10.449
  851W        W69225  23.544  43.002  10.584
  852W        W69226  33.398  38.458  14.782
  853W        W69227  12.683  24.040  11.057
  854W        W69228  23.701  25.071  10.959
  855W        W69229  20.577  38.912   2.237
  856W        W69230   9.677  26.181   1.401
  857W        W69231  38.000  44.379  13.840
  858W        W69232  36.972   5.295   1.255
  859W        W69233  44.997  42.953  14.864
  860W        W69234  21.611  19.226   2.764
  861W        W69235  10.655  31.112  10.601
  862W        W69236  39.825  16.588   3.275
  863W        W69237  30.151  15.289   3.829
  864W        W69238  15.129  30.952   2.711
  865W        W69239  42.523  41.820  10.492
  866W        W69240   8.819   9.734   3.201
  867W        W69241  30.088  17.643   3.148
  868W        W69242   1.906  36.577  13.533
  869W        W69243  20.097  28.935  14.805
  870W        W69244  29.550  18.059  12.954
  871W        W69245  35.555  38.048   1.744
  872W        W69246   9.202  25.645  12.824
  873W        W69247  25.023  14.759  10.972
  874W        W69248  38.551  40.911   0.458
  875W        W69249  28.574  42.021   3.200
  876W        W69250   0.813  35.915  10.144
  877W        W69251  34.579  32.516  13.902
  878W        W69252   0.319  22.237   4.143
  879W        W69253  30.139  44.855  11.891
  880W        W69254  34.431  44.886  10.929
  881W        W69255  21.138  32.452   3.833
  882W        W69256  29.024  10.188   4.702
  883W        W69257   9.684   3.382  10.465
  884W        W69258  32.891   8.308  12.027
  885W        W69259  38.425   2.263  14.804
  886W        W69260  41.432   6.316   3.328
  887W        W69261  12.306  33.962   0.733
  888W        W69262   4.909  16.226   4.698
  889W        W69263  40.830   7.363  11.432
  890W        W69264  43.390   4.874   3.713
  891W        W69265  21.631  38.364   1.427
  892W        W69266   3.383  18.292   1.761
  893W        W69267  12.199  14.269  13.420
  894W        W69268   9.159  43.907  14.795
  895W        W69269  10.879  35.053   0.732
  896W        W69270   3.284  42.455   0.382
  897W        W69271  12.821   7.399   4.689
  898W        W69272  14.827   9.247   4.215
  899W        W69273  42.498  42.946   0.327
  900W        W69274  34.517   4.797  14.986
  901W        W69275   2.962  19.167   4.834
  902W        W69276  33.387  36.926   4.655
  903W        W69277   0.263  41.371   4.125
  904W        W69278  28.096  36.074   0.398
  905W        W69279  15.627  28.130  13.009
  906W        W69280  36.377   3.271  13.877
  907W        W69281  20.252  23.028   2.294
  908W        W69282  25.982  38.938  14.931
  909W        W69283  41.022   7.857   0.876
  910W        W69284   1.947   8.220  14.354
  911W        W69285   5.367  36.493  11.536
  912W        W69286  12.843  43.446  12.472
  913W        W69287  23.053  26.540   0.803
  914W        W69288  43.375  22.660   0.463
  915W        W69289  20.706  17.081  11.936
  916W        W69290   8.794  21.174   3.212
  917W        W69291  22.167  22.999   3.783
  918W        W69292  22.575  37.441   3.679
  919W        W69293  23.234  40.984  12.934
  920W        W69294  20.629  29.498   3.832
  921W        W69295  29.118   3.863  10.428
  922W        W69296  21.715  22.189   4.254
  923W        W69297  28.007  23.707  14.303
  924W        W69298   3.834  35.371   3.852
  925W        W69299  18.131  44.429  13.527
  926W        W69300  15.599  27.497   0.738
  927W        W69301  28.069  28.017   0.381
  928W        W69302   6.680  24.159   4.163
  929W        W69303  22.137  27.082   0.784
  930W        W69304  37.051  41.966  11.968
  931W        W69305  10.236  20.702  14.906
  932W        W69306   9.246   0.791  11.546
  933W        W69307   1.915  10.812   2.902
  934W        W69308   6.719   7.910   4.276
  935W        W69309   9.761  24.498  13.004
  936W        W69310  19.215  19.278   3.235
  937W        W69311  32.456  24.189  12.901
  938W        W69312  35.056  14.265  13.347
  939W        W69313   0.912   6.313  13.896
  940W        W69314  27.561  36.986   4.316
  941W        W69315  30.442  29.996   2.354
  942W        W69316  18.142  41.453   2.884
  943W        W69317  22.175  25.584   1.852
  944W        W69318   7.704   5.834  12.913
  945W        W69319  41.008  16.099   0.730
  946W        W69320  23.100  28.166  14.927
  947W        W69321  39.041  10.213  10.093
  948W        W69322  21.692   5.194   0.422
  949W        W69323  43.400  10.729   1.719
  950W        W69324  37.897  41.828  13.497
  951W        W69325   9.385  22.183   0.779
  952W        W69326   3.365  33.052   2.867
  953W        W69327   6.911  28.491   4.158
  954W        W69328   3.430   8.831  12.874
  955W        W69329  14.252   4.235   3.304
  956W        W69330  38.070  44.306   0.867
  957W        W69331  25.517  13.137  12.564
  958W        W69332  31.471  17.719   1.788
  959W        W69333  14.804  10.813   2.245
  960W        W69334  36.000   2.326  12.450
  961W        W69335  26.493  13.136   1.926
  962W        W69336  36.901  12.272   0.965
  963W        W69337  23.687  26.700  13.989
  964W        W69338  24.709  15.813  14.464
  965W        W69339  29.039   9.808  12.991
  966W        W69340   0.415  15.787  14.792
  967W        W69341  36.396  40.026  14.019
  968W        W69342   6.202  17.619  10.954
  969W        W69343  27.532   0.810   9.579
  970W        W69344  12.132  13.702  13.992
  971W        W69345  14.304  17.285   2.338
  972W        W69346  42.463  19.704   1.911
  973W        W69347  14.334   4.320  13.512
  974W        W69348  21.195  38.951  10.502
  975W        W69349  31.039  36.348  10.521
  976W        W69350  26.544  33.505   5.250
  977W        W69351  32.928  29.971  11.936
  978W        W69352  27.196  10.184  11.450
  979W        W69353  33.440   5.861   2.793
  980W        W69354   4.738  13.759  14.398
  981W        W69355  29.151   6.300   3.287
  982W        W69356   6.319  26.037  11.552
  983W        W69357   7.283  25.085  10.467
  984W        W69358  35.058  28.128   2.308
  985W        W69359  23.236  33.442  10.911
  986W        W69360   8.767  17.111   3.206
  987W        W69361  27.973  32.631   1.789
  988W        W69362  10.641  27.959  13.868
  989W        W69363  26.619   9.705  12.469
  990W        W69364  27.675  26.633   4.687
  991W        W69365  28.587  28.182   2.689
  992W        W69366  43.280  35.008  12.431
  993W        W69367  43.342  12.274  14.829
  994W        W69368  23.232  12.816  10.410
  995W        W69369  29.088   7.317  11.464
  996W        W69370  17.726  23.240  10.981
  997W        W69371   6.304  20.734   0.961
  998W        W69372  26.535  31.617  12.888
  999W        W69373  30.584  35.940   0.882
 1000W        W69374  39.415  14.160   3.648
 1001W        W69375  34.019   8.678  12.493
 1002W        W69376   3.449   2.852   1.700
 1003W        W69377  16.169  15.248   0.293
 1004W        W69378  27.166  36.520  14.406
 1005W        W69379   3.377  24.691   0.379
 1006W        W69380  15.204  10.158  14.818
 1007W        W69381  39.343   6.352  14.890
 1008W        W69382  18.080  31.626  12.384
 1009W        W69383  33.521  38.485   4.232
 1010W        W69384  21.600  31.409   1.749
 1011W        W69385  37.942   8.254   3.739
 1012W        W69386  27.650  23.092  14.882
 1013W        W69387  32.512  17.715   3.735
 1014W        W69388  12.775  19.100  12.971
 1015W        W69389   4.707  24.529   0.843
 1016W        W69390  28.186  17.736   4.654
 1017W        W69391   7.692   4.346   0.812
 1018W        W69392  17.144  26.115   2.316
 1019W        W69393  40.850  12.744   4.774
 1020W        W69394   6.699   8.216   1.810
 1021W        W69395   4.743  27.974   2.197
 1022W        W69396   6.817  32.940   4.307
 1023W        W69397  30.461   4.741  13.949
 1024W        W69398  40.469  40.991   1.815
 1025W        W69399  28.068  13.811  14.481
 1026W        W69400   8.857   4.407  14.462
 1027W        W69401  39.341  32.943  14.516
 1028W        W69402  19.668  18.659   1.790
 1029W        W69403  17.150  25.670  10.158
 1030W        W69404  27.057  29.615   3.156
 1031W        W69405  30.613  23.630   1.895
 1032W        W69406   7.287  43.851   1.895
 1033W        W69407  26.162  11.801  11.111
 1034W        W69408  18.073  33.953  14.847
 1035W        W69409  30.947   7.232  14.002
 1036W        W69410  21.056   9.380  13.378
 1037W        W69411  35.917  43.978   2.677
 1038W        W69412   0.305   6.415   1.695
 1039W        W69413   5.798  38.469   0.746
 1040W        W69414  34.565   4.908  10.008
 1041W        W69415  31.594   9.695   3.167
 1042W        W69416  26.488  40.448  13.904
 1043W        W69417   8.713  41.300   9.970
 1044W        W69418  22.174  14.766   2.408
 1045W        W69419  32.598   2.384   2.854
 1046W        W69420  19.608  33.131  12.952
 1047W        W69421  18.246  42.943  12.866
 1048W        W69422  14.674  13.840   2.676
 1049W        W69423   9.381  27.499  12.553
 1050W        W69424  30.550  30.447   1.381
 1051W        W69425  23.698   3.269   1.228
 1052W        W69426   5.206  19.661  11.408
 1053W        W69427   6.331  34.075  11.486
 1054W        W69428   5.272  22.243   3.708
 1055W        W69429   0.892  15.667  13.005
 1056W        W69430  41.297  16.656   3.698
 1057W        W69431  39.353  39.463   2.206
 1058W        W69432   9.858  12.326  10.476
 1059W        W69433   3.413  30.497   2.413
 1060W        W69434  22.567  28.123   1.830
 1061W        W69435  39.406  31.488  10.906
 1062W        W69436  21.105   1.461   1.754
 1063W        W69437  17.607  13.290  12.857
 1064W        W69438  13.214   5.885   4.321
 1065W        W69439  26.633  41.397   1.748
 1066W        W69440  22.700   3.842  14.455
 1067W        W69441  24.149  44.349   4.152
 1068W        W69442   7.824   5.836  14.894
 1069W        W69443  12.226  23.725   3.318
 1070W        W69444   9.179   1.351   2.838
 1071W        W69445  23.558  38.515  14.443
 1072W        W69446  36.401  43.370  12.358
 1073W        W69447   2.813   9.886   1.291
 1074W        W69448  16.126   1.808  11.061
 1075W        W69449  14.232  42.434   2.251
 1076W        W69450  27.446  13.112   2.886
 1077W        W69451   5.293  41.041   3.717
 1078W        W69452  26.063  24.114  12.081
 1079W        W69453  23.060  36.864   4.768
 1080W        W69454   5.218  20.762  11.959
 1081W        W69455  31.540  23.203  10.512
 1082W        W69456  18.680  20.086   4.735
 1083W        W69457  42.823  24.067   0.324
 1084W        W69458  18.580  25.600  14.343
 1085W        W69459  37.934  40.381   0.248
 1086W        W69460  31.979  13.140  10.448
 1087W        W69461   3.954  21.749  12.988
 1088W        W69462  23.524  33.080   2.769
 1089W        W69463  20.227  11.675  14.828
 1090W        W69464  36.407  32.905  13.884
 1091W        W69465  36.995   7.212  12.069
 1092W        W69466  27.955  30.522  13.343
 1093W        W69467   6.723  38.433  11.439
 1094W        W69468  17.652  10.210   3.304
 1095W        W69469  10.775  21.580   4.169
 1096W        W69470   3.253   5.367  13.437
 1097W        W69471   2.735  44.505  13.312
 1098W        W69472  35.389  17.647   2.317
 1099W        W69473  42.910  29.149  12.357
 1100W        W69474  25.571  17.090  11.107
 1101W        W69475  27.033  11.131   1.434
 1102W        W69476  33.435  23.078  13.477
 1103W        W69477  15.292  39.455  11.564
 1104W        W69478  13.309   7.196  10.490
 1105W        W69479  23.645  18.719   4.777
 1106W        W69480  25.193  26.091  11.005
 1107W        W69481   1.860  14.693   0.960
 1108W        W69482   4.343   0.986  10.988
 1109W        W69483   3.832  25.997   3.666
 1110W        W69484  35.897  36.362   3.705
 1111W        W69485  35.589   1.937   4.728
 1112W        W69486  32.977  36.988  13.055
 1113W        W69487  16.159   3.731   1.422
 1114W        W69488   7.206   4.207   4.741
 1115W        W69489  20.722  24.543  12.886
 1116W        W69490  17.276   8.876  12.925
 1117W        W69491  40.027   0.767  14.815
 1118W        W69492  23.131  44.428  13.051
 1119W        W69493  26.613  35.597   1.801
 1120W        W69494   9.293  26.471   3.855
 1121W        W69495  17.579  33.468   3.262
 1122W        W69496  39.882  21.073  11.471
 1123W        W69497  35.370  14.107   0.388
 1124W        W69498   8.681  44.439   3.858
 1125W        W69499  43.487   5.888   1.210
 1126W        W69500  14.639  26.591   2.298
 1127W        W69501  16.658  38.486   2.391
 1128W        W69502  24.509  40.832   0.753
 1129W        W69503  31.595  31.563  12.345
 1130W        W69504  21.160  29.626  13.864
 1131W        W69505   2.825  24.638  13.046
 1132W        W69506   7.397  38.962   3.213
 1133W        W69507  39.952  36.083  11.016
 1134W        W69508  35.432  18.107   1.388
 1135W        W69509  12.355  32.588  14.394
 1136W        W69510  12.750  12.144   2.887
 1137W        W69511  39.900   7.698   0.852
 1138W        W69512  10.363   6.325   2.360
 1139W        W69513  28.967   9.191  13.524
 1140W        W69514  13.178  15.099  14.829
 1141W        W69515  10.318  29.628  14.365
 1142W        W69516  33.107  30.498   0.466
 1143W        W69517  20.579   4.376   3.721
 1144W        W69518  26.561  20.587  13.370
 1145W        W69519   5.763   3.712   0.421
 1146W        W69520  24.209  31.495  11.604
 1147W        W69521  17.602  24.142   4.820
 1148W        W69522  44.372  44.798  12.363
 1149W        W69523  10.843  11.192   2.686
 1150W        W69524   6.326  13.250  11.040
 1151W        W69525  19.562   4.409   4.306
 1152W        W69526  42.426  25.514   3.259
 1153W        W69527   8.711  12.772  14.387
 1154W        W69528   3.725   2.884   0.865
 1155W        W69529  10.251  14.710   1.244
 1156W        W69530  23.207  30.587  13.951
 1157W        W69531  11.223   5.214   3.826
 1158W        W69532  23.065  29.991   2.890
 1159W        W69533  29.667  14.249   3.697
 1160W        W69534  12.774   4.706   4.769
 1161W        W69535  10.669   6.314   0.364
 1162W        W69536  30.417  14.135  13.029
 1163W        W69537  30.977  29.024  14.883
 1164W        W69538  22.586  39.465   4.164
 1165W        W69539  19.738  38.915  14.980
 1166W        W69540  23.679  32.590   5.177
 1167W        W69541  16.581  10.664   9.548
 1168W        W69542  21.526  37.991   2.818
 1169W        W69543  44.348  21.588  11.014
 1170W        W69544  18.632  24.137  11.917
 1171W        W69545  30.514  37.371  13.013
 1172W        W69546  15.603  24.110   3.284
 1173W        W69547  31.998  32.925   1.349
 1174W        W69548   6.684  17.109  13.808
 1175W        W69549   2.390  30.489   0.393
 1176W        W69550  11.666  27.943  13.928
 1177W        W69551  14.781  29.478   1.422
 1178W        W69552  21.522  37.493   1.309
 1179W        W69553  21.708   6.207   0.823
 1180W        W69554   7.206  17.292   1.718
 1181W        W69555   9.661  32.457  10.503
 1182W        W69556  39.029  36.539  13.367
 1183W        W69557  37.351   9.728   1.416
 1184W        W69558  38.442  37.057  11.528
 1185W        W69559   8.312  20.564  11.579
 1186W        W69560  26.623   8.860  14.298
 1187W        W69561  29.477   4.204  12.478
 1188W        W69562  33.946   6.727   3.175
 1189W        W69563  25.075  15.646  12.991
 1190W        W69564   6.900  36.845   1.815
 1191W        W69565  17.273   8.824  13.478
 1192W        W69566  18.220  34.018   3.319
 1193W        W69567   2.418  24.194  12.543
 1194W        W69568   0.799  12.315  10.980
 1195W        W69569  33.398  35.948   4.124
 1196W        W69570  40.536  30.510  10.563
 1197W        W69571   5.799  38.077  14.504
 1198W        W69572  24.189  30.112  10.077
 1199W        W69573  29.944  34.499   3.667
 1200W        W69574  35.510  15.733   1.842
 1201W        W69575  14.661  26.571  14.513
 1202W        W69576  30.506  17.303   4.216
 1203W        W69577  40.853  36.898  11.891
 1204W        W69578  44.854  31.517   1.786
 1205W        W69579  13.140   8.254  12.544
 1206W        W69580  31.631  34.009   2.370
 1207W        W69581  10.261  35.923   1.225
 1208W        W69582  34.547  29.427  14.487
 1209W        W69583  10.309  39.953   3.745
 1210W        W69584   8.283   2.795  10.085
 1211W        W69585   7.782  27.624   4.165
 1212W        W69586  31.144  30.587   5.157
 1213W        W69587   5.391   4.943   4.346
 1214W        W69588  14.657  15.173  12.068
 1215W        W69589  16.293   5.251   4.632
 1216W        W69590  40.902  30.957   4.666
 1217W        W69591   0.389  42.015   4.673
 1218W        W69592  15.798   8.666  11.874
 1219W        W69593  32.129  13.834   1.236
 1220W        W69594   0.317  20.524  13.543
 1221W        W69595  34.097  32.554  13.027
 1222W        W69596  13.204  34.415   2.239
 1223W        W69597  15.616  34.026  11.042
 1224W        W69598  19.727  12.684  13.490
 1225W        W69599  14.670  40.388   2.878
 1226W        W69600  42.794  41.483  12.051
 1227W        W69601  44.773  14.170  14.768
 1228W        W69602  37.535   6.185  13.348
 1229W        W69603   5.859  15.653   4.761
 1230W        W69604   2.372  31.916   1.726
 1231W        W69605   3.756  13.105  10.932
 1232W        W69606   4.402   2.926  11.889
 1233W        W69607  23.019   7.905  13.502
 1234W        W69608  16.092  28.602   2.294
 1235W        W69609   9.677   9.769  11.999
 1236W        W69610  14.716  40.430  14.947
 1237W        W69611   3.906  18.181   4.777
 1238W        W69612  16.091  20.092  11.067
 1239W        W69613  15.324   0.887   3.368
 1240W        W69614  10.215   2.417  13.019
 1241W        W69615   3.442  17.148  12.560
 1242W        W69616  35.917  17.293   3.191
 1243W        W69617  18.160   2.792   3.337
 1244W        W69618  31.906  42.320   4.281
 1245W        W69619  42.507   3.745   1.787
 1246W        W69620  31.088  10.234  13.535
 1247W        W69621   8.843  38.819   4.636
 1248W        W69622   9.366  21.103  11.590
 1249W        W69623  41.302   1.240   0.445
 1250W        W69624  41.858   3.237  11.004
 1251W        W69625   8.402   8.684   1.413
 1252W        W69626   3.845  41.480   0.815
 1253W        W69627  11.630   3.847  11.459
 1254W        W69628  17.761  43.923   3.160
 1255W        W69629   8.395  35.415   4.294
 1256W        W69630  37.831  13.250  12.933
 1257W        W69631  16.798  30.993   4.142
 1258W        W69632  11.655  39.000  13.881
 1259W        W69633  28.680  39.532   3.639
 1260W        W69634  41.306  15.811   4.164
 1261W        W69635   5.772  11.236   2.671
 1262W        W69636  35.086  43.322   4.833
 1263W        W69637  20.585  11.712  12.954
 1264W        W69638  33.593  23.619  11.028
 1265W        W69639  39.523  16.238   0.349
 1266W        W69640  21.110   0.357   4.643
 1267W        W69641  40.387   2.293  12.957
 1268W        W69642  24.155  25.056  13.810
 1269W        W69643  32.004  33.578  12.831
 1270W        W69644  42.384  32.989   0.303
 1271W        W69645  12.297  22.510  14.338
 1272W        W69646  37.358  35.568  13.811
 1273W        W69647   5.426   8.679   1.283
 1274W        W69648  43.507  37.581   4.687
 1275W        W69649   5.923  10.693  14.817
 1276W        W69650  18.160  20.573  14.986
 1277W        W69651  31.472  44.954   2.344
 1278W        W69652  30.531   2.909  14.336
 1279W        W69653  30.134   6.736   1.718
 1280W        W69654  36.517  31.003  12.934
 1281W        W69655   5.743  24.664   3.758
 1282W        W69656   8.235  13.634  13.344
 1283W        W69657  19.194  37.935   2.204
 1284W        W69658  32.585  22.519   2.281
 1285W        W69659  22.589  13.755  13.010
 1286W        W69660  29.099   1.403  12.015
 1287W        W69661  34.052  27.571  11.120
 1288W        W69662   4.926  22.051  12.993
 1289W        W69663  21.182   6.836   1.327
 1290W        W69664  22.569   1.856   0.856
 1291W        W69665   5.368  39.882  13.893
 1292W        W69666  41.815  31.949   4.613
 1293W        W69667   9.834  32.409  11.396
 1294W        W69668  11.804  31.002  13.310
 1295W        W69669  10.770  10.814   4.172
 1296W        W69670  27.617  18.080   3.738
 1297W        W69671   3.895   2.754   1.736
 1298W        W69672  43.844   8.698   3.757
 1299W        W69673  26.977  11.268  13.311
 1300W        W69674  34.886  16.707  10.959
 1301W        W69675  33.082  23.681  10.619
 1302W        W69676   7.731   0.317  14.812
 1303W        W69677  19.134  22.093   0.833
 1304W        W69678  29.015  39.338   3.740
 1305W        W69679   5.271  28.625  12.497
 1306W        W69680  33.879  14.202   1.905
 1307W        W69681  25.697  14.676  12.018
 1308W        W69682  44.397   4.790   3.362
 1309W        W69683  13.293  24.150   1.797
 1310W        W69684  44.471  15.160   3.831
 1311W        W69685  18.217  28.595   4.304
 1312W        W69686  24.091  30.419  12.094
 1313W        W69687   7.174  35.453  14.891
 1314W        W69688  30.039  27.108   3.340
 1315W        W69689  44.407  31.522   0.427
 1316W        W69690  25.623  35.491   4.655
 1317W        W69691  31.520  34.964   0.862
 1318W        W69692  41.425  27.159   1.799
 1319W        W69693  23.699  40.509  12.059
 1320W        W69694   8.327  23.193   4.726
 1321W        W69695   8.368  25.644   9.631
 1322W        W69696  42.359  17.615  14.884
 1323W        W69697  30.954  10.347  11.517
 1324W        W69698  41.805  17.245  13.519
 1325W        W69699   6.859  36.409   0.817
 1326W        W69700  17.703  24.144   3.327
 1327W        W69701   1.366  39.823  11.905
 1328W        W69702  23.019   4.376  10.516
 1329W        W69703  23.220   3.810  10.635
 1330W        W69704  30.085  38.915   2.418
 1331W        W69705  24.573  36.090   0.958
 1332W        W69706  27.185  38.521  13.048
 1333W        W69707  31.117  38.329  11.977
 1334W        W69708  13.202   5.197  12.074
 1335W        W69709   6.693  17.590  14.770
 1336W        W69710   4.388  29.563  12.359
 1337W        W69711  18.554  36.498   4.215
 1338W        W69712  17.735  44.271  14.783
 1339W        W69713  28.166  11.173  11.589
 1340W        W69714  32.435  18.773  14.376
 1341W        W69715  23.211  19.253  10.409
 1342W        W69716  14.748  32.588   4.350
 1343W        W69717  18.228   1.839  10.948
 1344W        W69718  23.531  15.798   2.378
 1345W        W69719  44.393  12.843  11.390
 1346W        W69720  42.018  36.366   2.231
 1347W        W69721  34.096  34.543  14.021
 1348W        W69722  15.206   2.864  11.127
 1349W        W69723   4.769  19.650   0.342
 1350W        W69724  44.413   6.765  14.501
 1351W        W69725  22.637  41.368  10.058
 1352W        W69726   1.387  35.414   4.607
 1353W        W69727  11.657  22.088  14.299
 1354W        W69728   2.844  43.291  11.558
 1355W        W69729   0.950  10.762  12.087
 1356W        W69730  14.336  10.330   0.747
 1357W        W69731  13.174  40.848   2.403
 1358W        W69732  27.001   6.839  12.482
 1359W        W69733  29.644  34.471  10.917
 1360W        W69734  35.905  17.801  10.987
 1361W        W69735  11.649  26.546   3.773
 1362W        W69736  10.172   0.443  12.564
 1363W        W69737  23.604  17.656  13.532
 1364W        W69738  13.602  26.667  13.478
 1365W        W69739   1.846  20.535  10.619
 1366W        W69740   9.735   5.386   3.857
 1367W        W69741  25.524  39.434   4.311
 1368W        W69742   0.793  36.575  13.849
 1369W        W69743  37.031  38.358   4.348
 1370W        W69744  41.025  31.582  11.483
 1371W        W69745  37.365   4.267   2.268
 1372W        W69746  15.198  22.533  12.021
 1373W        W69747  16.128  17.068  12.065
 1374W        W69748  34.528  37.450   1.933
 1375W        W69749  20.241  20.719  13.941
 1376W        W69750  42.443  27.450   4.270
 1377W        W69751   7.750  38.982  13.346
 1378W        W69752  43.511  18.201   2.416
 1379W        W69753  34.887  19.076  14.017
 1380W        W69754  17.201  33.881  13.846
 1381W        W69755  26.077   1.415   3.651
 1382W        W69756  22.523  22.059  13.389
 1383W        W69757  44.411  32.901   4.762
 1384W        W69758  32.616  12.129   4.186
 1385W        W69759  18.084  31.084   4.613
 1386W        W69760  33.470  22.652  11.557
 1387W        W69761  43.767   2.237  11.954
 1388W        W69762  35.011  41.456  11.982
 1389W        W69763  27.581  12.316  12.097
 1390W        W69764  37.375  44.759   2.847
 1391W        W69765  16.156  19.228  14.874
 1392W        W69766  26.632  44.479   0.817
 1393W        W69767   2.778   7.404  12.375
 1394W        W69768  21.192  38.867   0.873
 1395W        W69769  10.780   4.700   4.829
 1396W        W69770  37.490  19.611   2.198
 1397W        W69771   3.341  32.899   4.287
 1398W        W69772  25.711  22.028  12.531
 1399W        W69773  17.262   4.425  11.881
 1400W        W69774  32.107  13.667  14.825
 1401W        W69775   9.360  23.238  11.545
 1402W        W69776  10.803  22.534  12.858
 1403W        W69777  25.208  19.062   0.282
 1404W        W69778  20.531  28.520  10.629
 1405W        W69779  39.859  22.021   3.765
 1406W        W69780   8.272   4.255  14.945
 1407W        W69781  12.306   4.268  11.972
 1408W        W69782  16.243  28.622   3.708
 1409W        W69783  19.196  24.171  13.820
 1410W        W69784  38.479  38.555   1.835
 1411W        W69785  29.455  22.649  11.066
 1412W        W69786  17.594  34.580   2.194
 1413W        W69787  42.776  22.672  14.323
 1414W        W69788  28.544  20.734   2.873
 1415W        W69789  24.642  41.526   2.296
 1416W        W69790  35.492  33.447  14.020
 1417W        W69791  13.744   5.429   1.815
 1418W        W69792  15.213  42.846  12.500
 1419W        W69793  36.486  11.365   0.751
 1420W        W69794   5.757   8.889   1.284
 1421W        W69795  22.712   1.287   4.660
 1422W        W69796  37.086  10.818  14.912
 1423W        W69797  11.793  23.104   0.789
 1424W        W69798  44.922   5.393  11.120
 1425W        W69799  44.428  43.955   2.278
 1426W        W69800   6.783  24.058   1.210
 1427W        W69801  31.511  10.314  13.501
 1428W        W69802  23.711  29.510   1.374
 1429W        W69803  28.661   7.847  11.981
 1430W        W69804  37.449   5.871   2.836
 1431W        W69805   8.384  36.882   4.832
 1432W        W69806  28.074   4.912  11.404
 1433W        W69807  21.046  22.105  14.312
 1434W        W69808  26.164  22.240   2.735
 1435W        W69809  39.826  28.644   4.124
 1436W        W69810  17.099  24.006   4.317
 1437W        W69811  33.392  12.814   2.180
 1438W        W69812  17.674   4.367   1.339
 1439W        W69813  40.813  23.188  13.531
 1440W        W69814  15.129   7.911  14.807
 1441W        W69815   2.292  32.615   3.171
 1442W        W69816   2.955   3.847   4.620
 1443W        W69817  33.007  42.785   0.291
 1444W        W69818  42.003  40.035  14.298
 1445W        W69819  44.437   8.708  11.014
 1446W        W69820  24.682  19.685   4.791
 1447W        W69821  31.100   0.286   4.713
 1448W        W69822  20.731  22.546  14.927
 1449W        W69823  35.459  17.089   2.391
 1450W        W69824  36.495  41.847  12.350
 1451W        W69825  35.022  11.225  14.872
 1452W        W69826  11.267  23.128   0.857
 1453W        W69827   8.272  13.621   2.237
 1454W        W69828  24.164  17.270   0.877
 1455W        W69829  41.004   6.348   4.807
 1456W        W69830  14.313  34.083  14.997
 1457W        W69831  21.181  25.094   4.652
 1458W        W69832  18.786  21.530   3.853
 1459W        W69833  33.951  14.615   2.827
 1460W        W69834  38.959   5.202   3.277
 1461W        W69835  31.995  19.587  11.123
 1462W        W69836   5.755   0.855  13.051
 1463W        W69837  12.696  37.033   2.347
 1464W        W69838  42.492   0.955  12.944
 1465W        W69839  14.691   7.829   1.741
 1466W        W69840  36.383  26.050  10.635
 1467W        W69841  41.938   5.235  11.937
 1468W        W69842  32.609  22.179   4.321
 1469W        W69843  16.681   5.764   1.772
 1470W        W69844   7.386  31.417   1.818
 1471W        W69845  15.803   5.894  13.053
 1472W        W69846  23.495   9.845   2.706
 1473W        W69847  19.737  33.970   3.156
 1474W        W69848  21.222   8.406   0.795
 1475W        W69849  25.115  35.423   3.291
 1476W        W69850   9.174  26.648   5.091
 1477W        W69851  27.547  29.137   4.351
 1478W        W69852  31.039  11.751  12.347
 1479W        W69853  11.127  16.290  12.524
 1480W        W69854  22.043  22.069   3.333
 1481W        W69855  30.555   1.460   3.364
 1482W        W69856  43.385   8.327   1.924
 1483W        W69857  41.306   7.800   1.786
 1484W        W69858  36.451  27.521   3.334
 1485W        W69859  31.555  26.188   2.718
 1486W        W69860  30.022  17.755  14.305
 1487W        W69861   3.863  43.324   3.792
 1488W        W69862   5.789  12.316  12.945
 1489W        W69863  16.139  24.583  14.496
 1490W        W69864  43.343  28.552  10.618
 1491W        W69865  17.122  33.619   1.798
 1492W        W69866  34.478  18.602  11.977
 1493W        W69867  17.771  19.583  13.332
 1494W        W69868  15.656   0.761  10.509
 1495W        W69869   4.755  27.193  14.505
 1496W        W69870  40.436  31.137   0.794
 1497W        W69871  15.808  11.261  14.981
 1498W        W69872  16.789  19.040   1.444
 1499W        W69873  16.198  26.550   1.424
 1500W        W69874  11.785  44.771   0.865
 1501W        W69875   4.841  38.428  14.476
 1502W        W69876  11.635   4.232   1.393
 1503W        W69877  18.275  31.901  14.276
 1504W        W69878  26.005  27.621  10.502
 1505W        W69879   8.261   9.657  12.085
 1506W        W69880  13.648  18.752   0.360
 1507W        W69881   4.878   5.797   0.347
 1508W        W69882  16.217  29.610  11.059
 1509W        W69883  15.643  16.296   2.710
 1510W        W69884  27.554   4.419  13.425
 1511W        W69885  10.815  35.477  11.873
 1512W        W69886  37.579  20.662  10.514
 1513W        W69887  13.235  17.214   4.203
 1514W        W69888  15.740  42.957   3.688
 1515W        W69889  23.037  38.409   1.779
 1516W        W69890   5.266  41.026  12.462
 1517W        W69891  40.466  20.264   3.660
 1518W        W69892  23.599  17.202  12.970
 1519W        W69893  42.999  25.036   0.338
 1520W        W69894   1.733  19.627  11.481
 1521W        W69895  33.546  13.195   1.751
 1522W        W69896  21.239   6.777   2.834
 1523W        W69897  19.624  21.728  12.978
 1524W        W69898  28.532  42.474   3.805
 1525W        W69899  33.088  24.146  14.016
 1526W        W69900   2.964  14.253   2.293
 1527W        W69901  40.046   2.808   2.706
 1528W        W69902  26.624   1.836   4.732
 1529W        W69903  17.693  11.175   1.295
 1530W        W69904  16.156  22.596   1.277
 1531W        W69905  35.522   1.241   0.905
 1532W        W69906  39.002  15.140   0.363
 1533W        W69907  32.537  32.411  14.836
 1534W        W69908  18.246  16.569   0.842
 1535W        W69909  29.625  37.473   2.416
 1536W        W69910  44.837  16.671   3.676
 1537W        W69911  40.879   7.903  12.549
 1538W        W69912  23.581  41.988  14.383
 1539W        W69913  18.742  25.216   1.323
 1540W        W69914  26.988  32.568  11.121
 1541W        W69915  33.443  20.068   2.717
 1542W        W69916  40.456  18.077  12.362
 1543W        W69917  28.524   8.861   4.764
 1544W        W69918  11.369  37.384  13.965
 1545W        W69919   8.888  42.500   4.790
 1546W        W69920  12.354  17.304  13.992
 1547W        W69921  39.428   7.899   1.862
 1548W        W69922  25.053  17.207   2.354
 1549W        W69923   5.236  28.526   2.222
 1550W        W69924   9.320  33.901  12.086
 1551W        W69925   3.951   1.337   2.258
 1552W        W69926  20.105  23.073  12.941
 1553W        W69927  10.864  12.812   2.766
 1554W        W69928  19.741  19.600  12.522
 1555W        W69929  41.976  27.006  12.054
 1556W        W69930   0.920  15.117  11.554
 1557W        W69931  44.800  11.325   1.405
 1558W        W69932   9.673  28.592  11.976
 1559W        W69933  23.719  38.527   0.296
 1560W        W69934  22.584  28.547  12.039
 1561W        W69935  10.269  24.558   4.669
 1562W        W69936  26.096  22.525  13.387
 1563W        W69937  29.928   7.273  14.859
 1564W        W69938  43.514  17.259   2.289
 1565W        W69939  32.968  39.994   0.882
 1566W        W69940  22.127   4.446  10.968
 1567W        W69941   5.879  25.474   0.397
 1568W        W69942  15.151   5.411  11.048
 1569W        W69943  13.771  19.247   0.426
 1570W        W69944  44.265  39.334  13.926
 1571W        W69945  21.581  16.105  12.869
 1572W        W69946   6.189  28.592   0.857
 1573W        W69947  28.654  25.520   2.358
 1574W        W69948  43.969  10.667   3.787
 1575W        W69949   5.855  13.161  13.451
 1576W        W69950   1.355  16.271   1.780
 1577W        W69951   5.791  39.061  14.968
 1578W        W69952  42.872   2.449   1.365
 1579W        W69953  16.805  34.541  11.447
 1580W        W69954  43.303   0.954   2.748
 1581W        W69955   0.773  44.812  14.349
 1582W        W69956  16.200  41.841   4.196
 1583W        W69957  31.911  24.675  11.035
 1584W        W69958   6.365  25.468  14.953
 1585W        W69959  28.999  38.462  12.418
 1586W        W69960  14.820   9.170   5.106
 1587W        W69961  31.968   9.280  14.974
 1588W        W69962  16.755  34.972   2.899
 1589W        W69963  11.762  44.917  12.372
 1590W        W69964  12.830  27.534  10.516
 1591W        W69965  43.345  19.124   3.341
 1592W        W69966  22.053  20.149   0.877
 1593W        W69967  32.402   3.829  13.433
 1594W        W69968   9.166   5.195   3.826
 1595W        W69969  34.382  31.928   1.318
 1596W        W69970   8.253   7.799  13.949
 1597W        W69971  13.715  27.187  10.935
 1598W        W69972  26.002  36.452  10.971
 1599W        W69973  38.858  44.850  11.520
 1600W        W69974  36.857  10.179   2.773
 1601W        W69975  22.508  17.182   5.266
 1602W        W69976  40.512  15.657  10.564
 1603W        W69977  21.530  44.481   0.386
 1604W        W69978   6.916  11.636   0.863
 1605W        W69979  43.000  20.030   4.688
 1606W        W69980  40.393  20.209  13.407
 1607W        W69981   9.293  15.624  11.975
 1608W        W69982  26.146  23.055   0.451
 1609W        W69983  27.968  41.521   4.316
 1610W        W69984  20.226   2.333  10.993
 1611W        W69985  41.486  43.005  13.794
 1612W        W69986  24.716   5.392  10.520
 1613W        W69987  19.082   5.271   3.678
 1614W        W69988  27.031   0.333  14.869
 1615W        W69989  39.892  19.664   3.689
 1616W        W69990  35.928  34.566   3.215
 1617W        W69991  14.817  21.561   0.465
 1618W        W69992   6.248   3.298  10.497
 1619W        W69993  33.932  37.551  13.394
 1620W        W69994  38.512  14.273  11.392
 1621W        W69995  26.630  10.359  12.930
 1622W        W69996  43.327  11.781  10.900
 1623W        W69997   6.370   4.855   1.225
 1624W        W69998   7.729  32.575  11.901
 1625W        W69999  30.420  28.512   3.362
 1626W        W70000  13.240  36.919  12.527
 1627W        W70001  17.288  28.681   3.149
 1628W        W70002  44.010  37.541   4.655
 1629W        W70003  36.000  41.530  12.427
 1630W        W70004  12.232  16.231   4.180
 1631W        W70005  44.872  41.789  11.987
 1632W        W70006  17.597  32.085  14.855
 1633W        W70007  29.120  32.020   3.846
 1634W        W70008  28.155  37.425   0.879
 1635W        W70009  43.334   0.381  12.833
 1636W        W70010  11.623   4.706   2.868
 1637W        W70011  35.065   8.696  13.404
 1638W        W70012  19.110  24.611  13.447
 1639W        W70013  32.011   5.224   4.167
 1640W        W70014  23.228  32.093   2.695
 1641W        W70015  25.131  19.095  12.536
 1642W        W70016  26.464  38.821  14.822
 1643W        W70017  44.396  34.040   2.891
 1644W        W70018  32.127  36.429  11.439
 1645W        W70019  41.428  36.933  14.508
 1646W        W70020  35.503  34.084   1.823
 1647W        W70021  17.254  28.442   2.365
 1648W        W70022   1.329   5.287  12.891
 1649W        W70023  32.074   2.267  12.510
 1650W        W70024  16.720  17.755  13.966
 1651W        W70025   8.852  18.105  13.988
 1652W        W70026  15.643  17.794  12.955
 1653W        W70027   3.791  10.138   4.693
 1654W        W70028  19.082  40.819  10.473
 1655W        W70029  23.010  29.069   3.328
 1656W        W70030  43.863  41.407   4.140
 1657W        W70031  27.056  32.935   4.804
 1658W        W70032  23.546  34.484  13.880
 1659W        W70033  43.382  41.399  14.849
 1660W        W70034  12.346  24.714  11.067
 1661W        W70035  25.542  32.949   2.281
 1662W        W70036  19.743  12.320   1.862
 1663W        W70037   9.779  39.372   2.309
 1664W        W70038  15.581  21.140  10.928
 1665W        W70039  42.008  14.235  11.576
 1666W        W70040  24.550   5.195  14.016
 1667W        W70041   0.405  16.309   4.774
 1668W        W70042  39.025  10.262  14.000
 1669W        W70043  37.975  37.551   0.320
 1670W        W70044  39.559  25.104  10.523
 1671W        W70045  43.418  14.095  10.067
 1672W        W70046  37.468  12.208  13.503
 1673W        W70047  37.396  32.885   3.843
 1674W        W70048  38.336  31.510  12.893
 1675W        W70049  30.579   0.836  12.088
 1676W        W70050  32.914  39.056   0.286
 1677W        W70051  44.796  15.281   3.259
 1678W        W70052  19.159   9.284  12.894
 1679W        W70053   8.299   5.695  13.325
 1680W        W70054  20.649  20.212   0.861
 1681W        W70055  14.701   4.732  12.988
 1682W        W70056  19.098   8.890   4.201
 1683W        W70057  38.820  10.683  13.513
 1684W        W70058  17.145  43.862  12.866
 1685W        W70059  10.818  19.769   0.794
 1686W        W70060  12.658  31.528   0.835
 1687W        W70061  18.194  28.465   0.334
 1688W        W70062  14.108   9.662   2.746
 1689W        W70063  44.474  13.314   1.809
 1690W        W70064  26.701  32.447   4.128
 1691W        W70065  29.090  21.682  12.482
 1692W        W70066  30.920  39.970   1.431
 1693W        W70067  44.982  39.356  13.382
 1694W        W70068  23.164  32.473   9.448
 1695W        W70069   1.326   5.207  12.070
 1696W        W70070   0.840  38.066   3.644
 1697W        W70071  43.870   6.743  13.866
 1698W        W70072  21.159  21.097  10.624
 1699W        W70073   9.206  44.290   1.430
 1700W        W70074   6.210  34.426  10.997
 1701W        W70075  29.016  22.186   0.872
 1702W        W70076  42.511  32.109   1.846
 1703W        W70077  42.828  22.215  14.513
 1704W        W70078  17.719  13.202  13.519
 1705W        W70079  32.089   7.762  14.505
 1706W        W70080  24.702  23.085  13.470
 1707W        W70081  40.393  11.641   4.126
 1708W        W70082  36.578   4.207   3.198
 1709W        W70083  43.357  29.577   2.764
 1710W        W70084  38.432   5.931   9.541
 1711W        W70085  28.460   7.682   3.740
 1712W        W70086   8.735  38.970  10.896
 1713W        W70087  20.615  13.328  14.847
 1714W        W70088  13.663  43.795  11.946
 1715W        W70089  17.753  35.541  11.597
 1716W        W70090  22.638  44.866   4.207
 1717W        W70091  11.768  19.629   2.718
 1718W        W70092  10.820  35.439  12.404
 1719W        W70093  10.855  40.505  10.444
 1720W        W70094  32.615  10.728  12.905
 1721W        W70095   9.277  16.098   0.731
 1722W        W70096  23.673  43.831  12.097
 1723W        W70097  44.770  43.296   1.211
 1724W        W70098   8.249  24.506   0.827
 1725W        W70099  36.061  26.196  14.391
 1726W        W70100  28.016  14.140   3.839
 1727W        W70101  22.550  35.991  11.602
 1728W        W70102   1.469  15.741   4.283
 1729W        W70103   2.735  23.179   1.858
 1730W        W70104  17.122   8.828   0.784
 1731W        W70105   4.739  42.456  14.850
 1732W        W70106  17.788  17.098  10.459
 1733W        W70107  37.945  16.796  10.041
 1734W        W70108  10.746  24.140   0.309
 1735W        W70109  41.328  18.237  12.056
 1736W        W70110   1.287  26.956   3.232
 1737W        W70111  25.987  37.371   2.826
 1738W        W70112  18.236  28.124   2.809
 1739W        W70113  44.830  14.339  14.295
 1740W        W70114  28.064  22.609   2.868
 1741W        W70115  43.383   1.798   3.264
 1742W        W70116  22.068  35.032   1.303
 1743W        W70117  41.035  27.643   1.811
 1744W        W70118   0.907   3.422   3.815
 1745W        W70119  29.458  19.124   2.663
 1746W        W70120  20.123  11.858   0.474
 1747W        W70121   8.237  13.816  11.551
 1748W        W70122  20.075  24.223   4.814
 1749W        W70123  13.605  33.530   4.188
 1750W        W70124  32.885  12.309  11.556
 1751W        W70125  21.712  15.797  13.435
 1752W        W70126  20.544   5.241   1.781
 1753W        W70127  23.099  19.161  14.963
 1754W        W70128   7.812   7.395  11.513
 1755W        W70129  27.673  24.594   2.725
 1756W        W70130   8.292  40.403   3.173
 1757W        W70131   2.747  28.595  10.416
 1758W        W70132  37.977   0.367   1.743
 1759W        W70133  11.314  34.995  13.440
 1760W        W70134  40.304   9.874   1.696
 1761W        W70135   9.889   7.795   1.821
 1762W        W70136  29.115  39.993   2.752
 1763W        W70137  25.643  41.036   0.864
 1764W        W70138  42.947  43.774  10.637
 1765W        W70139   6.281   8.331   2.228
 1766W        W70140   8.192  26.047   5.730
 1767W        W70141   5.275  30.634  12.397
 1768W        W70142  23.596  44.792   0.244
 1769W        W70143  10.846  38.526  10.637
 1770W        W70144  12.668  38.911  11.483
 1771W        W70145   6.232  29.011   2.374
 1772W        W70146  43.948  24.555  11.521
 1773W        W70147  29.508   7.216   3.865
 1774W        W70148  27.120  28.627  13.878
 1775W        W70149   3.897  43.361  13.947
 1776W        W70150  39.440  44.935   2.278
 1777W        W70151  12.215  11.745  14.807
 1778W        W70152   6.891  15.100   1.732
 1779W        W70153  31.529  39.411   4.235
 1780W        W70154  15.764  36.067   0.820
 1781W        W70155  25.661   6.758   4.656
 1782W        W70156   3.347  15.752  12.046
 1783W        W70157  26.490  29.967   3.146
 1784W        W70158  31.598   7.875   2.718
 1785W        W70159   4.303  43.275  14.911
 1786W        W70160   7.762  28.533   5.314
 1787W        W70161   7.864  12.768  13.855
 1788W        W70162   9.801  14.744  13.339
 1789W        W70163   4.238  26.194   3.697
 1790W        W70164  37.416  13.656   0.903
 1791W        W70165  22.052  39.883   2.787
 1792W        W70166  31.519  13.705  10.916
 1793W        W70167  18.259  40.359  14.920
 1794W        W70168  22.645  36.988  13.466
 1795W        W70169  11.372  25.149   2.882
 1796W        W70170  33.541  40.419   4.730
 1797W        W70171  23.231  26.678  13.394
 1798W        W70172   7.177  31.540   2.291
 1799W        W70173  10.177  12.643   2.258
 1800W        W70174   7.785  37.018  11.030
 1801W        W70175   4.875  17.661   1.448
 1802W        W70176  42.965  20.546   1.856
 1803W        W70177  39.809   9.845  12.094
 1804W        W70178  30.909  10.665  11.884
 1805W        W70179   3.319  28.486   4.339
 1806W        W70180   9.383  34.866   1.408
 1807W        W70181   3.730  37.004  12.491
 1808W        W70182  38.891  42.405  11.011
 1809W        W70183  24.016  32.941  11.040
 1810W        W70184  33.597  16.791  14.358
 1811W        W70185  12.673  37.449   0.808
 1812W        W70186  42.522   8.244  13.006
 1813W        W70187  21.144   7.400  14.310
 1814W        W70188  15.309   6.748   1.300
 1815W        W70189   2.758  36.848   0.405
 1816W        W70190  42.394  36.058  10.632
 1817W        W70191  43.413  28.983  13.925
 1818W        W70192  38.991  36.580  11.055
 1819W        W70193  30.653  36.510  14.944
 1820W        W70194  34.048  24.175   0.267
 1821W        W70195  38.487   6.185  13.352
 1822W        W70196  33.497  30.159  11.076
 1823W        W70197  25.594  11.149   4.280
 1824W        W70198  39.955  26.042   2.356
 1825W        W70199  41.360  34.601   2.269
 1826W        W70200  30.565   9.839  13.868
 1827W        W70201  42.339   2.817   1.323
 1828W        W70202  35.470  15.277  14.026
 1829W        W70203  16.095  42.829   1.395
 1830W        W70204  15.817  23.734  12.576
 1831W        W70205   2.248  19.044  11.980
 1832W        W70206  28.057  19.045  10.406
 1833W        W70207   4.745  44.814   3.274
 1834W        W70208   2.786  26.548   1.336
 1835W        W70209  33.624   1.867   0.885
 1836W        W70210   2.355  26.207  11.047
 1837W        W70211  28.071  30.118  10.559
 1838W        W70212  12.297  18.147  10.573
 1839W        W70213  12.130  41.946   1.429
 1840W        W70214  14.673  21.136   0.873
 1841W        W70215  41.899   4.837  12.044
 1842W        W70216  25.597  11.809  13.903
 1843W        W70217   6.800  12.761   2.281
 1844W        W70218  26.208   2.807  13.983
 1845W        W70219  26.579  30.064  10.912
 1846W        W70220  35.977  42.789   0.395
 1847W        W70221  17.572   0.435   1.741
 1848W        W70222  13.722  33.397  11.875
 1849W        W70223  30.962  28.629  10.479
 1850W        W70224  14.300  29.668   3.675
 1851W        W70225  21.714  14.216   3.373
 1852W        W70226  22.093  43.842   3.815
 1853W        W70227  29.444  40.322  13.800
 1854W        W70228   2.285   7.318   1.408
 1855W        W70229  29.116  24.066   2.409
 1856W        W70230  13.808  39.007  13.510
 1857W        W70231  22.532  37.884   2.673
 1858W        W70232  10.862  11.837   0.843
 1859W        W70233   1.858  34.412  14.887
 1860W        W70234   3.930  34.969   0.285
 1861W        W70235  37.354  33.974   1.407
 1862W        W70236  42.517  28.467  11.411
 1863W        W70237  17.796  25.495  13.396
 1864W        W70238  14.136  13.720   4.347
 1865W        W70239  20.094  29.490  10.941
 1866W        W70240  12.346  30.466   1.394
 1867W        W70241   4.716  31.035   0.816
 1868W        W70242  24.091  44.468   4.648
 1869W        W70243  30.446  16.775  12.879
 1870W        W70244  10.683  42.022   3.350
 1871W        W70245   5.775  17.658  13.508
 1872W        W70246  26.082  39.815   0.856
 1873W        W70247  37.377  35.892   3.204
 1874W        W70248  36.021   5.391  11.107
 1875W        W70249  33.498  24.216  12.023
 1876W        W70250  19.272  15.322  13.795
 1877W        W70251   4.297  16.102   1.420
 1878W        W70252  33.095  29.575   0.792
 1879W        W70253  12.749  10.295   1.734
 1880W        W70254  24.489  39.501  13.309
 1881W        W70255  35.442  40.009   2.312
 1882W        W70256   3.819   9.330   2.860
 1883W        W70257  17.694  27.011  11.037
 1884W        W70258   9.665   4.705   3.782
 1885W        W70259  16.179   8.322  13.993
 1886W        W70260  35.541  31.988   4.705
 1887W        W70261   1.293   5.398  14.820
 1888W        W70262  16.640   8.880   1.261
 1889W        W70263   3.920   0.822  11.003
 1890W        W70264  16.594   7.275  11.531
 1891W        W70265  22.029  21.046  11.591
 1892W        W70266  17.746  32.574  10.594
 1893W        W70267  11.625  16.093  13.519
 1894W        W70268  39.366  34.472   1.420
 1895W        W70269  22.597  33.009  12.365
 1896W        W70270   1.888  44.294  13.855
 1897W        W70271  14.254  15.326  10.035
 1898W        W70272   5.735  38.942   2.816
 1899W        W70273  33.009  23.621   0.304
 1900W        W70274  26.088  32.554  13.473
 1901W        W70275  26.543  44.497  13.352
 1902W        W70276   0.857  37.837  10.089
 1903W        W70277  29.125  25.645  13.011
 1904W        W70278  32.438   1.763   2.202
 1905W        W70279   3.309  23.120  11.071
 1906W        W70280  22.578   6.777   4.832
 1907W        W70281  14.830  19.752  13.848
 1908W        W70282  43.780   2.247  12.841
 1909W        W70283  42.779  28.038  10.645
 1910W        W70284  14.309  31.417   0.862
 1911W        W70285  36.924  16.130  10.567
 1912W        W70286   5.345  21.251   0.956
 1913W        W70287  23.671  36.951  13.838
 1914W        W70288   9.854  24.974   3.712
 1915W        W70289  43.769   4.402  10.910
 1916W        W70290  36.471  38.475   3.654
 1917W        W70291  24.622  12.707   1.891
 1918W        W70292  24.630  33.066   4.706
 1919W        W70293  30.575  22.722  12.063
 1920W        W70294  22.042  19.677   4.656
 1921W        W70295   5.427   7.689   0.307
 1922W        W70296   9.269  40.513  14.492
 1923W        W70297   6.341  10.676  11.477
 1924W        W70298  42.792  33.119   3.332
 1925W        W70299  23.000  12.201  13.979
 1926W        W70300  20.104  26.992  13.470
 1927W        W70301  43.401  36.434   4.311
 1928W        W70302  36.383  14.767   1.746
 1929W        W70303  18.117  36.494   1.426
 1930W        W70304  37.857  34.389   2.821
 1931W        W70305  13.627  24.481  12.389
 1932W        W70306   2.883  35.893   1.927
 1933W        W70307  21.715  30.910   1.920
 1934W        W70308  14.831  17.306  10.628
 1935W        W70309   9.879   3.892  14.978
 1936W        W70310  30.501   7.834  10.566
 1937W        W70311  36.371  39.513   3.786
 1938W        W70312  13.309  11.270   4.343
 1939W        W70313   4.873  20.238  14.388
 1940W        W70314  35.369  30.657  11.527
 1941W        W70315  25.477   7.826  11.526
 1942W        W70316  32.970   8.876   3.651
 1943W        W70317  28.940   5.903  10.466
 1944W        W70318  32.428   8.276  11.434
 1945W        W70319  36.523   7.270  10.585
 1946W        W70320  33.886  39.526   0.258
 1947W        W70321  28.531   8.348   0.478
 1948W        W70322  22.602  40.451   3.717
 1949W        W70323  37.946  39.371   2.761
 1950W        W70324  18.266  29.009   2.197
 1951W        W70325  11.862  36.437  11.530
 1952W        W70326  29.489   9.749  11.027
 1953W        W70327  23.241  13.243   4.765
 1954W        W70328  10.781   5.351  10.993
 1955W        W70329   3.250  28.977  13.873
 1956W        W70330  29.640  29.164  12.934
 1957W        W70331  18.566   9.739  13.856
 1958W        W70332  36.953  11.760  12.998
 1959W        W70333  26.556  23.090  14.474
 1960W        W70334  34.914  42.995   1.696
 1961W        W70335   8.179  33.985   2.758
 1962W        W70336  14.602   0.796   2.389
 1963W        W70337  36.461  12.127   2.758
 1964W        W70338  17.118   1.867  11.479
 1965W        W70339  39.998  32.522  14.291
 1966W        W70340   3.816   0.859  13.394
 1967W        W70341  34.028  44.477   0.476
 1968W        W70342  37.953   9.306  13.434
 1969W        W70343  13.672  15.134   0.282
 1970W        W70344  31.109  12.721   2.698
 1971W        W70345  35.931  37.857   0.361
 1972W        W70346  44.991  16.614  10.567
 1973W        W70347  34.539  44.429   4.680
 1974W        W70348  12.186  16.267  13.978
 1975W        W70349   5.418  26.134  13.412
 1976W        W70350  33.472  31.433  14.947
 1977W        W70351  30.035   1.468  10.490
 1978W        W70352  38.040  17.163  11.463
 1979W        W70353  33.977  13.285   4.260
 1980W        W70354  40.037  40.326  14.771
 1981W        W70355  15.772  28.126   0.468
 1982W        W70356  34.417  40.394  11.542
 1983W        W70357   5.818   0.825   0.293
 1984W        W70358  37.489  40.444   2.202
 1985W        W70359  39.498  43.420  12.499
 1986W        W70360  21.512  28.154   3.685
 1987W        W70361  19.237  41.432  13.907
 1988W        W70362   3.761   7.910   0.401
 1989W        W70363  23.634  28.559  13.525
 1990W        W70364  39.423  27.570   1.230
 1991W        W70365   2.333  36.895  11.858
 1992W        W70366  20.199   1.861   1.269
 1993W        W70367   1.875  17.266   4.119
 1994W        W70368  39.451   9.876   1.299
 1995W        W70369  40.353   4.239   3.794
 1996W        W70370  24.689  12.228  14.760
 1997W        W70371  30.947   6.424   2.854
 1998W        W70372  43.483   0.793   9.929
 1999W        W70373  17.243  31.009   0.925
 2000W        W70374  31.610  29.606  14.795
 2001W        W70375  44.786  12.854  12.941
 2002W        W70376  13.244  40.853  14.491
 2003W        W70377  22.251  37.029  10.932
 2004W        W70378  22.559   5.425   0.456
 2005W        W70379   0.365  41.514   1.307
 2006W        W70380  11.801  27.663   0.941
 2007W        W70381  22.034  38.026   2.244
 2008W        W70382  22.629   9.327  10.526
 2009W        W70383  16.286  17.169   9.985
 2010W        W70384  28.140  41.447  12.435
 2011W        W70385   6.348  20.156   3.201
 2012W        W70386  16.185  16.277   2.689
 2013W        W70387   2.341  40.034   4.303
 2014W        W70388   4.290  10.803   4.717
 2015W        W70389  33.408  27.099   0.801
 2016W        W70390   3.231  19.131   4.769
 2017W        W70391  13.748   8.799  14.500
 2018W        W70392   5.904  28.466  13.005
 2019W        W70393  29.429  18.175   3.848
 2020W        W70394  19.572  17.734   3.326
 2021W        W70395   6.708   5.246   3.206
 2022W        W70396  22.180  25.660  13.015
 2023W        W70397  36.902  26.537  11.083
 2024W        W70398  25.019  28.982  13.014
 2025W        W70399  15.249  28.491   2.251
 2026W        W70400  15.587  42.379  10.638
 2027W        W70401  13.730   2.956   2.323
 2028W        W70402  37.369  39.024   4.693
 2029W        W70403  38.016  18.699  10.600
 2030W        W70404  34.050  28.163  13.473
 2031W        W70405  30.500   5.876   0.862
 2032W        W70406  38.017   1.769   0.337
 2033W        W70407   3.368  19.135   3.193
 2034W        W70408  18.624   6.732  11.493
 2035W        W70409  29.089  11.291   2.366
 2036W        W70410  32.929  41.007  12.995
 2037W        W70411  10.750  13.837   4.601
 2038W        W70412  30.064  22.999   1.772
 2039W        W70413  43.273   9.852  10.404
 2040W        W70414  37.983  33.092   2.855
 2041W        W70415  37.834  36.988   3.692
 2042W        W70416  44.831  12.166   2.739
 2043W        W70417  11.756  42.968   1.280
 2044W        W70418  27.507  13.648   0.393
 2045W        W70419  17.121  23.588   1.225
 2046W        W70420   5.758  21.058   1.438
 2047W        W70421  36.991  40.491  14.999
 2048W        W70422  38.510   5.256   4.317
 2049W        W70423  32.413  31.117  10.931
 2050W        W70424  42.825  26.509   0.892
 2051W        W70425  16.601   3.449  10.941
 2052W        W70426  36.590  41.531  10.042
 2053W        W70427   7.339  11.248   3.837
 2054W        W70428  36.379   7.274   4.820
 2055W        W70429   8.852  36.010   3.654
 2056W        W70430  27.590   3.328  11.604
 2057W        W70431   8.729   0.300  14.462
 2058W        W70432   7.681  44.460  12.459
 2059W        W70433  32.955   5.744  14.007
 2060W        W70434   8.830  38.499   2.804
 2061W        W70435  18.751  39.460  12.553
 2062W        W70436  41.966  22.610  14.472
 2063W        W70437   2.368  29.587  13.387
 2064W        W70438  14.330  22.509   0.444
 2065W        W70439  15.663  21.091   4.615
 2066W        W70440  23.616   1.263  13.864
 2067W        W70441  41.520   7.309  11.020
 2068W        W70442   4.781  11.284   4.648
 2069W        W70443  40.373  28.103  14.850
 2070W        W70444  21.686  36.088   1.786
 2071W        W70445   6.713  38.524  13.837
 2072W        W70446  17.305  24.103  11.457
 2073W        W70447  15.223  35.101   0.281
 2074W        W70448  36.912  32.890  14.964
 2075W        W70449  22.654  38.070   5.180
 2076W        W70450  35.502  36.486   4.344
 2077W        W70451  32.422  42.030   1.438
 2078W        W70452   9.777  40.532  12.422
 2079W        W70453  43.304  16.251   2.361
 2080W        W70454  37.541  16.235   2.206
 2081W        W70455   8.683  41.924   0.850
 2082W        W70456   5.242  30.602  10.956
 2083W        W70457  27.620   5.738   2.898
 2084W        W70458   1.268  13.824   2.376
 2085W        W70459   0.842  25.690  12.907
 2086W        W70460  36.035  28.026   0.413
 2087W        W70461  30.412  41.026  12.509
 2088W        W70462  17.651  23.577   3.820
 2089W        W70463  23.653  34.892  12.468
 2090W        W70464   4.218   1.458   4.162
 2091W        W70465  44.846  18.101   3.238
 2092W        W70466   0.831  36.394   0.813
 2093W        W70467   5.407   0.438  11.992
 2094W        W70468  31.048  39.438   2.891
 2095W        W70469  15.696  12.285   2.689
 2096W        W70470  16.632  33.535  10.957
 2097W        W70471   9.700   5.421  13.927
 2098W        W70472  26.101  18.734  13.937
 2099W        W70473  30.556   5.920   1.857
 2100W        W70474   1.469  37.913   0.964
 2101W        W70475  29.586  25.501   4.195
 2102W        W70476  27.509  41.914   4.347
 2103W        W70477  15.241  41.534   4.833
 2104W        W70478  24.531  30.913  11.865
 2105W        W70479   8.759  17.629  13.004
 2106W        W70480   5.377  11.836   0.261
 2107W        W70481  11.143  29.429   4.203
 2108W        W70482  40.409   9.670   4.708
 2109W        W70483  10.164   1.341   0.246
 2110W        W70484  40.351  36.013  12.867
 2111W        W70485  19.112   2.434   2.852
 2112W        W70486  38.877  27.631  13.460
 2113W        W70487   7.767  25.022  13.525
 2114W        W70488  44.369  24.604   4.275
 2115W        W70489  42.468  13.159   2.902
 2116W        W70490  40.874  20.559  10.992
 2117W        W70491  27.034  32.004  14.315
 2118W        W70492  35.099  38.327   4.280
 2119W        W70493  27.075   9.156   1.934
 2120W        W70494   5.865  43.953  14.445
 2121W        W70495   8.334  19.082   1.737
 2122W        W70496  39.926  33.075   0.294
 2123W        W70497  43.968  41.352  14.291
 2124W        W70498  43.970  40.416   2.886
 2125W        W70499   7.199   6.747  14.863
 2126W        W70500   1.847  28.473  12.474
 2127W        W70501  31.002  27.001  10.578
 2128W        W70502  11.777  13.209   4.654
 2129W        W70503  18.577  33.606   5.285
 2130W        W70504   0.355  22.676   1.809
 2131W        W70505  36.065  39.895  13.883
 2132W        W70506  15.178   8.751  12.878
 2133W        W70507  36.072  18.635  11.010
 2134W        W70508  43.859  25.079  13.929
 2135W        W70509  28.537   0.888   9.669
 2136W        W70510  35.067  22.077   3.218
 2137W        W70511   3.838  34.547   3.162
 2138W        W70512   1.314   9.720  14.849
 2139W        W70513  32.995  32.531  11.876
 2140W        W70514  24.558  23.523   0.443
 2141W        W70515  42.293  27.083  14.986
 2142W        W70516  43.019   0.442  13.357
 2143W        W70517   4.698   4.864  13.924
 2144W        W70518  30.939  44.926   1.399
 2145W        W70519   9.318  16.286   1.765
 2146W        W70520   8.381   4.285   0.738
 2147W        W70521  29.654  17.699  14.815
 2148W        W70522  36.872  43.987  12.538
 2149W        W70523   2.767  13.130  12.365
 2150W        W70524  39.812  33.037  12.001
 2151W        W70525  27.480  12.173   1.388
 2152W        W70526  20.046  40.018   4.252
 2153W        W70527  23.624  36.466   3.225
 2154W        W70528  38.377  19.612  14.898
 2155W        W70529  13.149  18.141  13.000
 2156W        W70530  36.463  42.450   0.965
 2157W        W70531  34.067  28.613   0.923
 2158W        W70532  19.597  20.565   3.630
 2159W        W70533  41.909  16.289  11.391
 2160W        W70534   0.274  44.929  10.529
 2161W        W70535   6.711  28.098  14.282
 2162W        W70536  40.015  33.593  14.782
 2163W        W70537  44.366  30.599  12.396
 2164W        W70538   3.836  44.863  10.576
 2165W        W70539  39.893  35.379   0.250
 2166W        W70540  31.116  34.421   9.988
 2167W        W70541  32.565  20.631  11.101
 2168W        W70542   5.330  32.575   4.322
 2169W        W70543  44.994  15.599  13.377
 2170W        W70544  32.051   9.752  13.003
 2171W        W70545  37.449  16.298   1.832
 2172W        W70546  35.398  25.588  14.786
 2173W        W70547  26.614  32.458  14.365
 2174W        W70548  26.521  34.103   3.212
 2175W        W70549  22.244   7.354   4.605
 2176W        W70550   4.207  35.393  14.803
 2177W        W70551  14.145  19.540   1.864
 2178W        W70552  28.937  43.782  11.565
 2179W        W70553  24.544  27.101  11.101
 2180W        W70554  44.955  17.707   2.269
 2181W        W70555  35.981  16.097  10.921
 2182W        W70556  36.846  19.188  11.597
 2183W        W70557   2.406   2.831   3.849
 2184W        W70558  40.918  44.400  13.061
 2185W        W70559  10.245  14.189  13.811
 2186W        W70560  27.530  25.473  12.906
 2187W        W70561  22.567  44.327   0.913
 2188W        W70562   0.290   8.258   0.837
 2189W        W70563  14.672   5.283  10.981
 2190W        W70564   5.395  30.142  14.401
 2191W        W70565  39.464  38.895   3.169
 2192W        W70566  22.557  36.361   3.644
 2193W        W70567  14.707   0.307  11.983
 2194W        W70568  32.904  24.681  12.007
 2195W        W70569   0.266  44.502  13.872
 2196W        W70570  32.906  32.993   1.819
 2197W        W70571  32.632  34.929  13.043
 2198W        W70572  18.215  36.534  14.851
 2199W        W70573  14.820  12.131   3.239
 2200W        W70574  44.833  43.314   4.738
 2201W        W70575  27.503   3.887   1.892
 2202W        W70576  18.273   6.269  13.937
 2203W        W70577  31.927   9.262   2.681
 2204W        W70578  36.863   5.320  14.919
 2205W        W70579  43.466  38.492   4.143
 2206W        W70580   9.774   2.745   2.784
 2207W        W70581  22.585  30.535  12.984
 2208W        W70582   9.782  22.579   3.645
 2209W        W70583  15.629  35.487   3.236
 2210W        W70584   4.321  19.551  14.509
 2211W        W70585  27.667  11.751   0.815
 2212W        W70586  29.010  43.357  11.899
 2213W        W70587  22.511  43.764   0.855
 2214W        W70588  39.884  29.569   4.604
 2215W        W70589  13.338   5.419  14.355
 2216W        W70590  14.801  42.515   4.812
 2217W        W70591   5.689  10.175   1.291
 2218W        W70592  19.074  28.124  10.576
 2219W        W70593   3.907   0.938  12.367
 2220W        W70594  24.533  33.520  12.853
 2221W        W70595  42.807  10.776   3.170
 2222W        W70596  38.005  43.432   1.793
 2223W        W70597  34.386  42.457   0.254
 2224W        W70598  18.708  30.145  10.893
 2225W        W70599  36.065   5.799  10.931
 2226W        W70600  41.478  35.856   0.956
 2227W        W70601  43.511   6.791   1.283
 2228W        W70602   1.335  37.479  14.492
 2229W        W70603  21.614  20.756   3.227
 2230W        W70604  10.853  28.612  12.515
 2231W        W70605   8.269  28.647   4.231
 2232W        W70606   7.783  13.836  14.442
 2233W        W70607  18.629  29.974  12.853
 2234W        W70608  10.802  17.257  14.799
 2235W        W70609  18.661  28.137   3.633
 2236W        W70610  11.760  22.125  12.881
 2237W        W70611  38.011  17.253  10.636
 2238W        W70612  22.695   0.938   3.167
 2239W        W70613  40.422   8.843  10.061
 2240W        W70614  11.355   4.259  10.447
 2241W        W70615  32.615   7.817  10.594
 2242W        W70616  38.877  33.462  11.075
 2243W        W70617  38.869  10.221  12.894
 2244W        W70618  38.416  41.841   2.394
 2245W        W70619  21.203   1.739  13.833
 2246W        W70620   2.726   8.242   1.827
 2247W        W70621   6.921   2.257   0.249
 2248W        W70622  11.841   0.839  12.532
 2249W        W70623   9.797   4.420  13.806
 2250W        W70624  35.504  38.412   1.260
 2251W        W70625  37.556  29.960   3.712
 2252W        W70626  17.189  22.116  10.644
 2253W        W70627  32.041  27.596  12.547
 2254W        W70628   4.437  23.641  12.473
 2255W        W70629  18.078  30.416  14.780
 2256W        W70630  20.631  40.003  13.354
 2257W        W70631  27.612  24.550  13.372
 2258W        W70632  24.041   0.477   1.261
 2259W        W70633  24.137  40.302   3.286
 2260W        W70634  15.186  35.981  12.562
 2261W        W70635  20.649  37.479   3.163
 2262W        W70636  26.523  26.559  10.935
 2263W        W70637  19.192  32.009  13.795
 2264W        W70638  31.517   0.988   0.353
 2265W        W70639  27.036   8.771   0.343
 2266W        W70640   3.931  18.152   2.328
 2267W        W70641  23.637  10.760   2.860
 2268W        W70642  23.151  31.425   3.356
 2269W        W70643   7.835  41.008   0.756
 2270W        W70644  15.207   8.799   1.926
 2271W        W70645  14.814  15.799  12.457
 2272W        W70646  25.686  16.594   0.736
 2273W        W70647  29.027  11.246   4.673
 2274W        W70648  18.581  27.518  10.481
 2275W        W70649  37.850   8.874  10.136
 2276W        W70650  14.315   2.295  13.895
 2277W        W70651  27.636  42.012  11.412
 2278W        W70652  15.788  25.109   2.690
 2279W        W70653  42.818  11.221   0.313
 2280W        W70654   5.390  19.269   4.781
 2281W        W70655  27.159  37.423   0.419
 2282W        W70656   6.754  33.474   0.808
 2283W        W70657  10.749  18.141  13.342
 2284W        W70658   6.695   6.413  13.851
 2285W        W70659  13.641  24.634   2.838
 2286W        W70660  31.439  22.558  14.908
 2287W        W70661   2.900  25.698  14.281
 2288W        W70662  15.603  12.727  14.318
 2289W        W70663  11.347  42.972  12.402
 2290W        W70664  18.572  25.712   4.652
 2291W        W70665  24.136  20.104   4.123
 2292W        W70666   3.343  22.622  10.616
 2293W        W70667   4.380  40.497  14.307
 2294W        W70668   7.252  26.004   2.297
 2295W        W70669  29.954   0.292   4.791
 2296W        W70670  11.751   1.845   4.829
 2297W        W70671  18.579  12.209  14.911
 2298W        W70672  27.121  20.756   2.226
 2299W        W70673   1.330   8.164  11.583
 2300W        W70674  14.158   8.399   1.925
 2301W        W70675  34.604   3.301   4.277
 2302W        W70676  26.687  27.108  14.802
 2303W        W70677  30.032   3.775   1.699
 2304W        W70678  31.515  12.276   3.744
 2305W        W70679   2.904   2.832  10.591
 2306W        W70680  33.487   8.770  12.945
 2307W        W70681  38.827  27.014  11.509
 2308W        W70682  28.149  36.954  11.492
 2309W        W70683  40.970  10.173   0.736
 2310W        W70684   0.375  40.492   2.833
 2311W        W70685  35.560   7.276  14.792
 2312W        W70686   9.754  32.419  13.333
 2313W        W70687  23.222  27.109  12.507
 2314W        W70688  37.993  34.429  13.813
 2315W        W70689   9.794  36.426   2.300
 2316W        W70690  36.431  11.775   0.877
 2317W        W70691   3.232   6.832  10.957
 2318W        W70692  11.210  21.543  11.549
 2319W        W70693  24.981  28.539  13.321
 2320W        W70694  28.977  21.018  11.478
 2321W        W70695   0.787   8.306  12.574
 2322W        W70696   1.775  42.831   4.800
 2323W        W70697  21.715  11.829  13.469
 2324W        W70698  29.040  44.843   3.780
 2325W        W70699   9.312   1.886  14.274
 2326W        W70700  19.147   9.773   1.322
 2327W        W70701  18.591  15.191   2.350
 2328W        W70702  29.929  25.545   0.775
 2329W        W70703  42.781  31.501  13.453
 2330W        W70704  13.252  37.964   1.282
 2331W        W70705  15.651  25.117  12.460
 2332W        W70706  33.474  41.336  10.502
 2333W        W70707   8.717  23.241   2.831
 2334W        W70708   0.256  25.710  11.428
 2335W        W70709  21.681  42.452   3.339
 2336W        W70710  41.390  36.492   3.853
 2337W        W70711  15.295  19.120  13.317
 2338W        W70712  38.370  26.576  12.348
 2339W        W70713  43.766   9.260   0.795
 2340W        W70714  13.323  23.489   2.837
 2341W        W70715  37.482  22.252   1.240
 2342W        W70716  39.531  33.428   2.324
 2343W        W70717   6.217  34.070  14.948
 2344W        W70718   1.937   3.450   3.776
 2345W        W70719   8.801  40.957   2.285
 2346W        W70720  43.509  15.802   2.886
 2347W        W70721  11.271  37.881  10.464
 2348W        W70722  20.675  29.535   3.197
 2349W        W70723  11.149  27.516   2.703
 2350W        W70724   5.809  30.018  14.432
 2351W        W70725   0.453  25.545   0.857
 2352W        W70726  36.002  15.803   4.700
 2353W        W70727   2.786  35.900  10.519
 2354W        W70728  15.268  36.944   1.248
 2355W        W70729  32.549  17.286   3.705
 2356W        W70730   6.319  10.351   4.751
 2357W        W70731  17.703  10.721  14.480
 2358W        W70732  34.866   3.918   3.338
 2359W        W70733   4.375  20.211   1.248
 2360W        W70734  42.000  35.063   5.290
 2361W        W70735  20.567  27.134  14.893
 2362W        W70736  32.468  15.286   3.253
 2363W        W70737  39.003  36.007   1.332
 2364W        W70738   3.826  22.684  13.018
 2365W        W70739  23.178  35.542   0.335
 2366W        W70740  12.351  20.130   3.695
 2367W        W70741  33.040  17.096   0.250
 2368W        W70742  21.230  42.813  11.449
 2369W        W70743  41.391  42.407  11.395
 2370W        W70744  24.584   5.306  11.981
 2371W        W70745  11.137   4.895  10.417
 2372W        W70746   5.337  10.350  10.644
 2373W        W70747  35.004  34.605  14.789
 2374W        W70748  20.564   0.888   3.257
 2375W        W70749  30.487   3.888   4.779
 2376W        W70750  20.598   9.152  13.391
 2377W        W70751  28.153  23.499  12.090
 2378W        W70752  37.535  12.118   3.312
 2379W        W70753  38.886   3.455  14.472
 2380W        W70754  21.062  23.703  14.975
 2381W        W70755  10.283  34.972  14.935
 2382W        W70756  44.339  42.434  10.553
 2383W        W70757  39.400  37.369  12.546
 2384W        W70758  39.332  35.059  12.069
 2385W        W70759   3.757  25.024  13.866
 2386W        W70760  32.573  38.839   0.831
 2387W        W70761  33.476  19.700  11.045
 2388W        W70762  25.706  15.590   3.376
 2389W        W70763  16.706   3.856   1.876
 2390W        W70764  16.106   8.236  13.513
 2391W        W70765   6.204  36.924  11.077
 2392W        W70766  37.439  37.877   2.811
 2393W        W70767  16.723  31.107  13.869
 2394W        W70768  41.899  10.254   0.446
 2395W        W70769  30.939  38.397   3.375
 2396W        W70770  24.074  32.029  10.046
 2397W        W70771  43.923  23.064   0.812
 2398W        W70772  21.535  19.699   3.840
 2399W        W70773  36.931  11.283  14.335
 2400W        W70774  21.545  41.306   0.448
 2401W        W70775  25.123   7.247   1.877
 2402W        W70776  36.851  14.590  12.935
 2403W        W70777  28.513  38.916   3.728
 2404W        W70778  41.814  39.061   1.384
 2405W        W70779  36.495  26.971  14.348
 2406W        W70780  37.496  18.614  14.847
 2407W        W70781  13.253  27.518   2.229
 2408W        W70782  18.754  34.920   0.758
 2409W        W70783  25.652  15.781   9.580
 2410W        W70784  16.766   0.359  14.510
 2411W        W70785   7.240  36.488  10.581
 2412W        W70786   1.424  21.032  10.991
 2413W        W70787  19.590   1.440  10.953
 2414W        W70788  33.926  30.019   3.812
 2415W        W70789  40.448  23.522   5.194
 2416W        W70790  14.768  27.653   1.260
 2417W        W70791  17.731   3.775   1.909
 2418W        W70792  22.103  13.704  12.019
 2419W        W70793  33.980   4.861   2.879
 2420W        W70794   6.415  36.487  14.439
 2421W        W70795  39.420  13.256   0.388
 2422W        W70796  34.549  28.048  14.353
 2423W        W70797   1.376  31.534  11.503
 2424W        W70798   7.836  29.570  12.573
 2425W        W70799  44.296  25.151   0.876
 2426W        W70800  16.661   5.333  12.082
 2427W        W70801   9.361  21.249   2.827
 2428W        W70802  17.205  22.514   0.874
 2429W        W70803  31.602  30.520   4.657
 2430W        W70804  34.519  34.889  11.869
 2431W        W70805   4.349  30.544  10.436
 2432W        W70806   1.450  42.306   4.811
 2433W        W70807  12.832  15.218   2.399
 2434W        W70808  34.501  12.166  14.338
 2435W        W70809  12.239  21.646  11.998
 2436W        W70810  41.802  25.570  13.492
 2437W        W70811  27.109   1.861   0.893
 2438W        W70812  16.089  10.354   1.765
 2439W        W70813   6.820  26.082   3.187
 2440W        W70814  42.337  33.556  12.493
 2441W        W70815  38.966   2.417   1.386
 2442W        W70816  38.448   6.334  10.078
 2443W        W70817  34.110  40.496  11.035
 2444W        W70818  17.559  38.493   2.826
 2445W        W70819  11.312  37.071   0.292
 2446W        W70820   9.765  18.686  11.066
 2447W        W70821  32.484  41.524   0.333
 2448W        W70822   9.820  37.890   4.785
 2449W        W70823  24.156   3.258   2.188
 2450W        W70824  17.248  15.254   0.455
 2451W        W70825  17.573  18.121   3.837
 2452W        W70826  38.014   7.782   4.167
 2453W        W70827  35.911  32.069  10.632
 2454W        W70828  38.915   5.933  12.375
 2455W        W70829  21.057  22.241  10.065
 2456W        W70830  25.484   3.253  11.467
 2457W        W70831  24.505  37.344  12.389
 2458W        W70832  42.910   7.697   1.294
 2459W        W70833  39.066  24.120   1.277
 2460W        W70834  25.649  43.283  14.888
 2461W        W70835  12.155   8.258  14.488
 2462W        W70836  35.880   7.184   1.261
 2463W        W70837  37.973  15.780   0.828
 2464W        W70838  37.409  11.307   1.884
 2465W        W70839  37.369  41.991  13.892
 2466W        W70840  18.130  19.714  12.884
 2467W        W70841  35.930  25.012   3.317
 2468W        W70842  15.261  10.635   4.250
 2469W        W70843  15.085  35.447  13.367
 2470W        W70844   3.255  27.686   3.321
 2471W        W70845  34.472   8.699  12.962
 2472W        W70846  13.638  29.050   0.764
 2473W        W70847   6.215  12.688   1.302
 2474W        W70848  36.950  41.527  13.446
 2475W        W70849  41.358  29.087  10.413
 2476W        W70850  35.918  25.523  13.963
 2477W        W70851   8.880   5.704  11.372
 2478W        W70852  28.030  22.578  12.060
 2479W        W70853  21.603  41.873  14.915
 2480W        W70854  32.485  26.015   1.699
 2481W        W70855   1.911  33.485   2.209
 2482W        W70856  44.000   9.694  14.869
 2483W        W70857   5.689  35.015   3.284
 2484W        W70858   5.752  26.989  14.949
 2485W        W70859  36.919   7.292  12.504
 2486W        W70860  13.818   8.855   4.348
 2487W        W70861  43.790  10.788   1.921
 2488W        W70862  24.683  30.052  13.347
 2489W        W70863  26.149  35.005   1.351
 2490W        W70864   8.253  16.806   1.278
 2491W        W70865  26.696  28.620   0.269
 2492W        W70866  42.970  40.489   2.796
 2493W        W70867  27.119  13.327  11.946
 2494W        W70868  39.468  38.492  12.876
 2495W        W70869  31.599  30.477   4.241
 2496W        W70870  37.456  23.209   3.784
 2497W        W70871   7.702   7.318  14.896
 2498W        W70872  12.633  17.195   4.252
 2499W        W70873   6.899  41.896   2.374
 2500W        W70874  25.676  39.936   3.689
 2501W        W70875  36.570  17.679   0.335
 2502W        W70876  30.996  30.054  12.348
 2503W        W70877   2.811   3.430  14.850
 2504W        W70878  25.508   5.404   0.779
 2505W        W70879  12.281  37.923   2.397
 2506W        W70880  32.514  38.417   1.701
 2507W        W70881  32.016  12.802  11.547
 2508W        W70882  34.978  15.728  14.393
 2509W        W70883  43.783   8.719  14.859
 2510W        W70884  11.294  19.572   0.282
 2511W        W70885  24.168  40.810   4.289
 2512W        W70886   9.697  38.357   1.241
 2513W        W70887  42.845  12.675   3.181
 2514W        W70888   9.201   2.228  12.410
 2515W        W70889  29.636  23.992  10.125
 2516W        W70890  42.876  36.874  11.089
 2517W        W70891  31.629  33.474  13.918
 2518W        W70892  27.083   3.262   2.238
 2519W        W70893  15.659  18.549   3.865
 2520W        W70894  22.154   4.425  10.474
 2521W        W70895   3.408  34.543  13.468
 2522W        W70896   4.857  41.956   3.247
 2523W        W70897  32.891  35.445  11.482
 2524W        W70898  18.192   8.171  13.043
 2525W        W70899  24.097  20.246   0.903
 2526W        W70900  34.415  44.291   3.176
 2527W        W70901  37.385  26.651   1.374
 2528W        W70902  37.578   0.758   0.321
 2529W        W70903  21.174   9.180   1.287
 2530W        W70904  28.067  16.689  13.449
 2531W        W70905  18.767  11.182   1.337
 2532W        W70906   2.286  28.469  13.408
 2533W        W70907  37.438   2.901  13.904
 2534W        W70908  36.417  14.183  10.426
 2535W        W70909  18.108  18.728   1.736
 2536W        W70910   2.422  38.042   2.276
 2537W        W70911  20.111   3.373   0.451
 2538W        W70912  31.977  25.517   1.926
 2539W        W70913   8.375  39.499   1.321
 2540W        W70914  31.566  40.946  13.064
 2541W        W70915  22.209   4.749  10.975
 2542W        W70916  22.675  20.147  11.417
 2543W        W70917  38.479   0.350   1.713
 2544W        W70918  17.218  44.835  14.354
 2545W        W70919  15.665   5.430   4.602
 2546W        W70920  11.317  21.669  14.402
 2547W        W70921  42.301  24.984  13.339
 2548W        W70922  35.992  17.109   4.733
 2549W        W70923  11.347  39.425   4.329
 2550W        W70924  33.002  29.061   1.821
 2551W        W70925  31.488  17.290  14.381
 2552W        W70926  19.629  22.238   4.724
 2553W        W70927  37.464  43.311   3.187
 2554W        W70928   5.212  25.490  12.967
 2555W        W70929  42.797  15.627  10.037
 2556W        W70930  10.372  16.210   0.267
 2557W        W70931   0.906  33.938  11.071
 2558W        W70932  37.433   1.347   3.675
 2559W        W70933  18.078  12.799  14.987
 2560W        W70934  40.510  23.503   1.437
 2561W        W70935   0.334  30.483  11.468
 2562W        W70936  17.658  42.786  10.494
 2563W        W70937  16.237  34.535   3.808
 2564W        W70938   9.755  18.074   1.904
 2565W        W70939  16.248   4.748  13.473
 2566W        W70940  34.478  33.074   0.759
 2567W        W70941  10.754  13.252   1.757
 2568W        W70942   3.929   1.398   1.934
 2569W        W70943  24.159   7.835  13.021
 2570W        W70944  14.739  10.297  11.872
 2571W        W70945  35.369  20.565   3.805
 2572W        W70946  26.565  10.157  14.845
 2573W        W70947  29.477  26.035   4.727
 2574W        W70948  35.590  28.947  11.434
 2575W        W70949  21.659  20.106   2.747
 2576W        W70950  26.635  33.107   3.353
 2577W        W70951  12.620  11.693   2.782
 2578W        W70952  20.672  11.222   1.296
 2579W        W70953  36.401  15.261  10.991
 2580W        W70954  40.892   8.300   2.188
 2581W        W70955  24.484  11.344  10.900
 2582W        W70956  10.804   9.382   0.838
 2583W        W70957  12.252   2.404  10.497
 2584W        W70958  17.147  12.235  13.353
 2585W        W70959  40.837  32.447   2.372
 2586W        W70960   2.277  18.164  10.434
 2587W        W70961  35.070  11.846  13.329
 2588W        W70962  44.378   4.922  12.002
 2589W        W70963  32.127  20.579  12.046
 2590W        W70964  31.635  44.358  13.456
 2591W        W70965  22.648  16.603   0.401
 2592W        W70966   9.686  17.710  14.927
 2593W        W70967  20.043   8.882  10.570
 2594W        W70968  40.412  34.458  14.768
 2595W        W70969  24.115   1.822   1.912
 2596W        W70970   7.783  35.072  11.086
 2597W        W70971  41.850  44.877   1.752
 2598W        W70972   0.923  27.548  13.800
 2599W        W70973  21.079  28.603   3.171
 2600W        W70974  43.476  29.643  11.899
 2601W        W70975  15.239  12.740   3.249
 2602W        W70976  29.000  38.929   2.826
 2603W        W70977   8.253  24.485   5.584
 2604W        W70978  27.143  23.700   1.345
 2605W        W70979  18.558  23.642  10.456
 2606W        W70980   9.230  36.945  11.469
 2607W        W70981  32.556  20.532   0.902
 2608W        W70982   1.453   7.231   0.847
 2609W        W70983  14.212  38.005   3.369
 2610W        W70984  32.004  10.210  14.839
 2611W        W70985  39.048  35.903  10.517
 2612W        W70986  22.542  15.234   3.657
 2613W        W70987  14.223  39.423  12.875
 2614W        W70988   3.333   0.294  11.973
 2615W        W70989  40.913  31.518   0.358
 2616W        W70990   0.454  17.083  10.445
 2617W        W70991  43.804   5.925  14.996
 2618W        W70992  19.622  10.195   3.831
 2619W        W70993  16.690   3.766   0.960
 2620W        W70994  44.837  39.841  13.846
 2621W        W70995  40.865  30.075   1.350
 2622W        W70996  12.166   6.887  14.840
 2623W        W70997  22.701  35.081   4.268
 2624W        W70998  44.935   9.255   0.249
 2625W        W70999  26.074  26.580  11.872
 2626W        W71000   3.879  27.145  11.937
 2627W        W71001  28.628  41.861   1.419
 2628W        W71002  13.185  24.994   0.439
 2629W        W71003  15.709  43.843  12.427
 2630W        W71004  39.953   6.844   1.322
 2631W        W71005  14.252  28.520  12.866
 2632W        W71006  13.756  14.772   0.365
 2633W        W71007  10.292  17.768  14.875
 2634W        W71008  43.280  38.328  11.386
 2635W        W71009  41.958  41.421   2.862
 2636W        W71010   9.173  30.942   3.327
 2637W        W71011  14.828  37.472   2.900
 2638W        W71012  10.315  31.080  14.993
 2639W        W71013   3.747   7.733   2.770
 2640W        W71014  43.874   0.976   0.927
 2641W        W71015  14.247   9.860   1.743
 2642W        W71016  28.160  20.598   2.200
 2643W        W71017  12.140  38.418   3.162
 2644W        W71018  37.491   4.859  12.405
 2645W        W71019  17.154   3.356   0.853
 2646W        W71020  20.192  37.388  10.891
 2647W        W71021  28.561  31.433   0.356
 2648W        W71022  16.657  32.066   2.269
 2649W        W71023  22.740  32.460  14.991
 2650W        W71024  21.028   7.308   1.911
 2651W        W71025  37.488  41.478  11.934
 2652W        W71026  10.200   0.759   1.883
 2653W        W71027  41.930  40.419   4.162
 2654W        W71028  14.152   1.891  11.929
 2655W        W71029  24.156  15.596   1.696
 2656W        W71030   5.198  33.622   1.710
 2657W        W71031  36.008   3.818  11.978
 2658W        W71032  14.663  44.347   1.296
 2659W        W71033  34.077  11.707  14.501
 2660W        W71034  44.475  17.243  12.960
 2661W        W71035  13.311   4.906   1.734
 2662W        W71036  30.045  30.638   4.797
 2663W        W71037  11.831   8.234   1.778
 2664W        W71038   7.414  13.649   4.743
 2665W        W71039   8.250  13.679  11.080
 2666W        W71040  18.117  43.795  14.770
 2667W        W71041  10.358  21.115   1.707
 2668W        W71042  14.678  37.053   1.451
 2669W        W71043  16.206  16.203  10.951
 2670W        W71044   1.883  37.977   0.781
 2671W        W71045  39.830  11.740   1.918
 2672W        W71046  34.087   8.807   1.893
 2673W        W71047  27.047  12.702   1.233
 2674W        W71048  22.653  30.067   2.778
 2675W        W71049  16.611   1.747   2.717
 2676W        W71050   1.465  13.182   4.605
 2677W        W71051   8.781  38.065  11.984
 2678W        W71052  14.640  18.783  10.426
 2679W        W71053  30.939  39.017  13.467
 2680W        W71054  39.365   8.371   2.881
 2681W        W71055  19.732  36.450   2.677
 2682W        W71056  36.868  22.693  13.876
 2683W        W71057  35.467   9.693  11.993
 2684W        W71058  21.638   7.198   0.314
 2685W        W71059  14.314  39.372   2.778
 2686W        W71060  20.525  12.121   1.358
 2687W        W71061  17.074  26.155  14.925
 2688W        W71062   5.352   8.836  12.070
 2689W        W71063  40.962  24.195   3.213
 2690W        W71064  30.510  23.187   0.298
 2691W        W71065  22.609  13.268  11.900
 2692W        W71066  11.224  41.355   0.328
 2693W        W71067   4.376   7.751  14.787
 2694W        W71068  16.214   7.869   1.807
 2695W        W71069   6.347  24.067   5.282
 2696W        W71070  31.063  15.624  11.116
 2697W        W71071  16.115   0.982   4.278
 2698W        W71072  23.721  24.018   1.776
 2699W        W71073   7.213  33.603   2.880
 2700W        W71074  28.639  38.478   1.849
 2701W        W71075  14.746   8.867  13.844
 2702W        W71076  37.377  28.527   1.910
 2703W        W71077  10.300   7.189   0.885
 2704W        W71078  26.079   5.288   0.909
 2705W        W71079  28.467  11.653  13.831
 2706W        W71080  23.599   2.417  12.865
 2707W        W71081  22.505  23.235   0.798
 2708W        W71082   9.715  29.497   1.309
 2709W        W71083  23.523  42.852  14.439
 2710W        W71084  15.199  24.519   1.398
 2711W        W71085  37.930  11.289   4.758
 2712W        W71086  12.742   3.832  12.517
 2713W        W71087  15.807   3.849   0.338
 2714W        W71088  35.905  25.052  13.318
 2715W        W71089   2.863   7.818  11.888
 2716W        W71090  21.521  20.653   1.447
 2717W        W71091  15.177  27.048   0.759
 2718W        W71092  24.710   7.827  10.933
 2719W        W71093   4.399  41.830  13.863
 2720W        W71094  36.468  43.413   0.269
 2721W        W71095  10.685  25.486   3.734
 2722W        W71096   6.822  23.096   2.860
 2723W        W71097  29.063   9.197  11.582
 2724W        W71098  12.260  41.466  13.012
 2725W        W71099  16.306  36.530   2.816
 2726W        W71100   3.235  18.143   0.378
 2727W        W71101   3.770  12.265  14.980
 2728W        W71102  38.915  18.273   2.850
 2729W        W71103  16.775  17.203  11.047
 2730W        W71104  10.786  35.599   3.669
 2731W        W71105  12.780   4.297  12.898
 2732W        W71106   4.429  39.953  12.523
 2733W        W71107  34.503  41.826  14.818
 2734W        W71108   3.877  33.411   3.264
 2735W        W71109  22.555  40.357   0.729
 2736W        W71110  20.121  23.623  12.999
 2737W        W71111   4.835  12.814  12.577
 2738W        W71112  25.610  18.734  14.894
 2739W        W71113  34.505   6.749  10.562
 2740W        W71114  26.201  36.856  11.520
 2741W        W71115  42.455  33.023   4.625
 2742W        W71116  21.097   6.889  12.520
 2743W        W71117   9.822  29.669   2.216
 2744W        W71118  19.559   8.664  10.621
 2745W        W71119  23.023  20.607   1.265
 2746W        W71120  27.148   1.324  12.039
 2747W        W71121   2.898   5.364  10.549
 2748W        W71122   0.462  37.887  12.556
 2749W        W71123  21.528  42.300   1.443
 2750W        W71124  21.096  18.058   3.743
 2751W        W71125  35.535  25.125  11.925
 2752W        W71126  41.948  36.967   3.782
 2753W        W71127  33.921  41.875  14.307
 2754W        W71128   2.237  19.154   2.340
 2755W        W71129  13.325   9.666   0.357
 2756W        W71130  34.906  25.134   1.227
 2757W        W71131  21.514   7.881   2.250
 2758W        W71132   6.855  32.062   2.339
 2759W        W71133   5.888  31.147  10.608
 2760W        W71134  34.976  17.671   2.296
 2761W        W71135  14.210  28.961  12.930
 2762W        W71136  43.452  19.740   5.082
 2763W        W71137  24.665   6.805   4.174
 2764W        W71138  34.100  21.182   0.384
 2765W        W71139  37.056  33.119  11.118
 2766W        W71140  36.509  34.897  10.498
 2767W        W71141  22.504  29.455  14.916
 2768W        W71142  38.403  28.078   3.740
 2769W        W71143  25.214   8.897   3.251
 2770W        W71144  17.585  35.594   4.191
 2771W        W71145  16.113  31.076   4.118
 2772W        W71146  15.728  43.364   0.740
 2773W        W71147  15.189   1.912  13.426
 2774W        W71148  29.117  35.914  14.961
 2775W        W71149  15.692   3.365   1.865
 2776W        W71150  23.031   5.362  11.524
 2777W        W71151  34.014  34.389  13.432
 2778W        W71152  40.537  28.510  13.814
 2779W        W71153  35.475  10.255   2.406
 2780W        W71154  32.497  36.863   1.359
 2781W        W71155  33.552  34.085   2.720
 2782W        W71156  16.629  29.638  11.391
 2783W        W71157  17.250  42.775  13.963
 2784W        W71158  24.593  10.362   4.302
 2785W        W71159  32.565  10.344   0.771
 2786W        W71160  32.069  22.187   4.332
 2787W        W71161  26.164  13.312   0.365
 2788W        W71162  10.176   7.869   2.358
 2789W        W71163  24.592   6.724   4.804
 2790W        W71164   0.449  29.987   4.603
 2791W        W71165  18.570   0.986   3.283
 2792W        W71166  13.260  17.189  11.536
 2793W        W71167   6.743   9.801   1.262
 2794W        W71168  30.483  38.460   3.210
 2795W        W71169  35.368  40.881   0.429
 2796W        W71170   6.828   0.346  10.446
 2797W        W71171  18.744   0.262  12.495
 2798W        W71172   7.864   0.350   0.389
 2799W        W71173  28.446  33.929  12.828
 2800W        W71174  36.434  42.814   2.406
 2801W        W71175  34.386  29.969   3.701
 2802W        W71176   8.728  24.137  12.863
 2803W        W71177  31.004  18.573   0.839
 2804W        W71178   1.922  35.962   0.813
 2805W        W71179   0.482  21.646  13.351
 2806W        W71180   5.926  27.178   3.294
 2807W        W71181  40.035   2.967  14.395
 2808W        W71182   5.414   6.286  13.877
 2809W        W71183  26.145  19.109   0.265
 2810W        W71184  26.511  22.540  13.908
 2811W        W71185  23.994  30.457   0.939
 2812W        W71186   4.394  35.405  12.491
 2813W        W71187  11.735   2.727  13.912
 2814W        W71188  40.004  43.275   3.653
 2815W        W71189  40.474  13.686   4.323
 2816W        W71190  19.181   3.851   1.341
 2817W        W71191  12.307  14.616   4.220
 2818W        W71192  16.267  28.480   3.263
 2819W        W71193  31.110  27.547   3.658
 2820W        W71194  24.135   4.721   4.200
 2821W        W71195  33.010  41.351  10.418
 2822W        W71196  20.031  44.420  10.469
 2823W        W71197   4.318  42.508   1.822
 2824W        W71198  39.389  14.161  10.525
 2825W        W71199  34.493  22.559  10.613
 2826W        W71200   2.225  36.406   0.811
 2827W        W71201   1.265  44.276   0.277
 2828W        W71202  25.689   7.391  12.888
 2829W        W71203  15.107  17.241  11.060
 2830W        W71204   6.424   2.405  14.984
 2831W        W71205  14.210  16.080  14.483
 2832W        W71206  28.545  25.543   1.309
 2833W        W71207  43.415  21.750  13.995
 2834W        W71208  18.668   1.788   1.824
 2835W        W71209  13.116  43.981  14.856
 2836W        W71210  12.650  33.064  11.559
 2837W        W71211  10.380   6.731   3.735
 2838W        W71212  17.238  16.769   1.767
 2839W        W71213  28.058  20.764  11.992
 2840W        W71214  10.355  37.464  10.432
 2841W        W71215  20.155  24.094   0.445
 2842W        W71216  29.996  30.133   1.340
 2843W        W71217  30.989  35.881   2.416
 2844W        W71218  33.606  40.359   1.267
 2845W        W71219  22.107   5.692  13.825
 2846W        W71220  29.598  29.600   2.367
 2847W        W71221  43.774   6.279   2.213
 2848W        W71222  12.753   2.761  10.455
 2849W        W71223  44.826  41.792   1.221
 2850W        W71224   2.313  16.259  11.497
 2851W        W71225  35.027  20.238  14.457
 2852W        W71226  11.256  27.587   1.850
 2853W        W71227  16.795   7.668   3.337
 2854W        W71228  31.646  26.204   0.436
 2855W        W71229  17.744   3.223  11.023
 2856W        W71230   2.848  24.558  12.529
 2857W        W71231  15.758  36.003   0.419
 2858W        W71232  39.459  36.020   3.810
 2859W        W71233  34.408  13.795   1.826
 2860W        W71234   1.950   3.730  10.917
 2861W        W71235  28.667  15.111  14.930
 2862W        W71236  20.205  37.039   0.382
 2863W        W71237  13.828  17.794   4.694
 2864W        W71238   1.415   1.851   3.789
 2865W        W71239  14.727   1.296  10.468
 2866W        W71240   9.333  16.641   1.329
 2867W        W71241  40.520  23.219  12.830
 2868W        W71242  30.438  14.173   1.413
 2869W        W71243  32.105  11.762   4.735
 2870W        W71244  44.793   3.298   4.310
 2871W        W71245  12.361  30.913  14.438
 2872W        W71246  22.232   2.897  10.907
 2873W        W71247  39.509  25.640   1.815
 2874W        W71248  25.642   5.864   4.642
 2875W        W71249   8.232  28.452  10.917
 2876W        W71250  10.842   1.379  12.043
 2877W        W71251  39.008  40.318  12.501
 2878W        W71252  38.462  12.734  13.543
 2879W        W71253  18.155  26.968  13.365
 2880W        W71254  15.761  22.142   4.267
 2881W        W71255   2.784  40.862  11.105
 2882W        W71256  36.897   8.756   0.746
 2883W        W71257  11.623  40.536   1.440
 2884W        W71258   1.785  30.935   3.366
 2885W        W71259  18.236  44.900  10.489
 2886W        W71260  28.553  10.825   3.857
 2887W        W71261  28.096  19.257  11.490
 2888W        W71262  13.605  30.447   4.836
 2889W        W71263  19.656  19.540   2.373
 2890W        W71264  20.126   2.883  12.871
 2891W        W71265  18.691  29.928   2.827
 2892W        W71266  33.099  37.362   0.954
 2893W        W71267   7.905   4.739   1.766
 2894W        W71268  10.149   3.228  13.363
 2895W        W71269  34.428  28.038   2.408
 2896W        W71270  40.824  37.426   4.281
 2897W        W71271   7.813  42.288   0.255
 2898W        W71272  43.827  38.328  12.972
 2899W        W71273  24.091  31.475   3.781
 2900W        W71274  30.000   2.256  12.851
 2901W        W71275  15.155  11.134   9.524
 2902W        W71276  29.577  11.345  11.600
 2903W        W71277  29.983  32.987  13.944
 2904W        W71278  36.979  11.707   2.313
 2905W        W71279  25.630  11.286  10.983
 2906W        W71280   1.846   7.693   5.203
 2907W        W71281  18.675  26.688  13.440
 2908W        W71282   5.808  40.024   0.320
 2909W        W71283  30.522  20.234  10.945
 2910W        W71284  40.864   9.175   0.439
 2911W        W71285  29.463  36.544   3.241
 2912W        W71286   1.369   1.269  13.379
 2913W        W71287  25.592  40.019   1.423
 2914W        W71288  34.933  18.668   0.263
 2915W        W71289  28.669   2.963  10.537
 2916W        W71290   6.263   0.926   1.367
 2917W        W71291  40.846   8.859   0.326
 2918W        W71292  23.596  21.071  12.965
 2919W        W71293   7.869  28.460  10.956
 2920W        W71294   2.236  17.230   1.761
 2921W        W71295  22.631  11.235   3.629
 2922W        W71296  20.037  17.789   3.662
 2923W        W71297  15.596   3.266   3.211
 2924W        W71298   5.288  35.073  12.846
 2925W        W71299  34.970   2.888   4.340
 2926W        W71300  20.675  21.720  11.501
 2927W        W71301  25.682  31.612   1.370
 2928W        W71302  22.118  35.525  14.865
 2929W        W71303   9.336   3.382  10.086
 2930W        W71304  19.141   9.766  14.864
 2931W        W71305  22.024  24.013   3.687
 2932W        W71306  32.937  27.105  12.946
 2933W        W71307  13.689   1.446  12.826
 2934W        W71308   6.861  23.232   4.695
 2935W        W71309  20.741  13.200  12.825
 2936W        W71310  22.659  38.457   2.256
 2937W        W71311  10.795   4.369  11.444
 2938W        W71312   9.223  19.186   2.194
 2939W        W71313  13.667   5.832   0.809
 2940W        W71314   3.407  40.912   2.671
 2941W        W71315  31.579  19.224   1.810
 2942W        W71316   6.816  27.669  13.455
 2943W        W71317  16.583  43.970   3.763
 2944W        W71318  31.966  15.113   1.422
 2945W        W71319   4.909  16.270   2.195
 2946W        W71320  41.395   3.384   1.807
 2947W        W71321  36.901   5.196  12.522
 2948W        W71322  44.417  25.980  13.005
 2949W        W71323  34.919   7.823  12.360
 2950W        W71324  31.945  11.209   1.229
 2951W        W71325  32.590  11.237   4.633
 2952W        W71326  29.628  38.895  14.949
 2953W        W71327  17.093  10.233   2.733
 2954W        W71328   2.905   8.775   0.362
 2955W        W71329  27.958   2.931   3.244
 2956W        W71330  30.119  17.743  10.515
 2957W        W71331  24.706   3.799  11.604
 2958W        W71332  33.577  31.530  14.479
 2959W        W71333  37.903  30.519  13.879
 2960W        W71334  36.945  15.166   1.389
 2961W        W71335  34.920  10.202   1.385
 2962W        W71336  29.086  15.693   1.764
 2963W        W71337  11.866  16.622  14.883
 2964W        W71338  31.553  26.201  10.597
 2965W        W71339  32.533   4.210   0.898
 2966W        W71340  19.083   9.664  14.397
 2967W        W71341  22.049  40.833   9.986
 2968W        W71342   3.223   9.862   4.152
 2969W        W71343   4.257  11.341  12.848
 2970W        W71344  16.215   9.390  11.895
 2971W        W71345  27.024   0.338   4.798
 2972W        W71346  43.452  15.689   9.929
 2973W        W71347  39.379   9.253   9.649
 2974W        W71348   0.401  37.837  11.998
 2975W        W71349  13.336  23.511  12.521
 2976W        W71350   8.842  11.782   3.223
 2977W        W71351  29.122  10.372  12.014
 2978W        W71352  19.266  22.618  10.895
 2979W        W71353  37.389   7.839   3.651
 2980W        W71354  28.147  31.549  10.433
 2981W        W71355  13.168  41.434   1.291
 2982W        W71356  10.765  42.963  10.617
 2983W        W71357  36.960   7.318  14.004
 2984W        W71358  25.682   6.689  13.335
 2985W        W71359  32.031  35.495  10.912
 2986W        W71360  12.832  12.628   3.652
 2987W        W71361  25.179  10.809  13.005
 2988W        W71362  32.911  40.970   0.406
 2989W        W71363  15.164  16.793  12.013
 2990W        W71364  26.584  34.927  14.951
 2991W        W71365   8.693  39.319   4.337
 2992W        W71366  41.797  40.001   4.320
 2993W        W71367  11.201  41.941  14.850
 2994W        W71368  32.522  20.597   2.209
 2995W        W71369  27.535  18.176  12.959
 2996W        W71370  11.205   8.332   0.469
 2997W        W71371  12.756  28.052   2.240
 2998W        W71372  22.621   4.723  10.079
 2999W        W71373  18.137   7.770  13.499
 3000W        W71374   0.928  36.035  13.825
 3001W        W71375  10.857  25.127   1.707
 3002W        W71376  19.116  28.953  14.888
 3003W        W71377  21.615  40.911   2.832
 3004W        W71378   3.458   0.487  13.798
 3005W        W71379  29.124  31.420   2.791
 3006W        W71380  23.718  21.119   0.755
 3007W        W71381  30.110  25.104   4.113
 3008W        W71382  16.234  12.726   1.770
 3009W        W71383  18.190  31.949   1.423
 3010W        W71384  15.635  20.752   2.763
 3011W        W71385  11.628  32.949   2.811
 3012W        W71386  10.223  36.911  11.085
 3013W        W71387  29.430   0.462   2.276
 3014W        W71388  23.997  31.107  12.833
 3015W        W71389  32.919  26.664   1.752
 3016W        W71390  12.767  20.638   1.222
 3017W        W71391  28.534  17.600  14.993
 3018W        W71392   3.895  34.383   4.155
 3019W        W71393  29.107  37.520  13.353
 3020W        W71394   0.448  39.878   4.145
 3021W        W71395  30.004   8.242  12.032
 3022W        W71396  15.129  44.262   1.798
 3023W        W71397  35.098   6.409  11.541
 3024W        W71398   3.301  34.956  11.447
 3025W        W71399  29.553  21.159  14.352
 3026W        W71400  11.805  25.546   1.774
 3027W        W71401   4.914   8.189  10.447
 3028W        W71402  41.301  43.478   2.828
 3029W        W71403  44.953  13.228  14.468
 3030W        W71404  32.571   1.449  12.383
 3031W        W71405  44.389  10.748  13.968
 3032W        W71406  43.446   9.678  14.491
 3033W        W71407   3.448  26.972  14.512
 3034W        W71408  40.439  34.082   2.831
 3035W        W71409  18.551  29.995   2.262
 3036W        W71410   9.785  41.032  14.952
 3037W        W71411  36.546   0.834  11.871
 3038W        W71412  28.660  14.153  13.420
 3039W        W71413  11.216  44.413  10.607
 3040W        W71414   9.867  41.970  14.483
 3041W        W71415  22.033  18.715   0.770
 3042W        W71416  14.134  17.270  10.912
 3043W        W71417  40.543  38.329  14.425
 3044W        W71418  39.322  44.984  13.910
 3045W        W71419   9.299  35.069   3.722
 3046W        W71420  23.541   6.392   0.372
 3047W        W71421  15.245  11.742   2.242
 3048W        W71422  29.515  30.971   4.680
 3049W        W71423   5.897  27.948   3.324
 3050W        W71424  10.377  34.878  10.609
 3051W        W71425  15.665   0.279  13.405
 3052W        W71426   0.457  13.642  11.372
 3053W        W71427  23.995   1.847   4.752
 3054W        W71428  23.146  23.720  11.484
 3055W        W71429  28.169   8.308   0.787
 3056W        W71430  43.794  12.272  12.387
 3057W        W71431  14.610  14.726  11.553
 3058W        W71432  33.119   0.821   0.355
 3059W        W71433  18.622  35.890  10.059
 3060W        W71434   2.918  30.034   2.298
 3061W        W71435  18.256  35.379   4.804
 3062W        W71436  32.949  20.577   0.423
 3063W        W71437  13.810  18.292  11.044
 3064W        W71438   1.414  27.481  12.096
 3065W        W71439  41.849  33.009  13.452
 3066W        W71440  31.119  36.482  13.927
 3067W        W71441  37.539  19.741  14.476
 3068W        W71442  16.717   6.188  12.054
 3069W        W71443  34.967  40.918  14.306
 3070W        W71444   0.262  18.238  13.332
 3071W        W71445   7.748  10.793  11.882
 3072W        W71446   8.363  30.463  13.350
 3073W        W71447  18.711  21.113   3.201
 3074W        W71448  36.952  26.147   3.290
 3075W        W71449  15.807  26.495  12.948
 3076W        W71450   5.899  19.047   2.389
 3077W        W71451  18.681  34.611   0.451
 3078W        W71452  30.436  38.355   2.361
 3079W        W71453   3.242   2.361  12.909
 3080W        W71454  38.379  37.551   0.287
 3081W        W71455  37.521   4.428   3.630
 3082W        W71456   8.180   5.236  12.474
 3083W        W71457  33.606   3.247  10.090
 3084W        W71458  26.084   1.897   1.702
 3085W        W71459  19.075  40.508  12.559
 3086W        W71460  41.815  18.108  10.475
 3087W        W71461  42.931  38.877  13.798
 3088W        W71462  33.902  20.143  11.440
 3089W        W71463  38.987   6.357  10.977
 3090W        W71464   2.262  16.650   1.743
 3091W        W71465  24.194  34.014   2.226
 3092W        W71466  33.880  41.883   2.310
 3093W        W71467  18.190   4.813  11.416
 3094W        W71468  31.624   7.848   2.275
 3095W        W71469  30.122  23.577   1.277
 3096W        W71470  18.549  41.538   0.302
 3097W        W71471  14.767  37.844  11.997
 3098W        W71472   9.242   8.361  11.870
 3099W        W71473  12.273  36.454  10.478
 3100W        W71474  27.466   2.841  11.453
 3101W        W71475  25.182  39.448   0.827
 3102W        W71476   3.751  16.751  12.907
 3103W        W71477  23.038  13.702  13.472
 3104W        W71478  41.993  44.405  10.566
 3105W        W71479  29.993  18.668  11.898
 3106W        W71480  12.143   9.857  13.481
 3107W        W71481  31.099  40.030  14.915
 3108W        W71482  36.015  32.522   2.284
 3109W        W71483  31.021   6.425   5.286
 3110W        W71484   1.309  40.368  11.968
 3111W        W71485   7.348  44.835   2.336
 3112W        W71486  37.055  11.148   2.185
 3113W        W71487  11.350  32.621   4.113
 3114W        W71488  36.085  31.055  12.035
 3115W        W71489  44.763  17.668  12.915
 3116W        W71490   1.383  21.727   3.382
 3117W        W71491   9.355   8.383   2.692
 3118W        W71492   6.887  40.450   2.811
 3119W        W71493  25.158  12.191   2.836
 3120W        W71494  28.475  17.078  12.967
 3121W        W71495  18.638  33.894   2.785
 3122W        W71496  25.191   3.714  10.586
 3123W        W71497  23.071  12.786   1.847
 3124W        W71498  42.435  21.523   2.882
 3125W        W71499  37.503   1.286  12.081
 3126W        W71500  25.069  36.923   1.432
 3127W        W71501   3.734   0.986  11.609
 3128W        W71502  13.235  29.002  13.490
 3129W        W71503  17.785  14.652   1.818
 3130W        W71504  25.605   7.693  14.503
 3131W        W71505  43.413  28.573  14.901
 3132W        W71506  11.134  38.009  12.950
 3133W        W71507  23.163  10.200  13.798
 3134W        W71508   0.314   4.810   1.795
 3135W        W71509   7.379   8.195  14.869
 3136W        W71510   5.707   6.800  10.995
 3137W        W71511  43.403   8.726   2.257
 3138W        W71512   9.666  41.888  12.001
 3139W        W71513   0.977  31.126  14.365
 3140W        W71514  35.104  29.159  10.995
 3141W        W71515  25.561   8.200  12.457
 3142W        W71516   8.851  30.484  12.984
 3143W        W71517  44.434   7.904  13.823
 3144W        W71518  11.703  44.347  11.059
 3145W        W71519   8.226   1.482  14.028
 3146W        W71520  24.108  23.056   0.313
 3147W        W71521   1.740  34.065   0.364
 3148W        W71522   8.271  15.793  11.063
 3149W        W71523  18.721  43.843  11.100
 3150W        W71524   4.732  10.791   2.889
 3151W        W71525   1.742  41.442  10.598
 3152W        W71526  43.410   6.827  13.405
 3153W        W71527  23.661   8.701  14.900
 3154W        W71528  22.076  13.289  10.930
 3155W        W71529  27.685  13.637  11.026
 3156W        W71530   7.846   5.207  10.029
 3157W        W71531  42.025  12.344  12.019
 3158W        W71532  23.173   3.325   4.294
 3159W        W71533  41.392   7.873   0.364
 3160W        W71534  22.557  42.880   3.283
 3161W        W71535   3.312  14.771  11.039
 3162W        W71536  34.978  22.094  14.851
 3163W        W71537  14.654  31.981  13.923
 3164W        W71538   1.959  10.708  13.959
 3165W        W71539  14.129   5.799   0.777
 3166W        W71540  11.305  42.499  13.346
 3167W        W71541  36.911  34.023  14.825
 3168W        W71542  25.685  38.555   4.664
 3169W        W71543   9.193  21.225  13.380
 3170W        W71544  10.767  37.541   1.341
 3171W        W71545  38.560   5.367  10.642
 3172W        W71546  40.860   8.184   3.160
 3173W        W71547  39.062  28.461   4.811
 3174W        W71548  15.111  14.747   1.872
 3175W        W71549   7.398  16.216  14.449
 3176W        W71550   6.393  41.882   2.864
 3177W        W71551  41.497   6.268   2.785
 3178W        W71552  36.540  38.470   0.375
 3179W        W71553   4.335  23.674  14.845
 3180W        W71554  22.029  34.044  12.909
 3181W        W71555  14.593  29.535   3.832
 3182W        W71556  13.724  44.453  13.891
 3183W        W71557  19.733   2.829  14.984
 3184W        W71558  42.308  35.411  10.919
 3185W        W71559  40.467   5.422   3.257
 3186W        W71560  29.996  13.109   3.677
 3187W        W71561   0.397  33.093   2.231
 3188W        W71562  25.491  17.147  11.869
 3189W        W71563   0.261  22.658  10.629
 3190W        W71564  40.815  40.945  11.578
 3191W        W71565   9.190  10.347   1.271
 3192W        W71566   7.390  23.516   1.934
 3193W        W71567  17.240  41.905   2.703
 3194W        W71568  22.091  14.110  14.852
 3195W        W71569  24.552  42.438  14.814
 3196W        W71570  23.218  28.626  14.876
 3197W        W71571  40.500  17.618  14.473
 3198W        W71572  11.771  35.038  10.515
 3199W        W71573  42.439  14.298   4.179
 3200W        W71574  28.016   2.393  14.822
 3201W        W71575  15.087  27.011  10.607
 3202W        W71576  29.598  32.535   0.381
 3203W        W71577  17.643   6.761   0.464
 3204W        W71578  19.144  40.469   2.211
 3205W        W71579  23.631  33.397   2.699
 3206W        W71580  11.229   7.709  13.874
 3207W        W71581  28.014  13.826   2.360
 3208W        W71582  35.521  24.498   1.396
 3209W        W71583  28.171   4.402  10.612
 3210W        W71584   0.271  24.506   3.355
 3211W        W71585  32.127  33.051  14.807
 3212W        W71586  35.042  31.625   1.268
 3213W        W71587   4.815  38.499   2.809
 3214W        W71588  20.763   6.202   2.691
 3215W        W71589   3.726   2.262  10.592
 3216W        W71590  33.612   6.749  14.487
 3217W        W71591  42.329  34.051  14.389
 3218W        W71592  31.909  38.520   0.299
 3219W        W71593  26.599  13.821  13.972
 3220W        W71594  41.947  18.708  12.534
 3221W        W71595   5.837  36.092  12.573
 3222W        W71596   5.225   0.823  13.362
 3223W        W71597   3.925  14.748  12.960
 3224W        W71598   9.289  10.243  11.399
 3225W        W71599  11.325  35.598  12.416
 3226W        W71600  27.585   2.300  14.483
 3227W        W71601   1.920  21.676   1.700
 3228W        W71602  39.362  27.490  13.996
 3229W        W71603   2.284  14.174   2.855
 3230W        W71604  15.624  35.059  13.450
 3231W        W71605   1.804   3.332  14.288
 3232W        W71606  26.668  15.693   1.724
 3233W        W71607  32.515  31.983  12.826
 3234W        W71608  14.324   6.865   1.807
 3235W        W71609  32.589   0.442   3.789
 3236W        W71610  36.356  25.138   0.476
 3237W        W71611  36.065  19.581   4.671
 3238W        W71612  10.766  20.108   4.309
 3239W        W71613  20.543  35.021  12.919
 3240W        W71614  39.559  37.580   2.227
 3241W        W71615  11.747  10.749   2.767
 3242W        W71616  23.136  43.970  14.830
 3243W        W71617  44.273  14.189   2.735
 3244W        W71618  36.541  39.020  12.380
 3245W        W71619  28.053  42.365   2.194
 3246W        W71620  28.994   6.204  10.985
 3247W        W71621   1.854   1.434   4.220
 3248W        W71622  28.025   1.403  13.429
 3249W        W71623   7.233   5.925  12.572
 3250W        W71624  31.983   9.662   2.276
 3251W        W71625   3.453  21.548   0.857
 3252W        W71626  18.613  26.688   1.220
 3253W        W71627  14.143   2.741  13.018
 3254W        W71628  40.468  28.953  13.433
 3255W        W71629  27.537  15.626   2.832
 3256W        W71630   5.350   5.394  10.459
 3257W        W71631  37.040  44.309  11.942
 3258W        W71632  18.552  21.743  12.849
 3259W        W71633  20.225  10.237  12.381
 3260W        W71634   0.925  10.848   1.856
 3261W        W71635  30.421  23.041  13.370
 3262W        W71636  30.497  35.427   3.842
 3263W        W71637  31.959  36.969  14.322
 3264W        W71638  13.645  19.702   0.301
 3265W        W71639   6.240  16.595   3.239
 3266W        W71640  17.067  33.451  14.458
 3267W        W71641  31.503  18.101   1.727
 3268W        W71642  13.260  36.882   4.708
 3269W        W71643  32.421  38.405  14.012
 3270W        W71644  44.444  27.450   0.448
 3271W        W71645  36.859  29.485  12.382
 3272W        W71646  34.549  28.075  13.526
 3273W        W71647   2.400  37.550   3.841
 3274W        W71648  11.353  24.038  13.375
 3275W        W71649  37.392   7.902  12.399
 3276W        W71650  33.013  13.134   0.471
 3277W        W71651  17.214  32.606  12.373
 3278W        W71652   5.726  43.278  13.380
 3279W        W71653  42.892  11.649   4.160
 3280W        W71654  36.927  39.898  14.414
 3281W        W71655  36.506  23.508  14.861
 3282W        W71656   9.351  30.422  14.787
 3283W        W71657  14.720  41.300   9.932
 3284W        W71658  36.488  33.947   4.667
 3285W        W71659  15.797  38.045  12.867
 3286W        W71660  41.821   5.322  12.469
 3287W        W71661  16.201   8.667   3.330
 3288W        W71662  22.623  18.257  13.826
 3289W        W71663  38.454   7.252   1.772
 3290W        W71664  38.443  23.986  12.854
 3291W        W71665  15.797  38.880   2.191
 3292W        W71666   6.223   0.419   4.663
 3293W        W71667   0.349  29.446   1.922
 3294W        W71668  37.053   3.903   2.747
 3295W        W71669  15.221  15.232  12.034
 3296W        W71670  29.571  12.131  10.983
 3297W        W71671  37.416  43.921   2.313
 3298W        W71672   4.346   7.223  13.821
 3299W        W71673  44.307  36.894   0.764
 3300W        W71674   8.302  35.042  12.417
 3301W        W71675  40.332  39.492   1.847
 3302W        W71676  37.088  42.006   3.303
 3303W        W71677  29.435  19.202   4.663
 3304W        W71678  27.490  42.326   2.799
 3305W        W71679  13.342  33.540  10.553
 3306W        W71680   8.282  20.158  13.043
 3307W        W71681   8.374  33.904   3.265
 3308W        W71682  31.113  28.117  11.967
 3309W        W71683  30.579  32.995   1.782
 3310W        W71684  15.098   1.286  10.992
 3311W        W71685  32.449  35.490   3.192
 3312W        W71686   3.865  16.582  11.470
 3313W        W71687   5.343  22.542   1.299
 3314W        W71688  10.686  36.388   3.361
 3315W        W71689   1.365  40.426  13.813
 3316W        W71690  27.685  26.597  10.590
 3317W        W71691   3.242   6.695   4.297
 3318W        W71692  21.200  27.654  13.792
 3319W        W71693  25.681  22.531  13.500
 3320W        W71694   4.727  16.587  10.471
 3321W        W71695  37.892  21.061  11.866
 3322W        W71696  18.574  43.786   2.268
 3323W        W71697  42.356  40.889   4.808
 3324W        W71698  35.969  27.484  11.020
 3325W        W71699  28.122  19.067   3.797
 3326W        W71700   2.428  40.868   4.731
 3327W        W71701  18.641  38.930  10.534
 3328W        W71702  44.954   2.898  13.022
 3329W        W71703   7.756   4.376  11.072
 3330W        W71704  13.146  14.808   2.297
 3331W        W71705  16.081  15.709  12.062
 3332W        W71706  36.963  43.931  10.461
 3333W        W71707  38.354  38.851  12.035
 3334W        W71708  23.077  27.057   1.852
 3335W        W71709   8.357   5.787  13.927
 3336W        W71710   1.428   5.211   3.747
 3337W        W71711  18.586  37.950  11.407
 3338W        W71712  15.821  33.576   4.782
 3339W        W71713  10.380   6.296  13.012
 3340W        W71714  23.028   3.244  13.419
 3341W        W71715  20.144  17.150   4.789
 3342W        W71716  36.064  25.513   3.356
 3343W        W71717  27.189  41.031  11.562
 3344W        W71718  17.187  14.801  13.519
 3345W        W71719  10.663  23.585  11.379
 3346W        W71720  29.935  14.774  10.892
 3347W        W71721  22.725   5.828   3.844
 3348W        W71722  36.846  27.161   0.373
 3349W        W71723  42.839  18.187   0.322
 3350W        W71724   2.261  16.116   3.852
 3351W        W71725  32.979  23.107   1.424
 3352W        W71726  17.305  24.071  10.624
 3353W        W71727  18.184  11.853  11.604
 3354W        W71728  29.549  29.064  10.537
 3355W        W71729  22.174  30.529  11.127
 3356W        W71730  28.172  21.532  13.856
 3357W        W71731   4.382  14.589  11.474
 3358W        W71732   2.244   2.417  13.526
 3359W        W71733  13.625   9.735   4.767
 3360W        W71734  11.793  31.007  10.950
 3361W        W71735  24.161  43.988   3.361
 3362W        W71736  35.087   0.493  14.394
 3363W        W71737   9.780  22.048   2.200
 3364W        W71738  26.143  17.597   2.788
 3365W        W71739  13.830  25.989   3.293
 3366W        W71740  38.832  39.849   2.366
 3367W        W71741  35.583   0.443  10.472
 3368W        W71742   5.299  28.155   2.391
 3369W        W71743   4.744  40.809  10.409
 3370W        W71744  39.992  38.077   4.708
 3371W        W71745  26.003  37.355  11.590
 3372W        W71746   6.248   5.308   1.352
 3373W        W71747  33.011  40.861   3.745
 3374W        W71748  24.602  32.031   2.362
 3375W        W71749   6.791  36.411  14.867
 3376W        W71750  12.679  40.912   4.663
 3377W        W71751  27.190  14.243  11.049
 3378W        W71752  44.760  36.920   1.391
 3379W        W71753   5.264  24.037  14.776
 3380W        W71754  10.162  15.604  13.800
 3381W        W71755   6.716  27.665  11.924
 3382W        W71756  31.562  23.043  14.423
 3383W        W71757  38.340  29.987  12.471
 3384W        W71758   0.882  15.241  13.028
 3385W        W71759   3.235  25.689   0.933
 3386W        W71760  29.054  39.409   1.819
 3387W        W71761  34.591   2.965  12.467
 3388W        W71762   2.907   4.376  12.383
 3389W        W71763   4.810  28.982   4.716
 3390W        W71764   4.427  27.173  11.999
 3391W        W71765  42.344   7.763   3.286
 3392W        W71766  41.942  33.003  12.915
 3393W        W71767  34.464   2.778   4.822
 3394W        W71768  25.160  39.977   0.417
 3395W        W71769  40.459  31.986   4.319
 3396W        W71770  16.799  36.561   1.213
 3397W        W71771  15.731  23.989   2.356
 3398W        W71772  37.921  15.678   3.376
 3399W        W71773   2.430  20.043   1.785
 3400W        W71774  32.066  31.517  10.410
 3401W        W71775  37.528   6.824   1.280
 3402W        W71776  40.923  14.118  11.055
 3403W        W71777   9.329   5.925  10.908
 3404W        W71778  23.511   4.353   3.812
 3405W        W71779  40.934  26.655   1.337
 3406W        W71780   6.833  20.185   3.359
 3407W        W71781  33.910   6.706   4.740
 3408W        W71782   6.899  20.601   2.349
 3409W        W71783  27.612  37.507   1.874
 3410W        W71784  37.941  14.668  12.523
 3411W        W71785  37.071  13.703  10.934
 3412W        W71786  26.702   4.344  10.506
 3413W        W71787  39.012  26.511  11.513
 3414W        W71788  39.013  14.340  12.571
 3415W        W71789  22.100   2.838   3.831
 3416W        W71790  12.328  27.453  10.554
 3417W        W71791   7.797  33.385   4.220
 3418W        W71792  10.790  37.465   0.409
 3419W        W71793  11.196   8.737   1.225
 3420W        W71794   8.706  11.176   1.848
 3421W        W71795  39.840  31.432  12.825
 3422W        W71796  13.746  16.311  13.451
 3423W        W71797  21.667  41.374   4.315
 3424W        W71798  33.467   9.864   0.958
 3425W        W71799  13.722  41.790   1.768
 3426W        W71800  37.366   5.828  11.053
 3427W        W71801  44.377   2.441  14.502
 3428W        W71802  21.050  23.110   2.693
 3429W        W71803   4.706  40.805  10.001
 3430W        W71804  15.778  33.580  13.966
 3431W        W71805  30.600  23.498  13.321
 3432W        W71806  41.850  10.224  10.926
 3433W        W71807  28.971   3.820   0.947
 3434W        W71808   8.870   2.426  11.462
 3435W        W71809  18.173  14.629   3.246
 3436W        W71810  27.456   8.822  14.779
 3437W        W71811   7.274  16.719   2.739
 3438W        W71812   8.363  35.895   1.760
 3439W        W71813   8.370  28.017  11.954
 3440W        W71814   5.419  23.546  11.873
 3441W        W71815  21.056  33.421  12.453
 3442W        W71816  14.290  34.882  12.457
 3443W        W71817  41.448  28.022   4.626
 3444W        W71818   8.706   9.870  13.464
 3445W        W71819  41.471   2.916   0.883
 3446W        W71820  29.038  26.958   1.701
 3447W        W71821  27.037  30.135  12.912
 3448W        W71822  26.025  24.636  12.865
 3449W        W71823  21.564  13.658  11.898
 3450W        W71824  22.521  15.680   2.368
 3451W        W71825  18.104  28.095  12.349
 3452W        W71826  39.498   8.773   5.723
 3453W        W71827  40.334  11.693  11.019
 3454W        W71828  24.073  15.148   5.301
 3455W        W71829  28.018  35.490  12.444
 3456W        W71830  42.852  23.080  14.299
 3457W        W71831  16.718  30.069  11.542
 3458W        W71832  15.231   0.468   1.309
 3459W        W71833  31.119   7.783   2.214
 3460W        W71834   5.736  42.026  13.990
 3461W        W71835  15.674  34.026   2.831
 3462W        W71836  14.731  18.139  11.507
 3463W        W71837  23.060  23.630  10.931
 3464W        W71838  39.820   4.897   0.335
 3465W        W71839  15.579  14.190   3.344
 3466W        W71840  33.473  20.593  10.151
 3467W        W71841  11.211  22.152   2.845
 3468W        W71842  36.882  27.502  14.924
 3469W        W71843   1.959  34.475  10.429
 3470W        W71844   6.265   8.863  14.298
 3471W        W71845   0.426  35.438   0.948
 3472W        W71846   5.260  35.515  12.509
 3473W        W71847  21.133  12.672  10.967
 3474W        W71848  11.687   3.756  10.996
 3475W        W71849  23.161   1.324   2.221
 3476W        W71850  17.069   2.730  13.797
 3477W        W71851   3.278  37.566  14.369
 3478W        W71852  37.409  19.562  14.851
 3479W        W71853  25.705  35.576  13.807
 3480W        W71854  40.502  30.967  13.966
 3481W        W71855  31.455   2.431   2.310
 3482W        W71856  25.635  29.108   4.275
 3483W        W71857  38.021  22.708   4.611
 3484W        W71858   7.220  38.361  10.556
 3485W        W71859  16.656  30.039  11.914
 3486W        W71860  19.111  17.763   0.931
 3487W        W71861  37.949  17.158   2.349
 3488W        W71862  22.550  17.757   2.863
 3489W        W71863  22.707  14.605  12.887
 3490W        W71864  21.744  27.945  13.961
 3491W        W71865  20.262  16.695  11.082
 3492W        W71866   1.277   8.866  14.810
 3493W        W71867  38.480  31.424   4.793
 3494W        W71868   3.722  31.402  13.375
 3495W        W71869  34.933  33.618   5.276
 3496W        W71870  29.153  31.959  10.520
 3497W        W71871  40.499  35.583   1.407
 3498W        W71872  26.463  28.612  12.433
 3499W        W71873  44.483  42.893  12.426
 3500W        W71874  25.582  16.769   2.862
 3501W        W71875   0.316   9.849  14.323
 3502W        W71876   2.967  27.091  13.872
 3503W        W71877  26.057  14.198   1.699
 3504W        W71878  32.476  30.014  14.817
 3505W        W71879   1.977  39.330   4.222
 3506W        W71880   4.847   1.437  13.432
 3507W        W71881  14.249   2.802   0.288
 3508W        W71882  41.463  10.141   1.917
 3509W        W71883  21.676  28.019   1.284
 3510W        W71884  25.999  14.809   0.799
 3511W        W71885  42.822  16.804  11.380
 3512W        W71886  38.051  41.490  14.932
 3513W        W71887   8.850  13.836  10.451
 3514W        W71888   8.265  31.475   9.577
 3515W        W71889  42.415  25.056   0.862
 3516W        W71890   1.447  34.890   2.416
 3517W        W71891   6.709  18.296   0.754
 3518W        W71892   1.763  13.809  12.058
 3519W        W71893   1.915  21.116  13.416
 3520W        W71894  25.069   5.710  13.428
 3521W        W71895  18.294  43.833  10.974
 3522W        W71896  11.821  24.137   2.859
 3523W        W71897  34.385  17.179  14.298
 3524W        W71898   7.202  39.360  11.983
 3525W        W71899   9.740   5.438  12.993
 3526W        W71900  20.685   1.371   3.799
 3527W        W71901   5.428  13.193   1.907
 3528W        W71902  21.169  36.464   4.738
 3529W        W71903  25.111  24.047  12.513
 3530W        W71904  15.281  11.329  14.986
 3531W        W71905   5.785  21.066  13.318
 3532W        W71906  24.651  13.209   4.686
 3533W        W71907  21.062  17.748   1.405
 3534W        W71908  13.105  34.009   3.792
 3535W        W71909   7.331  42.975  14.453
 3536W        W71910  34.449  34.575  13.425
 3537W        W71911  42.303   0.379  13.529
 3538W        W71912  10.687  25.216  14.831
 3539W        W71913  18.253  19.130  11.060
 3540W        W71914  26.477  30.495  14.300
 3541W        W71915   2.762  41.519  11.607
 3542W        W71916  14.107  34.102   2.241
 3543W        W71917  35.470  13.831  11.493
 3544W        W71918   3.351   4.837   2.809
 3545W        W71919   6.264   1.346   1.833
 3546W        W71920  30.605  15.740  10.562
 3547W        W71921   0.747  37.463  14.298
 3548W        W71922  42.291  22.212   4.695
 3549W        W71923  34.100  19.156   1.791
 3550W        W71924  32.543   5.372  11.024
 3551W        W71925  32.440  43.936  12.342
 3552W        W71926   4.900   6.857   2.788
 3553W        W71927  11.150  34.008  14.324
 3554W        W71928   6.856  40.475   3.847
 3555W        W71929  41.456   7.389   1.907
 3556W        W71930  43.832  41.501   1.288
 3557W        W71931  44.845  27.675   2.301
 3558W        W71932  42.013  20.205   0.271
 3559W        W71933   2.322  35.379  11.053
 3560W        W71934  15.211  17.689  10.898
 3561W        W71935  29.579  30.498   3.367
 3562W        W71936  32.919  43.913  14.902
 3563W        W71937  21.038  32.469   4.217
 3564W        W71938  14.248   5.437   1.371
 3565W        W71939  33.549   6.318   4.790
 3566W        W71940  38.496  14.714  11.009
 3567W        W71941  36.071   9.222  12.416
 3568W        W71942  38.913  38.074  13.489
 3569W        W71943  39.048  18.742   3.248
 3570W        W71944   4.818  12.215   3.636
 3571W        W71945  37.849  36.509   2.311
 3572W        W71946  17.180   2.908  11.566
 3573W        W71947   7.232  19.600  11.407
 3574W        W71948  13.276  34.560  12.851
 3575W        W71949  41.960   3.428  14.027
 3576W        W71950  31.058   1.435  12.438
 3577W        W71951  14.251  28.583   4.242
 3578W        W71952  25.983  40.043   4.629
 3579W        W71953  14.825  40.400   1.706
 3580W        W71954  29.947  17.689  11.497
 3581W        W71955  11.343  19.662  14.844
 3582W        W71956  26.027  21.240  12.471
 3583W        W71957   2.326   9.381  14.001
 3584W        W71958  44.385  18.788  12.973
 3585W        W71959  12.784  38.356   0.460
 3586W        W71960   7.371   8.287   2.897
 3587W        W71961  38.397   6.424   3.737
 3588W        W71962  42.445  31.964   0.919
 3589W        W71963  40.533  22.618  12.425
 3590W        W71964   1.894  10.344  13.003
 3591W        W71965  18.748  12.697   1.927
 3592W        W71966  23.040   2.339  10.922
 3593W        W71967   7.705  25.489   4.678
 3594W        W71968  22.663  10.291  12.525
 3595W        W71969  31.562  10.815   2.216
 3596W        W71970  15.793   4.231  11.954
 3597W        W71971  16.736  17.671   0.250
 3598W        W71972  36.980   2.789  13.929
 3599W        W71973  24.484  18.103  11.518
 3600W        W71974  37.343  16.783   2.735
 3601W        W71975  38.526  21.099   1.894
 3602W        W71976  16.765  35.381  11.961
 3603W        W71977   3.837   4.330   0.862
 3604W        W71978  34.486  20.713   1.395
 3605W        W71979  23.153  35.030  12.563
 3606W        W71980  25.202  22.533  12.343
 3607W        W71981  35.861  33.410   3.310
 3608W        W71982   1.395   7.273   1.444
 3609W        W71983  36.415  35.880   1.320
 3610W        W71984   4.826  19.550   4.672
 3611W        W71985   3.933  28.166   2.312
 3612W        W71986   7.180  18.183   5.778
 3613W        W71987  16.244  31.472  13.373
 3614W        W71988  31.901  14.118  13.037
 3615W        W71989  16.801  16.151   0.910
 3616W        W71990  37.862  17.655  12.877
 3617W        W71991  18.731  27.586   3.183
 3618W        W71992  24.067  33.039   2.884
 3619W        W71993  29.535  18.266   2.844
 3620W        W71994  35.382   5.418   3.833
 3621W        W71995  14.727  40.415   2.221
 3622W        W71996  43.879  22.240  12.003
 3623W        W71997  20.614  22.049   1.919
 3624W        W71998  44.769  30.930  12.534
 3625W        W71999  14.823   7.766  13.840
 3626W        W72000  24.570  22.742   4.705
 3627W        W72001  36.411  29.609  14.287
 3628W        W72002  38.569  30.917  10.508
 3629W        W72003  11.817  44.423  14.876
 3630W        W72004  14.218  24.201   5.106
 3631W        W72005  15.590   9.262  12.452
 3632W        W72006  17.635   6.305   0.927
 3633W        W72007  35.067  27.575  14.791
 3634W        W72008   0.424  28.553  13.963
 3635W        W72009  26.585  40.512  11.990
 3636W        W72010  44.807  24.993  14.019
 3637W        W72011  32.002   3.347   1.702
 3638W        W72012  31.454  41.996  13.509
 3639W        W72013  39.528  39.024   1.912
 3640W        W72014  30.591  16.702   1.299
 3641W        W72015   3.391  44.792   1.341
 3642W        W72016   9.159  34.576   1.763
 3643W        W72017  20.207  25.212  12.081
 3644W        W72018  22.166  33.085  12.399
 3645W        W72019   8.285  26.159  11.948
 3646W        W72020   3.282  30.466   4.801
 3647W        W72021  13.608   5.365   2.362
 3648W        W72022  42.906  31.900   1.285
 3649W        W72023  43.005  35.591  14.311
 3650W        W72024  37.870  13.613  12.539
 3651W        W72025  14.797  34.432   3.367
 3652W        W72026  33.500  31.131  12.574
 3653W        W72027   7.236  14.336   0.399
 3654W        W72028   6.288  41.466  10.610
 3655W        W72029  28.006  33.965   0.872
 3656W        W72030  15.324  36.454  10.535
 3657W        W72031  38.511  21.235   9.948
 3658W        W72032  33.555   2.319  10.436
 3659W        W72033  36.530  32.605  11.601
 3660W        W72034   8.837   4.729   3.167
 3661W        W72035  24.564  39.822   2.184
 3662W        W72036  34.438   3.901   4.797
 3663W        W72037  32.003   7.889   4.735
 3664W        W72038  42.403  11.748   3.355
 3665W        W72039  10.677  15.316  14.004
 3666W        W72040   4.213   5.318  12.533
 3667W        W72041   3.245   0.874   3.294
 3668W        W72042  26.644  34.004   0.301
 3669W        W72043  29.070   4.367   1.728
 3670W        W72044   5.263  40.997  11.950
 3671W        W72045   3.235   6.843   2.370
 3672W        W72046  26.645  17.263  10.424
 3673W        W72047  34.898  14.197   4.192
 3674W        W72048  26.584   8.240  11.375
 3675W        W72049  27.190   9.187   4.624
 3676W        W72050  42.324   5.202  13.054
 3677W        W72051   8.314  24.145   5.295
 3678W        W72052  37.006  20.251  13.504
 3679W        W72053   7.667  42.473  10.977
 3680W        W72054  14.824  14.152   3.214
 3681W        W72055  31.591  20.718   0.893
 3682W        W72056  17.674   6.218   4.726
 3683W        W72057   3.773   7.241  13.396
 3684W        W72058  13.723   0.837   3.869
 3685W        W72059  12.254  37.472  11.100
 3686W        W72060  36.898  20.041   3.205
 3687W        W72061   9.816  11.366   3.329
 3688W        W72062  18.548   1.462   2.365
 3689W        W72063   8.292  39.439   2.708
 3690W        W72064  39.857  12.829   0.966
 3691W        W72065  18.238  13.223  11.975
 3692W        W72066  17.559   2.372  10.426
 3693W        W72067  20.040  37.877  10.415
 3694W        W72068  25.071  15.190   1.754
 3695W        W72069   8.191  21.539  10.889
 3696W        W72070   0.965  27.556  10.583
 3697W        W72071  21.158   9.224  11.058
 3698W        W72072  28.567  24.486  13.454
 3699W        W72073   8.837  25.582  13.967
 3700W        W72074  13.129   4.282   3.358
 3701W        W72075   9.175   4.750   9.589
 3702W        W72076   7.293  34.412  14.388
 3703W        W72077  28.436   1.444  11.986
 3704W        W72078  26.091  37.535  14.946
 3705W        W72079  36.951   2.331   4.226
 3706W        W72080  44.427   4.403  14.333
 3707W        W72081  42.335  41.494  12.002
 3708W        W72082  13.797  26.541   0.890
 3709W        W72083  11.151   9.218   1.434
 3710W        W72084   8.810  35.888   1.907
 3711W        W72085  38.985  26.025   4.215
 3712W        W72086  13.782   6.362  12.459
 3713W        W72087  13.216  34.079   2.874
 3714W        W72088  38.924   2.413  13.973
 3715W        W72089  35.364  13.310   1.394
 3716W        W72090  16.189  25.508  14.345
 3717W        W72091  35.027   7.189  10.973
 3718W        W72092   6.873  44.791   1.345
 3719W        W72093  10.310  12.612   1.801
 3720W        W72094   3.309  34.963  13.344
 3721W        W72095  11.221  21.612   1.409
 3722W        W72096  16.168   4.934  10.112
 3723W        W72097  16.800  30.500  13.843
 3724W        W72098  43.360  10.845   2.845
 3725W        W72099  21.619  42.825  11.072
 3726W        W72100  31.626  18.217  12.574
 3727W        W72101  33.966  28.163   1.910
 3728W        W72102  27.119  15.720   0.829
 3729W        W72103   6.428   5.349   1.773
 3730W        W72104   5.195  22.111   2.209
 3731W        W72105  38.441   9.735   4.322
 3732W        W72106  12.167  42.013   2.385
 3733W        W72107  41.479  15.117   3.212
 3734W        W72108  12.822  17.126   2.418
 3735W        W72109  26.699  26.677   3.306
 3736W        W72110   0.350  17.677  11.523
 3737W        W72111   6.795  18.732  14.980
 3738W        W72112   1.840  18.051  13.478
 3739W        W72113  15.115   5.246   0.950
 3740W        W72114  26.468  16.174   3.787
 3741W        W72115  35.914  10.823  13.952
 3742W        W72116  14.206  27.089  12.897
 3743W        W72117  31.064  42.915  12.403
 3744W        W72118   1.870   3.940  11.544
 3745W        W72119  17.609  44.806  12.899
 3746W        W72120   6.794  15.611  11.890
 3747W        W72121  28.010   0.747   1.820
 3748W        W72122  35.568  34.530  14.812
 3749W        W72123  41.960  11.177  12.433
 3750W        W72124  28.125  17.217   4.323
 3751W        W72125  19.726  35.014   3.186
 3752W        W72126   2.739  22.067  12.525
 3753W        W72127  17.785  29.114  10.489
 3754W        W72128  43.845   9.256  14.892
 3755W        W72129  11.311  27.173   2.901
 3756W        W72130  44.503  17.131   0.406
 3757W        W72131  29.600  23.590  13.004
 3758W        W72132  32.629  19.592  13.381
 3759W        W72133  11.351  16.256  13.502
 3760W        W72134  42.914   9.710  13.043
 3761W        W72135  42.496  33.070  13.061
 3762W        W72136   2.964  18.734  11.402
 3763W        W72137   8.704  35.068  14.399
 3764W        W72138  35.923  24.065   2.267
 3765W        W72139  14.737  26.575  12.890
 3766W        W72140  24.508   6.281  12.971
 3767W        W72141  28.458  16.806   2.788
 3768W        W72142   9.837  21.672   2.199
 3769W        W72143  21.174  22.121  14.796
 3770W        W72144  16.762  43.952  10.985
 3771W        W72145  22.549  22.674   1.730
 3772W        W72146   8.749  42.392  14.294
 3773W        W72147  38.568  11.729   1.904
 3774W        W72148  19.605  31.053  14.513
 3775W        W72149  43.833   7.828   0.964
 3776W        W72150   1.283  33.576   3.367
 3777W        W72151  13.290  39.482   0.805
 3778W        W72152  12.186  24.179   3.657
 3779W        W72153   4.270  11.325   0.870
 3780W        W72154  30.147  19.172   3.633
 3781W        W72155   1.978  15.156   0.423
 3782W        W72156  17.141   3.755  14.950
 3783W        W72157   4.840  40.887  12.045
 3784W        W72158  30.099  10.294  10.437
 3785W        W72159   2.297   7.312  11.994
 3786W        W72160   3.940  14.171   2.679
 3787W        W72161  43.384  22.614  12.560
 3788W        W72162  18.076  44.259   2.877
 3789W        W72163   9.867  20.200   2.752
 3790W        W72164  43.020  25.209  13.310
 3791W        W72165  27.547  31.477   4.694
 3792W        W72166  40.445  11.130  13.445
 3793W        W72167  27.979  44.309   1.879
 3794W        W72168  27.095  12.847   3.155
 3795W        W72169   2.408  18.244  11.516
 3796W        W72170  14.801  15.139   1.720
 3797W        W72171  21.201  32.001  14.486
 3798W        W72172  17.167   6.815   1.724
 3799W        W72173  23.191  12.273   0.280
 3800W        W72174  28.985  13.348   1.380
 3801W        W72175  35.442  21.579  13.423
 3802W        W72176  37.524  29.460   4.208
 3803W        W72177  10.374   8.323   0.356
 3804W        W72178  40.939  35.583   4.235
 3805W        W72179  10.338  22.592  10.580
 3806W        W72180  40.402   0.906  10.931
 3807W        W72181  20.190   7.791  12.516
 3808W        W72182   3.353   1.937   3.270
 3809W        W72183  19.566  40.964  12.555
 3810W        W72184  37.012  13.714  14.880
 3811W        W72185  23.580  19.704  10.955
 3812W        W72186  22.512   6.756   0.942
 3813W        W72187  10.357  36.428   1.741
 3814W        W72188  18.076  42.800  10.443
 3815W        W72189  10.224  16.728   3.811
 3816W        W72190  36.521   4.363  13.380
 3817W        W72191  30.148  32.530  11.087
 3818W        W72192   9.266   5.279   4.139
 3819W        W72193  25.549  17.184   2.323
 3820W        W72194  38.002  12.302  11.991
 3821W        W72195  24.029  38.569  14.845
 3822W        W72196  26.676  39.877   2.283
 3823W        W72197   6.313  38.867   1.930
 3824W        W72198  34.889  30.995   1.341
 3825W        W72199   6.703  24.028  11.017
 3826W        W72200  23.052   3.352   2.245
 3827W        W72201  42.864   5.437  13.059
 3828W        W72202  44.955   6.696   3.687
 3829W        W72203  19.666  13.208   3.350
 3830W        W72204  17.234   6.424   0.846
 3831W        W72205  42.321   4.758   3.267
 3832W        W72206   4.329  21.560   1.393
 3833W        W72207  10.709  32.488   0.248
 3834W        W72208   1.405  22.235   1.349
 3835W        W72209  41.434  18.061   0.932
 3836W        W72210  37.513   5.874  11.447
 3837W        W72211  13.231   6.778   1.443
 3838W        W72212  35.596  42.900   1.323
 3839W        W72213  17.292   1.736  13.507
 3840W        W72214  34.443  26.185  13.813
 3841W        W72215   0.796  44.420   3.774
 3842W        W72216   7.325  17.742  11.950
 3843W        W72217   1.300  15.725  10.968
 3844W        W72218  34.043  22.745   1.269
 3845W        W72219   7.814   6.362   1.398
 3846W        W72220  23.232  13.304  12.924
 3847W        W72221  33.555  37.337  12.025
 3848W        W72222  36.400  19.595  12.088
 3849W        W72223   2.299  28.604  14.846
 3850W        W72224  15.630   5.889  10.990
 3851W        W72225   9.195  42.349  10.896
 3852W        W72226  34.448   3.383  10.472
 3853W        W72227  40.545  16.273  13.313
 3854W        W72228  44.314  41.428  10.610
 3855W        W72229  23.050  29.661  10.476
 3856W        W72230  27.582  26.691  13.541
 3857W        W72231   8.705  12.817   0.476
 3858W        W72232  22.192  27.679  13.542
 3859W        W72233  20.733  25.114  14.856
 3860W        W72234  22.133   1.310   2.686
 3861W        W72235  38.425  40.498   2.671
 3862W        W72236  38.849  22.046   4.646
 3863W        W72237  33.071   5.846   1.279
 3864W        W72238   6.253  13.781  14.453
 3865W        W72239  20.633   5.766   0.451
 3866W        W72240   7.848  18.136   9.564
 3867W        W72241  27.015  18.639  13.436
 3868W        W72242  28.438  21.035   9.969
 3869W        W72243   9.290  18.782   0.416
 3870W        W72244  22.232  26.111  11.105
 3871W        W72245  13.220  27.664   4.689
 3872W        W72246  44.335  16.081   3.256
 3873W        W72247  29.095  23.658   2.343
 3874W        W72248  35.934  23.727  13.051
 3875W        W72249   3.780  19.601   5.303
 3876W        W72250  34.965  30.155  10.932
 3877W        W72251  10.343   1.863   3.204
 3878W        W72252  36.079   0.855  11.924
 3879W        W72253   3.222  20.635   3.866
 3880W        W72254  26.503  23.046  12.930
 3881W        W72255  17.623   7.288   4.128
 3882W        W72256  22.502  14.774  14.925
 3883W        W72257  16.797   2.759  13.336
 3884W        W72258   7.697   7.260   3.741
 3885W        W72259  16.137   2.937   0.263
 3886W        W72260  35.428   7.287   3.728
 3887W        W72261  17.761   1.774   3.239
 3888W        W72262   1.805  12.630  12.379
 3889W        W72263  20.606  35.900  11.467
 3890W        W72264   9.392  23.721   4.606
 3891W        W72265  15.090  13.599  12.493
 3892W        W72266  11.635   3.827  14.759
 3893W        W72267  12.776  25.123   1.769
 3894W        W72268  18.074  43.960  10.614
 3895W        W72269  32.064  40.007  11.494
 3896W        W72270  36.564   0.965  10.893
 3897W        W72271  33.539  29.947   4.798
 3898W        W72272  24.650  35.554   4.693
 3899W        W72273  30.519   2.291  10.429
 3900W        W72274  40.379   3.910  12.079
 3901W        W72275  19.223  23.580  11.999
 3902W        W72276   8.367  23.178   2.768
 3903W        W72277  43.949  33.419  14.303
 3904W        W72278  27.014  36.360  10.428
 3905W        W72279   1.917  23.670   0.365
 3906W        W72280  37.847  25.028  14.769
 3907W        W72281   4.764  43.814   3.723
 3908W        W72282  14.268  18.604  14.303
 3909W        W72283  32.888  32.107  13.421
 3910W        W72284   1.274  15.170  14.335
 3911W        W72285  41.425   1.740   1.846
 3912W        W72286  15.279  19.118  13.885
 3913W        W72287  36.460  15.198   3.234
 3914W        W72288  16.170  31.992  11.122
 3915W        W72289   5.251  18.773  11.999
 3916W        W72290  37.519  27.457   3.234
 3917W        W72291  23.174  40.839  14.951
 3918W        W72292  27.104  37.884   4.629
 3919W        W72293  33.585  20.548  14.794
 3920W        W72294  38.337  24.674   2.404
 3921W        W72295  30.069  40.472   1.930
 3922W        W72296  11.702   5.888   3.338
 3923W        W72297   4.238  16.725  13.458
 3924W        W72298  36.437  24.550  11.537
 3925W        W72299  42.005  31.422  13.442
 3926W        W72300  23.217  13.194   1.237
 3927W        W72301  25.030  44.358  12.934
 3928W        W72302  34.047  36.388  14.847
 3929W        W72303  40.820   1.287  12.379
 3930W        W72304  37.427   2.443   4.205
 3931W        W72305  14.252  29.076   3.364
 3932W        W72306   8.875  15.777  13.422
 3933W        W72307  25.176  44.404  13.452
 3934W        W72308  27.663   8.746  12.081
 3935W        W72309  23.627  42.857  13.315
 3936W        W72310   2.768   5.278  11.999
 3937W        W72311   3.786  36.475  13.834
 3938W        W72312  35.501  34.892   3.630
 3939W        W72313  28.672  23.052  11.025
 3940W        W72314  30.427  37.893   1.309
 3941W        W72315  32.039  31.150   1.346
 3942W        W72316  14.165   2.958  10.988
 3943W        W72317  13.633  23.043   2.680
 3944W        W72318  14.749  33.625   2.369
 3945W        W72319  38.570  29.501   4.164
 3946W        W72320  41.942  15.728   4.737
 3947W        W72321   3.393  44.755  13.030
 3948W        W72322  20.050  34.073  13.333
 3949W        W72323  42.800  26.987  10.626
 3950W        W72324  44.856  31.053  10.548
 3951W        W72325  36.869   0.391  13.832
 3952W        W72326  42.331  42.409   2.272
 3953W        W72327  39.425   7.806   4.224
 3954W        W72328  28.472  33.980   1.447
 3955W        W72329   9.655  40.465   4.137
 3956W        W72330  23.143  39.324  14.811
 3957W        W72331   8.898  19.068  12.924
 3958W        W72332  11.820  28.007   3.711
 3959W        W72333  41.955  18.270  10.989
 3960W        W72334  44.923  20.152   3.366
 3961W        W72335  30.089  40.383  11.855
 3962W        W72336   7.311  24.974  12.007
 3963W        W72337  22.226  24.984   0.862
 3964W        W72338   8.337  33.417   2.777
 3965W        W72339   6.422  41.877  12.057
 3966W        W72340   7.406  35.993  10.974
 3967W        W72341   3.740  42.389   1.344
 3968W        W72342  14.192  40.875  11.124
 3969W        W72343  18.114  39.506   4.168
 3970W        W72344  43.421  15.753  14.009
 3971W        W72345   2.865  42.398   0.396
 3972W        W72346  28.481  11.702   1.408
 3973W        W72347  32.488  38.858   2.845
 3974W        W72348  41.297   4.230   4.156
 3975W        W72349  32.447  29.528   4.176
 3976W        W72350  43.887  34.075   0.804
 3977W        W72351  17.616  16.695  11.896
 3978W        W72352  10.341  34.398  11.867
 3979W        W72353   9.857  20.051  12.427
 3980W        W72354  26.687  37.973  13.357
 3981W        W72355  25.687  37.996  13.999
 3982W        W72356  24.041  33.987   0.431
 3983W        W72357  15.260  19.559   4.716
 3984W        W72358  40.484  18.726  10.535
 3985W        W72359   6.382  16.810  13.546
 3986W        W72360  21.634  35.911   0.358
 3987W        W72361  20.685  31.981  12.991
 3988W        W72362  22.209   9.803   3.346
 3989W        W72363  19.065  19.758   2.868
 3990W        W72364  19.689  24.055   2.414
 3991W        W72365  23.615  37.833  13.014
 3992W        W72366  13.201  16.589  12.864
 3993W        W72367   3.877  27.505  11.921
 3994W        W72368   9.255  42.928   2.877
 3995W        W72369  33.964  19.265  12.374
 3996W        W72370   4.306   9.858   0.770
 3997W        W72371   3.732   3.379   3.706
 3998W        W72372  32.534  11.332   2.867
 3999W        W72373  31.421  31.548  11.505
 4000W        W72374  29.614  22.742   1.816
 4001W        W72375   5.237  42.956   1.424
 4002W        W72376  24.495  14.716   4.740
 4003W        W72377   8.846   7.273  11.078
 4004W        W72378  42.327  13.230   0.814
 4005W        W72379  22.623  24.021  14.886
 4006W        W72380   5.905  16.704  13.022
 4007W        W72381  12.789  18.633   0.279
 4008W        W72382  36.407  36.399   2.708
 4009W        W72383  41.941  14.120   4.605
 4010W        W72384  44.308   1.892   0.732
 4011W        W72385  28.604  31.583  12.078
 4012W        W72386   3.356  24.521   1.339
 4013W        W72387  42.854  42.869   2.320
 4014W        W72388  21.561   3.953   2.845
 4015W        W72389  38.906  38.337   4.642
 4016W        W72390  17.292  44.761  11.031
 4017W        W72391   2.896  39.048   4.621
 4018W        W72392  25.700   7.284   1.427
 4019W        W72393  41.978  41.482  13.388
 4020W        W72394  42.926   8.893   2.704
 4021W        W72395  40.975  43.454   3.856
 4022W        W72396  34.059  36.025  11.579
 4023W        W72397  13.136  15.318  14.295
 4024W        W72398  37.392  29.008   0.480
 4025W        W72399   7.836  18.227   2.771
 4026W        W72400   6.694  35.529   1.252
 4027W        W72401  22.640  15.168   2.364
 4028W        W72402  22.108  28.436  11.050
 4029W        W72403  28.952  37.367   0.792
 4030W        W72404  31.423  35.535   4.322
 4031W        W72405  27.996  17.242  11.515
 4032W        W72406   2.235  32.001  14.826
 4033W        W72407  41.498  22.533   0.756
 4034W        W72408  26.501  41.452  14.956
 4035W        W72409   2.743  25.655  11.879
 4036W        W72410  23.017  18.788   0.890
 4037W        W72411  15.212   9.728   4.173
 4038W        W72412  40.371  25.480  13.939
 4039W        W72413  39.995  43.769  14.506
 4040W        W72414  10.808  42.434  10.956
 4041W        W72415  41.426  40.317   3.225
 4042W        W72416  42.989  44.324  13.474
 4043W        W72417   1.386  18.065   0.343
 4044W        W72418  41.420   7.388  14.011
 4045W        W72419  24.140   1.852   0.435
 4046W        W72420  35.916  33.433  10.928
 4047W        W72421  12.214  25.077   1.297
 4048W        W72422  16.594  39.365  10.441
 4049W        W72423  10.242  33.904  14.862
 4050W        W72424  38.019   4.292   0.897
 4051W        W72425  43.992   6.345   0.953
 4052W        W72426  30.946   7.789  12.466
 4053W        W72427  17.132  40.444  13.538
 4054W        W72428   1.411  23.102   0.252
 4055W        W72429  25.086   7.278   3.233
 4056W        W72430  19.579  15.662   0.271
 4057W        W72431   4.728  43.450  13.996
 4058W        W72432  17.130  15.295  13.412
 4059W        W72433  16.588  37.087  11.505
 4060W        W72434  44.914  29.086  11.016
 4061W        W72435  44.965  35.602  12.345
 4062W        W72436  18.268  26.577  14.353
 4063W        W72437  24.499  12.136   3.778
 4064W        W72438  22.703  29.515  11.472
 4065W        W72439   0.755  34.602  14.388
 4066W        W72440  21.127  30.162   1.867
 4067W        W72441  27.954  25.189   1.737
 4068W        W72442  19.090  42.923  11.044
 4069W        W72443   8.379  12.625   2.298
 4070W        W72444  27.155  31.000   1.757
 4071W        W72445  16.134   8.191  11.578
 4072W        W72446  13.161  36.587  10.643
 4073W        W72447  18.622  34.105   2.416
 4074W        W72448   2.781  40.491   0.337
 4075W        W72449   3.862  37.981  14.816
 4076W        W72450  22.244   2.941   1.736
 4077W        W72451   1.795   7.741   3.245
 4078W        W72452  36.095  11.184   0.363
 4079W        W72453  37.561  41.904   2.274
 4080W        W72454  33.433   0.321   2.334
 4081W        W72455  31.006  37.017  13.931
 4082W        W72456  40.342  25.707   2.209
 4083W        W72457  24.043  11.674  11.547
 4084W        W72458  34.864  27.946   4.733
 4085W        W72459  11.344   3.893  10.533
 4086W        W72460  31.416  24.130  13.858
 4087W        W72461  10.210  44.755   4.161
 4088W        W72462   6.833   0.267   4.761
 4089W        W72463  21.581  27.491  10.583
 4090W        W72464  32.561  22.666  14.404
 4091W        W72465  24.514  38.921   0.917
 4092W        W72466  40.359  44.270  11.389
 4093W        W72467  16.754  40.952   1.800
 4094W        W72468  43.973  11.661  13.951
 4095W        W72469  22.524   7.800  10.464
 4096W        W72470   9.835   7.234  13.854
 4097W        W72471   0.381   6.823  14.491
 4098W        W72472   2.802  14.630  12.575
 4099W        W72473   4.824  33.594   4.194
 4100W        W72474  18.675  29.511  12.346
 4101W        W72475  20.083   4.218  12.080
 4102W        W72476  38.966  40.012  10.016
 4103W        W72477   2.313   7.222   1.726
 4104W        W72478  17.605  32.934   1.920
 4105W        W72479  29.667   1.925   3.838
 4106W        W72480  10.758  23.573   1.414
 4107W        W72481  37.384  22.139  13.397
 4108W        W72482  42.884  44.972  14.463
 4109W        W72483   3.907  14.250  14.286
 4110W        W72484  44.468  21.175  11.426
 4111W        W72485  41.897  21.629  10.641
 4112W        W72486   7.317  40.460   4.176
 4113W        W72487   8.394   7.769   2.857
 4114W        W72488  17.630  28.632  10.966
 4115W        W72489   7.887  14.132  10.059
 4116W        W72490  20.761  33.582   4.744
 4117W        W72491  38.928  36.410  12.846
 4118W        W72492  18.064  27.104   3.323
 4119W        W72493   3.769  33.418  12.502
 4120W        W72494  27.012  28.178  14.398
 4121W        W72495  29.543  43.959   2.291
 4122W        W72496  12.627  33.590   2.263
 4123W        W72497   0.787  13.290  12.903
 4124W        W72498  20.141   8.174   4.627
 4125W        W72499  26.971  43.417  14.949
 4126W        W72500  41.440  24.039  11.053
 4127W        W72501  35.379  30.649   0.402
 4128W        W72502  10.267   5.867  12.452
 4129W        W72503   6.195   4.858  14.403
 4130W        W72504  24.555  15.199  11.946
 4131W        W72505   6.801  24.671   4.836
 4132W        W72506   5.246  19.581   1.826
 4133W        W72507  42.777   0.340  12.095
 4134W        W72508  37.408  34.411   3.823
 4135W        W72509  44.862   3.747  14.863
 4136W        W72510   2.467  18.178   2.365
 4137W        W72511  28.108  25.638  12.487
 4138W        W72512   4.934  18.549   2.670
 4139W        W72513   0.396  32.447  12.356
 4140W        W72514  43.871   6.410  12.841
 4141W        W72515   5.715  35.396   0.919
 4142W        W72516  18.122  22.614   4.321
 4143W        W72517  15.670   6.361   1.360
 4144W        W72518  25.482  28.595   4.710
 4145W        W72519  21.062  30.162  14.434
 4146W        W72520  14.815  22.602   1.860
 4147W        W72521  20.620   2.350  12.896
 4148W        W72522  44.403  40.465  10.551
 4149W        W72523   6.866  21.526  11.409
 4150W        W72524   3.896   7.234   9.940
 4151W        W72525   8.370   3.775   1.261
 4152W        W72526   0.970   3.947  10.450
 4153W        W72527  26.582  19.688  11.060
 4154W        W72528  10.867  16.195   3.353
 4155W        W72529  12.246  36.902   2.276
 4156W        W72530  32.974  20.648  11.453
 4157W        W72531  42.978  42.956  14.439
 4158W        W72532  35.368  32.509   3.307
 4159W        W72533  27.552  30.601   3.776
 4160W        W72534  37.883   8.275   2.247
 4161W        W72535   0.875  18.791  14.899
 4162W        W72536  41.865  29.652   5.145
 4163W        W72537  29.157  18.192  14.862
 4164W        W72538  24.564  23.565  10.543
 4165W        W72539  17.600  31.961   2.186
 4166W        W72540   9.694   3.269  12.021
 4167W        W72541   3.240  41.437  11.408
 4168W        W72542  19.262  19.763   4.701
 4169W        W72543  44.864  43.841  12.048
 4170W        W72544   3.750  35.109  10.517
 4171W        W72545   8.401  31.495  13.813
 4172W        W72546  15.758  34.097   4.837
 4173W        W72547  10.645  25.529  10.432
 4174W        W72548   3.428  41.527  10.125
 4175W        W72549  33.984   4.860   9.968
 4176W        W72550  30.915   3.417   3.855
 4177W        W72551   9.775  37.079   4.639
 4178W        W72552   6.241  17.784  10.143
 4179W        W72553  16.715  18.175   0.928
 4180W        W72554  36.059  10.237   1.901
 4181W        W72555  16.275   0.859   0.425
 4182W        W72556  44.292  17.713   3.198
 4183W        W72557  13.606   1.743  10.576
 4184W        W72558  38.350  39.931  10.644
 4185W        W72559  15.180   8.860  13.422
 4186W        W72560  28.587   5.363  14.385
 4187W        W72561  22.192   4.906  12.038
 4188W        W72562  36.445  39.355  12.553
 4189W        W72563  36.069   0.396   2.354
 4190W        W72564  15.280  16.804   1.242
 4191W        W72565   0.977   2.810   1.820
 4192W        W72566  25.503  29.016  14.314
 4193W        W72567  15.678   7.221  10.492
 4194W        W72568  39.409  28.974  14.800
 4195W        W72569  10.775   6.909   3.818
 4196W        W72570  35.100  29.595   2.401
 4197W        W72571  13.683  21.752   2.395
 4198W        W72572  15.319  40.901  11.020
 4199W        W72573  44.893  37.921   4.188
 4200W        W72574  14.685  44.000   4.130
 4201W        W72575  11.847  11.211  13.894
 4202W        W72576   9.707  25.032  13.034
 4203W        W72577  37.897   1.848   1.332
 4204W        W72578   3.802  25.662   0.409
 4205W        W72579  15.196  16.588   2.398
 4206W        W72580  41.331   6.907   3.695
 4207W        W72581  41.022  27.042   2.326
 4208W        W72582  43.788  31.628  13.054
 4209W        W72583  30.526   9.738   3.721
 4210W        W72584  41.297  25.983   4.351
 4211W        W72585   6.761  21.212  11.115
 4212W        W72586  44.482  19.678  11.959
 4213W        W72587   9.875  18.719  12.890
 4214W        W72588   5.847   2.967   2.887
 4215W        W72589   7.894  26.097  11.885
 4216W        W72590  37.853  16.233  13.488
 4217W        W72591  44.368  15.663  10.481
 4218W        W72592  10.215  26.954  10.922
 4219W        W72593  23.043  11.319   2.410
 4220W        W72594   4.747  22.241   0.936
 4221W        W72595  22.221  24.061  12.460
 4222W        W72596  38.516  31.115   0.914
 4223W        W72597  42.463  26.106   2.839
 4224W        W72598  43.450  26.543   4.830
 4225W        W72599  18.144  12.289  12.997
 4226W        W72600  44.478  26.669   1.317
 4227W        W72601  27.154  27.187  13.380
 4228W        W72602   8.377  41.971  11.871
 4229W        W72603  20.103   3.248   3.811
 4230W        W72604  23.178   0.766   4.128
 4231W        W72605  26.209  36.912  12.387
 4232W        W72606  41.930  24.676   3.777
 4233W        W72607  32.610  27.502   3.655
 4234W        W72608  41.882  24.089  14.405
 4235W        W72609  10.361  31.997   3.736
 4236W        W72610  38.858  19.776  10.890
 4237W        W72611  25.650  37.885   4.119
 4238W        W72612   1.437  25.077  13.886
 4239W        W72613  38.385   1.889   2.845
 4240W        W72614   3.402  38.873   1.403
 4241W        W72615  15.783  28.138   1.909
 4242W        W72616  43.945  11.153   0.730
 4243W        W72617  39.035  31.151   4.154
 4244W        W72618  31.419  33.045   0.395
 4245W        W72619  22.999   0.934  14.856
 4246W        W72620  34.496  12.322  12.835
 4247W        W72621  28.622  27.003  14.318
 4248W        W72622  36.981   1.293  14.908
 4249W        W72623   7.701  30.106  11.503
 4250W        W72624   7.357   7.802  11.010
 4251W        W72625  37.907  17.706   4.228
 4252W        W72626   6.804  24.208   2.666
 4253W        W72627  32.473  26.088  10.536
 4254W        W72628  10.706  21.154   1.418
 4255W        W72629  27.692  30.961   0.944
 4256W        W72630   4.283  31.611  10.894
 4257W        W72631  30.150  34.540  10.423
 4258W        W72632  32.080  24.607   2.845
 4259W        W72633  37.075   2.837   2.284
 4260W        W72634   1.297   5.718  13.015
 4261W        W72635   7.317  14.189   2.822
 4262W        W72636   9.789  12.310   1.834
 4263W        W72637  22.617  10.677   2.712
 4264W        W72638  30.441  35.535   2.794
 4265W        W72639  32.139  25.657  11.578
 4266W        W72640  14.157  18.650  14.878
 4267W        W72641  38.057  10.849  13.010
 4268W        W72642   2.823   1.750   1.370
 4269W        W72643  39.927  44.373  12.568
 4270W        W72644  15.287  42.794  11.028
 4271W        W72645  20.059  20.189   0.352
 4272W        W72646  27.485  18.723  12.875
 4273W        W72647  19.738  44.394   0.479
 4274W        W72648   8.180  38.538  12.916
 4275W        W72649  11.277  22.621  12.360
 4276W        W72650  39.346  14.304  14.819
 4277W        W72651  43.480  30.124   0.926
 4278W        W72652  32.135  35.982   0.299
 4279W        W72653  24.015  33.502   0.260
 4280W        W72654  32.570   8.734  12.958
 4281W        W72655  30.002   8.208  13.512
 4282W        W72656  42.989   1.886   2.884
 4283W        W72657   4.894  35.038  12.969
 4284W        W72658  21.136   1.889   4.616
 4285W        W72659   2.799  41.377   2.401
 4286W        W72660   7.697  19.652  13.339
 4287W        W72661   1.828  34.520   1.382
 4288W        W72662  42.497  41.344  12.939
 4289W        W72663  42.986  12.689   4.644
 4290W        W72664  38.360  43.002  13.521
 4291W        W72665   7.201  13.277   4.649
 4292W        W72666  15.252  36.383   0.889
 4293W        W72667  35.912  29.608   1.887
 4294W        W72668  17.749  26.683  11.891
 4295W        W72669  25.134  32.905   0.935
 4296W        W72670  36.049  38.452  14.954
 4297W        W72671  26.474  27.563   1.246
 4298W        W72672  40.849  13.813   3.351
 4299W        W72673  22.580   8.364  14.785
 4300W        W72674  24.136  38.861  13.864
 4301W        W72675  12.610  34.091   4.212
 4302W        W72676   9.862  38.543   3.692
 4303W        W72677  25.688   8.771  10.460
 4304W        W72678   2.891  34.381  13.378
 4305W        W72679  29.157  38.882   3.771
 4306W        W72680  32.128  20.133  12.464
 4307W        W72681  38.058  38.326  14.959
 4308W        W72682  35.979   5.362  12.369
 4309W        W72683  31.607  37.370   0.877
 4310W        W72684  35.985  27.167   4.648
 4311W        W72685   0.285  11.775   0.313
 4312W        W72686  33.461   7.351  13.394
 4313W        W72687  16.741  41.339  13.354
 4314W        W72688   1.365  10.869  12.451
 4315W        W72689   4.386  42.862  11.953
 4316W        W72690   6.710  21.102   0.343
 4317W        W72691  17.300   6.745  12.998
 4318W        W72692   6.918  19.546   5.588
 4319W        W72693  32.050  19.605  11.871
 4320W        W72694  39.476  21.259  11.521
 4321W        W72695  27.581  42.826  13.045
 4322W        W72696   3.940   0.885  11.975
 4323W        W72697   8.258   1.734  10.641
 4324W        W72698  34.917   2.308   0.247
 4325W        W72699  43.942  21.708   2.177
 4326W        W72700   3.777   1.847   4.265
 4327W        W72701  14.755  19.704   3.828
 4328W        W72702  24.586  44.451   4.232
 4329W        W72703   6.682   2.721   5.270
 4330W        W72704   0.358  15.265  13.980
 4331W        W72705  28.952  43.984   1.755
 4332W        W72706  43.979  34.945   4.598
 4333W        W72707  11.771  30.060   2.352
 4334W        W72708  13.336  11.656  10.101
 4335W        W72709   5.926  30.983  12.003
 4336W        W72710   9.189  21.526  13.444
 4337W        W72711  43.935  22.182  11.375
 4338W        W72712   8.313  15.613   1.252
 4339W        W72713  10.744  10.365   9.924
 4340W        W72714  21.199  16.690   4.816
 4341W        W72715  10.862   3.919   1.748
 4342W        W72716  33.130  11.213   2.318
 4343W        W72717  21.257  43.876  11.888
 4344W        W72718  16.297  39.392  12.559
 4345W        W72719  15.222  32.057  12.528
 4346W        W72720  27.450   9.762   3.814
 4347W        W72721  21.190   5.416  12.063
 4348W        W72722  11.738   3.236  13.434
 4349W        W72723  29.444  43.435  12.926
 4350W        W72724  20.590  37.902   3.830
 4351W        W72725  30.631   9.167   2.810
 4352W        W72726  41.026  13.765  10.908
 4353W        W72727  11.838  19.665  14.776
 4354W        W72728  24.159  41.887  11.595
 4355W        W72729   0.784  26.564   0.454
 4356W        W72730  43.350  38.987  14.851
 4357W        W72731  31.959  31.035   3.184
 4358W        W72732   6.300  29.110   9.458
 4359W        W72733  21.750  23.232  10.615
 4360W        W72734  14.605  39.498   4.710
 4361W        W72735  10.870  12.700   0.268
 4362W        W72736   6.240  39.991  14.478
 4363W        W72737  35.480   6.415  11.400
 4364W        W72738  36.538  26.510   0.875
 4365W        W72739  21.143  27.183  13.374
 4366W        W72740  41.024  32.094  13.887
 4367W        W72741  37.525   6.771   5.747
 4368W        W72742  20.186  30.964   0.799
 4369W        W72743   8.829  16.683  14.296
 4370W        W72744  32.993  19.106   4.345
 4371W        W72745  12.278  36.058  11.468
 4372W        W72746  41.510   7.772  11.485
 4373W        W72747  25.034   2.386  12.391
 4374W        W72748  13.744   0.948  11.503
 4375W        W72749  30.618  33.122  10.486
 4376W        W72750  34.927  37.935  12.973
 4377W        W72751   3.723  44.336   3.867
 4378W        W72752  13.230   7.817   4.221
 4379W        W72753  28.965   3.220  12.836
 4380W        W72754   2.425  34.530  11.029
 4381W        W72755  12.611   6.416   0.478
 4382W        W72756  10.282  26.559   3.721
 4383W        W72757  26.596  26.597   0.747
 4384W        W72758  23.595  28.009  12.035
 4385W        W72759  18.668  29.548   3.712
 4386W        W72760  18.752   5.343  14.492
 4387W        W72761  40.455  17.078  12.468
 4388W        W72762   7.253  16.675   1.785
 4389W        W72763   4.874  13.825  10.447
 4390W        W72764  19.116  41.408  14.975
 4391W        W72765  27.515  15.257   1.762
 4392W        W72766  12.241   7.235   1.346
 4393W        W72767  14.134  32.397  10.983
 4394W        W72768   1.254  26.075   0.840
 4395W        W72769   6.886  39.324   2.851
 4396W        W72770  17.741  35.973  13.467
 4397W        W72771  24.656  33.050  10.607
 4398W        W72772  38.948  27.098  12.410
 4399W        W72773  23.556  39.970   4.643
 4400W        W72774  12.636   7.402   2.200
 4401W        W72775  16.188  21.611  12.067
 4402W        W72776  17.674   5.221   0.350
 4403W        W72777  42.995   4.934   4.757
 4404W        W72778   9.295  33.624   1.697
 4405W        W72779  10.240  12.174   0.740
 4406W        W72780  20.697   6.224  14.014
 4407W        W72781  25.533   1.939  12.057
 4408W        W72782  30.957  10.798  13.803
 4409W        W72783  31.153  41.992   3.265
 4410W        W72784   0.931  29.167   1.373
 4411W        W72785  31.104  18.235  10.908
 4412W        W72786  41.442   2.369  11.402
 4413W        W72787  13.601  19.112  14.764
 4414W        W72788   9.368   4.944   2.879
 4415W        W72789   2.765  44.429   1.720
 4416W        W72790  18.713   2.928  12.483
 4417W        W72791  20.587  39.875  10.609
 4418W        W72792  24.713  36.063  13.962
 4419W        W72793   5.203   9.383  10.514
 4420W        W72794  36.509  18.157  13.986
 4421W        W72795  23.728   0.402   2.213
 4422W        W72796   2.419  17.671   3.731
 4423W        W72797  28.484  32.982  10.593
 4424W        W72798   6.775  12.272  10.631
 4425W        W72799  38.434  14.289  12.091
 4426W        W72800  12.310  38.071  10.958
 4427W        W72801  24.162  18.125  10.922
 4428W        W72802   4.794   8.389  12.479
 4429W        W72803   4.714  19.233  13.948
 4430W        W72804  18.078  20.564   0.918
 4431W        W72805   5.789  23.613   0.468
 4432W        W72806  32.522   1.398  14.378
 4433W        W72807   8.748  15.668  14.813
 4434W        W72808  38.515  27.677  10.535
 4435W        W72809  18.790  38.944   3.828
 4436W        W72810   4.917   3.894   4.802
 4437W        W72811  16.679  33.955   4.335
 4438W        W72812  27.968   5.933   3.274
 4439W        W72813  36.049  22.997   4.115
 4440W        W72814   4.850  17.199  11.570
 4441W        W72815  14.135   2.327   0.844
 4442W        W72816  16.689  23.552   1.895
 4443W        W72817  25.526   9.799  11.022
 4444W        W72818  34.948  29.130  14.316
 4445W        W72819  39.438  21.098   0.360
 4446W        W72820   0.903  17.800  13.326
 4447W        W72821  27.544  25.662   4.838
 4448W        W72822  32.461   9.212   1.216
 4449W        W72823  43.007   8.674  14.312
 4450W        W72824   9.311  33.094  12.520
 4451W        W72825  43.778  41.900  14.842
 4452W        W72826  43.853  14.162   0.413
 4453W        W72827  41.907  27.526  13.330
 4454W        W72828  19.728  12.355   4.713
 4455W        W72829  43.860   5.365  12.345
 4456W        W72830  36.427   5.856   3.155
 4457W        W72831  23.224   3.438   3.698
 4458W        W72832  35.940  20.568   3.197
 4459W        W72833  23.735   4.220  11.127
 4460W        W72834  29.457   4.231   2.662
 4461W        W72835  22.143  26.024  13.336
 4462W        W72836  38.510  13.803  10.406
 4463W        W72837   8.834   6.334   3.284
 4464W        W72838  25.677  26.545   2.358
 4465W        W72839   2.926  17.786   3.635
 4466W        W72840  13.339  25.108   5.288
 4467W        W72841   0.334   7.725  11.987
 4468W        W72842  29.608   2.394   0.418
 4469W        W72843  24.622   2.272  13.379
 4470W        W72844  39.059  26.105   3.146
 4471W        W72845  20.617  17.642  12.940
 4472W        W72846  15.275  34.969  13.495
 4473W        W72847   4.220  20.048   0.830
 4474W        W72848  25.588  16.181  14.362
 4475W        W72849  33.093  19.695  10.408
 4476W        W72850   1.755  28.644  12.867
 4477W        W72851   3.327   0.808  11.066
 4478W        W72852  21.709  29.436   1.852
 4479W        W72853   9.692  23.115   0.312
 4480W        W72854   7.403  28.992  14.351
 4481W        W72855   5.868  43.796   2.678
 4482W        W72856   0.457  24.180   0.334
 4483W        W72857   7.270  25.523  11.451
 4484W        W72858  17.800  43.443   1.716
 4485W        W72859  11.785  29.079   3.285
 4486W        W72860  34.380   2.912  14.988
 4487W        W72861  17.602  31.087   4.229
 4488W        W72862  19.714   8.184   4.611
 4489W        W72863   0.791  11.680  14.880
 4490W        W72864  23.574  20.611   3.794
 4491W        W72865  37.074   5.849  14.312
 4492W        W72866   2.253  14.638   2.800
 4493W        W72867  41.298   6.315  13.356
 4494W        W72868   1.443  30.616   2.259
 4495W        W72869  34.384  16.178  11.532
 4496W        W72870   0.923  42.879   4.760
 4497W        W72871  26.506  11.178   2.244
 4498W        W72872  33.618  12.323   0.318
 4499W        W72873   3.260   0.436  13.320
 4500W        W72874  42.527   7.332   1.918
 4501W        W72875   9.853  26.658   1.780
 4502W        W72876  26.543  29.093  10.012
 4503W        W72877   2.307  12.148   3.783
 4504W        W72878  15.168  18.706  12.943
 4505W        W72879  26.042  24.707  14.457
 4506W        W72880  39.044  42.865   2.207
 4507W        W72881   9.298  41.312  11.951
 4508W        W72882   7.412   2.895   0.376
 4509W        W72883  25.032  25.969  11.970
 4510W        W72884   8.796  30.153  14.943
 4511W        W72885  41.939  39.876   4.828
 4512W        W72886   8.163  13.126   2.367
 4513W        W72887  21.740   6.395  12.869
 4514W        W72888  16.112  25.571   3.305
 4515W        W72889  12.713  38.342   4.813
 4516W        W72890   8.305  28.546   1.337
 4517W        W72891   7.301  42.810   3.630
 4518W        W72892   0.467   3.952   1.928
 4519W        W72893  17.796  17.184   0.841
 4520W        W72894  36.937   5.762  13.344
 4521W        W72895  38.569   1.839  14.911
 4522W        W72896   0.399  32.436  13.341
 4523W        W72897   9.197  15.236  10.934
 4524W        W72898   2.343  13.161  12.021
 4525W        W72899  19.179  38.875  10.529
 4526W        W72900  32.006  13.621   0.479
 4527W        W72901   1.426  22.677  13.425
 4528W        W72902  32.120   9.833   3.793
 4529W        W72903  11.706  25.633   9.983
 4530W        W72904   7.711   5.381  14.950
 4531W        W72905   6.259   7.685  12.042
 4532W        W72906  44.931   3.770   4.756
 4533W        W72907  36.538  44.952   1.807
 4534W        W72908  23.688  25.975  10.504
 4535W        W72909   8.759  41.377   3.662
 4536W        W72910  13.718  43.894  14.374
 4537W        W72911  10.848  39.420   1.451
 4538W        W72912   1.893  15.688   0.917
 4539W        W72913  43.780   2.443  14.296
 4540W        W72914  12.676  16.785   2.355
 4541W        W72915  11.340  35.915  14.934
 4542W        W72916  18.196  42.469   2.822
 4543W        W72917   3.319  30.033  14.386
 4544W        W72918  35.034  12.163  10.491
 4545W        W72919  22.536  21.552  14.338
 4546W        W72920  41.328  40.985   2.349
 4547W        W72921  37.473  36.496  13.344
 4548W        W72922  23.100  28.057  14.477
 4549W        W72923  17.786   4.264   3.693
 4550W        W72924  30.422  23.550  10.569
 4551W        W72925  42.476   7.323  13.339
 4552W        W72926  20.722  16.280  12.017
 4553W        W72927   3.769  23.034  10.938
 4554W        W72928   5.922  29.531  11.554
 4555W        W72929  42.428   7.803  14.879
 4556W        W72930  28.144  25.975  10.512
 4557W        W72931   3.286  38.020  13.919
 4558W        W72932   2.451  18.222  10.135
 4559W        W72933  29.095  24.665   1.770
 4560W        W72934  15.629   2.453  11.440
 4561W        W72935  43.446  28.626  13.477
 4562W        W72936  12.209  44.941  12.446
 4563W        W72937  18.579   4.445   0.280
 4564W        W72938  29.166  23.053  12.451
 4565W        W72939  42.320  28.584   4.671
 4566W        W72940  16.575  20.181  13.321
 4567W        W72941  12.618   9.689   2.812
 4568W        W72942  39.015  35.412  13.380
 4569W        W72943  16.088   5.424   3.361
 4570W        W72944  11.344  16.592   0.406
 4571W        W72945   1.433  29.515   0.893
 4572W        W72946  23.647  17.693  11.560
 4573W        W72947   3.715  42.437   4.185
 4574W        W72948   6.309   0.415  10.559
 4575W        W72949  32.069  16.619   2.785
 4576W        W72950   0.849  34.508  13.444
 4577W        W72951   7.672   6.273  10.563
 4578W        W72952  36.373  26.093  12.021
 4579W        W72953  34.046  11.748   3.706
 4580W        W72954  21.191  44.485  13.406
 4581W        W72955   6.319  26.185   3.349
 4582W        W72956  24.005  26.588   3.243
 4583W        W72957  29.165   6.755  12.385
 4584W        W72958  21.591  18.703   1.214
 4585W        W72959  28.970  26.477   3.715
 4586W        W72960  35.369  19.562  11.049
 4587W        W72961  44.309   8.758  13.320
 4588W        W72962  39.843  33.529   2.795
 4589W        W72963  19.607   2.795   1.274
 4590W        W72964  14.707  33.609  12.365
 4591W        W72965  17.199   1.465  14.959
 4592W        W72966  13.621  16.812   0.463
 4593W        W72967  18.062  29.922  13.404
 4594W        W72968  14.759  21.542  10.486
 4595W        W72969  12.164  15.629  11.069
 4596W        W72970   1.386  16.210  14.851
 4597W        W72971  23.101  38.010   1.309
 4598W        W72972   7.401  38.551   1.906
 4599W        W72973  25.619   0.832   0.824
 4600W        W72974  39.994  31.933   0.404
 4601W        W72975  18.279  21.516   3.634
 4602W        W72976  44.346  35.879  14.860
 4603W        W72977  27.178  20.748  14.799
 4604W        W72978  39.867  11.134   0.305
 4605W        W72979  16.807  36.071  14.278
 4606W        W72980  18.647  23.710   1.772
 4607W        W72981   8.845   1.966   0.411
 4608W        W72982   4.323   1.298   1.844
 4609W        W72983  34.959  20.543   3.630
 4610W        W72984  22.700  19.073   4.294
 4611W        W72985   5.369  19.043  13.970
 4612W        W72986   7.180  15.319   2.388
 4613W        W72987   0.388  16.686   3.787
 4614W        W72988   7.319  42.396  14.997
 4615W        W72989  10.302  36.537   2.815
 4616W        W72990  36.965  22.535  12.469
 4617W        W72991  43.937  35.063   4.308
 4618W        W72992  16.574  28.937  14.865
 4619W        W72993   0.278  20.691   0.806
 4620W        W72994  28.563   8.351  12.063
 4621W        W72995  31.450  31.955   4.174
 4622W        W72996   4.205  41.364   3.849
 4623W        W72997  39.515  36.061  13.521
 4624W        W72998  44.308  40.323   5.288
 4625W        W72999  22.203  44.793   4.276
 4626W        W73000  12.308  35.999   1.925
 4627W        W73001   9.274   0.744  12.510
 4628W        W73002  18.787  37.897   3.680
 4629W        W73003   7.714  18.747  14.919
 4630W        W73004  38.969  34.001  14.480
 4631W        W73005  23.631  37.958  12.082
 4632W        W73006  23.233  39.897   4.786
 4633W        W73007  42.524  34.498  13.056
 4634W        W73008  42.845  10.647  10.518
 4635W        W73009  18.263  30.412   3.710
 4636W        W73010  43.375   9.860   1.729
 4637W        W73011  25.588  36.871  12.574
 4638W        W73012  40.531  22.015  12.358
 4639W        W73013  40.386  40.880   3.775
 4640W        W73014   7.339  15.629   3.359
 4641W        W73015  26.460  22.246   4.707
 4642W        W73016   6.428  15.647  13.370
 4643W        W73017  12.312   0.347   1.882
 4644W        W73018  43.351  22.207   0.453
 4645W        W73019  43.968  17.118  13.482
 4646W        W73020  38.866  19.224  10.968
 4647W        W73021  21.116  33.487  10.423
 4648W        W73022  17.080  42.999  12.860
 4649W        W73023   2.946  31.405   2.188
 4650W        W73024  12.232  13.234   2.823
 4651W        W73025  44.903  44.470  11.493
 4652W        W73026  19.076  30.532   2.784
 4653W        W73027  18.715  24.183  14.869
 4654W        W73028   4.362  34.576  11.913
 4655W        W73029  23.729  26.974   3.630
 4656W        W73030  21.205   2.835  14.408
 4657W        W73031  20.701  19.227   1.776
 4658W        W73032  17.610  44.010   4.329
 4659W        W73033  42.979  32.977  13.880
 4660W        W73034  43.821  33.977  11.987
 4661W        W73035  29.545   5.259   1.811
 4662W        W73036  18.217  29.044  12.507
 4663W        W73037  36.478  43.314   4.303
 4664W        W73038  42.323  11.820  11.991
 4665W        W73039   4.289  27.531  10.463
 4666W        W73040  16.748  30.415   1.270
 4667W        W73041  43.985  40.522   3.721
 4668W        W73042  14.722  22.246   0.358
 4669W        W73043  20.766  33.609  13.020
 4670W        W73044   3.847   7.704  12.995
 4671W        W73045  18.627  16.242  11.026
 4672W        W73046  38.396   9.869  14.371
 4673W        W73047   3.914  41.816   0.307
 4674W        W73048   4.900   6.823  11.949
 4675W        W73049  11.261   3.863  14.457
 4676W        W73050  27.122   7.199  11.049
 4677W        W73051  41.453   2.391  13.857
 4678W        W73052  17.703  11.674   1.852
 4679W        W73053  22.244  41.920  11.913
 4680W        W73054   2.247   9.351  13.539
 4681W        W73055  26.473  43.359  10.446
 4682W        W73056  24.563  36.384  10.477
 4683W        W73057  38.532   8.241   0.467
 4684W        W73058  40.311   4.413  13.916
 4685W        W73059  41.516  30.960  13.499
 4686W        W73060  16.273  40.478   0.858
 4687W        W73061  24.589  20.108   4.604
 4688W        W73062  20.220  27.974   2.351
 4689W        W73063  36.522   5.787   1.244
 4690W        W73064   8.312  28.592   2.714
 4691W        W73065  24.061  39.534  11.916
 4692W        W73066  19.189   3.251  11.898
 4693W        W73067  34.008  13.206  13.383
 4694W        W73068   4.900  26.034   2.859
 4695W        W73069  43.324  40.494  12.565
 4696W        W73070  43.394  38.433   1.287
 4697W        W73071   7.744   7.363   3.330
 4698W        W73072  25.543  28.081   3.149
 4699W        W73073  14.589  15.248  10.916
 4700W        W73074  34.099  33.565  13.349
 4701W        W73075   4.250  13.782  13.309
 4702W        W73076  29.065  14.157   4.211
 4703W        W73077  28.945  37.414   4.342
 4704W        W73078  34.977  39.841   3.787
 4705W        W73079  26.613  28.148  14.989
 4706W        W73080   3.862  44.459  14.899
 4707W        W73081  41.796   8.790   0.467
 4708W        W73082  10.753   9.795  11.090
 4709W        W73083  38.559   4.813   2.819
 4710W        W73084  13.117  23.540   1.855
 4711W        W73085  44.362  42.892   2.670
 4712W        W73086  37.881  29.551   3.271
 4713W        W73087  44.304   7.768  12.084
 4714W        W73088   1.268  23.704  13.440
 4715W        W73089  14.180  40.829  14.278
 4716W        W73090  20.639   9.786   2.892
 4717W        W73091  10.361  36.021  14.451
 4718W        W73092  25.963  44.967   1.709
 4719W        W73093  37.427  31.120   4.640
 4720W        W73094   5.193  40.046   0.469
 4721W        W73095  38.339   3.235   3.842
 4722W        W73096  23.006  29.005   4.732
 4723W        W73097  22.087  36.954   4.810
 4724W        W73098  17.307  10.212  10.582
 4725W        W73099  42.852  40.483  13.952
 4726W        W73100  18.210  10.824   0.311
 4727W        W73101   3.899   5.283   3.190
 4728W        W73102  33.411  37.937  10.584
 4729W        W73103   4.400  24.548   0.911
 4730W        W73104  25.039  34.550   4.778
 4731W        W73105   0.858   1.867  12.989
 4732W        W73106  43.769  29.088  13.978
 4733W        W73107  36.361  33.512   3.838
 4734W        W73108   5.722   3.380  13.975
 4735W        W73109  15.710   2.250  10.438
 4736W        W73110  29.092  23.106  13.326
 4737W        W73111  30.436  14.631  13.447
 4738W        W73112  17.759  13.279   4.782
 4739W        W73113  20.125   9.153  12.493
 4740W        W73114  35.494  39.923   0.859
 4741W        W73115  18.761   7.869  11.452
 4742W        W73116  26.035  29.447   0.440
 4743W        W73117   3.281  36.907  10.561
 4744W        W73118  25.186  40.815   4.812
 4745W        W73119  42.976   9.302  14.990
 4746W        W73120  18.785   9.845  12.029
 4747W        W73121  15.746   6.276  10.421
 4748W        W73122   5.909   8.789   2.748
 4749W        W73123   2.410  28.494   0.322
 4750W        W73124  26.041   0.368   2.673
 4751W        W73125  16.735  31.071  14.465
 4752W        W73126   9.315  16.608  13.852
 4753W        W73127  25.076  23.592  14.291
 4754W        W73128  33.479  37.567  14.815
 4755W        W73129  33.971  31.913  14.947
 4756W        W73130  19.110  13.159  13.524
 4757W        W73131  32.514  33.420  13.512
 4758W        W73132  40.382  36.010  13.332
 4759W        W73133  19.608  35.984   0.898
 4760W        W73134  15.086   4.441  13.448
 4761W        W73135  22.030  32.117  13.402
 4762W        W73136  38.978   5.906  13.419
 4763W        W73137  15.677  33.614  14.289
 4764W        W73138  29.509   2.784  13.895
 4765W        W73139  19.706  40.852   3.808
 4766W        W73140  39.974  15.611   0.887
 4767W        W73141  24.199  11.278   3.696
 4768W        W73142  10.847   3.780  12.851
 4769W        W73143  36.984  18.755  12.471
 4770W        W73144  39.911  16.750  10.628
 4771W        W73145   5.313   5.698  12.006
 4772W        W73146  17.681  32.466  14.971
 4773W        W73147  15.217  36.556   4.197
 4774W        W73148   3.281   5.790  11.938
 4775W        W73149  12.704  35.941  14.889
 4776W        W73150  16.633  23.725   3.363
 4777W        W73151  41.824  39.363  13.348
 4778W        W73152  43.941  38.821  14.834
 4779W        W73153   2.814  38.347   0.267
 4780W        W73154   2.870  31.523   0.483
 4781W        W73155  29.650  31.953   0.471
 4782W        W73156  41.915  13.303   2.390
 4783W        W73157  28.098  36.913   1.215
 4784W        W73158  30.567  10.262   9.939
 4785W        W73159   9.198  10.653   2.237
 4786W        W73160  37.573   3.460   2.351
 4787W        W73161  17.141   0.748  13.523
 4788W        W73162  11.348  20.106  13.456
 4789W        W73163  17.115  32.007  12.058
 4790W        W73164  16.761  26.501  14.276
 4791W        W73165  41.942  17.233  12.884
 4792W        W73166  41.302  12.816  11.052
 4793W        W73167  13.147  31.554   1.873
 4794W        W73168   3.951  13.649  11.058
 4795W        W73169  34.046  12.653   3.319
 4796W        W73170  25.618  28.112   0.374
 4797W        W73171  26.661  28.054   2.190
 4798W        W73172  26.067  44.915  11.037
 4799W        W73173   5.227  16.077  10.637
 4800W        W73174  21.579  22.124   0.927
 4801W        W73175  40.378  19.682  13.894
 4802W        W73176  28.077  32.025  10.053
 4803W        W73177  12.309  41.941   4.190
 4804W        W73178   4.268  10.366  13.325
 4805W        W73179   6.329  25.673   4.706
 4806W        W73180  15.202  34.575   2.200
 4807W        W73181   3.855  26.164  13.473
 4808W        W73182  22.238  42.031   3.648
 4809W        W73183  24.216  23.606  12.093
 4810W        W73184  28.482   5.433   3.796
 4811W        W73185   3.885   4.757   1.926
 4812W        W73186  18.270  28.535   2.236
 4813W        W73187   7.330  43.328   2.861
 4814W        W73188  33.067   5.278   2.415
 4815W        W73189  11.811   1.867  10.595
 4816W        W73190  35.542  40.811  14.955
 4817W        W73191   4.831   2.812   3.356
 4818W        W73192  44.835   7.733  14.847
 4819W        W73193  38.363  13.160   4.147
 4820W        W73194   7.235  23.504  13.405
 4821W        W73195  39.962  31.088   2.388
 4822W        W73196  19.101  15.581  12.413
 4823W        W73197  35.956  38.838   4.690
 4824W        W73198   8.791  11.691   2.898
 4825W        W73199  15.087   7.192  11.598
 4826W        W73200   7.184  41.328   0.472
 4827W        W73201  36.085   0.412   3.718
 4828W        W73202  41.533  25.089   4.250
 4829W        W73203   9.316  11.651   3.770
 4830W        W73204  13.188  38.518   2.403
 4831W        W73205  33.946   6.905   2.348
 4832W        W73206  29.091  11.289  12.086
 4833W        W73207  13.258  17.170  11.938
 4834W        W73208   2.289  19.575  12.552
 4835W        W73209   8.290  27.681  13.960
 4836W        W73210  38.824   8.820   4.146
 4837W        W73211   7.783  42.802   4.156
 4838W        W73212   7.367  28.543   3.653
 4839W        W73213  25.708  35.104  13.383
 4840W        W73214   2.381  40.991   0.353
 4841W        W73215  37.359  14.651   5.287
 4842W        W73216  22.124  43.947  14.379
 4843W        W73217  35.585   9.322   2.716
 4844W        W73218  15.597  13.155   2.662
 4845W        W73219  17.084   5.382   0.467
 4846W        W73220  34.522  42.870  12.059
 4847W        W73221   1.238  35.021  11.977
 4848W        W73222  20.214   4.783   3.287
 4849W        W73223  26.617   4.230   1.850
 4850W        W73224  18.716  31.094  11.127
 4851W        W73225  41.999  30.034   2.313
 4852W        W73226  23.677  20.724   0.300
 4853W        W73227  23.234  29.596  12.386
 4854W        W73228  38.527  15.723   2.388
 4855W        W73229  39.478  29.629  10.613
 4856W        W73230  27.053  29.015   0.821
 4857W        W73231  16.318  41.370   2.267
 4858W        W73232   3.337  12.654   3.348
 4859W        W73233   7.896   9.335   3.241
 4860W        W73234  40.521   0.754   2.389
 4861W        W73235  16.129  28.569  12.424
 4862W        W73236  23.178  36.904  14.771
 4863W        W73237  10.329  27.989   0.897
 4864W        W73238  30.597  33.612   3.666
 4865W        W73239  12.238  37.863  12.526
 4866W        W73240   6.317  24.981  13.910
 4867W        W73241  27.163  15.584   2.879
 4868W        W73242  35.949  31.590  14.776
 4869W        W73243  13.844   1.461  10.893
 4870W        W73244  41.519  35.372   1.300
 4871W        W73245  37.538  43.994  13.879
 4872W        W73246  43.941  26.962  12.986
 4873W        W73247  24.069  44.854   4.799
 4874W        W73248  23.627  32.052   0.404
 4875W        W73249  25.113   1.752  12.071
 4876W        W73250  40.951  25.150  14.786
 4877W        W73251   2.242  19.203   0.819
 4878W        W73252   1.907  10.157   4.145
 4879W        W73253  15.689  25.555  13.463
 4880W        W73254  38.568   7.245   4.700
 4881W        W73255   2.350  42.882  14.948
 4882W        W73256  13.276   9.252  10.420
 4883W        W73257   4.832  40.410  11.929
 4884W        W73258  18.141  20.708  11.561
 4885W        W73259  39.904  13.157  11.465
 4886W        W73260  40.032  38.864  14.503
 4887W        W73261  38.027  37.891  11.026
 4888W        W73262   8.809  18.152   9.442
 4889W        W73263  39.468  13.664   2.779
 4890W        W73264  12.832  31.978  13.313
 4891W        W73265  22.517  31.536   0.825
 4892W        W73266  43.881   0.344   4.740
 4893W        W73267   0.293  26.557   2.386
 4894W        W73268  18.786   8.662   4.781
 4895W        W73269  26.002   2.830   1.334
 4896W        W73270  33.456   7.745  11.060
 4897W        W73271  44.831   5.305  12.497
 4898W        W73272  25.110  31.587   3.336
 4899W        W73273   7.224  10.781   3.724
 4900W        W73274  39.375  44.814  12.865
 4901W        W73275   0.967  38.465  14.810
 4902W        W73276  43.905  25.567   1.848
 4903W        W73277  22.238   0.900  12.968
 4904W        W73278  14.697   7.412  13.842
 4905W        W73279   1.751  25.691   3.712
 4906W        W73280   6.877  32.528  10.445
 4907W        W73281  11.130   1.843  10.980
 4908W        W73282  39.961  10.190   0.917
 4909W        W73283  43.424  23.586  10.535
 4910W        W73284  36.494  22.038  13.966
 4911W        W73285  17.630  22.075  12.938
 4912W        W73286  26.658   0.868   2.866
 4913W        W73287  39.442  29.451  14.482
 4914W        W73288   7.814  40.037   1.698
 4915W        W73289  17.280  29.143   4.779
 4916W        W73290  42.497  23.167   3.652
 4917W        W73291  18.183   5.812   0.284
 4918W        W73292  16.795   4.261  13.431
 4919W        W73293  12.138  34.874   0.887
 4920W        W73294  31.441  13.755  14.826
 4921W        W73295  44.858  37.049   1.813
 4922W        W73296  33.094  32.005   0.329
 4923W        W73297  41.894  10.277  13.038
 4924W        W73298   3.279   1.956   4.627
 4925W        W73299  30.659  18.765   1.410
 4926W        W73300  32.483   7.880  12.358
 4927W        W73301  22.643   0.913  13.027
 4928W        W73302  30.544  12.172  11.919
 4929W        W73303  38.492  20.734  11.511
 4930W        W73304  33.431  24.161   9.934
 4931W        W73305  34.554   5.409   0.451
 4932W        W73306   4.354  27.097  10.442
 4933W        W73307   9.321  28.044  10.454
 4934W        W73308  27.016  32.886  13.311
 4935W        W73309  34.987   3.222  13.853
 4936W        W73310   1.472   1.750   4.675
 4937W        W73311  31.446  24.646   4.194
 4938W        W73312  25.030  22.073   3.836
 4939W        W73313  40.955   8.374  12.995
 4940W        W73314  36.404  11.679  12.501
 4941W        W73315   3.367  11.687   4.713
 4942W        W73316  19.587  26.633  14.404
 4943W        W73317  25.474   8.836   3.319
 4944W        W73318  26.150  26.013   1.290
 4945W        W73319   1.360  11.641   3.853
 4946W        W73320  28.186  25.172  12.575
 4947W        W73321  43.856  39.980  12.890
 4948W        W73322  17.301  15.710  13.795
 4949W        W73323   0.807  15.153   1.433
 4950W        W73324  24.203  34.933  12.041
 4951W        W73325  43.909  12.615   4.803
 4952W        W73326  43.823  32.590   2.669
 4953W        W73327  39.472  20.180   4.770
 4954W        W73328  34.881  26.112  12.016
 4955W        W73329  21.639  15.691  11.541
 4956W        W73330  39.016  11.788  13.894
 4957W        W73331  35.898  33.501   0.868
 4958W        W73332   0.452  19.127   3.366
 4959W        W73333  33.882  15.220   3.181
 4960W        W73334   0.959  41.391   0.316
 4961W        W73335  31.568  32.108   2.394
 4962W        W73336  40.889   5.753   3.656
 4963W        W73337   6.417   7.348  12.081
 4964W        W73338  12.719  29.531   3.361
 4965W        W73339  27.957  37.907  10.519
 4966W        W73340  23.586  29.004   9.624
 4967W        W73341  42.502  14.310  12.577
 4968W        W73342  14.706  34.554  11.521
 4969W        W73343   8.365  20.155   9.440
 4970W        W73344  17.218  20.148  11.516
 4971W        W73345   2.812  19.553  14.019
 4972W        W73346   5.918  40.939   4.809
 4973W        W73347  16.086   0.491   4.732
 4974W        W73348  24.501  29.100   0.741
 4975W        W73349  11.699   8.775   0.252
 4976W        W73350  34.867  26.624   0.416
 4977W        W73351  14.667  16.144  14.789
 4978W        W73352  21.149  11.812   2.881
 4979W        W73353  38.327   6.855  14.978
 4980W        W73354  38.336  28.117  14.434
 4981W        W73355  12.755  10.246   0.451
 4982W        W73356  14.802   4.302   4.263
 4983W        W73357  17.581  35.888  12.413
 4984W        W73358  15.610  44.001  11.006
 4985W        W73359  42.882  30.471  14.830
 4986W        W73360  36.058  13.741  13.333
 4987W        W73361  20.142  43.466  10.935
 4988W        W73362  42.931  31.906  11.420
 4989W        W73363  33.943  22.522  10.900
 4990W        W73364  35.358  24.538   3.198
 4991W        W73365  30.121  37.554   0.331
 4992W        W73366  10.359  44.811  14.444
 4993W        W73367  39.498  38.823  10.583
 4994W        W73368  15.600  21.125   1.768
 4995W        W73369  15.593  29.660  13.445
 4996W        W73370   6.385  23.545  11.110
 4997W        W73371   5.901  18.753   4.754
 4998W        W73372   9.869  28.098  13.064
 4999W        W73373  10.638  19.743  12.425
 5000W        W73374  29.956  18.295  12.394
 5001W        W73375  27.654   5.732  14.908
 5002W        W73376  25.097  37.956  10.514
 5003W        W73377  29.572  11.337   1.403
 5004W        W73378  40.027  17.212  13.871
 5005W        W73379  14.208   7.748  13.544
 5006W        W73380  33.469  12.786  10.015
 5007W        W73381   1.444  13.790  11.929
 5008W        W73382  16.676  33.119   4.658
 5009W        W73383  24.977  16.263  13.542
 5010W        W73384   1.792   1.242   2.674
 5011W        W73385   3.299   7.259  11.025
 5012W        W73386  21.196  33.887   4.132
 5013W        W73387  29.926  19.210   0.765
 5014W        W73388   5.435  28.448  10.503
 5015W        W73389  31.089  25.004  13.511
 5016W        W73390  33.908  26.534  13.370
 5017W        W73391   7.755  31.981  11.376
 5018W        W73392   3.411  18.736  12.900
 5019W        W73393  36.413   8.674   3.749
 5020W        W73394  32.115   4.720  13.027
 5021W        W73395  16.727  28.493  11.120
 5022W        W73396  26.123  33.901   2.374
 5023W        W73397  10.730  24.006  14.407
 5024W        W73398  35.385  23.489  12.448
 5025W        W73399  18.771  26.109   3.233
 5026W        W73400  11.711   1.312  12.987
 5027W        W73401  12.169  44.370   2.410
 5028W        W73402  28.032  21.091  14.976
 5029W        W73403  31.437   9.275   2.286
 5030W        W73404  25.039  28.542   1.448
 5031W        W73405   6.425   1.427   0.888
 5032W        W73406  24.210  11.827  11.127
 5033W        W73407  16.169  19.131  13.448
 5034W        W73408   6.296  13.271  12.560
 5035W        W73409  12.765  23.100  10.583
 5036W        W73410   4.272  30.982  11.540
 5037W        W73411  29.559  21.648  14.772
 5038W        W73412   6.871  15.809   2.368
 5039W        W73413  40.320   0.944  14.424
 5040W        W73414  12.188   6.380  12.008
 5041W        W73415  11.658   8.803   2.291
 5042W        W73416  16.767   3.842  12.445
 5043W        W73417  34.564  16.111  14.380
 5044W        W73418  44.771  36.417  11.112
 5045W        W73419  27.655  31.487  11.450
 5046W        W73420  27.112   4.397  12.446
 5047W        W73421  19.095   6.315   4.191
 5048W        W73422  28.581  12.233  14.307
 5049W        W73423  26.468  37.367   4.355
 5050W        W73424   8.791  24.509   4.639
 5051W        W73425  20.591  38.905  10.143
 5052W        W73426  39.339  10.253  10.144
 5053W        W73427  14.820   6.367  11.970
 5054W        W73428  43.499  39.458   3.648
 5055W        W73429  42.027  18.163   1.860
 5056W        W73430  26.052  10.836   2.327
 5057W        W73431  23.663  26.558  11.980
 5058W        W73432   7.813   8.335   1.800
 5059W        W73433  22.619   6.235  11.592
 5060W        W73434  32.063  26.035   1.727
 5061W        W73435  23.535  10.845   3.814
 5062W        W73436   2.840  13.714  14.008
 5063W        W73437  11.338   5.822   3.247
 5064W        W73438  23.130  35.087  12.913
 5065W        W73439   4.748   6.761  14.920
 5066W        W73440  24.214  20.048  14.867
 5067W        W73441   5.399  18.784  14.922
 5068W        W73442   3.718   4.365  13.359
 5069W        W73443  20.630  30.508   2.744
 5070W        W73444  39.891  16.221   4.206
 5071W        W73445  36.012  35.408  12.052
 5072W        W73446  37.950  15.599   4.171
 5073W        W73447  34.913  26.524   3.201
 5074W        W73448   2.388  20.083  10.620
 5075W        W73449   7.220   8.286   0.881
 5076W        W73450  23.141   2.926  12.557
 5077W        W73451   9.160  34.948  12.883
 5078W        W73452  37.405  10.196  10.148
 5079W        W73453  41.888  41.968  12.419
 5080W        W73454  22.086  25.162   2.351
 5081W        W73455  19.090  33.923  13.016
 5082W        W73456  34.374  25.067   1.325
 5083W        W73457  40.393  32.547   2.310
 5084W        W73458  23.496  36.589  14.866
 5085W        W73459  26.144   7.877   2.229
 5086W        W73460  32.041  17.801   3.277
 5087W        W73461   1.888  18.551  12.921
 5088W        W73462  39.051  20.539   2.694
 5089W        W73463  22.712  34.424   3.233
 5090W        W73464  29.471  29.937  13.402
 5091W        W73465  33.447  17.676   4.224
 5092W        W73466  41.412  43.938  12.975
 5093W        W73467  11.818   4.281   0.899
 5094W        W73468  36.024  34.462  11.020
 5095W        W73469  21.642  42.449  10.897
 5096W        W73470   0.920  18.270  13.322
 5097W        W73471  24.602  33.478  11.556
 5098W        W73472  39.392  40.938   2.404
 5099W        W73473  21.026   4.732   3.242
 5100W        W73474  18.253  22.124  14.316
 5101W        W73475  34.484  12.684   3.811
 5102W        W73476   4.277  39.820   0.921
 5103W        W73477  36.437   4.793  11.373
 5104W        W73478  27.682  21.702   2.892
 5105W        W73479   6.907  36.967  14.817
 5106W        W73480  14.647  37.399  13.821
 5107W        W73481  22.075   7.700  14.018
 5108W        W73482  10.717  34.505  13.530
 5109W        W73483   7.732  40.899  13.029
 5110W        W73484  15.619  25.609   4.678
 5111W        W73485   7.242  28.579   1.739
 5112W        W73486   5.741   8.864   0.891
 5113W        W73487  30.603  14.218   4.340
 5114W        W73488  41.937  35.884   2.263
 5115W        W73489  27.148  31.121  11.111
 5116W        W73490  30.481  38.921   3.175
 5117W        W73491   6.188  24.135   3.641
 5118W        W73492  12.633   0.815   3.205
 5119W        W73493  18.697  20.578  12.504
 5120W        W73494   1.444  27.537  13.996
 5121W        W73495  15.609  41.946  11.953
 5122W        W73496   2.401  26.057   0.271
 5123W        W73497  31.511  37.496  14.366
 5124W        W73498  34.470  21.697  12.445
 5125W        W73499   5.723  43.510  11.083
 5126W        W73500  39.452  15.708   3.157
 5127W        W73501  15.281  44.885   2.800
 5128W        W73502   0.937   6.791   3.201
 5129W        W73503  38.906  18.623  12.979
 5130W        W73504  26.564  13.808  12.955
 5131W        W73505  41.824  41.836  13.045
 5132W        W73506  15.822  42.408   2.702
 5133W        W73507   0.433   9.779  12.859
 5134W        W73508   6.814   7.830  11.603
 5135W        W73509   2.965  30.037  11.387
 5136W        W73510  28.042  16.290   4.118
 5137W        W73511   2.761  38.038   2.292
 5138W        W73512  44.874   2.458   3.687
 5139W        W73513  43.019   9.205  11.915
 5140W        W73514  29.639  20.047  10.902
 5141W        W73515   7.324  32.396   2.270
 5142W        W73516  29.928  35.499  13.880
 5143W        W73517  29.039  13.639  11.086
 5144W        W73518   2.900  39.347   1.906
 5145W        W73519  33.460   6.681  12.433
 5146W        W73520  27.028  13.803   1.258
 5147W        W73521  40.546   6.390  13.920
 5148W        W73522   2.461  32.015  11.448
 5149W        W73523  22.594  18.790   3.752
 5150W        W73524   2.310  34.573   3.337
 5151W        W73525  18.610  41.427  11.428
 5152W        W73526  25.137  15.164  10.538
 5153W        W73527  34.053  35.067   4.179
 5154W        W73528  28.652  21.127   4.279
 5155W        W73529  20.044  38.518  10.459
 5156W        W73530  24.083   2.739   2.747
 5157W        W73531   2.361  13.754   1.442
 5158W        W73532  29.623   8.724   4.601
 5159W        W73533   9.328  13.167   3.375
 5160W        W73534  28.000  21.107   1.778
 5161W        W73535  19.715   5.908   2.398
 5162W        W73536   8.821   5.420  12.926
 5163W        W73537  15.101  17.646   2.839
 5164W        W73538  35.495  24.575   1.921
 5165W        W73539  44.449  34.495   1.300
 5166W        W73540  25.043  39.064  12.834
 5167W        W73541  31.450  11.189   1.775
 5168W        W73542   3.903   9.758   0.338
 5169W        W73543  42.907  33.970   3.773
 5170W        W73544   6.835  34.530   1.758
 5171W        W73545   7.417  20.594   2.675
 5172W        W73546  44.417  36.935   2.337
 5173W        W73547  11.227   8.859  13.309
 5174W        W73548   7.259  22.672  14.492
 5175W        W73549  14.231  38.342   0.743
 5176W        W73550  24.582  38.042   3.720
 5177W        W73551  42.897  43.774  14.821
 5178W        W73552   5.856  23.529  14.942
 5179W        W73553   8.300  14.643   3.333
 5180W        W73554  38.511  43.388  13.884
 5181W        W73555  29.659  34.869  12.989
 5182W        W73556  40.799  15.284   2.705
 5183W        W73557  29.579  41.381   4.662
 5184W        W73558  41.013  25.504   2.729
 5185W        W73559   6.686   2.364  14.439
 5186W        W73560  28.020  16.317  12.915
 5187W        W73561   7.673  15.310   1.324
 5188W        W73562  27.956  43.428  10.954
 5189W        W73563  11.676  16.614  12.933
 5190W        W73564  39.941  30.027   1.268
 5191W        W73565  13.289  13.176  14.419
 5192W        W73566  10.351  11.779   2.867
 5193W        W73567   3.414  40.357   4.286
 5194W        W73568   1.891  11.372   1.910
 5195W        W73569   0.879   6.718   3.680
 5196W        W73570  44.764  31.904  12.366
 5197W        W73571  39.420  31.001  13.427
 5198W        W73572  20.529  23.546  12.857
 5199W        W73573  40.507  20.621   0.751
 5200W        W73574   9.740  14.626  10.495
 5201W        W73575  28.964  25.100  12.983
 5202W        W73576  12.228   1.873   2.186
 5203W        W73577  40.340  25.128  10.577
 5204W        W73578  30.000  36.360   2.327
 5205W        W73579  28.575  40.832  10.488
 5206W        W73580  30.588   1.928   3.808
 5207W        W73581  40.874  20.716  11.380
 5208W        W73582  23.733  31.423  11.593
 5209W        W73583  19.223  36.583  13.004
 5210W        W73584  38.864  43.510  12.076
 5211W        W73585   1.930  21.730  12.918
 5212W        W73586  19.271   1.962  12.050
 5213W        W73587  20.254  38.401   4.201
 5214W        W73588  20.607  38.324  14.848
 5215W        W73589  41.935  30.967  14.858
 5216W        W73590  25.511   7.212  10.113
 5217W        W73591  11.230  20.682   0.291
 5218W        W73592  11.850  39.990  13.882
 5219W        W73593  39.559  30.996   0.829
 5220W        W73594  26.005  17.245  14.017
 5221W        W73595   2.746  34.392   3.684
 5222W        W73596  39.875   5.884  14.875
 5223W        W73597  10.288  22.240  12.932
 5224W        W73598  31.456  40.015  12.469
 5225W        W73599  21.241   5.344   2.870
 5226W        W73600   4.351  40.487  11.052
 5227W        W73601  30.127  11.741   1.297
 5228W        W73602  17.742   8.362  13.477
 5229W        W73603  42.474  25.502   2.694
 5230W        W73604  11.171  32.080  10.004
 5231W        W73605  44.983  41.413  13.376
 5232W        W73606  25.470  35.894   3.671
 5233W        W73607   8.745  37.397  10.908
 5234W        W73608   9.254  37.532  11.516
 5235W        W73609  44.947  21.570  13.384
 5236W        W73610  43.938  10.141   4.622
 5237W        W73611  18.208   8.773   5.150
 5238W        W73612   7.255  10.170   2.845
 5239W        W73613  11.328  18.272   4.344
 5240W        W73614  32.609  24.612  11.569
 5241W        W73615  40.990  15.191  13.360
 5242W        W73616  42.028  28.951  13.904
 5243W        W73617  31.503  20.245  14.344
 5244W        W73618   5.377  25.992   4.228
 5245W        W73619  41.899  23.115   0.923
 5246W        W73620  25.089  17.184  12.496
 5247W        W73621   8.862  27.689  10.912
 5248W        W73622   2.365  39.854   2.192
 5249W        W73623  37.896  41.302   4.732
 5250W        W73624  32.613   2.302   1.797
 5251W        W73625   8.167   9.334   4.285
 5252W        W73626  15.614  43.858   1.719
 5253W        W73627  40.884  26.177  11.484
 5254W        W73628  14.595  23.092  12.562
 5255W        W73629   6.761  16.747   0.463
 5256W        W73630   5.783  15.226  13.013
 5257W        W73631  26.151  40.874  13.330
 5258W        W73632   7.216   3.717   3.210
 5259W        W73633  26.531  24.539  13.795
 5260W        W73634   3.929  14.800   0.815
 5261W        W73635  43.967  19.637  13.940
 5262W        W73636  21.654  28.032  12.011
 5263W        W73637  19.542   6.294  10.998
 5264W        W73638  33.511  11.367   1.298
 5265W        W73639  20.128  15.612   4.186
 5266W        W73640  11.756  20.645  14.924
 5267W        W73641  40.908  30.554  11.858
 5268W        W73642  43.989  24.047  13.022
 5269W        W73643  28.512  13.645   4.140
 5270W        W73644  20.121   2.255  13.446
 5271W        W73645   2.424  40.853  11.979
 5272W        W73646  10.878  34.877   0.256
 5273W        W73647  15.815  28.956  10.578
 5274W        W73648  22.530   9.203   4.243
 5275W        W73649  42.453  12.206  14.346
 5276W        W73650   9.731  14.639  11.886
 5277W        W73651  35.103  21.258  11.422
 5278W        W73652  13.204  36.560  13.414
 5279W        W73653  21.643  34.054   1.933
 5280W        W73654  31.119  24.996  13.829
 5281W        W73655  25.703  36.391  13.938
 5282W        W73656  25.496  40.825  14.770
 5283W        W73657  12.765  40.324  12.916
 5284W        W73658  10.754  19.133  12.567
 5285W        W73659  13.675  21.065  12.362
 5286W        W73660  17.262  31.538  14.991
 5287W        W73661  34.467  15.326  13.507
 5288W        W73662  21.680  20.526   3.656
 5289W        W73663  14.671  30.527  14.419
 5290W        W73664  15.777   0.378  11.449
 5291W        W73665  40.442  15.264  11.983
 5292W        W73666  27.100  30.090  10.595
 5293W        W73667  15.287  37.916   2.330
 5294W        W73668  31.082   0.768   3.675
 5295W        W73669  43.328  28.987  14.842
 5296W        W73670   3.749  12.705  14.408
 5297W        W73671  43.283  37.890  12.503
 5298W        W73672  41.020  40.504  12.539
 5299W        W73673  22.026  21.541   4.163
 5300W        W73674  12.242  44.404  13.476
 5301W        W73675  18.606  32.526   2.291
 5302W        W73676  43.849  35.883  12.429
 5303W        W73677  10.726  30.435  13.370
 5304W        W73678   1.400  28.096   3.646
 5305W        W73679  32.970  13.190  12.364
 5306W        W73680  40.346  44.890  13.504
 5307W        W73681   1.468  12.623   4.825
 5308W        W73682   0.928  18.548   3.339
 5309W        W73683  20.651  40.905  14.413
 5310W        W73684  20.664  39.412  12.550
 5311W        W73685  28.608  32.596  14.344
 5312W        W73686  24.595  36.938  10.478
 5313W        W73687  42.793  33.020   2.703
 5314W        W73688  37.388  18.678   2.748
 5315W        W73689  33.053  12.848   2.668
 5316W        W73690  30.485  27.170  10.601
 5317W        W73691  29.980  35.087  12.366
 5318W        W73692  12.646  13.277   2.754
 5319W        W73693  16.595   9.318   0.324
 5320W        W73694  42.019  14.745   4.825
 5321W        W73695  32.955  14.688  13.459
 5322W        W73696  13.266  33.975  12.546
 5323W        W73697  26.021  42.481  11.942
 5324W        W73698  38.567  10.644   3.287
 5325W        W73699  44.268  16.660   2.813
 5326W        W73700  13.682   5.312   2.754
 5327W        W73701  33.569   6.886   1.301
 5328W        W73702  35.049   6.247  10.981
 5329W        W73703  40.308  24.598  12.005
 5330W        W73704  23.531  41.945  10.417
 5331W        W73705  21.693  43.907   2.408
 5332W        W73706  38.909  43.457  12.483
 5333W        W73707  20.588  17.097  14.325
 5334W        W73708  32.915  42.841   1.896
 5335W        W73709  30.505  25.506   3.284
 5336W        W73710   3.889  24.525   1.774
 5337W        W73711  32.967   1.809  11.908
 5338W        W73712  39.934  41.488   1.707
 5339W        W73713   9.369  34.900   4.794
 5340W        W73714  19.111  32.463   1.400
 5341W        W73715  25.605  43.382   1.292
 5342W        W73716  20.685   6.202  11.425
 5343W        W73717  44.455  18.559   0.925
 5344W        W73718  18.123  34.907  11.884
 5345W        W73719  28.612  30.492  12.376
 5346W        W73720  17.200  32.061  13.309
 5347W        W73721  44.970   9.838   3.323
 5348W        W73722  28.631   8.298  14.904
 5349W        W73723  35.965  13.328   4.765
 5350W        W73724   7.807  42.446  13.458
 5351W        W73725  21.624  37.480  11.488
 5352W        W73726  32.550  30.446   0.961
 5353W        W73727  41.366  34.041  11.885
 5354W        W73728  27.090  44.773  11.093
 5355W        W73729  33.054  35.576   1.866
 5356W        W73730   5.868  19.175  10.970
 5357W        W73731  35.401  27.197  11.388
 5358W        W73732  26.593   3.830   3.309
 5359W        W73733  20.681  26.536   2.848
 5360W        W73734  17.691  14.814  14.917
 5361W        W73735  37.862  40.355   3.193
 5362W        W73736  31.143  31.127   4.224
 5363W        W73737  38.989   7.172   4.763
 5364W        W73738  44.991  16.786   4.731
 5365W        W73739  38.402   0.980  13.033
 5366W        W73740  42.315  42.387   3.683
 5367W        W73741  31.019  35.015   4.299
 5368W        W73742  18.261  10.666   1.229
 5369W        W73743   8.682  15.288   2.195
 5370W        W73744  14.657  22.519  14.310
 5371W        W73745  30.024  24.124  11.064
 5372W        W73746  27.461   0.989  13.437
 5373W        W73747  15.769  18.167   2.884
 5374W        W73748  27.107  38.058  10.953
 5375W        W73749   6.259  29.461  10.901
 5376W        W73750  35.586   7.907  14.275
 5377W        W73751  36.848   2.774  11.902
 5378W        W73752  44.290   5.719   0.388
 5379W        W73753   1.368  23.569   0.763
 5380W        W73754  13.786  20.053  10.486
 5381W        W73755  44.309   0.905  13.446
 5382W        W73756  43.394   3.260   0.948
 5383W        W73757   5.856  42.480   4.264
 5384W        W73758  37.955  16.141  13.828
 5385W        W73759  41.315  31.983  11.946
 5386W        W73760  26.486  29.140  13.049
 5387W        W73761  37.881  24.142   4.637
 5388W        W73762  42.820  41.429  14.915
 5389W        W73763  10.769  32.515  12.069
 5390W        W73764  19.592  42.419   0.794
 5391W        W73765   6.835  29.437   3.255
 5392W        W73766  13.696  28.526   1.759
 5393W        W73767   5.306   3.796   9.537
 5394W        W73768  35.994  30.439  11.493
 5395W        W73769  42.317  23.524  12.529
 5396W        W73770  24.111   5.830  13.383
 5397W        W73771  43.940   9.674   4.764
 5398W        W73772   2.726  20.735  11.122
 5399W        W73773  17.785  25.709  12.839
 5400W        W73774  32.926  34.011   1.375
 5401W        W73775  14.337  30.150   4.248
 5402W        W73776  38.993  37.936   0.857
 5403W        W73777  20.708  36.991   1.732
 5404W        W73778  42.847  39.902   0.904
 5405W        W73779   3.735  27.607   2.262
 5406W        W73780  29.643  13.711   0.847
 5407W        W73781  33.058  44.800   4.610
 5408W        W73782  27.517  43.276   5.271
 5409W        W73783  18.638  25.577  12.010
 5410W        W73784  40.828  26.121   2.726
 5411W        W73785  15.235  10.351  10.618
 5412W        W73786  17.683  14.817   0.289
 5413W        W73787  43.357   2.950  13.510
 5414W        W73788  30.978  38.980   2.892
 5415W        W73789  42.952  42.008   4.167
 5416W        W73790  25.123  37.061  10.561
 5417W        W73791  36.415  22.694   5.291
 5418W        W73792  22.612  30.466   0.841
 5419W        W73793  19.117  32.069  11.128
 5420W        W73794   0.454  42.798  12.499
 5421W        W73795  22.683  29.119   5.109
 5422W        W73796  17.785  26.689  10.005
 5423W        W73797  22.627  17.286   2.763
 5424W        W73798   3.949  38.965   2.814
 5425W        W73799   1.949  13.844   0.276
 5426W        W73800  26.079   0.743   3.161
 5427W        W73801  37.487  41.503  10.081
 5428W        W73802  15.245  29.147   4.630
 5429W        W73803  34.568  41.472   1.900
 5430W        W73804   0.932  27.504  14.897
 5431W        W73805  14.180  16.173   1.823
 5432W        W73806  18.643  22.020   3.184
 5433W        W73807   5.734  28.039  12.984
 5434W        W73808   0.847   7.876  14.442
 5435W        W73809  26.496  37.519   1.713
 5436W        W73810  21.639   9.867   2.318
 5437W        W73811   7.294  10.748  10.920
 5438W        W73812   3.947  28.526  14.452
 5439W        W73813  30.603  23.536   0.246
 5440W        W73814  24.061   3.757  10.560
 5441W        W73815  24.625  17.637  14.833
 5442W        W73816  28.123  33.572   3.205
 5443W        W73817  13.663   9.285   0.290
 5444W        W73818  32.503  16.143   0.421
 5445W        W73819  39.908   9.166   5.701
 5446W        W73820  20.202   1.890  11.579
 5447W        W73821  29.433  10.138   3.728
 5448W        W73822  17.575   8.310  14.379
 5449W        W73823  39.390  21.758   2.816
 5450W        W73824  14.591  44.312  13.925
 5451W        W73825  26.627  10.234   3.323
 5452W        W73826   7.230  20.719   4.316
 5453W        W73827  11.747   5.403  14.784
 5454W        W73828  31.565  28.460  14.478
 5455W        W73829  30.579  26.495   1.805
 5456W        W73830  43.893  40.377   1.333
 5457W        W73831  18.246  35.998  14.452
 5458W        W73832   2.807   8.231  11.506
 5459W        W73833  23.666  36.387   3.808
 5460W        W73834  12.645  22.579  12.379
 5461W        W73835  27.688  20.551  13.511
 5462W        W73836  43.509  34.110   1.221
 5463W        W73837  35.363  18.063  14.903
 5464W        W73838  37.899  34.872  10.422
 5465W        W73839  42.299  39.967  13.822
 5466W        W73840  19.178   5.724  12.542
 5467W        W73841  26.136  28.182  14.329
 5468W        W73842  32.586  24.228   0.255
 5469W        W73843  32.520  26.595   1.930
 5470W        W73844  42.872  38.057   3.325
 5471W        W73845  30.516  19.121  14.361
 5472W        W73846   8.898  12.192   0.814
 5473W        W73847  36.028  41.940  12.958
 5474W        W73848   2.931  32.888  10.421
 5475W        W73849  29.160  34.953   0.792
 5476W        W73850  22.527  22.202  11.544
 5477W        W73851  44.479  36.383   3.387
 5478W        W73852   6.334  42.496  10.036
 5479W        W73853  14.818  39.018   3.764
 5480W        W73854  14.731  33.084   3.274
 5481W        W73855  32.900   7.804   4.822
 5482W        W73856  30.574  30.559   1.933
 5483W        W73857   1.931   6.772   1.412
 5484W        W73858   5.778  43.416   4.211
 5485W        W73859   6.348  25.145   2.862
 5486W        W73860  22.666  34.449  12.861
 5487W        W73861  32.433  38.050  10.972
 5488W        W73862  31.008  37.912   0.385
 5489W        W73863  14.682  10.829  13.905
 5490W        W73864  17.157  40.857  14.982
 5491W        W73865  41.308  21.063  12.943
 5492W        W73866  40.424  44.981   4.174
 5493W        W73867  43.790   5.699   1.440
 5494W        W73868  33.874  35.591  13.473
 5495W        W73869  15.774  21.521  14.901
 5496W        W73870  14.172  11.294  11.087
 5497W        W73871   7.358   6.188   5.151
 5498W        W73872  25.603  12.687  10.533
 5499W        W73873  28.961  41.832  12.444
 5500W        W73874   1.468  33.600   0.848
 5501W        W73875  44.799  11.316   2.299
 5502W        W73876  29.935  16.810   3.258
 5503W        W73877  11.747  15.191  12.507
 5504W        W73878  38.424  13.633  11.054
 5505W        W73879   5.803  34.084   0.401
 5506W        W73880  16.764  39.031   3.249
 5507W        W73881  28.485   2.349   1.844
 5508W        W73882   4.229  36.394   0.771
 5509W        W73883   5.808  25.182  11.902
 5510W        W73884  34.498  17.132  13.828
 5511W        W73885  34.118   5.867  11.973
 5512W        W73886  35.094  29.519   3.330
 5513W        W73887  27.035  22.505   2.329
 5514W        W73888  21.168   8.888   4.324
 5515W        W73889  19.152   4.761  13.948
 5516W        W73890  17.127  21.514  11.596
 5517W        W73891  32.606   6.307   4.801
 5518W        W73892  12.616  19.553   2.730
 5519W        W73893  15.805   2.940   0.867
 5520W        W73894  12.677  39.518   2.898
 5521W        W73895  23.688   2.448  10.516
 5522W        W73896  42.802   2.282  13.966
 5523W        W73897  13.217   0.480  12.538
 5524W        W73898  19.706  18.068  11.530
 5525W        W73899  24.058  16.245   0.849
 5526W        W73900  28.962   0.286  13.480
 5527W        W73901  10.775  38.992   2.359
 5528W        W73902   8.756  18.296  11.985
 5529W        W73903  26.641  19.696  11.960
 5530W        W73904  15.676  19.587  13.518
 5531W        W73905  21.554  27.105  13.415
 5532W        W73906  20.572   0.822   2.307
 5533W        W73907  37.358  18.257   4.795
 5534W        W73908  12.253  38.504  10.576
 5535W        W73909   7.884  40.999   1.421
 5536W        W73910   2.747  40.321   4.793
 5537W        W73911   9.374  24.633   0.316
 5538W        W73912  40.967   7.237   4.671
 5539W        W73913  41.856  23.179   4.820
 5540W        W73914  34.088  20.653  10.563
 5541W        W73915  19.711   6.295   4.666
 5542W        W73916  37.470  23.159   3.266
 5543W        W73917  10.308  34.042   0.382
 5544W        W73918   9.394  34.004   4.668
 5545W        W73919  36.379   5.778  11.934
 5546W        W73920  43.926  35.542  14.321
 5547W        W73921  17.105  13.235  11.427
 5548W        W73922  35.449  21.024   4.139
 5549W        W73923  39.994  21.032  12.997
 5550W        W73924  30.599  21.679   2.238
 5551W        W73925  11.241  10.722  14.983
 5552W        W73926  35.427  13.193   0.777
 5553W        W73927  22.620  42.450   4.704
 5554W        W73928   7.694  16.618   2.359
 5555W        W73929   7.302  30.915  11.026
 5556W        W73930   6.199  37.357   4.722
 5557W        W73931   4.760  15.625  11.054
 5558W        W73932  41.309  25.714  12.969
 5559W        W73933  36.464  41.538   3.862
 5560W        W73934  36.426  28.659   4.637
 5561W        W73935  43.455  34.039  11.421
 5562W        W73936  17.570   0.957   0.920
 5563W        W73937  22.219  44.365   4.747
 5564W        W73938  17.781  39.896   2.667
 5565W        W73939  42.910  31.535   3.372
 5566W        W73940  13.613  43.861  10.453
 5567W        W73941  35.943  18.774   1.781
 5568W        W73942  26.078  41.387  14.430
 5569W        W73943  23.209  23.621  12.899
 5570W        W73944  29.429  21.604   2.690
 5571W        W73945   7.815  20.067   4.215
 5572W        W73946  28.128  13.622  13.028
 5573W        W73947  28.157  26.961   9.975
 5574W        W73948  20.071  38.433   2.869
 5575W        W73949   4.395  40.530   3.356
 5576W        W73950  18.632   3.271  13.451
 5577W        W73951  20.085  29.959   0.893
 5578W        W73952  35.029  18.285  10.892
 5579W        W73953  26.164  38.410   3.314
 5580W        W73954  38.890  16.204   1.844
 5581W        W73955  40.386  27.677  10.547
 5582W        W73956  36.413  13.272  14.897
 5583W        W73957  32.950   5.316  13.048
 5584W        W73958  26.467   1.302  12.982
 5585W        W73959  33.380   6.380  11.404
 5586W        W73960  44.007  23.523   1.816
 5587W        W73961  40.415  30.082   4.209
 5588W        W73962   8.849   2.255   4.208
 5589W        W73963  30.605  29.926   0.452
 5590W        W73964  10.680   9.859  14.009
 5591W        W73965  19.145  25.591   0.936
 5592W        W73966  27.580  19.684   0.380
 5593W        W73967  40.314  12.181   0.904
 5594W        W73968  20.185  38.049   3.211
 5595W        W73969  31.954  40.324   1.344
 5596W        W73970  29.931  29.021   3.315
 5597W        W73971  10.233   2.946  13.338
 5598W        W73972  21.219   1.954   0.318
 5599W        W73973  33.969  44.434   4.761
 5600W        W73974   5.211  22.643   0.447
 5601W        W73975   1.310  37.492   0.467
 5602W        W73976  16.623  28.647   0.904
 5603W        W73977  44.469  14.105  11.925
 5604W        W73978  28.164   3.870   3.186
 5605W        W73979  25.533  20.703  11.986
 5606W        W73980  39.054  29.950   2.770
 5607W        W73981   6.202  10.735  10.523
 5608W        W73982  28.545  11.234  14.836
 5609W        W73983  10.779  26.130  14.798
 5610W        W73984  18.549  16.170   1.811
 5611W        W73985  36.514   5.372  14.781
 5612W        W73986  43.308  33.064   1.904
 5613W        W73987  16.090   7.259   1.914
 5614W        W73988   3.363   8.842   0.370
 5615W        W73989   0.821  26.173  14.416
 5616W        W73990  31.632  18.558   3.635
 5617W        W73991  29.648  19.151   0.827
 5618W        W73992  43.991  40.863  11.886
 5619W        W73993  36.077  40.996  12.011
 5620W        W73994  18.067  30.005   1.842
 5621W        W73995   0.862  35.955  13.343
 5622W        W73996  41.884  42.886   3.868
 5623W        W73997  41.320  15.653  12.049
 5624W        W73998   6.907  18.767  12.962
 5625W        W73999  42.517  34.888   4.611
 5626W        W74000  41.833   2.889  12.999
 5627W        W74001  11.370   0.857   1.857
 5628W        W74002  35.016  33.537  13.418
 5629W        W74003  13.108  40.859   2.669
 5630W        W74004   3.434   4.317  12.029
 5631W        W74005   2.254  16.735   2.334
 5632W        W74006  37.430  44.490  14.355
 5633W        W74007  28.674  33.940  10.565
 5634W        W74008  14.782  31.058  13.368
 5635W        W74009  44.870  10.769   2.716
 5636W        W74010   1.375  24.155  11.487
 5637W        W74011  24.622  30.648   1.875
 5638W        W74012  30.522   5.232   1.695
 5639W        W74013  14.222   6.902   3.815
 5640W        W74014  27.003  41.483  12.488
 5641W        W74015  28.160  33.009   4.664
 5642W        W74016   7.684  21.582   0.786
 5643W        W74017   2.427  42.925  11.873
 5644W        W74018  23.569  35.891  14.944
 5645W        W74019  28.669  25.006  11.532
 5646W        W74020   3.792   4.840   4.765
 5647W        W74021  17.724  14.155  14.301
 5648W        W74022  21.594  20.146  10.644
 5649W        W74023  42.314   0.763  14.433
 5650W        W74024  11.345  36.062   0.918
 5651W        W74025   7.791   3.724  11.012
 5652W        W74026   0.422   8.799  14.851
 5653W        W74027  20.683  32.122   2.350
 5654W        W74028  12.665  10.143   4.691
 5655W        W74029  25.202  15.710  14.810
 5656W        W74030   1.250  29.431   3.717
 5657W        W74031  22.240  15.288  10.611
 5658W        W74032  38.917  13.163  14.981
 5659W        W74033  27.116  41.029  13.507
 5660W        W74034   3.938  21.512  10.893
 5661W        W74035  16.718  13.643  13.933
 5662W        W74036  16.589  23.004  11.051
 5663W        W74037  17.121  37.934  12.900
 5664W        W74038   0.910  17.239   9.921
 5665W        W74039  15.176  11.688  14.413
 5666W        W74040  14.601  44.820  10.457
 5667W        W74041   5.888  42.789  14.373
 5668W        W74042  11.641  22.708   0.369
 5669W        W74043  26.677  14.762  12.996
 5670W        W74044   3.458  25.024  12.365
 5671W        W74045   2.925  38.819  10.504
 5672W        W74046   0.881  18.680   2.679
 5673W        W74047  36.395  25.966   0.765
 5674W        W74048  43.868  10.720  13.463
 5675W        W74049  25.625   7.884   4.122
 5676W        W74050   1.955   9.150   1.885
 5677W        W74051  38.852  35.953   2.709
 5678W        W74052  23.682  11.231  10.967
 5679W        W74053  37.925  37.964  13.975
 5680W        W74054   7.338   5.853   1.783
 5681W        W74055   3.863  41.335  11.541
 5682W        W74056  21.754   5.886   3.797
 5683W        W74057  11.271  38.491   4.792
 5684W        W74058  23.195  25.093   4.265
 5685W        W74059  24.518  23.617  10.925
 5686W        W74060  34.966  35.031  14.437
 5687W        W74061  24.140  19.562   4.625
 5688W        W74062   9.227  29.480   3.862
 5689W        W74063  17.287  18.771   0.769
 5690W        W74064  14.763  40.050   0.388
 5691W        W74065  32.600  14.162   0.900
 5692W        W74066  19.671   0.379   3.375
 5693W        W74067  15.782   1.887  11.537
 5694W        W74068  38.454  16.224   4.279
 5695W        W74069  22.689  38.343   4.286
 5696W        W74070  33.112   7.338  12.005
 5697W        W74071  37.492  17.185  11.922
 5698W        W74072  36.093  27.532  14.782
 5699W        W74073  27.172  40.362   2.896
 5700W        W74074   0.871  40.026   0.386
 5701W        W74075   4.711   8.161  11.086
 5702W        W74076  14.695  44.919  14.888
 5703W        W74077   4.926  30.553   0.476
 5704W        W74078  42.442  26.640  12.574
 5705W        W74079  36.356  29.545   1.880
 5706W        W74080  35.858  26.684  14.289
 5707W        W74081  19.538  24.184  10.430
 5708W        W74082  41.533   0.972  13.415
 5709W        W74083  12.319  17.653  14.464
 5710W        W74084  31.977  28.537   3.670
 5711W        W74085  40.385  33.954   1.356
 5712W        W74086  10.847  13.309   2.827
 5713W        W74087  39.421  37.490  14.965
 5714W        W74088  41.305   5.900   0.852
 5715W        W74089  41.899   5.853  11.551
 5716W        W74090  30.929   4.763  12.477
 5717W        W74091  43.288  42.463  14.765
 5718W        W74092  35.411  16.153   3.652
 5719W        W74093   2.341  40.305   4.299
 5720W        W74094  40.946  18.745   0.847
 5721W        W74095   9.305  43.011   0.476
 5722W        W74096   3.870  19.664   1.882
 5723W        W74097  44.847  15.125  10.631
 5724W        W74098  43.864  10.840   3.171
 5725W        W74099  14.311  35.873   3.651
 5726W        W74100   6.360  31.028   0.351
 5727W        W74101  35.553   5.395  13.847
 5728W        W74102   9.326  31.516  14.003
 5729W        W74103  13.336   9.849   5.772
 5730W        W74104  42.978   2.383  13.363
 5731W        W74105  13.684   2.877   0.366
 5732W        W74106  19.536   2.827   0.366
 5733W        W74107  33.504  10.318   1.359
 5734W        W74108  23.017   8.673  12.432
 5735W        W74109   4.905  23.521  10.119
 5736W        W74110  24.051  44.984  12.450
 5737W        W74111  22.135  15.304   0.435
 5738W        W74112   3.745  23.017   4.613
 5739W        W74113  15.283   2.856   3.836
 5740W        W74114  38.998  40.009  12.440
 5741W        W74115  41.819   7.752  14.892
 5742W        W74116  44.971  37.527   1.260
 5743W        W74117   7.900   1.829   2.208
 5744W        W74118  17.782   6.242   2.900
 5745W        W74119  20.621  43.379  11.006
 5746W        W74120  27.544  15.581   4.162
 5747W        W74121  39.837  22.585   3.204
 5748W        W74122   5.238  41.344   2.882
 5749W        W74123  27.615  37.516  12.960
 5750W        W74124  40.826  22.076   1.346
 5751W        W74125  25.016  41.484   0.943
 5752W        W74126  42.367  34.397   0.393
 5753W        W74127  14.765  15.129   3.237
 5754W        W74128   3.808  33.923   0.845
 5755W        W74129  22.536  12.852   5.115
 5756W        W74130  27.534  15.698   1.805
 5757W        W74131   3.885  40.022   0.934
 5758W        W74132  23.702  26.128   3.708
 5759W        W74133  41.515   3.286   3.350
 5760W        W74134  15.141  43.853   2.773
 5761W        W74135  32.470  43.849   2.691
 5762W        W74136  21.104  16.702   2.404
 5763W        W74137  16.181  16.672   2.205
 5764W        W74138  17.273  15.264   4.341
 5765W        W74139  28.489  31.957   4.599
 5766W        W74140  27.691  43.383   0.253
 5767W        W74141  40.849   5.366   3.221
 5768W        W74142  34.107  20.196   0.929
 5769W        W74143  13.161  16.299  14.002
 5770W        W74144  21.192  17.287  11.485
 5771W        W74145  22.729   5.810   1.881
 5772W        W74146  27.643  11.177  11.091
 5773W        W74147   9.272   2.925   4.161
 5774W        W74148  36.439  32.998   0.354
 5775W        W74149  29.034  21.723   1.851
 5776W        W74150  43.903  17.208  14.844
 5777W        W74151   0.414  40.418   2.202
 5778W        W74152   9.878  13.666   0.460
 5779W        W74153  40.880  29.616   2.817
 5780W        W74154  20.239  34.420   2.316
 5781W        W74155  24.195  35.577  10.616
 5782W        W74156  38.485  21.634  13.510
 5783W        W74157  42.802  18.662  13.878
 5784W        W74158  30.640   9.647  14.435
 5785W        W74159  24.105  25.574   3.725
 5786W        W74160  35.413  34.528   2.375
 5787W        W74161  37.969   0.384   1.404
 5788W        W74162  19.182   8.770   4.796
 5789W        W74163   5.904   1.300  11.521
 5790W        W74164   0.758   0.404   4.255
 5791W        W74165   0.281  29.628   3.703
 5792W        W74166  27.117   8.252  11.078
 5793W        W74167  19.163  42.411   0.749
 5794W        W74168  44.275   5.202   2.867
 5795W        W74169  35.872  10.151   4.806
 5796W        W74170  37.951  17.562  11.014
 5797W        W74171  14.113  31.444   2.301
 5798W        W74172  12.220  11.252   4.197
 5799W        W74173  39.845   0.783   0.962
 5800W        W74174   5.403  25.056   4.838
 5801W        W74175  35.985  22.012  11.445
 5802W        W74176  38.907  40.459  11.465
 5803W        W74177  26.668  31.101   2.416
 5804W        W74178  14.276   5.815   3.259
 5805W        W74179  31.554  30.912  10.929
 5806W        W74180  17.203  22.168  10.019
 5807W        W74181  36.347  38.860  12.898
 5808W        W74182  25.041  29.459  14.808
 5809W        W74183  40.805   7.234   1.310
 5810W        W74184  12.637  11.154  13.369
 5811W        W74185  23.187  42.289  12.890
 5812W        W74186   1.357   2.310   1.391
 5813W        W74187  26.595  38.823  11.390
 5814W        W74188  24.051  33.607  13.842
 5815W        W74189   5.226   5.420   4.792
 5816W        W74190  31.642  21.077  11.863
 5817W        W74191  20.737  38.892   0.339
 5818W        W74192  27.170  40.352  10.611
 5819W        W74193  14.315   9.208  14.791
 5820W        W74194  44.845  15.805   0.944
 5821W        W74195   6.280  22.716   2.830
 5822W        W74196  16.192  14.668   0.393
 5823W        W74197  10.174   7.215   2.262
 5824W        W74198   5.826  24.668  13.950
 5825W        W74199  31.978  21.058  14.764
 5826W        W74200  42.850   3.256  11.491
 5827W        W74201   5.200  16.709  10.893
 5828W        W74202  25.176  27.652   4.598
 5829W        W74203  32.956  17.081  11.499
 5830W        W74204  41.007  42.991   2.802
 5831W        W74205  29.176  23.667  13.442
 5832W        W74206  44.433  42.434   0.770
 5833W        W74207  40.500  27.686   2.773
 5834W        W74208  44.979   5.321  13.912
 5835W        W74209  11.237  31.957   4.797
 5836W        W74210  37.375   7.326  14.903
 5837W        W74211   7.792  28.005   0.957
 5838W        W74212  39.533  16.279  14.882
 5839W        W74213   7.304  14.621   3.740
 5840W        W74214  12.698  42.031  13.337
 5841W        W74215  11.160  19.563  10.942
 5842W        W74216  38.051  38.556  11.554
 5843W        W74217  36.933  21.672   0.457
 5844W        W74218  28.477  32.470   3.191
 5845W        W74219  31.009  25.101   2.202
 5846W        W74220  27.574  19.697  11.453
 5847W        W74221  31.431   5.347  14.901
 5848W        W74222  34.967  38.482  12.907
 5849W        W74223  24.504  22.602  14.999
 5850W        W74224  42.032   3.754  12.916
 5851W        W74225  33.973  29.625   3.358
 5852W        W74226  18.632  42.011   2.793
 5853W        W74227   3.258  10.643  14.878
 5854W        W74228  24.018   7.286  12.923
 5855W        W74229  29.442  21.543   0.879
 5856W        W74230  28.467  37.970   4.298
 5857W        W74231  17.196  15.228  11.030
 5858W        W74232  16.121   9.816   5.313
 5859W        W74233  17.242   2.738  13.334
 5860W        W74234   4.331  19.724  13.818
 5861W        W74235  41.536  27.575  10.443
 5862W        W74236  37.836  38.888  10.022
 5863W        W74237  41.434  18.745   2.188
 5864W        W74238  23.142  42.349  11.404
 5865W        W74239   1.406  33.991  11.429
 5866W        W74240  14.800  44.943   2.186
 5867W        W74241  11.647  35.000   4.747
 5868W        W74242  33.581  19.217  14.447
 5869W        W74243  10.793  30.425   2.769
 5870W        W74244  37.447  39.042  13.814
 5871W        W74245  18.199  13.287   2.203
 5872W        W74246   6.241  25.986   9.532
 5873W        W74247   6.702  13.154  12.899
 5874W        W74248  28.060  35.010   2.214
 5875W        W74249  24.011  29.166  12.923
 5876W        W74250  42.905  38.354  14.775
 5877W        W74251   6.714  31.624  10.543
 5878W        W74252  21.707  20.157  13.809
 5879W        W74253  30.980  13.206  11.924
 5880W        W74254  11.186  29.586   1.291
 5881W        W74255  10.670  20.153   0.840
 5882W        W74256  19.063   8.248  11.525
 5883W        W74257   2.419   4.929   0.243
 5884W        W74258  19.589   1.379   4.312
 5885W        W74259  25.682  13.170  12.997
 5886W        W74260  14.231  31.119   3.237
 5887W        W74261  23.104  32.394   9.971
 5888W        W74262  34.979  11.166   4.626
 5889W        W74263  25.522  37.007  11.004
 5890W        W74264  28.656  31.514  11.485
 5891W        W74265  12.778  30.019  11.607
 5892W        W74266  23.708  16.810  10.046
 5893W        W74267  15.660  43.379   2.404
 5894W        W74268  15.815   5.257   2.731
 5895W        W74269  44.467  24.507  11.938
 5896W        W74270   5.905  29.531   5.299
 5897W        W74271  31.454  42.498   0.419
 5898W        W74272  15.128   8.772   4.661
 5899W        W74273   4.221  36.979   0.929
 5900W        W74274  27.562  33.893   0.736
 5901W        W74275  39.836  11.848   4.221
 5902W        W74276  10.642  37.567  11.543
 5903W        W74277   0.428  24.478  14.512
 5904W        W74278  22.718  34.064  12.532
 5905W        W74279  44.344   0.779  12.415
 5906W        W74280  23.535  18.631  10.895
 5907W        W74281  26.191  24.686   1.874
 5908W        W74282  12.693  20.760   0.935
 5909W        W74283  20.255   4.271  10.974
 5910W        W74284  18.092  31.992  10.630
 5911W        W74285  30.991  44.769   2.414
 5912W        W74286  31.643   1.426   0.730
 5913W        W74287  23.554   3.443  11.069
 5914W        W74288  19.543  20.263  11.525
 5915W        W74289  40.373  33.935   4.208
 5916W        W74290  43.986   6.838   0.746
 5917W        W74291  20.212   0.764  13.837
 5918W        W74292  41.842  39.450  11.886
 5919W        W74293   8.823  12.669  10.538
 5920W        W74294  44.949  40.361  12.843
 5921W        W74295  15.787  25.492  12.561
 5922W        W74296  20.120  31.078   4.226
 5923W        W74297   0.446  14.740  12.905
 5924W        W74298  40.843  18.116  14.297
 5925W        W74299  26.140  42.015   0.295
 5926W        W74300   9.644  10.690  12.342
 5927W        W74301  44.779  36.064  13.545
 5928W        W74302  16.627  14.150  14.492
 5929W        W74303  44.379  36.391   0.879
 5930W        W74304   7.216  32.619  11.030
 5931W        W74305  42.900  23.202   0.840
 5932W        W74306  16.714   2.307  12.510
 5933W        W74307  13.227   0.941  10.572
 5934W        W74308  22.159  11.160  11.926
 5935W        W74309  20.705   9.152   1.759
 5936W        W74310  33.910  29.543  12.901
 5937W        W74311   0.971  40.930   0.303
 5938W        W74312  35.495  21.246   0.475
 5939W        W74313  37.518  23.014  10.899
 5940W        W74314  18.657  11.184   0.326
 5941W        W74315   0.306   8.372  12.564
 5942W        W74316   7.318   8.801   0.274
 5943W        W74317  31.573  10.804   0.244
 5944W        W74318  11.743  30.468  13.353
 5945W        W74319  44.340  32.916   3.657
 5946W        W74320  40.955   5.918   4.252
 5947W        W74321  28.002  35.893  12.972
 5948W        W74322  26.613  31.091  12.842
 5949W        W74323  32.966  25.997   3.706
 5950W        W74324  13.699   4.941  13.464
 5951W        W74325   1.362  20.186   2.350
 5952W        W74326  21.563  40.907  13.042
 5953W        W74327  16.080   3.368  13.495
 5954W        W74328   2.463  36.060  14.376
 5955W        W74329  10.655  20.537  14.461
 5956W        W74330  24.016   1.457  13.334
 5957W        W74331   5.853  31.568   2.249
 5958W        W74332  30.432  18.743  12.432
 5959W        W74333  28.003  31.025  13.866
 5960W        W74334  39.468  39.954  13.408
 5961W        W74335  21.184  37.545  11.494
 5962W        W74336  16.314  23.518   4.687
 5963W        W74337  38.473  34.889  14.019
 5964W        W74338  22.167  29.014  10.110
 5965W        W74339  11.708   6.323  11.543
 5966W        W74340  42.828  22.013   0.457
 5967W        W74341  25.536   5.427  12.968
 5968W        W74342   0.834   0.962   3.361
 5969W        W74343  37.011  10.310   2.383
 5970W        W74344  37.351  28.937  13.860
 5971W        W74345  37.932  40.452   1.697
 5972W        W74346  29.158  34.908  14.873
 5973W        W74347  10.867  33.877   1.392
 5974W        W74348  18.778   5.431  12.911
 5975W        W74349  12.620  25.575   1.338
 5976W        W74350  17.668  22.222  11.002
 5977W        W74351  29.514  15.178  13.798
 5978W        W74352   6.865  28.961  10.512
 5979W        W74353   9.866  17.155  11.387
 5980W        W74354  24.644  41.343  14.499
 5981W        W74355  21.153  34.539   3.729
 5982W        W74356  14.613  36.845  13.795
 5983W        W74357  14.736  28.118  14.022
 5984W        W74358  35.449  24.193   1.304
 5985W        W74359  17.778   8.757  12.834
 5986W        W74360  37.961  22.693  10.525
 5987W        W74361  34.581  38.839  14.823
 5988W        W74362  33.598  24.591  12.346
 5989W        W74363  24.490  36.568  10.985
 5990W        W74364  25.470   7.209   0.247
 5991W        W74365   6.370  35.874   4.320
 5992W        W74366   4.867  10.335  14.364
 5993W        W74367  26.179  30.957  11.875
 5994W        W74368  42.363  13.732   4.631
 5995W        W74369   2.889  10.221  12.438
 5996W        W74370   1.934  19.259  12.975
 5997W        W74371   2.878  39.891  12.989
 5998W        W74372  41.313  30.915  11.611
 5999W        W74373  29.640  21.725  13.028
 6000W        W74374   4.852  18.663  11.581
 6001W        W74375  41.426  32.497   3.766
 6002W        W74376  25.492  23.663   1.269
 6003W        W74377   9.668  37.550   0.898
 6004W        W74378  23.090  21.205  14.031
 6005W        W74379  24.080   4.755  10.057
 6006W        W74380  38.350   2.720  14.852
 6007W        W74381  40.996  12.163   2.365
 6008W        W74382  15.812   9.346  13.824
 6009W        W74383  11.316  34.610   1.858
 6010W        W74384   8.699  11.827   4.309
 6011W        W74385  14.280  17.702  14.851
 6012W        W74386  22.159  31.984  13.038
 6013W        W74387   2.763   9.783  13.047
 6014W        W74388  34.990  28.060  10.058
 6015W        W74389  27.688  36.377   2.838
 6016W        W74390  20.576  44.351  12.479
 6017W        W74391  19.139  44.443   3.665
 6018W        W74392  29.662  24.507   1.756
 6019W        W74393   4.263   5.272   2.886
 6020W        W74394  18.233  31.587  11.521
 6021W        W74395  24.108  16.128  12.986
 6022W        W74396  15.728  32.588  12.090
 6023W        W74397  18.618  30.597   0.940
 6024W        W74398   7.332  37.057   0.306
 6025W        W74399  37.410  18.129  13.988
 6026W        W74400  17.748  20.688   2.348
 6027W        W74401   2.279  35.403  14.289
 6028W        W74402  13.752  43.002  12.529
 6029W        W74403  35.891   3.408   2.691
 6030W        W74404  27.027  19.045   2.416
 6031W        W74405  35.469   8.362   0.316
 6032W        W74406   8.218  20.699   0.955
 6033W        W74407   4.258  12.186   2.380
 6034W        W74408  41.358  26.551   1.850
 6035W        W74409  37.957  17.269   2.757
 6036W        W74410  15.753  19.220   0.774
 6037W        W74411  20.727  42.867   3.298
 6038W        W74412  30.561  29.576   2.255
 6039W        W74413  12.853  28.980   4.817
 6040W        W74414  21.140  41.920  13.956
 6041W        W74415  10.798  44.861   1.703
 6042W        W74416  31.579  34.061  14.928
 6043W        W74417  11.175  27.008  11.105
 6044W        W74418  12.145  19.189  13.885
 6045W        W74419   4.942  22.559   1.915
 6046W        W74420  18.679  20.669   1.816
 6047W        W74421  24.050  38.345   0.922
 6048W        W74422  30.004  43.809   2.736
 6049W        W74423   5.930  21.072   2.385
 6050W        W74424   8.660   3.411  12.950
 6051W        W74425  15.657  27.008   3.847
 6052W        W74426   0.962  26.630   2.896
 6053W        W74427  40.808  35.360  12.984
 6054W        W74428   9.739   0.742  11.929
 6055W        W74429  40.867  42.407  11.098
 6056W        W74430   8.238  27.583  11.420
 6057W        W74431  19.582   0.880   1.379
 6058W        W74432  23.122  42.903  11.453
 6059W        W74433  41.021  12.717  14.901
 6060W        W74434  18.069   9.325  14.494
 6061W        W74435  25.171  28.035   1.341
 6062W        W74436  31.642  22.248  12.462
 6063W        W74437  14.641  28.507  13.468
 6064W        W74438  42.025  37.024   0.295
 6065W        W74439   0.419  20.085  10.995
 6066W        W74440   4.891  18.628   1.785
 6067W        W74441   2.784  18.118   4.317
 6068W        W74442  38.384   2.339   3.707
 6069W        W74443  12.820  32.604   4.748
 6070W        W74444  17.666  24.145  13.494
 6071W        W74445  29.974   6.765  13.403
 6072W        W74446  18.611  34.886   0.259
 6073W        W74447  30.534  30.488   2.304
 6074W        W74448  34.000  21.218   1.333
 6075W        W74449  41.393  38.354   3.265
 6076W        W74450   7.835  15.233   0.252
 6077W        W74451  44.372  40.851   4.273
 6078W        W74452  16.808  31.566   0.861
 6079W        W74453  13.833  37.914  11.019
 6080W        W74454  15.101  24.701  13.839
 6081W        W74455  36.944  38.379  11.542
 6082W        W74456  22.189  18.571  12.943
 6083W        W74457   0.444  43.871   0.921
 6084W        W74458   0.877  19.185   1.915
 6085W        W74459   5.432  27.999  13.863
 6086W        W74460  20.547  20.072   2.295
 6087W        W74461   0.280  17.114   3.732
 6088W        W74462  10.147   0.828  12.437
 6089W        W74463  36.379   4.755   0.752
 6090W        W74464  44.862  18.180  11.423
 6091W        W74465   7.226  14.658   4.809
 6092W        W74466  36.409  42.803   1.799
 6093W        W74467  19.159  23.074   3.729
 6094W        W74468   6.331  27.614   0.743
 6095W        W74469   2.905  37.898  10.952
 6096W        W74470   8.243  10.260   1.893
 6097W        W74471  23.045  17.250   2.896
 6098W        W74472  12.691   0.343   2.680
 6099W        W74473  15.672   4.303   2.201
 6100W        W74474  36.430  28.594  11.447
 6101W        W74475  42.014   9.286  13.916
 6102W        W74476  15.314  20.066   2.266
 6103W        W74477  18.060   8.761   3.786
 6104W        W74478   0.776  32.908   0.955
 6105W        W74479  21.527  21.702   1.235
 6106W        W74480   6.320  10.848   3.840
 6107W        W74481  28.184  34.110  13.360
 6108W        W74482  23.140  41.895  10.505
 6109W        W74483  30.601   1.943  14.785
 6110W        W74484  42.499  24.520  11.903
 6111W        W74485  37.359  42.333   4.786
 6112W        W74486   8.654  36.877   4.805
 6113W        W74487  40.365  39.483   0.733
 6114W        W74488  22.511  32.526  12.417
 6115W        W74489  28.492   0.796   5.188
 6116W        W74490  41.926   0.985  12.858
 6117W        W74491  15.087   5.711  13.545
 6118W        W74492  28.649  39.480  12.920
 6119W        W74493  18.762  28.979   9.968
 6120W        W74494   6.757   8.791  10.614
 6121W        W74495   4.723  39.827   2.903
 6122W        W74496  18.265  41.983   4.626
 6123W        W74497  18.707  30.994  13.428
 6124W        W74498  36.557  44.868   0.932
 6125W        W74499  32.043  27.143   2.705
 6126W        W74500  30.558   3.371  11.594
 6127W        W74501  39.507  30.063  11.888
 6128W        W74502   0.962  17.648  13.000
 6129W        W74503  35.913  44.836   3.371
 6130W        W74504  23.089  31.902  12.453
 6131W        W74505  25.966  37.917  11.991
 6132W        W74506  42.357  44.477  13.518
 6133W        W74507  38.979  13.342   0.931
 6134W        W74508  34.995  28.548  14.408
 6135W        W74509  37.455  37.538  10.606
 6136W        W74510  28.118  24.605  14.896
 6137W        W74511  22.232  38.881   0.928
 6138W        W74512  15.700  14.723  14.993
 6139W        W74513  31.079  25.168  12.907
 6140W        W74514  35.405  15.137  11.455
 6141W        W74515  40.497   7.294  12.416
 6142W        W74516  21.057   3.743  13.007
 6143W        W74517  28.440  39.411   4.321
 6144W        W74518  27.005  37.348   1.735
 6145W        W74519  30.446   8.766  13.368
 6146W        W74520  18.198  36.545  12.485
 6147W        W74521   1.472  11.769   2.307
 6148W        W74522   4.917   9.777   1.887
 6149W        W74523  17.745  42.987   0.935
 6150W        W74524   9.313  16.679  11.042
 6151W        W74525  21.715  27.048  10.547
 6152W        W74526   4.282  35.861  10.461
 6153W        W74527  14.132  10.285  10.083
 6154W        W74528  28.636   6.843   1.851
 6155W        W74529  29.062  43.506  13.522
 6156W        W74530  23.696  42.959   0.962
 6157W        W74531  40.876  11.731   2.744
 6158W        W74532  28.979  15.603  14.778
 6159W        W74533  23.557  22.548   4.759
 6160W        W74534  41.359  24.544   2.197
 6161W        W74535  44.275  16.743   0.320
 6162W        W74536  14.292   8.301   4.795
 6163W        W74537  42.512  11.315  14.350
 6164W        W74538  33.047  20.241   1.700
 6165W        W74539  33.068  37.434   1.217
 6166W        W74540  27.483  40.946  11.897
 6167W        W74541  15.085   2.787  13.395
 6168W        W74542  28.987  20.237  10.931
 6169W        W74543  38.522  39.324   2.883
 6170W        W74544  26.996   7.331  14.917
 6171W        W74545  27.456  33.113  14.937
 6172W        W74546  23.168  20.145  10.604
 6173W        W74547  21.720  25.104  12.408
 6174W        W74548  12.253   9.724  11.887
 6175W        W74549  16.806  28.164   2.723
 6176W        W74550   5.421  23.530  12.370
 6177W        W74551  19.610  30.928  13.812
 6178W        W74552  38.833  28.008   3.749
 6179W        W74553  23.994  18.188  10.600
 6180W        W74554  18.729   9.645  11.003
 6181W        W74555  33.604  21.235   4.291
 6182W        W74556   8.696  14.809  10.634
 6183W        W74557   6.871  28.567  11.535
 6184W        W74558  34.407   5.735   4.266
 6185W        W74559  33.998  39.915   2.195
 6186W        W74560  21.245  25.609  12.449
 6187W        W74561  35.092  19.715   2.353
 6188W        W74562  24.987  28.046  11.609
 6189W        W74563  40.019   6.283  13.323
 6190W        W74564  37.472  13.635   2.244
 6191W        W74565  27.502  35.503  11.490
 6192W        W74566  23.708  27.478   0.470
 6193W        W74567  41.926  21.632   2.277
 6194W        W74568  27.540  26.074   1.917
 6195W        W74569  19.093  31.632  12.466
 6196W        W74570   4.381  18.581  13.353
 6197W        W74571  39.853  27.048  12.450
 6198W        W74572  12.211  26.638   3.235
 6199W        W74573  38.484  23.060   2.227
 6200W        W74574  24.188  37.428  14.423
 6201W        W74575  16.251   7.838  11.960
 6202W        W74576  39.498   7.372   4.336
 6203W        W74577  35.501  34.429   0.797
 6204W        W74578  20.241  43.775  11.482
 6205W        W74579  42.979   0.457  10.992
 6206W        W74580  24.602  14.766  11.445
 6207W        W74581  17.641  33.879  10.471
 6208W        W74582  30.037   9.348   2.896
 6209W        W74583   1.400  43.892  12.503
 6210W        W74584  43.320  31.596   0.902
 6211W        W74585  25.701  37.922   0.860
 6212W        W74586  40.905   3.400   3.797
 6213W        W74587  40.984  22.710   4.327
 6214W        W74588  41.493  20.090   0.367
 6215W        W74589  31.551  32.481   4.765
 6216W        W74590   4.776  24.080   5.261
 6217W        W74591  13.643  11.623   0.889
 6218W        W74592  18.771   3.329   4.837
 6219W        W74593  13.605  27.448  11.087
 6220W        W74594  17.255  30.066  14.031
 6221W        W74595   6.374  24.557  13.979
 6222W        W74596   1.296  20.261   3.298
 6223W        W74597  25.120  28.002  10.478
 6224W        W74598  13.195  33.989  14.863
 6225W        W74599   4.774   3.336   4.273
 6226W        W74600  10.255  43.497  13.843
 6227W        W74601  23.614  19.047  11.121
 6228W        W74602  27.023  22.580   0.472
 6229W        W74603  36.567   5.327   4.678
 6230W        W74604  19.687  12.171  14.894
 6231W        W74605   5.716  25.087  11.588
 6232W        W74606  43.470  11.855   0.768
 6233W        W74607  34.949  44.812  10.544
 6234W        W74608  17.744   4.701   4.212
 6235W        W74609  14.691  40.393   0.892
 6236W        W74610  18.187   2.379   4.619
 6237W        W74611  31.496  44.430   0.898
 6238W        W74612  43.881  23.208  10.435
 6239W        W74613  24.489  39.335  14.993
 6240W        W74614  33.096  38.044  11.894
 6241W        W74615  18.134   5.351   0.950
 6242W        W74616  14.674  23.645  13.395
 6243W        W74617  43.940   2.319   4.232
 6244W        W74618   6.686  33.894   0.369
 6245W        W74619   4.372   4.858   0.896
 6246W        W74620   7.838  40.458  11.451
 6247W        W74621  43.844  20.763  12.917
 6248W        W74622  31.108  26.075  14.940
 6249W        W74623  25.183  35.094   3.749
 6250W        W74624  26.056  38.925   0.325
 6251W        W74625   6.902  44.004   4.633
 6252W        W74626  16.607   5.933   1.230
 6253W        W74627  25.535  34.888  11.396
 6254W        W74628   6.363  19.202   3.693
 6255W        W74629  20.587  43.803   3.657
 6256W        W74630   8.194  41.386   4.172
 6257W        W74631  37.524  34.479   4.343
 6258W        W74632  38.364  33.924   3.152
 6259W        W74633  18.566  37.554   2.355
 6260W        W74634  28.640  15.582  13.838
 6261W        W74635  31.553  32.099   1.821
 6262W        W74636  15.667  27.506  13.916
 6263W        W74637   1.397  23.074   3.665
 6264W        W74638  28.033  31.009  14.870
 6265W        W74639   5.781  17.745   3.339
 6266W        W74640   1.954   0.472  13.798
 6267W        W74641  15.811   4.863  10.903
 6268W        W74642  26.010   7.685   1.823
 6269W        W74643   3.912  40.375  12.357
 6270W        W74644  33.993   9.276   4.733
 6271W        W74645  19.623  27.635  13.410
 6272W        W74646  26.544  15.740  10.468
 6273W        W74647  23.677   5.792   4.202
 6274W        W74648  10.774  44.882   2.863
 6275W        W74649  24.706   2.769   4.760
 6276W        W74650  37.501  20.751   2.687
 6277W        W74651  38.940  15.234  11.855
 6278W        W74652  25.197  19.618   4.150
 6279W        W74653  28.936   1.750  10.915
 6280W        W74654  15.596  31.528   2.203
 6281W        W74655   7.196   2.413  10.062
 6282W        W74656  44.770  36.517   1.881
 6283W        W74657  23.602   0.461  14.959
 6284W        W74658  43.361  29.477   1.330
 6285W        W74659  38.006  27.967  13.508
 6286W        W74660  19.665  16.695   1.929
 6287W        W74661  24.005  12.317  13.831
 6288W        W74662  42.007  17.170  13.844
 6289W        W74663  24.184  11.825   3.163
 6290W        W74664   8.755  39.335   4.831
 6291W        W74665  21.120   1.454   3.281
 6292W        W74666  37.523   1.360  14.400
 6293W        W74667  14.776  25.586  12.844
 6294W        W74668   6.195   0.889   4.825
 6295W        W74669  27.519  43.285   3.186
 6296W        W74670  17.660  30.105  14.916
 6297W        W74671   7.271  22.676   0.937
 6298W        W74672  33.477  10.852  13.519
 6299W        W74673  18.747  41.311   5.165
 6300W        W74674  37.501  33.511  11.001
 6301W        W74675   0.260   8.202  11.569
 6302W        W74676  13.708  20.096  12.448
 6303W        W74677  37.435  44.977   4.344
 6304W        W74678  15.169  14.709  13.828
 6305W        W74679  19.568  12.740  10.987
 6306W        W74680  28.471  30.995  10.528
 6307W        W74681  33.496  18.121   3.727
 6308W        W74682  10.878  13.317  13.410
 6309W        W74683  36.516  19.117  11.107
 6310W        W74684  31.559  32.486   2.773
 6311W        W74685   6.921  11.861   2.750
 6312W        W74686   9.191   5.395   5.300
 6313W        W74687  31.445  37.947   4.113
 6314W        W74688  25.052   9.828  13.502
 6315W        W74689   1.898  33.551   0.908
 6316W        W74690  29.119  44.497  13.360
 6317W        W74691  10.257   0.394   0.331
 6318W        W74692  44.494  41.906   3.205
 6319W        W74693  20.571   5.274   1.436
 6320W        W74694  37.967   9.349  14.974
 6321W        W74695   4.918   4.912   0.359
 6322W        W74696  14.746   1.457  13.435
 6323W        W74697   3.218  26.050  12.865
 6324W        W74698   4.797   8.353   1.276
 6325W        W74699  12.170   7.230  12.482
 6326W        W74700  20.258  34.547   9.968
 6327W        W74701  17.174  37.069   3.151
 6328W        W74702  36.034  41.495  11.986
 6329W        W74703  22.581  19.074  10.609
 6330W        W74704   9.853  18.233   5.753
 6331W        W74705  16.809  24.030  14.851
 6332W        W74706  12.337  23.626  14.977
 6333W        W74707  16.223   5.784   2.349
 6334W        W74708  38.987  34.557  12.464
 6335W        W74709  13.744  35.550  14.810
 6336W        W74710  11.787  24.018  12.025
 6337W        W74711  41.836  21.563   4.812
 6338W        W74712  39.373  21.222   1.803
 6339W        W74713  43.910  44.458   3.269
 6340W        W74714  18.073  41.530   1.730
 6341W        W74715   2.242   8.217  11.046
 6342W        W74716  10.196  44.414   5.191
 6343W        W74717   8.761  19.584   4.203
 6344W        W74718  17.139   3.732   2.767
 6345W        W74719  28.091   3.778  11.387
 6346W        W74720  36.908  17.796  12.416
 6347W        W74721  34.036  21.637  13.475
 6348W        W74722  14.297   7.788   4.270
 6349W        W74723  33.946  33.541  10.120
 6350W        W74724  24.725  20.261   1.449
 6351W        W74725  21.714  17.728   2.205
 6352W        W74726  42.850  31.896  13.006
 6353W        W74727  35.000  41.468  10.505
 6354W        W74728   6.898  35.016  14.840
 6355W        W74729   9.175  17.633  13.962
 6356W        W74730  43.017   1.841  10.447
 6357W        W74731  18.692  15.618   0.745
 6358W        W74732   5.197  28.458  12.950
 6359W        W74733  23.635  17.091   5.178
 6360W        W74734  12.209  10.842   2.318
 6361W        W74735  15.125  32.065  11.507
 6362W        W74736   2.790  32.475   0.246
 6363W        W74737  40.402  37.418   1.373
 6364W        W74738  16.781  29.543   0.282
 6365W        W74739   8.736  34.403  11.929
 6366W        W74740   2.799  27.190   3.308
 6367W        W74741  28.588  41.000  13.024
 6368W        W74742  31.110   6.849  11.612
 6369W        W74743   1.894  42.989   2.264
 6370W        W74744  23.169  42.794  10.960
 6371W        W74745   1.892  33.545  14.348
 6372W        W74746  23.627  22.606  10.556
 6373W        W74747  30.022  17.230   4.624
 6374W        W74748  14.156   9.374   2.193
 6375W        W74749  32.552  38.457   3.762
 6376W        W74750  40.830  26.509   4.246
 6377W        W74751  14.756  13.135   0.368
 6378W        W74752   8.268  16.760   0.271
 6379W        W74753  11.149  26.098   2.316
 6380W        W74754  26.960   4.867   4.835
 6381W        W74755  11.304   8.900   4.273
 6382W        W74756  28.545   6.784   2.335
 6383W        W74757  21.037  24.505   3.262
 6384W        W74758  31.039  38.471  12.551
 6385W        W74759   8.378   6.371   4.654
 6386W        W74760  11.741  20.255   2.776
 6387W        W74761  15.254   2.800   4.613
 6388W        W74762  13.231   6.328  13.344
 6389W        W74763   3.288  40.438   2.362
 6390W        W74764   1.462  30.993  13.904
 6391W        W74765  19.138  44.871   4.190
 6392W        W74766  36.005  34.571  12.547
 6393W        W74767  42.890  43.482  10.484
 6394W        W74768  39.529   3.868   0.306
 6395W        W74769   9.213  27.679   1.801
 6396W        W74770  43.418  29.040   2.254
 6397W        W74771  37.034   5.891   1.351
 6398W        W74772  40.356  37.014  12.073
 6399W        W74773  29.949  24.650   0.469
 6400W        W74774   5.753  35.460  14.422
 6401W        W74775  27.612  14.705  12.981
 6402W        W74776  39.452   3.362  13.414
 6403W        W74777  32.027  22.689   1.860
 6404W        W74778  36.426  17.648  14.320
 6405W        W74779  12.645  37.918   3.151
 6406W        W74780   3.752  15.143  14.936
 6407W        W74781   9.354  43.835  12.943
 6408W        W74782  20.684  11.772   3.778
 6409W        W74783  18.614   3.737  12.981
 6410W        W74784  12.753  43.926  11.577
 6411W        W74785  24.655  31.505  14.368
 6412W        W74786   4.883  32.610  12.030
 6413W        W74787  43.923  30.939  10.596
 6414W        W74788  26.086  32.475   3.781
 6415W        W74789  14.733  43.988  11.986
 6416W        W74790   3.348  19.751   1.367
 6417W        W74791  26.988  16.094   3.371
 6418W        W74792  23.523  37.387  11.475
 6419W        W74793   5.876  41.888  14.298
 6420W        W74794  26.959  16.188  13.332
 6421W        W74795  31.012  25.518   1.379
 6422W        W74796  20.031  10.268  14.859
 6423W        W74797  27.016  34.538  13.386
 6424W        W74798  16.112   8.821  11.951
 6425W        W74799  23.173   1.415  10.487
 6426W        W74800  41.895   2.461   2.747
 6427W        W74801  33.583  25.644  14.825
 6428W        W74802  13.285  27.574  11.976
 6429W        W74803   4.375  11.835  14.283
 6430W        W74804   9.349  42.453   1.825
 6431W        W74805  12.200   1.812   0.830
 6432W        W74806  27.590  44.450  14.798
 6433W        W74807  11.167  28.523  14.883
 6434W        W74808   8.216  21.512  11.568
 6435W        W74809  12.229  44.385   3.638
 6436W        W74810  18.184  42.483   3.265
 6437W        W74811  44.330  24.160   0.895
 6438W        W74812   3.335  33.575  13.959
 6439W        W74813  28.073  26.130   4.243
 6440W        W74814  21.604   9.311  11.107
 6441W        W74815   5.415  35.052  12.354
 6442W        W74816  18.203  36.401   2.320
 6443W        W74817  21.126  24.574  14.438
 6444W        W74818   1.462  11.350  13.345
 6445W        W74819  35.996  11.792  13.802
 6446W        W74820   7.686  44.443  14.427
 6447W        W74821  36.876  38.852   4.658
 6448W        W74822   7.271  30.958   1.245
 6449W        W74823  30.989  33.623   4.354
 6450W        W74824  19.728  32.418   4.284
 6451W        W74825  30.907   2.952  10.566
 6452W        W74826  16.147  36.849   3.220
 6453W        W74827  39.966  21.231  13.481
 6454W        W74828   9.165  21.201   1.438
 6455W        W74829  13.142  15.824   2.271
 6456W        W74830  24.545  29.637   2.856
 6457W        W74831   4.793  33.470  10.974
 6458W        W74832   1.281  10.683  10.435
 6459W        W74833  38.051  44.984   2.800
 6460W        W74834  23.504  44.774  13.962
 6461W        W74835  19.187  16.317   0.304
 6462W        W74836  42.437  24.126  13.344
 6463W        W74837  28.992  23.225   1.304
 6464W        W74838   9.774  41.360  14.382
 6465W        W74839   0.965  18.274   2.871
 6466W        W74840  20.683  31.981  11.084
 6467W        W74841  31.451  31.992   1.288
 6468W        W74842  41.851   1.340  13.346
 6469W        W74843  13.244   0.394  12.890
 6470W        W74844  41.464   0.802   1.352
 6471W        W74845  32.507  28.526   2.381
 6472W        W74846  12.642  17.183   1.922
 6473W        W74847   2.813  28.134  12.078
 6474W        W74848  30.044  10.632   1.748
 6475W        W74849  38.890  38.440   2.396
 6476W        W74850  28.139  16.763  14.924
 6477W        W74851   3.341  39.468  10.991
 6478W        W74852   7.205  27.159   4.704
 6479W        W74853  30.164  42.406  10.996
 6480W        W74854  11.295   8.303   3.327
 6481W        W74855  20.528   8.402  13.342
 6482W        W74856  41.996  37.490  13.063
 6483W        W74857  20.104  36.921  12.931
 6484W        W74858  31.453   4.326   0.445
 6485W        W74859   7.821  12.149  11.008
 6486W        W74860  29.962  22.532   1.913
 6487W        W74861  19.538  41.944   3.831
 6488W        W74862  21.175  10.186  13.031
 6489W        W74863  26.489   1.872  10.616
 6490W        W74864  22.050   0.283   4.273
 6491W        W74865  23.123  24.011  12.345
 6492W        W74866  41.421  23.540   4.729
 6493W        W74867  14.772  22.501  12.057
 6494W        W74868  28.086  23.214  13.516
 6495W        W74869  28.481   5.378  12.555
 6496W        W74870  38.040  30.984  13.347
 6497W        W74871  39.354  26.047   3.182
 6498W        W74872  41.485   4.211  10.444
 6499W        W74873  17.757  23.630  12.384
 6500W        W74874  35.585  22.537   1.702
 6501W        W74875  25.128  17.755   9.975
 6502W        W74876   7.371  10.860  13.449
 6503W        W74877  43.919  30.615   3.160
 6504W        W74878  13.216   4.210   1.404
 6505W        W74879   7.251  32.892   4.620
 6506W        W74880  37.962  32.570  12.463
 6507W        W74881   2.420  10.703   2.807
 6508W        W74882   9.261   2.337   3.651
 6509W        W74883  25.074  29.080  10.898
 6510W        W74884  41.805  18.663   0.251
 6511W        W74885  39.418   8.670  11.610
 6512W        W74886   7.729  42.921   1.268
 6513W        W74887  44.356  22.732  14.372
 6514W        W74888  37.473   5.794  12.377
 6515W        W74889  12.839  17.661  14.811
 6516W        W74890   0.785  36.935   1.407
 6517W        W74891  17.724   7.696  11.574
 6518W        W74892  43.912  26.589   4.214
 6519W        W74893  24.711  25.159   3.813
 6520W        W74894  24.135  41.810  12.860
 6521W        W74895  24.591   8.675   2.234
 6522W        W74896  27.670  33.624  13.353
 6523W        W74897   7.196  13.646   3.631
 6524W        W74898  20.566  33.499   3.823
 6525W        W74899   6.361  27.163  13.038
 6526W        W74900  21.658   5.918   1.336
 6527W        W74901  14.236  36.069  11.492
 6528W        W74902  19.780  10.334  12.995
 6529W        W74903  41.513  30.522  13.355
 6530W        W74904  23.537  11.184   1.290
 6531W        W74905  14.702  31.137   2.402
 6532W        W74906  44.974   8.273   0.924
 6533W        W74907  23.080  39.908   4.353
 6534W        W74908  24.661  15.196   5.139
 6535W        W74909   8.401   6.185   4.291
 6536W        W74910  24.060   2.230   3.675
 6537W        W74911  13.292  37.867   0.446
 6538W        W74912  32.062   7.869   1.712
 6539W        W74913   2.744  39.337   0.883
 6540W        W74914  19.750   6.399   2.246
 6541W        W74915  42.869  41.834   3.828
 6542W        W74916   7.852  44.984  13.851
 6543W        W74917  30.088  37.974  10.917
 6544W        W74918   5.230   3.849   9.974
 6545W        W74919  41.861  18.739   0.843
 6546W        W74920   1.753  22.683  12.376
 6547W        W74921  27.483  28.106  12.562
 6548W        W74922  22.527  21.703  12.993
 6549W        W74923   8.352  20.564  12.543
 6550W        W74924  42.430  14.694   3.360
 6551W        W74925  26.642  36.847  13.400
 6552W        W74926   8.690  35.946  12.380
 6553W        W74927   3.881  27.484   0.959
 6554W        W74928  17.268  35.537  12.523
 6555W        W74929  36.409  17.564   4.245
 6556W        W74930  43.842  14.727  13.834
 6557W        W74931   8.248  33.949   0.798
 6558W        W74932  32.436  44.866  14.020
 6559W        W74933  44.330  21.233  12.461
 6560W        W74934  27.194   2.258  11.416
 6561W        W74935   7.337  13.742  13.469
 6562W        W74936  39.499  22.248  14.859
 6563W        W74937   4.400  35.949  14.029
 6564W        W74938  10.166  42.877   1.751
 6565W        W74939  31.646  27.146   4.790
 6566W        W74940  41.391  36.058   4.837
 6567W        W74941   4.292  39.030   2.281
 6568W        W74942  21.744  31.578   4.302
 6569W        W74943  34.961  17.709  12.512
 6570W        W74944  25.577   9.324  13.418
 6571W        W74945  14.094  42.397  12.490
 6572W        W74946  36.452  23.535  10.510
 6573W        W74947  10.226  38.410   4.720
 6574W        W74948  36.974  14.289   2.284
 6575W        W74949  33.067  32.599  11.058
 6576W        W74950  44.479   2.913   1.317
 6577W        W74951  35.564  32.627  14.835
 6578W        W74952  43.906  44.438  12.842
 6579W        W74953   7.741  24.209  14.900
 6580W        W74954  10.698  33.919   1.738
 6581W        W74955  42.779  18.214   0.896
 6582W        W74956  27.129  43.797   4.227
 6583W        W74957  13.767  41.397   3.700
 6584W        W74958   5.900  43.017  12.376
 6585W        W74959  39.426  29.012   2.796
 6586W        W74960   0.331  31.119   1.442
 6587W        W74961   1.849  23.550  11.440
 6588W        W74962  36.412  19.142   2.822
 6589W        W74963   3.431  41.822   4.317
 6590W        W74964  37.937  44.497   2.206
 6591W        W74965  29.087  41.966  10.892
 6592W        W74966  25.155   6.268   2.713
 6593W        W74967  30.520  15.116  12.560
 6594W        W74968   4.907  16.569   1.921
 6595W        W74969  20.699  24.211  14.458
 6596W        W74970  15.158  12.230   2.202
 6597W        W74971   5.924  19.089   0.950
 6598W        W74972  30.117   1.366  10.995
 6599W        W74973  15.740  39.373  13.063
 6600W        W74974  17.777  34.893  12.575
 6601W        W74975   3.303  19.161   1.248
 6602W        W74976  41.823  29.075  11.948
 6603W        W74977  27.596  28.152   4.643
 6604W        W74978  28.668   9.776   1.872
 6605W        W74979  33.882   3.919  14.401
 6606W        W74980  27.517  37.833  11.092
 6607W        W74981  18.582  35.888  12.873
 6608W        W74982  27.988  25.502  13.320
 6609W        W74983  27.646   0.279   9.439
 6610W        W74984  32.571  39.845   1.853
 6611W        W74985  40.415  20.540  14.397
 6612W        W74986  21.034  36.891  10.436
 6613W        W74987  33.552   3.441   5.089
 6614W        W74988  32.523  18.226   1.380
 6615W        W74989  40.505   1.880  14.504
 6616W        W74990  26.981   9.375   0.309
 6617W        W74991  17.212  42.787   2.852
 6618W        W74992  42.833  28.966   3.720
 6619W        W74993   4.869  25.472  12.451
 6620W        W74994  11.740  43.896  12.398
 6621W        W74995  12.293   4.449   3.325
 6622W        W74996  26.207  36.403  13.948
 6623W        W74997  35.458  18.693  12.939
 6624W        W74998  41.330  28.051   1.231
 6625W        W74999  34.548   3.935   2.196
 6626W        W75000   6.377  33.028  10.470
 6627W        W75001   3.443  16.130   4.812
 6628W        W75002  15.737  41.003   0.950
 6629W        W75003   1.451  27.951  12.568
 6630W        W75004   2.392  11.626   0.766
 6631W        W75005   0.918  30.996  10.902
 6632W        W75006  16.618  15.093  13.018
 6633W        W75007  32.913  17.562   4.355
 6634W        W75008  25.472  37.387   2.355
 6635W        W75009  41.908  36.883  10.426
 6636W        W75010  17.228  34.924   0.268
 6637W        W75011   9.794  33.502  12.547
 6638W        W75012  39.993   9.890  12.569
 6639W        W75013  40.338   3.378  12.555
 6640W        W75014  39.875  35.076   0.870
 6641W        W75015   6.318  21.103   2.839
 6642W        W75016  43.380  31.151  12.076
 6643W        W75017   7.326  16.807  14.278
 6644W        W75018  10.712  31.143   4.266
 6645W        W75019  26.036  10.706  14.345
 6646W        W75020  37.039  19.745   2.321
 6647W        W75021  33.104   1.381   2.300
 6648W        W75022  17.219  32.431  11.481
 6649W        W75023  44.346  19.742   2.200
 6650W        W75024  18.688  19.219   1.319
 6651W        W75025  11.315  42.391  11.953
 6652W        W75026  22.660  17.637  13.800
 6653W        W75027  35.885  34.534  14.865
 6654W        W75028   7.681  31.523  12.959
 6655W        W75029   6.820  37.052   1.429
 6656W        W75030  36.985  14.178   0.812
 6657W        W75031  38.351  32.557   0.355
 6658W        W75032  33.015  37.975   0.751
 6659W        W75033  11.744  19.699  10.062
 6660W        W75034  35.467  42.335   4.694
 6661W        W75035  32.456   1.833   4.154
 6662W        W75036   2.471  26.697   5.185
 6663W        W75037  18.242  11.654   2.810
 6664W        W75038  15.243   3.357  14.766
 6665W        W75039  30.493  21.128   2.668
 6666W        W75040  42.307  27.458  11.404
 6667W        W75041  10.832   6.300  13.527
 6668W        W75042   6.368  17.800  14.454
 6669W        W75043  30.132  10.311   4.212
 6670W        W75044  30.462  37.087   2.294
 6671W        W75045   0.295   6.384   2.192
 6672W        W75046  29.436   7.401  14.778
 6673W        W75047  39.014  33.084   4.669
 6674W        W75048   7.797  12.198   2.285
 6675W        W75049  14.818  22.648  10.588
 6676W        W75050   6.769  21.543  14.800
 6677W        W75051  15.111  11.338  12.986
 6678W        W75052   6.402  30.035   2.760
 6679W        W75053  28.447  27.115  14.805
 6680W        W75054  14.594  42.907   2.401
 6681W        W75055   3.363  43.930   2.231
 6682W        W75056  40.847  41.488  10.458
 6683W        W75057   7.852   2.887   3.355
 6684W        W75058   3.315  34.569   1.322
 6685W        W75059   5.910   6.359  10.421
 6686W        W75060  18.217  13.248   0.963
 6687W        W75061  17.100  25.521   4.267
 6688W        W75062  35.033  24.527  12.539
 6689W        W75063  39.844  31.559   0.874
 6690W        W75064  35.853  36.992   4.752
 6691W        W75065   1.900  33.030   0.272
 6692W        W75066  23.191   6.798  12.421
 6693W        W75067  38.847  44.919  13.895
 6694W        W75068  43.996   0.466  11.106
 6695W        W75069  15.706  35.021   3.661
 6696W        W75070  39.873   1.386  12.052
 6697W        W75071  25.179  20.636   0.958
 6698W        W75072  15.599  44.888  11.504
 6699W        W75073   0.807  10.205  14.781
 6700W        W75074  26.537   5.701  14.401
 6701W        W75075  35.407  38.454  12.397
 6702W        W75076  17.565  17.658  12.365
 6703W        W75077  42.505   1.436  11.128
 6704W        W75078  11.687  11.341   3.229
 6705W        W75079  19.123  14.202   3.730
 6706W        W75080  25.016   6.365   4.695
 6707W        W75081  16.291   1.281   2.211
 6708W        W75082  36.989   2.759   3.298
 6709W        W75083  37.045   3.276  12.934
 6710W        W75084   9.254   9.357  14.312
 6711W        W75085  37.031  13.196  14.396
 6712W        W75086  11.151  14.335   0.371
 6713W        W75087  41.354   3.746  14.868
 6714W        W75088  13.735  34.611  11.507
 6715W        W75089   3.798  15.084   4.144
 6716W        W75090  17.252  10.852  10.427
 6717W        W75091  17.294  15.719   2.393
 6718W        W75092   2.842  13.710   2.797
 6719W        W75093   0.393  34.372  11.451
 6720W        W75094  18.058  10.712   4.745
 6721W        W75095  17.108  11.348   9.991
 6722W        W75096   5.828   8.287  12.487
 6723W        W75097  43.845   8.856  11.463
 6724W        W75098  40.949   0.410  14.355
 6725W        W75099  26.641   6.899  10.917
 6726W        W75100  34.104  26.199  12.026
 6727W        W75101   2.365  30.128   1.220
 6728W        W75102  10.878  39.985   1.744
 6729W        W75103   1.872  27.077  11.943
 6730W        W75104  30.056  22.112   0.378
 6731W        W75105   6.331  41.836  10.962
 6732W        W75106  33.993  19.706   5.180
 6733W        W75107  14.277  34.557  14.884
 6734W        W75108  31.524  13.177  14.789
 6735W        W75109  28.109  38.421  11.485
 6736W        W75110  42.938  24.561   3.384
 6737W        W75111  12.339  35.890  14.996
 6738W        W75112  43.394  15.780   4.638
 6739W        W75113  12.255  38.039  14.496
 6740W        W75114  26.640  15.608  13.850
 6741W        W75115  33.006  39.955  12.916
 6742W        W75116   9.819  33.473   1.320
 6743W        W75117   8.819   0.434   2.245
 6744W        W75118  41.987  19.662  14.503
 6745W        W75119   5.236  13.336  13.471
 6746W        W75120  24.103  33.116  14.322
 6747W        W75121   6.199  19.198   4.800
 6748W        W75122  17.239  36.512   4.123
 6749W        W75123   2.792  27.546   3.692
 6750W        W75124  39.853   7.243  12.003
 6751W        W75125  37.055  36.902  12.527
 6752W        W75126   5.933  13.799  14.810
 6753W        W75127  15.140  29.120  14.301
 6754W        W75128  26.189  40.971   3.330
 6755W        W75129  30.557  35.903  14.298
 6756W        W75130  26.967  19.138   3.675
 6757W        W75131  33.995  20.247  10.997
 6758W        W75132  21.086  44.952   0.840
 6759W        W75133  39.317  26.067  13.371
 6760W        W75134  35.002  18.179  10.445
 6761W        W75135  38.048  10.226  14.791
 6762W        W75136  27.113  18.181   3.847
 6763W        W75137  30.459  25.556  11.879
 6764W        W75138   0.395  17.130   3.294
 6765W        W75139  26.463  12.717   2.734
 6766W        W75140   7.893   5.338   3.645
 6767W        W75141  36.877  39.032   0.434
 6768W        W75142  25.969  19.719   1.846
 6769W        W75143   6.768  11.364  13.325
 6770W        W75144  38.067  41.898  14.890
 6771W        W75145  26.538  28.957  13.435
 6772W        W75146  11.335  25.065   2.313
 6773W        W75147  31.537  32.445  14.324
 6774W        W75148  34.938  35.439  14.366
 6775W        W75149  14.746  22.685   5.113
 6776W        W75150  28.593  16.731   3.817
 6777W        W75151  15.233  42.392  13.839
 6778W        W75152   6.390  26.610  13.342
 6779W        W75153   6.872   6.213  11.060
 6780W        W75154  23.191  29.998   3.224
 6781W        W75155  11.772  44.865   1.935
 6782W        W75156  15.090  13.262   2.238
 6783W        W75157  26.639   5.235  12.538
 6784W        W75158  42.918  28.058   2.394
 6785W        W75159   3.718  24.497  13.952
 6786W        W75160  30.585  24.663   3.787
 6787W        W75161  28.096  31.429   1.890
 6788W        W75162   7.223  39.022   2.896
 6789W        W75163  16.288  23.220   4.764
 6790W        W75164  33.546  22.088   2.680
 6791W        W75165   9.736   2.927  12.407
 6792W        W75166   5.204  43.975   1.780
 6793W        W75167   1.379  26.960   1.391
 6794W        W75168  13.815  33.090  13.984
 6795W        W75169  44.928  17.151   3.708
 6796W        W75170  33.009  13.345  14.776
 6797W        W75171   6.221  17.293   9.986
 6798W        W75172   2.895  37.488  12.832
 6799W        W75173  21.262  16.581  13.848
 6800W        W75174  32.530  37.951   3.146
 6801W        W75175   9.360   2.817   0.951
 6802W        W75176  44.815  38.908   1.351
 6803W        W75177  32.017  12.258   3.340
 6804W        W75178  21.592  39.880  12.577
 6805W        W75179  31.425  21.221   2.276
 6806W        W75180  41.462  30.456   3.704
 6807W        W75181  11.355   7.193  11.490
 6808W        W75182  22.558  23.216  13.340
 6809W        W75183  21.221  16.658   2.878
 6810W        W75184  31.955  33.589   3.266
 6811W        W75185  40.308  35.069  12.362
 6812W        W75186   3.892   1.371  11.373
 6813W        W75187  25.076   5.760  11.567
 6814W        W75188   8.795   3.321   9.954
 6815W        W75189  20.740  37.875  12.967
 6816W        W75190  11.216   8.796   0.819
 6817W        W75191  43.931  20.571   1.902
 6818W        W75192  14.194  15.797   0.897
 6819W        W75193  12.771   0.322  13.865
 6820W        W75194  35.034  20.102   0.398
 6821W        W75195   6.361  43.001   4.719
 6822W        W75196  20.216  28.585  12.543
 6823W        W75197  28.161   2.264  11.102
 6824W        W75198  11.716  32.567   2.700
 6825W        W75199  11.630  27.047   4.154
 6826W        W75200  31.533   4.364  10.567
 6827W        W75201   6.762  28.140  13.464
 6828W        W75202   5.693  36.046   0.817
 6829W        W75203  11.792  41.853   2.265
 6830W        W75204   8.320  30.622   3.260
 6831W        W75205   4.917  31.564  11.570
 6832W        W75206  10.763  35.050  14.397
 6833W        W75207  16.714  28.612   0.420
 6834W        W75208  10.179   8.699   5.262
 6835W        W75209   2.265  37.542  11.527
 6836W        W75210  38.866  12.258   0.476
 6837W        W75211   9.848   9.659  13.404
 6838W        W75212  19.602  11.757  10.457
 6839W        W75213  38.978  43.985   3.850
 6840W        W75214  33.914  36.564  14.008
 6841W        W75215   6.290  14.778   2.837
 6842W        W75216  13.599   3.765  12.537
 6843W        W75217  15.328  21.582   4.707
 6844W        W75218  10.697  27.103  11.388
 6845W        W75219   7.258  20.243  11.542
 6846W        W75220   8.889  11.133   3.364
 6847W        W75221  23.523   0.312   0.777
 6848W        W75222  21.250  27.053  14.799
 6849W        W75223  20.107  36.470   4.172
 6850W        W75224   0.879  31.434   4.128
 6851W        W75225  13.644  14.615   1.227
 6852W        W75226  14.612  25.062  11.980
 6853W        W75227   3.895  38.074  11.092
 6854W        W75228  17.620  22.726   3.187
 6855W        W75229  44.321  25.563   3.348
 6856W        W75230  37.864   8.692   0.836
 6857W        W75231  30.918   1.746  12.471
 6858W        W75232   6.880  23.002  10.535
 6859W        W75233  32.888  21.576   2.820
 6860W        W75234   3.898  29.576  13.531
 6861W        W75235  35.882  25.128   4.163
 6862W        W75236  35.071  26.604  13.891
 6863W        W75237  40.311  10.301  12.030
 6864W        W75238  43.285  17.207   4.779
 6865W        W75239  23.208  37.369  10.008
 6866W        W75240  34.434  16.579  11.440
 6867W        W75241  38.907  37.077   4.658
 6868W        W75242  39.558  26.547  12.523
 6869W        W75243   0.256  30.586   2.835
 6870W        W75244   7.372  31.968   4.194
 6871W        W75245   7.296  22.516   1.798
 6872W        W75246  29.623  20.164   0.438
 6873W        W75247  17.771  28.097   0.443
 6874W        W75248  39.471  38.426   3.699
 6875W        W75249  12.839   6.281  14.437
 6876W        W75250  16.094  18.582  13.893
 6877W        W75251   3.336  27.624  11.943
 6878W        W75252  18.059  36.385  12.872
 6879W        W75253  41.338  32.486   2.298
 6880W        W75254  44.297  17.598  13.807
 6881W        W75255  17.225  27.515   3.164
 6882W        W75256  10.138  19.701  13.323
 6883W        W75257  16.276  37.077   2.761
 6884W        W75258   8.880  32.085   2.185
 6885W        W75259  13.303   6.377   4.769
 6886W        W75260  28.624   5.247  13.412
 6887W        W75261  16.745  27.554  14.512
 6888W        W75262  35.001  33.973   4.245
 6889W        W75263   0.758  23.075  13.979
 6890W        W75264  19.562  41.387   1.247
 6891W        W75265  21.069   3.733  13.861
 6892W        W75266  40.341  22.085  11.909
 6893W        W75267  23.006   2.815  13.475
 6894W        W75268  35.983  40.973  10.616
 6895W        W75269  43.355  41.486  13.051
 6896W        W75270  27.674  33.623  12.083
 6897W        W75271  17.591  11.624  11.461
 6898W        W75272  16.783  21.122   1.428
 6899W        W75273  31.913  11.356   9.992
 6900W        W75274   0.256   4.709  13.791
 6901W        W75275  23.053  13.320  11.112
 6902W        W75276  44.448  43.923   1.880
 6903W        W75277  41.876  20.648   4.293
 6904W        W75278  18.294  26.203   3.171
 6905W        W75279  40.923  40.387  13.928
 6906W        W75280  20.220   3.434  13.542
 6907W        W75281  31.916  21.757   3.840
 6908W        W75282  10.364  14.778  12.995
 6909W        W75283   1.967  21.695   2.294
 6910W        W75284  10.799  42.505   3.648
 6911W        W75285  43.450  26.510  11.561
 6912W        W75286   7.848  33.124   4.234
 6913W        W75287   9.678  13.767   1.922
 6914W        W75288  11.683  12.629  10.978
 6915W        W75289  22.703  18.736  13.455
 6916W        W75290  12.784  26.129   0.916
 6917W        W75291  20.719  25.128  14.320
 6918W        W75292  36.539   4.217  12.085
 6919W        W75293  39.500  28.181  13.916
 6920W        W75294   9.361   5.306   2.374
 6921W        W75295  37.060  42.487  14.014
 6922W        W75296   3.304  19.689   4.279
 6923W        W75297   6.833  39.408  14.025
 6924W        W75298  41.988  14.278  10.993
 6925W        W75299  34.970  10.145  12.351
 6926W        W75300  18.646  15.174  14.768
 6927W        W75301   6.739  12.156  11.122
 6928W        W75302   7.361   7.190   0.301
 6929W        W75303  26.158  35.381   2.825
 6930W        W75304  25.636  23.527   4.749
 6931W        W75305  13.688   1.875   2.875
 6932W        W75306  42.403  39.856   4.340
 6933W        W75307   3.767  41.410   2.895
 6934W        W75308  28.178  30.653  14.860
 6935W        W75309  21.073  29.598   2.739
 6936W        W75310  23.555  43.920  10.480
 6937W        W75311   8.172  15.817   4.831
 6938W        W75312   2.429  26.533  12.431
 6939W        W75313  15.588  40.943  14.824
 6940W        W75314   5.785  33.946   2.711
 6941W        W75315  26.124   5.925   3.666
 6942W        W75316  35.488  32.448  13.981
 6943W        W75317  15.679   3.712  13.957
 6944W        W75318  16.104  39.827   1.925
 6945W        W75319   1.792   3.937   2.897
 6946W        W75320  27.990  25.489   1.371
 6947W        W75321  34.032   2.317   3.315
 6948W        W75322   3.327   9.259  11.562
 6949W        W75323  37.981  27.086   4.219
 6950W        W75324   6.197   8.745   5.205
 6951W        W75325  17.122  22.141   2.831
 6952W        W75326   7.318  43.867   3.199
 6953W        W75327  29.161  30.466  11.542
 6954W        W75328  12.639   8.877  11.894
 6955W        W75329  42.340  35.106  12.947
 6956W        W75330  12.226  31.436   2.312
 6957W        W75331  23.157  33.052   4.241
 6958W        W75332  22.150  28.661   4.216
 6959W        W75333  33.906  32.036  10.917
 6960W        W75334  23.240  35.369  13.999
 6961W        W75335  33.562  28.467  10.960
 6962W        W75336  23.224   1.266   0.344
 6963W        W75337  27.978  17.168   2.378
 6964W        W75338  30.432   2.937  10.910
 6965W        W75339  10.638  22.175  12.362
 6966W        W75340  28.145  26.640   5.235
 6967W        W75341  13.811  29.926   4.668
 6968W        W75342  27.125  35.991   3.279
 6969W        W75343  33.999   9.216  14.345
 6970W        W75344   5.932  27.988   0.811
 6971W        W75345  13.294  24.493   2.797
 6972W        W75346  42.338   3.240  14.285
 6973W        W75347  43.490  25.690   0.330
 6974W        W75348  18.078  30.434   4.352
 6975W        W75349  25.104  34.927  10.580
 6976W        W75350   3.308   2.326   4.282
 6977W        W75351   1.838  39.025   2.201
 6978W        W75352  42.297  11.188   0.835
 6979W        W75353  42.451  40.519  11.933
 6980W        W75354  21.044  28.634   2.291
 6981W        W75355  13.726  25.523  14.862
 6982W        W75356   4.716  31.471   2.211
 6983W        W75357   9.193  34.387   0.386
 6984W        W75358   1.923   8.890  10.447
 6985W        W75359  17.756  31.580  12.080
 6986W        W75360  40.022  16.143  11.594
 6987W        W75361  17.270  41.958  10.632
 6988W        W75362  34.029  41.385  14.827
 6989W        W75363  36.421  11.265  12.448
 6990W        W75364   9.207  13.715  10.912
 6991W        W75365  34.095  21.554  14.362
 6992W        W75366  39.956   2.420  12.477
 6993W        W75367   4.821   3.327   1.750
 6994W        W75368  24.046  23.214  11.451
 6995W        W75369  16.198   7.846   1.379
 6996W        W75370  28.626  30.073   4.232
 6997W        W75371  33.502  16.704   5.094
 6998W        W75372   4.700  18.254  10.597
 6999W        W75373   5.365  13.749   2.850
 7000W        W75374  34.047  38.985   1.417
 7001W        W75375  15.290  19.743  11.969
 7002W        W75376  10.878   4.304   3.356
 7003W        W75377  43.272  15.651  11.408
 7004W        W75378  36.570  44.276   2.714
 7005W        W75379  38.388  28.530  14.515
 7006W        W75380  12.803  28.162  10.598
 7007W        W75381   1.275   2.949  11.047
 7008W        W75382  12.630  35.889  14.025
 7009W        W75383  37.412  42.003  10.483
 7010W        W75384  18.291  12.320   3.274
 7011W        W75385  27.496   4.219   3.217
 7012W        W75386  25.712  37.935   4.750
 7013W        W75387  11.140  35.591  11.083
 7014W        W75388  33.002   6.367   2.725
 7015W        W75389  17.175  16.724   4.679
 7016W        W75390   6.714  39.528  12.383
 7017W        W75391   0.748   2.253   3.717
 7018W        W75392  30.525   2.806  12.086
 7019W        W75393  31.979  14.173  14.943
 7020W        W75394  19.202  20.087   3.375
 7021W        W75395   3.870   3.871   4.796
 7022W        W75396  21.565  36.575  11.959
 7023W        W75397   8.679  17.716   3.671
 7024W        W75398  28.449  27.072   2.280
 7025W        W75399  19.634  23.055   0.282
 7026W        W75400  33.978  10.269  14.362
 7027W        W75401  40.012  30.587   1.417
 7028W        W75402   1.269  37.397   1.699
 7029W        W75403  38.479  26.080   3.706
 7030W        W75404  25.215  13.845   1.908
 7031W        W75405  20.139   7.892  14.355
 7032W        W75406  31.930  31.547   2.211
 7033W        W75407   8.212  19.616   4.724
 7034W        W75408  24.503  27.607  10.440
 7035W        W75409  44.267  12.648   3.719
 7036W        W75410  22.727  18.128  13.471
 7037W        W75411   3.930  23.147   2.381
 7038W        W75412  16.737  38.371  13.030
 7039W        W75413  32.570  43.506  14.490
 7040W        W75414  39.328  16.692   1.766
 7041W        W75415  10.174   4.388  14.865
 7042W        W75416   5.712  43.938  13.838
 7043W        W75417  35.072  41.934  12.924
 7044W        W75418  28.490  24.485  10.976
 7045W        W75419   8.359   0.300  13.415
 7046W        W75420  37.407  23.576  10.989
 7047W        W75421   5.826  12.326   1.696
 7048W        W75422  34.959  16.267   3.158
 7049W        W75423  38.562  13.830   4.768
 7050W        W75424  30.156   7.904  10.947
 7051W        W75425  39.852  10.352   4.338
 7052W        W75426  26.460  35.955   3.297
 7053W        W75427   9.204   1.392  11.474
 7054W        W75428  20.524  25.581  11.457
 7055W        W75429  40.873  42.873  10.574
 7056W        W75430  30.008  31.565  12.451
 7057W        W75431  21.547  40.310  13.338
 7058W        W75432  42.015  31.057  12.933
 7059W        W75433   6.767  34.596  14.996
 7060W        W75434  32.606  15.084   2.416
 7061W        W75435  44.777  25.097  12.856
 7062W        W75436  39.425   9.821  13.938
 7063W        W75437  39.408  36.008  13.885
 7064W        W75438  17.755  18.574   0.480
 7065W        W75439   4.418  32.407  14.383
 7066W        W75440  43.937  22.549  13.991
 7067W        W75441  34.990  31.122  12.381
 7068W        W75442  20.061  13.717   4.598
 7069W        W75443   3.903  27.045  10.956
 7070W        W75444  22.080  29.080  11.610
 7071W        W75445  18.151  18.763  14.025
 7072W        W75446  33.033   7.414  10.549
 7073W        W75447  40.013  25.683   2.760
 7074W        W75448  37.964  11.240   4.308
 7075W        W75449  27.079  44.423   0.328
 7076W        W75450  35.486  23.164  14.026
 7077W        W75451  26.487  43.773  12.888
 7078W        W75452   4.818  15.809  12.031
 7079W        W75453  14.797  31.622  11.457
 7080W        W75454  30.989  44.881   4.717
 7081W        W75455  12.116  31.483  12.556
 7082W        W75456  10.273   3.295   0.385
 7083W        W75457  18.683  25.137   4.838
 7084W        W75458   6.201  17.630  13.839
 7085W        W75459  18.762   0.368   2.414
 7086W        W75460   7.303  44.406  13.417
 7087W        W75461   8.778  10.274   5.292
 7088W        W75462  11.651  33.554  11.039
 7089W        W75463  21.700  32.913  14.407
 7090W        W75464  12.362  15.136  10.975
 7091W        W75465  39.963  13.250  10.928
 7092W        W75466  44.837  17.245  11.927
 7093W        W75467  16.603  19.102  12.082
 7094W        W75468  17.271  18.587   4.172
 7095W        W75469  34.504  21.609  11.404
 7096W        W75470  18.780  14.313  12.424
 7097W        W75471   1.898  13.646   1.912
 7098W        W75472  14.147  23.632  12.580
 7099W        W75473  43.439   1.910   3.758
 7100W        W75474  17.131   2.903   2.369
 7101W        W75475  16.091  40.976   3.376
 7102W        W75476   3.239  19.284  11.031
 7103W        W75477  36.587   6.183  11.876
 7104W        W75478  19.743  33.614  14.953
 7105W        W75479  13.238  43.811   4.318
 7106W        W75480  13.821  28.154   4.680
 7107W        W75481  13.667  39.449   0.333
 7108W        W75482  19.720   8.873  11.947
 7109W        W75483  43.432   3.443  11.998
 7110W        W75484  21.567  24.526   1.726
 7111W        W75485  30.086  42.888  10.912
 7112W        W75486  17.709  19.240   1.441
 7113W        W75487   8.895  16.283  10.604
 7114W        W75488  12.171  37.018  14.925
 7115W        W75489  20.639  11.852   0.447
 7116W        W75490  32.510  25.037   3.766
 7117W        W75491  37.086  33.091  13.018
 7118W        W75492   7.330  28.513  14.371
 7119W        W75493  17.695   2.870  12.534
 7120W        W75494  34.570  42.920  10.480
 7121W        W75495  36.406  16.117  13.321
 7122W        W75496   8.200  32.478   3.261
 7123W        W75497   8.824  40.053  13.411
 7124W        W75498  42.784  37.916  14.879
 7125W        W75499  33.050  19.567   4.819
 7126W        W75500   4.285  15.097   3.751
 7127W        W75501  10.242  44.373  14.770
 7128W        W75502  40.315  16.306  10.551
 7129W        W75503  24.698  25.127   1.805
 7130W        W75504   8.685  28.631  11.095
 7131W        W75505  20.189  19.171  11.116
 7132W        W75506  29.140  43.015  14.823
 7133W        W75507   7.837  42.816   2.768
 7134W        W75508   2.329  40.304   0.866
 7135W        W75509  22.069   1.808   1.270
 7136W        W75510  29.058   2.917   0.940
 7137W        W75511  21.217   4.879  11.048
 7138W        W75512   7.728   2.903   9.959
 7139W        W75513  43.374  44.909   3.781
 7140W        W75514   1.359   7.833  13.543
 7141W        W75515  27.490   3.324   2.376
 7142W        W75516  37.538   2.914   0.378
 7143W        W75517   9.369  31.474  11.984
 7144W        W75518  21.706  19.250   4.353
 7145W        W75519   5.882  30.446   2.769
 7146W        W75520  34.935  13.229  10.906
 7147W        W75521  19.184  26.139  12.066
 7148W        W75522  22.014  18.637   1.215
 7149W        W75523   2.927  36.914   3.235
 7150W        W75524  37.381  30.105   4.754
 7151W        W75525  19.284  40.033   2.703
 7152W        W75526   5.207  32.571   3.738
 7153W        W75527   3.907  15.704   2.826
 7154W        W75528  27.563   4.702  10.509
 7155W        W75529  36.862   4.443   2.866
 7156W        W75530   3.253  39.527   3.644
 7157W        W75531   8.171  16.651   0.855
 7158W        W75532  36.407  24.509  10.904
 7159W        W75533  23.183  11.794  12.868
 7160W        W75534   5.746  22.649   2.693
 7161W        W75535   0.476  29.106   2.360
 7162W        W75536   7.819  26.654   5.083
 7163W        W75537  19.717  40.011  12.420
 7164W        W75538  11.729  30.926   4.767
 7165W        W75539  36.496  15.721   0.843
 7166W        W75540  39.520  40.315   0.375
 7167W        W75541  32.003   3.725   2.291
 7168W        W75542   2.413  30.018  14.304
 7169W        W75543   8.812  22.183   0.327
 7170W        W75544   2.813  15.151   2.297
 7171W        W75545   5.786   7.202  14.960
 7172W        W75546  21.675  27.956  12.966
 7173W        W75547   4.703  15.775  10.512
 7174W        W75548  42.996  26.474  13.016
 7175W        W75549  35.373  15.592  14.927
 7176W        W75550  21.656  31.634  10.552
 7177W        W75551   9.788  41.920   4.275
 7178W        W75552  23.001   9.279   1.738
 7179W        W75553  38.998  43.843  11.491
 7180W        W75554  36.377  12.330   3.382
 7181W        W75555  21.150  44.972   3.804
 7182W        W75556   5.268  31.105   2.201
 7183W        W75557  18.214   4.880   1.211
 7184W        W75558  44.968  38.028  11.870
 7185W        W75559   0.801  26.980   0.427
 7186W        W75560   4.436  38.039  10.900
 7187W        W75561  35.078   6.763  13.915
 7188W        W75562  25.546   6.228  11.567
 7189W        W75563  28.500  40.348   1.772
 7190W        W75564   3.806  43.974  11.606
 7191W        W75565  29.919   6.375  14.789
 7192W        W75566  34.954  12.702  10.472
 7193W        W75567  29.924   9.651  12.881
 7194W        W75568  13.811  32.932  11.467
 7195W        W75569   5.901  29.495  12.854
 7196W        W75570  10.773  20.223   1.445
 7197W        W75571  22.539  22.690  14.394
 7198W        W75572  38.039   6.762  11.861
 7199W        W75573  40.469  11.800  14.450
 7200W        W75574  30.509  19.231  13.965
 7201W        W75575  15.160   2.955  12.909
 7202W        W75576   9.782  24.160   2.727
 7203W        W75577  22.135  23.698   4.240
 7204W        W75578  15.243  33.917  13.813
 7205W        W75579  31.473   5.231  12.824
 7206W        W75580  11.847  31.118  14.414
 7207W        W75581  13.317   1.276   0.429
 7208W        W75582  37.059  30.586  11.489
 7209W        W75583  42.798  37.871   3.740
 7210W        W75584  31.097  16.129  14.292
 7211W        W75585  12.682  40.880  14.276
 7212W        W75586  42.305  24.187  12.018
 7213W        W75587   8.280  34.411  14.423
 7214W        W75588   6.423  12.346   3.342
 7215W        W75589  13.301  19.726  13.869
 7216W        W75590  20.740   8.211  14.002
 7217W        W75591  28.614  14.239   2.314
 7218W        W75592  17.284   5.853   2.237
 7219W        W75593  34.889   5.299  12.093
 7220W        W75594  21.583  32.570   0.956
 7221W        W75595  37.037  11.325  10.515
 7222W        W75596  26.178  40.520   4.748
 7223W        W75597  24.164  13.612  11.977
 7224W        W75598  40.382   7.853  10.147
 7225W        W75599  42.943  37.835   4.716
 7226W        W75600  35.081  35.960   1.331
 7227W        W75601  25.182   3.906   4.622
 7228W        W75602  32.084  24.720  12.521
 7229W        W75603  11.258  36.037   2.184
 7230W        W75604  27.996   4.349  13.356
 7231W        W75605   1.760  40.034  10.569
 7232W        W75606  28.053  39.973   4.183
 7233W        W75607  20.217   5.764   1.363
 7234W        W75608  10.856  21.192  10.606
 7235W        W75609  18.672  21.684  13.846
 7236W        W75610  25.616  19.202   1.748
 7237W        W75611   4.818  35.888  11.384
 7238W        W75612   4.351  36.506  14.303
 7239W        W75613  15.646  42.981   2.815
 7240W        W75614  36.491   4.252   1.326
 7241W        W75615  41.023  33.551  10.498
 7242W        W75616  42.289  32.560  12.022
 7243W        W75617  40.985  26.063  11.990
 7244W        W75618  41.514  13.321   0.371
 7245W        W75619   1.740  28.544   1.771
 7246W        W75620  18.212   4.225  10.506
 7247W        W75621   5.315  39.015  13.328
 7248W        W75622  34.569  31.478  13.827
 7249W        W75623  26.488  40.523   3.328
 7250W        W75624  33.571  16.626  12.060
 7251W        W75625  20.172  18.664  14.927
 7252W        W75626  11.200  31.488  11.397
 7253W        W75627  30.917  20.617   3.842
 7254W        W75628   2.744  30.582  14.863
 7255W        W75629   6.850  34.959  12.908
 7256W        W75630  33.899  32.540   2.855
 7257W        W75631   3.895  36.874   0.320
 7258W        W75632  10.234  18.289  13.951
 7259W        W75633  30.067  37.832   3.378
 7260W        W75634   5.836   5.388   1.319
 7261W        W75635   2.287  17.633   0.243
 7262W        W75636  27.982  42.999   3.771
 7263W        W75637   6.911   4.744   2.729
 7264W        W75638  39.918  25.002  10.918
 7265W        W75639  40.975  25.523   0.846
 7266W        W75640   7.740  25.184  13.906
 7267W        W75641  32.470  23.061   2.682
 7268W        W75642   9.884   8.825   4.706
 7269W        W75643  10.194   0.941  13.317
 7270W        W75644  29.473  20.764  12.050
 7271W        W75645  34.602   9.241  12.479
 7272W        W75646  43.839   9.657  10.429
 7273W        W75647  34.524  11.735  14.942
 7274W        W75648   1.914   6.844  14.894
 7275W        W75649  20.266  10.756  13.533
 7276W        W75650  35.965  20.541  11.919
 7277W        W75651  41.918  14.648  12.902
 7278W        W75652  35.476  18.089   0.286
 7279W        W75653  29.095  35.580  12.561
 7280W        W75654  41.883   6.409  14.354
 7281W        W75655   6.425  32.049   4.613
 7282W        W75656  28.023  36.887  13.999
 7283W        W75657  20.746   8.795   3.156
 7284W        W75658  30.075  28.477  11.398
 7285W        W75659  28.528  44.855  13.437
 7286W        W75660  19.561  13.669  11.425
 7287W        W75661   8.672   8.786  14.002
 7288W        W75662   3.445  28.529   3.726
 7289W        W75663   8.266   5.873   0.443
 7290W        W75664  16.802  35.532   0.288
 7291W        W75665  31.103  19.599  11.125
 7292W        W75666  43.016  12.797  10.908
 7293W        W75667  16.103  23.577   1.866
 7294W        W75668  21.730  27.548   4.171
 7295W        W75669  25.682   1.834  14.417
 7296W        W75670  40.476   0.942  12.992
 7297W        W75671  10.169   6.909  11.933
 7298W        W75672  37.069  13.663  11.950
 7299W        W75673   1.880  36.480   0.444
 7300W        W75674  39.337   7.724   3.251
 7301W        W75675  10.142  35.908  13.925
 7302W        W75676  38.887  37.341   4.143
 7303W        W75677   8.293  27.983   4.644
 7304W        W75678  34.535   7.247  12.560
 7305W        W75679  33.053  38.444  13.006
 7306W        W75680  31.953   5.804   0.271
 7307W        W75681  28.466  23.621   4.676
 7308W        W75682  10.684  34.083  12.894
 7309W        W75683  24.106  22.245  11.057
 7310W        W75684  23.636  18.636   1.291
 7311W        W75685  24.131   7.800   0.280
 7312W        W75686  27.495  32.107  13.503
 7313W        W75687   7.839  18.721   5.173
 7314W        W75688  14.720  21.610   4.836
 7315W        W75689  41.984  29.000  10.611
 7316W        W75690  26.105  40.538   2.354
 7317W        W75691   8.308  26.643   0.303
 7318W        W75692  39.559  27.178   1.695
 7319W        W75693  37.083  41.793  12.983
 7320W        W75694  20.086   6.747  14.403
 7321W        W75695  38.910  32.916  13.376
 7322W        W75696  13.210   8.289   1.753
 7323W        W75697  20.641  18.606   4.126
 7324W        W75698  38.824  38.940   2.750
 7325W        W75699  15.193  20.057   3.760
 7326W        W75700  31.423   7.293   3.278
 7327W        W75701  29.061   0.451  12.991
 7328W        W75702   6.410  24.501  13.403
 7329W        W75703  13.707  34.389   3.310
 7330W        W75704   7.389  30.150  14.335
 7331W        W75705  33.087  27.984   1.919
 7332W        W75706  11.654  25.042   1.909
 7333W        W75707  11.188  11.843   1.830
 7334W        W75708  41.896  21.177   0.256
 7335W        W75709   8.213  37.026   2.739
 7336W        W75710   6.199  11.855  13.797
 7337W        W75711  33.587  41.484  14.774
 7338W        W75712  28.128  16.623  10.075
 7339W        W75713  27.042   1.255  12.833
 7340W        W75714  13.347   4.794  13.829
 7341W        W75715  34.916  31.905   1.332
 7342W        W75716  40.310  32.536   3.147
 7343W        W75717  37.083  17.556   1.830
 7344W        W75718  10.661  14.232  11.905
 7345W        W75719  10.215  41.032   2.322
 7346W        W75720  23.684   8.217  11.027
 7347W        W75721  28.482  44.291   2.777
 7348W        W75722  38.853  12.141  12.427
 7349W        W75723  41.923  35.475   2.187
 7350W        W75724  34.039  29.507  12.459
 7351W        W75725  35.926   8.225  13.940
 7352W        W75726  44.823  31.451  10.572
 7353W        W75727  26.624  22.563   3.295
 7354W        W75728  14.661  11.335  13.057
 7355W        W75729  31.975  40.962   4.801
 7356W        W75730  28.163  38.953  10.991
 7357W        W75731  30.038  17.720  12.882
 7358W        W75732   4.806  25.512   2.742
 7359W        W75733   0.802  38.984  10.895
 7360W        W75734  41.945  26.110   4.704
 7361W        W75735  43.495   2.330  13.009
 7362W        W75736  28.142  41.429  14.412
 7363W        W75737  41.828  29.528   4.154
 7364W        W75738  42.995  37.572  14.277
 7365W        W75739  40.968  43.994  12.872
 7366W        W75740   8.856  27.011   0.844
 7367W        W75741  26.625   5.339  13.382
 7368W        W75742  28.966  37.866   3.193
 7369W        W75743  24.642   3.239  14.285
 7370W        W75744  35.108  18.296   2.285
 7371W        W75745  24.613  13.213  14.324
 7372W        W75746  36.495  37.538  13.421
 7373W        W75747  15.174  40.856   1.449
 7374W        W75748   1.372  32.062   3.745
 7375W        W75749  13.320  25.667   3.840
 7376W        W75750   1.414  29.976   1.917
 7377W        W75751  10.678  10.692  11.547
 7378W        W75752   7.768  41.415  14.287
 7379W        W75753  18.581  20.247  12.096
 7380W        W75754   5.267  40.037   1.311
 7381W        W75755  28.146   4.239   1.342
 7382W        W75756  42.970  10.141   1.769
 7383W        W75757  18.627  13.243  13.471
 7384W        W75758  14.700  10.216   1.448
 7385W        W75759   6.879   1.931  13.368
 7386W        W75760  34.873  39.523   1.412
 7387W        W75761  11.673   9.804  11.548
 7388W        W75762  24.104  24.061  12.343
 7389W        W75763  17.115   4.245  10.484
 7390W        W75764  36.464   2.925  11.968
 7391W        W75765   2.439  40.021   5.244
 7392W        W75766  25.651   0.271   1.902
 7393W        W75767   9.220  15.630  14.988
 7394W        W75768  43.008  16.749  14.319
 7395W        W75769  24.155  22.134   3.343
 7396W        W75770  15.751   3.276  11.421
 7397W        W75771  38.826  25.182  11.881
 7398W        W75772   9.242  33.917  13.385
 7399W        W75773  34.037  13.160   0.283
 7400W        W75774  29.660   2.307   3.731
 7401W        W75775  34.601  23.692   4.285
 7402W        W75776  39.048  12.846  12.502
 7403W        W75777  18.646  36.850  11.488
 7404W        W75778  43.787  15.264   3.221
 7405W        W75779  35.549   6.863  12.566
 7406W        W75780  44.350   2.404   0.800
 7407W        W75781  33.467  30.118  14.461
 7408W        W75782  10.371   3.783  10.414
 7409W        W75783  42.911  28.489   3.637
 7410W        W75784  35.034   6.367   3.865
 7411W        W75785  19.118  41.455   2.301
 7412W        W75786  18.714   4.442  13.523
 7413W        W75787  28.941  21.724  12.020
 7414W        W75788   7.665  24.626  10.464
 7415W        W75789  36.045  19.585  14.509
 7416W        W75790  27.521  44.410   3.853
 7417W        W75791  23.593  40.316   3.362
 7418W        W75792  24.011  19.255   1.391
 7419W        W75793  11.783  25.050  13.463
 7420W        W75794  29.991  11.697  14.468
 7421W        W75795  23.687  39.381  14.426
 7422W        W75796  30.107  13.788   0.244
 7423W        W75797  34.455  42.010   2.228
 7424W        W75798  43.428   7.885  13.987
 7425W        W75799  30.535  36.921   0.343
 7426W        W75800  14.811   1.237   0.775
 7427W        W75801  42.427  27.087  12.356
 7428W        W75802  26.133   1.741   3.324
 7429W        W75803  23.014  12.232   1.779
 7430W        W75804  37.480  33.914   4.228
 7431W        W75805  16.569  14.767   2.366
 7432W        W75806   0.830  15.725   4.717
 7433W        W75807  18.628  20.537   0.937
 7434W        W75808   6.377   5.351  12.077
 7435W        W75809  25.634  28.942  13.484
 7436W        W75810  24.043  32.449  14.926
 7437W        W75811  16.101  21.547   1.395
 7438W        W75812  44.850  25.191   3.230
 7439W        W75813   4.737  25.970   1.759
 7440W        W75814   0.410   9.820   1.925
 7441W        W75815   6.427  10.362   5.292
 7442W        W75816   8.720  33.610   0.290
 7443W        W75817  17.277  36.959   4.278
 7444W        W75818   6.383  28.033   4.148
 7445W        W75819  14.768  39.901  12.967
 7446W        W75820   1.891   1.800  13.494
 7447W        W75821  32.103  11.671   2.213
 7448W        W75822  26.583  19.061  12.411
 7449W        W75823  15.202  17.191  14.968
 7450W        W75824   7.834  27.146  14.463
 7451W        W75825  26.133  19.665  13.327
 7452W        W75826  18.243   0.296  13.501
 7453W        W75827  42.916  27.955   3.372
 7454W        W75828  34.880  42.780  11.943
 7455W        W75829  23.030  28.568  13.027
 7456W        W75830  11.285  24.573  10.562
 7457W        W75831  21.544  23.144   2.887
 7458W        W75832  44.397   8.397  12.024
 7459W        W75833   2.805  31.105   2.399
 7460W        W75834  41.528  22.704   1.282
 7461W        W75835  17.612  13.607  10.621
 7462W        W75836  31.008  11.147  11.459
 7463W        W75837  18.784  32.566  13.956
 7464W        W75838  27.565   4.420  14.315
 7465W        W75839   2.799  18.684   0.283
 7466W        W75840   2.869  38.446  13.829
 7467W        W75841  33.525  23.613  14.396
 7468W        W75842  33.977  14.268   0.934
 7469W        W75843  26.637  11.287  10.934
 7470W        W75844  27.952  39.414  14.332
 7471W        W75845  35.402  27.570   3.675
 7472W        W75846   4.244  28.022   2.191
 7473W        W75847  13.202  33.585  12.034
 7474W        W75848  35.084   1.251  12.978
 7475W        W75849  20.705  42.849   2.805
 7476W        W75850   1.789   3.888  14.999
 7477W        W75851  14.639  38.991  10.516
 7478W        W75852  29.039  14.590  13.873
 7479W        W75853   5.229  16.234  11.120
 7480W        W75854  37.359  17.126   4.307
 7481W        W75855  16.776  25.028  10.577
 7482W        W75856  39.863   6.338  11.557
 7483W        W75857  44.448  25.193  14.498
 7484W        W75858   6.896  14.672   0.438
 7485W        W75859  12.813  43.784   0.836
 7486W        W75860   3.429   9.846  11.087
 7487W        W75861   5.366  21.735  11.857
 7488W        W75862  25.197   7.406  14.021
 7489W        W75863  25.617  18.776  14.280
 7490W        W75864  34.890  27.534   4.187
 7491W        W75865   7.195   5.328  12.560
 7492W        W75866  22.242  41.993  14.962
 7493W        W75867  26.475  37.472  10.935
 7494W        W75868  18.703   6.919  12.827
 7495W        W75869  35.476  15.802  13.926
 7496W        W75870  42.867  29.665  10.474
 7497W        W75871   4.403   9.184  13.388
 7498W        W75872  28.602  11.699   4.618
 7499W        W75873  43.406   0.888   1.356
 7500W        W75874   4.777  23.593   4.672
 7501W        W75875   8.383  20.078   2.199
 7502W        W75876  43.004  42.285  12.974
 7503W        W75877  28.499  22.589   1.734
 7504W        W75878   2.318   5.370   2.744
 7505W        W75879  32.435  38.342  13.312
 7506W        W75880  35.988  29.499   2.186
 7507W        W75881  27.686  30.471  13.881
 7508W        W75882   7.703  35.992   4.157
 7509W        W75883  33.950  41.320   2.302
 7510W        W75884  26.569   3.352   3.199
 7511W        W75885  41.365  40.465  12.360
 7512W        W75886  31.628  29.669   4.228
 7513W        W75887  13.322  26.624   2.859
 7514W        W75888  24.503  10.155   4.665
 7515W        W75889  22.113  18.571  12.448
 7516W        W75890  12.837   1.954   0.407
 7517W        W75891  24.703  34.057  14.936
 7518W        W75892   4.339  19.265  11.467
 7519W        W75893  23.643  17.749   4.320
 7520W        W75894  41.463   0.802   0.467
 7521W        W75895  15.658  29.619   1.319
 7522W        W75896  26.048  34.433  11.892
 7523W        W75897   8.813  19.101  10.959
 7524W        W75898  26.013   2.416  11.087
 7525W        W75899  20.097  12.242   1.893
 7526W        W75900  24.984  15.280   3.188
 7527W        W75901  31.605  30.544   3.862
 7528W        W75902  28.049  20.225  11.014
 7529W        W75903  14.593  24.221  14.009
 7530W        W75904  35.507  40.323  13.504
 7531W        W75905   5.753  15.109   0.332
 7532W        W75906  24.513   7.705  11.378
 7533W        W75907   7.175   1.807   3.699
 7534W        W75908  19.701  14.109   4.780
 7535W        W75909  34.477  27.081   0.469
 7536W        W75910   0.892  30.955  12.413
 7537W        W75911  14.113  19.563  11.472
 7538W        W75912  18.243  23.705   3.149
 7539W        W75913  19.245  26.468  11.973
 7540W        W75914  14.680  38.854  14.503
 7541W        W75915   0.758  12.261  10.563
 7542W        W75916  32.636  42.795  11.501
 7543W        W75917  21.103   2.382  11.431
 7544W        W75918  25.577  41.044   2.356
 7545W        W75919   7.317  38.908  10.974
 7546W        W75920  39.826  12.749  11.461
 7547W        W75921  10.660  27.979  11.524
 7548W        W75922  18.613   6.200   5.192
 7549W        W75923  41.423  21.594  13.044
 7550W        W75924   3.808  20.750  14.312
 7551W        W75925  18.659  24.204   4.186
 7552W        W75926  10.674   0.300  11.398
 7553W        W75927  14.602   6.351   4.729
 7554W        W75928   2.837  32.599  14.810
 7555W        W75929  20.130   0.901   3.192
 7556W        W75930  29.069  35.430  10.430
 7557W        W75931  38.854  31.642   3.694
 7558W        W75932   5.289  26.571  11.384
 7559W        W75933  35.940  18.199   0.313
 7560W        W75934   6.799  20.741   0.323
 7561W        W75935   5.737  10.686   3.783
 7562W        W75936   8.231   8.335  12.493
 7563W        W75937   1.455  31.506   4.636
 7564W        W75938  21.056   5.912  13.330
 7565W        W75939  43.990  30.496   3.839
 7566W        W75940   7.333  27.597   2.221
 7567W        W75941   9.263  29.585   1.818
 7568W        W75942  22.094  18.731   2.852
 7569W        W75943  14.283  28.551  14.478
 7570W        W75944  34.081   7.366   2.680
 7571W        W75945   3.814  32.539  12.498
 7572W        W75946  28.495  34.998   3.745
 7573W        W75947  16.187  34.386   2.255
 7574W        W75948  12.701   5.760   0.457
 7575W        W75949   0.958  37.336  11.009
 7576W        W75950  38.981  13.320  10.968
 7577W        W75951   9.748   9.815   0.774
 7578W        W75952  26.608  24.198  13.884
 7579W        W75953  12.661  32.552  14.005
 7580W        W75954  12.310  31.418  13.062
 7581W        W75955  13.833   8.379   9.454
 7582W        W75956  18.785  17.616  12.938
 7583W        W75957  15.324   6.378   2.184
 7584W        W75958   3.820  29.442   2.294
 7585W        W75959  25.706  17.791  11.095
 7586W        W75960  28.435   5.874  14.835
 7587W        W75961   1.260  35.438   0.320
 7588W        W75962  10.733  12.344   3.359
 7589W        W75963  40.939  35.538   4.689
 7590W        W75964  34.471   0.284   0.799
 7591W        W75965  31.574  34.096   3.217
 7592W        W75966  15.241  18.217  13.318
 7593W        W75967  13.139  40.487   0.879
 7594W        W75968  30.458  36.898   4.345
 7595W        W75969  37.339  25.083   1.348
 7596W        W75970  19.731  33.950  14.318
 7597W        W75971  14.141  42.286  12.023
 7598W        W75972  35.879  36.360  14.891
 7599W        W75973  25.705  23.187  11.857
 7600W        W75974  24.529  42.319  12.519
 7601W        W75975  33.432  16.704  10.092
 7602W        W75976  37.371  31.497  13.860
 7603W        W75977   6.886  15.680  14.993
 7604W        W75978  32.963  10.797  10.938
 7605W        W75979   7.322  25.655   4.151
 7606W        W75980  38.038   5.400   3.337
 7607W        W75981  35.366   1.971  10.418
 7608W        W75982  33.049   5.827   3.855
 7609W        W75983   0.333  44.823  12.989
 7610W        W75984  23.668   0.318  12.974
 7611W        W75985  12.219   4.283   2.247
 7612W        W75986  35.390  12.237  13.905
 7613W        W75987  30.553   5.901  12.919
 7614W        W75988   8.845   8.362   1.304
 7615W        W75989  38.871  22.249   2.770
 7616W        W75990  32.503   4.310   3.180
 7617W        W75991  22.720   7.834  12.343
 7618W        W75992   7.893  39.371   3.326
 7619W        W75993  22.552  21.114   3.729
 7620W        W75994  31.457   8.700   2.818
 7621W        W75995  12.841  34.907  11.501
 7622W        W75996   4.374  41.504   1.779
 7623W        W75997   4.820  39.928   4.715
 7624W        W75998  26.592  42.815  11.437
 7625W        W75999  20.160   0.953  12.964
 7626W        W76000  38.423  14.172  14.461
 7627W        W76001  11.134  25.102  14.986
 7628W        W76002  18.168  27.569   3.238
 7629W        W76003  21.738  42.827  14.309
 7630W        W76004  14.102  25.102   3.259
 7631W        W76005  32.621  14.783  11.070
 7632W        W76006   3.824  18.783   0.760
 7633W        W76007  33.506   9.304  14.012
 7634W        W76008  42.920  12.307  13.959
 7635W        W76009  31.426  38.995   4.302
 7636W        W76010   0.300  19.255   4.329
 7637W        W76011  31.643  18.716   2.308
 7638W        W76012  12.631  35.102   2.379
 7639W        W76013  25.993  14.222  12.922
 7640W        W76014  10.183  42.894  11.418
 7641W        W76015  25.208   0.931  14.013
 7642W        W76016  41.787  25.603   3.853
 7643W        W76017  16.709  15.582   3.318
 7644W        W76018  14.725  42.009   3.235
 7645W        W76019  37.567  31.044   3.794
 7646W        W76020  10.773  19.157   0.321
 7647W        W76021  18.183  32.503   3.785
 7648W        W76022  44.997  27.553   2.878
 7649W        W76023  15.224  13.675  12.995
 7650W        W76024  22.584  28.070  11.493
 7651W        W76025  16.652   0.435   0.452
 7652W        W76026   0.883   4.930   4.178
 7653W        W76027  44.437  11.305   2.228
 7654W        W76028  22.250  12.805   0.346
 7655W        W76029  43.341  42.911   3.280
 7656W        W76030  37.542   4.899   4.738
 7657W        W76031  29.969  12.820  12.956
 7658W        W76032  43.305  33.438  11.544
 7659W        W76033   7.218  15.227  11.459
 7660W        W76034  34.063  27.192   2.281
 7661W        W76035  14.264  39.904  14.307
 7662W        W76036  18.280  18.284  14.819
 7663W        W76037  37.533   5.279   1.842
 7664W        W76038  13.648   1.414   4.345
 7665W        W76039  37.995  14.156   2.380
 7666W        W76040   8.203  31.975   4.749
 7667W        W76041   6.295  21.069   2.310
 7668W        W76042  23.997  38.008   4.199
 7669W        W76043  30.095   1.468  12.046
 7670W        W76044   2.251  17.119   9.963
 7671W        W76045  12.829  33.489  13.816
 7672W        W76046  25.186  43.367   1.736
 7673W        W76047   0.322  22.197  13.935
 7674W        W76048  43.971  28.628   0.835
 7675W        W76049  15.707   4.262  10.529
 7676W        W76050  32.516  26.670  14.967
 7677W        W76051  36.409   1.427   1.704
 7678W        W76052  18.603  36.411  13.344
 7679W        W76053  33.468   3.399  11.074
 7680W        W76054   1.310  24.576   2.785
 7681W        W76055   5.899  13.725   0.869
 7682W        W76056  27.984  21.603   3.146
 7683W        W76057  37.084  10.192   3.227
 7684W        W76058  41.521  43.435   4.205
 7685W        W76059  28.101  14.594  11.446
 7686W        W76060   7.189   3.879  14.937
 7687W        W76061  13.112  13.200  13.356
 7688W        W76062   4.749   7.841   1.255
 7689W        W76063  24.104  38.479   3.241
 7690W        W76064  30.113   1.448   0.857
 7691W        W76065  34.476  28.053   3.794
 7692W        W76066   0.767   0.878   0.920
 7693W        W76067  31.029   3.868   4.835
 7694W        W76068   0.391  14.116  10.621
 7695W        W76069   8.266   7.263   3.772
 7696W        W76070   0.749  24.989   0.433
 7697W        W76071   2.775   0.478  10.471
 7698W        W76072   6.922  18.127   1.850
 7699W        W76073  38.345  10.848  12.564
 7700W        W76074  13.132  32.597  14.951
 7701W        W76075  30.939  26.054  13.002
 7702W        W76076   7.250   4.803  10.596
 7703W        W76077  22.632  10.192  11.462
 7704W        W76078  21.225  32.917  13.979
 7705W        W76079  36.006  22.139   4.119
 7706W        W76080  43.366  28.115  12.376
 7707W        W76081  40.955  21.633  11.505
 7708W        W76082  11.775  43.903   2.684
 7709W        W76083  36.532   5.219   3.685
 7710W        W76084  31.115  25.132  14.794
 7711W        W76085   8.270   0.959   3.227
 7712W        W76086   7.230  28.014   1.352
 7713W        W76087  12.665  34.112  14.512
 7714W        W76088   5.710  23.491  12.970
 7715W        W76089  12.776  25.692   2.340
 7716W        W76090  13.247  12.857  13.875
 7717W        W76091  44.769  17.280  13.880
 7718W        W76092  43.828  17.104  10.506
 7719W        W76093  15.112   4.238   4.741
 7720W        W76094  35.974  30.028   0.467
 7721W        W76095  23.619   1.467  10.504
 7722W        W76096   2.947  27.533   0.810
 7723W        W76097  13.172   9.243  11.523
 7724W        W76098  25.063   8.354  10.941
 7725W        W76099  35.899   3.758  11.406
 7726W        W76100  31.997  17.793   2.416
 7727W        W76101  20.158  39.955  14.403
 7728W        W76102  25.498   5.197  12.423
 7729W        W76103  10.313   0.830  14.444
 7730W        W76104  35.365   8.874   2.264
 7731W        W76105  15.614  15.732   3.853
 7732W        W76106  29.670  30.117   4.234
 7733W        W76107  25.609   8.255  13.977
 7734W        W76108  20.164  30.958   2.881
 7735W        W76109  41.939   5.430  11.017
 7736W        W76110  39.901   2.439  13.461
 7737W        W76111   4.358   7.309  11.932
 7738W        W76112  43.920  43.281  11.576
 7739W        W76113  28.569  34.426  10.895
 7740W        W76114  28.954  34.401   0.430
 7741W        W76115   3.804  23.074   3.682
 7742W        W76116   4.370  33.022   3.718
 7743W        W76117  20.584  13.159  12.397
 7744W        W76118  15.800  28.581   1.739
 7745W        W76119  35.879   4.857   4.285
 7746W        W76120  43.915  42.790  13.352
 7747W        W76121  26.669  42.425  11.397
 7748W        W76122  20.532  39.479   4.631
 7749W        W76123  30.096  36.862  11.576
 7750W        W76124  17.643  29.611  10.428
 7751W        W76125  14.271  42.527  12.920
 7752W        W76126  37.914  44.483  10.086
 7753W        W76127   4.333  40.850  12.863
 7754W        W76128  26.596  41.378   3.242
 7755W        W76129  27.482  26.158   3.645
 7756W        W76130  25.111  14.241   0.761
 7757W        W76131  10.351  13.837   2.794
 7758W        W76132   0.327   4.918   0.896
 7759W        W76133   4.282   4.937   4.349
 7760W        W76134   0.750   5.774  13.513
 7761W        W76135   7.869  31.537  14.772
 7762W        W76136  16.194   4.936  14.514
 7763W        W76137  39.947  32.571  12.574
 7764W        W76138  34.100  19.625   4.818
 7765W        W76139  31.137   9.213  11.942
 7766W        W76140  24.599   9.797   3.784
 7767W        W76141  17.767   7.787   4.292
 7768W        W76142  20.741   5.763  10.960
 7769W        W76143  25.194  44.371   3.296
 7770W        W76144  34.881   1.397   2.892
 7771W        W76145   2.732  22.125   4.258
 7772W        W76146  10.797  13.133   2.298
 7773W        W76147  16.167   2.460  12.027
 7774W        W76148  27.607  21.613  11.117
 7775W        W76149  44.923  38.911   0.894
 7776W        W76150  34.970  15.746  14.030
 7777W        W76151  29.986  19.585  13.823
 7778W        W76152  15.824  20.242  13.342
 7779W        W76153   0.834  42.396  12.090
 7780W        W76154  33.421  43.885   4.226
 7781W        W76155  13.157  41.930  13.933
 7782W        W76156   9.298  32.067   4.235
 7783W        W76157  40.402  24.006   1.355
 7784W        W76158   5.821  15.604  12.964
 7785W        W76159   5.433  35.045   4.734
 7786W        W76160  37.352  32.496   1.348
 7787W        W76161  39.519  43.516  11.057
 7788W        W76162  41.496  20.267  10.414
 7789W        W76163  20.122  35.083   3.304
 7790W        W76164   0.355   9.674   0.812
 7791W        W76165  15.092  38.384   1.735
 7792W        W76166  34.093   5.920  14.944
 7793W        W76167   9.820  20.211  10.623
 7794W        W76168   5.750  32.075   3.292
 7795W        W76169   2.735   9.799  14.807
 7796W        W76170  41.319  18.270  12.392
 7797W        W76171  21.065  29.569  12.054
 7798W        W76172   2.967  39.888   2.715
 7799W        W76173   6.234  14.215   4.317
 7800W        W76174  34.945  14.763   0.872
 7801W        W76175  27.067  41.984  10.475
 7802W        W76176   5.738  34.105  12.849
 7803W        W76177  14.306   0.283  10.967
 7804W        W76178  14.310  28.600   3.703
 7805W        W76179  22.008   2.380   3.726
 7806W        W76180  29.425  19.266   0.428
 7807W        W76181  38.003  20.712   2.874
 7808W        W76182  25.557  19.278   0.752
 7809W        W76183  14.800  19.595  14.326
 7810W        W76184  21.216   8.897  12.972
 7811W        W76185   3.222   1.322   0.909
 7812W        W76186  33.128  26.161   0.956
 7813W        W76187  34.930  25.099   4.201
 7814W        W76188  33.473  13.294  14.474
 7815W        W76189  33.110  20.235  14.480
 7816W        W76190  25.701   9.196   4.219
 7817W        W76191  23.597  24.661  12.866
 7818W        W76192  13.222  18.634  14.412
 7819W        W76193   8.375   7.344  12.383
 7820W        W76194  38.526   6.389   1.808
 7821W        W76195   9.874  20.151   5.283
 7822W        W76196  29.464  20.226   4.205
 7823W        W76197   4.882  17.683   3.317
 7824W        W76198  16.096  30.596  10.442
 7825W        W76199  42.934  16.629   3.279
 7826W        W76200  23.672  17.083  10.956
 7827W        W76201  37.557  18.216  14.462
 7828W        W76202   2.428  35.084   1.295
 7829W        W76203  36.038  13.232   0.363
 7830W        W76204  36.941  27.463   4.694
 7831W        W76205  38.849  18.574  13.935
 7832W        W76206  40.848  13.817   1.235
 7833W        W76207  36.590   7.399   9.954
 7834W        W76208  17.596  20.597  14.976
 7835W        W76209  13.680   4.922   4.326
 7836W        W76210  12.221   2.775   3.385
 7837W        W76211   7.806  30.429  14.986
 7838W        W76212  12.712  32.593  14.460
 7839W        W76213  11.712  19.183   2.878
 7840W        W76214  24.519  27.523  11.988
 7841W        W76215   2.410  19.063  10.592
 7842W        W76216  35.485  41.472   1.309
 7843W        W76217   1.421  43.359   3.374
 7844W        W76218  23.731  31.009   2.218
 7845W        W76219  41.839  29.027   2.346
 7846W        W76220  17.763  38.970  10.410
 7847W        W76221  28.172   5.311   2.332
 7848W        W76222  18.060  41.813   4.178
 7849W        W76223  32.102  20.211  14.808
 7850W        W76224  20.132  13.227   1.745
 7851W        W76225   7.369  44.755  12.576
 7852W        W76226  34.459  11.674  12.501
 7853W        W76227  24.501  26.595   5.200
 7854W        W76228  20.130  43.375   4.689
 7855W        W76229  33.400  39.397  13.887
 7856W        W76230  35.874   4.704  10.450
 7857W        W76231   4.231  37.449  14.327
 7858W        W76232  17.090  24.021   4.751
 7859W        W76233  34.421  33.475   3.870
 7860W        W76234   0.398  23.575  12.865
 7861W        W76235  14.657  30.449  11.991
 7862W        W76236   1.436  23.174   3.205
 7863W        W76237   0.863   4.393  10.438
 7864W        W76238   7.869  32.031  12.952
 7865W        W76239   0.806  20.073  13.476
 7866W        W76240   4.901  26.604   3.685
 7867W        W76241  34.380  24.003  12.056
 7868W        W76242  15.700  15.119  12.441
 7869W        W76243  30.573   0.310   0.832
 7870W        W76244  25.145   5.250   2.374
 7871W        W76245  13.766  15.802  10.558
 7872W        W76246  12.812   7.403  12.929
 7873W        W76247   3.863  25.075  14.903
 7874W        W76248   1.817  31.562  12.419
 7875W        W76249   1.410   1.859  14.766
 7876W        W76250  44.887  39.958   4.826
 7877W        W76251   0.426  33.068   3.829
 7878W        W76252   9.719  38.000  13.838
 7879W        W76253  42.457   8.242   1.290
 7880W        W76254  10.755  21.701   3.214
 7881W        W76255  21.582  30.491  12.552
 7882W        W76256   6.681  28.166  12.080
 7883W        W76257  38.433  38.894   3.722
 7884W        W76258  29.003  44.258  10.952
 7885W        W76259  21.114  10.710   1.308
 7886W        W76260  25.603  35.058  13.989
 7887W        W76261  42.988  27.672   1.228
 7888W        W76262   1.431  42.348   0.899
 7889W        W76263   4.934  27.621   4.702
 7890W        W76264  10.368  37.867   3.740
 7891W        W76265  39.334  36.019  10.551
 7892W        W76266   3.261  29.604   0.856
 7893W        W76267  14.225  11.864  14.409
 7894W        W76268  43.986  16.741   1.400
 7895W        W76269  32.895  35.570   4.826
 7896W        W76270   0.884  27.042   4.305
 7897W        W76271  20.225   9.770   3.198
 7898W        W76272   2.413  39.872  10.964
 7899W        W76273   6.923  15.235  10.421
 7900W        W76274  16.710  11.139   2.691
 7901W        W76275  11.161  25.115  14.414
 7902W        W76276   9.874  18.224  13.816
 7903W        W76277  40.466  28.672  10.896
 7904W        W76278  38.336  10.182  11.912
 7905W        W76279  34.383  38.422   0.795
 7906W        W76280  25.685  23.123   4.195
 7907W        W76281  24.216  36.939   2.194
 7908W        W76282   3.856  19.551   2.864
 7909W        W76283  33.874  11.804  13.478
 7910W        W76284  21.235   8.871   1.722
 7911W        W76285  16.627  19.689   0.874
 7912W        W76286  30.036  13.682  14.985
 7913W        W76287  44.286  14.166  13.981
 7914W        W76288  16.096  36.013   4.218
 7915W        W76289  10.142  37.441  13.807
 7916W        W76290  19.560   9.684  12.446
 7917W        W76291  20.546  43.330   1.377
 7918W        W76292  31.633   3.276   0.845
 7919W        W76293   9.887  13.349  10.428
 7920W        W76294  38.029  24.125   1.927
 7921W        W76295   3.385  22.112   0.380
 7922W        W76296  12.296  39.890   1.217
 7923W        W76297  21.094  20.216   1.317
 7924W        W76298   0.345   1.949   0.376
 7925W        W76299  41.869  31.116   3.333
 7926W        W76300  14.301  16.172   4.308
 7927W        W76301   5.812  24.060  12.860
 7928W        W76302  43.385  42.801  13.333
 7929W        W76303  28.159  29.578   5.160
 7930W        W76304  10.290   9.172   1.444
 7931W        W76305  38.524  23.678  13.965
 7932W        W76306  40.894  44.994   3.694
 7933W        W76307   2.725   3.828   2.215
 7934W        W76308  29.475  33.005  13.820
 7935W        W76309  42.970  35.977  14.329
 7936W        W76310  15.591  24.064   1.910
 7937W        W76311   5.782  23.988   0.395
 7938W        W76312  18.694  18.710   4.602
 7939W        W76313  19.673  16.236  14.343
 7940W        W76314  11.143  20.110   0.957
 7941W        W76315  37.372  20.144   1.238
 7942W        W76316  37.984  24.552   0.864
 7943W        W76317   7.364  43.393  13.414
 7944W        W76318  24.541  24.225   4.125
 7945W        W76319   2.293  18.691  13.044
 7946W        W76320  40.933   9.388  13.012
 7947W        W76321  34.007  38.859   3.336
 7948W        W76322   0.464  27.561  13.537
 7949W        W76323   9.153  37.879  10.531
 7950W        W76324  36.422  31.120   3.190
 7951W        W76325  20.151  26.052   1.831
 7952W        W76326   1.302  19.563   1.861
 7953W        W76327  37.912  30.550  14.816
 7954W        W76328  34.881  29.004  11.532
 7955W        W76329  40.895   7.680  10.468
 7956W        W76330   7.848  20.568   4.311
 7957W        W76331  35.497  23.010  10.605
 7958W        W76332  36.501   5.850   0.453
 7959W        W76333  32.556  16.575   1.353
 7960W        W76334  35.996   6.882   4.314
 7961W        W76335  28.544   2.276   3.852
 7962W        W76336   5.907  26.650  13.464
 7963W        W76337  33.080  34.508  14.392
 7964W        W76338  32.989  18.604  10.441
 7965W        W76339   9.282  17.734  10.620
 7966W        W76340  36.903  25.105   3.358
 7967W        W76341  24.600  30.161  11.001
 7968W        W76342  15.192   7.259   0.254
 7969W        W76343  10.790  15.765   4.252
 7970W        W76344  35.449  27.964   1.282
 7971W        W76345  40.825  44.779  10.976
 7972W        W76346   6.811  29.444   4.657
 7973W        W76347  11.343  40.054   0.859
 7974W        W76348  26.600  23.601  11.103
 7975W        W76349  11.258  34.956   4.139
 7976W        W76350  34.909  27.070   0.875
 7977W        W76351  17.614   5.720  12.544
 7978W        W76352  13.348   1.901   2.344
 7979W        W76353  19.609  12.316   2.258
 7980W        W76354  29.647  28.937   3.387
 7981W        W76355  18.784  33.958   3.146
 7982W        W76356  16.789  34.036  14.018
 7983W        W76357   0.314  21.059  11.421
 7984W        W76358   0.384  37.528  11.068
 7985W        W76359  25.107  40.363  10.535
 7986W        W76360  41.836   5.232  13.439
 7987W        W76361   6.840  25.073   0.865
 7988W        W76362  24.631   4.844   2.236
 7989W        W76363  33.941  24.530   3.702
 7990W        W76364  36.543  26.565   3.316
 7991W        W76365   2.901  19.536  12.898
 7992W        W76366  27.032  13.318   3.315
 7993W        W76367  22.024  22.665  13.546
 7994W        W76368  22.052   0.854   4.786
 7995W        W76369  34.905  36.392  13.395
 7996W        W76370   7.807   8.659   2.197
 7997W        W76371  25.144  10.240  10.424
 7998W        W76372  35.085  12.743  14.500
 7999W        W76373  40.472  22.207   0.301
 8000W        W76374  14.233   1.918   4.279
 8001W        W76375  32.043   8.287  10.591
 8002W        W76376  40.406  40.474   3.820
 8003W        W76377  33.113  40.944   3.259
 8004W        W76378  25.088   4.305   0.907
 8005W        W76379  24.508   3.399   1.840
 8006W        W76380  18.751   8.881  14.420
 8007W        W76381   9.355  25.196   3.318
 8008W        W76382   0.795  13.301  11.083
 8009W        W76383  11.199  40.316   1.837
 8010W        W76384  14.211  26.077   1.752
 8011W        W76385   2.321  21.097  14.783
 8012W        W76386  29.600  27.662  13.056
 8013W        W76387  38.390  12.637  10.907
 8014W        W76388  15.136  31.489  12.095
 8015W        W76389  20.592   3.347   1.418
 8016W        W76390  15.274  16.661  10.905
 8017W        W76391  31.528   8.179  13.939
 8018W        W76392  31.425  40.883   3.660
 8019W        W76393  26.575  15.123   3.164
 8020W        W76394  34.989   8.836  11.428
 8021W        W76395   1.468   8.699   3.175
 8022W        W76396  31.581  10.186   0.443
 8023W        W76397  41.946  31.090  13.806
 8024W        W76398  12.353  43.429  13.848
 8025W        W76399   0.490  44.394   3.789
 8026W        W76400   4.772  42.996   1.754
 8027W        W76401  21.531  14.170   4.727
 8028W        W76402  24.175  37.489   0.799
 8029W        W76403   1.779  31.917  10.020
 8030W        W76404  25.186  23.734   1.923
 8031W        W76405  24.029  14.306   3.282
 8032W        W76406   5.732   3.442   1.351
 8033W        W76407   5.903  32.980   2.263
 8034W        W76408   0.826   1.760   4.781
 8035W        W76409  44.935  17.745   0.394
 8036W        W76410   8.331   7.794   2.332
 8037W        W76411  25.564   1.425  14.307
 8038W        W76412  22.537  28.050  12.400
 8039W        W76413  29.647  20.165   3.774
 8040W        W76414  19.582  16.258   0.894
 8041W        W76415  16.771  17.180   0.411
 8042W        W76416  31.483  27.492   4.228
 8043W        W76417  30.048  32.967  11.946
 8044W        W76418  22.016  39.813  12.470
 8045W        W76419  42.882  25.206  14.974
 8046W        W76420   9.326  26.171  10.978
 8047W        W76421  37.453  14.649   2.406
 8048W        W76422   1.850  14.807   4.628
 8049W        W76423  15.619  26.161   1.336
 8050W        W76424   7.841  12.772   5.253
 8051W        W76425  16.673  42.440  13.032
 8052W        W76426  42.456  17.773   4.759
 8053W        W76427  43.775  18.062   0.435
 8054W        W76428   0.318  43.921  10.950
 8055W        W76429  20.262  28.174  11.556
 8056W        W76430  33.386  18.782   3.844
 8057W        W76431  35.476   9.826   3.293
 8058W        W76432  14.690   5.766  12.917
 8059W        W76433   1.246   3.400   1.387
 8060W        W76434   3.758  18.704  11.407
 8061W        W76435  37.012  23.148  14.366
 8062W        W76436  24.089   2.433  11.959
 8063W        W76437   1.966  34.575  13.400
 8064W        W76438  28.679  44.756  11.474
 8065W        W76439  20.530  27.051   4.229
 8066W        W76440  29.172  37.378  14.475
 8067W        W76441  17.777   7.330  14.016
 8068W        W76442  14.764  12.845   1.912
 8069W        W76443   5.361  38.400   4.792
 8070W        W76444  37.071   6.190  10.464
 8071W        W76445  14.661   8.295   3.851
 8072W        W76446  32.467   3.857  13.908
 8073W        W76447   7.859  15.669  14.288
 8074W        W76448   8.333  30.422   1.217
 8075W        W76449  44.494  38.859   2.370
 8076W        W76450  26.096  28.576  13.344
 8077W        W76451  41.038  43.795   3.638
 8078W        W76452  24.564   6.694   2.215
 8079W        W76453  30.154  11.674  10.596
 8080W        W76454  40.429   1.352   3.634
 8081W        W76455  39.916  35.915   0.345
 8082W        W76456  35.444  20.547   2.261
 8083W        W76457  31.548   4.819   2.682
 8084W        W76458   7.789   1.319   1.799
 8085W        W76459  41.965  12.772   9.953
 8086W        W76460  11.783  20.108   3.224
 8087W        W76461  35.482  39.542  13.307
 8088W        W76462  39.485  33.043   0.929
 8089W        W76463  32.581  22.115   1.337
 8090W        W76464  26.129  32.008  13.381
 8091W        W76465  22.106  15.770   5.152
 8092W        W76466   3.252  30.477   2.854
 8093W        W76467  24.677  26.065  11.496
 8094W        W76468  27.963  22.222   0.303
 8095W        W76469  32.512  18.059  10.506
 8096W        W76470  17.102  27.024  11.983
 8097W        W76471  28.074   3.450  13.489
 8098W        W76472  23.546  25.980   4.276
 8099W        W76473  29.472   8.240  11.447
 8100W        W76474  39.811  32.477  11.378
 8101W        W76475  12.834   3.744   4.644
 8102W        W76476   9.242  30.933   2.714
 8103W        W76477  34.017   0.744   3.315
 8104W        W76478   8.322  37.874  10.574
 8105W        W76479  27.642  41.992  14.005
 8106W        W76480   6.752  23.224   5.635
 8107W        W76481  34.021   2.455   1.934
 8108W        W76482  26.525  23.232   4.766
 8109W        W76483  34.936   0.293  12.425
 8110W        W76484  35.087  40.050   2.719
 8111W        W76485  37.540   6.695  12.901
 8112W        W76486  11.234   0.833   3.208
 8113W        W76487  24.008  28.033  13.044
 8114W        W76488  42.427  44.854  13.938
 8115W        W76489   9.695  37.513  12.458
 8116W        W76490   6.766  16.308   4.141
 8117W        W76491  36.901  41.902   0.815
 8118W        W76492  27.123  13.297  14.916
 8119W        W76493   9.261  13.675  14.887
 8120W        W76494   0.746  13.714  14.295
 8121W        W76495  37.532  15.777   3.812
 8122W        W76496  33.982  27.610  13.059
 8123W        W76497  28.126  28.664  14.432
 8124W        W76498  38.467  44.263   2.867
 8125W        W76499  25.969   4.748  11.405
 8126W        W76500  20.261  27.531   1.292
 8127W        W76501  28.541  15.129   1.754
 8128W        W76502   3.808   8.273  10.890
 8129W        W76503  16.687   4.863  14.462
 8130W        W76504  31.959   5.278   2.349
 8131W        W76505   2.421  39.971  12.898
 8132W        W76506  24.999  41.336  11.420
 8133W        W76507  19.704  37.833   4.250
 8134W        W76508  13.179   2.881  10.419
 8135W        W76509  39.523  23.664   0.737
 8136W        W76510   5.929  22.701   4.309
 8137W        W76511  39.861  37.342   2.211
 8138W        W76512  40.966   4.392  10.894
 8139W        W76513  33.538  44.802   2.704
 8140W        W76514  17.130  41.032  11.076
 8141W        W76515  32.589  26.651  14.499
 8142W        W76516  40.008  29.630   2.404
 8143W        W76517   8.879   7.712   4.256
 8144W        W76518  20.606  12.752   1.741
 8145W        W76519  34.608  11.341   4.294
 8146W        W76520  38.327   6.869   3.322
 8147W        W76521  32.130  17.203  13.038
 8148W        W76522  42.500  38.991  10.584
 8149W        W76523  27.064  22.071   1.380
 8150W        W76524   2.833  17.782   0.755
 8151W        W76525   8.841   6.239   5.222
 8152W        W76526  20.718  30.429   3.792
 8153W        W76527  34.895  22.663  10.475
 8154W        W76528  40.402  36.404   4.751
 8155W        W76529  29.431  11.661  12.078
 8156W        W76530   9.888  20.629   0.350
 8157W        W76531  41.822  13.271  11.062
 8158W        W76532   6.846  21.617  10.525
 8159W        W76533   0.836  20.198  14.000
 8160W        W76534  33.998  13.262   3.794
 8161W        W76535  20.274  18.588  11.951
 8162W        W76536  13.763  42.344  13.045
 8163W        W76537  21.118  17.237   0.748
 8164W        W76538  39.830  41.438   0.932
 8165W        W76539  10.680   1.384   3.696
 8166W        W76540  28.006  34.876   3.729
 8167W        W76541   0.254  31.456   3.339
 8168W        W76542  31.995  35.987  13.796
 8169W        W76543  13.216  32.523   0.352
 8170W        W76544  37.415  41.000   0.835
 8171W        W76545  30.037  30.433   2.669
 8172W        W76546  34.615  40.836   2.735
 8173W        W76547  21.541  19.536   4.651
 8174W        W76548  31.037   3.284  13.044
 8175W        W76549   9.781  23.499  11.406
 8176W        W76550  25.507  28.452  12.979
 8177W        W76551  22.216  19.243   1.847
 8178W        W76552   0.306  25.561   1.743
 8179W        W76553  12.852  39.007   0.962
 8180W        W76554  22.598  11.224  10.024
 8181W        W76555  17.695  32.556  12.468
 8182W        W76556   7.211  22.575  12.390
 8183W        W76557   6.728  15.682   0.783
 8184W        W76558  36.368  41.487   2.855
 8185W        W76559  44.826  29.485   3.762
 8186W        W76560  43.295  40.814   2.366
 8187W        W76561  31.972  28.106  14.287
 8188W        W76562  32.414   4.719   3.800
 8189W        W76563  23.029  15.218   9.503
 8190W        W76564   0.278  42.987   1.215
 8191W        W76565   1.978  31.044  14.824
 8192W        W76566  20.253  11.355  13.911
 8193W        W76567  33.413   4.859  11.071
 8194W        W76568  41.993  15.294   4.260
 8195W        W76569   0.489  29.970  11.483
 8196W        W76570  29.577  23.653   5.150
 8197W        W76571  29.032  23.065   0.871
 8198W        W76572  28.662   9.802   2.795
 8199W        W76573  28.629  31.483  12.985
 8200W        W76574  29.513   5.779  10.497
 8201W        W76575  40.412  22.051  12.937
 8202W        W76576  42.394  29.561   3.680
 8203W        W76577   2.306   6.253   3.781
 8204W        W76578  27.643  10.142   2.902
 8205W        W76579  33.980  19.273   2.403
 8206W        W76580  40.393  23.513  13.382
 8207W        W76581  22.567  27.140  14.399
 8208W        W76582   3.350  14.135   5.169
 8209W        W76583  26.138  33.893   0.253
 8210W        W76584  17.627   2.240   2.211
 8211W        W76585   3.303  43.997   1.881
 8212W        W76586  43.389  30.572   2.699
 8213W        W76587   9.299  37.364  14.464
 8214W        W76588  36.387  41.847  11.558
 8215W        W76589  37.561  32.620   2.414
 8216W        W76590  17.592  25.495  13.959
 8217W        W76591   4.333  33.073   3.147
 8218W        W76592  20.705  24.093  12.485
 8219W        W76593   4.828  15.264   2.783
 8220W        W76594  28.077  27.138  10.897
 8221W        W76595  14.291  31.537   3.740
 8222W        W76596   7.843  15.292   2.378
 8223W        W76597  39.817  30.106  13.039
 8224W        W76598  13.268   0.778   4.279
 8225W        W76599   0.866  39.849  14.464
 8226W        W76600  15.106  36.367  11.109
 8227W        W76601  21.532  10.148   2.692
 8228W        W76602  10.332  36.547   4.350
 8229W        W76603   7.834  32.952  10.907
 8230W        W76604  19.593  25.991   3.704
 8231W        W76605  27.482  22.632   2.771
 8232W        W76606  14.771  25.998  12.912
 8233W        W76607  39.840  38.969   1.255
 8234W        W76608  11.855  35.563  14.300
 8235W        W76609  14.271  15.702   4.790
 8236W        W76610  30.566  14.717   2.854
 8237W        W76611   3.411  33.584  10.525
 8238W        W76612  37.882  15.790  12.010
 8239W        W76613  20.249  26.102   3.780
 8240W        W76614   2.751  42.379   3.300
 8241W        W76615  11.817   6.214   5.203
 8242W        W76616   6.727  39.991   1.232
 8243W        W76617   2.761   9.332  13.954
 8244W        W76618  11.330  36.524  11.121
 8245W        W76619  25.591  37.530   4.793
 8246W        W76620  35.443  36.504   2.250
 8247W        W76621  35.961  25.591  10.444
 8248W        W76622   8.747   1.448  11.045
 8249W        W76623  21.734  12.735   4.332
 8250W        W76624   0.924  35.377   1.290
 8251W        W76625  28.950  22.536  11.970
 8252W        W76626  24.663  44.918  14.977
 8253W        W76627   6.757  42.983   1.908
 8254W        W76628  10.369  38.828   0.884
 8255W        W76629  18.661  30.486  11.527
 8256W        W76630  13.285  33.489   1.910
 8257W        W76631   7.293  24.656   0.909
 8258W        W76632  24.084  14.260  11.478
 8259W        W76633  35.911  14.591  12.495
 8260W        W76634  28.115  34.119   4.165
 8261W        W76635   6.809  41.990  14.403
 8262W        W76636  21.125  22.620  11.047
 8263W        W76637  25.635  23.046  14.453
 8264W        W76638  43.819  15.657   4.161
 8265W        W76639  19.184  27.690   0.938
 8266W        W76640  15.740  16.812  14.429
 8267W        W76641   4.331  23.735   3.168
 8268W        W76642  28.017  42.017   0.727
 8269W        W76643   7.270  29.045  13.002
 8270W        W76644  12.665  42.903   2.781
 8271W        W76645   4.824  16.632   4.768
 8272W        W76646   7.394  24.496  12.478
 8273W        W76647  36.589  22.609  14.767
 8274W        W76648  36.096  33.995   1.377
 8275W        W76649   4.847  33.424  11.859
 8276W        W76650   5.251  41.391   2.178
 8277W        W76651  31.967  16.156  12.871
 8278W        W76652  34.960  13.636   0.376
 8279W        W76653  31.531  44.904   1.294
 8280W        W76654  41.356  39.901  14.998
 8281W        W76655  27.025  10.236  10.473
 8282W        W76656  39.939  36.495  12.379
 8283W        W76657  38.564  12.166  12.936
 8284W        W76658  20.685  30.429   1.723
 8285W        W76659  36.479  33.966  13.983
 8286W        W76660  23.497  16.204   0.888
 8287W        W76661  15.766  37.900  11.965
 8288W        W76662  15.215  22.661   1.255
 8289W        W76663   4.284   4.728  12.868
 8290W        W76664  14.277   8.163  13.509
 8291W        W76665  12.791  12.735   0.338
 8292W        W76666  23.104  41.462  12.966
 8293W        W76667  24.229   5.836   3.654
 8294W        W76668  20.219  37.436   4.757
 8295W        W76669  26.961  21.052  10.007
 8296W        W76670  34.527  35.007   0.893
 8297W        W76671  10.186  26.987   1.845
 8298W        W76672  38.429  18.775  12.043
 8299W        W76673  19.725  13.158   5.259
 8300W        W76674   3.310  43.837   2.846
 8301W        W76675  20.199  14.094   4.217
 8302W        W76676   0.772   1.442   3.285
 8303W        W76677  33.430  44.393  10.571
 8304W        W76678  39.431  33.074  11.023
 8305W        W76679   1.743  37.874   0.347
 8306W        W76680  34.448  20.233   0.309
 8307W        W76681   0.774  32.132   1.252
 8308W        W76682   1.851  27.095  13.510
 8309W        W76683  11.672  17.643   0.330
 8310W        W76684  11.149  16.813  13.382
 8311W        W76685  39.531  38.404  12.377
 8312W        W76686  21.517  13.251  11.456
 8313W        W76687  38.503  38.376  10.982
 8314W        W76688  30.968  26.114  12.461
 8315W        W76689  23.603  16.779  11.120
 8316W        W76690  26.110  39.871   4.185
 8317W        W76691  41.917  13.743   1.354
 8318W        W76692  20.692  22.111  14.884
 8319W        W76693  17.638   0.988   3.646
 8320W        W76694  26.676  42.923  13.030
 8321W        W76695   5.738  23.554   0.954
 8322W        W76696   8.263  20.764  10.033
 8323W        W76697  32.476  30.930  14.772
 8324W        W76698  12.854  38.011  11.389
 8325W        W76699  44.826  15.266  14.929
 8326W        W76700  18.219  27.584  10.952
 8327W        W76701  36.501  15.591   4.791
 8328W        W76702  23.541  37.888  10.530
 8329W        W76703  42.444  13.713  11.939
 8330W        W76704   0.489  19.082   2.880
 8331W        W76705  33.589   5.436  13.816
 8332W        W76706   0.944  30.976  13.038
 8333W        W76707  43.020  22.241   2.336
 8334W        W76708  41.510  41.413   4.809
 8335W        W76709   7.387  25.533  13.521
 8336W        W76710   9.814  36.379   0.787
 8337W        W76711  35.529  30.057   2.288
 8338W        W76712  36.030  41.022   4.828
 8339W        W76713   7.346  32.407   3.254
 8340W        W76714  21.681  14.671   3.687
 8341W        W76715  26.129  14.752   4.154
 8342W        W76716   2.384  44.412  12.993
 8343W        W76717  14.699  25.207  11.062
 8344W        W76718   7.287  33.519  12.494
 8345W        W76719   1.238  32.405   2.798
 8346W        W76720  25.623  29.132   0.343
 8347W        W76721  29.966  42.790  12.825
 8348W        W76722   3.313  38.061  14.799
 8349W        W76723  20.532  12.341   0.790
 8350W        W76724  13.162  21.063   4.810
 8351W        W76725   4.340   9.240   3.167
 8352W        W76726  12.198  18.605  11.893
 8353W        W76727  12.266   8.239   4.622
 8354W        W76728  29.572  32.432   4.640
 8355W        W76729  34.085  14.121   0.395
 8356W        W76730  37.422  11.828  13.337
 8357W        W76731  19.256  33.428  13.419
 8358W        W76732  30.929   9.726  13.530
 8359W        W76733  27.048  33.559  11.419
 8360W        W76734  22.238   6.898   3.638
 8361W        W76735  42.918  28.989   4.144
 8362W        W76736  30.499   2.873   3.270
 8363W        W76737  41.902  33.894   1.879
 8364W        W76738   0.939   3.274  11.411
 8365W        W76739  39.940  33.470  11.371
 8366W        W76740   3.884  39.907   3.720
 8367W        W76741  22.537   4.934   4.246
 8368W        W76742   8.818   6.770  13.960
 8369W        W76743  12.672  26.577   5.220
 8370W        W76744  33.382  38.568   2.697
 8371W        W76745  38.846  43.941  13.954
 8372W        W76746  18.740  38.831   4.754
 8373W        W76747  16.180  28.449   1.739
 8374W        W76748  36.451  43.892   2.902
 8375W        W76749   8.279  39.993   3.756
 8376W        W76750  43.784   4.738   2.248
 8377W        W76751  24.214  10.138  12.379
 8378W        W76752   6.875  10.182   3.705
 8379W        W76753  17.287  37.489  14.380
 8380W        W76754  34.519  27.659  10.437
 8381W        W76755  15.248  34.965   3.855
 8382W        W76756   3.898  41.436  13.949
 8383W        W76757  32.427  35.479   1.711
 8384W        W76758  38.983  17.658  12.525
 8385W        W76759  29.053  28.158  14.922
 8386W        W76760  13.337  40.430   4.120
 8387W        W76761  17.607  37.863  14.380
 8388W        W76762   8.200   3.935   0.911
 8389W        W76763  27.017  42.779  12.385
 8390W        W76764  38.010   1.895  14.003
 8391W        W76765  42.809  28.175  12.377
 8392W        W76766  21.671  39.488   4.229
 8393W        W76767  11.768  26.596  10.497
 8394W        W76768  28.600  20.157   2.718
 8395W        W76769  10.205  10.803   2.888
 8396W        W76770  21.126  26.192   3.197
 8397W        W76771   7.706  12.822   1.418
 8398W        W76772  14.627  14.192   4.185
 8399W        W76773   5.303  35.551  14.355
 8400W        W76774  12.820  11.286  12.896
 8401W        W76775  41.397  41.940  12.048
 8402W        W76776  44.426  27.619  12.032
 8403W        W76777  32.583  16.150   3.231
 8404W        W76778   3.745  31.948   0.919
 8405W        W76779  28.015   5.909  11.957
 8406W        W76780  12.136   0.763   2.226
 8407W        W76781  37.485  15.168   0.763
 8408W        W76782  28.557  11.316   0.440
 8409W        W76783  28.488  18.268  14.385
 8410W        W76784  42.800  41.478  10.103
 8411W        W76785   6.369  24.038  14.303
 8412W        W76786  26.054  33.621  14.494
 8413W        W76787  26.994  36.987   4.192
 8414W        W76788  27.163  19.773  12.927
 8415W        W76789  44.441  33.610   1.426
 8416W        W76790  36.428  35.951  13.987
 8417W        W76791  32.466  13.163  12.339
 8418W        W76792  31.128  39.429   0.416
 8419W        W76793  25.105  18.740   0.457
 8420W        W76794  42.904  44.919   4.127
 8421W        W76795  27.126   4.741   3.273
 8422W        W76796  24.058   8.821   3.351
 8423W        W76797  43.995  25.202  11.034
 8424W        W76798  27.614   0.814   1.933
 8425W        W76799  21.612   3.720   0.913
 8426W        W76800  37.377  11.842  12.435
 8427W        W76801  29.460  43.457   0.364
 8428W        W76802  32.001   1.864   0.918
 8429W        W76803  14.119  28.150  14.338
 8430W        W76804   2.805   1.480   3.683
 8431W        W76805  39.441   5.282  13.828
 8432W        W76806   6.291  15.214  10.895
 8433W        W76807  28.535  40.464   2.843
 8434W        W76808  18.201   6.191   2.824
 8435W        W76809   2.809  23.060  12.467
 8436W        W76810   9.707  30.555  13.533
 8437W        W76811  10.793  11.273   0.295
 8438W        W76812  21.169  25.699  13.486
 8439W        W76813   2.448  38.332  10.927
 8440W        W76814  11.188  13.116  13.991
 8441W        W76815  22.167  13.785   1.704
 8442W        W76816  21.570   4.286  10.620
 8443W        W76817  41.886  11.260  13.940
 8444W        W76818  35.452  17.621  10.570
 8445W        W76819  40.003  37.055  10.404
 8446W        W76820  18.762  15.801   4.679
 8447W        W76821  28.659  19.536  10.641
 8448W        W76822  10.164  20.647  14.454
 8449W        W76823   0.857  17.166  11.088
 8450W        W76824   3.875   3.245   1.259
 8451W        W76825  44.423  18.281  10.084
 8452W        W76826  35.035  16.304   1.227
 8453W        W76827  25.042  23.020  13.029
 8454W        W76828  33.957  37.527  14.295
 8455W        W76829  11.203   7.708  14.301
 8456W        W76830  31.092  39.469   1.758
 8457W        W76831  38.329   5.848   9.926
 8458W        W76832  38.397   2.802   2.377
 8459W        W76833  15.610  13.680  12.946
 8460W        W76834  11.306  35.086  10.645
 8461W        W76835  29.478   6.407   3.154
 8462W        W76836  33.492   7.733   0.819
 8463W        W76837  42.390  25.557  14.452
 8464W        W76838  27.664   6.677   4.753
 8465W        W76839  23.511   8.227   3.660
 8466W        W76840   3.301  12.653   4.312
 8467W        W76841   1.775  21.085   0.866
 8468W        W76842  34.483   6.358  14.424
 8469W        W76843  41.475  18.059  14.411
 8470W        W76844   2.405  36.496  10.426
 8471W        W76845  43.007  26.004   2.783
 8472W        W76846  41.414   2.360  12.498
 8473W        W76847   3.245  19.559   2.786
 8474W        W76848  40.803  25.039   3.682
 8475W        W76849  17.075  22.650   4.684
 8476W        W76850  23.154  44.340  13.428
 8477W        W76851  27.688   2.896  11.077
 8478W        W76852  15.665  22.569  14.846
 8479W        W76853   3.357  25.089  13.381
 8480W        W76854   8.273  19.755  11.492
 8481W        W76855   9.779  34.573  14.836
 8482W        W76856  29.963  13.659   3.755
 8483W        W76857  18.738  42.471   1.919
 8484W        W76858  30.088  15.321  14.770
 8485W        W76859  16.750   0.811   3.679
 8486W        W76860   4.266  30.547   1.383
 8487W        W76861   1.436  17.696  13.331
 8488W        W76862  43.879   4.328  12.082
 8489W        W76863  22.598  18.129   3.806
 8490W        W76864  17.078  14.120   9.948
 8491W        W76865   4.446  36.841   4.820
 8492W        W76866  15.258  20.703  14.446
 8493W        W76867  14.201  41.298  11.072
 8494W        W76868  20.564  28.048   1.794
 8495W        W76869  31.542  15.093   4.662
 8496W        W76870  26.143  10.834   2.762
 8497W        W76871  22.650   3.243   2.842
 8498W        W76872   9.258   4.260   4.253
 8499W        W76873   9.249  36.361  13.309
 8500W        W76874   4.321  28.044   4.642
 8501W        W76875  25.973  31.961  13.926
 8502W        W76876  23.098  35.889  14.428
 8503W        W76877  34.909  23.672   0.796
 8504W        W76878   2.854  39.912  11.585
 8505W        W76879  14.632  21.113  13.545
 8506W        W76880   6.312   2.391   3.174
 8507W        W76881  32.555  42.854  13.456
 8508W        W76882  28.479  36.359  14.489
 8509W        W76883  41.836  26.460   5.139
 8510W        W76884  32.620  14.171  13.047
 8511W        W76885  41.474   8.731  14.923
 8512W        W76886   1.871  18.656  13.811
 8513W        W76887  23.665  21.054   1.825
 8514W        W76888   9.670  21.153   0.869
 8515W        W76889  35.416  43.978  10.405
 8516W        W76890   1.972  19.226  13.917
 8517W        W76891  43.929  34.403  12.916
 8518W        W76892  43.292   0.944   4.176
 8519W        W76893  32.928   3.356   4.823
 8520W        W76894   1.426  17.671   3.790
 8521W        W76895  19.563  28.082   1.909
 8522W        W76896  12.685  27.001   2.846
 8523W        W76897  22.095  25.140  12.039
 8524W        W76898  28.457  21.607   3.291
 8525W        W76899  14.670  39.497   1.756
 8526W        W76900   7.408   2.447  13.930
 8527W        W76901  12.644  19.688  11.857
 8528W        W76902  10.219   6.233   0.403
 8529W        W76903   4.219  34.893  11.442
 8530W        W76904  26.687   4.450   4.289
 8531W        W76905  22.225  17.155   3.176
 8532W        W76906  40.972  13.138   0.429
 8533W        W76907  23.522  37.496   1.882
 8534W        W76908  31.981  31.900  11.573
 8535W        W76909   7.854  18.181   4.254
 8536W        W76910  11.677  31.123  14.957
 8537W        W76911  22.544  10.814  13.042
 8538W        W76912   9.330  10.153  14.285
 8539W        W76913  31.129  11.284  12.561
 8540W        W76914   0.309   6.276  12.007
 8541W        W76915  14.180  38.056  13.542
 8542W        W76916   0.973  33.485  13.376
 8543W        W76917  25.527  28.152  11.105
 8544W        W76918  27.155  17.130  11.114
 8545W        W76919  13.781  10.237  12.024
 8546W        W76920  18.679   6.401   1.705
 8547W        W76921  16.267  26.686  13.319
 8548W        W76922   2.293  14.229  12.998
 8549W        W76923  29.584  27.001  14.372
 8550W        W76924  33.031  18.769   3.717
 8551W        W76925  40.010  44.954  13.832
 8552W        W76926  18.216  37.449   3.763
 8553W        W76927  20.689  41.983  12.558
 8554W        W76928   0.285  14.309   2.342
 8555W        W76929  19.090  13.107  14.312
 8556W        W76930   9.698   1.876   4.189
 8557W        W76931   8.663  35.091  10.481
 8558W        W76932  13.185   6.279  13.805
 8559W        W76933  36.352  21.514  11.492
 8560W        W76934  36.056  28.976   0.859
 8561W        W76935   6.362   6.224  11.374
 8562W        W76936  44.985  25.997  10.571
 8563W        W76937  22.998   8.828  10.990
 8564W        W76938  14.323  32.050   0.839
 8565W        W76939  22.210   1.274  12.882
 8566W        W76940  36.486   0.921  12.459
 8567W        W76941   1.878   6.406   4.665
 8568W        W76942  18.195  13.184  12.477
 8569W        W76943  40.971  37.575   3.278
 8570W        W76944  28.151  36.574   2.670
 8571W        W76945   2.429  34.984  11.380
 8572W        W76946  25.141  38.904   2.181
 8573W        W76947   1.763   9.226  14.864
 8574W        W76948  17.194  35.871   4.321
 8575W        W76949  10.851  41.995   2.358
 8576W        W76950  30.459  10.322   0.365
 8577W        W76951   3.837  23.090   1.210
 8578W        W76952   2.805   3.762   1.711
 8579W        W76953  27.001  30.980   3.696
 8580W        W76954  18.184   7.770   4.352
 8581W        W76955  12.748  12.176  13.454
 8582W        W76956  23.146  19.048  13.482
 8583W        W76957  14.240  31.424  11.959
 8584W        W76958   9.832  31.415  13.502
 8585W        W76959  43.928  41.890   2.183
 8586W        W76960   2.937   0.250   0.357
 8587W        W76961  29.601   9.258   3.161
 8588W        W76962  17.142  14.174   5.149
 8589W        W76963   1.776  15.302  14.910
 8590W        W76964  44.376   1.358  14.350
 8591W        W76965  24.200  14.249  12.037
 8592W        W76966  12.779  22.124  11.430
 8593W        W76967   1.469  26.497  10.484
 8594W        W76968  37.547  10.367   3.743
 8595W        W76969  13.781  44.372   0.336
 8596W        W76970   3.854   7.365  10.944
 8597W        W76971  19.043   0.380  11.967
 8598W        W76972  33.953  17.705  10.940
 8599W        W76973  14.240  41.451   3.200
 8600W        W76974  21.514  29.430  10.455
 8601W        W76975  44.966  18.147  12.423
 8602W        W76976  36.012  31.096   0.742
 8603W        W76977  15.260  43.820  11.448
 8604W        W76978  18.170  16.756  13.519
 8605W        W76979  31.092   0.318   3.702
 8606W        W76980  33.401  10.736   4.305
 8607W        W76981  27.548  20.041   4.646
 8608W        W76982  33.103  19.606   3.237
 8609W        W76983  11.247  25.078  13.462
 8610W        W76984   6.834  23.709   0.786
 8611W        W76985   0.255  19.689  10.894
 8612W        W76986  15.134  37.526   4.789
 8613W        W76987   3.226   5.386  12.920
 8614W        W76988   1.755   0.452  10.594
 8615W        W76989   6.704   5.838   1.718
 8616W        W76990   8.364  28.020  10.061
 8617W        W76991   0.392  12.705   0.728
 8618W        W76992  33.936  37.895  14.972
 8619W        W76993  21.734  28.566   2.343
 8620W        W76994   1.288  15.103  12.403
 8621W        W76995  15.638  34.892   5.267
 8622W        W76996  31.912  29.008   2.232
 8623W        W76997  28.177  12.614  13.337
 8624W        W76998  15.812   0.773  14.955
 8625W        W76999  22.722  27.556  12.564
 8626W        W77000  35.967   2.444   0.730
 8627W        W77001  13.234  29.115   4.340
 8628W        W77002  21.169  44.435  14.400
 8629W        W77003  16.112  43.327  14.012
 8630W        W77004  42.453  30.138  14.761
 8631W        W77005  19.591  20.177   3.380
 8632W        W77006  11.317  43.333  11.053
 8633W        W77007  29.047   4.876  12.456
 8634W        W77008  16.128  37.876   4.123
 8635W        W77009  26.457   1.815  14.421
 8636W        W77010   6.833  17.166  14.766
 8637W        W77011  40.929   5.833   1.285
 8638W        W77012  20.730  13.726   2.823
 8639W        W77013   3.858  20.727   1.402
 8640W        W77014  13.248  31.082   2.314
 8641W        W77015  26.563  18.243   1.240
 8642W        W77016   9.814  14.762   0.874
 8643W        W77017   2.802  37.482  13.420
 8644W        W77018   9.289   1.377   0.948
 8645W        W77019   2.824   1.925   4.120
 8646W        W77020  42.332  41.332   1.215
 8647W        W77021  29.662  28.985  12.372
 8648W        W77022  13.739  37.980  11.960
 8649W        W77023  30.147  28.959   4.135
 8650W        W77024  38.456  12.255  10.423
 8651W        W77025  38.942  43.346   0.480
 8652W        W77026   7.701  22.507  12.034
 8653W        W77027   9.846  27.020  12.412
 8654W        W77028  40.466   9.223  14.970
 8655W        W77029   6.845  15.163  12.869
 8656W        W77030  23.193   4.283  12.345
 8657W        W77031  37.534  23.710  14.030
 8658W        W77032  34.093  30.978  10.608
 8659W        W77033  31.585   1.847  11.070
 8660W        W77034  29.453   0.396  14.988
 8661W        W77035   5.774  37.080  14.818
 8662W        W77036   8.658  43.990   3.353
 8663W        W77037  11.673   3.306  11.923
 8664W        W77038  38.412   5.403  12.537
 8665W        W77039  31.403  22.718  13.048
 8666W        W77040   3.283  37.020  13.532
 8667W        W77041  24.994  11.320   4.793
 8668W        W77042  41.503  38.964  13.050
 8669W        W77043   9.278   8.688   0.362
 8670W        W77044  15.192  41.514  13.885
 8671W        W77045  23.520  10.780   2.406
 8672W        W77046  14.146  22.669   4.752
 8673W        W77047  25.540  41.506   1.823
 8674W        W77048  24.059   0.392  14.847
 8675W        W77049  24.535  26.113  13.025
 8676W        W77050   8.799  35.876  11.519
 8677W        W77051  23.209  17.145  13.459
 8678W        W77052  21.161   1.372  14.431
 8679W        W77053  41.841   2.259   4.820
 8680W        W77054  11.665  22.668  10.941
 8681W        W77055  29.570  32.097  13.307
 8682W        W77056  38.519  11.359  14.302
 8683W        W77057  24.582  41.826   1.859
 8684W        W77058  21.728  14.168  12.903
 8685W        W77059   1.238  40.526   2.690
 8686W        W77060   0.362  44.829   2.408
 8687W        W77061   6.908   7.848   2.236
 8688W        W77062  35.072  30.942   4.269
 8689W        W77063   6.337  36.372  13.979
 8690W        W77064  36.861  38.353  12.039
 8691W        W77065   8.745  22.105   2.309
 8692W        W77066  38.546  43.910  10.927
 8693W        W77067  26.586  13.788  14.508
 8694W        W77068  36.366  27.011  12.933
 8695W        W77069  13.686  44.350  12.078
 8696W        W77070  25.053  22.240   0.774
 8697W        W77071  10.645  24.650  14.865
 8698W        W77072   9.720  44.265  14.904
 8699W        W77073  15.732  15.088   0.791
 8700W        W77074  37.398  44.496  13.338
 8701W        W77075  30.914  26.122  10.551
 8702W        W77076   9.194  27.497   1.418
 8703W        W77077  19.756  37.881   1.808
 8704W        W77078  32.970   9.371  14.398
 8705W        W77079  44.375   6.918  12.878
 8706W        W77080  34.993  40.831   4.691
 8707W        W77081  41.889  27.175   1.915
 8708W        W77082  20.744   6.849  14.470
 8709W        W77083   3.356   3.418   4.699
 8710W        W77084   7.364  15.163  10.484
 8711W        W77085   2.253  11.847   4.258
 8712W        W77086  18.088  25.033  14.903
 8713W        W77087  18.252  15.696   4.831
 8714W        W77088   8.344  20.126   1.245
 8715W        W77089  44.808  30.513   5.197
 8716W        W77090  15.222  11.235   2.230
 8717W        W77091  28.451  32.410  11.993
 8718W        W77092  14.808  19.179   4.125
 8719W        W77093   8.322  42.442   1.713
 8720W        W77094  32.968  36.374  13.406
 8721W        W77095  35.084  15.639   5.153
 8722W        W77096  23.673   3.843  12.883
 8723W        W77097   8.756  15.590  11.031
 8724W        W77098  16.647  35.366   2.724
 8725W        W77099  17.164  41.993   1.894
 8726W        W77100  32.428  20.585   1.220
 8727W        W77101   8.735  18.715   3.682
 8728W        W77102  38.513  28.942  11.609
 8729W        W77103   4.314  26.564   2.839
 8730W        W77104  43.485  33.401  14.509
 8731W        W77105  24.020  27.066   3.725
 8732W        W77106  42.341  38.499  11.884
 8733W        W77107   7.665  11.633  13.533
 8734W        W77108  29.518  22.017   4.185
 8735W        W77109  16.670  44.343   0.761
 8736W        W77110  29.645  20.049  13.528
 8737W        W77111  16.231  25.192  12.364
 8738W        W77112  40.421   6.875  10.508
 8739W        W77113  42.806  29.169  13.451
 8740W        W77114   8.390  42.902   1.316
 8741W        W77115  13.801  13.106   4.303
 8742W        W77116  34.920  26.692  13.420
 8743W        W77117   1.941  39.959  14.979
 8744W        W77118  21.246  12.272   2.361
 8745W        W77119  19.065  35.445  10.615
 8746W        W77120  37.873  39.961   1.840
 8747W        W77121  10.673  30.092   3.180
 8748W        W77122  15.641  24.657   0.427
 8749W        W77123  11.846   7.695  13.991
 8750W        W77124   2.262  34.557  12.866
 8751W        W77125   2.344  43.499  10.919
 8752W        W77126   3.422  23.000  14.290
 8753W        W77127  32.529   9.868   0.834
 8754W        W77128  28.534  10.638   1.370
 8755W        W77129  44.390  13.308   4.153
 8756W        W77130  33.885  44.934  11.427
 8757W        W77131  32.138  29.172   1.774
 8758W        W77132  20.729   4.806   1.271
 8759W        W77133  20.548  32.915   0.311
 8760W        W77134  14.116  23.134   3.821
 8761W        W77135   5.868  25.133   1.695
 8762W        W77136  42.875  40.931   1.268
 8763W        W77137  14.111   7.833   1.863
 8764W        W77138  20.123   0.445  11.038
 8765W        W77139  32.930  24.203   1.248
 8766W        W77140  30.942  34.997  13.350
 8767W        W77141  13.266   2.356   4.826
 8768W        W77142  41.429  43.382  14.293
 8769W        W77143  38.025  27.584  12.346
 8770W        W77144  43.919  29.446   1.829
 8771W        W77145  43.830   3.246   3.776
 8772W        W77146  25.089  16.748   1.257
 8773W        W77147  24.596  35.359  14.775
 8774W        W77148  24.664  15.594   3.761
 8775W        W77149  22.101  16.809  14.381
 8776W        W77150  10.256  28.122  10.530
 8777W        W77151   9.654  23.045   0.846
 8778W        W77152  29.923   7.342   2.662
 8779W        W77153  40.866   5.280  13.054
 8780W        W77154   8.401  10.238   2.346
 8781W        W77155  21.165  10.756   4.295
 8782W        W77156  44.784  10.694  14.920
 8783W        W77157  24.191   7.728   0.864
 8784W        W77158  15.707  21.069   3.708
 8785W        W77159  24.670   8.179   2.312
 8786W        W77160  29.637  30.524   1.742
 8787W        W77161  24.690   7.776   0.759
 8788W        W77162  26.484   2.955   0.914
 8789W        W77163  10.351  18.649   0.462
 8790W        W77164  36.348  38.038  10.577
 8791W        W77165  26.141  43.275   4.125
 8792W        W77166  13.688   6.302   0.404
 8793W        W77167   1.453  23.202  13.346
 8794W        W77168  30.071  20.046   0.942
 8795W        W77169  32.576   4.784  10.131
 8796W        W77170   3.285  27.614  11.580
 8797W        W77171  38.357  18.760   0.360
 8798W        W77172   2.906  21.116  14.779
 8799W        W77173  24.031  17.602  11.001
 8800W        W77174  13.282  26.669  10.041
 8801W        W77175  44.389  17.114  12.497
 8802W        W77176  40.798  14.699  14.001
 8803W        W77177   6.213  27.108   2.227
 8804W        W77178  11.854  29.068  12.960
 8805W        W77179  38.375  20.692   0.304
 8806W        W77180   0.935  26.537   5.185
 8807W        W77181  39.980  35.058   3.712
 8808W        W77182  39.054  21.667   4.732
 8809W        W77183  21.725   8.269  12.472
 8810W        W77184  38.857   0.815  12.018
 8811W        W77185  26.573  13.337  11.938
 8812W        W77186   0.766   3.711  13.392
 8813W        W77187  22.167   9.668  12.992
 8814W        W77188  33.014  38.912  10.434
 8815W        W77189  15.248  44.358   0.340
 8816W        W77190  12.312  40.537   1.804
 8817W        W77191   1.369  17.633   4.138
 8818W        W77192  15.187  31.987   2.294
 8819W        W77193  31.154  33.547  11.447
 8820W        W77194  42.985  39.852  10.449
 8821W        W77195  17.119  40.904  14.493
 8822W        W77196  34.541  25.597   0.925
 8823W        W77197  16.183   0.360   3.711
 8824W        W77198   9.308  41.518  10.896
 8825W        W77199   4.920  13.802  13.002
 8826W        W77200  17.208  38.332   0.834
 8827W        W77201  30.582  14.100   3.849
 8828W        W77202   1.475  12.349  13.939
 8829W        W77203  20.722  23.240  13.897
 8830W        W77204  15.291   8.310   1.364
 8831W        W77205  22.526   4.733   1.923
 8832W        W77206  26.059   8.808   0.267
 8833W        W77207  24.196  29.920   1.812
 8834W        W77208  24.135  23.043  12.081
 8835W        W77209   6.897  18.210  12.967
 8836W        W77210  35.472  36.856   0.367
 8837W        W77211   0.953   6.276  11.464
 8838W        W77212  35.540  20.151  12.848
 8839W        W77213  38.866  43.995  12.944
 8840W        W77214   1.868  15.818  14.812
 8841W        W77215  37.509  12.288   2.802
 8842W        W77216  12.789   7.259   1.240
 8843W        W77217   2.729  38.416   4.694
 8844W        W77218  29.073  22.199  11.419
 8845W        W77219  32.440   1.249   2.371
 8846W        W77220  28.438  37.860   3.212
 8847W        W77221  26.489  37.462   0.774
 8848W        W77222  31.617  39.809  12.009
 8849W        W77223  38.913  41.927  11.977
 8850W        W77224  19.575  16.794  11.469
 8851W        W77225  13.289   7.367  11.080
 8852W        W77226   5.803  28.977   1.759
 8853W        W77227  40.470  41.388   0.909
 8854W        W77228  42.351  24.635  14.833
 8855W        W77229  30.515  26.113   4.782
 8856W        W77230  30.642  28.046  13.870
 8857W        W77231  22.642   8.851   1.406
 8858W        W77232  20.078  24.153  13.995
 8859W        W77233  14.739  26.640  13.469
 8860W        W77234  33.019  28.592   2.211
 8861W        W77235   7.342  24.105   3.740
 8862W        W77236  17.089   6.266  11.528
 8863W        W77237   8.255  27.462   1.817
 8864W        W77238   8.691  17.106   4.271
 8865W        W77239  33.082  34.499  12.894
 8866W        W77240   8.258   2.956  11.904
 8867W        W77241  44.979  28.473  14.001
 8868W        W77242  26.003  33.530   1.447
 8869W        W77243  23.708  22.599  14.292
 8870W        W77244   0.492  27.169   1.710
 8871W        W77245  37.998   5.414  12.084
 8872W        W77246  28.162   4.434   0.812
 8873W        W77247   2.343  27.991  13.924
 8874W        W77248  11.290   0.961   2.731
 8875W        W77249  21.180  38.001   0.936
 8876W        W77250   6.888  34.950   2.897
 8877W        W77251  15.329  36.098   3.782
 8878W        W77252  43.970  30.068  13.364
 8879W        W77253  13.228  44.821   2.752
 8880W        W77254  44.938  24.105   1.736
 8881W        W77255  27.556  20.063  12.476
 8882W        W77256  12.334  25.104  11.395
 8883W        W77257  21.213  12.302  13.956
 8884W        W77258  28.129  20.038   0.454
 8885W        W77259  20.745   6.766  14.983
 8886W        W77260  26.034   8.775   5.255
 8887W        W77261   2.817  21.516   2.396
 8888W        W77262  23.215   9.858  14.304
 8889W        W77263  12.168  28.951   4.780
 8890W        W77264  36.008  29.563   4.664
 8891W        W77265  29.005  11.297   1.781
 8892W        W77266   4.305  42.524  11.878
 8893W        W77267  33.004  31.550  13.830
 8894W        W77268  27.537   8.210   0.900
 8895W        W77269  17.708  22.028  11.373
 8896W        W77270  26.659  14.106  13.807
 8897W        W77271  28.152  43.511  11.584
 8898W        W77272  20.626  15.657  13.949
 8899W        W77273  16.294  25.536  13.440
 8900W        W77274  18.626   1.298   0.954
 8901W        W77275  39.404  17.658  11.126
 8902W        W77276  21.600  38.358  13.024
 8903W        W77277  21.545  39.998  14.908
 8904W        W77278  20.162  15.671  12.827
 8905W        W77279   7.748  40.410  14.494
 8906W        W77280  23.037  41.787  14.876
 8907W        W77281   1.741  42.384  13.426
 8908W        W77282  22.151   9.746  13.828
 8909W        W77283  14.751  37.401   0.731
 8910W        W77284   8.805  10.272   2.308
 8911W        W77285   4.406  13.198  10.419
 8912W        W77286  33.384  26.964  12.457
 8913W        W77287  21.178  35.496  12.079
 8914W        W77288   6.857  30.155   1.833
 8915W        W77289  32.899  21.632   3.188
 8916W        W77290  42.021  12.343   2.735
 8917W        W77291  28.560  43.823  11.594
 8918W        W77292  28.637  38.964   4.837
 8919W        W77293   5.930  14.803   0.330
 8920W        W77294   5.690   9.260   1.233
 8921W        W77295   6.818  41.886  10.489
 8922W        W77296  17.262  18.119  13.307
 8923W        W77297  29.447  22.015   0.367
 8924W        W77298  30.477   8.706  11.541
 8925W        W77299  24.132  33.418  12.484
 8926W        W77300  11.800   4.914  10.405
 8927W        W77301  13.756  16.723   3.787
 8928W        W77302  42.805  17.730  13.957
 8929W        W77303  40.950  42.453  13.946
 8930W        W77304   6.397  18.159   0.444
 8931W        W77305  44.983  14.271  12.554
 8932W        W77306  36.562  36.887  14.502
 8933W        W77307  21.706  26.978  12.940
 8934W        W77308  19.599  24.619   1.867
 8935W        W77309  34.555   6.730   0.412
 8936W        W77310  18.237  24.560  11.374
 8937W        W77311  22.029  41.930   0.742
 8938W        W77312   9.692  42.498   2.833
 8939W        W77313  43.913  10.785  10.524
 8940W        W77314  34.539  18.290  10.589
 8941W        W77315   3.445   5.895   2.418
 8942W        W77316  15.804  40.017  12.573
 8943W        W77317   6.872   5.247  11.396
 8944W        W77318  39.946  28.540  13.442
 8945W        W77319  23.609  26.577  14.875
 8946W        W77320  26.631  26.594   3.764
 8947W        W77321   9.316  37.488   3.154
 8948W        W77322  13.775  31.421  11.095
 8949W        W77323  20.708   4.705   4.754
 8950W        W77324  28.170  44.333   5.293
 8951W        W77325  12.163  28.456   1.377
 8952W        W77326  25.084  21.150  11.594
 8953W        W77327  25.480  12.162  12.377
 8954W        W77328   9.359  30.013  11.996
 8955W        W77329  30.659  37.854  11.056
 8956W        W77330  26.466  34.458  13.334
 8957W        W77331   1.285  12.693   2.807
 8958W        W77332  13.281   9.831   3.757
 8959W        W77333  44.441  39.454  13.441
 8960W        W77334  41.399  31.033   3.765
 8961W        W77335   2.356  17.575   2.811
 8962W        W77336   4.778  43.885  13.952
 8963W        W77337   6.840  18.736  11.000
 8964W        W77338  36.904  20.720  13.950
 8965W        W77339  29.610  15.196  14.292
 8966W        W77340  37.854   7.304   4.698
 8967W        W77341  44.788  28.437  13.367
 8968W        W77342  32.126  21.167  10.412
 8969W        W77343  42.803   7.819   2.838
 8970W        W77344   7.669  24.186  13.809
 8971W        W77345  29.952  18.685   3.713
 8972W        W77346  20.126  23.492  10.901
 8973W        W77347  38.914   3.819  12.484
 8974W        W77348  33.950  23.239  11.517
 8975W        W77349   6.765  19.573  12.479
 8976W        W77350  33.383  32.394  14.796
 8977W        W77351   9.299  42.418  12.414
 8978W        W77352  42.910  26.157  12.435
 8979W        W77353  31.571  38.074  13.922
 8980W        W77354  44.365  34.394   3.204
 8981W        W77355   7.848  22.149   2.870
 8982W        W77356  18.687  10.738  12.095
 8983W        W77357  33.601  24.578  13.465
 8984W        W77358   9.160  20.255  14.759
 8985W        W77359  43.014  26.682  12.481
 8986W        W77360  35.562  12.204  12.405
 8987W        W77361  11.652   1.328  11.118
 8988W        W77362  10.374  33.953   0.766
 8989W        W77363  31.489  12.202   0.854
 8990W        W77364  17.272  35.002  14.874
 8991W        W77365   4.920  12.613  13.870
 8992W        W77366  24.040  22.084  12.363
 8993W        W77367  33.907  22.686  12.435
 8994W        W77368  43.841   0.895  10.625
 8995W        W77369  18.278  35.554  10.429
 8996W        W77370  29.173  16.710  11.109
 8997W        W77371  14.133  39.877  13.016
 8998W        W77372  15.171  43.321   0.904
 8999W        W77373   5.285   4.312   0.949
 9000W        W77374   0.922  44.906   0.279
 9001W        W77375  13.687  22.717  11.930
 9002W        W77376   3.739   4.255  11.957
 9003W        W77377  38.864  27.097  10.585
 9004W        W77378  11.226   0.860  11.555
 9005W        W77379  10.725  18.077   3.256
 9006W        W77380   7.356  37.836   3.379
 9007W        W77381  41.301  21.113  14.939
 9008W        W77382  15.682  23.594   1.888
 9009W        W77383  16.679  31.609  12.346
 9010W        W77384  39.510  31.957   4.743
 9011W        W77385   9.751  34.956  11.444
 9012W        W77386  43.311  13.676  11.895
 9013W        W77387  32.430   9.861   0.246
 9014W        W77388  42.470   2.865  14.779
 9015W        W77389  32.999   9.225  14.879
 9016W        W77390  31.492  19.258  14.443
 9017W        W77391  26.498  33.457   4.825
 9018W        W77392  37.086  28.940  11.886
 9019W        W77393  26.672  21.659   3.868
 9020W        W77394  24.683  18.259   4.679
 9021W        W77395  33.485  27.968   0.402
 9022W        W77396  32.065  22.571  11.924
 9023W        W77397  24.128  12.700   2.252
 9024W        W77398   2.278  15.815   1.918
 9025W        W77399  28.547  24.009  12.864
 9026W        W77400   9.223  23.107   1.254
 9027W        W77401  30.648  12.761  10.425
 9028W        W77402  18.713  41.510  11.904
 9029W        W77403  25.999   2.939  12.348
 9030W        W77404  31.642  28.020   1.888
 9031W        W77405   9.789  30.595  14.927
 9032W        W77406  25.676  42.825  14.494
 9033W        W77407  33.417  38.540  14.462
 9034W        W77408  14.763  39.350  14.856
 9035W        W77409  44.004  29.155  14.931
 9036W        W77410  35.495  27.977   2.873
 9037W        W77411   7.182  41.460   1.340
 9038W        W77412   8.224  26.560  11.885
 9039W        W77413  10.862  40.406  12.881
 9040W        W77414  33.415  28.048   1.257
 9041W        W77415  16.271  41.790   0.873
 9042W        W77416  13.756  35.095   3.770
 9043W        W77417  25.015   6.848  12.961
 9044W        W77418  41.303  34.934  13.454
 9045W        W77419  15.699  38.018   4.115
 9046W        W77420  31.496  35.012  11.419
 9047W        W77421   4.877  32.108   0.826
 9048W        W77422  31.142  15.326   2.902
 9049W        W77423  10.632   5.714   2.762
 9050W        W77424  41.449  43.297   0.434
 9051W        W77425  43.481  43.844  12.901
 9052W        W77426  24.687  44.761   1.933
 9053W        W77427   2.259  27.170  14.345
 9054W        W77428  27.572  14.288   2.740
 9055W        W77429  34.898  35.442   0.385
 9056W        W77430  14.769  17.205  12.912
 9057W        W77431  24.044   9.745   1.851
 9058W        W77432  18.646   1.853   0.479
 9059W        W77433  30.413  37.361   0.819
 9060W        W77434  44.366  37.532   1.449
 9061W        W77435   7.251  39.325   0.961
 9062W        W77436  11.268  18.652   4.643
 9063W        W77437   1.977  33.510   3.326
 9064W        W77438  38.330  15.699   3.702
 9065W        W77439  24.033  18.233  14.950
 9066W        W77440  27.094  11.248   3.327
 9067W        W77441  30.152  10.321   1.837
 9068W        W77442  27.516  38.046  10.626
 9069W        W77443  41.833  33.055   1.249
 9070W        W77444  11.696  15.812  11.573
 9071W        W77445  15.804   2.307  12.353
 9072W        W77446  24.016  12.131  13.386
 9073W        W77447  26.177  34.992   0.411
 9074W        W77448   9.759  40.428   3.632
 9075W        W77449  18.727  10.782  13.408
 9076W        W77450   5.929   0.373  11.978
 9077W        W77451  31.145  15.580   5.206
 9078W        W77452  19.227  24.980   0.892
 9079W        W77453  38.966  30.576  11.909
 9080W        W77454   9.342  41.842  12.511
 9081W        W77455  23.655   2.722  12.006
 9082W        W77456  41.530  32.127   2.391
 9083W        W77457  20.229  16.197  11.525
 9084W        W77458  33.626   1.373  13.872
 9085W        W77459  28.977  41.871  13.495
 9086W        W77460   0.961  34.975   0.758
 9087W        W77461  31.639  29.108  12.837
 9088W        W77462  28.082  23.707   1.736
 9089W        W77463   2.411  19.682  10.992
 9090W        W77464  13.188  43.847  12.846
 9091W        W77465  37.441   3.817  12.021
 9092W        W77466   8.841  25.090   0.769
 9093W        W77467   6.869   5.803  12.572
 9094W        W77468  36.861  29.435  13.800
 9095W        W77469  34.521  40.408   1.877
 9096W        W77470  19.222  10.744   2.365
 9097W        W77471  15.316  32.514  13.023
 9098W        W77472   5.349  24.665  12.050
 9099W        W77473  30.081  35.927  11.540
 9100W        W77474  25.995  36.935   4.826
 9101W        W77475  13.602  13.670   2.297
 9102W        W77476  34.481  34.480   2.717
 9103W        W77477  40.449  43.420  12.848
 9104W        W77478   9.367  11.760  14.028
 9105W        W77479  36.092  37.428  11.935
 9106W        W77480  12.706  43.411  11.439
 9107W        W77481   9.793  41.503   1.828
 9108W        W77482  42.303  31.403  14.356
 9109W        W77483  12.186  40.950  10.909
 9110W        W77484   7.299  22.726  13.982
 9111W        W77485  12.649  15.687   3.868
 9112W        W77486  28.651  19.573   2.308
 9113W        W77487  35.549  19.101  11.934
 9114W        W77488  15.583  10.851  10.405
 9115W        W77489  28.178  34.491   0.338
 9116W        W77490  33.896  28.937   4.192
 9117W        W77491  29.005  34.885  10.514
 9118W        W77492   2.442  18.717   1.699
 9119W        W77493  31.609  40.437   1.806
 9120W        W77494  18.546  37.528  12.525
 9121W        W77495  27.687  17.086   0.943
 9122W        W77496  16.725  16.792  14.016
 9123W        W77497  20.679  24.026   0.899
 9124W        W77498  11.815   1.333  12.506
 9125W        W77499  34.578  17.117  10.593
 9126W        W77500  34.407  21.099   1.698
 9127W        W77501  35.589  17.680  13.376
 9128W        W77502  19.711  37.955  14.779
 9129W        W77503  18.738  15.703   3.215
 9130W        W77504   9.371   8.700  12.981
 9131W        W77505  13.671  42.885   1.335
 9132W        W77506   1.813  30.492   0.805
 9133W        W77507  22.535  26.584   3.348
 9134W        W77508  41.951  31.402  13.915
 9135W        W77509   7.232   3.331   5.089
 9136W        W77510   4.808  43.892  12.408
 9137W        W77511  20.660  21.124  12.886
 9138W        W77512  10.193  15.226   3.790
 9139W        W77513  17.270  13.283  14.815
 9140W        W77514  37.558  34.469   3.385
 9141W        W77515   9.304  15.238  12.442
 9142W        W77516   0.816  41.891   0.857
 9143W        W77517   5.695  42.877  12.982
 9144W        W77518  22.226   7.693   0.477
 9145W        W77519  37.841   4.830  10.126
 9146W        W77520  43.395  37.077  12.989
 9147W        W77521   9.207  22.202  13.546
 9148W        W77522  20.766   5.819   2.737
 9149W        W77523   0.456  10.835  13.953
 9150W        W77524  19.169   4.706   3.857
 9151W        W77525  16.151  39.346   2.272
 9152W        W77526  36.476  21.198  10.503
 9153W        W77527  37.463  15.147  11.093
 9154W        W77528  36.386  42.884   3.773
 9155W        W77529  32.496  32.546   3.226
 9156W        W77530  39.383  22.639   2.405
 9157W        W77531  20.668  15.213   0.478
 9158W        W77532   7.729  39.831   2.352
 9159W        W77533   6.236   9.713  11.115
 9160W        W77534  38.347  14.732  14.459
 9161W        W77535  15.097   3.235  11.057
 9162W        W77536  31.548  23.021  11.372
 9163W        W77537   5.846  19.712  13.319
 9164W        W77538  44.804   4.447   0.729
 9165W        W77539  10.730  12.635  11.497
 9166W        W77540   1.395  14.183  13.906
 9167W        W77541  32.909  15.711  11.869
 9168W        W77542   9.792  12.846   1.389
 9169W        W77543  38.333  17.633   3.237
 9170W        W77544  16.682  10.144  12.507
 9171W        W77545  37.024  15.808   0.791
 9172W        W77546  36.861  20.628  10.481
 9173W        W77547  29.560  14.704   3.145
 9174W        W77548  11.641   3.292  12.853
 9175W        W77549  14.330  22.243  14.335
 9176W        W77550  25.710  14.766  10.567
 9177W        W77551  20.243  16.285   3.642
 9178W        W77552   5.753  30.991  11.548
 9179W        W77553  25.076   0.323  14.864
 9180W        W77554  15.706   9.835  11.956
 9181W        W77555  30.948  35.358   3.326
 9182W        W77556  26.554   1.833   4.225
 9183W        W77557  39.853   0.915   3.705
 9184W        W77558  33.918  43.296  14.386
 9185W        W77559  19.135   0.413   2.716
 9186W        W77560  36.487  12.310  11.380
 9187W        W77561  20.527  13.767  13.390
 9188W        W77562  34.985  11.793   4.353
 9189W        W77563  27.458  40.487   4.630
 9190W        W77564   0.325  31.108   3.188
 9191W        W77565  39.014  37.925   2.201
 9192W        W77566  11.223  26.994  13.028
 9193W        W77567  28.567  31.518   4.822
 9194W        W77568  28.147  37.410  11.549
 9195W        W77569   3.262   7.191   1.915
 9196W        W77570  31.627  37.002  11.922
 9197W        W77571   8.326  34.574  13.850
 9198W        W77572   4.785  23.609  10.507
 9199W        W77573  26.545  37.014   0.464
 9200W        W77574   8.674  16.799  14.946
 9201W        W77575   5.691  35.028  11.573
 9202W        W77576  36.972   3.786   4.628
 9203W        W77577  38.928  43.874  11.124
 9204W        W77578  18.553  25.190  14.809
 9205W        W77579  30.039  18.180   2.325
 9206W        W77580  21.710  39.978   0.833
 9207W        W77581  31.571  20.258   1.746
 9208W        W77582  34.867  43.393  11.595
 9209W        W77583  11.757   0.296   1.759
 9210W        W77584  35.488  41.830  14.913
 9211W        W77585  22.074   6.355   4.780
 9212W        W77586  16.092  18.160  11.081
 9213W        W77587  39.444  27.147   2.875
 9214W        W77588   5.332  44.793   3.718
 9215W        W77589  16.795   7.882  11.425
 9216W        W77590  36.084  32.920  12.865
 9217W        W77591  17.099   7.723  10.970
 9218W        W77592   0.266  40.469  12.839
 9219W        W77593  39.002  31.153   4.772
 9220W        W77594   0.811  20.593  13.386
 9221W        W77595   9.731  34.049   2.321
 9222W        W77596   3.836  33.434  14.438
 9223W        W77597  36.492  27.570   4.807
 9224W        W77598  38.450  14.109   3.804
 9225W        W77599  28.523  26.650   2.268
 9226W        W77600  37.885   4.326   2.767
 9227W        W77601  17.221  38.011  11.018
 9228W        W77602  10.735  21.131   0.464
 9229W        W77603  36.500  23.686  13.992
 9230W        W77604  18.255   2.759   2.891
 9231W        W77605  28.044  13.634   1.722
 9232W        W77606  16.679  28.015  14.282
 9233W        W77607  30.592  23.196   3.724
 9234W        W77608  21.204  26.503  14.944
 9235W        W77609   4.280   7.225  10.890
 9236W        W77610  17.738  24.046   1.262
 9237W        W77611  36.916  27.944  13.885
 9238W        W77612  44.971  41.799  12.955
 9239W        W77613  16.618  38.369   4.152
 9240W        W77614  31.530  29.116   3.739
 9241W        W77615   7.906  19.690  11.913
 9242W        W77616   2.957  17.667   2.366
 9243W        W77617  18.778  42.004   2.399
 9244W        W77618  40.399  34.984   2.836
 9245W        W77619   8.335  19.147  13.322
 9246W        W77620   8.254  42.338   2.357
 9247W        W77621  23.594  41.960   0.841
 9248W        W77622   2.331  17.782  14.956
 9249W        W77623  27.568  21.025  10.419
 9250W        W77624  38.887  10.271   4.188
 9251W        W77625  32.404   1.461   2.669
 9252W        W77626  34.444  40.992  12.391
 9253W        W77627   7.885  10.298  11.127
 9254W        W77628  35.544  36.916   0.837
 9255W        W77629  25.485  11.843  11.994
 9256W        W77630  12.294  20.749   1.280
 9257W        W77631  33.576   7.289   3.685
 9258W        W77632  11.763  27.647   4.262
 9259W        W77633   3.765  29.606  10.496
 9260W        W77634  35.058  31.073  14.308
 9261W        W77635   8.784  21.680   5.798
 9262W        W77636  24.610  30.044  11.940
 9263W        W77637  14.816   7.340  12.994
 9264W        W77638  37.498  43.479   1.294
 9265W        W77639  30.434  11.632  12.022
 9266W        W77640  32.077  29.445  14.447
 9267W        W77641  13.156  29.073  13.050
 9268W        W77642  33.115   4.925  10.478
 9269W        W77643  21.674  28.038   3.173
 9270W        W77644   6.420  18.163   3.171
 9271W        W77645  22.086  43.966   3.298
 9272W        W77646  10.666  42.464  11.390
 9273W        W77647  31.513  32.592  10.943
 9274W        W77648  12.832  18.068  14.962
 9275W        W77649  16.132  20.245  13.317
 9276W        W77650  43.348  30.609  14.900
 9277W        W77651   8.341  16.220   3.348
 9278W        W77652   9.222  19.106   4.189
 9279W        W77653  15.798  26.540   9.936
 9280W        W77654  20.659   6.300   1.744
 9281W        W77655  43.286  30.980  12.991
 9282W        W77656  44.862  36.400  12.366
 9283W        W77657  23.686  39.416   2.781
 9284W        W77658  15.177   2.415   1.702
 9285W        W77659  40.540  42.499   3.152
 9286W        W77660  18.637  37.544  12.940
 9287W        W77661  38.982   7.356   0.779
 9288W        W77662   6.377  44.807  12.008
 9289W        W77663  25.499  29.445  10.550
 9290W        W77664   1.968  33.438   2.682
 9291W        W77665   9.301  26.513   1.745
 9292W        W77666  42.416  11.851   1.449
 9293W        W77667   3.379  37.464  13.033
 9294W        W77668  39.398  30.916   0.246
 9295W        W77669  19.114  27.096   4.155
 9296W        W77670  32.948   7.316   1.318
 9297W        W77671  25.520  39.877   2.271
 9298W        W77672  18.292  43.866  13.846
 9299W        W77673  20.556   1.929  12.840
 9300W        W77674  28.941  15.247  10.979
 9301W        W77675  11.193  27.622   3.713
 9302W        W77676  34.531  30.617  13.454
 9303W        W77677  42.918   6.712   0.252
 9304W        W77678   5.895   9.772   2.885
 9305W        W77679  36.867  41.393   3.800
 9306W        W77680   3.441  12.327   1.240
 9307W        W77681  34.575  32.435  12.430
 9308W        W77682   6.837  36.904  10.420
 9309W        W77683  36.543   2.788  12.410
 9310W        W77684  32.040  13.243   1.391
 9311W        W77685  12.141  16.573   0.284
 9312W        W77686  38.947  33.470   1.368
 9313W        W77687  43.372  39.551  14.941
 9314W        W77688  44.876  31.019  12.862
 9315W        W77689   6.734  36.853   4.196
 9316W        W77690  11.836  43.391  12.061
 9317W        W77691   1.832  42.024   4.127
 9318W        W77692  18.156   9.832  10.473
 9319W        W77693  35.883  14.777  12.041
 9320W        W77694  20.100   9.826  14.813
 9321W        W77695  42.405   6.351   2.228
 9322W        W77696   0.783   4.296  13.515
 9323W        W77697  26.458  14.737  14.423
 9324W        W77698  34.067   1.907  14.425
 9325W        W77699   5.882  36.399   4.814
 9326W        W77700  25.662   0.410  11.957
 9327W        W77701  42.512   9.882  10.622
 9328W        W77702  12.833  32.104  14.445
 9329W        W77703   6.699  23.211  10.905
 9330W        W77704  35.473  43.916  12.561
 9331W        W77705  30.414  12.337   2.397
 9332W        W77706   5.197  33.924  12.488
 9333W        W77707  28.169   5.420  14.443
 9334W        W77708  14.177  39.341  10.936
 9335W        W77709  14.236  28.623   1.302
 9336W        W77710  36.962   7.278   1.742
 9337W        W77711  44.458   5.283   3.686
 9338W        W77712   1.260  42.806  13.998
 9339W        W77713   5.257  40.908   3.302
 9340W        W77714  38.501  32.467   3.161
 9341W        W77715   1.824  28.587   0.898
 9342W        W77716  28.148  20.717  12.854
 9343W        W77717  19.662  16.733  13.327
 9344W        W77718  41.323  44.004  11.041
 9345W        W77719  27.020   9.254   0.804
 9346W        W77720  11.343   1.783  14.388
 9347W        W77721  36.065  27.550   2.242
 9348W        W77722  36.503   4.752   2.415
 9349W        W77723  39.041  16.703  13.815
 9350W        W77724  41.993  44.322  11.602
 9351W        W77725  25.587   6.252  13.864
 9352W        W77726   7.734   5.788  10.073
 9353W        W77727  30.480   1.950  11.583
 9354W        W77728   1.882  10.330   1.389
 9355W        W77729  40.481  13.608   4.674
 9356W        W77730  21.048   6.861  10.981
 9357W        W77731   2.323  40.870   3.334
 9358W        W77732  20.748  20.145  14.815
 9359W        W77733  25.572  38.544  12.465
 9360W        W77734  27.537  39.872  12.559
 9361W        W77735   2.811  30.559   2.351
 9362W        W77736  27.055  28.124   2.866
 9363W        W77737  24.703  37.412   1.298
 9364W        W77738  28.143  30.039  13.379
 9365W        W77739   4.775  41.516   5.162
 9366W        W77740  26.636  26.463   4.342
 9367W        W77741  25.985   5.848   4.151
 9368W        W77742  28.151  19.210  12.568
 9369W        W77743   9.786  38.557  13.950
 9370W        W77744   1.739   3.442   1.358
 9371W        W77745  36.400   0.812   5.235
 9372W        W77746  20.524  17.585   4.172
 9373W        W77747   7.758  17.591  11.026
 9374W        W77748  29.530   3.943   2.871
 9375W        W77749   4.802  24.703  10.122
 9376W        W77750   4.856  42.343  12.875
 9377W        W77751  37.937   6.236  11.938
 9378W        W77752   5.387   0.755   3.716
 9379W        W77753  12.145  13.663   4.300
 9380W        W77754  25.488  25.132   3.746
 9381W        W77755  37.578  36.856   0.456
 9382W        W77756  35.023  24.049   0.792
 9383W        W77757  24.205   1.932  14.905
 9384W        W77758  24.652  37.470  14.005
 9385W        W77759  14.721  27.493  14.512
 9386W        W77760  36.510  20.735  11.980
 9387W        W77761  10.813  25.029   4.154
 9388W        W77762  10.336  32.023  14.995
 9389W        W77763  33.048  36.066  14.975
 9390W        W77764  39.518  40.864  11.986
 9391W        W77765  12.148   3.299  12.012
 9392W        W77766  39.365  25.159  13.338
 9393W        W77767  15.685  24.229   4.752
 9394W        W77768  35.394  24.569  11.066
 9395W        W77769   9.765  29.649   4.114
 9396W        W77770  39.456  40.828   4.765
 9397W        W77771   5.374  31.969  14.288
 9398W        W77772   3.265  11.348   0.809
 9399W        W77773  33.469  31.102   2.348
 9400W        W77774  25.610  11.712  11.028
 9401W        W77775  15.618  21.585   3.762
 9402W        W77776   8.789  21.087   2.387
 9403W        W77777  15.132  39.889  13.381
 9404W        W77778  25.097  12.219  13.368
 9405W        W77779   0.985   8.350   1.900
 9406W        W77780  20.230  34.614  12.478
 9407W        W77781  23.216  29.061   5.670
 9408W        W77782  39.528  29.592   0.749
 9409W        W77783   4.266  19.628   1.274
 9410W        W77784  43.766  20.738   2.738
 9411W        W77785  17.072  21.228   1.366
 9412W        W77786   4.767  14.745   2.684
 9413W        W77787  12.742  13.669   2.783
 9414W        W77788  12.617   3.405  11.952
 9415W        W77789  21.734  30.432  11.377
 9416W        W77790  43.953  42.970   0.438
 9417W        W77791   6.724  11.824  14.445
 9418W        W77792  26.491  25.111  11.913
 9419W        W77793  30.023  36.924   0.837
 9420W        W77794  38.871  36.092  12.945
 9421W        W77795  33.615   2.929   4.113
 9422W        W77796  38.557  17.215  13.424
 9423W        W77797  35.002  20.763   4.181
 9424W        W77798  28.518  20.066   1.904
 9425W        W77799  42.027  43.354  11.909
 9426W        W77800   7.411  28.488   0.744
 9427W        W77801  10.693  21.112  14.931
 9428W        W77802  21.717  29.920  13.930
 9429W        W77803  41.323  38.373   2.207
 9430W        W77804  38.364   2.437   2.404
 9431W        W77805  16.193  37.566   1.291
 9432W        W77806  33.024  30.513   2.178
 9433W        W77807   3.303  11.128  10.608
 9434W        W77808  32.512  31.424   3.365
 9435W        W77809  38.826  37.054  13.455
 9436W        W77810  17.101  25.507   1.849
 9437W        W77811  11.692  11.167  10.535
 9438W        W77812  25.153   0.385   2.730
 9439W        W77813  30.932  26.566   1.872
 9440W        W77814  35.394  34.507   3.847
 9441W        W77815  38.467   3.888   3.737
 9442W        W77816  24.979  43.340   4.290
 9443W        W77817   8.229  44.416   0.862
 9444W        W77818  10.189  31.599   4.666
 9445W        W77819  44.327  34.409  12.932
 9446W        W77820  37.479  25.199   3.672
 9447W        W77821  35.601  43.322   4.696
 9448W        W77822  19.062  11.178  14.313
 9449W        W77823   8.676  37.966   1.334
 9450W        W77824  41.388  31.131  14.887
 9451W        W77825   8.888  32.019  11.445
 9452W        W77826   4.753  28.469   2.417
 9453W        W77827   2.889  20.671  12.982
 9454W        W77828  35.376   2.405  11.523
 9455W        W77829  13.720  18.105  14.823
 9456W        W77830  10.239   0.929   2.394
 9457W        W77831  16.271  26.062   4.834
 9458W        W77832  16.619  37.337  14.858
 9459W        W77833  12.224  36.511   2.761
 9460W        W77834   6.679   1.386  13.850
 9461W        W77835  25.113  28.494  10.472
 9462W        W77836  44.358  37.465  12.004
 9463W        W77837  31.616  36.027   2.295
 9464W        W77838  44.767   8.794   1.865
 9465W        W77839   6.186  17.105   5.142
 9466W        W77840  10.847   4.768   2.721
 9467W        W77841  41.401  35.972  11.865
 9468W        W77842  36.588  14.249  13.856
 9469W        W77843  27.671  38.004  11.552
 9470W        W77844   8.797  36.927   4.310
 9471W        W77845  44.338  12.139  14.962
 9472W        W77846  34.095  42.875   3.319
 9473W        W77847  34.913   8.692   4.796
 9474W        W77848  30.020  43.787  12.435
 9475W        W77849  44.432  37.425  12.899
 9476W        W77850  25.174  38.537  12.503
 9477W        W77851  12.851  43.350   0.924
 9478W        W77852  32.097   6.212   4.144
 9479W        W77853  31.405  20.128  12.526
 9480W        W77854  42.836  20.583  14.452
 9481W        W77855   7.265   2.241  12.342
 9482W        W77856  30.551   1.482  12.358
 9483W        W77857  41.878  35.399   3.631
 9484W        W77858  11.632  40.444   3.662
 9485W        W77859  44.995   9.214  11.410
 9486W        W77860  41.404  18.559  12.558
 9487W        W77861  39.916  39.943  10.913
 9488W        W77862  31.902  25.707   2.666
 9489W        W77863  26.197  22.504  10.523
 9490W        W77864  14.230  16.692   0.442
 9491W        W77865  19.222  27.605   4.222
 9492W        W77866  15.640  40.541  11.016
 9493W        W77867  10.876  30.462   3.187
 9494W        W77868   1.326  37.877   4.148
 9495W        W77869  43.444  37.403   1.234
 9496W        W77870  17.260   3.936   1.742
 9497W        W77871   5.776   2.464  13.877
 9498W        W77872  42.468  21.261  10.160
 9499W        W77873  28.986  30.051   1.694
 9500W        W77874  26.983  38.983   0.393
 9501W        W77875  38.984  24.634   2.285
 9502W        W77876  10.154   9.810  11.432
 9503W        W77877  13.605  37.077   4.156
 9504W        W77878  19.047   8.694   1.294
 9505W        W77879  14.607   6.881   3.856
 9506W        W77880  44.916  22.684  14.914
 9507W        W77881  38.019  25.159  13.391
 9508W        W77882  40.958  31.059   0.838
 9509W        W77883  41.298  42.817  12.421
 9510W        W77884  14.636  29.984   4.184
 9511W        W77885  43.496   1.884  13.384
 9512W        W77886  24.492  14.263   5.186
 9513W        W77887   0.744  26.504   3.161
 9514W        W77888   8.843  11.212  12.402
 9515W        W77889  43.397  24.702   0.867
 9516W        W77890  17.800  23.687   0.295
 9517W        W77891  24.035  32.626   0.347
 9518W        W77892   8.194  16.112   1.737
 9519W        W77893  35.415  25.962   1.353
 9520W        W77894  34.481   6.734  11.865
 9521W        W77895  22.113  43.283  13.356
 9522W        W77896  11.847  10.830  11.427
 9523W        W77897  37.078  44.800  14.386
 9524W        W77898  15.636  29.144   2.681
 9525W        W77899  14.172   8.805   0.870
 9526W        W77900   0.380  32.967   4.217
 9527W        W77901  34.530  41.991  13.921
 9528W        W77902  26.465  18.775  11.597
 9529W        W77903  41.847   7.172   0.476
 9530W        W77904  41.797  27.068  11.449
 9531W        W77905   4.851   3.248  13.035
 9532W        W77906   4.849  21.070  12.902
 9533W        W77907  37.899   8.360   4.228
 9534W        W77908  19.175  13.620  14.358
 9535W        W77909  13.237  39.913   0.246
 9536W        W77910  18.573   4.850  12.537
 9537W        W77911  38.923  41.879  12.973
 9538W        W77912  17.104  39.001  11.433
 9539W        W77913  40.351   3.304   1.775
 9540W        W77914  43.433  14.159   2.731
 9541W        W77915  23.211  36.911  13.842
 9542W        W77916  44.973  39.540   4.832
 9543W        W77917  26.545  20.255   3.800
 9544W        W77918  12.646  18.139   2.353
 9545W        W77919  44.982  27.630   1.806
 9546W        W77920   0.967  42.803  14.976
 9547W        W77921   7.820  15.225  11.995
 9548W        W77922   7.787  11.863   3.174
 9549W        W77923   4.727   0.947  10.500
 9550W        W77924  13.804  28.139   1.440
 9551W        W77925  10.669  31.925   0.436
 9552W        W77926  12.191  13.110  14.898
 9553W        W77927  15.273  44.461  11.459
 9554W        W77928   4.822  15.282   3.635
 9555W        W77929   1.737  18.578   0.449
 9556W        W77930  32.898  22.157  13.447
 9557W        W77931   6.909   6.728   3.194
 9558W        W77932  35.420  34.869  14.283
 9559W        W77933  43.976  15.674  13.005
 9560W        W77934   1.319  16.620  13.937
 9561W        W77935  22.625  31.636   1.842
 9562W        W77936   7.689  42.499   1.762
 9563W        W77937  11.764  44.491  13.897
 9564W        W77938  35.962  40.944  12.908
 9565W        W77939  16.315  12.721  11.096
 9566W        W77940  34.527  43.853  12.981
 9567W        W77941  40.529  31.583   4.147
 9568W        W77942  10.743  19.039   4.131
 9569W        W77943  11.139  32.909  14.995
 9570W        W77944  42.320  34.559  14.808
 9571W        W77945  20.583  41.301   0.907
 9572W        W77946   3.867  41.496   5.207
 9573W        W77947  14.108  41.314  12.486
 9574W        W77948  32.558  23.026   2.386
 9575W        W77949  39.861  36.875   3.834
 9576W        W77950  30.007   1.472   1.722
 9577W        W77951   6.909  25.974  13.806
 9578W        W77952   4.378  36.919  10.905
 9579W        W77953  21.724  13.704  12.513
 9580W        W77954  29.669  36.005   1.274
 9581W        W77955  41.446  16.243   0.834
 9582W        W77956  29.978  41.920   1.893
 9583W        W77957  35.072  41.307  12.914
 9584W        W77958  35.461  26.560   5.090
 9585W        W77959  44.945  40.413  10.144
 9586W        W77960  32.959   2.373   1.293
 9587W        W77961  19.636   5.788   1.734
 9588W        W77962  16.589  15.739  14.924
 9589W        W77963  11.272  15.726  13.323
 9590W        W77964  33.992  15.816   4.739
 9591W        W77965  21.257  44.870  12.359
 9592W        W77966  31.614  37.558   1.913
 9593W        W77967  29.000   2.239   2.234
 9594W        W77968  32.078  30.496  10.481
 9595W        W77969  21.723  12.717  11.010
 9596W        W77970  43.014  21.213   3.668
 9597W        W77971   3.306   5.342   0.246
 9598W        W77972   0.871  32.985  10.569
 9599W        W77973   8.724  25.681   2.393
 9600W        W77974   3.787  32.084  12.981
 9601W        W77975  25.016  18.139   0.770
 9602W        W77976  38.914  42.459   2.291
 9603W        W77977   0.413  30.095   1.339
 9604W        W77978  14.187  14.333   2.802
 9605W        W77979  44.374  25.604  12.353
 9606W        W77980  22.028  15.173  10.971
 9607W        W77981  44.449  25.173   2.280
 9608W        W77982   7.181  24.706  11.900
 9609W        W77983  10.194  27.544   1.925
 9610W        W77984  42.355  25.705   0.910
 9611W        W77985  28.668   2.816   2.327
 9612W        W77986  43.811  33.092  12.505
 9613W        W77987  24.161  24.196  11.077
 9614W        W77988  16.715   9.293   0.749
 9615W        W77989  39.824   5.810   2.701
 9616W        W77990   8.773  18.237  10.613
 9617W        W77991  15.206   1.887   2.294
 9618W        W77992   4.208  24.593   1.338
 9619W        W77993  24.483  33.540   4.320
 9620W        W77994  41.407  26.457  13.935
 9621W        W77995  39.393  23.173   2.706
 9622W        W77996   0.742  32.129  12.974
 9623W        W77997  25.580  32.574   3.156
 9624W        W77998   7.906  43.010   3.320
 9625W        W77999   6.837  16.706   3.664
 9626W        W78000  30.614  28.151   0.783
 9627W        W78001  19.549  19.661   3.685
 9628W        W78002  14.335   3.756   4.761
 9629W        W78003  29.073   4.448  11.878
 9630W        W78004  15.085  23.539  11.908
 9631W        W78005  31.062  44.417  10.468
 9632W        W78006  23.686   0.427   2.856
 9633W        W78007   5.412   3.419  10.015
 9634W        W78008  40.490  16.794  12.535
 9635W        W78009  22.559  35.466   1.833
 9636W        W78010  43.784  14.759   4.242
 9637W        W78011   9.304  15.101  11.606
 9638W        W78012   1.364   6.787   3.812
 9639W        W78013  13.753  40.896  14.961
 9640W        W78014  18.208  12.271   2.879
 9641W        W78015   0.785   8.375   0.290
 9642W        W78016  34.423  43.292  12.853
 9643W        W78017  32.619   7.748  13.515
 9644W        W78018   5.314   7.872  12.369
 9645W        W78019  23.105  32.029  12.954
 9646W        W78020   9.656   0.433  11.427
 9647W        W78021  11.260  17.634  10.929
 9648W        W78022   3.424   8.800  10.142
 9649W        W78023   4.884   3.890   1.841
 9650W        W78024   4.372  10.827   2.704
 9651W        W78025   1.778   0.795   0.466
 9652W        W78026  38.479  42.511  11.604
 9653W        W78027  25.218  20.538   1.372
 9654W        W78028  11.687  44.991  13.830
 9655W        W78029  17.128   4.841   2.391
 9656W        W78030   0.968  34.482  10.053
 9657W        W78031  18.053  35.601   0.330
 9658W        W78032   3.735  41.828   3.646
 9659W        W78033  31.120  34.455   1.338
 9660W        W78034  38.554  31.643  11.544
 9661W        W78035   4.328  27.505   1.374
 9662W        W78036  20.064  14.834   0.418
 9663W        W78037   2.761  39.919  14.796
 9664W        W78038  42.387  43.416   0.301
 9665W        W78039   0.798  32.480   0.774
 9666W        W78040  40.898  43.020   0.869
 9667W        W78041   3.296  14.329  14.814
 9668W        W78042  26.522  20.260   1.761
 9669W        W78043  32.482  12.617   2.352
 9670W        W78044   8.382  44.765   2.755
 9671W        W78045  36.890   0.983   1.833
 9672W        W78046   8.681  40.437   3.264
 9673W        W78047   5.838   8.673  13.958
 9674W        W78048  32.541  31.934  10.623
 9675W        W78049  14.158  19.711  13.366
 9676W        W78050  15.292  27.174   4.262
 9677W        W78051  17.575  34.565   4.687
 9678W        W78052  43.782  22.020  10.926
 9679W        W78053   1.369  16.771   4.601
 9680W        W78054  21.037   0.954  10.443
 9681W        W78055  26.041   8.326   3.286
 9682W        W78056  23.587  40.929  12.539
 9683W        W78057  22.736  28.653  12.856
 9684W        W78058  44.491   2.296  11.397
 9685W        W78059  38.342  37.356  14.435
 9686W        W78060   6.828   6.729  13.918
 9687W        W78061  15.608   8.744   2.816
 9688W        W78062  43.999  44.759  13.332
 9689W        W78063  13.222  42.027  10.942
 9690W        W78064  30.622  24.563   2.673
 9691W        W78065  24.547  18.238  12.950
 9692W        W78066  27.681  42.460   4.318
 9693W        W78067  16.094  12.161  10.600
 9694W        W78068  23.714  39.399   2.314
 9695W        W78069   8.212  29.666  11.088
 9696W        W78070  44.322  43.316  12.953
 9697W        W78071  21.710  21.164  10.406
 9698W        W78072  18.738  34.954   3.687
 9699W        W78073  14.326  40.371   1.328
 9700W        W78074  12.805  23.574  11.926
 9701W        W78075  36.585  37.384   5.187
 9702W        W78076  26.038  28.929   3.675
 9703W        W78077   6.390  35.477   0.935
 9704W        W78078   5.782   8.739  12.997
 9705W        W78079  22.650  11.730   2.699
 9706W        W78080   0.861   2.822   3.828
 9707W        W78081   6.354  22.581  14.920
 9708W        W78082  16.607  40.888  12.340
 9709W        W78083  13.213  22.530   3.351
 9710W        W78084  12.172   2.807   4.713
 9711W        W78085   4.906  10.365  12.957
 9712W        W78086  21.733  17.210   4.825
 9713W        W78087   8.170   2.279   4.303
 9714W        W78088  26.565  18.285   4.631
 9715W        W78089  10.698   5.228   3.238
 9716W        W78090  12.664  41.829  12.430
 9717W        W78091  21.690  44.908   4.292
 9718W        W78092  28.957  36.007  13.900
 9719W        W78093   2.772   7.216  12.925
 9720W        W78094  39.464  17.300  12.373
 9721W        W78095  21.057  13.772   2.677
 9722W        W78096  21.050  30.915   0.733
 9723W        W78097  16.673   8.395   5.749
 9724W        W78098  10.845  41.856   1.726
 9725W        W78099  24.594  14.672   9.933
 9726W        W78100   0.865  19.198  14.474
 9727W        W78101   7.391  28.184  12.982
 9728W        W78102  31.402  10.805  14.452
 9729W        W78103  11.285  39.455   4.680
 9730W        W78104  24.974  21.694   1.349
 9731W        W78105   1.762  29.521   0.266
 9732W        W78106   3.780  14.282  11.978
 9733W        W78107  10.860  26.203  13.407
 9734W        W78108  28.002   1.315   1.221
 9735W        W78109   3.346  17.103  11.093
 9736W        W78110  39.536  41.352  12.993
 9737W        W78111  10.718  11.625   1.762
 9738W        W78112  43.281  15.182   3.770
 9739W        W78113  18.550  38.450   3.158
 9740W        W78114   5.789  17.064  10.410
 9741W        W78115  26.480  34.908   2.321
 9742W        W78116  22.999   0.772  14.296
 9743W        W78117  23.143  24.230   1.385
 9744W        W78118  30.010  37.485   2.724
 9745W        W78119  19.094   0.783  11.446
 9746W        W78120   4.887  39.359   1.297
 9747W        W78121  20.647  35.461   2.864
 9748W        W78122  35.560  35.061   0.742
 9749W        W78123  26.635  35.523  10.631
 9750W        W78124  20.690  36.427   3.283
 9751W        W78125   2.813  34.922   3.751
 9752W        W78126  11.683  27.484   2.268
 9753W        W78127   0.400  21.569   4.202
 9754W        W78128  16.248  29.019   4.164
 9755W        W78129  15.706   8.712  10.442
 9756W        W78130   9.696  37.464  13.478
 9757W        W78131  28.567  36.487  13.387
 9758W        W78132  25.511  40.841  11.406
 9759W        W78133  12.691  24.571  10.516
 9760W        W78134  16.115   9.652   3.253
 9761W        W78135  24.096   6.271   2.766
 9762W        W78136  42.398   9.759  13.804
 9763W        W78137  34.600  19.706   1.439
 9764W        W78138   5.727  29.044  14.490
 9765W        W78139  18.675  32.514  11.995
 9766W        W78140  22.252  39.823  10.545
 9767W        W78141  36.947  16.293  10.909
 9768W        W78142  37.536  38.853  11.881
 9769W        W78143  44.365  12.851  12.346
 9770W        W78144   3.776  10.185  12.844
 9771W        W78145   3.458  17.712  10.601
 9772W        W78146  39.038  22.706  14.019
 9773W        W78147  28.021  12.218   1.719
 9774W        W78148  42.512  27.020  13.058
 9775W        W78149  22.227  15.307   4.648
 9776W        W78150  35.012  38.926  10.517
 9777W        W78151  26.157   9.814  13.538
 9778W        W78152  29.941  37.403  14.762
 9779W        W78153  33.115  16.669  14.758
 9780W        W78154  25.969   2.769   2.385
 9781W        W78155  37.338  30.441  14.886
 9782W        W78156  25.469   5.216  11.954
 9783W        W78157   6.302  41.965   0.891
 9784W        W78158  33.591   5.299   4.211
 9785W        W78159  39.339  26.687   0.291
 9786W        W78160  42.837  31.982   0.869
 9787W        W78161  38.934  34.892  12.957
 9788W        W78162   3.949  21.052  13.536
 9789W        W78163  37.410  13.616   3.762
 9790W        W78164  25.192  35.862  12.055
 9791W        W78165  32.115  36.085   2.825
 9792W        W78166   1.949   2.462   2.225
 9793W        W78167  18.127  17.141   3.312
 9794W        W78168  17.274   7.897  12.864
 9795W        W78169  37.840  19.599   3.803
 9796W        W78170  29.119   1.266  11.529
 9797W        W78171  33.583  32.042   0.743
 9798W        W78172  40.375  34.396  14.445
 9799W        W78173   7.277  23.027  10.425
 9800W        W78174  21.712  20.253   0.331
 9801W        W78175  24.716   8.331  10.523
 9802W        W78176  44.273  12.816  10.631
 9803W        W78177   5.264   1.237   0.772
 9804W        W78178  22.078   7.252  14.499
 9805W        W78179  28.679  17.789   2.790
 9806W        W78180   8.222  36.514  13.012
 9807W        W78181  17.246  32.486   1.451
 9808W        W78182   2.951  13.638   2.221
 9809W        W78183  37.572  15.591  11.409
 9810W        W78184  16.813   0.872   4.650
 9811W        W78185  36.864  30.042  13.814
 9812W        W78186  18.722  29.433   0.835
 9813W        W78187  41.796  10.846  12.967
 9814W        W78188   6.836  23.123  12.987
 9815W        W78189  19.642  21.245   3.356
 9816W        W78190  15.117  18.736   3.859
 9817W        W78191   2.459  40.847  10.454
 9818W        W78192  20.219  19.090   1.335
 9819W        W78193  13.635  41.399  14.885
 9820W        W78194   9.741   7.891   3.254
 9821W        W78195  27.680  15.801  11.461
 9822W        W78196  15.747   9.265  14.926
 9823W        W78197  35.482   1.837   2.864
 9824W        W78198  39.401  43.292  12.994
 9825W        W78199  14.806  43.352  12.067
 9826W        W78200   3.825  35.539  12.434
 9827W        W78201  19.099  29.001   0.784
 9828W        W78202  15.586  43.016   0.917
 9829W        W78203   7.244  20.059  10.093
 9830W        W78204  12.341  26.158   1.724
 9831W        W78205   9.646   0.881   3.790
 9832W        W78206  43.860  24.032  14.951
 9833W        W78207  17.755   9.821   0.880
 9834W        W78208  10.334   0.419  14.375
 9835W        W78209  20.657  43.852   0.430
 9836W        W78210   6.256  14.626   2.416
 9837W        W78211  23.497  40.970   4.309
 9838W        W78212   8.178  27.469   5.117
 9839W        W78213  18.574  29.166  13.939
 9840W        W78214  33.086   2.405  13.310
 9841W        W78215  41.018  24.627   1.725
 9842W        W78216   4.722   8.369   4.180
 9843W        W78217  12.234  23.642  11.567
 9844W        W78218  19.245  44.315   1.883
 9845W        W78219  39.458  14.695   1.315
 9846W        W78220  39.876  31.943   4.348
 9847W        W78221  28.129  19.061   2.754
 9848W        W78222  34.103  35.032   0.813
 9849W        W78223  22.233  37.890   1.347
 9850W        W78224  31.460   6.861  11.995
 9851W        W78225  20.143  35.001   4.337
 9852W        W78226  44.795   4.849   3.269
 9853W        W78227  16.784  39.476   1.444
 9854W        W78228  20.214  18.049   4.694
 9855W        W78229   2.285  15.085   1.916
 9856W        W78230   7.882  30.654   2.275
 9857W        W78231  35.534  38.452  11.511
 9858W        W78232  32.886  29.932  14.464
 9859W        W78233  42.946  14.798  13.342
 9860W        W78234  10.294   3.344  12.081
 9861W        W78235  18.158  19.651  10.963
 9862W        W78236  41.944  39.031   2.362
 9863W        W78237  12.325   8.308   1.745
 9864W        W78238  10.357  25.108   2.760
 9865W        W78239   7.761   7.283  10.019
 9866W        W78240  30.558  30.006   1.775
 9867W        W78241   0.294   2.407   3.260
 9868W        W78242  35.603  12.631   4.349
 9869W        W78243  38.474  24.574   3.152
 9870W        W78244  15.273   0.861  13.340
 9871W        W78245   3.733  30.433   2.869
 9872W        W78246  19.164  35.551   2.335
 9873W        W78247  28.470  22.558  13.852
 9874W        W78248   4.290   3.265  12.854
 9875W        W78249   7.800  15.785   0.459
 9876W        W78250  28.655  19.558   0.469
 9877W        W78251   9.659  14.215  10.497
 9878W        W78252  32.092   2.434   1.710
 9879W        W78253   4.724  12.814   1.726
 9880W        W78254  28.541  42.908  12.546
 9881W        W78255  16.085   3.910  10.630
 9882W        W78256  44.850  39.931   3.782
 9883W        W78257  24.595  26.692  11.513
 9884W        W78258  31.062   3.755   3.763
 9885W        W78259  31.421  38.339   1.407
 9886W        W78260  26.547  41.949   3.840
 9887W        W78261   8.780  28.055   2.800
 9888W        W78262   5.395  19.684  13.008
 9889W        W78263   7.910  20.540   3.157
 9890W        W78264  13.285  38.497   4.640
 9891W        W78265  23.993   5.858  11.084
 9892W        W78266  31.021  10.856   4.291
 9893W        W78267  27.560  31.073   1.868
 9894W        W78268  24.194  17.676   3.300
 9895W        W78269  23.163   7.728  11.888
 9896W        W78270  44.813   4.355   2.273
 9897W        W78271   2.894  22.187   2.803
 9898W        W78272  24.986  32.407  10.617
 9899W        W78273   4.316   3.433   4.337
 9900W        W78274  11.859  23.642   3.342
 9901W        W78275  38.953  23.723   3.819
 9902W        W78276   9.241  42.898   5.089
 9903W        W78277  22.252  25.483   3.853
 9904W        W78278  19.646  25.108   2.415
 9905W        W78279  36.581  17.701  11.922
 9906W        W78280   1.930  36.545   2.296
 9907W        W78281  20.567  17.570  12.003
 9908W        W78282  11.627   0.374   4.637
 9909W        W78283  36.070  17.102   2.784
 9910W        W78284  18.250   8.709   1.714
 9911W        W78285  26.183  42.308   2.663
 9912W        W78286   6.732  13.225   1.719
 9913W        W78287  42.999  39.401   0.920
 9914W        W78288  21.721  43.388   2.251
 9915W        W78289  41.810   7.739  10.896
 9916W        W78290  11.254  20.265  14.401
 9917W        W78291   8.263   8.165   2.290
 9918W        W78292   7.284  16.691  14.773
 9919W        W78293   4.350  14.593  12.063
 9920W        W78294  43.870  34.539   0.799
 9921W        W78295   8.728   5.799  12.341
 9922W        W78296  13.659  27.584   2.253
 9923W        W78297   4.731   7.719   3.351
 9924W        W78298  10.667  23.659  11.986
 9925W        W78299  43.900  25.025   3.290
 9926W        W78300   2.391   5.333   0.828
 9927W        W78301   2.942  23.707   2.250
 9928W        W78302  30.032   2.937  11.467
 9929W        W78303  14.662  12.227   1.308
 9930W        W78304  41.304  42.507  14.439
 9931W        W78305  25.714  30.530  12.900
 9932W        W78306  27.692  37.355  11.086
 9933W        W78307  14.743  27.170   1.797
 9934W        W78308  22.153  19.228   0.791
 9935W        W78309  42.985  42.425   2.339
 9936W        W78310   5.885  34.089  14.962
 9937W        W78311  25.481  17.613   2.834
 9938W        W78312  37.891  32.015   2.213
 9939W        W78313  42.934  15.654   4.353
 9940W        W78314  22.561  44.813   3.217
 9941W        W78315   5.362  28.168   0.935
 9942W        W78316  13.666  40.339  14.950
 9943W        W78317  25.598  26.953  12.089
 9944W        W78318   7.282  24.096  13.921
 9945W        W78319  26.135  18.151   3.808
 9946W        W78320  22.217  21.665  12.501
 9947W        W78321  40.988  22.199  10.621
 9948W        W78322  33.423  33.915  12.004
 9949W        W78323  41.009  31.486   4.706
 9950W        W78324  42.026   2.303   1.731
 9951W        W78325  10.227  32.481   3.268
 9952W        W78326  14.181  32.602  13.430
 9953W        W78327   4.752  40.395  13.022
 9954W        W78328   3.291   8.390  12.033
 9955W        W78329  31.019  27.657  12.476
 9956W        W78330  29.495  40.514   3.222
 9957W        W78331  24.702  15.800  10.598
 9958W        W78332   0.466  41.359  12.372
 9959W        W78333  31.407  27.583  13.803
 9960W        W78334  24.181  16.085  11.381
 9961W        W78335  43.277  10.695  10.435
 9962W        W78336   1.732  13.673   2.242
 9963W        W78337  25.205   1.355  14.819
 9964W        W78338  39.557  39.831   1.708
 9965W        W78339  24.117   8.245  11.912
 9966W        W78340  37.027   7.280   4.125
 9967W        W78341   4.375  41.807   0.374
 9968W        W78342   8.387  24.506  11.051
 9969W        W78343  41.526  21.668  11.418
 9970W        W78344   9.751  31.972  13.012
 9971W        W78345  17.206  22.743   2.292
 9972W        W78346  35.456  14.652   2.232
 9973W        W78347  24.983  36.086   1.791
 9974W        W78348  33.506  38.492   1.321
 9975W        W78349  35.451  14.272  11.905
 9976W        W78350   8.850  19.544  14.956
 9977W        W78351  38.073   5.373  14.026
 9978W        W78352   4.925   4.827   3.667
 9979W        W78353   4.805  34.000   4.312
 9980W        W78354  37.528   5.236  11.959
 9981W        W78355  38.044  19.043  10.602
 9982W        W78356   5.859   9.335  13.935
 9983W        W78357  31.562  20.092   4.299
 9984W        W78358  30.096  11.796  10.923
 9985W        W78359  30.650  21.113   2.314
 9986W        W78360  10.838  19.258   3.831
 9987W        W78361  19.627  26.107  14.861
 9988W        W78362  20.263  33.100  12.068
 9989W        W78363   8.251  21.722   3.350
 9990W        W78364  19.612   5.864  12.974
 9991W        W78365  10.841   6.244   2.289
 9992W        W78366  31.123  42.440  11.582
 9993W        W78367   1.269  15.578   0.746
 9994W        W78368  38.515  39.977   3.230
 9995W        W78369  19.077  27.969  14.791
 9996W        W78370  13.268  19.653  12.998
 9997W        W78371  40.838  32.428  13.933
 9998W        W78372   3.459  41.522   1.357
 9999W        W78373  34.591  35.526   4.708
10000W        W78374  28.488   0.385   9.970
10001W        W78375  11.282  20.746   1.303
10002W        W78376  18.188   8.270  14.977
10003W        W78377  32.058   4.792   4.214
10004W        W78378   9.200  20.110  13.912
10005W        W78379  27.580   9.342   0.959
10006W        W78380  20.735  39.366  14.446
10007W        W78381  13.178  39.394   1.717
10008W        W78382  23.210   0.918  10.991
10009W        W78383  16.238   8.869  13.040
10010W        W78384  31.560  41.014   2.215
10011W        W78385  27.569  42.435  10.545
10012W        W78386   6.371  19.152   0.472
10013W        W78387  28.182  10.264   1.234
10014W        W78388  19.079  16.285   0.852
10015W        W78389  13.141  21.700  13.516
10016W        W78390  24.572   1.794   2.901
10017W        W78391   9.331   7.176  14.473
10018W        W78392   9.885  22.050   1.215
10019W        W78393  18.747  17.668   1.414
10020W        W78394   5.747  24.702  14.796
10021W        W78395   6.377  38.944   2.392
10022W        W78396  40.024   2.311   4.767
10023W        W78397  12.358  37.464  14.386
10024W        W78398  23.124  14.657   3.305
10025W        W78399  16.174  21.611   3.807
10026W        W78400  38.417  31.508  12.042
10027W        W78401  24.657  37.900   0.325
10028W        W78402  34.878  23.551   0.419
10029W        W78403   2.461  10.223   2.226
10030W        W78404  38.350  36.381   2.348
10031W        W78405  10.869  17.626  14.452
10032W        W78406  24.552  19.650   1.361
10033W        W78407   5.839   2.344   1.834
10034W        W78408  33.957  40.826   0.941
10035W        W78409   0.417  32.485   2.748
10036W        W78410   7.392   5.270  10.428
10037W        W78411  18.173   9.764   0.375
10038W        W78412  42.830  43.497   4.804
10039W        W78413  14.702   3.786   2.253
10040W        W78414  15.808  24.520  12.897
10041W        W78415   5.327  21.707  14.410
10042W        W78416  18.071   6.904   4.257
10043W        W78417  41.529  10.178   3.154
10044W        W78418  26.634  19.247   1.420
10045W        W78419  36.373  22.569   0.274
10046W        W78420   1.894  21.042  11.569
10047W        W78421  29.101  33.895  10.960
10048W        W78422   5.861  18.578  13.514
10049W        W78423  38.905  18.626   2.391
10050W        W78424   8.330   3.282   3.853
10051W        W78425  11.316  25.007  12.469
10052W        W78426  41.865  43.310   0.932
10053W        W78427   8.771  41.880   3.672
10054W        W78428  18.058  42.956  11.489
10055W        W78429   6.679  33.119  11.506
10056W        W78430   9.880  42.435  11.433
10057W        W78431  14.277   8.709   5.137
10058W        W78432  27.990  10.633  14.951
10059W        W78433   9.713  16.629   2.884
10060W        W78434  14.140  40.962   3.807
10061W        W78435  22.182  34.578   3.154
10062W        W78436   3.721   4.715  14.855
10063W        W78437  31.076  22.647  13.047
10064W        W78438   8.221   7.810   3.173
10065W        W78439   7.210  19.576  13.796
10066W        W78440  26.049  32.962  10.532
10067W        W78441   7.744  44.319  10.450
10068W        W78442  32.969  13.845  10.453
10069W        W78443   7.358   4.820   1.231
10070W        W78444  21.205  13.121  11.893
10071W        W78445  17.730  17.691   3.241
10072W        W78446  36.068  15.319  13.533
10073W        W78447  21.053  37.375  10.447
10074W        W78448  39.413  38.957   2.726
10075W        W78449  44.360  34.935  13.947
10076W        W78450  29.026   3.890   4.653
10077W        W78451  10.211  33.099  11.938
10078W        W78452  28.954  21.132   4.659
10079W        W78453   8.874  29.997   4.671
10080W        W78454  34.499  22.009  11.454
10081W        W78455  10.338  41.918  11.882
10082W        W78456  32.910  42.973  13.902
10083W        W78457  16.770   5.805  12.977
10084W        W78458  18.777  42.420  11.480
10085W        W78459   6.687  26.640   5.141
10086W        W78460   3.407   5.796   4.345
10087W        W78461   8.866   5.919   3.642
10088W        W78462  30.103   2.266  11.986
10089W        W78463   5.831  11.798  10.606
10090W        W78464   5.203  32.477  13.993
10091W        W78465  20.221  31.930   4.806
10092W        W78466  38.066  28.113  13.018
10093W        W78467  43.363  39.915  13.433
10094W        W78468  40.531   1.821   2.404
10095W        W78469  31.575  18.142  12.972
10096W        W78470  33.883   9.667  14.420
10097W        W78471  31.533  41.453  12.916
10098W        W78472  27.019   9.331  10.494
10099W        W78473   5.914  16.259   3.724
10100W        W78474   3.380   2.377  12.469
10101W        W78475  15.090  37.417  11.944
10102W        W78476  32.474  16.801  13.895
10103W        W78477   5.713  23.704   5.609
10104W        W78478  20.644  41.958   0.289
10105W        W78479  30.602  20.260   4.728
10106W        W78480  25.605  34.546   0.934
10107W        W78481  24.537  44.793  12.440
10108W        W78482  17.616  12.136  10.410
10109W        W78483  27.134  15.139  11.994
10110W        W78484   0.347  27.490  14.320
10111W        W78485  24.227  19.054   3.281
10112W        W78486   0.249  43.820   4.816
10113W        W78487  42.804  20.725  12.072
10114W        W78488  21.657  36.920  13.455
10115W        W78489  21.214   7.738  12.093
10116W        W78490   2.722  39.543   3.369
10117W        W78491  14.685   8.237  14.928
10118W        W78492  24.700  36.399   1.346
10119W        W78493  10.750   7.224  11.411
10120W        W78494  37.942  12.122   2.902
10121W        W78495  13.662  41.001  10.460
10122W        W78496  17.137  21.130  14.905
10123W        W78497  10.169  13.231  11.952
10124W        W78498  36.066  22.626  14.775
10125W        W78499   7.301   1.768  12.557
10126W        W78500  37.964   0.925   3.656
10127W        W78501  43.990  25.997  10.960
10128W        W78502   9.731  31.152  11.409
10129W        W78503  22.048   6.324   1.816
10130W        W78504   1.428   3.376  11.021
10131W        W78505  40.807  34.375   1.882
10132W        W78506  30.504   8.290   1.422
10133W        W78507  36.450  25.488   2.878
10134W        W78508  35.108   7.292   5.089
10135W        W78509   1.821   9.652   2.417
10136W        W78510  39.556  15.686   5.102
10137W        W78511  12.121  21.618   3.385
10138W        W78512  24.546  38.510  10.983
10139W        W78513   2.367  19.224   3.865
10140W        W78514  27.021  17.180  10.510
10141W        W78515  23.124  42.390  12.503
10142W        W78516  31.571  20.051  13.436
10143W        W78517  38.530  10.161  13.934
10144W        W78518  11.724  41.419   3.160
10145W        W78519  31.934  41.344   1.398
10146W        W78520  19.741   0.416   3.837
10147W        W78521  31.974   6.709  14.997
10148W        W78522  26.998  34.908   2.735
10149W        W78523  38.985  31.609  10.475
10150W        W78524   5.290   2.320  10.507
10151W        W78525  25.968  37.947   3.318
10152W        W78526  30.017  23.985   1.381
10153W        W78527  10.246  42.795   3.788
10154W        W78528  12.315  30.536   4.132
10155W        W78529  14.638   0.811  14.974
10156W        W78530  37.464  32.571  14.910
10157W        W78531  27.097  30.936  13.880
10158W        W78532   8.784  18.564   2.358
10159W        W78533  27.460  18.285  13.535
10160W        W78534  14.761   3.459   2.269
10161W        W78535  40.823  12.653  13.444
10162W        W78536  30.635  34.030   1.783
10163W        W78537  29.932  17.102  12.915
10164W        W78538  14.247   4.273   4.186
10165W        W78539  10.227  43.954   2.356
10166W        W78540  11.798  23.545  14.810
10167W        W78541  15.642  21.528  10.421
10168W        W78542  33.445  16.713  12.515
10169W        W78543  20.675  10.755  10.429
10170W        W78544  36.034   6.834  10.926
10171W        W78545  13.123  19.751   3.721
10172W        W78546  32.543  39.950  12.970
10173W        W78547  15.314  27.972   4.334
10174W        W78548  40.327  42.464   0.882
10175W        W78549  39.824  29.605  10.500
10176W        W78550   1.382  35.880   2.810
10177W        W78551   9.866  19.247   1.871
10178W        W78552  44.924  37.452   3.775
10179W        W78553   4.840  17.163   2.674
10180W        W78554  23.196  20.661   2.238
10181W        W78555  19.053  10.859   1.222
10182W        W78556  11.174   6.881  10.607
10183W        W78557  26.174  34.514   2.706
10184W        W78558  20.064  28.970  11.061
10185W        W78559   9.361  14.164   3.687
10186W        W78560  33.523  24.999   2.355
10187W        W78561  21.164  14.258   2.324
10188W        W78562   3.424   2.722   1.326
10189W        W78563  10.228   5.326   4.715
10190W        W78564  25.143   6.240   4.185
10191W        W78565   2.893  14.168   0.251
10192W        W78566   8.859  19.277  10.158
10193W        W78567  37.447  13.146  11.922
10194W        W78568  28.039  32.490  10.905
10195W        W78569  24.616   6.419   4.810
10196W        W78570  34.911  42.477  10.928
10197W        W78571   1.251  15.670   3.806
10198W        W78572  17.064  44.343   4.631
10199W        W78573  43.015  43.436   1.903
10200W        W78574   3.363  10.831   1.450
10201W        W78575  22.999   0.861   4.774
10202W        W78576   6.299  13.837   4.601
10203W        W78577  26.122  24.655  12.461
10204W        W78578  41.842  32.898   4.653
10205W        W78579   5.322  25.510   4.672
10206W        W78580   8.702  44.319   1.451
10207W        W78581  17.670  26.188   2.203
10208W        W78582  27.669   7.202  14.926
10209W        W78583   0.354  34.483   4.692
10210W        W78584  13.303  37.851  12.836
10211W        W78585  11.770   4.351   4.742
10212W        W78586   5.920  13.660  13.343
10213W        W78587  13.629  30.999  12.062
10214W        W78588  31.060  38.933   1.809
10215W        W78589   9.231  17.744   2.300
10216W        W78590  29.997   1.917  12.090
10217W        W78591  15.102  41.866   1.217
10218W        W78592  10.783  26.661  12.976
10219W        W78593  11.212  34.956  12.041
10220W        W78594  28.444  27.662   4.694
10221W        W78595  26.526   0.896   0.305
10222W        W78596  34.506  35.898   4.703
10223W        W78597  41.023  42.459   0.453
10224W        W78598  43.920   0.251   4.281
10225W        W78599  41.028   6.234   1.375
10226W        W78600  30.056  32.961   0.325
10227W        W78601  15.175  26.157  13.437
10228W        W78602   7.299  33.943   1.765
10229W        W78603   5.716  14.191   2.266
10230W        W78604  15.277  27.061  12.964
10231W        W78605  19.569  29.961  11.061
10232W        W78606  22.670  44.825  13.021
10233W        W78607  38.486  32.110   1.820
10234W        W78608  36.841   9.840  13.331
10235W        W78609  13.267  23.991  10.608
10236W        W78610  12.812   0.923  13.527
10237W        W78611  10.712  24.624  14.363
10238W        W78612  43.952  26.632  14.916
10239W        W78613  36.963  31.436  11.536
10240W        W78614  15.821  19.657   4.306
10241W        W78615  25.144  33.390   3.242
10242W        W78616  40.497  27.545  12.435
10243W        W78617  41.468  29.138  11.485
10244W        W78618  39.429  25.702  11.023
10245W        W78619   8.694  30.470   4.781
10246W        W78620  21.257  10.682   2.269
10247W        W78621   8.264  31.608   3.713
10248W        W78622  16.767  41.025  11.090
10249W        W78623  32.929   7.807  11.436
10250W        W78624  32.491  37.543   0.753
10251W        W78625  10.861  20.694   2.889
10252W        W78626   9.824  24.631  13.517
10253W        W78627  20.691  21.146  11.547
10254W        W78628  41.438  20.756   3.336
10255W        W78629   7.735  30.532  10.893
10256W        W78630   4.820   4.909   3.352
10257W        W78631  26.542  43.375  11.867
10258W        W78632  32.921  37.019   0.821
10259W        W78633  41.841  25.559  11.381
10260W        W78634  32.925  28.582  12.361
10261W        W78635   2.864  35.041   1.844
10262W        W78636  12.648  33.987   1.730
10263W        W78637   4.234  25.125   1.358
10264W        W78638  25.534  35.601  11.933
10265W        W78639  23.657  39.824  10.496
10266W        W78640  14.732  25.672  11.586
10267W        W78641  37.838   9.357   0.393
10268W        W78642  20.528  27.447   2.818
10269W        W78643  42.404  25.031  11.873
10270W        W78644  23.507  27.018   4.668
10271W        W78645  33.610   6.826   1.865
10272W        W78646  25.549  44.426  14.017
10273W        W78647  23.020  37.886   1.822
10274W        W78648  28.996  43.788  14.506
10275W        W78649  15.143  18.642  10.579
10276W        W78650  39.812  12.362   3.240
10277W        W78651   8.170  26.677   4.736
10278W        W78652  24.102   3.896   2.180
10279W        W78653  25.157  25.548  12.435
10280W        W78654  31.993  20.181  13.450
10281W        W78655  23.621  32.092  13.388
10282W        W78656  37.421  20.137   2.241
10283W        W78657  29.135   8.881  12.443
10284W        W78658  39.519  34.007  11.864
10285W        W78659  13.769  38.455   4.640
10286W        W78660  29.603  35.997   0.938
10287W        W78661   2.299  24.209  11.530
10288W        W78662  36.896  22.603   4.306
10289W        W78663   4.726  22.675   1.418
10290W        W78664  38.827   7.313   0.368
10291W        W78665  19.616  37.427  11.379
10292W        W78666  11.292  32.435   4.669
10293W        W78667  28.997  30.511  13.008
10294W        W78668  42.352  37.337   0.867
10295W        W78669  23.136  30.650  10.604
10296W        W78670  44.864  34.088  14.413
10297W        W78671   0.294   8.190   2.765
10298W        W78672  22.643  13.721   2.257
10299W        W78673   6.239  25.502   0.310
10300W        W78674   5.250  20.218  10.961
10301W        W78675  37.356   7.868   1.854
10302W        W78676   1.385  36.988  11.964
10303W        W78677  38.949   7.365  11.500
10304W        W78678  36.386  42.894  11.946
10305W        W78679  23.531  31.583   0.764
10306W        W78680  39.906   0.782   3.295
10307W        W78681  34.609  20.195   2.258
10308W        W78682   9.686   7.269   3.804
10309W        W78683  25.126  35.887  11.409
10310W        W78684  10.815  34.501   2.182
10311W        W78685  43.866  25.180  14.404
10312W        W78686   5.885  10.864  10.451
10313W        W78687  36.417   4.339   3.630
10314W        W78688  31.038  32.544  14.881
10315W        W78689  19.145  36.008   1.729
10316W        W78690  44.002   9.164   2.200
10317W        W78691  22.635  15.765   3.822
10318W        W78692  17.205  16.130   1.380
10319W        W78693   6.823  23.211  14.976
10320W        W78694  11.284  40.512  12.022
10321W        W78695  26.120  12.756   3.180
10322W        W78696  44.821  30.112   3.774
10323W        W78697  26.171   4.734  10.554
10324W        W78698   9.711  39.322  14.451
10325W        W78699  23.709  38.559   4.185
10326W        W78700   5.270  29.647  10.581
10327W        W78701  28.935  25.521  14.924
10328W        W78702   4.793   1.354  13.834
10329W        W78703  22.184  37.085   5.210
10330W        W78704  26.636  29.453  12.956
10331W        W78705   7.697  38.510   3.775
10332W        W78706   1.357  18.261   1.707
10333W        W78707  35.929  13.637  12.442
10334W        W78708  25.534  14.168   3.832
10335W        W78709  27.467  10.161  12.055
10336W        W78710  14.274  11.625  13.447
10337W        W78711  10.197  43.321   4.220
10338W        W78712  33.413   8.345   2.798
10339W        W78713  10.813  17.281   0.434
10340W        W78714  21.099  11.817   4.228
10341W        W78715  12.671  23.615   2.359
10342W        W78716  30.477  16.292   1.849
10343W        W78717  18.737   9.152   2.812
10344W        W78718  16.707  30.932  10.499
10345W        W78719   5.416  18.124   4.135
10346W        W78720  23.083  18.636  13.021
10347W        W78721   1.802  35.358   0.777
10348W        W78722  30.465  39.041   1.423
10349W        W78723   8.872  38.565   4.779
10350W        W78724  24.015   9.221   0.924
10351W        W78725  24.184  33.506   5.133
10352W        W78726  21.596  30.163  14.828
10353W        W78727  33.621  27.455  12.057
10354W        W78728   2.384  14.339  14.832
10355W        W78729  31.471   6.274  12.038
10356W        W78730   4.353  42.468  14.515
10357W        W78731  39.858  17.740  12.538
10358W        W78732  23.615  20.603   0.950
10359W        W78733  36.575  29.921   0.419
10360W        W78734  17.657   7.716  13.955
10361W        W78735  43.516  21.256   5.208
10362W        W78736   9.814  21.017   5.147
10363W        W78737  29.116  17.289   4.303
10364W        W78738   6.327  36.996  10.478
10365W        W78739   2.875  27.974   0.397
10366W        W78740  10.343  22.183  12.576
10367W        W78741  44.346   5.246   4.200
10368W        W78742   6.419  27.647  11.891
10369W        W78743   9.748  30.503  10.426
10370W        W78744  34.926  21.752  12.002
10371W        W78745  16.661   4.788  13.376
10372W        W78746  13.250  33.090   2.212
10373W        W78747   2.860  37.336  12.032
10374W        W78748  34.567  33.016   4.640
10375W        W78749  13.634  24.623  14.015
10376W        W78750   5.307  21.095   9.942
10377W        W78751  22.667   8.272   2.293
10378W        W78752   2.411  43.856  14.356
10379W        W78753  42.332  36.502  11.072
10380W        W78754  44.887  17.145   3.250
10381W        W78755  40.518  34.499   0.822
10382W        W78756  30.937  29.548   0.322
10383W        W78757   5.344  26.169   1.387
10384W        W78758  41.894  18.231  14.817
10385W        W78759  38.897  16.724  12.988
10386W        W78760  28.114  31.112   0.455
10387W        W78761  18.710   4.388  14.983
10388W        W78762  24.524  19.676  12.860
10389W        W78763  43.010   7.740  13.059
10390W        W78764  10.147  42.014   0.466
10391W        W78765   2.355  38.495   4.746
10392W        W78766  36.915  36.970  14.855
10393W        W78767  26.090  14.207   0.749
10394W        W78768  25.968  36.554  11.942
10395W        W78769  23.490  42.001  13.053
10396W        W78770  14.217  27.487  13.033
10397W        W78771  36.468  17.787  12.458
10398W        W78772  33.036  21.113   2.202
10399W        W78773  43.928  41.309  10.581
10400W        W78774  18.224   6.755  13.460
10401W        W78775   5.851   0.900   4.756
10402W        W78776  38.564  22.655   2.395
10403W        W78777  35.951   2.727   2.211
10404W        W78778   5.861  19.750   1.245
10405W        W78779  33.426  17.219   0.965
10406W        W78780  38.922  41.905   1.809
10407W        W78781  44.296  41.011   4.835
10408W        W78782   8.318  43.793  12.969
10409W        W78783   8.668  27.117   3.158
10410W        W78784  28.636  32.032  14.877
10411W        W78785   7.236  15.749  13.793
10412W        W78786  17.770  33.885   0.854
10413W        W78787   3.250  39.455   0.765
10414W        W78788  29.646  33.469   0.309
10415W        W78789  30.547  19.665  11.981
10416W        W78790  10.745  22.233  14.415
10417W        W78791  38.941  14.711   4.768
10418W        W78792  21.545  16.241   4.779
10419W        W78793  31.100  17.240  14.025
10420W        W78794  26.459  18.650  12.395
10421W        W78795  16.608  30.995   1.741
10422W        W78796  14.286  29.636  13.546
10423W        W78797   0.847   8.832  11.033
10424W        W78798  33.121  41.832   1.905
10425W        W78799  20.525   5.289  14.335
10426W        W78800  34.036  43.998  14.993
10427W        W78801  11.334  34.493   3.333
10428W        W78802  27.449  27.514  11.089
10429W        W78803  43.308  41.875  14.419
10430W        W78804  41.364  26.474  13.317
10431W        W78805  40.834   0.942   3.756
10432W        W78806   8.870   4.878   1.700
10433W        W78807  22.542   0.886   5.208
10434W        W78808   1.957  16.702   1.395
10435W        W78809  38.846   8.201   4.173
10436W        W78810  27.522  18.600   0.921
10437W        W78811  20.047  27.500   3.223
10438W        W78812  41.032  21.517   3.360
10439W        W78813  41.971  27.501  11.594
10440W        W78814  44.389   6.864  13.413
10441W        W78815  42.824  22.711   2.786
10442W        W78816   6.866   7.362   1.287
10443W        W78817  11.721  30.546   3.269
10444W        W78818  22.241  29.514   5.594
10445W        W78819  32.406  30.075  13.439
10446W        W78820   3.451  10.176   2.291
10447W        W78821  44.936  10.684   0.954
10448W        W78822  24.995  32.035  10.087
10449W        W78823  13.622   9.750  12.384
10450W        W78824  29.098   4.316  12.831
10451W        W78825  19.050  32.599  12.904
10452W        W78826  39.930  20.040  13.005
10453W        W78827  12.288  30.575   2.836
10454W        W78828   1.365  42.316   3.845
10455W        W78829   6.910  35.080  12.087
10456W        W78830  24.706  24.997  11.444
10457W        W78831  37.349  41.883   4.832
10458W        W78832  31.560   4.331  14.849
10459W        W78833  21.577  31.456   3.668
10460W        W78834  30.137  40.975  11.107
10461W        W78835  22.212  41.483   3.178
10462W        W78836  11.831   0.306  14.845
10463W        W78837   6.698  14.183   1.254
10464W        W78838   0.270  39.950   2.669
10465W        W78839   8.205  34.985   1.300
10466W        W78840  37.396  27.503  13.054
10467W        W78841  26.024  29.936  10.990
10468W        W78842  13.159  23.534   4.817
10469W        W78843  15.215   5.874  13.809
10470W        W78844  25.596  36.096   2.352
10471W        W78845  27.048  18.184   1.406
10472W        W78846  26.687   7.720   2.691
10473W        W78847  27.036  13.316  10.616
10474W        W78848  32.128  27.496   4.127
10475W        W78849  34.942  29.571   0.460
10476W        W78850  28.024   5.202   3.161
10477W        W78851  17.141   2.755  14.974
10478W        W78852  12.623  21.540  12.534
10479W        W78853  18.558  39.905   2.341
10480W        W78854   9.226  29.941  13.363
10481W        W78855  14.185  34.414  10.099
10482W        W78856  19.197  20.689  12.932
10483W        W78857   8.277  22.725   4.278
10484W        W78858  39.366  24.687   1.450
10485W        W78859  39.502  11.339   3.183
10486W        W78860  22.569  14.182  12.945
10487W        W78861   4.220   4.415  14.947
10488W        W78862  26.623  31.585   4.212
10489W        W78863  42.975  20.236   3.807
10490W        W78864  31.126  44.435  12.919
10491W        W78865   7.293  37.575  14.900
10492W        W78866  42.784  28.493  14.490
10493W        W78867  15.673  20.590  13.363
10494W        W78868  20.579  33.586   2.767
10495W        W78869   6.215  40.820  14.813
10496W        W78870  33.424  19.158  12.375
10497W        W78871  25.614  31.034   0.956
10498W        W78872  29.016  11.183   0.478
10499W        W78873   2.462  12.246  12.897
10500W        W78874  18.062   6.185  10.903
10501W        W78875  41.495  40.543   2.381
10502W        W78876  34.966  37.568  13.846
10503W        W78877  43.509  41.438  14.447
10504W        W78878   0.277  20.544   1.365
10505W        W78879  23.706  38.844  13.368
10506W        W78880  10.176  11.325   9.961
10507W        W78881  38.950  35.360  10.092
10508W        W78882  38.857  18.620   1.383
10509W        W78883  44.913  37.349   3.161
10510W        W78884   9.360  32.925   2.781
10511W        W78885  18.120  38.455  12.446
10512W        W78886  25.038  41.950   1.873
10513W        W78887  37.069   9.367  10.634
10514W        W78888   4.785  27.496  10.014
10515W        W78889  24.980  27.565   0.313
10516W        W78890  13.231  11.660   0.940
10517W        W78891  10.185  14.714   2.271
10518W        W78892  40.303  19.717  10.557
10519W        W78893  41.354  10.823  11.055
10520W        W78894  19.281  25.564  14.415
10521W        W78895  18.734  34.594   1.288
10522W        W78896  37.422  26.170  13.064
10523W        W78897  16.800  28.141  12.567
10524W        W78898  10.175   3.246   5.095
10525W        W78899  24.561   2.888  11.117
10526W        W78900   9.171  15.173  14.849
10527W        W78901   8.889  43.949  13.935
10528W        W78902  26.665   6.421  12.369
10529W        W78903   1.849  35.514  10.932
10530W        W78904  36.455   7.768  12.844
10531W        W78905   2.745   9.220   1.787
10532W        W78906  26.180  24.667  11.546
10533W        W78907  14.218   9.263   4.340
10534W        W78908  38.350  33.445  12.079
10535W        W78909  19.711   9.726   2.744
10536W        W78910   1.858  34.392   4.751
10537W        W78911  19.662   2.467   3.188
10538W        W78912  12.240  30.577  12.441
10539W        W78913  25.140   3.798  12.502
10540W        W78914  26.099   5.254   0.478
10541W        W78915  27.669  20.743   2.362
10542W        W78916  27.585  17.289  10.546
10543W        W78917  36.870  11.636   0.460
10544W        W78918  12.119  27.592   2.326
10545W        W78919  26.617  18.295   0.728
10546W        W78920   7.861  31.457  10.623
10547W        W78921  39.041  21.560  11.420
10548W        W78922  39.534   6.910  14.780
10549W        W78923  37.884  40.422  11.085
10550W        W78924  10.229  33.593   1.279
10551W        W78925  34.461  15.135  10.525
10552W        W78926   9.765  35.880   2.760
10553W        W78927  12.328  19.604   3.350
10554W        W78928  41.438  42.404   4.338
10555W        W78929  15.741  30.523  13.005
10556W        W78930  10.873  37.049  12.445
10557W        W78931   8.777  43.018  10.546
10558W        W78932   2.243  22.685  13.910
10559W        W78933  28.497   4.432  12.520
10560W        W78934  41.295  22.074   2.297
10561W        W78935  21.559  37.387  10.521
10562W        W78936  10.874   9.855   2.783
10563W        W78937  28.037   1.399  10.920
10564W        W78938  39.885  15.151   3.322
10565W        W78939   1.823  10.658  12.534
10566W        W78940  44.962  10.188  10.151
10567W        W78941  12.808   5.380  12.943
10568W        W78942  19.119   1.855  12.362
10569W        W78943   5.230  36.895  12.356
10570W        W78944   9.880  22.605  12.389
10571W        W78945  25.691  20.113   1.909
10572W        W78946  32.034   2.400   3.712
10573W        W78947  19.644  36.946   3.749
10574W        W78948   7.840   6.783  10.619
10575W        W78949  33.598   6.224   2.863
10576W        W78950  27.064  20.185  11.072
10577W        W78951  25.975  18.773  11.087
10578W        W78952  26.673  33.898   1.404
10579W        W78953  22.502   0.261   4.747
10580W        W78954  24.199  31.073   1.316
10581W        W78955  33.976   9.172   4.115
10582W        W78956  39.051   3.458   1.226
10583W        W78957  26.010   6.409  12.391
10584W        W78958  18.093  17.751  11.015
10585W        W78959   2.295  29.658   3.294
10586W        W78960  15.603   9.348  13.015
10587W        W78961  22.582   9.226  12.969
10588W        W78962  33.520  19.603   3.366
10589W        W78963  26.030  11.165   3.713
10590W        W78964  23.036   2.881   1.421
10591W        W78965  16.726  19.741   2.278
10592W        W78966  28.505  21.225  12.037
10593W        W78967  21.102  35.507  14.350
10594W        W78968  38.941  44.333  14.351
10595W        W78969   0.445  35.873  10.948
10596W        W78970  30.474  14.611   4.797
10597W        W78971  31.466  27.520   0.340
10598W        W78972   0.397  33.943   1.302
10599W        W78973   9.883  34.589   2.880
10600W        W78974  33.420  15.579   2.348
10601W        W78975   2.320  10.642   4.636
10602W        W78976   3.322  30.418  13.436
10603W        W78977  26.120  25.499   3.225
10604W        W78978  43.483  34.062   0.769
10605W        W78979  25.132   7.905  13.403
10606W        W78980  25.096   5.725  14.341
10607W        W78981  17.118  11.855  14.331
10608W        W78982  37.856  23.693   0.829
10609W        W78983   2.438  25.098   2.846
10610W        W78984  25.531  25.993   4.146
10611W        W78985  24.108  39.009   3.753
10612W        W78986  23.693  29.012  13.040
10613W        W78987   3.457   2.344  10.470
10614W        W78988  30.628  33.445   2.350
10615W        W78989   3.416  44.348   4.259
10616W        W78990  36.462  27.191  11.609
10617W        W78991  29.073  13.197   0.777
10618W        W78992  40.820   1.771  13.948
10619W        W78993  42.973  40.393  10.587
10620W        W78994  25.211  29.943  10.994
10621W        W78995  17.061   3.917   1.384
10622W        W78996  33.879  32.495   3.841
10623W        W78997  24.024  28.007  14.003
10624W        W78998  23.718  14.275  13.017
10625W        W78999   9.676  28.985   4.619
10626W        W79000  18.060  32.475   0.909
10627W        W79001  35.947  38.510   0.764
10628W        W79002  42.356  44.886   3.184
10629W        W79003  43.902  29.943   4.679
10630W        W79004  11.705  42.829  14.833
10631W        W79005  14.614   8.747  12.378
10632W        W79006  35.398  32.530   0.359
10633W        W79007  27.455  27.168   3.303
10634W        W79008  32.018   8.314  13.040
10635W        W79009  24.154  13.708   0.753
10636W        W79010   4.359   9.889   2.333
10637W        W79011   1.405  28.441   2.782
10638W        W79012  17.167   2.257  14.878
10639W        W79013  44.374   4.290   1.903
10640W        W79014  42.892  25.035  12.884
10641W        W79015   4.846  23.100  10.638
10642W        W79016   2.350  31.042   1.786
10643W        W79017  19.615  12.785   1.918
10644W        W79018  15.302  14.131   0.965
10645W        W79019  14.677   9.732  14.476
10646W        W79020  41.935  18.553  11.004
10647W        W79021  41.477  40.835  12.470
10648W        W79022  31.928  42.391  12.395
10649W        W79023   7.839   7.801  11.475
10650W        W79024  21.585  24.507  13.040
10651W        W79025  40.407  23.115   1.834
10652W        W79026  23.188  36.918  13.359
10653W        W79027  27.516  15.209  10.570
10654W        W79028  44.269  41.901   1.894
10655W        W79029   8.374  17.086   3.185
10656W        W79030  18.261  26.567   4.795
10657W        W79031  14.818  15.226   2.232
10658W        W79032  16.248  15.644   2.322
10659W        W79033  14.156  11.217   4.175
10660W        W79034  14.317  27.116  13.992
10661W        W79035   1.735  28.083   0.857
10662W        W79036  28.044  33.481   2.292
10663W        W79037   6.750  32.433  11.939
10664W        W79038   3.303  19.171  12.046
10665W        W79039  40.419  15.293  13.466
10666W        W79040  34.894   4.719   4.226
10667W        W79041  23.578  41.478  13.834
10668W        W79042  33.116   0.929  12.994
10669W        W79043  17.756  15.088   2.771
10670W        W79044  15.686  30.908   2.246
10671W        W79045  26.696   5.394   1.233
10672W        W79046  34.949   0.865  12.534
10673W        W79047  16.569   0.315  12.489
10674W        W79048  15.300  21.522   3.822
10675W        W79049  36.349  12.824   2.351
10676W        W79050  23.504  42.516   3.869
10677W        W79051  11.761  41.433  14.374
10678W        W79052  18.094  15.210  12.484
10679W        W79053   3.755  19.730  12.430
10680W        W79054  25.158  32.080  11.009
10681W        W79055   4.367  40.871  11.582
10682W        W79056  35.049   8.691  11.067
10683W        W79057   7.175  13.247   0.387
10684W        W79058  16.607  38.538   4.796
10685W        W79059  18.716   4.846   2.244
10686W        W79060  19.737  18.551   3.676
10687W        W79061  43.395  30.598   3.769
10688W        W79062   6.826   1.966   3.234
10689W        W79063  31.552  31.944  14.468
10690W        W79064  10.752  40.910  12.460
10691W        W79065  42.410  27.584   0.433
10692W        W79066  25.021  32.002  13.910
10693W        W79067  24.609  10.800  11.511
10694W        W79068  39.036  16.150  13.504
10695W        W79069   7.709  33.586   3.745
10696W        W79070   0.309  20.036  14.322
10697W        W79071  23.057  25.674   3.300
10698W        W79072  29.971  31.532  14.304
10699W        W79073   7.730   4.892  14.502
10700W        W79074  12.711  14.670   0.859
10701W        W79075  41.805  20.139   4.829
10702W        W79076  31.091  32.079   4.796
10703W        W79077   1.799  26.145   0.248
10704W        W79078  20.634  28.064   3.358
10705W        W79079  24.002  44.966   1.793
10706W        W79080  34.442  41.501  12.875
10707W        W79081  20.152  21.021   2.664
10708W        W79082   3.419  15.694   4.128
10709W        W79083   9.318   2.763  14.807
10710W        W79084  38.421  15.204  14.006
10711W        W79085  18.223   3.735   4.831
10712W        W79086  26.690  18.759  13.423
10713W        W79087  38.435  32.944   0.437
10714W        W79088  15.126  21.227  10.589
10715W        W79089   5.223  38.870   3.366
10716W        W79090   4.757  35.085   2.867
10717W        W79091  13.743  33.107  14.900
10718W        W79092  17.773  21.648  13.949
10719W        W79093   3.417   5.826  12.339
10720W        W79094   3.287  38.434   0.452
10721W        W79095  10.335  40.453   4.188
10722W        W79096  43.298  38.431  12.008
10723W        W79097  44.807  21.119   2.811
10724W        W79098   4.803  22.152  14.759
10725W        W79099  28.959  27.090  14.453
10726W        W79100  41.885  40.383  14.894
10727W        W79101  14.174  38.884  10.405
10728W        W79102  14.810   5.774  14.463
10729W        W79103   9.742   0.470  14.324
10730W        W79104  31.631  28.469  13.036
10731W        W79105  42.826  18.057   2.868
10732W        W79106  24.534  43.467  10.508
10733W        W79107   3.785  33.917   1.353
10734W        W79108  33.436  33.578   4.620
10735W        W79109  42.378  44.908  13.539
10736W        W79110   1.304   1.973   4.190
10737W        W79111  31.415   3.765   1.394
10738W        W79112   9.261  34.070   0.779
10739W        W79113  11.174  13.277   1.331
10740W        W79114  44.384  38.553   4.139
10741W        W79115  21.175  12.282  11.947
10742W        W79116  20.261  13.750  11.433
10743W        W79117  33.463   3.433  13.996
10744W        W79118   7.725  17.586   1.221
10745W        W79119  16.093  10.251  12.895
10746W        W79120  40.850  10.268   2.354
10747W        W79121  11.862  11.348   1.213
10748W        W79122  38.560  16.610  13.509
10749W        W79123  36.992   3.250  10.947
10750W        W79124  32.511  25.675  11.456
10751W        W79125  11.327  24.106   2.780
10752W        W79126  30.113  39.031   4.336
10753W        W79127  14.807  12.783   0.774
10754W        W79128  43.375   6.313   4.678
10755W        W79129  29.575  26.702  12.553
10756W        W79130  14.683  17.769   4.279
10757W        W79131  33.394  25.653   1.855
10758W        W79132  34.516  36.977  12.837
10759W        W79133  11.760  39.382  14.385
10760W        W79134  16.212   9.149   1.401
10761W        W79135   0.280  14.588  12.488
10762W        W79136  37.929  41.999  12.958
10763W        W79137  27.656   1.432   1.796
10764W        W79138  36.514  31.106  10.559
10765W        W79139  24.564  38.493   2.399
10766W        W79140   2.800  40.329   1.416
10767W        W79141   5.737  29.582   2.340
10768W        W79142  20.560   5.250  12.373
10769W        W79143  19.665  27.462  12.494
10770W        W79144  35.882  37.345   4.811
10771W        W79145  22.075  33.540  12.571
10772W        W79146   7.683  14.655  11.888
10773W        W79147  12.671  39.063   2.851
10774W        W79148  22.630   7.681  12.017
10775W        W79149  42.890  33.623   0.850
10776W        W79150  38.525  38.395   1.346
10777W        W79151   1.345   7.258  11.946
10778W        W79152  13.830  41.892   3.664
10779W        W79153  30.950  19.673  13.344
10780W        W79154  13.774  25.141  12.889
10781W        W79155  42.887   7.217  12.034
10782W        W79156  16.805  16.165  10.963
10783W        W79157  41.908  34.400   3.317
10784W        W79158  15.712   5.876   3.759
10785W        W79159  29.645  17.204  12.387
10786W        W79160  31.451  40.931  11.524
10787W        W79161  39.841  28.935   2.364
10788W        W79162  24.024  17.558  14.295
10789W        W79163  13.197  33.080  12.521
10790W        W79164  44.826   2.226  14.463
10791W        W79165  33.400  27.048   2.227
10792W        W79166  11.217  23.638  11.001
10793W        W79167  20.209  20.212  14.909
10794W        W79168  41.865  42.883   1.730
10795W        W79169   3.377   7.770  10.942
10796W        W79170  37.041  20.143   2.683
10797W        W79171  34.111   8.293  11.988
10798W        W79172  26.951  30.010  11.459
10799W        W79173  26.208  11.266  10.974
10800W        W79174  33.078  28.180  12.955
10801W        W79175   0.841  18.134  12.513
10802W        W79176  41.824  24.129  10.472
10803W        W79177  11.640  36.480   0.359
10804W        W79178  23.088  32.923  10.994
10805W        W79179  21.529  33.603  13.374
10806W        W79180   7.736  10.152  14.832
10807W        W79181  44.801  39.505  11.107
10808W        W79182   4.728  11.208  14.981
10809W        W79183  11.794  39.483   0.401
10810W        W79184  12.719  13.189  14.313
10811W        W79185  29.473  29.175   2.338
10812W        W79186   2.295  29.951   3.848
10813W        W79187  32.449  39.317   2.663
10814W        W79188  26.153   5.704  11.604
10815W        W79189  24.693  23.566   3.839
10816W        W79190  27.529   4.320  14.889
10817W        W79191  33.102   3.247   0.349
10818W        W79192  13.317   1.785   5.306
10819W        W79193  38.478   1.974   3.197
10820W        W79194  10.834  10.366  14.331
10821W        W79195   5.728  30.110  11.018
10822W        W79196  28.164  33.982  10.470
10823W        W79197  37.972  38.532   2.859
10824W        W79198  34.077  42.913  11.588
10825W        W79199  20.076   2.897  11.997
10826W        W79200  16.689  16.199   4.270
10827W        W79201   3.393  44.829   3.801
10828W        W79202   7.765  26.158   4.249
10829W        W79203  20.716  38.831   0.794
10830W        W79204  25.602   7.243  11.373
10831W        W79205   6.877  28.077  13.979
10832W        W79206  27.103  27.644   1.402
10833W        W79207  39.507  42.989  11.960
10834W        W79208   5.406  33.447   0.756
10835W        W79209   3.218  16.097   3.151
10836W        W79210   1.818   6.851  14.318
10837W        W79211  31.409  17.183  11.490
10838W        W79212   9.226  24.187   1.257
10839W        W79213  40.934  44.991   2.400
10840W        W79214   7.307   3.433  13.410
10841W        W79215  22.088   5.201  13.845
10842W        W79216  21.229  26.563   0.364
10843W        W79217  27.482  25.635  11.892
10844W        W79218  30.973  31.452  14.986
10845W        W79219  12.282  33.436  12.086
10846W        W79220  36.534  44.412  10.576
10847W        W79221  43.272  26.045   2.339
10848W        W79222  41.366  24.043  14.016
10849W        W79223  35.535  10.183  11.960
10850W        W79224  39.317  26.627  14.899
10851W        W79225  44.476  22.170  13.399
10852W        W79226  21.642  11.630  12.441
10853W        W79227  23.558  37.040   0.447
10854W        W79228  20.271  16.318   2.365
10855W        W79229  33.115  34.090   2.816
10856W        W79230  36.068   1.741   1.246
10857W        W79231  31.590  29.563   3.823
10858W        W79232   6.789  10.791   2.210
10859W        W79233   3.384  11.635   3.302
10860W        W79234   7.238  28.051   4.686
10861W        W79235   4.714  31.930  13.515
10862W        W79236   8.808  10.711   2.880
10863W        W79237  29.623  33.086   0.759
10864W        W79238   0.448  18.716   2.756
10865W        W79239  26.047  25.650   3.790
10866W        W79240  30.542   9.804  13.496
10867W        W79241  30.033  19.114  10.455
10868W        W79242  42.985  26.655   2.767
10869W        W79243  36.380  38.365   0.943
10870W        W79244   5.237   8.212   1.325
10871W        W79245  29.042  14.832  14.904
10872W        W79246   3.930   2.874  14.986
10873W        W79247  16.093  17.305   0.373
10874W        W79248  39.497  36.087   5.223
10875W        W79249  17.698   1.942   0.333
10876W        W79250  25.469  15.674   5.791
10877W        W79251   1.344  42.869   2.347
10878W        W79252  44.756  18.181   3.733
10879W        W79253  10.803  24.198  11.541
10880W        W79254   8.684  36.528   2.739
10881W        W79255  35.948  18.739   0.252
10882W        W79256   0.348  28.128   4.352
10883W        W79257   4.709  13.247   1.931
10884W        W79258  26.638  41.818   0.809
10885W        W79259  42.023  25.988   0.401
10886W        W79260  16.100  37.439   2.219
10887W        W79261   8.394   6.722   4.608
10888W        W79262  26.686  42.443  12.964
10889W        W79263  21.132  33.961   0.845
10890W        W79264  13.247  24.480  14.383
10891W        W79265  14.281  35.480   2.851
10892W        W79266  42.820  18.580  14.888
10893W        W79267  16.720  31.913  11.537
10894W        W79268  14.657  27.684   3.774
10895W        W79269   4.854  13.256   2.204
10896W        W79270  43.990  14.171   2.319
10897W        W79271  38.019  41.964   3.200
10898W        W79272  29.925  39.376   1.718
10899W        W79273  15.126   7.683   2.753
10900W        W79274   3.387  24.647  12.363
10901W        W79275   0.959  35.990   2.239
10902W        W79276  31.533  33.126   1.294
10903W        W79277  22.138   5.399   2.400
10904W        W79278   4.726  20.115   2.396
10905W        W79279  39.550   7.261   5.713
10906W        W79280  20.103  34.414  13.320
10907W        W79281   9.280  13.257  11.495
10908W        W79282  44.357  24.178  11.867
10909W        W79283   1.366   2.905  13.998
10910W        W79284  28.523   1.790   3.723
10911W        W79285  12.289  38.956  14.415
10912W        W79286   3.425  44.491   0.454
10913W        W79287  40.477  13.696   2.900
10914W        W79288  34.013  19.711  14.492
10915W        W79289  23.553  19.755  13.374
10916W        W79290  36.535  40.330   4.733
10917W        W79291   8.888  16.754   4.764
10918W        W79292   7.378  44.312   3.669
10919W        W79293  40.475  18.592  14.010
10920W        W79294  18.145  38.048  10.609
10921W        W79295   6.686  27.987   0.891
10922W        W79296  25.025  16.082   4.118
10923W        W79297  12.176  22.126  12.377
10924W        W79298   3.841  34.601   4.727
10925W        W79299  41.917  36.587  14.514
10926W        W79300  10.177   5.413  13.798
10927W        W79301   0.763   5.238   0.480
10928W        W79302  41.469  36.989   0.762
10929W        W79303  33.541  11.844   2.253
10930W        W79304  32.000   3.419   2.738
10931W        W79305  40.332  27.051   4.659
10932W        W79306  32.114  29.087  12.849
10933W        W79307  33.457  38.853   3.264
10934W        W79308  31.963  12.738   0.835
10935W        W79309  13.343  25.582  14.494
10936W        W79310  17.116  30.442  12.966
10937W        W79311  40.337  31.064   1.932
10938W        W79312  16.079  44.372  12.432
10939W        W79313   3.449  24.606  12.083
10940W        W79314  30.985  30.538   1.748
10941W        W79315  12.829  15.655  11.460
10942W        W79316  36.868  19.240  12.042
10943W        W79317   4.264  23.156  12.421
10944W        W79318  39.847   1.293   3.188
10945W        W79319  22.236  33.570  11.984
10946W        W79320  39.386  20.542  12.946
10947W        W79321  12.849   7.805   2.693
10948W        W79322  39.942  11.756  11.402
10949W        W79323  41.418  38.539  14.370
10950W        W79324  21.221  28.047  13.905
10951W        W79325   2.750  23.233   4.320
10952W        W79326  43.964  25.203  12.401
10953W        W79327  36.564   6.807   1.736
10954W        W79328  13.664  13.297  14.503
10955W        W79329   8.232  16.083   3.692
10956W        W79330  39.876  36.060  13.432
10957W        W79331  22.075  24.605  11.111
10958W        W79332  38.567  15.748   1.266
10959W        W79333  10.184  28.014   1.785
10960W        W79334  34.034  40.387  13.381
10961W        W79335   0.339  11.812  12.468
10962W        W79336  12.163   3.403   2.732
10963W        W79337  24.618  17.596  11.926
10964W        W79338   1.342  33.111  14.031
10965W        W79339  13.134  11.144   0.262
10966W        W79340  43.407  15.820  11.954
10967W        W79341   5.259  44.755  12.877
10968W        W79342  33.104  33.436  10.426
10969W        W79343   8.845  14.289  14.488
10970W        W79344  16.777  21.059  11.940
10971W        W79345   4.817  13.739  13.382
10972W        W79346   3.894  21.725   3.758
10973W        W79347  33.046  38.872   0.882
10974W        W79348   6.687  34.404  11.075
10975W        W79349  31.062  39.856   2.373
10976W        W79350  36.499  23.065   2.843
10977W        W79351  22.733  34.056   0.883
10978W        W79352   6.684  14.304   4.278
10979W        W79353  38.463  37.955  13.460
10980W        W79354   9.391   0.865   4.310
10981W        W79355  10.162  31.977   0.908
10982W        W79356  25.103  22.068  11.570
10983W        W79357  27.490  28.548  10.951
10984W        W79358  16.795  29.483   3.183
10985W        W79359  15.702   3.457  11.887
10986W        W79360   6.341  43.970   2.706
10987W        W79361   3.376  14.126   2.325
10988W        W79362  28.657  31.102   1.924
10989W        W79363   7.832  40.007   0.931
10990W        W79364  15.327  38.379  11.100
10991W        W79365  35.385  38.465  11.116
10992W        W79366  14.815  26.999  13.815
10993W        W79367  20.726  16.298  11.000
10994W        W79368  19.618  33.497   0.472
10995W        W79369  31.519  33.007  12.094
10996W        W79370   9.850  19.144   0.303
10997W        W79371  28.514   2.460  11.939
10998W        W79372  31.024   4.289   4.306
10999W        W79373  15.273   7.240  11.989
11000W        W79374  19.689  43.911   4.292
11001W        W79375  39.315  37.890  14.857
11002W        W79376  36.373  31.579  10.536
11003W        W79377  12.763   1.312  11.552
11004W        W79378   3.411   1.931   0.768
11005W        W79379  26.006  27.607  14.903
11006W        W79380  37.471   6.411  14.334
11007W        W79381  23.601  28.108  13.004
11008W        W79382  38.831  34.084  12.087
11009W        W79383  27.658  24.540   1.217
11010W        W79384  28.526   2.938   4.808
11011W        W79385   5.814  10.235   2.209
11012W        W79386  28.015  38.000  11.465
11013W        W79387  31.990  11.218  13.336
11014W        W79388  16.179  33.119   0.786
11015W        W79389  14.129  28.668  10.897
11016W        W79390  15.160  36.408  13.911
11017W        W79391  20.555  40.881   1.718
11018W        W79392   8.242  13.237   1.859
11019W        W79393   6.790   9.299   0.872
11020W        W79394  35.971   1.747  10.959
11021W        W79395  30.626  44.404  12.826
11022W        W79396  25.086   4.864   2.321
11023W        W79397  15.296  23.078  11.060
11024W        W79398  18.215   5.897   4.658
11025W        W79399  23.097  17.155   2.232
11026W        W79400   2.420  16.694  12.429
11027W        W79401   1.965  40.494  12.897
11028W        W79402  16.303  39.557   3.646
11029W        W79403  12.649   0.926  14.802
11030W        W79404  36.847  22.683  14.511
11031W        W79405  17.620  25.630  11.046
11032W        W79406  23.550  32.898  10.587
11033W        W79407  12.245  40.974   1.860
11034W        W79408  27.161   3.783  12.483
11035W        W79409  10.810  37.409  11.902
11036W        W79410  24.173   5.343   0.939
11037W        W79411  13.735  37.569   0.399
11038W        W79412  25.067  26.085   4.657
11039W        W79413  21.041  15.760  12.410
11040W        W79414  15.137   1.896   1.396
11041W        W79415  27.611  28.536  10.503
11042W        W79416  41.861  30.074   0.432
11043W        W79417  11.280  34.461  10.603
11044W        W79418  44.785  31.907   2.326
11045W        W79419  22.183  13.641  13.320
11046W        W79420   2.928  12.329  14.991
11047W        W79421  42.500  12.642   4.325
11048W        W79422   4.847  36.400   0.882
11049W        W79423  10.834  24.646  12.482
11050W        W79424  21.718  23.072   2.366
11051W        W79425  10.800  35.431  11.050
11052W        W79426  36.962  24.592  12.068
11053W        W79427  39.513  31.478   0.816
11054W        W79428  39.545  29.950   3.335
11055W        W79429  37.863  44.382  12.985
11056W        W79430  44.892  29.657  14.947
11057W        W79431  22.137  39.817  10.102
11058W        W79432  10.841  26.121   0.896
11059W        W79433  32.114  27.172   4.268
11060W        W79434   3.799  20.576   2.869
11061W        W79435   0.965   4.799  13.348
11062W        W79436  21.186  29.438   2.408
11063W        W79437  29.508  32.632   2.783
11064W        W79438   9.212  35.049  14.850
11065W        W79439   8.712  26.628   2.323
11066W        W79440  35.031  40.492  10.923
11067W        W79441   5.387  31.564   4.147
11068W        W79442  16.724  14.208  11.111
11069W        W79443  36.440  43.775  12.908
11070W        W79444   0.401  40.961  10.957
11071W        W79445   5.267  18.058   1.360
11072W        W79446   9.671  37.395  14.860
11073W        W79447   6.739  19.736   3.803
11074W        W79448  31.635  43.320   2.210
11075W        W79449  24.004  19.192   1.807
11076W        W79450  13.736  36.982  13.376
11077W        W79451   5.278  38.049  11.552
11078W        W79452  32.532  16.075  13.794
11079W        W79453  43.897  16.236  14.023
11080W        W79454   2.294  25.684   4.154
11081W        W79455  42.951  11.350   3.150
11082W        W79456  16.743  24.695   0.948
11083W        W79457  21.241   6.856  10.527
11084W        W79458  13.754  44.928  14.399
11085W        W79459  38.362  28.556   2.699
11086W        W79460   0.443  37.517  13.400
11087W        W79461   6.282  13.843   1.920
11088W        W79462  30.423  35.857  13.876
11089W        W79463  13.162  17.585   1.743
11090W        W79464  34.080  39.937   0.726
11091W        W79465  10.866  44.900   1.234
11092W        W79466  18.777  44.346  11.040
11093W        W79467   2.457   1.292   4.797
11094W        W79468  21.718  13.246   2.181
11095W        W79469  41.815  27.077   0.405
11096W        W79470   1.297  26.008  11.470
11097W        W79471  44.905  15.123   4.335
11098W        W79472   5.918  13.728  13.923
11099W        W79473  15.140   7.231  14.822
11100W        W79474  15.752   9.662  14.516
11101W        W79475  34.407  22.070   4.657
11102W        W79476  42.298  13.649  11.383
11103W        W79477  22.249  43.827   2.262
11104W        W79478  29.161  13.259  13.339
11105W        W79479  19.696  23.078  12.958
11106W        W79480  20.124  31.102  10.635
11107W        W79481   0.916  24.676   2.662
11108W        W79482  13.679  36.017  14.398
11109W        W79483  22.691  25.488  12.987
11110W        W79484   4.873   2.773   1.269
11111W        W79485  12.814  36.869  14.342
11112W        W79486  12.223  24.165  11.962
11113W        W79487  42.505  19.724  13.833
11114W        W79488  14.119  12.354  10.560
11115W        W79489   0.356  11.807   0.731
11116W        W79490  43.776   6.838   2.189
11117W        W79491   9.371  27.162   1.786
11118W        W79492  31.065  16.674  12.465
11119W        W79493  23.177  35.406   3.217
11120W        W79494  36.894  44.776  11.528
11121W        W79495  39.980  31.047   4.688
11122W        W79496   3.855  42.798   2.382
11123W        W79497   8.750  16.726   1.284
11124W        W79498  23.172  27.989   3.189
11125W        W79499  24.187  44.463   0.301
11126W        W79500  43.297  27.466  10.565
11127W        W79501   0.864  37.951   0.409
11128W        W79502  24.207  16.795  10.923
11129W        W79503  18.097  15.723  11.418
11130W        W79504  18.615  24.068   3.202
11131W        W79505  17.100  34.939  11.547
11132W        W79506  44.455  21.657  11.920
11133W        W79507  30.635  12.845  13.944
11134W        W79508  21.743  27.625   0.909
11135W        W79509  27.157  30.069   4.711
11136W        W79510  37.438   0.781  13.977
11137W        W79511   7.319  22.037  11.451
11138W        W79512  27.464   5.882   2.377
11139W        W79513  17.780  10.272   4.182
11140W        W79514  10.196  16.686  13.461
11141W        W79515   8.403   5.289  10.571
11142W        W79516   6.373  42.518   4.696
11143W        W79517   0.775   7.329   1.920
11144W        W79518  11.742  17.606   1.701
11145W        W79519  25.052  16.126  14.514
11146W        W79520  25.974  35.547  12.090
11147W        W79521   3.369  18.263  10.447
11148W        W79522   0.958  27.986  10.572
11149W        W79523  42.905   5.328   4.837
11150W        W79524  26.002  11.838  14.902
11151W        W79525  10.165  15.328   2.254
11152W        W79526   7.219  36.488   3.721
11153W        W79527  24.112  23.143   2.823
11154W        W79528   1.237  14.633  10.471
11155W        W79529  32.578  40.482   4.272
11156W        W79530   6.711  13.673  14.462
11157W        W79531  36.096  17.141   0.465
11158W        W79532  33.981  10.345   4.192
11159W        W79533  33.544   9.251   3.167
11160W        W79534  25.502   0.316   3.172
11161W        W79535   1.251   9.701  11.553
11162W        W79536  17.584  32.544   3.284
11163W        W79537  10.273   1.385  13.363
11164W        W79538  36.990  17.247   3.729
11165W        W79539  14.189  37.539  13.449
11166W        W79540  17.253  10.349   0.795
11167W        W79541   8.690  10.765  13.540
11168W        W79542  13.346  13.263  14.823
11169W        W79543   1.372  33.086  11.061
11170W        W79544  42.920  32.401   4.682
11171W        W79545  35.911   1.428  12.038
11172W        W79546  17.187  17.733  14.427
11173W        W79547  25.974   5.324  14.353
11174W        W79548   6.249   7.688   4.324
11175W        W79549   5.702  40.342   4.264
11176W        W79550  36.870  35.518  13.511
11177W        W79551  10.700  19.067  14.960
11178W        W79552  25.188  41.940   1.300
11179W        W79553  41.811  33.961   0.450
11180W        W79554  13.221   0.439  10.605
11181W        W79555   4.765   5.393  11.044
11182W        W79556   0.422  29.552  14.285
11183W        W79557  10.672  44.341   4.779
11184W        W79558  38.978  30.588   0.748
11185W        W79559  27.501   5.304   0.257
11186W        W79560  13.140  11.790  13.973
11187W        W79561  21.701  18.073  10.429
11188W        W79562  27.071  10.147   1.331
11189W        W79563  20.267  11.758  14.282
11190W        W79564   9.822   5.298   0.812
11191W        W79565  35.069  30.140  11.859
11192W        W79566  44.975  43.334  12.420
11193W        W79567  14.815  38.330   3.352
11194W        W79568  13.281  30.965   3.856
11195W        W79569  25.995  15.307   1.764
11196W        W79570  32.916  21.654   1.758
11197W        W79571   1.978   8.163   4.235
11198W        W79572  12.320  28.447  14.304
11199W        W79573  35.554  11.865   0.904
11200W        W79574   4.928  39.974   2.415
11201W        W79575   4.278  15.093  12.543
11202W        W79576  41.530  10.773   2.263
11203W        W79577  21.534  11.676  10.030
11204W        W79578  35.964   2.770   3.330
11205W        W79579  10.848   4.788   1.247
11206W        W79580   1.302   0.828   3.825
11207W        W79581  41.908   8.275   4.707
11208W        W79582  44.836  41.324  12.844
11209W        W79583  20.102  10.307  13.428
11210W        W79584  23.629  13.316   3.658
11211W        W79585  42.509  25.040   4.126
11212W        W79586  38.043   7.719  11.481
11213W        W79587  34.903  43.389  13.350
11214W        W79588  33.553  26.503   5.263
11215W        W79589  38.984  20.756   0.390
11216W        W79590  42.419  18.578   0.915
11217W        W79591  18.055  36.485  14.481
11218W        W79592  40.900  40.966  10.472
11219W        W79593  19.214  25.629  13.464
11220W        W79594  15.739  30.573  10.142
11221W        W79595  12.269  31.489  11.865
11222W        W79596  32.005  33.071  12.977
11223W        W79597   8.799   5.229   1.236
11224W        W79598   6.391   8.807   0.814
11225W        W79599  17.119  24.070  12.846
11226W        W79600  28.168  40.372   9.935
11227W        W79601   0.280  41.876  14.504
11228W        W79602  13.216   7.175   1.243
11229W        W79603  18.241  42.287   4.217
11230W        W79604  31.935   4.263   0.408
11231W        W79605   6.911   7.693   3.685
11232W        W79606   4.702  35.416  14.377
11233W        W79607  10.747  34.600   1.793
11234W        W79608   1.795   0.953  14.861
11235W        W79609  41.876   3.824  14.922
11236W        W79610  21.085  41.964  13.023
11237W        W79611  40.546  14.094  11.605
11238W        W79612  14.749   4.400   4.795
11239W        W79613   4.731  38.422   2.184
11240W        W79614  17.146  42.521  14.434
11241W        W79615  25.117  33.572   2.316
11242W        W79616  17.299  11.236  10.966
11243W        W79617  16.721  21.599   0.379
11244W        W79618  38.874   0.976   4.293
11245W        W79619  31.521  29.944   2.837
11246W        W79620  13.243   4.230  14.358
11247W        W79621   2.280  27.509   2.766
11248W        W79622  40.494   9.167   2.793
11249W        W79623  24.130  10.826   4.714
11250W        W79624  30.647   5.873  11.506
11251W        W79625   6.826  31.615   2.330
11252W        W79626  34.111  41.446   4.681
11253W        W79627  16.104  43.945   1.232
11254W        W79628  15.130  18.739   4.799
11255W        W79629  18.568  27.158   3.283
11256W        W79630  11.735   4.222   1.725
11257W        W79631  15.691   5.780   1.923
11258W        W79632   9.644  22.223  11.052
11259W        W79633  35.603  16.741   4.649
11260W        W79634   3.421  39.315   0.298
11261W        W79635   3.386  15.222   3.752
11262W        W79636  29.616  30.133   1.218
11263W        W79637  32.999  32.134   2.410
11264W        W79638  41.019  14.829   1.268
11265W        W79639  32.032   1.258   3.784
11266W        W79640  23.030  36.007  11.054
11267W        W79641   3.365  40.854   1.213
11268W        W79642  41.486  28.955  13.822
11269W        W79643   4.826  23.521   2.709
11270W        W79644  34.048  14.790   4.668
11271W        W79645   6.190  27.054   0.866
11272W        W79646  34.403  27.184  12.392
11273W        W79647   8.379  11.145  12.888
11274W        W79648  20.683  33.579  11.479
11275W        W79649  19.599  14.253  14.926
11276W        W79650  34.097   1.276   4.194
11277W        W79651  24.525  21.046   3.738
11278W        W79652   2.809  30.930   1.807
11279W        W79653  40.052   2.830  12.364
11280W        W79654   7.903  41.833   3.731
11281W        W79655  22.715   0.313  14.335
11282W        W79656  15.592  28.016   2.338
11283W        W79657   3.732  22.138   3.728
11284W        W79658   4.447  28.646  11.998
11285W        W79659   0.875  19.577  11.409
11286W        W79660  36.472  11.355   4.164
11287W        W79661  18.063  37.553   4.617
11288W        W79662  28.640   9.660  10.428
11289W        W79663   8.361  15.769   1.749
11290W        W79664  41.535  22.037   3.384
11291W        W79665   7.280  39.917  14.490
11292W        W79666  32.114   3.309   3.386
11293W        W79667  12.835  31.047   0.939
11294W        W79668  41.929  31.116   3.640
11295W        W79669  38.371   1.362   4.750
11296W        W79670  31.437  15.268   4.290
11297W        W79671  30.493  43.770  12.075
11298W        W79672  44.941  34.547  13.970
11299W        W79673   5.222  32.887   0.461
11300W        W79674  33.035  28.179  13.856
11301W        W79675   0.287  18.634   4.710
11302W        W79676  17.190  20.145  14.785
11303W        W79677  39.000  29.643  14.365
11304W        W79678  18.123  26.197  10.591
11305W        W79679   4.322  26.647  13.456
11306W        W79680  30.437   4.304   1.253
11307W        W79681   2.832  43.885   0.918
11308W        W79682  24.509   2.763   2.367
11309W        W79683  27.535  15.243   4.124
11310W        W79684  44.275  38.539   3.245
11311W        W79685  44.815  36.519  11.602
11312W        W79686  42.332  26.597   3.279
11313W        W79687  14.723  32.094   3.864
11314W        W79688  23.032   0.453   0.465
11315W        W79689   3.389   1.775  13.998
11316W        W79690  21.683  11.778  10.967
11317W        W79691  42.495  25.547  13.955
11318W        W79692  11.657  21.155  11.959
11319W        W79693  26.122  41.938   1.786
11320W        W79694   0.358   0.845  11.576
11321W        W79695   8.296  29.160  12.485
11322W        W79696   6.182  31.574   1.915
11323W        W79697  12.718  25.197  14.427
11324W        W79698   7.818  19.572   1.282
11325W        W79699  29.091  11.865   4.658
11326W        W79700   8.708  36.074  13.854
11327W        W79701  37.842  20.556  13.910
11328W        W79702  44.347  38.022   2.683
11329W        W79703   8.828   9.341  14.993
11330W        W79704   8.257  19.144  11.127
11331W        W79705  35.019  44.276  10.604
11332W        W79706  21.030  36.010   3.157
11333W        W79707  20.674  22.691  12.095
11334W        W79708  40.304   7.812   2.261
11335W        W79709  21.178  18.188  13.395
11336W        W79710  34.083  22.110  13.813
11337W        W79711  36.508  43.955   0.736
11338W        W79712   1.849   1.873  11.474
11339W        W79713  35.078  15.147   3.268
11340W        W79714  30.039  11.357  11.433
11341W        W79715  43.336  39.512   4.274
11342W        W79716  30.130   6.750   2.229
11343W        W79717  26.468   2.414  13.488
11344W        W79718  13.713  26.466   2.383
11345W        W79719  31.625  37.053   3.833
11346W        W79720  18.562  27.145  12.942
11347W        W79721  31.547   5.245   4.320
11348W        W79722  12.222   2.740  10.984
11349W        W79723  29.949   7.893  12.912
11350W        W79724   0.891  39.345  11.979
11351W        W79725  32.448   0.387  12.395
11352W        W79726   6.909  43.343  12.446
11353W        W79727   6.357   4.901  10.071
11354W        W79728  32.922   9.260  13.328
11355W        W79729  38.389  26.692  13.459
11356W        W79730  43.364  11.743   3.173
11357W        W79731  30.123  35.934  12.998
11358W        W79732  36.392  35.946   5.207
11359W        W79733  28.091   6.852   4.206
11360W        W79734  11.307  44.887  13.519
11361W        W79735  11.704  38.983  11.105
11362W        W79736  25.663  44.955  13.890
11363W        W79737  21.162   2.452  14.387
11364W        W79738  26.018  14.224   0.329
11365W        W79739  35.036  32.487   1.226
11366W        W79740   0.371  26.973  11.496
11367W        W79741  30.084  12.736  11.088
11368W        W79742  19.224   6.692   1.773
11369W        W79743  37.993  40.398   3.731
11370W        W79744  17.693  28.562   0.867
11371W        W79745  30.109  27.590   3.206
11372W        W79746  27.641   9.163  14.969
11373W        W79747  18.723  11.864  14.458
11374W        W79748  29.498  26.491   4.263
11375W        W79749  12.331  42.441  10.988
11376W        W79750  11.313  28.611   3.227
11377W        W79751  13.252   6.374  14.397
11378W        W79752  34.078  31.103   3.701
11379W        W79753  29.950   2.807   3.340
11380W        W79754   7.802  26.206  12.506
11381W        W79755  22.702  27.588  13.907
11382W        W79756  27.141   1.285  10.532
11383W        W79757  14.714  39.034   1.755
11384W        W79758  28.980  34.059   4.134
11385W        W79759   4.796  17.558  13.953
11386W        W79760  43.516  39.035   1.846
11387W        W79761  27.466  27.493  10.644
11388W        W79762  23.061   5.819  13.945
11389W        W79763  22.610  20.724   1.414
11390W        W79764  29.931  11.744   3.864
11391W        W79765   2.856  33.616   4.335
11392W        W79766  10.320  29.585  13.891
11393W        W79767  22.077  15.267   3.195
11394W        W79768  36.465  38.933  13.956
11395W        W79769  28.092  24.538  11.053
11396W        W79770  11.647  36.429   4.750
11397W        W79771  18.689   2.464  12.052
11398W        W79772  35.043  20.255   4.693
11399W        W79773   2.323  39.339  13.826
11400W        W79774  27.101  38.025   0.945
11401W        W79775  44.965  20.711  10.920
11402W        W79776  23.554  24.616   2.178
11403W        W79777  35.936   4.852  12.964
11404W        W79778  26.977   4.317  13.504
11405W        W79779  12.719  37.977   0.272
11406W        W79780  26.025   0.455   3.204
11407W        W79781  37.399  24.611  11.410
11408W        W79782   9.652  40.046   1.277
11409W        W79783  14.606  33.104  11.075
11410W        W79784  41.955  44.935  14.849
11411W        W79785  37.395  18.663   4.829
11412W        W79786  15.581  25.046   1.787
11413W        W79787  20.212   8.249   2.835
11414W        W79788  38.867  16.293   2.189
11415W        W79789  15.157   1.367   3.665
11416W        W79790  17.167  28.623  10.002
11417W        W79791  35.414  13.704  14.477
11418W        W79792   5.802   4.437   0.367
11419W        W79793  22.141  22.115   3.700
11420W        W79794  42.508  23.504   4.802
11421W        W79795  31.401  36.046  13.480
11422W        W79796  41.312   1.735   2.749
11423W        W79797   3.410  25.691   1.320
11424W        W79798  40.309  44.917  12.024
11425W        W79799   1.746  28.965  13.911
11426W        W79800  18.282  39.544   0.399
11427W        W79801  16.703  30.009   0.902
11428W        W79802  42.966  14.186  11.434
11429W        W79803  36.443  19.204  14.919
11430W        W79804  14.646   3.790  12.461
11431W        W79805  30.022   3.230  13.439
11432W        W79806  34.451  18.285   4.299
11433W        W79807   1.780  36.420   4.835
11434W        W79808   6.353  15.195   3.763
11435W        W79809  30.617  43.806  14.956
11436W        W79810  32.453  38.859   9.966
11437W        W79811  31.080  37.535  10.515
11438W        W79812   9.257  23.017  10.978
11439W        W79813  29.925  27.522   2.827
11440W        W79814  37.526  25.587  12.069
11441W        W79815  18.183   7.209   3.678
11442W        W79816  11.230  34.981   3.206
11443W        W79817  37.897   9.685  14.844
11444W        W79818  15.196  33.091   3.774
11445W        W79819  36.585  12.773  12.887
11446W        W79820  31.000  36.906   1.336
11447W        W79821  16.114  39.924  13.932
11448W        W79822  25.086  21.659  13.885
11449W        W79823  41.450  21.643  12.548
11450W        W79824  13.786  24.991  11.475
11451W        W79825  12.179  31.099  11.972
11452W        W79826  41.798  26.459   2.759
11453W        W79827   4.709  41.368   0.746
11454W        W79828  37.512  14.110  11.909
11455W        W79829  27.028  38.891  12.909
11456W        W79830  19.693   7.224  13.395
11457W        W79831  31.644   0.431  11.943
11458W        W79832  32.905  14.333   2.355
11459W        W79833  34.100   7.235  14.847
11460W        W79834  28.122  10.247   4.740
11461W        W79835  20.528  25.611   4.260
11462W        W79836  11.350  10.698  11.113
11463W        W79837   0.946  13.709  11.456
11464W        W79838   5.214  21.061  11.968
11465W        W79839  28.998  40.340  12.412
11466W        W79840  19.774  21.739   2.873
11467W        W79841   6.709  41.503  14.363
11468W        W79842  25.194  23.096  10.991
11469W        W79843   2.296  39.928  11.430
11470W        W79844  36.523  18.288  11.457
11471W        W79845  21.240  40.303  13.346
11472W        W79846   3.272   9.751  14.973
11473W        W79847   9.165  13.795  13.985
11474W        W79848   0.791  44.436   2.833
11475W        W79849  22.571  22.528   0.377
11476W        W79850  21.634   5.235  11.471
11477W        W79851  31.047   4.224   3.364
11478W        W79852   9.887  37.471   4.204
11479W        W79853  22.643   4.776   4.697
11480W        W79854  37.832  17.591  14.330
11481W        W79855  28.500   1.325   0.358
11482W        W79856   8.220   0.980  12.461
11483W        W79857  43.370  14.277   5.273
11484W        W79858  33.111  14.235   0.875
11485W        W79859  33.553  17.081  13.464
11486W        W79860  35.885  33.462  11.375
11487W        W79861  26.483   0.874   5.192
11488W        W79862  22.134   9.773   2.230
11489W        W79863  36.886  19.696  11.513
11490W        W79864  26.497  14.610  11.386
11491W        W79865  42.965  33.994   4.241
11492W        W79866  22.710  40.878   2.668
11493W        W79867  20.066  24.721   3.206
11494W        W79868  43.280  29.089  14.346
11495W        W79869  43.797  15.123   0.460
11496W        W79870   7.884  20.555   0.766
11497W        W79871   4.799  42.410  11.115
11498W        W79872  38.869  20.551  12.974
11499W        W79873  40.406   6.851  13.959
11500W        W79874  26.207   4.378  11.884
11501W        W79875  25.552  28.513  14.335
11502W        W79876  28.183   2.933  12.069
11503W        W79877  32.019  27.069  14.998
11504W        W79878  22.175  26.542   4.793
11505W        W79879  43.487  18.167  10.447
11506W        W79880  21.711  14.111  13.474
11507W        W79881   3.262  24.041   0.288
11508W        W79882  35.485   1.974   3.690
11509W        W79883  38.906   8.213   3.231
11510W        W79884  18.611   6.250  13.834
11511W        W79885  36.035  40.542   4.673
11512W        W79886  33.989  35.079  12.372
11513W        W79887  29.925  43.322   2.294
11514W        W79888  26.011  20.054  13.530
11515W        W79889  22.649  23.614   2.733
11516W        W79890   6.287  29.429   3.789
11517W        W79891  33.578  28.490   0.921
11518W        W79892  32.606  19.151   4.802
11519W        W79893  28.008  43.981  13.989
11520W        W79894  40.454  40.315   2.259
11521W        W79895   2.425  41.303  10.128
11522W        W79896  27.527   3.353  13.044
11523W        W79897   5.391  39.495  13.017
11524W        W79898  17.185   2.878  10.906
11525W        W79899  19.161  10.760   1.751
11526W        W79900  27.975  19.584   0.758
11527W        W79901  44.437   4.448   4.599
11528W        W79902  23.654  28.658   3.757
11529W        W79903  17.668  11.270  11.950
11530W        W79904   3.885  15.778  10.891
11531W        W79905   9.702  12.801  12.373
11532W        W79906  43.475  23.188  10.546
11533W        W79907  16.574  30.953  11.404
11534W        W79908  32.537  43.437  12.453
11535W        W79909  22.096  25.016  12.540
11536W        W79910  40.410  13.332  13.307
11537W        W79911  22.714  24.590   1.788
11538W        W79912  44.997  16.702  13.791
11539W        W79913  21.231  35.536   2.366
11540W        W79914   4.405   3.285  13.480
11541W        W79915  31.506  20.234   0.438
11542W        W79916  27.455  40.465  12.568
11543W        W79917  43.965  32.469  12.514
11544W        W79918  14.737  16.244   0.336
11545W        W79919  42.337  30.435   2.213
11546W        W79920  43.480  43.899   4.745
11547W        W79921  21.658   1.448   3.239
11548W        W79922  15.609  14.226  12.558
11549W        W79923  19.048  12.800   2.335
11550W        W79924  13.792  24.230  12.963
11551W        W79925  31.587  19.543   4.730
11552W        W79926  34.061   8.693   0.902
11553W        W79927  35.584  39.991   3.165
11554W        W79928  40.838  12.617  12.019
11555W        W79929  42.477  10.812  14.511
11556W        W79930  34.988  34.903   0.443
11557W        W79931  11.136  37.061   2.201
11558W        W79932   8.251  34.920   1.731
11559W        W79933  35.866   4.858   1.851
11560W        W79934   2.775  10.692  11.052
11561W        W79935  23.057  25.067   2.737
11562W        W79936  12.759   7.815  10.894
11563W        W79937  12.655  10.234  10.503
11564W        W79938  21.210  14.816  14.318
11565W        W79939   0.254  34.409   2.752
11566W        W79940  26.159  15.171  12.886
11567W        W79941  27.030  18.191   2.306
11568W        W79942  44.441  34.435   0.326
11569W        W79943   0.879  29.014   2.743
11570W        W79944  13.285  23.704  10.442
11571W        W79945  35.505   6.213   3.211
11572W        W79946  41.925   1.430   0.439
11573W        W79947  32.594  42.484  11.876
11574W        W79948  22.125  32.940  14.938
11575W        W79949  22.730   6.339  11.918
11576W        W79950   1.282  10.229  10.616
11577W        W79951  17.637  23.076  12.460
11578W        W79952   7.716  32.027   3.256
11579W        W79953  14.144  38.489  14.295
11580W        W79954  25.145  40.015  14.863
11581W        W79955  16.683  12.235  10.538
11582W        W79956  40.823  29.661   0.408
11583W        W79957  15.677  34.604  12.915
11584W        W79958   5.807  16.811  14.912
11585W        W79959  24.697  38.481   0.802
11586W        W79960  37.383  29.027  12.357
11587W        W79961  32.086  42.803  10.509
11588W        W79962  25.986  44.936   9.513
11589W        W79963  11.284  13.840  11.079
11590W        W79964  15.640  41.932  14.373
11591W        W79965  14.784  44.789   0.732
11592W        W79966  15.624   5.426  10.510
11593W        W79967  25.128  30.971  13.843
11594W        W79968  12.810  12.697   0.964
11595W        W79969  11.848  18.637  13.486
11596W        W79970  44.860  29.619   1.255
11597W        W79971  27.592  25.215  14.809
11598W        W79972  42.847   3.888  13.350
11599W        W79973  26.577  44.906  10.968
11600W        W79974  35.973  13.126   2.703
11601W        W79975  33.949  22.238  12.933
11602W        W79976   7.392  11.330  12.907
11603W        W79977  35.584  32.987  14.982
11604W        W79978  40.827  30.480  10.894
11605W        W79979  17.640  29.438   2.804
11606W        W79980  28.442  41.457   3.814
11607W        W79981  39.391  38.960  11.888
11608W        W79982  43.960  29.631   4.240
11609W        W79983  26.703  39.362   1.787
11610W        W79984  23.101  22.143  13.314
11611W        W79985  43.945  39.049   1.311
11612W        W79986  28.492  32.622   3.812
11613W        W79987  25.714  31.077   3.712
11614W        W79988  15.813  31.403   3.319
11615W        W79989  39.482  22.558   0.779
11616W        W79990   3.807   9.853  12.461
11617W        W79991   4.242  27.608  10.967
11618W        W79992  11.238  43.294  13.476
11619W        W79993  42.284  29.129   2.193
11620W        W79994  43.416  17.610   1.703
11621W        W79995  44.339   6.789  11.379
11622W        W79996  17.119  16.182   2.374
11623W        W79997   5.923   8.391   2.775
11624W        W79998  28.644  16.768  10.987
11625W        W79999  26.663  14.150   0.751
11626W        W80000  24.600  18.233   3.658
11627W        W80001  17.300  27.557  11.940
11628W        W80002   5.224  12.283  13.009
11629W        W80003   0.432  27.668  10.480
11630W        W80004  21.746   8.299   2.670
11631W        W80005   2.904  30.921   4.651
11632W        W80006   9.750  15.154   1.253
11633W        W80007  18.788  41.298   3.711
11634W        W80008  27.597  41.445   1.400
11635W        W80009  40.042  18.622  13.509
11636W        W80010  32.527  30.424   3.854
11637W        W80011  27.614  16.279  12.907
11638W        W80012  27.594  40.049   1.422
11639W        W80013   6.203  40.919  11.128
11640W        W80014  34.009  41.799   3.227
11641W        W80015  19.203  13.124   4.133
11642W        W80016  13.159  13.153   3.362
11643W        W80017  22.611   2.277   3.731
11644W        W80018  37.877  44.947  14.350
11645W        W80019  41.360  10.748  14.956
11646W        W80020  22.150   0.410   1.868
11647W        W80021  38.998  25.073   0.245
11648W        W80022  17.688   8.763   2.899
11649W        W80023  41.034  10.855   2.389
11650W        W80024  14.148  24.507   4.255
11651W        W80025  36.944  11.667  13.925
11652W        W80026  33.964  27.456  12.419
11653W        W80027  13.797  40.011   1.736
11654W        W80028  42.910   0.297   4.332
11655W        W80029  36.563  23.031   1.346
11656W        W80030   7.221  15.298  14.510
11657W        W80031  34.940  14.787  11.391
11658W        W80032  17.193  15.098   1.779
11659W        W80033   7.822  25.577   4.226
11660W        W80034  16.582  17.194   3.752
11661W        W80035  36.861  10.216  11.534
11662W        W80036   8.319  32.530   0.952
11663W        W80037  39.878  32.494   1.767
11664W        W80038  19.149  38.512  10.971
11665W        W80039  22.502  41.000  11.389
11666W        W80040   6.689   5.757  11.014
11667W        W80041  13.762  14.308   1.320
11668W        W80042  33.910  20.575  14.836
11669W        W80043  21.553   8.842   2.340
11670W        W80044  19.245  37.358  12.481
11671W        W80045  43.939  44.430   3.838
11672W        W80046   6.307  27.681  10.929
11673W        W80047   3.948   0.875  14.308
11674W        W80048   0.391  25.640  13.811
11675W        W80049  34.480  29.503   3.716
11676W        W80050   0.422  29.926  13.865
11677W        W80051  21.160  20.544   4.770
11678W        W80052  20.160  42.454   4.338
11679W        W80053  23.094  34.099   1.447
11680W        W80054  14.307   1.731  11.568
11681W        W80055  19.704   3.732   4.199
11682W        W80056  34.429   1.405  14.868
11683W        W80057  22.128  39.987   5.597
11684W        W80058  22.154  15.643   2.675
11685W        W80059  24.692  26.639   4.223
11686W        W80060  18.181  24.566  14.365
11687W        W80061  24.666  30.010   1.696
11688W        W80062  40.405   1.371  14.487
11689W        W80063  39.483  17.659   4.185
11690W        W80064  44.292  11.656  12.407
11691W        W80065  10.766   4.416   1.743
11692W        W80066  10.657  37.871  11.114
11693W        W80067  42.485  13.131  12.462
11694W        W80068  41.843   6.680   4.690
11695W        W80069  41.482  25.563  11.083
11696W        W80070   4.313  32.887  14.813
11697W        W80071   3.355  40.871  14.946
11698W        W80072  22.584  43.339   1.227
11699W        W80073  29.439  28.967   4.610
11700W        W80074  40.314  36.466  10.915
11701W        W80075  20.584  32.101   3.285
11702W        W80076  24.144   8.381   4.634
11703W        W80077  22.563  10.815   0.461
11704W        W80078  12.641   0.988  10.558
11705W        W80079  43.929  26.599   2.419
11706W        W80080  24.973  33.987   4.146
11707W        W80081   3.816  23.505  13.520
11708W        W80082  40.857  42.970   2.270
11709W        W80083  41.359  16.739  13.314
11710W        W80084  34.974  14.670   1.754
11711W        W80085  19.658  16.801  10.470
11712W        W80086  37.383  42.000  10.993
11713W        W80087  39.326  22.239   3.287
11714W        W80088  27.545  42.775   5.593
11715W        W80089  42.012  24.034   1.381
11716W        W80090  39.436  27.986   2.231
11717W        W80091  34.495   6.761   2.835
11718W        W80092  15.111  18.575   4.159
11719W        W80093  29.037  41.787   1.908
11720W        W80094   5.438  23.650  11.077
11721W        W80095  12.828  16.193   3.669
11722W        W80096  42.958   6.743  11.056
11723W        W80097  41.015  10.749  14.759
11724W        W80098   9.354  26.185  12.094
11725W        W80099  14.719   5.338  13.480
11726W        W80100   8.673  19.670  13.907
11727W        W80101  44.836   8.255   2.726
11728W        W80102  32.928  13.710   4.150
11729W        W80103   3.924  11.223  11.454
11730W        W80104  43.456  10.787  11.456
11731W        W80105  11.237  43.352  10.617
11732W        W80106  43.272  17.132  12.948
11733W        W80107  13.171  30.965  13.000
11734W        W80108  26.164  38.349   0.269
11735W        W80109  13.663   5.887   2.281
11736W        W80110  20.130   1.836  11.876
11737W        W80111  37.039  18.572  11.973
11738W        W80112  22.713  28.995  12.061
11739W        W80113  33.061  28.974   0.859
11740W        W80114  10.358  44.444  10.553
11741W        W80115  29.497  15.682  10.111
11742W        W80116  39.951  36.441  13.527
11743W        W80117  39.951  41.914  11.015
11744W        W80118  22.704  29.971   1.811
11745W        W80119  24.122  32.543  13.525
11746W        W80120  26.956  13.657   1.850
11747W        W80121  42.465   6.886  14.816
11748W        W80122  32.513  38.070   0.749
11749W        W80123  24.043  36.031   2.838
11750W        W80124   0.304  34.541   1.782
11751W        W80125   4.448  12.118   1.384
11752W        W80126  21.638  35.594  11.503
11753W        W80127  34.527  42.974   1.234
11754W        W80128  25.611   7.881  12.356
11755W        W80129  11.679  25.139   5.116
11756W        W80130  37.492  42.020   2.753
11757W        W80131  36.478  12.746  13.801
11758W        W80132  42.285  16.804   4.155
11759W        W80133  25.554  44.971  11.588
11760W        W80134  35.491   1.352  10.954
11761W        W80135  22.705  27.521  14.827
11762W        W80136  34.926  43.021  14.485
11763W        W80137  13.625   4.406   1.883
11764W        W80138  13.120  14.681   0.340
11765W        W80139   3.848  42.002   1.797
11766W        W80140  15.733  24.580  13.466
11767W        W80141   8.872  26.554   3.195
11768W        W80142  32.456  26.507   4.267
11769W        W80143  22.597  39.494  11.881
11770W        W80144  36.482   8.294  13.482
11771W        W80145  30.100   6.807   3.820
11772W        W80146  21.642  25.017  14.459
11773W        W80147  32.605  18.068   4.634
11774W        W80148  41.852  43.956  14.482
11775W        W80149   1.468  11.142   2.370
11776W        W80150  29.979   4.762  10.618
11777W        W80151  22.534  13.167   0.308
11778W        W80152  33.415  23.573   1.731
11779W        W80153  17.066   2.275   2.342
11780W        W80154  29.117   7.667   4.184
11781W        W80155  18.721   2.437  11.573
11782W        W80156  41.007  12.141  12.506
11783W        W80157  24.582  20.094  14.840
11784W        W80158   5.383   2.463  11.855
11785W        W80159  38.396  41.433  11.477
11786W        W80160  12.642  30.561  14.482
11787W        W80161   6.902  42.944  12.402
11788W        W80162   6.300  15.701   5.258
11789W        W80163  19.564  38.411   0.754
11790W        W80164  20.259  12.615   4.616
11791W        W80165  26.544  42.409   0.763
11792W        W80166  31.610  27.552   0.786
11793W        W80167  41.421  34.511  13.488
11794W        W80168  30.566  15.214  12.025
11795W        W80169  39.814   6.265  12.564
11796W        W80170  15.684  24.613  12.431
11797W        W80171  12.339  21.201   0.885
11798W        W80172  35.028  10.684   2.857
11799W        W80173  13.304  25.064  12.466
11800W        W80174   0.286  16.292  14.899
11801W        W80175  34.887  43.831  14.879
11802W        W80176  21.578  17.573   4.202
11803W        W80177  25.191  22.685  14.510
11804W        W80178  24.059  39.985  10.636
11805W        W80179  22.629   8.717  10.913
11806W        W80180  37.470  29.084   3.827
11807W        W80181  42.853  21.553   4.821
11808W        W80182  23.100   8.722  12.990
11809W        W80183  25.166  16.798  12.363
11810W        W80184  28.083   8.183   4.719
11811W        W80185  31.588  30.916   1.278
11812W        W80186   2.955   4.812   3.195
11813W        W80187  21.609  29.456  12.884
11814W        W80188  42.387  33.509   0.907
11815W        W80189  42.414   6.766  13.037
11816W        W80190  34.457  17.800   1.760
11817W        W80191  15.185  34.929   1.362
11818W        W80192  30.916  23.498   3.175
11819W        W80193  22.724  21.525   4.221
11820W        W80194  14.628   9.271   1.812
11821W        W80195  11.177  10.376   1.369
11822W        W80196  32.893  24.549   1.842
11823W        W80197  44.306  14.223  10.127
11824W        W80198  14.171  40.866  11.374
11825W        W80199   5.365  19.596  14.979
11826W        W80200  20.553   4.256   1.773
11827W        W80201  12.616   6.900   1.807
11828W        W80202  44.429   4.287   3.654
11829W        W80203   3.951  28.547  14.791
11830W        W80204  36.538  25.094   3.200
11831W        W80205  39.329  32.126  14.497
11832W        W80206   6.826  35.859   2.330
11833W        W80207  27.148   5.308   4.793
11834W        W80208  20.258  15.215  13.442
11835W        W80209  42.867  24.545  12.027
11836W        W80210  30.605  13.189  14.346
11837W        W80211  23.227   6.758  14.448
11838W        W80212  15.630  21.753  13.888
11839W        W80213  32.898  41.015   1.900
11840W        W80214  19.095  13.619   2.241
11841W        W80215  21.572   7.728   4.718
11842W        W80216  40.890  34.114   4.139
11843W        W80217  32.030  40.014  12.349
11844W        W80218  14.595   5.360   0.326
11845W        W80219  13.176  14.195  14.924
11846W        W80220  23.729  25.207   2.670
11847W        W80221  18.773  20.633   4.818
11848W        W80222  38.521  38.022   2.889
11849W        W80223  25.091  14.720  14.768
11850W        W80224  30.433   8.382   3.696
11851W        W80225  23.612  44.885  12.922
11852W        W80226  18.151  21.537   4.815
11853W        W80227   6.780  39.532  11.462
11854W        W80228  13.242  15.092  12.882
11855W        W80229  16.092  35.943   0.339
11856W        W80230  19.109  37.463  11.427
11857W        W80231  10.806  13.186   1.376
11858W        W80232  13.152  26.519   4.662
11859W        W80233   7.816  37.972   1.903
11860W        W80234   8.370  27.940  12.877
11861W        W80235  31.970  41.027  10.944
11862W        W80236  13.307  29.105  11.094
11863W        W80237  19.692   8.242   3.841
11864W        W80238   8.720   3.242  14.402
11865W        W80239  18.266   6.752  11.410
11866W        W80240  18.737  34.572  14.877
11867W        W80241   1.758   6.247   1.396
11868W        W80242  21.731  32.118   1.259
11869W        W80243  37.567  12.663  11.453
11870W        W80244  33.498  30.922   4.353
11871W        W80245  40.039  10.285   3.227
11872W        W80246  14.825  31.495  10.525
11873W        W80247  35.093  12.681  13.350
11874W        W80248  37.417  34.433   2.356
11875W        W80249  10.859  21.063   9.948
11876W        W80250   0.748  38.340   4.734
11877W        W80251  28.674  37.373   0.952
11878W        W80252   7.790  34.413   0.482
11879W        W80253  29.128  13.730   1.916
11880W        W80254  22.504  32.547  11.118
11881W        W80255  17.098  44.870  13.320
11882W        W80256  42.947  32.605   0.402
11883W        W80257  32.569  44.813  14.510
11884W        W80258  12.219  17.290  10.902
11885W        W80259  10.651  44.880  10.456
11886W        W80260  33.497  24.502   9.944
11887W        W80261   4.857  34.494  11.609
11888W        W80262  20.117  29.635   4.702
11889W        W80263   9.261  16.714   2.346
11890W        W80264  29.534  16.763  12.847
11891W        W80265  19.243  19.222  11.921
11892W        W80266   1.972  14.192  14.857
11893W        W80267  35.459  13.276   4.665
11894W        W80268   6.422  33.067  12.959
11895W        W80269  10.675  39.544  11.573
11896W        W80270  11.190  20.565  13.311
11897W        W80271  41.038  40.015   2.251
11898W        W80272  43.012  17.117  11.062
11899W        W80273  32.570   8.674  12.504
11900W        W80274  21.620   4.706  13.048
11901W        W80275  23.099   2.415   1.910
11902W        W80276  39.931   1.777   0.771
11903W        W80277  11.686  12.726  14.319
11904W        W80278  34.447  18.055  11.514
11905W        W80279   2.269   3.311   5.103
11906W        W80280  20.167  41.968   5.124
11907W        W80281  44.841   2.385  13.843
11908W        W80282   8.267   3.310   1.790
11909W        W80283   9.206  17.772  10.952
11910W        W80284   4.310  38.563  14.986
11911W        W80285  43.350  18.594   4.294
11912W        W80286  32.031   5.282   3.728
11913W        W80287  28.673  11.839   0.412
11914W        W80288   1.947  17.710   0.341
11915W        W80289  14.143  25.539   5.238
11916W        W80290  21.018  19.266  13.909
11917W        W80291   3.907  20.602   0.743
11918W        W80292  41.527  43.965   1.777
11919W        W80293   0.821  13.612  12.084
11920W        W80294  19.701  13.804   3.362
11921W        W80295  43.970  23.630  12.488
11922W        W80296   5.774  20.736  12.550
11923W        W80297  33.115  19.161   0.287
11924W        W80298  13.227  19.255   1.820
11925W        W80299  43.918  34.984   1.737
11926W        W80300  42.508  22.734   2.807
11927W        W80301  12.654  23.600   0.349
11928W        W80302  15.146  10.704   5.262
11929W        W80303  25.531   9.748   0.365
11930W        W80304  42.387  38.934   1.921
11931W        W80305   9.766  20.104  12.872
11932W        W80306   0.929   5.880  11.457
11933W        W80307  35.006   1.837  10.057
11934W        W80308  32.033  26.108   0.417
11935W        W80309  40.915  10.721  11.380
11936W        W80310  44.368   0.366  13.917
11937W        W80311  44.905   8.207   0.346
11938W        W80312  25.023  17.781   5.685
11939W        W80313  21.175  15.636   1.331
11940W        W80314  32.074  19.647  12.824
11941W        W80315  31.455  26.122  14.943
11942W        W80316   8.391  25.557  11.070
11943W        W80317  23.539  20.558   4.665
11944W        W80318   4.857  22.521  14.962
11945W        W80319  30.578  33.950   0.334
11946W        W80320  25.624  38.958   1.301
11947W        W80321  16.713  44.281   2.865
11948W        W80322  35.389  19.720   0.857
11949W        W80323   1.747   2.891  12.853
11950W        W80324  28.010  21.543   2.760
11951W        W80325   3.908  37.078  13.921
11952W        W80326  14.803   7.909  10.149
11953W        W80327  37.900   8.853   1.286
11954W        W80328  35.591  14.144  13.501
11955W        W80329   4.835  32.075   1.708
11956W        W80330  18.559  36.062  10.453
11957W        W80331   1.748  18.214   0.445
11958W        W80332  37.570  12.232  10.558
11959W        W80333  36.426  23.492   2.369
11960W        W80334  40.315  31.073  10.588
11961W        W80335   6.901   3.926  10.942
11962W        W80336  14.699  39.826   3.792
11963W        W80337   0.979  17.260   3.378
11964W        W80338  12.283   7.690   4.324
11965W        W80339  42.835  36.932   3.646
11966W        W80340   8.718  35.360  13.528
11967W        W80341   4.317  22.606  13.400
11968W        W80342   1.889   1.295  11.571
11969W        W80343  14.705  11.331   2.362
11970W        W80344  44.440  21.204  10.911
11971W        W80345  12.316  27.546   2.806
11972W        W80346  24.181  39.901   3.694
11973W        W80347  19.052   5.241  11.098
11974W        W80348  35.425   5.698   1.385
11975W        W80349   2.952  24.202  10.931
11976W        W80350   2.793   0.416   3.347
11977W        W80351  31.096   3.955  10.947
11978W        W80352  13.682   7.847  10.537
11979W        W80353   2.732   4.352   2.338
11980W        W80354   3.389   7.860   5.147
11981W        W80355  40.380  11.324   0.403
11982W        W80356  26.612  12.790   3.823
11983W        W80357  18.073  36.510  11.427
11984W        W80358  41.982   0.332  13.987
11985W        W80359  44.797  39.402   4.150
11986W        W80360   4.708   3.944  12.030
11987W        W80361   8.189  40.037  11.475
11988W        W80362  37.566  43.940   4.652
11989W        W80363   5.742  36.069  11.119
11990W        W80364   8.402  33.058  12.869
11991W        W80365  10.292  18.173  14.782
11992W        W80366  10.764  12.827  12.999
11993W        W80367  18.575  30.986  11.405
11994W        W80368  34.953  24.629  12.981
11995W        W80369   8.168  24.693  10.007
11996W        W80370  11.278  14.646   3.762
11997W        W80371  29.974  20.239   2.714
11998W        W80372   1.303  41.866  11.539
11999W        W80373  22.704  41.318  10.515
12000W        W80374  19.755  27.973  12.869
12001W        W80375  16.241  41.874  12.845
12002W        W80376  35.436  41.477  13.965
12003W        W80377  36.024  13.140  13.427
12004W        W80378  31.026   9.845  10.912
12005W        W80379  12.327  40.004  13.433
12006W        W80380  18.623  16.212   4.727
12007W        W80381  25.481  12.784   5.278
12008W        W80382  33.574  32.501   2.706
12009W        W80383  30.100   4.827  14.907
12010W        W80384  42.352  19.698  14.918
12011W        W80385  24.141  22.222  14.982
12012W        W80386  37.954   5.363  12.424
12013W        W80387  34.075  44.008   1.377
12014W        W80388  11.813   5.825   0.244
12015W        W80389   2.332  16.113  14.986
12016W        W80390  39.868  22.028   3.280
12017W        W80391  13.845  20.081   1.825
12018W        W80392  26.548   6.279   0.370
12019W        W80393  13.828   6.896   3.169
12020W        W80394   9.204  18.154   0.361
12021W        W80395  14.606  19.283   0.264
12022W        W80396  27.176   4.370  13.997
12023W        W80397  41.995  11.307  13.380
12024W        W80398  38.845  15.183   0.795
12025W        W80399  43.389  17.576   3.200
12026W        W80400   7.675  42.515   3.840
12027W        W80401   1.296   0.449   0.778
12028W        W80402  42.966  17.601  12.906
12029W        W80403  12.165  44.791  14.394
12030W        W80404   3.280  40.966   0.336
12031W        W80405  22.087  42.934   0.831
12032W        W80406   3.261  28.555   2.868
12033W        W80407   7.205  37.854   4.758
12034W        W80408  10.194   5.724   0.353
12035W        W80409   6.821  14.215  11.546
12036W        W80410   4.802  34.952  11.068
12037W        W80411  33.563  38.348   3.320
12038W        W80412  32.131  31.066  12.368
12039W        W80413   5.222  23.012   2.872
12040W        W80414  15.731  38.365   0.775
12041W        W80415  28.613  10.279  14.021
12042W        W80416  33.550   2.922   1.249
12043W        W80417  34.519  42.380  10.510
12044W        W80418  43.364   0.769  13.449
12045W        W80419  14.267   2.830   2.285
12046W        W80420  36.437  37.459   4.121
12047W        W80421  40.324  31.509  14.975
12048W        W80422  12.289  23.612  14.318
12049W        W80423  30.117  38.028   4.166
12050W        W80424  28.505   7.330   3.694
12051W        W80425  12.198  42.963   0.958
12052W        W80426   4.295  14.749  13.356
12053W        W80427  35.100  11.857   1.897
12054W        W80428  44.467  42.973   3.378
12055W        W80429   9.313  10.875  12.426
12056W        W80430  18.616  37.430   4.785
12057W        W80431  26.483  24.577   2.296
12058W        W80432  41.312   3.382  11.580
12059W        W80433  41.011  32.473  14.457
12060W        W80434  34.875   2.760  12.854
12061W        W80435   6.182  18.774  10.528
12062W        W80436   4.211  35.048   1.325
12063W        W80437  29.164   3.906  14.398
12064W        W80438  28.670  42.868   4.670
12065W        W80439  16.664   8.776   5.766
12066W        W80440  16.275  35.455   1.887
12067W        W80441  22.040   5.846  12.012
12068W        W80442  10.175  34.473  14.405
12069W        W80443  22.238  10.148   2.754
12070W        W80444  37.512  26.966   1.928
12071W        W80445  20.249  22.562   2.666
12072W        W80446  19.775  27.987   2.661
12073W        W80447  19.266  30.958  13.850
12074W        W80448  20.760  33.961  14.898
12075W        W80449  42.891  30.088  11.877
12076W        W80450  19.080  32.568   2.797
12077W        W80451  35.085  18.752  11.002
12078W        W80452  21.673  16.642  12.074
12079W        W80453  27.050  20.707  10.996
12080W        W80454  20.184  30.564   0.358
12081W        W80455  24.605  14.776   1.886
12082W        W80456  23.549  14.635   9.668
12083W        W80457  42.303  34.016  13.489
12084W        W80458  26.538  18.215  12.078
12085W        W80459  35.925  35.439  13.910
12086W        W80460  35.505  42.858   0.761
12087W        W80461   2.364  34.544  14.400
12088W        W80462  13.731  36.433  11.440
12089W        W80463  37.865   8.228   1.715
12090W        W80464  41.025  14.131   3.352
12091W        W80465  15.767  38.000   3.838
12092W        W80466  33.550   9.260  14.338
12093W        W80467  33.608  32.633  10.976
12094W        W80468   8.690   8.685   3.750
12095W        W80469   2.244  20.150   0.456
12096W        W80470  28.043  29.653   4.815
12097W        W80471  10.664  43.911  11.489
12098W        W80472  31.126  29.510   4.794
12099W        W80473  13.702  27.451   3.848
12100W        W80474   0.424  30.130   0.927
12101W        W80475  11.823   5.695  13.319
12102W        W80476   7.820  13.641   3.702
12103W        W80477  43.943  34.877  11.381
12104W        W80478  37.080  34.033  10.970
12105W        W80479   5.902  43.830  14.815
12106W        W80480  23.654  13.779  11.039
12107W        W80481   1.461   6.776  14.437
12108W        W80482  26.621  17.740  10.444
12109W        W80483  26.500  34.417   3.198
12110W        W80484  41.532  41.466  14.491
12111W        W80485  42.442  21.539   3.790
12112W        W80486  36.010  20.214   0.405
12113W        W80487  13.825  32.998   2.894
12114W        W80488  24.075  24.074   0.381
12115W        W80489  24.011   3.953   3.147
12116W        W80490   2.237  12.655  11.943
12117W        W80491  22.250  38.976   4.620
12118W        W80492  16.293  42.950  10.569
12119W        W80493   6.325  39.315  10.443
12120W        W80494  32.612  11.832   0.317
12121W        W80495   8.743   2.334  10.596
12122W        W80496  17.292  42.016   1.446
12123W        W80497  26.668  23.155  14.914
12124W        W80498  37.948  13.119  14.308
12125W        W80499  24.138   0.813  12.012
12126W        W80500  31.954  29.453   0.823
12127W        W80501   7.793  19.080  14.453
12128W        W80502  20.720  30.607  12.076
12129W        W80503  39.982  16.724  11.504
12130W        W80504  18.124   0.888  12.389
12131W        W80505  32.438  18.245  13.391
12132W        W80506  24.109  32.543   9.579
12133W        W80507  11.244  18.261   2.220
12134W        W80508  32.396   7.390   5.173
12135W        W80509  36.571  12.648   1.376
12136W        W80510   5.265  19.666  12.460
12137W        W80511  25.148  28.493  12.830
12138W        W80512  36.546  18.113  10.523
12139W        W80513  44.818   6.367  11.882
12140W        W80514  26.078  35.073  12.989
12141W        W80515  37.468   4.706   4.347
12142W        W80516   7.344  12.257  12.444
12143W        W80517  22.724  15.124   4.317
12144W        W80518   5.840   6.755  11.589
12145W        W80519  21.117  38.339   3.322
12146W        W80520  19.665  42.870  13.451
12147W        W80521  44.774  28.439  13.046
12148W        W80522  43.813  26.574  11.377
12149W        W80523  30.440  44.879   3.636
12150W        W80524  42.026  13.629  12.025
12151W        W80525  16.306  19.700   3.737
12152W        W80526   0.980  16.672   3.744
12153W        W80527  16.282  42.840   0.401
12154W        W80528  32.392  25.586  10.971
12155W        W80529  39.351  37.837  11.446
12156W        W80530  31.911  44.278   2.800
12157W        W80531  11.829  33.972   1.378
12158W        W80532   9.155  34.045   3.357
12159W        W80533  37.039  32.566   1.857
12160W        W80534  35.441  39.826   2.699
12161W        W80535  18.728  32.954   0.392
12162W        W80536  37.485  29.603  12.969
12163W        W80537  17.619  12.847  12.963
12164W        W80538  14.648  38.499   1.812
12165W        W80539  28.945  43.005   1.227
12166W        W80540   8.266  35.042  11.458
12167W        W80541   3.301  28.120  10.508
12168W        W80542  22.537  39.433   5.280
12169W        W80543   7.354   2.440   0.274
12170W        W80544  27.996   5.754   4.762
12171W        W80545   2.942  30.142  11.126
12172W        W80546  12.733  13.834   2.236
12173W        W80547  17.265  42.957   4.138
12174W        W80548  16.616  41.420   1.224
12175W        W80549  26.632  24.003   2.336
12176W        W80550  44.296  44.906   2.274
12177W        W80551  36.536  36.536  12.358
12178W        W80552  19.778  31.915  10.551
12179W        W80553  39.386   6.762   4.720
12180W        W80554  39.477  29.063   0.744
12181W        W80555  20.583  44.973   4.650
12182W        W80556   3.937   6.306  12.880
12183W        W80557  32.458  31.583   2.769
12184W        W80558   1.462  17.643   0.733
12185W        W80559  19.264  14.780  14.983
12186W        W80560  10.330  20.602   1.709
12187W        W80561  20.600  27.941  13.879
12188W        W80562  36.456   7.890  13.390
12189W        W80563  16.283  33.523  14.368
12190W        W80564  24.506  40.546   1.868
12191W        W80565   5.754  10.291   2.682
12192W        W80566  40.423   7.697  12.962
12193W        W80567  12.757   1.892  13.901
12194W        W80568  39.493  11.289  13.486
12195W        W80569  17.305  32.113  10.614
12196W        W80570  10.686  42.372   0.439
12197W        W80571  44.446  32.101   5.141
12198W        W80572   5.373  44.999  11.949
12199W        W80573  31.639   7.277   3.781
12200W        W80574  24.184  20.663  11.869
12201W        W80575  29.009  12.801   1.716
12202W        W80576  28.535  37.564   2.874
12203W        W80577  10.383  27.598   2.665
12204W        W80578  22.714  21.238  12.932
12205W        W80579   3.368   1.320   4.122
12206W        W80580  22.597  10.309  10.990
12207W        W80581   6.238   2.843   0.376
12208W        W80582  39.321  10.707  12.412
12209W        W80583  33.427  31.067  12.831
12210W        W80584  39.547  39.330  11.090
12211W        W80585  41.943  18.104  13.496
12212W        W80586  30.433  22.228   3.756
12213W        W80587  22.533  36.411  10.144
12214W        W80588  28.512   3.361   4.211
12215W        W80589  31.964  30.997   0.869
12216W        W80590  33.127   4.342   1.911
12217W        W80591  26.679  43.287   2.212
12218W        W80592   3.762  31.479   1.816
12219W        W80593  43.013   1.782  12.357
12220W        W80594   6.858  40.858  12.061
12221W        W80595  25.198   5.222   0.840
12222W        W80596   0.333   0.751  13.422
12223W        W80597  13.181  29.042  11.390
12224W        W80598  32.020   8.750   1.827
12225W        W80599   2.231  31.048  13.433
12226W        W80600   7.789  18.151   1.227
12227W        W80601  39.442  10.759  13.985
12228W        W80602   9.748  23.687  10.512
12229W        W80603   5.402  26.506  11.894
12230W        W80604  42.975  35.085   0.385
12231W        W80605  40.456   8.844   1.214
12232W        W80606  35.051  39.429   3.181
12233W        W80607  14.631  33.967   3.749
12234W        W80608  18.112  21.756  10.508
12235W        W80609   8.342  18.090  13.465
12236W        W80610  19.636  29.090  10.512
12237W        W80611  36.415  35.101   2.247
12238W        W80612  14.337  15.312  13.348
12239W        W80613  26.522  14.194   3.840
12240W        W80614  16.246  38.859   0.858
12241W        W80615  17.163  27.175  13.448
12242W        W80616  11.276  11.848  12.401
12243W        W80617  33.596   5.430  11.903
12244W        W80618  13.260  11.133  14.935
12245W        W80619  39.369  26.171   1.729
12246W        W80620  15.689  37.519   1.884
12247W        W80621   8.310  10.162  14.862
12248W        W80622  27.667  11.840   0.341
12249W        W80623  12.343  35.435  12.016
12250W        W80624  38.030   4.792  11.054
12251W        W80625  44.297  30.651   4.733
12252W        W80626  36.462  28.574   3.242
12253W        W80627   6.890  28.135  10.999
12254W        W80628  10.346  31.410  11.412
12255W        W80629  29.072  20.150  13.503
12256W        W80630  31.433  13.298   0.884
12257W        W80631   8.163   7.284   0.793
12258W        W80632   5.405   4.935  14.950
12259W        W80633   9.700  33.094  12.992
12260W        W80634  11.255  27.125   4.241
12261W        W80635  20.603  18.098   2.662
12262W        W80636  36.417  22.728   2.691
12263W        W80637  31.041  26.565   4.166
12264W        W80638  14.652   0.808  13.435
12265W        W80639   0.987  11.861   2.724
12266W        W80640  30.150  40.318  13.480
12267W        W80641   8.797  27.954  10.507
12268W        W80642  34.091  28.488   2.728
12269W        W80643  37.402  35.600  14.359
12270W        W80644   0.838  25.035   1.786
12271W        W80645  41.490  33.120  11.106
12272W        W80646  10.761   7.827   1.381
12273W        W80647  28.533   6.237  10.147
12274W        W80648  31.948   4.369  12.913
12275W        W80649  28.182  41.924  10.468
12276W        W80650   1.401  44.852  10.928
12277W        W80651  26.970  29.653  14.960
12278W        W80652  30.476  28.950   0.727
12279W        W80653  40.358  11.680  10.411
12280W        W80654  25.019  32.509  13.818
12281W        W80655   9.733  29.942   5.588
12282W        W80656  25.703  28.455   3.202
12283W        W80657  21.628  12.783   0.812
12284W        W80658   1.921  34.930  11.979
12285W        W80659   1.251  32.537   0.934
12286W        W80660  22.699  24.108   1.815
12287W        W80661  27.061  39.930  12.361
12288W        W80662  42.957  35.555   1.231
12289W        W80663   1.870  37.574   2.235
12290W        W80664  43.895   0.799   1.215
12291W        W80665  26.022   4.435   0.931
12292W        W80666  39.337  43.453  10.492
12293W        W80667  37.345  39.393  13.030
12294W        W80668  22.203  30.503  14.386
12295W        W80669  33.089   2.844  12.898
12296W        W80670  26.554  11.764  14.807
12297W        W80671  31.147  32.416  13.426
12298W        W80672  42.990   7.361  13.985
12299W        W80673  22.134  18.085  13.853
12300W        W80674  25.474  33.379  12.976
12301W        W80675   0.857  16.728  14.761
12302W        W80676  14.318  16.655   0.941
12303W        W80677  41.296  14.280  13.791
12304W        W80678  23.510   5.261   1.396
12305W        W80679   9.276   5.406   1.353
12306W        W80680  29.548  27.153   0.894
12307W        W80681  44.753  12.612  14.471
12308W        W80682  39.931  18.676   0.333
12309W        W80683  37.885  22.669   0.272
12310W        W80684  15.613  44.306   1.360
12311W        W80685  37.955  42.438   3.336
12312W        W80686   5.933  20.116   3.269
12313W        W80687   0.797  22.253  11.966
12314W        W80688  20.699  40.935   0.322
12315W        W80689  42.017  15.780   0.261
12316W        W80690  17.751  31.979  13.372
12317W        W80691  26.582  14.322  10.102
12318W        W80692   8.665  16.687   2.793
12319W        W80693  34.440  29.941   1.730
12320W        W80694   6.323  10.288  13.499
12321W        W80695  26.526  14.124  13.033
12322W        W80696  17.782   1.761   2.217
12323W        W80697  33.084  29.542   2.380
12324W        W80698  24.982  26.021  11.379
12325W        W80699  16.098  17.649   0.258
12326W        W80700  12.712  20.178  14.822
12327W        W80701  39.826  24.708  13.958
12328W        W80702  17.217  11.315   2.324
12329W        W80703  14.166  42.519  14.349
12330W        W80704   4.376  44.380   3.799
12331W        W80705   5.851  27.566   0.799
12332W        W80706  27.953  28.621  12.420
12333W        W80707  32.455  41.021   4.757
12334W        W80708   9.267  30.069   2.728
12335W        W80709   0.265  11.359   4.224
12336W        W80710  16.678  21.118   2.857
12337W        W80711   9.245  36.852  12.477
12338W        W80712   2.244  21.691   1.410
12339W        W80713  18.743  10.283  12.360
12340W        W80714  31.001   1.414   0.308
12341W        W80715  39.836  17.129   1.450
12342W        W80716  19.675  20.574  12.087
12343W        W80717  35.888   7.322   4.759
12344W        W80718  29.636   7.363  11.510
12345W        W80719  15.807  29.970  12.414
12346W        W80720  37.457  13.155   5.269
12347W        W80721  18.764  14.777   2.193
12348W        W80722  23.010  12.282   3.803
12349W        W80723   4.804   5.753   3.153
12350W        W80724  21.131  24.147   4.692
12351W        W80725   2.829  18.146   1.373
12352W        W80726  44.446   8.826   2.268
12353W        W80727   3.926   1.841  13.476
12354W        W80728  26.486  44.485   2.178
12355W        W80729  23.685  19.631   1.367
12356W        W80730  36.384   4.237   1.696
12357W        W80731  19.234  44.357  12.571
12358W        W80732  39.558  10.699   3.836
12359W        W80733   9.697   5.323   2.743
12360W        W80734  44.944  24.677   0.317
12361W        W80735  26.172  43.441   1.805
12362W        W80736  27.105  26.544   3.805
12363W        W80737  36.346  16.714   4.249
12364W        W80738   5.700  37.471   0.303
12365W        W80739  26.682  13.628   3.812
12366W        W80740  19.107   2.756  14.422
12367W        W80741   6.346  37.005   0.894
12368W        W80742  11.849  36.915  11.908
12369W        W80743   4.329  41.868  11.444
12370W        W80744  18.081  44.268  14.480
12371W        W80745   2.886   9.321   4.808
12372W        W80746  20.128  14.789   4.621
12373W        W80747  19.662  39.903   2.295
12374W        W80748  23.015  32.587  10.532
12375W        W80749  44.760   6.712  14.896
12376W        W80750  36.027  23.494   4.278
12377W        W80751  23.682  43.878   0.433
12378W        W80752  42.886  43.962   4.132
12379W        W80753  14.300  31.541   0.356
12380W        W80754  28.026   9.708   2.206
12381W        W80755  40.527  21.209  11.417
12382W        W80756  22.083  14.714  10.569
12383W        W80757   6.310  32.576  11.099
12384W        W80758  33.619  23.635   3.346
12385W        W80759   3.892  22.182  12.882
12386W        W80760  40.434  42.474   1.883
12387W        W80761  27.127   7.408   2.284
12388W        W80762  35.579   0.893   2.867
12389W        W80763  22.643  36.998   1.821
12390W        W80764   9.367  26.976   0.768
12391W        W80765  36.532  37.948   4.804
12392W        W80766  21.752   9.354   4.684
12393W        W80767   5.853  34.983  13.947
12394W        W80768  29.010  13.291  11.911
12395W        W80769  41.386  13.753   1.241
12396W        W80770  43.271  37.514  11.525
12397W        W80771  12.172  33.943  12.958
12398W        W80772  20.164  39.389  14.314
12399W        W80773   9.839  24.191  12.908
12400W        W80774  17.135  11.776  13.811
12401W        W80775  33.876  18.075  12.938
12402W        W80776  12.175   5.267   0.925
12403W        W80777  10.722   7.693   3.293
12404W        W80778  35.452   4.884   0.311
12405W        W80779  40.967  15.599   4.733
12406W        W80780  14.663  21.146   3.210
12407W        W80781  32.001  17.614  12.556
12408W        W80782   8.401  19.252   2.881
12409W        W80783  13.321  27.479  14.500
12410W        W80784  39.931   6.350  13.044
12411W        W80785  30.137  42.370  13.045
12412W        W80786  16.149  31.942   4.160
12413W        W80787  16.171  20.693  12.524
12414W        W80788  29.032  18.100  13.050
12415W        W80789  13.175   9.213   0.807
12416W        W80790  33.934  39.398  10.522
12417W        W80791  35.903  22.586  10.965
12418W        W80792   0.329   7.330  10.606
12419W        W80793  36.093  16.080   1.439
12420W        W80794   5.281  32.928  12.839
12421W        W80795  40.798   6.869   1.752
12422W        W80796  26.028  13.348  11.451
12423W        W80797  42.013  33.582   1.302
12424W        W80798  33.501  40.858  13.531
12425W        W80799  34.609  14.732   3.704
12426W        W80800  10.205  21.111   3.294
12427W        W80801  31.482   2.752  14.762
12428W        W80802  22.552  25.142  12.914
12429W        W80803  20.050  14.172  14.490
12430W        W80804  35.010  13.842  10.549
12431W        W80805  42.031  37.860  13.988
12432W        W80806  30.651  31.572   2.194
12433W        W80807  30.526  40.362   4.722
12434W        W80808  17.563   5.881  14.288
12435W        W80809  43.495  43.281  11.581
12436W        W80810  44.359  26.058  14.882
12437W        W80811  36.366  19.561   0.290
12438W        W80812  31.548  17.772   1.309
12439W        W80813  43.825  14.613   2.318
12440W        W80814  14.792  42.794  12.486
12441W        W80815  15.781  36.382   1.881
12442W        W80816  31.518  30.146   4.203
12443W        W80817  20.128  35.955   2.889
12444W        W80818  12.144   4.819  10.930
12445W        W80819   7.342   8.732  12.416
12446W        W80820   9.782   7.793  12.369
12447W        W80821  10.848  22.714   2.214
12448W        W80822   6.711  20.719   4.188
12449W        W80823  20.225  14.798   0.761
12450W        W80824  15.735  12.201  14.844
12451W        W80825  27.552  38.961   2.292
12452W        W80826  19.706  41.295  12.370
12453W        W80827  27.552  37.446   2.324
12454W        W80828  41.869   0.954   4.272
12455W        W80829  21.629   4.447   0.936
12456W        W80830  36.977  28.474  13.516
12457W        W80831  28.608  10.806  13.816
12458W        W80832  33.582  21.051  11.885
12459W        W80833  38.378  34.490   3.806
12460W        W80834  40.825  14.708  13.366
12461W        W80835  29.446  44.972   9.978
12462W        W80836  39.914  12.129  10.404
12463W        W80837  33.070  17.795   3.227
12464W        W80838  24.510  16.711   4.672
12465W        W80839  30.507   3.287   3.742
12466W        W80840  42.476   4.280  13.808
12467W        W80841  37.899  18.188  12.500
12468W        W80842  25.989  14.142  14.305
12469W        W80843  17.281   1.805   5.161
12470W        W80844  25.652  10.770   4.655
12471W        W80845  36.449  40.970   2.401
12472W        W80846   5.852  27.577  11.872
12473W        W80847  12.807   9.762   4.621
12474W        W80848  31.069  31.954  14.393
12475W        W80849  32.636   9.325  11.607
12476W        W80850  36.372  11.827  13.851
12477W        W80851   2.809  30.600   0.778
12478W        W80852  15.187  26.125   1.417
12479W        W80853  29.169  31.440   2.394
12480W        W80854  17.093  30.435  10.583
12481W        W80855  35.382   2.902   0.755
12482W        W80856  13.642  22.544   0.283
12483W        W80857  34.096  17.703  13.429
12484W        W80858  43.001  26.491  10.616
12485W        W80859   4.914  10.645   4.201
12486W        W80860  17.233  17.075   5.287
12487W        W80861  29.653  33.914  10.956
12488W        W80862  31.949  18.701   5.132
12489W        W80863  31.402  39.004   3.704
12490W        W80864  34.085   1.777  13.383
12491W        W80865  26.015  22.505   4.326
12492W        W80866  11.200   1.890   3.236
12493W        W80867  15.123   8.660   2.734
12494W        W80868   7.237  21.040   2.848
12495W        W80869  23.081  41.512   3.839
12496W        W80870  36.555  39.912  10.623
12497W        W80871  23.237   3.244   2.702
12498W        W80872  13.730  40.895   1.451
12499W        W80873  36.484  15.595   1.786
12500W        W80874  25.980  26.553  11.497
12501W        W80875   1.872  26.170  11.028
12502W        W80876   5.411  15.788   2.324
12503W        W80877  33.464  26.057  13.375
12504W        W80878   5.422  11.211   0.456
12505W        W80879  16.132  29.628  12.481
12506W        W80880  37.044  44.318   0.815
12507W        W80881  13.767  23.101   3.867
12508W        W80882  13.729  41.345   4.826
12509W        W80883  42.842   7.320   1.423
12510W        W80884  34.962   9.282   4.348
12511W        W80885   1.815  40.348  13.890
12512W        W80886  30.982  28.534   1.278
12513W        W80887   0.413  37.844   0.876
12514W        W80888  41.836   3.774  14.427
12515W        W80889  16.649  18.280   2.682
12516W        W80890  29.111  12.340   4.206
12517W        W80891  10.204   5.387  13.517
12518W        W80892  26.193   9.350   0.892
12519W        W80893   1.304  42.416  13.057
12520W        W80894  11.137  26.055   4.226
12521W        W80895   8.799   5.883  10.453
12522W        W80896  23.683  39.512   0.961
12523W        W80897  43.863  12.136   4.276
12524W        W80898  19.590  17.621  12.068
12525W        W80899  22.059  41.513   2.347
12526W        W80900   3.376  38.420  11.395
12527W        W80901  16.595  13.317  14.373
12528W        W80902   3.944   4.926  12.433
12529W        W80903  34.568  10.214  10.928
12530W        W80904  37.003   9.339  11.950
12531W        W80905  25.066  11.743  13.507
12532W        W80906  30.063  13.169   0.250
12533W        W80907  41.455  13.773  11.421
12534W        W80908  10.799  15.668   0.453
12535W        W80909  19.157  27.102  11.873
12536W        W80910  21.550  44.343  11.488
12537W        W80911   8.247  31.953   0.887
12538W        W80912  18.767  40.038  14.772
12539W        W80913  27.950  31.521   4.615
12540W        W80914   2.858  19.068   2.215
12541W        W80915  31.017  14.795   0.415
12542W        W80916  36.461  38.902  14.877
12543W        W80917   3.869  24.060   2.682
12544W        W80918   7.716  23.628  13.401
12545W        W80919   8.858  16.778   0.270
12546W        W80920  40.895  34.593   2.851
12547W        W80921  38.861  30.519  12.828
12548W        W80922  33.583  35.929   3.697
12549W        W80923  23.076   3.256   0.249
12550W        W80924  35.485  25.539  10.957
12551W        W80925   8.897  40.866  14.337
12552W        W80926  32.544   5.238  14.884
12553W        W80927  27.504   9.743  12.942
12554W        W80928  33.016  11.174   2.895
12555W        W80929  43.453  16.574  12.850
12556W        W80930  38.898  42.429   1.852
12557W        W80931  29.492   2.924   2.186
12558W        W80932  21.158  14.204  14.456
12559W        W80933  44.279  25.561  11.855
12560W        W80934  11.303   3.920   1.276
12561W        W80935   4.795   9.301  10.454
12562W        W80936  25.607  43.883   3.808
12563W        W80937  17.076   9.753   3.683
12564W        W80938  39.959  38.544  14.773
12565W        W80939  20.088  33.467   3.231
12566W        W80940  21.257  18.670   3.302
12567W        W80941  14.590  24.694   0.918
12568W        W80942  10.219   7.854   1.735
12569W        W80943  30.998  23.526  12.835
12570W        W80944  37.845  25.162  12.392
12571W        W80945  10.708   4.908  12.425
12572W        W80946  32.594   0.425  14.971
12573W        W80947  38.849   7.289  12.557
12574W        W80948  17.652  28.658   2.284
12575W        W80949   6.817   5.304  14.762
12576W        W80950  41.468   1.482  13.905
12577W        W80951  36.359  12.196   1.870
12578W        W80952  20.232  13.163  11.391
12579W        W80953   6.707  40.307   4.699
12580W        W80954  13.836  34.417   0.431
12581W        W80955  14.664  33.561  10.905
12582W        W80956   7.810  37.841   3.296
12583W        W80957   0.332  37.875   0.378
12584W        W80958   2.848  31.639  11.871
12585W        W80959  20.599  42.455   3.868
12586W        W80960   2.736  31.030  14.783
12587W        W80961  14.111  42.446   4.741
12588W        W80962   1.785  18.133  12.972
12589W        W80963  40.529  42.493  13.004
12590W        W80964  21.513  14.683  13.324
12591W        W80965   1.879  11.750  10.569
12592W        W80966  10.335   4.247  13.313
12593W        W80967  43.803  28.612   4.170
12594W        W80968  20.153  26.013  12.377
12595W        W80969  23.736   3.937   3.777
12596W        W80970  22.519  33.115  14.381
12597W        W80971  11.826  18.588   2.325
12598W        W80972  27.012  35.948  13.462
12599W        W80973  10.338  38.560   9.956
12600W        W80974   1.782  14.127   1.239
12601W        W80975  34.971   8.697  12.055
12602W        W80976  42.425  43.833   0.250
12603W        W80977  25.137   1.388  10.463
12604W        W80978  10.346  23.212   4.212
12605W        W80979  29.590  39.967   2.202
12606W        W80980  25.207   6.254   1.811
12607W        W80981  13.601  12.740  10.500
12608W        W80982  44.827  11.799   2.224
12609W        W80983  37.961  30.111  14.013
12610W        W80984  19.076  21.070   5.215
12611W        W80985  11.295  27.687   4.662
12612W        W80986  28.639  22.182   2.781
12613W        W80987   5.207  26.565   1.396
12614W        W80988  35.383  41.452   4.658
12615W        W80989  14.638   1.934  11.494
12616W        W80990  36.052   4.217   2.838
12617W        W80991  38.957  23.223   4.315
12618W        W80992  35.038   4.791  10.466
12619W        W80993  34.583  12.214   3.173
12620W        W80994  19.678  33.038   1.229
12621W        W80995  31.120  33.564  14.338
12622W        W80996  17.625   7.215   2.814
12623W        W80997   1.401  11.651   4.813
12624W        W80998  31.130  31.130  14.395
12625W        W80999  30.082  11.641   0.753
12626W        W81000  16.275   2.382   1.393
12627W        W81001  35.970  31.128   1.859
12628W        W81002   1.442  24.564   2.221
12629W        W81003  37.068  35.445   2.317
12630W        W81004  43.433  24.174   4.795
12631W        W81005  21.679   5.299   3.175
12632W        W81006  32.613   0.932  11.060
12633W        W81007  35.943  44.470  12.934
12634W        W81008  17.188  34.915  11.053
12635W        W81009  18.776   7.816  12.547
12636W        W81010  11.707   0.435   1.299
12637W        W81011  28.154  22.637  11.461
12638W        W81012   1.249  18.733  11.860
12639W        W81013  36.869  33.404  14.326
12640W        W81014  35.572   3.835   3.214
12641W        W81015  27.490  19.159   1.266
12642W        W81016   6.905  34.488   1.280
12643W        W81017  13.295  36.027   1.391
12644W        W81018  35.446  18.787   0.402
12645W        W81019  38.932   8.769  13.996
12646W        W81020  43.460  29.131   1.931
12647W        W81021  10.209  27.507   0.408
12648W        W81022  16.721  37.917   2.206
12649W        W81023  29.934   9.329  13.792
12650W        W81024  30.969   5.316  11.390
12651W        W81025  42.391  42.880   1.931
12652W        W81026  37.974  13.688   0.773
12653W        W81027  41.035  32.564  12.080
12654W        W81028  24.124   2.425  13.414
12655W        W81029  15.317  37.888  13.338
12656W        W81030  38.982  24.084   1.736
12657W        W81031  40.411   2.755   0.807
12658W        W81032  31.099  39.551   4.180
12659W        W81033  21.570  36.969  12.434
12660W        W81034  39.898  16.710   4.332
12661W        W81035  38.517  27.010   3.166
12662W        W81036  32.406  40.401   3.200
12663W        W81037  17.296  36.976  14.353
12664W        W81038   8.372  25.211   4.143
12665W        W81039  21.147   8.326  10.494
12666W        W81040   8.664   7.406   3.789
12667W        W81041   6.309   4.229  10.615
12668W        W81042  17.234  12.117   3.288
12669W        W81043  33.108  26.132   3.258
12670W        W81044  38.931  24.068   5.136
12671W        W81045  34.511   5.246   1.300
12672W        W81046  21.173  32.115   0.384
12673W        W81047  41.817  33.577  11.571
12674W        W81048  30.470  43.285   2.222
12675W        W81049  14.301   5.212   1.721
12676W        W81050  34.547   3.943  10.962
12677W        W81051  32.627  22.713   0.846
12678W        W81052  16.081  40.337   3.378
12679W        W81053   3.325  25.634  12.944
12680W        W81054  39.331  42.491  14.440
12681W        W81055  13.265  18.180   2.734
12682W        W81056  29.042  40.439  13.475
12683W        W81057   6.309  13.823  14.796
12684W        W81058  23.106  14.249  14.340
12685W        W81059   6.222   0.438   4.321
12686W        W81060  18.246  25.980  11.976
12687W        W81061  34.988  43.998   0.909
12688W        W81062  34.060   3.445  13.959
12689W        W81063  14.795  24.019   1.424
12690W        W81064  19.694   2.317   3.765
12691W        W81065  18.636  32.957   4.816
12692W        W81066  24.120  33.046   3.164
12693W        W81067  13.651   6.905   1.371
12694W        W81068   7.880  26.147  10.585
12695W        W81069  37.536  25.971  10.521
12696W        W81070  37.366  31.001  12.468
12697W        W81071  22.580  26.537   0.427
12698W        W81072  16.082   6.273  12.892
12699W        W81073   5.896  14.589   0.919
12700W        W81074   2.375  20.732   1.425
12701W        W81075  25.187  21.223   1.251
12702W        W81076   6.373  32.016  11.491
12703W        W81077  44.764  26.981   3.828
12704W        W81078  39.531  43.826   4.354
12705W        W81079  35.965   7.302   0.311
12706W        W81080  14.690  27.089   1.300
12707W        W81081  11.240  12.644   3.366
12708W        W81082  20.091  28.445  14.374
12709W        W81083  10.706   4.341  10.959
12710W        W81084  38.062  18.565   1.243
12711W        W81085  26.692   8.817   3.756
12712W        W81086  26.496   4.222   0.789
12713W        W81087  28.947   2.289  12.437
12714W        W81088  12.817  11.281   4.269
12715W        W81089  18.706   2.837  14.892
12716W        W81090  29.111  15.714  12.367
12717W        W81091   6.282  15.176  13.881
12718W        W81092   4.898  10.141   5.178
12719W        W81093   0.912  20.730  11.613
12720W        W81094  19.066  15.583   3.265
12721W        W81095   6.360  18.204   4.347
12722W        W81096  37.905   2.421  14.951
12723W        W81097   2.325  31.463   3.292
12724W        W81098  17.596  21.085   0.416
12725W        W81099  24.039  12.689  13.453
12726W        W81100   6.324   1.969   2.341
12727W        W81101  17.072  23.654   2.212
12728W        W81102  44.855  19.122   4.330
12729W        W81103  38.076   2.226   2.221
12730W        W81104  24.717  13.685  13.907
12731W        W81105  38.928  25.035   1.827
12732W        W81106  23.166  18.559   1.388
12733W        W81107  18.258   7.816   3.350
12734W        W81108  30.461  29.144  10.460
12735W        W81109  23.208  28.086   1.212
12736W        W81110  41.524   2.456   4.300
12737W        W81111  32.119  32.891  12.396
12738W        W81112  21.263   3.907  12.485
12739W        W81113  32.906  26.511   0.813
12740W        W81114  15.821  41.912   0.437
12741W        W81115  25.576  43.960  10.902
12742W        W81116  36.056  12.230   4.278
12743W        W81117   2.437  14.293  14.390
12744W        W81118  17.301   3.262   1.327
12745W        W81119  22.171  20.180   3.831
12746W        W81120  33.593  15.135   3.662
12747W        W81121  32.540  34.491  10.498
12748W        W81122   7.881  37.550   2.855
12749W        W81123   5.198   4.700   3.372
12750W        W81124  12.137  41.457  11.949
12751W        W81125   8.893  17.724  14.031
12752W        W81126  27.006  26.020   4.824
12753W        W81127  27.603  16.809  12.925
12754W        W81128  39.326   5.691  12.365
12755W        W81129  16.247  35.043  10.460
12756W        W81130  25.189  40.918   0.275
12757W        W81131  28.606  10.844  10.442
12758W        W81132   6.196  42.798  12.003
12759W        W81133   2.840  11.164  13.447
12760W        W81134   0.818  29.077   9.982
12761W        W81135  11.229   8.700  10.581
12762W        W81136  28.063   1.862   3.385
12763W        W81137   8.672  18.270   1.308
12764W        W81138  10.336  30.577   4.114
12765W        W81139  43.320  44.353  11.612
12766W        W81140  13.751  25.633   4.159
12767W        W81141  41.443  24.978  13.407
12768W        W81142  16.781  23.993   2.179
12769W        W81143  29.535  32.134   1.307
12770W        W81144  37.905  43.797  11.582
12771W        W81145  24.126  10.299   2.757
12772W        W81146  13.839  27.004  11.527
12773W        W81147  15.811  18.725   1.818
12774W        W81148   5.824  28.499  14.444
12775W        W81149  17.725  38.412  10.551
12776W        W81150  13.778   4.742   0.459
12777W        W81151  38.371  31.102   4.131
12778W        W81152  32.044  25.610  14.317
12779W        W81153  17.140  26.157  10.556
12780W        W81154  21.687  20.543   0.956
12781W        W81155   6.739  12.840  12.923
12782W        W81156  17.570  42.860  11.400
12783W        W81157  35.360  23.056  11.049
12784W        W81158   2.347  20.724  13.508
12785W        W81159  38.538  42.506   2.382
12786W        W81160  19.580  35.018  14.975
12787W        W81161   2.250  14.288  13.990
12788W        W81162  10.688  20.223   2.381
12789W        W81163  16.232  16.623  13.985
12790W        W81164  40.339   4.350  12.973
12791W        W81165   4.813  10.857  14.478
12792W        W81166  20.679  38.033   4.820
12793W        W81167  22.118  43.330  12.013
12794W        W81168  21.602  29.008  13.858
12795W        W81169  30.939  30.049   2.695
12796W        W81170   0.803   2.227   0.793
12797W        W81171  40.956  40.974  13.387
12798W        W81172   4.375  18.158   1.284
12799W        W81173  21.617  30.569   0.810
12800W        W81174  38.975   9.329   3.770
12801W        W81175  26.092  36.586   1.757
12802W        W81176   5.785  23.168   1.272
12803W        W81177  36.346  37.387  11.529
12804W        W81178  31.596   0.272  12.961
12805W        W81179   5.407  18.260   0.323
12806W        W81180  20.132  37.943  13.336
12807W        W81181  35.032   9.725  10.532
12808W        W81182  31.617  21.740   2.880
12809W        W81183   3.287  26.044  10.962
12810W        W81184  27.525  29.107   0.826
12811W        W81185  16.766  41.475   3.711
12812W        W81186   9.738  15.801   3.827
12813W        W81187   8.738  39.979  10.496
12814W        W81188   8.690  41.038  10.414
12815W        W81189  13.729   9.392   5.138
12816W        W81190   1.395  17.702  14.826
12817W        W81191   5.793  16.189  10.543
12818W        W81192  35.987   1.361   1.442
12819W        W81193  26.549  20.176   0.452
12820W        W81194   0.337  12.650   0.433
12821W        W81195   9.821   6.232  12.421
12822W        W81196  30.941  18.790  13.517
12823W        W81197  22.205  30.157   2.797
12824W        W81198  23.177  19.181   4.287
12825W        W81199  32.115  37.559  12.070
12826W        W81200   0.467   8.808  14.320
12827W        W81201  31.502  33.564  11.882
12828W        W81202  29.998  40.534  14.300
12829W        W81203  13.703   5.882  13.500
12830W        W81204  17.062  38.467   4.258
12831W        W81205  14.145  18.092   9.994
12832W        W81206  39.004   6.412  12.913
12833W        W81207  43.953  16.733   2.707
12834W        W81208  15.137  31.518  11.031
12835W        W81209  29.477   4.875   0.775
12836W        W81210   8.716  37.507   2.739
12837W        W81211  17.289  15.580  13.323
12838W        W81212  27.999   7.787  12.844
12839W        W81213  27.628  10.761  14.895
12840W        W81214  11.667   9.237   0.849
12841W        W81215  12.664  37.416  11.107
12842W        W81216  36.850  30.479   0.742
12843W        W81217  34.566  44.812   4.176
12844W        W81218  22.038  37.993   1.785
12845W        W81219  14.304  41.407  14.378
12846W        W81220  28.442  35.085   2.259
12847W        W81221  29.958  11.200  11.964
12848W        W81222  16.607   8.185   2.680
12849W        W81223  23.659   0.781   0.736
12850W        W81224   3.285  26.155   4.313
12851W        W81225   7.835   1.457  11.025
12852W        W81226  31.010  43.416  11.063
12853W        W81227  10.741  29.001  10.895
12854W        W81228  25.152  30.584   9.961
12855W        W81229  34.898  28.995  10.152
12856W        W81230  23.516  36.908  14.387
12857W        W81231  14.721  32.506  14.895
12858W        W81232   2.399  23.089   3.376
12859W        W81233  15.729  14.748   0.358
12860W        W81234  14.237  39.955  12.507
12861W        W81235   9.822  17.108  14.434
12862W        W81236   4.791  41.002  12.959
12863W        W81237   0.787   7.775  10.549
12864W        W81238  11.299  35.526  11.877
12865W        W81239  40.512   3.880   4.794
12866W        W81240  28.540  14.781   0.850
12867W        W81241  28.659  37.841   3.837
12868W        W81242  11.276  31.136   0.741
12869W        W81243  29.149  34.101  10.536
12870W        W81244   0.428  39.514   2.810
12871W        W81245  27.985  37.972  12.067
12872W        W81246  30.429   1.769  14.388
12873W        W81247  37.364  38.491  10.096
12874W        W81248  24.118  35.426  14.363
12875W        W81249  32.141  32.126  12.489
12876W        W81250  31.059  19.126  14.385
12877W        W81251  42.282  13.194   0.295
12878W        W81252   6.324  37.868  11.404
12879W        W81253  25.599  42.950  12.957
12880W        W81254  32.113  26.159   4.610
12881W        W81255  31.485  22.223  12.824
12882W        W81256  26.663  10.151   4.131
12883W        W81257  25.678  33.523  10.482
12884W        W81258  19.725  10.182  13.850
12885W        W81259  28.937  22.039   1.227
12886W        W81260   6.852  42.013   4.641
12887W        W81261   8.841  33.521   3.307
12888W        W81262  23.047   4.235  13.872
12889W        W81263  42.027  23.139   4.134
12890W        W81264  23.667  24.213  12.467
12891W        W81265  43.396  23.669   2.248
12892W        W81266   5.337   7.393   2.821
12893W        W81267   2.459  44.844  13.479
12894W        W81268  27.033  12.307  10.458
12895W        W81269   5.725  36.431   3.325
12896W        W81270  14.604  28.096   4.622
12897W        W81271  23.546   8.717   3.287
12898W        W81272  36.559  44.781  14.822
12899W        W81273  37.489   6.708   2.897
12900W        W81274   4.786  41.365  11.490
12901W        W81275  32.007  22.028  13.909
12902W        W81276  37.563  35.858  11.539
12903W        W81277  10.160  30.461  13.336
12904W        W81278  17.073  37.548   4.303
12905W        W81279  34.946  28.031   4.191
12906W        W81280  43.959  16.182  13.476
12907W        W81281  35.872   1.773   3.146
12908W        W81282  23.530  31.976   2.301
12909W        W81283  14.767   0.490  11.552
12910W        W81284  30.925  33.403   3.303
12911W        W81285  35.936  36.039   3.331
12912W        W81286  10.879  27.091  14.298
12913W        W81287  13.759  20.241  12.933
12914W        W81288  29.162   9.182   4.297
12915W        W81289  28.967  15.682   1.433
12916W        W81290  38.919  39.830   1.864
12917W        W81291  14.724   2.266  10.602
12918W        W81292  17.240  23.169  12.936
12919W        W81293  15.095  22.711  11.060
12920W        W81294  33.983  35.424   2.186
12921W        W81295  23.233   3.902  13.523
12922W        W81296  17.299   0.393   2.239
12923W        W81297  23.015  41.293   1.880
12924W        W81298  28.128  33.454   4.634
12925W        W81299  35.424   3.885  14.904
12926W        W81300  27.590   5.307  14.489
12927W        W81301  13.280   0.928   1.855
12928W        W81302  11.248  11.251  13.850
12929W        W81303  18.562  38.497   1.302
12930W        W81304   0.485  14.604  14.861
12931W        W81305  32.618   1.331  11.028
12932W        W81306  19.669  37.535   4.322
12933W        W81307  32.489   3.379  10.565
12934W        W81308  34.553  39.961   2.341
12935W        W81309  22.156  26.059   0.321
12936W        W81310  29.595  33.131   3.799
12937W        W81311  11.739  40.362  14.280
12938W        W81312  11.163   0.927  13.891
12939W        W81313  41.897   3.873  11.106
12940W        W81314  14.668  13.111   4.176
12941W        W81315  30.548  42.910   4.720
12942W        W81316   1.878  15.724   2.829
12943W        W81317  39.905  25.548   4.231
12944W        W81318  11.775  37.494   4.835
12945W        W81319   3.318  31.493   2.841
12946W        W81320  18.770  41.507  11.087
12947W        W81321  35.929  43.346   5.249
12948W        W81322  13.247  33.420  11.477
12949W        W81323  23.156  16.112   3.257
12950W        W81324  34.938  37.475   2.186
12951W        W81325  44.920  10.268  13.463
12952W        W81326  16.776  37.907   1.865
12953W        W81327  26.596  15.629  14.919
12954W        W81328  42.934  17.205   1.910
12955W        W81329   8.896  37.989  10.474
12956W        W81330  17.728  33.014   4.736
12957W        W81331   6.680  19.217  12.476
12958W        W81332   6.688  18.776   0.475
12959W        W81333  29.016  18.739   2.295
12960W        W81334  42.296  37.034   2.306
12961W        W81335  32.127  15.822   1.843
12962W        W81336  27.498   7.280  13.995
12963W        W81337   3.255   3.754  12.390
12964W        W81338  20.694  29.600  12.542
12965W        W81339  38.834  37.907   9.967
12966W        W81340  44.932  29.564   2.666
12967W        W81341   8.874  36.887  13.470
12968W        W81342  19.182  18.585   2.709
12969W        W81343  21.556  27.138   4.743
12970W        W81344  15.268  15.785   4.711
12971W        W81345  20.135   6.700   3.213
12972W        W81346  16.204  29.921   1.715
12973W        W81347   7.684  23.690   2.384
12974W        W81348  41.406  14.113  14.360
12975W        W81349  26.180   4.376   2.791
12976W        W81350  29.067  13.303  14.400
12977W        W81351  29.991   3.941  13.870
12978W        W81352  38.378  10.874  14.956
12979W        W81353  35.044   5.774  13.846
12980W        W81354  35.443  12.671   3.669
12981W        W81355  15.784  44.362   5.279
12982W        W81356  28.467  34.986   1.376
12983W        W81357  30.472  36.447  11.413
12984W        W81358  19.121  11.243  11.533
12985W        W81359  29.135  35.445   1.431
12986W        W81360  35.367  29.630   0.950
12987W        W81361   7.708  25.041  12.358
12988W        W81362  36.467  30.515  12.029
12989W        W81363  14.313  28.153  10.943
12990W        W81364  21.201  30.089   5.287
12991W        W81365  35.437   7.701   4.621
12992W        W81366  18.073  19.137   4.238
12993W        W81367  31.983   8.780   5.089
12994W        W81368  13.175  15.295   2.226
12995W        W81369  25.676  20.677  11.534
12996W        W81370   4.331   3.820   2.866
12997W        W81371  25.593   2.948  13.816
12998W        W81372  37.921   5.688   4.781
12999W        W81373  42.356  19.744  13.375
13000W        W81374  19.111  28.507  12.934
13001W        W81375  22.708   3.318   1.905
13002W        W81376  39.029  16.637   1.390
13003W        W81377  40.396   0.955  12.419
13004W        W81378  35.868   7.377  10.526
13005W        W81379  25.213  37.560  14.412
13006W        W81380   8.871  41.499   3.161
13007W        W81381  33.487  43.011   4.229
13008W        W81382  28.943  25.615  11.479
13009W        W81383  38.568  17.776   0.280
13010W        W81384  13.618   8.897  12.042
13011W        W81385  23.110   4.274   3.806
13012W        W81386  16.643  19.677  11.477
13013W        W81387   3.318  17.244  14.000
13014W        W81388   5.804  37.492   3.848
13015W        W81389  43.939  43.435  10.431
13016W        W81390  20.051   7.212   2.395
13017W        W81391  34.967  34.111   4.664
13018W        W81392  33.574  21.247   0.932
13019W        W81393  29.923   5.391  12.369
13020W        W81394  27.190   2.945  13.869
13021W        W81395  18.790  31.537  12.414
13022W        W81396   6.838   0.404  14.438
13023W        W81397  32.597  42.313  14.774
13024W        W81398  25.063  41.402   0.393
13025W        W81399  30.642  20.565   0.348
13026W        W81400  30.461  33.965  13.535
13027W        W81401  16.664  30.427  11.386
13028W        W81402  44.952  30.530   3.145
13029W        W81403   4.740  12.261  12.411
13030W        W81404   6.420  31.568  12.930
13031W        W81405  11.176  16.098   3.340
13032W        W81406  33.390  43.964  11.522
13033W        W81407  30.069  18.656  13.355
13034W        W81408   6.815   1.385  11.452
13035W        W81409  10.177  13.638  13.497
13036W        W81410  39.559  31.622  11.909
13037W        W81411  12.260  24.028  12.833
13038W        W81412   7.411   5.772   5.203
13039W        W81413   4.793  29.661   3.780
13040W        W81414  10.276   5.884   3.353
13041W        W81415  35.045  26.549  12.035
13042W        W81416  32.401  37.356  10.605
13043W        W81417  39.376  34.068   2.363
13044W        W81418  43.418  31.092  14.777
13045W        W81419   8.180   9.377   1.381
13046W        W81420  24.720   7.805   2.352
13047W        W81421  22.046  23.539   0.835
13048W        W81422  10.247  33.391   3.378
13049W        W81423  42.875  19.682  11.040
13050W        W81424   4.799  41.401   0.404
13051W        W81425  18.746   1.902   3.159
13052W        W81426  28.978   7.816   0.373
13053W        W81427  37.498  26.582  14.315
13054W        W81428  31.527   0.780   1.441
13055W        W81429  27.982   1.791   4.649
13056W        W81430  38.448  29.560  14.821
13057W        W81431   7.316   9.841   3.207
13058W        W81432  15.650   7.254  14.289
13059W        W81433  15.147   8.881   1.227
13060W        W81434   5.809  26.584  10.996
13061W        W81435   6.295   6.816   1.815
13062W        W81436  27.676  23.195   4.689
13063W        W81437  14.321  43.835   3.355
13064W        W81438  27.128  17.251  14.984
13065W        W81439  26.681  40.886  14.373
13066W        W81440   1.775  13.237  14.763
13067W        W81441   1.245  11.193  11.582
13068W        W81442   8.186  20.275   4.260
13069W        W81443  30.659  11.672   2.702
13070W        W81444  18.192  36.427   4.251
13071W        W81445  31.908   1.421  13.994
13072W        W81446   3.255  25.014   0.430
13073W        W81447   8.876  33.975  11.899
13074W        W81448   8.376  28.101  11.613
13075W        W81449  11.715  24.192   4.263
13076W        W81450  30.576  41.500   1.222
13077W        W81451  22.995  17.217  12.963
13078W        W81452  18.231  39.999   4.181
13079W        W81453  40.030   9.386  14.281
13080W        W81454  11.157  26.695  11.438
13081W        W81455   0.380  23.661   1.793
13082W        W81456  25.172   2.907  12.453
13083W        W81457  30.485  42.921  12.895
13084W        W81458  40.394   7.807  10.638
13085W        W81459   9.823  10.796   3.237
13086W        W81460  23.688  36.844   1.856
13087W        W81461  38.064  39.517  13.406
13088W        W81462   3.763  31.624  11.441
13089W        W81463   6.300  20.767   3.821
13090W        W81464  17.083  20.764   1.707
13091W        W81465  15.253   7.690  14.364
13092W        W81466  24.089  44.400  13.854
13093W        W81467  41.375  26.963   2.198
13094W        W81468  39.890  31.133  11.384
13095W        W81469  35.363  23.678  14.460
13096W        W81470  20.717  27.508  14.323
13097W        W81471  16.316  27.019  10.502
13098W        W81472  44.934  19.098  11.436
13099W        W81473  18.673  21.248  11.488
13100W        W81474  43.863  22.605   3.740
13101W        W81475  38.467  26.633   2.251
13102W        W81476  27.606  42.389   0.358
13103W        W81477  18.776   8.675  12.471
13104W        W81478   0.919  33.393  14.918
13105W        W81479  25.039  26.961  11.082
13106W        W81480  30.516  29.516   1.712
13107W        W81481   7.709  12.722  14.354
13108W        W81482  28.625   9.226  10.406
13109W        W81483  41.815  16.804   4.740
13110W        W81484  15.300   4.405  14.455
13111W        W81485  44.380  16.662  13.950
13112W        W81486  43.291  32.135   4.152
13113W        W81487  25.600  27.565   4.322
13114W        W81488  15.579  25.078  10.976
13115W        W81489  37.356  29.560   4.771
13116W        W81490  33.443  17.128  14.011
13117W        W81491  26.505   5.244  11.610
13118W        W81492  24.668  33.128   2.665
13119W        W81493  28.060  43.842   4.268
13120W        W81494  10.841  42.779  13.821
13121W        W81495  20.645  31.506   0.802
13122W        W81496   4.439  29.002  13.884
13123W        W81497  21.193  15.746  14.478
13124W        W81498  38.822  12.125   1.258
13125W        W81499   9.351  40.940  14.031
13126W        W81500   6.381  36.061   3.337
13127W        W81501  22.053  26.489  12.423
13128W        W81502  18.682  24.572  11.426
13129W        W81503  34.479  36.846  10.624
13130W        W81504  18.583  40.948   2.219
13131W        W81505  32.938   7.824  13.867
13132W        W81506  17.610  35.056   4.277
13133W        W81507  43.933   8.692  10.972
13134W        W81508  23.117  15.717  12.983
13135W        W81509  43.895   6.334  13.498
13136W        W81510  34.590  14.142   3.362
13137W        W81511  35.570  29.976  11.528
13138W        W81512  12.767  30.515  10.543
13139W        W81513  17.768   3.461   1.418
13140W        W81514   0.272  39.826  14.997
13141W        W81515  33.591   6.688  10.447
13142W        W81516  12.137  28.482  11.597
13143W        W81517  16.141   1.386   0.739
13144W        W81518  26.703  23.190  12.493
13145W        W81519  12.681   4.264   3.348
13146W        W81520   6.305  33.449   1.412
13147W        W81521   1.239   7.893   4.235
13148W        W81522   6.684  12.675   4.333
13149W        W81523   1.355  27.167  10.600
13150W        W81524  36.487  13.179  10.962
13151W        W81525  35.481  24.047  13.363
13152W        W81526  41.433  44.334   3.160
13153W        W81527  43.314  27.659   0.949
13154W        W81528  32.486  18.254  14.454
13155W        W81529  41.411  23.198   2.260
13156W        W81530  26.560  21.139   0.434
13157W        W81531  28.479  44.349  13.055
13158W        W81532  16.598  15.235  13.386
13159W        W81533  21.656  15.086  10.473
13160W        W81534  10.355  18.172  10.939
13161W        W81535  42.429  36.423  10.576
13162W        W81536  36.061  37.386   4.226
13163W        W81537   4.914   6.853  13.521
13164W        W81538  10.210  38.887   1.447
13165W        W81539   7.729  29.499  14.487
13166W        W81540  40.883  23.562  12.575
13167W        W81541  37.893  17.572   2.902
13168W        W81542   0.310  34.029   2.318
13169W        W81543  29.544  18.231  10.545
13170W        W81544   6.903  10.770  11.591
13171W        W81545  19.257   0.277   1.438
13172W        W81546   3.910  43.410  11.510
13173W        W81547  20.216  28.097  11.004
13174W        W81548  11.147  37.372   0.436
13175W        W81549  31.971  20.548   4.237
13176W        W81550  28.086  39.333  11.970
13177W        W81551  41.403  23.180  14.375
13178W        W81552  14.325  26.672  11.469
13179W        W81553  43.414  22.203   0.888
13180W        W81554  21.575   1.896   1.775
13181W        W81555   2.291   0.379  13.861
13182W        W81556  34.601  19.555   3.168
13183W        W81557   4.335  13.106  11.468
13184W        W81558  28.125  20.710  14.823
13185W        W81559   3.822   8.768   0.298
13186W        W81560   7.741  31.543   0.769
13187W        W81561   8.400  38.841   0.833
13188W        W81562  18.239  13.211  10.918
13189W        W81563  10.822  44.484  12.064
13190W        W81564  38.023  24.093  12.385
13191W        W81565  15.248  43.382   1.836
13192W        W81566  44.837  42.509   1.918
13193W        W81567  35.030  15.165  13.396
13194W        W81568  16.264   7.414  13.457
13195W        W81569  24.140  25.530   1.859
13196W        W81570   0.351  26.674   0.341
13197W        W81571  15.582  36.355  11.003
13198W        W81572  41.418  28.445  14.828
13199W        W81573  27.455   5.740   0.785
13200W        W81574  22.519  26.004  11.999
13201W        W81575  23.176   3.943   0.459
13202W        W81576   7.397  12.613  13.893
13203W        W81577  24.999  27.511  13.914
13204W        W81578  23.659   0.369  12.344
13205W        W81579  39.544   7.262  11.024
13206W        W81580  42.779   0.983   3.669
13207W        W81581   6.362  32.072  14.031
13208W        W81582  22.013  35.494  10.979
13209W        W81583  12.192  36.025  11.991
13210W        W81584   9.192  13.608   3.822
13211W        W81585  15.673  21.070  12.985
13212W        W81586  11.284  40.897   0.733
13213W        W81587  35.017   2.783   4.755
13214W        W81588  26.485  18.070   3.317
13215W        W81589  11.679  35.513  13.506
13216W        W81590   2.350   6.295  12.543
13217W        W81591  19.755  33.878  14.920
13218W        W81592  35.072  28.511  13.379
13219W        W81593  41.533  21.064  13.485
13220W        W81594   2.939  38.828  11.527
13221W        W81595  16.311  35.859  13.511
13222W        W81596  24.668   4.860  13.454
13223W        W81597  24.162   6.399   1.737
13224W        W81598  14.801  37.946   1.409
13225W        W81599  13.806  23.515  11.077
13226W        W81600  32.086  40.520   2.870
13227W        W81601  22.182  43.925   4.642
13228W        W81602  25.202   8.232  12.892
13229W        W81603  30.582  22.601  11.054
13230W        W81604   4.360  13.644  12.841
13231W        W81605  26.591  36.046  11.513
13232W        W81606  26.202  40.435   1.764
13233W        W81607  32.441  16.651  14.419
13234W        W81608  36.970  38.446   4.632
13235W        W81609  38.936  37.394  14.509
13236W        W81610  11.208   8.232   1.216
13237W        W81611  25.219  43.270  11.534
13238W        W81612  41.482  41.318  10.937
13239W        W81613   6.264  34.958   3.207
13240W        W81614   8.309   9.676  13.899
13241W        W81615  43.419  15.696   1.339
13242W        W81616  36.487  13.177   1.907
13243W        W81617   6.865  21.113   3.247
13244W        W81618  10.780  28.935   3.190
13245W        W81619  30.449  20.252  13.323
13246W        W81620  42.985  25.165  11.863
13247W        W81621  22.136  24.532  11.475
13248W        W81622  23.239  19.280  12.552
13249W        W81623   3.238  31.106  14.841
13250W        W81624  28.617  23.700   1.784
13251W        W81625  35.525  13.208  12.021
13252W        W81626   0.854  18.772  10.096
13253W        W81627  37.910  13.693   2.690
13254W        W81628  14.165  21.133  14.951
13255W        W81629  12.685  12.829   1.308
13256W        W81630   8.229   6.890  13.520
13257W        W81631  27.181  29.978  14.934
13258W        W81632  15.792  17.755   3.382
13259W        W81633  38.848  31.509   5.290
13260W        W81634  22.543  19.662  14.957
13261W        W81635  36.010  31.414   2.773
13262W        W81636  26.951  38.537  13.518
13263W        W81637  27.617  11.216  12.003
13264W        W81638  19.607  38.459   5.312
13265W        W81639  42.285  22.012  11.881
13266W        W81640  39.379   2.354   0.732
13267W        W81641  24.206   6.347   4.167
13268W        W81642   8.705  43.853  11.405
13269W        W81643  18.679  34.528  14.007
13270W        W81644   5.423  27.642   3.828
13271W        W81645  20.205  30.542  13.430
13272W        W81646  25.546  12.221   1.285
13273W        W81647  28.567   5.845  14.479
13274W        W81648  20.635  14.658   1.886
13275W        W81649  31.076  25.690  13.416
13276W        W81650  39.386  37.370  13.815
13277W        W81651  21.727  22.211  11.531
13278W        W81652  21.640  41.950  12.580
13279W        W81653  25.489  20.164  13.006
13280W        W81654  20.586  24.054   3.792
13281W        W81655  42.994   0.957   4.721
13282W        W81656  15.607   6.749  11.018
13283W        W81657   8.840  18.265   2.787
13284W        W81658  38.851  40.361   3.855
13285W        W81659  40.354   5.281  14.892
13286W        W81660  18.601   6.878   4.778
13287W        W81661   6.321  29.030   0.446
13288W        W81662  41.325  37.039   3.231
13289W        W81663  11.140   8.726   0.386
13290W        W81664  36.519  41.984  14.998
13291W        W81665  19.779   2.790  14.406
13292W        W81666  20.637  10.829  14.840
13293W        W81667  30.548  15.094   4.660
13294W        W81668   2.796  12.720   0.937
13295W        W81669   3.954  37.882  10.635
13296W        W81670  22.141  42.290  14.484
13297W        W81671   8.263  31.099  10.467
13298W        W81672  12.356  32.989   2.279
13299W        W81673  28.538  38.419   4.820
13300W        W81674  27.041  15.325   0.930
13301W        W81675  25.574  36.521   3.351
13302W        W81676  18.130   5.852  14.377
13303W        W81677  30.426  30.056   1.364
13304W        W81678  39.506   7.407   2.275
13305W        W81679  22.193  20.061   3.251
13306W        W81680  44.318  20.588   0.806
13307W        W81681  19.578   3.924  14.377
13308W        W81682  26.110  33.091   1.817
13309W        W81683  39.061   8.746  12.495
13310W        W81684  27.945  15.174   3.870
13311W        W81685  23.182  33.446  14.295
13312W        W81686   2.247   2.439  13.931
13313W        W81687   7.910   5.829   0.873
13314W        W81688  10.775  17.258  13.045
13315W        W81689   2.734   8.299  13.346
13316W        W81690  24.690  37.402   3.325
13317W        W81691  23.582  22.545   0.907
13318W        W81692   6.910  22.065   3.857
13319W        W81693   3.286   8.202   3.737
13320W        W81694   4.841  43.433   4.621
13321W        W81695   6.335  29.118   4.134
13322W        W81696   5.787   0.798   1.698
13323W        W81697  10.798   6.387  12.854
13324W        W81698  22.111  40.527   2.693
13325W        W81699   5.357   4.393  11.382
13326W        W81700  38.866  27.652  12.943
13327W        W81701  36.958  23.018   4.152
13328W        W81702  12.331  42.361   4.654
13329W        W81703  20.699  37.496   9.994
13330W        W81704  44.807  19.121  13.903
13331W        W81705  44.376  29.630   1.429
13332W        W81706   6.747  40.047   2.821
13333W        W81707   2.784   3.220  10.945
13334W        W81708  15.606   4.386   0.746
13335W        W81709  25.507  42.913  12.091
13336W        W81710   0.898   7.202   3.724
13337W        W81711  14.807  35.511   1.217
13338W        W81712  10.299  17.598   0.740
13339W        W81713   0.953  30.078  10.962
13340W        W81714   2.413   1.380  10.426
13341W        W81715   1.403  36.065   1.914
13342W        W81716  41.039   0.965  11.968
13343W        W81717  11.143   1.483   0.415
13344W        W81718  27.971   2.267   2.728
13345W        W81719  26.086   4.775   2.666
13346W        W81720  32.058  25.019   1.760
13347W        W81721  11.717   6.684  10.969
13348W        W81722  31.910  24.638   2.180
13349W        W81723  37.897  20.102  14.339
13350W        W81724  14.827   0.759  12.840
13351W        W81725   3.752   9.696   3.176
13352W        W81726  30.086  18.614   0.434
13353W        W81727  37.405  38.433  12.854
13354W        W81728  41.515   6.224  11.014
13355W        W81729  36.402  15.679   3.349
13356W        W81730  20.260  41.342  14.831
13357W        W81731  41.903   1.369  12.572
13358W        W81732  36.555  15.249  14.855
13359W        W81733  23.500  11.767  10.479
13360W        W81734  27.619  35.424  14.333
13361W        W81735  39.002  32.631  10.077
13362W        W81736  22.529  35.923   2.804
13363W        W81737   5.428  42.420   2.338
13364W        W81738  18.185   4.236  10.903
13365W        W81739  23.635  23.100  13.869
13366W        W81740  16.151  20.601  13.329
13367W        W81741  44.837  13.126  10.548
13368W        W81742   2.965   2.917   1.772
13369W        W81743   4.712  24.018   9.977
13370W        W81744  35.991  31.141   3.631
13371W        W81745   4.742  44.755   2.693
13372W        W81746  31.567  42.458  13.513
13373W        W81747  17.790   6.427  12.542
13374W        W81748  25.606  38.997  13.900
13375W        W81749  31.127  40.816  12.039
13376W        W81750  41.382   7.193   0.960
13377W        W81751  18.183  27.968  14.854
13378W        W81752   6.220   6.226   1.437
13379W        W81753  40.375  24.128   2.719
13380W        W81754   8.306  25.112   3.360
13381W        W81755  26.983  35.564  10.993
13382W        W81756  24.565  36.389   2.691
13383W        W81757  17.237  41.924  13.867
13384W        W81758  27.685  34.601   0.924
13385W        W81759  31.056   3.349  10.071
13386W        W81760  39.989   0.258  11.907
13387W        W81761  32.943   9.282   3.242
13388W        W81762  34.516  18.548  11.605
13389W        W81763  34.865  23.665  11.866
13390W        W81764  14.234  12.263  14.796
13391W        W81765  28.133   7.821  13.415
13392W        W81766   6.723  29.076  13.447
13393W        W81767  44.500  10.722  12.072
13394W        W81768  10.211  28.478   2.356
13395W        W81769  14.096  26.488   0.456
13396W        W81770   9.209  35.514   3.254
13397W        W81771   1.263   5.906  11.054
13398W        W81772  17.093  36.451  12.087
13399W        W81773  40.848  35.086  13.335
13400W        W81774   0.888  12.658   1.752
13401W        W81775  10.729  35.405   2.663
13402W        W81776  38.925  29.599   2.808
13403W        W81777  31.587  31.544   4.792
13404W        W81778  35.958  32.401   3.169
13405W        W81779  12.117  25.189   4.605
13406W        W81780  39.418  16.103  11.047
13407W        W81781  28.178  30.599   4.232
13408W        W81782  28.102  44.422   2.344
13409W        W81783  32.488  13.255   1.816
13410W        W81784  19.573  39.367   0.408
13411W        W81785   8.285  44.009   0.749
13412W        W81786   6.684  12.128  11.564
13413W        W81787  14.814  43.807  13.848
13414W        W81788   2.315  37.505  10.006
13415W        W81789  44.366   2.744  13.024
13416W        W81790  27.609  11.352  13.996
13417W        W81791  37.999   2.764  12.535
13418W        W81792   6.420  17.180   3.864
13419W        W81793  14.270  44.298  11.553
13420W        W81794  15.696  34.431   2.722
13421W        W81795  41.865  37.537   1.930
13422W        W81796   9.696  41.362   2.359
13423W        W81797  16.582  33.548  11.524
13424W        W81798  29.003  13.645   3.374
13425W        W81799  24.557  38.376   0.461
13426W        W81800  19.206  42.430  13.863
13427W        W81801  43.832   3.340   1.235
13428W        W81802  31.460  15.288   3.745
13429W        W81803  39.005  39.458  11.992
13430W        W81804  18.575  39.396   3.724
13431W        W81805  44.863  13.294  11.556
13432W        W81806  11.844  31.897  13.945
13433W        W81807  16.747  39.514   0.939
13434W        W81808  19.616  18.661   2.338
13435W        W81809  17.628  25.216  12.389
13436W        W81810  44.856   1.742   5.321
13437W        W81811   9.741  42.862   4.768
13438W        W81812  35.859   5.255  14.823
13439W        W81813  35.864  26.563  12.452
13440W        W81814  42.987   7.705   1.763
13441W        W81815  30.991  32.440   2.314
13442W        W81816   8.672  29.451   4.192
13443W        W81817  14.330  27.016  10.421
13444W        W81818  10.166  38.531  13.954
13445W        W81819  18.762  14.276  14.408
13446W        W81820  32.414  32.041  13.357
13447W        W81821   6.711   6.822  14.436
13448W        W81822  33.939   7.337   3.272
13449W        W81823  42.893  25.058  10.526
13450W        W81824  26.142  32.039   4.683
13451W        W81825  42.477  31.592   2.843
13452W        W81826  36.934  23.606   1.450
13453W        W81827   2.455  38.902   9.959
13454W        W81828  14.307  10.715   1.920
13455W        W81829  32.497  21.651  12.836
13456W        W81830  32.393  23.672   2.854
13457W        W81831   2.305   0.254   2.814
13458W        W81832  10.239  34.547  10.624
13459W        W81833  38.932  12.167  10.085
13460W        W81834  20.132  35.987  12.904
13461W        W81835  26.202  37.853  12.906
13462W        W81836  26.150  44.466  14.028
13463W        W81837  12.772  29.438   4.331
13464W        W81838  10.333  14.220   0.887
13465W        W81839  31.550  30.518  13.495
13466W        W81840  25.079  27.690  10.625
13467W        W81841  32.465  13.182  11.958
13468W        W81842  20.098   1.396  14.812
13469W        W81843  15.327  26.655   0.750
13470W        W81844  25.598   6.896   3.383
13471W        W81845  16.284  34.379  12.339
13472W        W81846  29.083  38.018   2.837
13473W        W81847   8.727  18.594  13.486
13474W        W81848  18.673   5.713  14.490
13475W        W81849  27.467  10.266  14.869
13476W        W81850  27.464  33.963  13.961
13477W        W81851  26.965  15.141   2.338
13478W        W81852  17.069  37.544   0.942
13479W        W81853   9.166  12.759   3.818
13480W        W81854   1.753  14.676   2.703
13481W        W81855   4.266  36.430  10.540
13482W        W81856  16.607   2.765  14.016
13483W        W81857  30.553  32.063  14.315
13484W        W81858  33.405  27.689  13.375
13485W        W81859  16.304  44.804  11.971
13486W        W81860  19.074  35.867   0.770
13487W        W81861  31.991  15.771   2.865
13488W        W81862  21.219  23.100   4.331
13489W        W81863   3.751  10.170  13.426
13490W        W81864  21.640  44.265   2.873
13491W        W81865   6.233   1.897  14.337
13492W        W81866  20.262  18.568  11.086
13493W        W81867  19.717  18.198   4.723
13494W        W81868  26.975  23.132  14.993
13495W        W81869  41.452  35.548  12.088
13496W        W81870  27.061   2.849   2.185
13497W        W81871  21.060   2.388  13.907
13498W        W81872  40.391   0.749  10.423
13499W        W81873  18.613  40.972   4.729
13500W        W81874   3.341  24.604  11.592
13501W        W81875   1.422  36.489  14.872
13502W        W81876   0.293  36.867   4.318
13503W        W81877  34.066  24.511  13.944
13504W        W81878   8.271   1.889  11.537
13505W        W81879   6.768  39.048  13.032
13506W        W81880   0.774  34.986  14.939
13507W        W81881  31.092  24.080  12.489
13508W        W81882  29.442  10.141   2.220
13509W        W81883  41.476   8.731   3.357
13510W        W81884   2.232  42.856  12.994
13511W        W81885  20.672   4.736  13.439
13512W        W81886  20.149  42.520  12.553
13513W        W81887  20.594  32.405  12.876
13514W        W81888  30.552   5.356  14.435
13515W        W81889  34.395  44.396  13.839
13516W        W81890  28.480  31.908  13.434
13517W        W81891   0.898   7.846  12.489
13518W        W81892  38.552  24.614   1.724
13519W        W81893   0.456  28.142  12.027
13520W        W81894  10.695  17.118   1.930
13521W        W81895   0.490   6.751  10.456
13522W        W81896  41.827   9.836  11.486
13523W        W81897  20.653  19.572   4.699
13524W        W81898  28.573  18.700  14.476
13525W        W81899  21.639  27.690  12.515
13526W        W81900  38.470   7.734  11.077
13527W        W81901  33.930  28.539  11.065
13528W        W81902  40.042  20.134   0.429
13529W        W81903  25.145   6.334  14.340
13530W        W81904   1.921  33.547   4.731
13531W        W81905  13.805   1.474   4.674
13532W        W81906   6.825  13.668  14.952
13533W        W81907   2.261  42.915  10.505
13534W        W81908  32.441  43.795  13.464
13535W        W81909  23.654   5.350  14.954
13536W        W81910  40.806  29.627  11.437
13537W        W81911  10.815  42.934   4.297
13538W        W81912   9.643  22.026   3.800
13539W        W81913  29.014   9.779  13.445
13540W        W81914  23.069  31.473  12.535
13541W        W81915  17.302  17.223   4.163
13542W        W81916  12.829  30.138   3.782
13543W        W81917  23.104  19.539  10.621
13544W        W81918  34.455  33.986   2.180
13545W        W81919  35.410  20.551   0.835
13546W        W81920   2.320  19.640  14.006
13547W        W81921   9.688  29.977  10.467
13548W        W81922   3.826  22.041  12.031
13549W        W81923  19.683  32.035  11.517
13550W        W81924  43.930  25.991  10.435
13551W        W81925   0.841   2.805  13.927
13552W        W81926  23.087  16.674  12.445
13553W        W81927  25.471  27.539   1.867
13554W        W81928   5.416   2.759  11.950
13555W        W81929  15.675  36.457  10.159
13556W        W81930  24.598   4.342  13.050
13557W        W81931  13.841  22.023  11.381
13558W        W81932  43.506  38.955  12.480
13559W        W81933  11.293   2.933   4.815
13560W        W81934  27.165   3.945   2.308
13561W        W81935  13.749  41.871   4.679
13562W        W81936  44.946  39.891  10.432
13563W        W81937  20.676  28.659  14.829
13564W        W81938  32.956   7.190  13.978
13565W        W81939  13.273   3.410  13.916
13566W        W81940   7.229  18.069  10.453
13567W        W81941   0.744  43.783  10.565
13568W        W81942  33.091  22.163  12.432
13569W        W81943   4.240  28.947   4.248
13570W        W81944  15.201  43.289  13.506
13571W        W81945  16.137   6.813   4.206
13572W        W81946   6.816   1.450   1.276
13573W        W81947  16.281  18.615  13.460
13574W        W81948  23.999  36.854  14.475
13575W        W81949  43.339   2.465   1.295
13576W        W81950  25.181   0.340  13.532
13577W        W81951   7.411  38.970  14.827
13578W        W81952  23.036   0.465  14.510
13579W        W81953  16.646  29.016   4.659
13580W        W81954  12.257   1.339   1.833
13581W        W81955  10.802   0.986   2.278
13582W        W81956  17.674  42.413   0.737
13583W        W81957  29.045  32.459   2.411
13584W        W81958  32.967   4.341  12.449
13585W        W81959  12.799  44.760  12.984
13586W        W81960  16.566  16.622  14.474
13587W        W81961  41.490  32.619   3.335
13588W        W81962  24.199   4.363  12.382
13589W        W81963  11.204  43.482  13.900
13590W        W81964  13.330  14.195   0.873
13591W        W81965  33.078  21.575  10.485
13592W        W81966  38.330  20.672   4.150
13593W        W81967  35.429  39.434   0.852
13594W        W81968  42.312  10.874  10.456
13595W        W81969  19.116  26.034  10.458
13596W        W81970  11.152   3.232  11.873
13597W        W81971  37.410  19.636   1.234
13598W        W81972   0.293  10.275  12.458
13599W        W81973   3.789   3.233   0.921
13600W        W81974  31.118   4.747   3.666
13601W        W81975   4.292  11.267  13.934
13602W        W81976   4.329   1.945   2.389
13603W        W81977  15.665  43.795  10.088
13604W        W81978  24.126  16.087  10.471
13605W        W81979  33.902  29.560   0.888
13606W        W81980   4.794  12.273   0.477
13607W        W81981  12.195  37.440  11.412
13608W        W81982  34.612  38.936   4.294
13609W        W81983  36.987  39.336   3.830
13610W        W81984  26.030  33.624  10.414
13611W        W81985  40.491   0.306  10.104
13612W        W81986  40.861  27.685   0.441
13613W        W81987  10.262  30.524  14.411
13614W        W81988  20.581  16.761  14.884
13615W        W81989  23.593  20.241  13.451
13616W        W81990   8.734  27.008   3.698
13617W        W81991  36.890  34.013  13.970
13618W        W81992   9.775  17.274  13.992
13619W        W81993   2.305   2.854  13.471
13620W        W81994  39.058  18.602   1.848
13621W        W81995  33.988  33.120   4.825
13622W        W81996  37.392  17.267  14.909
13623W        W81997   4.710  30.526   1.393
13624W        W81998  15.096   0.450  14.354
13625W        W81999  26.688   6.299   4.746
13626W        W82000  31.055   4.863  11.012
13627W        W82001  27.099  22.673   3.777
13628W        W82002  26.497   6.716   4.340
13629W        W82003  41.814  36.024   3.234
13630W        W82004   4.281  20.627  11.006
13631W        W82005  14.115  21.147   3.375
13632W        W82006   5.934  29.965  12.537
13633W        W82007  23.149  37.970   0.285
13634W        W82008   4.262  17.592  12.902
13635W        W82009  33.039  22.647  11.026
13636W        W82010  27.656  27.062  11.566
13637W        W82011  37.944  32.949  14.387
13638W        W82012  32.394   3.365   2.882
13639W        W82013  22.995  12.756  12.572
13640W        W82014  37.040  31.581   2.279
13641W        W82015  26.593  30.931   0.376
13642W        W82016  15.244  19.267  11.553
13643W        W82017   9.341   3.881  11.906
13644W        W82018  31.557   7.850   0.421
13645W        W82019  42.920  10.138  13.440
13646W        W82020  37.997  31.957  14.789
13647W        W82021  21.174  14.638  10.563
13648W        W82022  18.702  27.469  14.319
13649W        W82023  21.674  28.113  10.963
13650W        W82024   2.830  34.556   2.231
13651W        W82025  32.028  18.554   0.788
13652W        W82026  12.157  29.586   1.431
13653W        W82027  17.218  28.086   3.259
13654W        W82028  36.858  36.447  13.022
13655W        W82029   5.307  29.631  11.391
13656W        W82030  29.015   5.320   0.846
13657W        W82031  23.035  26.146  12.471
13658W        W82032  11.194  10.158   2.302
13659W        W82033  31.576  12.177  13.347
13660W        W82034  15.618   3.272   4.719
13661W        W82035  31.462  43.850   3.750
13662W        W82036  11.245  20.174  13.021
13663W        W82037   8.787  35.442   4.612
13664W        W82038  16.204  26.134   3.818
13665W        W82039   2.421  26.646  11.899
13666W        W82040  37.080   2.426   2.897
13667W        W82041  39.536   7.695  14.492
13668W        W82042  43.774  23.184  13.455
13669W        W82043  26.052  33.122  12.451
13670W        W82044  18.594  43.882   3.259
13671W        W82045  30.012  43.887  10.050
13672W        W82046  39.383  22.560   4.620
13673W        W82047  18.713  17.672   3.733
13674W        W82048   2.320  16.118  13.937
13675W        W82049  25.144  15.127  11.106
13676W        W82050   2.312  25.101   4.708
13677W        W82051  44.997  31.594   3.751
13678W        W82052  40.021  35.881   2.309
13679W        W82053   0.326  26.097  14.962
13680W        W82054  15.276   3.803  14.831
13681W        W82055  25.201  13.677  13.909
13682W        W82056  43.357   7.263  14.402
13683W        W82057  29.964   0.315  13.491
13684W        W82058   9.881  19.677   2.842
13685W        W82059  25.630   2.268  12.015
13686W        W82060  32.906  21.140   0.760
13687W        W82061  25.476  31.965  13.833
13688W        W82062  26.692  14.170  12.474
13689W        W82063   3.372  29.920  11.899
13690W        W82064  28.123  22.214  11.857
13691W        W82065  33.539  10.201   3.219
13692W        W82066  26.966  42.447   2.411
13693W        W82067  18.725   3.953  11.028
13694W        W82068  25.151  17.298   4.831
13695W        W82069  29.483  18.172  14.805
13696W        W82070  10.371  39.335   2.210
13697W        W82071  24.660  27.943  11.923
13698W        W82072  28.984   0.829  10.919
13699W        W82073  25.704   5.927  10.515
13700W        W82074  34.544  35.880  13.927
13701W        W82075  14.730  20.601  13.529
13702W        W82076  35.878  31.053   2.736
13703W        W82077  29.597  35.454   0.823
13704W        W82078  24.021  42.485  10.572
13705W        W82079  25.081  12.721   2.292
13706W        W82080  22.159  32.474  13.002
13707W        W82081   2.364   3.343   4.600
13708W        W82082  41.399  18.174   0.331
13709W        W82083  32.113  21.021   2.179
13710W        W82084  35.974  29.500  11.439
13711W        W82085  30.494  13.290   3.651
13712W        W82086  11.208  44.502  14.933
13713W        W82087  21.569   1.890   4.773
13714W        W82088  21.231  23.039  11.542
13715W        W82089  25.974  20.670   4.700
13716W        W82090  10.818  26.663   5.121
13717W        W82091   2.886   2.402  12.092
13718W        W82092   2.794  31.507   3.204
13719W        W82093  37.881  20.172   0.798
13720W        W82094  24.666  11.362  11.388
13721W        W82095  42.443   0.827   4.188
13722W        W82096  42.947  35.095  13.988
13723W        W82097  32.607  32.137   0.382
13724W        W82098  33.509  30.153  13.920
13725W        W82099   6.258  14.654  12.934
13726W        W82100  35.375  40.819   4.340
13727W        W82101  40.470  40.329  11.078
13728W        W82102   1.893  20.742   3.213
13729W        W82103  28.621  22.019  14.003
13730W        W82104  38.070  14.215   5.176
13731W        W82105  34.028  34.014   4.130
13732W        W82106  38.003   6.398  11.518
13733W        W82107  17.677   9.377   4.241
13734W        W82108  16.768  44.792  14.319
13735W        W82109   7.295  26.680   1.384
13736W        W82110  13.722  22.609  12.460
13737W        W82111  14.154  31.919   0.301
13738W        W82112  40.872  18.630   4.656
13739W        W82113   3.910  38.420   1.412
13740W        W82114  34.542  30.578   2.207
13741W        W82115  22.598  43.769  11.871
13742W        W82116  43.364  34.599  14.355
13743W        W82117   4.360  25.477  13.038
13744W        W82118  33.437   0.420  14.856
13745W        W82119  38.355  13.625  14.335
13746W        W82120   4.799   3.417   0.853
13747W        W82121  29.603  24.065  11.923
13748W        W82122  10.680  23.550   1.801
13749W        W82123  32.566  14.306   4.750
13750W        W82124  42.981  43.487   3.750
13751W        W82125  22.507  35.972  14.484
13752W        W82126   6.352  38.870  11.114
13753W        W82127  26.684   9.805  12.947
13754W        W82128  30.119  34.071  13.961
13755W        W82129  17.563  44.824  12.535
13756W        W82130  44.492   4.410   1.361
13757W        W82131  42.822  44.346   2.785
13758W        W82132  37.508   0.787   1.314
13759W        W82133  14.151  32.931   1.364
13760W        W82134   8.402  39.462   4.681
13761W        W82135  25.997  44.461   0.293
13762W        W82136  15.766  25.031   3.253
13763W        W82137  24.042   9.218  11.075
13764W        W82138  12.284  26.053   0.878
13765W        W82139  20.046  26.057   1.379
13766W        W82140  15.745  41.798   5.223
13767W        W82141  28.949  24.227   0.732
13768W        W82142   6.198   0.354  10.916
13769W        W82143  40.999  21.733   2.864
13770W        W82144  24.638  42.420   1.913
13771W        W82145   5.767  11.159  12.343
13772W        W82146  40.324  21.026  10.624
13773W        W82147  21.084  26.535   4.822
13774W        W82148  15.660  42.965   4.176
13775W        W82149  19.669  28.145  11.379
13776W        W82150   6.186  21.123  14.282
13777W        W82151  26.021  39.474   4.645
13778W        W82152  14.099  41.894   3.342
13779W        W82153  19.137  15.300  13.057
13780W        W82154  21.631  43.821   3.658
13781W        W82155   2.251  29.157  12.346
13782W        W82156  27.998  10.843  12.444
13783W        W82157  36.593  22.160  14.469
13784W        W82158  20.154  41.907  12.407
13785W        W82159   7.232  14.830  14.911
13786W        W82160  18.789  37.929  14.883
13787W        W82161  12.118  26.691  12.938
13788W        W82162  20.090  23.721   2.793
13789W        W82163  30.021   5.716  11.027
13790W        W82164  42.385  30.447  11.066
13791W        W82165  16.260  10.306   2.877
13792W        W82166   2.827  29.586  11.482
13793W        W82167  12.731  43.933   3.816
13794W        W82168  29.599  13.187  10.609
13795W        W82169  41.931  19.635  13.898
13796W        W82170  32.926  43.432  14.020
13797W        W82171  30.142  25.981  14.437
13798W        W82172  23.547  17.582  14.285
13799W        W82173   9.767  21.203   4.706
13800W        W82174  27.081   7.235   0.318
13801W        W82175   1.800  30.132   2.258
13802W        W82176  37.964  34.442  13.016
13803W        W82177  26.959  13.143  14.016
13804W        W82178   8.892  19.157   3.868
13805W        W82179   5.354  10.166  12.395
13806W        W82180  31.518  32.604   3.246
13807W        W82181  22.168  14.648  14.355
13808W        W82182  26.598  35.436   0.333
13809W        W82183  23.214  32.576   0.906
13810W        W82184  19.237  11.863   1.780
13811W        W82185   8.810  25.518  11.372
13812W        W82186  24.140  20.050   3.780
13813W        W82187  16.105   4.334  13.504
13814W        W82188  33.053   3.856   4.221
13815W        W82189  18.692  26.524  11.527
13816W        W82190  42.874  21.713  12.875
13817W        W82191  43.412  20.226   1.267
13818W        W82192   8.784   7.772   3.831
13819W        W82193  28.061  25.071  13.410
13820W        W82194  34.429  26.134  13.473
13821W        W82195  14.794  22.095   4.684
13822W        W82196  39.424  28.522   2.408
13823W        W82197  19.051   0.834  12.935
13824W        W82198  35.473  35.070  10.562
13825W        W82199   3.424  30.961  12.543
13826W        W82200  22.536  10.269  10.593
13827W        W82201  18.550  16.750   1.282
13828W        W82202  22.567  31.553   4.778
13829W        W82203  36.431  28.669  11.899
13830W        W82204  22.017  34.533  13.414
13831W        W82205  35.508  29.103  11.964
13832W        W82206   3.375  33.493   4.118
13833W        W82207  34.978  31.083   3.260
13834W        W82208  13.699  30.111   4.351
13835W        W82209  19.623  26.623   0.881
13836W        W82210  44.381   8.339   4.770
13837W        W82211   9.667   5.895   4.811
13838W        W82212  34.509   3.264  14.838
13839W        W82213  18.724  20.188  12.858
13840W        W82214  28.513  16.093  12.931
13841W        W82215  28.611  13.254  11.965
13842W        W82216  34.453  18.766  12.506
13843W        W82217  32.609  33.536   4.192
13844W        W82218  32.413   3.774   3.314
13845W        W82219  29.625  25.201   4.250
13846W        W82220  24.064  34.878   2.744
13847W        W82221   7.219   8.766   1.278
13848W        W82222  15.650  11.852  10.582
13849W        W82223  11.681  20.555  11.611
13850W        W82224  21.070  29.595   1.241
13851W        W82225  30.035  41.366  14.384
13852W        W82226  10.731   4.208   4.210
13853W        W82227  23.546  14.254   4.760
13854W        W82228  19.676  32.923  13.548
13855W        W82229  40.834  28.446  13.831
13856W        W82230  43.968  17.717  11.102
13857W        W82231  22.620   4.779   5.301
13858W        W82232   3.892  43.404   1.837
13859W        W82233  11.257  17.300   4.315
13860W        W82234   3.247  18.754   1.916
13861W        W82235  24.136   2.260   2.295
13862W        W82236  42.344   3.440   5.279
13863W        W82237  11.293  12.225  10.970
13864W        W82238   4.294  17.171   2.889
13865W        W82239  40.986  20.147  14.788
13866W        W82240  18.281  18.263   2.255
13867W        W82241  30.601  11.304   3.841
13868W        W82242   9.846  36.986   3.801
13869W        W82243  31.039  34.029   2.897
13870W        W82244  44.820  38.558  10.938
13871W        W82245  23.499   4.442   4.660
13872W        W82246  29.592  31.970   2.663
13873W        W82247  37.968  27.493  10.557
13874W        W82248  16.307  29.508   3.380
13875W        W82249  33.874  30.604  13.526
13876W        W82250   8.709  32.009   3.299
13877W        W82251  14.607   9.167   3.162
13878W        W82252   2.738  25.678  13.809
13879W        W82253   1.313  25.531  13.826
13880W        W82254   9.328  27.651   0.782
13881W        W82255  11.207  43.828  13.959
13882W        W82256  38.849   6.677  10.609
13883W        W82257  15.163  31.603  13.316
13884W        W82258  31.473  26.148   1.897
13885W        W82259  30.049  15.324  12.352
13886W        W82260  35.533   0.981  14.842
13887W        W82261  22.047  12.334   4.707
13888W        W82262  29.049   6.182  14.930
13889W        W82263  23.615  16.753   2.774
13890W        W82264  34.119   7.881   2.669
13891W        W82265  21.640  25.484   4.196
13892W        W82266   1.473   2.335   0.334
13893W        W82267  22.740  13.115   4.310
13894W        W82268  38.548   9.302   0.905
13895W        W82269  32.415  38.936  12.447
13896W        W82270  28.931  23.675  12.905
13897W        W82271  38.426  18.599  14.369
13898W        W82272  24.534  12.760   2.724
13899W        W82273  27.525  11.149   2.231
13900W        W82274  42.369   5.830  12.077
13901W        W82275  43.492  21.169   2.416
13902W        W82276  42.850  19.780   1.867
13903W        W82277   1.865  22.071   1.877
13904W        W82278  10.816  41.028  11.524
13905W        W82279  43.795  19.631  11.466
13906W        W82280   7.194   7.908   4.333
13907W        W82281   8.218  39.052   3.326
13908W        W82282  24.076  26.629  12.035
13909W        W82283  28.084   1.904   1.920
13910W        W82284  24.989  12.648  14.882
13911W        W82285  33.938  25.707   0.367
13912W        W82286  37.035  20.250   1.841
13913W        W82287  36.406  27.511  13.864
13914W        W82288  34.488  29.014   2.237
13915W        W82289  29.094   4.219   2.731
13916W        W82290  23.201  30.044  12.458
13917W        W82291  12.290  15.201   0.965
13918W        W82292   3.794  38.832   4.342
13919W        W82293  11.217  38.549   3.835
13920W        W82294  11.133  41.424  13.948
13921W        W82295  36.358  30.123  14.504
13922W        W82296  38.526  43.324  12.385
13923W        W82297  12.832  14.614   2.250
13924W        W82298  20.169  17.294  14.480
13925W        W82299  32.889  39.962   3.843
13926W        W82300  15.786  36.093  12.961
13927W        W82301  26.555  39.872  12.902
13928W        W82302  25.082  12.635  10.607
13929W        W82303   2.390  21.065  14.497
13930W        W82304  37.907   9.273   9.614
13931W        W82305  21.744  22.224  10.498
13932W        W82306  42.807   5.331  13.404
13933W        W82307   4.825  37.965   1.348
13934W        W82308  28.662   7.871  13.399
13935W        W82309  43.010  32.546  12.919
13936W        W82310   7.404  25.697   1.794
13937W        W82311  33.980  21.744  13.061
13938W        W82312  25.560  26.497   0.889
13939W        W82313  44.868   5.415   3.715
13940W        W82314  30.012  34.033  10.510
13941W        W82315  32.416  12.336  10.947
13942W        W82316   7.227   4.881   1.934
13943W        W82317  21.253  21.754  13.427
13944W        W82318  15.239  22.553  10.641
13945W        W82319  11.212  40.856  12.390
13946W        W82320  25.127  19.712   0.734
13947W        W82321  26.987  16.084  10.915
13948W        W82322  11.308  35.504   1.907
13949W        W82323  10.205   6.262  14.494
13950W        W82324  23.605  15.797  12.840
13951W        W82325  40.963  12.217   4.733
13952W        W82326   2.778   1.952  11.442
13953W        W82327   0.776  32.546  13.791
13954W        W82328  21.062  20.565   3.773
13955W        W82329  14.137  14.831  10.937
13956W        W82330  14.191  43.916  13.842
13957W        W82331  35.051  30.579   1.450
13958W        W82332   5.736  43.864   0.413
13959W        W82333  15.199  12.188   1.697
13960W        W82334   7.779  21.216   4.668
13961W        W82335   9.301  24.027   2.722
13962W        W82336  31.921  13.274   0.379
13963W        W82337  35.005  25.558  10.410
13964W        W82338  43.022  40.402   1.768
13965W        W82339  28.447  43.407   3.185
13966W        W82340   2.780   8.731   1.861
13967W        W82341  30.466  19.060  11.124
13968W        W82342  33.423  40.941   3.230
13969W        W82343   0.775  37.842  12.836
13970W        W82344   8.206  33.574   2.343
13971W        W82345   1.362  28.502   3.830
13972W        W82346  41.453  20.035   3.825
13973W        W82347  23.706  18.780  14.006
13974W        W82348  36.841  15.326  11.388
13975W        W82349  17.731  20.111  14.988
13976W        W82350  32.020  41.811  14.915
13977W        W82351   5.230  16.608   0.423
13978W        W82352   1.925  10.306  14.406
13979W        W82353  27.104  40.055   1.798
13980W        W82354   8.687  39.389   2.704
13981W        W82355  15.203  28.953  14.786
13982W        W82356  19.660  17.725  10.411
13983W        W82357  13.246   2.778   2.767
13984W        W82358  23.569  30.513   1.810
13985W        W82359   8.728  21.175   2.795
13986W        W82360  33.898  19.202  11.979
13987W        W82361   8.867  13.230   4.616
13988W        W82362  33.440  14.640   2.353
13989W        W82363   9.353  44.940  14.909
13990W        W82364  15.818  13.635  11.375
13991W        W82365   4.222  15.678   4.278
13992W        W82366  23.213   6.418   3.384
13993W        W82367  19.535  11.811   1.832
13994W        W82368  31.502  23.708  13.993
13995W        W82369  19.547  42.000  13.881
13996W        W82370  32.399  11.679  12.881
13997W        W82371  24.699  11.326   2.209
13998W        W82372  29.006   7.364   3.373
13999W        W82373   7.178   0.912   0.264
14000W        W82374  36.404  26.493  13.894
14001W        W82375  39.486  20.736  13.922
14002W        W82376  32.093   7.304  13.521
14003W        W82377  41.465   9.871  12.360
14004W        W82378  29.015  37.894   1.749
14005W        W82379  17.288   8.219  11.933
14006W        W82380  30.961  23.547   2.391
14007W        W82381  32.515  18.285   1.909
14008W        W82382  16.712   6.216   0.321
14009W        W82383  43.333  24.205   2.896
14010W        W82384   5.230  11.197  13.057
14011W        W82385  20.638   5.894  14.940
14012W        W82386  25.578   2.360   1.847
14013W        W82387   7.761   6.865  11.955
14014W        W82388   0.411  40.522   0.871
14015W        W82389   9.320  16.742  14.779
14016W        W82390  37.043   5.342  14.338
14017W        W82391  32.030  22.618   3.176
14018W        W82392   0.917  41.497   2.886
14019W        W82393  19.748   0.791  10.504
14020W        W82394  34.549  18.650   0.850
14021W        W82395   5.815   0.418  12.434
14022W        W82396  43.497  28.470   1.408
14023W        W82397   4.287   9.881  12.831
14024W        W82398  21.724  37.942  12.370
14025W        W82399  16.234  19.161  11.041
14026W        W82400  43.398  11.777  14.804
14027W        W82401  17.555  21.699   0.877
14028W        W82402  26.119   7.200  11.588
14029W        W82403  32.013   8.745  12.075
14030W        W82404  21.726  35.108  12.557
14031W        W82405  41.521  37.003   2.873
14032W        W82406  38.472  30.626  13.831
14033W        W82407  39.995  21.691  14.887
14034W        W82408  26.601  25.693   0.462
14035W        W82409  11.731   8.162  10.597
14036W        W82410  35.482   9.395  10.424
14037W        W82411  40.825  11.639   4.668
14038W        W82412  33.445  33.614  10.988
14039W        W82413  36.925  12.299   0.287
14040W        W82414  29.590   9.167   4.215
14041W        W82415  12.853  29.645  13.315
14042W        W82416  29.571   0.843   1.226
14043W        W82417   9.390  12.748  12.832
14044W        W82418  34.045  24.144  13.875
14045W        W82419  37.413  32.935   4.184
14046W        W82420   5.400  14.809  14.791
14047W        W82421   2.734  44.909  11.894
14048W        W82422   4.758   5.849   3.767
14049W        W82423  21.093  34.877  14.364
14050W        W82424   2.256  14.165   0.889
14051W        W82425  14.123   7.241  14.316
14052W        W82426  32.428  26.080   0.298
14053W        W82427  22.586  10.347   3.833
14054W        W82428  31.086  11.277  10.418
14055W        W82429   2.229  12.705   1.287
14056W        W82430  42.848  41.934   5.250
14057W        W82431  11.824  13.623   2.771
14058W        W82432   8.899  18.112  14.799
14059W        W82433  27.553  18.614  11.088
14060W        W82434  17.144  37.518  13.817
14061W        W82435   4.841  26.161   4.264
14062W        W82436  23.512  31.141  11.094
14063W        W82437  21.515  34.424   0.464
14064W        W82438   9.208  43.434  13.865
14065W        W82439  12.179  25.092   0.784
14066W        W82440  42.312  41.901   4.144
14067W        W82441  29.163  30.129  13.516
14068W        W82442  16.161  13.632   4.178
14069W        W82443  37.543  27.163  11.562
14070W        W82444  42.351  23.049  13.348
14071W        W82445  12.829  16.583   3.169
14072W        W82446  26.605  40.963  10.570
14073W        W82447  23.653  36.927   0.848
14074W        W82448  31.477  19.566  12.403
14075W        W82449   0.408  15.232   4.330
14076W        W82450  44.799  12.342  14.953
14077W        W82451  44.307  30.999   0.400
14078W        W82452   6.817   4.914  14.884
14079W        W82453  18.711  17.222   0.287
14080W        W82454  33.553  23.649  13.038
14081W        W82455  37.859  35.428   0.944
14082W        W82456  18.131   3.740   2.250
14083W        W82457  22.530   5.232  14.480
14084W        W82458  22.565  15.709  12.968
14085W        W82459  41.524  33.407   2.665
14086W        W82460  28.460   8.359  10.555
14087W        W82461  26.655   6.367  10.415
14088W        W82462  35.065  11.859  12.882
14089W        W82463  39.402  33.899   3.365
14090W        W82464  10.778  44.857   4.269
14091W        W82465  41.946  28.116   1.915
14092W        W82466  28.586  13.205  10.462
14093W        W82467   9.303  22.549   1.298
14094W        W82468  19.556  29.432   4.768
14095W        W82469  11.739  29.431   4.176
14096W        W82470  42.791  19.564   4.753
14097W        W82471  33.555  17.761   3.643
14098W        W82472   6.425  43.956  11.937
14099W        W82473  12.638   5.325  11.982
14100W        W82474   6.211   9.282  13.446
14101W        W82475  42.850  22.182  11.901
14102W        W82476  18.581  32.595  10.437
14103W        W82477   8.205  26.470  13.039
14104W        W82478   1.738   7.876  12.042
14105W        W82479  30.641  23.599   2.270
14106W        W82480  36.956  43.962  12.003
14107W        W82481   8.895  19.593  13.337
14108W        W82482   5.911  42.505   2.309
14109W        W82483  31.070  14.667   2.770
14110W        W82484   8.873   3.275   3.696
14111W        W82485  19.152  16.288   4.673
14112W        W82486  11.250  30.627  11.892
14113W        W82487  30.134  12.632  14.842
14114W        W82488  38.024  41.534   1.924
14115W        W82489  37.536  44.928   3.338
14116W        W82490   0.909  11.334   1.352
14117W        W82491  19.628   9.280   4.327
14118W        W82492  11.284  38.840  10.636
14119W        W82493  19.200  14.702   1.361
14120W        W82494  14.738  18.184   1.443
14121W        W82495  30.445  32.114   0.887
14122W        W82496  22.654  33.532   4.303
14123W        W82497  30.091   3.266   0.385
14124W        W82498  33.591  25.108   5.132
14125W        W82499  20.117  26.570   0.303
14126W        W82500  31.129   0.972  10.122
14127W        W82501  24.202  19.619  13.531
14128W        W82502  16.753  40.051  12.979
14129W        W82503  15.110  29.138  13.425
14130W        W82504   7.383  43.395  11.561
14131W        W82505  31.456  25.124   4.345
14132W        W82506  40.823  11.650  11.587
14133W        W82507  32.137  30.958   5.186
14134W        W82508   9.152  25.646  13.331
14135W        W82509  34.090  22.020   0.738
14136W        W82510   5.742  33.104   1.228
14137W        W82511   8.729  23.083   4.627
14138W        W82512  11.715   1.851   3.248
14139W        W82513   2.332  42.777   4.142
14140W        W82514   5.928  37.903   0.780
14141W        W82515  24.181  23.594   4.647
14142W        W82516   4.214   4.846  10.936
14143W        W82517   9.668  31.054  13.042
14144W        W82518  13.764  19.085  11.887
14145W        W82519  11.654  17.210   1.283
14146W        W82520   7.711  15.767   4.166
14147W        W82521  28.450  44.336   2.221
14148W        W82522  37.006  44.793  11.086
14149W        W82523  25.031   8.805   0.381
14150W        W82524  20.663   4.349  10.963
14151W        W82525  16.180  43.801   0.273
14152W        W82526  28.165  32.966  11.951
14153W        W82527  25.965  38.858   3.358
14154W        W82528   6.911   4.240  11.490
14155W        W82529  10.353  24.109   3.691
14156W        W82530  16.605  38.433   1.367
14157W        W82531   2.936  12.118  13.905
14158W        W82532  24.124  31.006  12.539
14159W        W82533   7.360  37.858  11.962
14160W        W82534  23.008  41.816   0.256
14161W        W82535   8.717  22.555  14.826
14162W        W82536   0.922  10.658  13.474
14163W        W82537  24.604   4.331   1.231
14164W        W82538  34.103   3.353   3.381
14165W        W82539  32.601  32.905   2.403
14166W        W82540  18.604  32.007  13.851
14167W        W82541   2.407   3.355  13.036
14168W        W82542   3.263  27.642   2.803
14169W        W82543  34.378  30.656   3.220
14170W        W82544  27.679  44.405  12.368
14171W        W82545  10.644   7.285  10.904
14172W        W82546   5.354  30.417   3.815
14173W        W82547   7.770  18.107   0.428
14174W        W82548  31.452   2.825   1.221
14175W        W82549  37.896  29.607  14.940
14176W        W82550  42.351  11.659   3.658
14177W        W82551  10.766  23.511   3.243
14178W        W82552  35.588   3.377   3.249
14179W        W82553   1.333  28.468   3.176
14180W        W82554  24.529  13.694   2.820
14181W        W82555  39.320  16.090   4.838
14182W        W82556   1.734   7.714  12.933
14183W        W82557   6.387   0.804  14.787
14184W        W82558  35.571   3.930   0.478
14185W        W82559  40.510  37.022   2.285
14186W        W82560  28.604  26.510   3.145
14187W        W82561  29.110  36.906   2.822
14188W        W82562  30.087  44.495   0.730
14189W        W82563  12.672  38.033  11.008
14190W        W82564  23.169  15.660   1.278
14191W        W82565  39.052  32.440   2.770
14192W        W82566   5.833  28.550  14.010
14193W        W82567  37.512   4.702   1.837
14194W        W82568  11.791  25.712   2.241
14195W        W82569  30.026  39.830  11.995
14196W        W82570  29.507  11.346  14.770
14197W        W82571  28.653  29.166   1.753
14198W        W82572  20.165  22.533  10.504
14199W        W82573   9.291  37.373   2.405
14200W        W82574   5.393  10.352   1.401
14201W        W82575   6.221  29.126  13.381
14202W        W82576  38.551  13.744  13.023
14203W        W82577   7.222  16.206   3.804
14204W        W82578   6.845  26.045  14.420
14205W        W82579  26.129  40.944  14.873
14206W        W82580  41.898   4.270   2.705
14207W        W82581  22.523  25.066  11.459
14208W        W82582   1.831  42.382   0.432
14209W        W82583  26.080  20.229  11.960
14210W        W82584  40.380  12.639  10.617
14211W        W82585  30.607   1.909  13.533
14212W        W82586  34.611  29.456   3.305
14213W        W82587  28.994   0.977  13.468
14214W        W82588  23.148   2.408   4.725
14215W        W82589  31.414  15.201   1.373
14216W        W82590  20.210  19.717   1.232
14217W        W82591  21.728  12.343   3.288
14218W        W82592  25.130   2.269  13.828
14219W        W82593   5.697  34.396   0.733
14220W        W82594  28.117   6.812   1.839
14221W        W82595  29.947  17.063  14.350
14222W        W82596  13.790   4.435   2.397
14223W        W82597  34.503  40.024  13.898
14224W        W82598  13.204   7.274  14.370
14225W        W82599  42.939  35.494  14.839
14226W        W82600  43.270  18.097   0.281
14227W        W82601  24.057  29.980   0.278
14228W        W82602  37.837  27.602   4.174
14229W        W82603   2.872   7.362   4.819
14230W        W82604  35.010  42.311  14.432
14231W        W82605   9.737  35.894  11.860
14232W        W82606   9.284  24.567   0.819
14233W        W82607  15.258  13.280   4.340
14234W        W82608   7.848  42.906  13.395
14235W        W82609  34.445  14.264  11.413
14236W        W82610  36.005  44.428  14.781
14237W        W82611  35.063   4.789   2.190
14238W        W82612  20.644   6.839  13.966
14239W        W82613  20.207   3.217   1.880
14240W        W82614  41.441  31.624  13.542
14241W        W82615  30.436  21.230  13.384
14242W        W82616   6.821   4.367  10.452
14243W        W82617  43.483  36.461   3.239
14244W        W82618  31.082  34.077   2.375
14245W        W82619  12.857   4.796  10.444
14246W        W82620   2.304  43.765   4.269
14247W        W82621  37.033  27.008  13.363
14248W        W82622  30.444  32.986   4.287
14249W        W82623  37.544   8.802  14.455
14250W        W82624  13.760   4.312  12.871
14251W        W82625  24.508  30.571  14.985
14252W        W82626  34.505   2.928  13.377
14253W        W82627  13.319  38.908  10.090
14254W        W82628  35.098  43.991  13.963
14255W        W82629  16.140   8.331   1.266
14256W        W82630  38.021  14.292   4.816
14257W        W82631  33.922  29.155   0.287
14258W        W82632  29.536  37.446   0.337
14259W        W82633  29.079  34.040   3.300
14260W        W82634  16.676  15.277  14.505
14261W        W82635   0.779  44.429   5.203
14262W        W82636   1.274  13.612  13.022
14263W        W82637  24.008  40.484   0.945
14264W        W82638   3.435  13.331   2.379
14265W        W82639  43.953  31.981  14.886
14266W        W82640  20.259  14.140   3.808
14267W        W82641   6.412  17.217   3.228
14268W        W82642  22.661  22.219  11.970
14269W        W82643  22.509   4.800  13.954
14270W        W82644  14.210  24.996   1.396
14271W        W82645   9.882   5.408  11.997
14272W        W82646  27.646  32.904  13.357
14273W        W82647  33.062  20.123   0.396
14274W        W82648  24.986  44.417  11.548
14275W        W82649  13.740  15.632  12.906
14276W        W82650   1.952  27.482  14.808
14277W        W82651   8.198  38.390  11.018
14278W        W82652  32.092   8.229   4.681
14279W        W82653  37.453  23.042   2.373
14280W        W82654   8.214  36.485  11.983
14281W        W82655  36.452  14.184   2.242
14282W        W82656  31.976   9.778  12.340
14283W        W82657  30.642  18.776   1.855
14284W        W82658  30.477  35.559   1.847
14285W        W82659  23.199  39.501   2.230
14286W        W82660  13.618  37.347   3.640
14287W        W82661  27.989  23.491  11.517
14288W        W82662  14.718  44.262   3.641
14289W        W82663  12.755  25.171   3.848
14290W        W82664  12.745  20.640   0.311
14291W        W82665  34.495   0.960  10.974
14292W        W82666  37.484  13.211   2.322
14293W        W82667  40.316   6.242  12.499
14294W        W82668  38.422  27.021  13.900
14295W        W82669   3.253  32.075  10.036
14296W        W82670  40.969  16.707  13.815
14297W        W82671   6.183  18.770   3.694
14298W        W82672  36.492   3.881  13.856
14299W        W82673  11.687   4.352   3.802
14300W        W82674  39.407   7.685  10.069
14301W        W82675  25.052  17.607   3.756
14302W        W82676  30.102  39.470   2.265
14303W        W82677   4.884  19.067  13.482
14304W        W82678   4.815  11.370  10.551
14305W        W82679  21.164   2.817   1.252
14306W        W82680  22.185   4.915   1.887
14307W        W82681   0.253  17.139   0.812
14308W        W82682  36.960  30.459   3.185
14309W        W82683  41.028  13.755  10.503
14310W        W82684   1.874  12.699   2.406
14311W        W82685  16.783  27.158  13.354
14312W        W82686   3.399  28.958  14.766
14313W        W82687  37.498   3.853  12.951
14314W        W82688   0.864  32.904   1.745
14315W        W82689   9.793  18.225   4.652
14316W        W82690  36.897   4.915  12.003
14317W        W82691  43.901  44.983   4.696
14318W        W82692   9.855  23.620  14.504
14319W        W82693  35.082  38.554   3.335
14320W        W82694   1.818  24.611  10.963
14321W        W82695  38.347  20.652   1.368
14322W        W82696  37.076  11.764   4.225
14323W        W82697  11.240   6.885  13.476
14324W        W82698  36.992  21.520   4.828
14325W        W82699  11.160  15.762  14.429
14326W        W82700   0.428  43.815   2.403
14327W        W82701   3.733   3.368  12.901
14328W        W82702  11.684  32.014   4.142
14329W        W82703  16.146  38.358   0.812
14330W        W82704  40.428  10.667  13.368
14331W        W82705  27.169  32.631   0.275
14332W        W82706  39.883  33.482   3.347
14333W        W82707   6.853  23.115  13.500
14334W        W82708  32.070  10.865   4.648
14335W        W82709  21.663   5.725  11.561
14336W        W82710  33.579  36.368   2.850
14337W        W82711  41.975  29.958  13.376
14338W        W82712  16.781   3.363   1.803
14339W        W82713   9.178  35.978   4.337
14340W        W82714  44.857  30.564  14.014
14341W        W82715  19.748  12.334  12.401
14342W        W82716  30.659  19.252   3.861
14343W        W82717  22.140  26.007   3.813
14344W        W82718  32.980  21.086  13.016
14345W        W82719  37.459   7.755  13.469
14346W        W82720   8.703  30.052  10.595
14347W        W82721  37.044  33.009   4.152
14348W        W82722   9.187  44.458   3.359
14349W        W82723  31.032  11.836  13.984
14350W        W82724  35.490   8.340  12.004
14351W        W82725  35.915  11.698  11.904
14352W        W82726  37.398   6.407   3.158
14353W        W82727  30.137   6.204   4.186
14354W        W82728  27.192   8.294   0.443
14355W        W82729  33.008  10.143  10.933
14356W        W82730  33.425  43.379  11.422
14357W        W82731  15.821   1.795  13.407
14358W        W82732  36.481   0.966  13.461
14359W        W82733  14.651  27.586  12.936
14360W        W82734  30.505  20.182   3.638
14361W        W82735   5.831   9.792   4.205
14362W        W82736  24.218  24.688   3.717
14363W        W82737  31.088   8.656   1.857
14364W        W82738  32.482   3.276   1.386
14365W        W82739  27.997   1.399   9.528
14366W        W82740   9.301   1.240   1.372
14367W        W82741  17.794   1.357  10.409
14368W        W82742  25.200  23.127   4.692
14369W        W82743  42.527   3.360  11.571
14370W        W82744   4.862  14.638  14.787
14371W        W82745   5.310  27.025  13.317
14372W        W82746  26.028   7.897   4.118
14373W        W82747  22.640   4.827   2.846
14374W        W82748  38.512  39.839   1.842
14375W        W82749  15.597  15.676  12.557
14376W        W82750   7.292  20.172  14.003
14377W        W82751  40.824  27.521  10.570
14378W        W82752  37.982   3.265   3.275
14379W        W82753  36.945  23.022  13.312
14380W        W82754   2.955   1.472   1.247
14381W        W82755  37.890  41.945   1.349
14382W        W82756  43.915  40.358   2.207
14383W        W82757  12.234  24.093  13.422
14384W        W82758  15.592  21.169   0.386
14385W        W82759  27.080  23.002  13.356
14386W        W82760  35.858   7.278   3.759
14387W        W82761  10.723  37.877   3.644
14388W        W82762  21.148  23.716  12.044
14389W        W82763  33.093  16.657   0.348
14390W        W82764   9.175  12.717  14.973
14391W        W82765  42.385   2.424   0.330
14392W        W82766  34.050  10.317  11.000
14393W        W82767  36.538   4.828  14.948
14394W        W82768   1.739  20.230   4.347
14395W        W82769   9.689   2.300   0.797
14396W        W82770   1.888   8.694  14.415
14397W        W82771   0.490   2.726   3.694
14398W        W82772  27.494  18.790   4.264
14399W        W82773  21.192   9.849  11.002
14400W        W82774   0.837  10.815   2.742
14401W        W82775  23.026   5.927  14.476
14402W        W82776   7.377  11.200   2.196
14403W        W82777  19.262   4.929   4.783
14404W        W82778  37.068  33.547  12.459
14405W        W82779  19.630  16.724   2.363
14406W        W82780  19.146  23.224   3.256
14407W        W82781  42.927  13.786  11.519
14408W        W82782  15.328   7.846   3.738
14409W        W82783   6.749   1.301  10.911
14410W        W82784  19.671  37.413   3.307
14411W        W82785  17.767   3.940  13.445
14412W        W82786  12.625  13.639   3.770
14413W        W82787  18.764  31.641   4.621
14414W        W82788  44.268  25.034   1.434
14415W        W82789  29.456  31.565   3.357
14416W        W82790  26.549  16.309   2.684
14417W        W82791  25.036   0.756   1.337
14418W        W82792  30.557  13.184   2.830
14419W        W82793  30.045  44.846   5.083
14420W        W82794   6.311  34.094   0.335
14421W        W82795  42.017  40.446   4.743
14422W        W82796  29.073  31.060  13.890
14423W        W82797  42.447  34.551  10.558
14424W        W82798  43.455   1.907   1.858
14425W        W82799   5.826   0.276  11.594
14426W        W82800  30.004  21.029  13.790
14427W        W82801  14.672  29.002  12.559
14428W        W82802   5.350   3.829  14.302
14429W        W82803   2.426  13.262  11.437
14430W        W82804   3.392  35.514  10.891
14431W        W82805  11.159  36.048   2.846
14432W        W82806  11.806   2.784  14.453
14433W        W82807  39.363   6.399  11.956
14434W        W82808  26.167  32.929   4.661
14435W        W82809  25.025  31.082  10.517
14436W        W82810  32.957  18.622   4.137
14437W        W82811  32.568  18.214   4.354
14438W        W82812  25.664  39.391  14.461
14439W        W82813  33.083  10.199   4.743
14440W        W82814  40.001  44.767  14.765
14441W        W82815  18.553  15.122  10.442
14442W        W82816  18.283  13.777   1.258
14443W        W82817  34.074  33.008  12.414
14444W        W82818  24.096  34.464  14.459
14445W        W82819  43.801  31.618   3.338
14446W        W82820  14.247  43.822   0.453
14447W        W82821  12.637  33.397   0.964
14448W        W82822  14.246  43.937  11.081
14449W        W82823  18.774  12.164   2.264
14450W        W82824  32.618  27.141   1.700
14451W        W82825  14.770  19.746  14.871
14452W        W82826  39.962  23.081   1.414
14453W        W82827   4.835   0.287   4.350
14454W        W82828  18.648   9.728  12.522
14455W        W82829   2.393  32.025  12.890
14456W        W82830   7.407  20.197   5.101
14457W        W82831  16.619  32.437  10.616
14458W        W82832  39.531   0.298  11.936
14459W        W82833  39.452   9.329   5.593
14460W        W82834  14.754  11.724  12.866
14461W        W82835  39.376  24.079  14.906
14462W        W82836  44.890  17.751  11.410
14463W        W82837  37.052  19.154   0.904
14464W        W82838  34.087  31.136  12.015
14465W        W82839  36.556  14.830   4.731
14466W        W82840  14.172   2.365   1.878
14467W        W82841  19.241  11.236  14.942
14468W        W82842  21.684  30.489  12.066
14469W        W82843  32.048  29.163  13.793
14470W        W82844  41.914   5.914  12.386
14471W        W82845  37.338   6.703   0.957
14472W        W82846  18.704  23.072   0.396
14473W        W82847  42.027  34.973   2.792
14474W        W82848  27.555  39.458  13.900
14475W        W82849  42.432   0.251  12.055
14476W        W82850  11.757  28.075  11.051
14477W        W82851   8.868  18.100  12.375
14478W        W82852  12.188  40.909   0.261
14479W        W82853  16.586  13.322   2.201
14480W        W82854   8.231  21.044   5.651
14481W        W82855  26.591  29.027  12.473
14482W        W82856  36.360   0.272   0.390
14483W        W82857   7.306   2.950   4.277
14484W        W82858  18.554   9.761   3.786
14485W        W82859  15.098  31.426  14.847
14486W        W82860  28.119   1.336  10.148
14487W        W82861  41.323  24.208  14.921
14488W        W82862  20.079  40.864   1.803
14489W        W82863  14.199  35.578   1.314
14490W        W82864  36.095  42.315   3.253
14491W        W82865   6.851   0.492  12.516
14492W        W82866  37.919   7.828  11.000
14493W        W82867  13.786  28.679   3.648
14494W        W82868  20.245   7.768  11.464
14495W        W82869  42.804   4.909   0.745
14496W        W82870  26.034  27.167  13.325
14497W        W82871  43.833  38.359  12.343
14498W        W82872  16.676  13.122  13.896
14499W        W82873   4.775  42.351   4.642
14500W        W82874  38.484  39.992   3.758
14501W        W82875  15.293  38.882  11.960
14502W        W82876  19.172  35.393   1.402
14503W        W82877  25.152   2.284  14.411
14504W        W82878  25.618  14.317  13.344
14505W        W82879  25.202   3.276  11.094
14506W        W82880  24.026   0.335  10.505
14507W        W82881  38.844  42.794  14.347
14508W        W82882  43.425   0.257  10.410
14509W        W82883  40.339  17.568  11.505
14510W        W82884   2.277  37.388   2.882
14511W        W82885  36.445  16.687  10.443
14512W        W82886   7.383  20.666   4.660
14513W        W82887  37.869  37.337  13.526
14514W        W82888  15.326  30.092   4.348
14515W        W82889  36.542  22.623  14.350
14516W        W82890  31.643  14.279  13.952
14517W        W82891  21.255   7.259  12.427
14518W        W82892  27.540  33.432   0.331
14519W        W82893  17.720  24.604   2.826
14520W        W82894   7.776   6.350   3.771
14521W        W82895  10.849   1.291   0.787
14522W        W82896  19.050  37.855  11.433
14523W        W82897   5.237  19.566   3.655
14524W        W82898   3.814   5.792  13.990
14525W        W82899  27.164  26.048  12.830
14526W        W82900  16.748  26.461  11.433
14527W        W82901   0.903   3.924  11.455
14528W        W82902  22.705   1.280  12.526
14529W        W82903  17.177  40.862  12.866
14530W        W82904   4.325  26.147  10.443
14531W        W82905  36.974  38.045   4.219
14532W        W82906  39.964  19.566   0.853
14533W        W82907   1.788  34.058   3.213
14534W        W82908  11.181  24.548  13.430
14535W        W82909   0.926   8.318   4.257
14536W        W82910  32.041   5.280  12.951
14537W        W82911   0.437  34.568  11.858
14538W        W82912  24.664  42.470   4.315
14539W        W82913   2.781  42.797  13.979
14540W        W82914  14.166  34.099  13.992
14541W        W82915  44.459  39.465   4.154
14542W        W82916  34.441  34.500   3.191
14543W        W82917  28.124  14.247   3.183
14544W        W82918   5.806  20.606  13.893
14545W        W82919  12.190   5.916  14.331
14546W        W82920  42.983  21.606  12.021
14547W        W82921  36.045  11.187  12.558
14548W        W82922  28.040  24.057   1.218
14549W        W82923  30.000   4.932   0.416
14550W        W82924  29.992  32.924  13.474
14551W        W82925  21.170  12.730  13.426
14552W        W82926  40.995   3.739  10.542
14553W        W82927  32.069   9.392  10.464
14554W        W82928  37.992  27.460  13.021
14555W        W82929  23.099  10.235   1.400
14556W        W82930  41.974  41.791  11.589
14557W        W82931  33.102   4.912   1.767
14558W        W82932   7.191  21.044  14.319
14559W        W82933  11.840  44.758   4.336
14560W        W82934  33.497  10.634  13.855
14561W        W82935  19.611  29.534  10.907
14562W        W82936  37.011  35.398   4.294
14563W        W82937  35.937  14.674  13.064
14564W        W82938   0.791  31.014  11.372
14565W        W82939   9.761  39.937  10.519
14566W        W82940  15.732   6.404  12.357
14567W        W82941  36.481  13.772  12.919
14568W        W82942   4.929  36.922  12.549
14569W        W82943  10.867   8.679   3.743
14570W        W82944  22.041   6.300  10.993
14571W        W82945  26.654   6.219  14.477
14572W        W82946   8.691  17.096  11.571
14573W        W82947  42.924  10.790  13.011
14574W        W82948   1.768  17.723   3.295
14575W        W82949  19.057  39.442   3.860
14576W        W82950  29.069  28.604  14.396
14577W        W82951  29.645   8.826  14.355
14578W        W82952  21.669  10.182   4.816
14579W        W82953  27.543  20.632  13.886
14580W        W82954   1.764  24.031  12.405
14581W        W82955  38.865  22.090   0.848
14582W        W82956   2.928  41.979  14.817
14583W        W82957  36.005  39.321  11.867
14584W        W82958  35.399  24.581  11.921
14585W        W82959  19.252  13.115  10.625
14586W        W82960  22.716  26.600  10.615
14587W        W82961  41.516  25.508   1.722
14588W        W82962  18.172   4.252   2.764
14589W        W82963  27.067  35.056  11.608
14590W        W82964  18.234   4.894  14.308
14591W        W82965  32.409  14.272  12.053
14592W        W82966  13.771  35.060  14.870
14593W        W82967  10.170   6.222  10.513
14594W        W82968  44.777  15.700   4.722
14595W        W82969  30.120  36.073  14.807
14596W        W82970  25.104   8.768  12.996
14597W        W82971  15.258  21.528  11.028
14598W        W82972  31.089  44.266  13.971
14599W        W82973  43.320   2.755   4.169
14600W        W82974  36.058   5.888   2.766
14601W        W82975  28.595   4.382  12.909
14602W        W82976  12.784  17.718  11.972
14603W        W82977  43.421   2.918  14.010
14604W        W82978  29.555   9.804  10.513
14605W        W82979  14.706  34.976  13.379
14606W        W82980  16.666  12.667   0.381
14607W        W82981   9.792  11.834   2.382
14608W        W82982   4.222  37.356   0.948
14609W        W82983   6.306  19.083  11.975
14610W        W82984   4.852  42.452   2.703
14611W        W82985  36.034  24.168   3.858
14612W        W82986  40.501  25.070   4.678
14613W        W82987  20.545  15.581  13.539
14614W        W82988  14.763  42.781  11.548
14615W        W82989  28.997  26.489  12.088
14616W        W82990   8.163  28.048   3.265
14617W        W82991  31.627  33.083  11.050
14618W        W82992  32.058   0.483   4.283
14619W        W82993  23.667  33.578  13.534
14620W        W82994  11.228  12.783  14.951
14621W        W82995  29.155  34.000  11.559
14622W        W82996  37.368  40.942  11.570
14623W        W82997  25.058  39.934  12.832
14624W        W82998  13.745  13.193   1.860
14625W        W82999  19.141   7.190   2.770
14626W        W83000  38.477  31.013  12.379
14627W        W83001  34.988  39.496   3.718
14628W        W83002  36.369   0.266  11.048
14629W        W83003   5.304  17.683   1.426
14630W        W83004  11.265  30.026   0.825
14631W        W83005  15.669  24.698  11.050
14632W        W83006   3.453  27.971  14.406
14633W        W83007  42.967   7.314  13.494
14634W        W83008  21.529  31.085   9.533
14635W        W83009   9.279  12.797   1.333
14636W        W83010  37.492  28.460  13.866
14637W        W83011   1.343  29.987   4.730
14638W        W83012  29.965  10.812   2.364
14639W        W83013   0.979  32.542  14.375
14640W        W83014  42.323  36.474  11.932
14641W        W83015  18.723  28.021   3.213
14642W        W83016  14.815  38.944  13.895
14643W        W83017  29.585  15.316   0.296
14644W        W83018   7.900  26.651   4.675
14645W        W83019  11.292  34.582  13.410
14646W        W83020  32.960  37.006  11.064
14647W        W83021  19.120  12.120  12.518
14648W        W83022  21.240  14.734   1.774
14649W        W83023  34.056   6.844   1.912
14650W        W83024   7.703   4.803  12.985
14651W        W83025  28.948  22.730  14.382
14652W        W83026  42.525  12.675   4.760
14653W        W83027  14.711  32.011   4.156
14654W        W83028  18.582  44.782   3.371
14655W        W83029  19.181  44.862  14.423
14656W        W83030  26.512  16.177  12.036
14657W        W83031  24.653  22.618   4.316
14658W        W83032  28.014  11.820   1.433
14659W        W83033  11.252  32.443   3.308
14660W        W83034  27.583   7.853  13.906
14661W        W83035  19.572  15.219   4.815
14662W        W83036   7.382  32.891   4.136
14663W        W83037  35.013  25.031   1.882
14664W        W83038  31.613  29.551   0.322
14665W        W83039  25.486   1.930  11.479
14666W        W83040  31.558  15.630  13.057
14667W        W83041  24.063  40.876  10.539
14668W        W83042  16.669  32.548   1.907
14669W        W83043  25.075   0.461   2.324
14670W        W83044  25.218  41.428   2.873
14671W        W83045  19.745  10.363  10.984
14672W        W83046  37.069  39.532   4.333
14673W        W83047  16.621  44.860  10.407
14674W        W83048  21.135  15.297   3.732
14675W        W83049   9.882  14.694  13.956
14676W        W83050  27.192  31.006   0.777
14677W        W83051  17.081  29.506   3.371
14678W        W83052  20.100  31.438   4.622
14679W        W83053  38.376  14.694   1.796
14680W        W83054  11.294  44.333   1.292
14681W        W83055  17.276   9.727   4.275
14682W        W83056  11.731  38.855  10.535
14683W        W83057  33.094  35.388  11.896
14684W        W83058   4.281   5.408  10.644
14685W        W83059  25.470  43.873   0.876
14686W        W83060  28.667  33.623  10.485
14687W        W83061   8.818  28.552   4.674
14688W        W83062   4.943  26.638   1.232
14689W        W83063   6.720   4.369   2.680
14690W        W83064  10.869   8.376   1.368
14691W        W83065  41.479  38.891   3.769
14692W        W83066   5.808  19.110  12.416
14693W        W83067  38.849  11.696  11.470
14694W        W83068  32.463  33.611  14.356
14695W        W83069  43.318  21.519   1.242
14696W        W83070  32.910  13.632   0.792
14697W        W83071  44.968  23.199   2.328
14698W        W83072  29.043  39.401  11.916
14699W        W83073  28.488   3.892   2.740
14700W        W83074  20.712  19.722  13.392
14701W        W83075  19.662  11.342   2.734
14702W        W83076  41.924  38.881   3.275
14703W        W83077  26.127  36.351   4.215
14704W        W83078  23.217  27.181   3.221
14705W        W83079  24.977  37.049   1.885
14706W        W83080  38.999  23.174   0.324
14707W        W83081  35.030  26.558  14.312
14708W        W83082  40.930  42.323  13.345
14709W        W83083  31.461  35.066  12.507
14710W        W83084  37.492  41.386   4.764
14711W        W83085   1.829  21.749  14.812
14712W        W83086   8.171  23.046  13.988
14713W        W83087  32.126  13.826   0.776
14714W        W83088   2.369  11.771  14.470
14715W        W83089  16.620   2.851   0.382
14716W        W83090  39.058   5.716   2.259
14717W        W83091  37.340  41.537  13.307
14718W        W83092  34.965  19.138  11.057
14719W        W83093  16.647  15.598   4.304
14720W        W83094  14.196  34.565   2.692
14721W        W83095  32.008  40.994   1.377
14722W        W83096  28.176   6.834  10.556
14723W        W83097  27.607  36.954  12.526
14724W        W83098  42.957   0.404   3.270
14725W        W83099  27.183  42.500  11.525
14726W        W83100  28.107  15.693  10.622
14727W        W83101  20.692  25.121   1.828
14728W        W83102  36.466  41.484  11.420
14729W        W83103  27.553   3.805  13.967
14730W        W83104  40.400  41.324   1.266
14731W        W83105  30.615  13.303  13.053
14732W        W83106  16.644  43.449   4.777
14733W        W83107  19.675  16.179  13.832
14734W        W83108  24.158  42.319  12.962
14735W        W83109  37.579  19.558   0.405
14736W        W83110  35.461   4.780   3.337
14737W        W83111   0.260  16.145   3.748
14738W        W83112  22.025  17.290  10.458
14739W        W83113  21.729  29.946  10.423
14740W        W83114  27.997  19.192   1.927
14741W        W83115  16.733  41.804  11.518
14742W        W83116  35.072  39.048   1.773
14743W        W83117  25.627  11.835  14.421
14744W        W83118  16.081   6.283   4.115
14745W        W83119   0.743  14.746  10.449
14746W        W83120  21.678  29.133   2.819
14747W        W83121  38.508   7.790   5.142
14748W        W83122   9.723  20.641   2.711
14749W        W83123  32.616  11.828  11.599
14750W        W83124  29.173  18.153   0.820
14751W        W83125   8.891   6.267  10.536
14752W        W83126  17.129  15.209  12.411
14753W        W83127   2.401  41.399   2.350
14754W        W83128  40.330   9.276   0.954
14755W        W83129  26.001  23.496   1.317
14756W        W83130   8.217  33.540   3.377
14757W        W83131  18.148  13.148  11.607
14758W        W83132   0.346   1.414  12.003
14759W        W83133   4.762  26.467  11.582
14760W        W83134  39.323   1.930  11.049
14761W        W83135  38.003   3.885   0.467
14762W        W83136  17.093   7.181   1.805
14763W        W83137   4.801   9.310  11.455
14764W        W83138  35.407   7.799   1.333
14765W        W83139   0.421  22.075   1.446
14766W        W83140   3.448  10.709  14.414
14767W        W83141  35.997  36.449   4.604
14768W        W83142  40.905  13.676  13.455
14769W        W83143  10.876  23.055  14.438
14770W        W83144  26.534   8.654  12.513
14771W        W83145   9.852  29.647  13.938
14772W        W83146   2.342  23.211  11.889
14773W        W83147  32.489  15.806   1.304
14774W        W83148  43.435   7.705   4.640
14775W        W83149  15.788  27.468  14.402
14776W        W83150  36.411  43.337   2.279
14777W        W83151  33.107  36.842  14.333
14778W        W83152  30.113   7.711   3.744
14779W        W83153  32.466  14.751   3.722
14780W        W83154   8.200   9.874   4.342
14781W        W83155  38.959  29.471   3.182
14782W        W83156  11.626  41.906  13.503
14783W        W83157  36.989   8.232   4.767
14784W        W83158  38.053  27.613   2.382
14785W        W83159  16.166  11.239  11.451
14786W        W83160  12.182  33.481  13.036
14787W        W83161  11.667  25.201   1.224
14788W        W83162   3.880  39.835  13.458
14789W        W83163  19.278  17.769   2.891
14790W        W83164  40.809  23.164  14.478
14791W        W83165  18.119  22.112   3.166
14792W        W83166  18.712   0.742   1.347
14793W        W83167  42.345  28.141   0.817
14794W        W83168  11.255  21.595  14.819
14795W        W83169  32.578   4.423   1.391
14796W        W83170   9.356  33.496  13.997
14797W        W83171  44.371   7.784   0.923
14798W        W83172  38.459  18.113   0.917
14799W        W83173  16.636  31.074   0.346
14800W        W83174   9.358  36.559   0.281
14801W        W83175  24.088  27.553  13.475
14802W        W83176   5.858   1.353   0.914
14803W        W83177  23.102  17.289   0.748
14804W        W83178   0.426  27.692  11.030
14805W        W83179  16.174   4.781   1.231
14806W        W83180  14.287  33.980  11.956
14807W        W83181  31.141  31.064  12.568
14808W        W83182  17.134  42.865  12.497
14809W        W83183  28.571  41.351   0.841
14810W        W83184   1.241   0.924  10.994
14811W        W83185  24.561  18.647   5.303
14812W        W83186   0.334   9.694  12.363
14813W        W83187   6.789  34.475  12.857
14814W        W83188  39.524   1.267   3.198
14815W        W83189  29.962  31.433  14.883
14816W        W83190  26.970  39.827  10.552
14817W        W83191   3.900  11.266  10.555
14818W        W83192  17.801  17.631   0.324
14819W        W83193   0.812  33.562   3.187
14820W        W83194  21.593  20.640  11.521
14821W        W83195  36.347   5.836   1.769
14822W        W83196  30.528   7.417  10.570
14823W        W83197  26.702  43.409   1.291
14824W        W83198  16.215  12.337  14.776
14825W        W83199   3.333  14.149  11.455
14826W        W83200  35.979  42.779  14.009
14827W        W83201  11.693  25.540  12.495
14828W        W83202  14.600   2.958  11.504
14829W        W83203   3.455  32.109  10.567
14830W        W83204  33.890  30.432  14.013
14831W        W83205  14.196  42.437   0.956
14832W        W83206  27.036  41.312   2.717
14833W        W83207  26.650  32.501   3.303
14834W        W83208   3.375  25.183   0.802
14835W        W83209  21.571  29.931   4.789
14836W        W83210   1.267  14.177  11.875
14837W        W83211  30.652  34.869   4.662
14838W        W83212  22.118   7.291   0.860
14839W        W83213  37.416   7.830  14.496
14840W        W83214  32.907  27.680  13.414
14841W        W83215  14.201  30.535   1.336
14842W        W83216  27.989  24.201   2.332
14843W        W83217   1.939  17.299  10.458
14844W        W83218  20.752   8.689   1.864
14845W        W83219   1.382  25.977   4.742
14846W        W83220  23.607   8.363  13.430
14847W        W83221  22.537   0.855  13.894
14848W        W83222  25.714  37.069   4.689
14849W        W83223   0.916   3.431   1.783
14850W        W83224   2.237   5.326  10.539
14851W        W83225  18.644  12.776   1.427
14852W        W83226  17.141   8.342   3.762
14853W        W83227   4.785  25.627   1.340
14854W        W83228   8.728  23.109  14.886
14855W        W83229  34.024  13.785  14.998
14856W        W83230  31.529  12.743   2.279
14857W        W83231  26.621  30.061  14.444
14858W        W83232  18.658   8.260  11.914
14859W        W83233  13.712  23.139   0.273
14860W        W83234  25.605  36.931   4.298
14861W        W83235   3.395  35.580   1.872
14862W        W83236  18.100  39.505  10.467
14863W        W83237   0.954  39.953  14.952
14864W        W83238  29.175   9.238  12.484
14865W        W83239  26.607  41.008   3.185
14866W        W83240  37.431  12.632  11.920
14867W        W83241  21.226  27.096  11.126
14868W        W83242   6.828  21.255   2.269
14869W        W83243   4.283  32.554   1.855
14870W        W83244  18.214  41.025  10.962
14871W        W83245  35.494  40.526   3.643
14872W        W83246   2.302  31.943   5.117
14873W        W83247  24.186  22.500   3.385
14874W        W83248  18.772  12.266  12.347
14875W        W83249  15.187  30.990   3.204
14876W        W83250  22.018  12.691   3.722
14877W        W83251  34.437  40.935   0.778
14878W        W83252  27.687  24.720   1.931
14879W        W83253   7.249  30.601   4.185
14880W        W83254  25.696  11.353   2.773
14881W        W83255  16.641   7.172   0.935
14882W        W83256  38.393   7.911   4.625
14883W        W83257   0.380  43.832  12.991
14884W        W83258   6.254  23.634   1.707
14885W        W83259   6.800   5.403   3.724
14886W        W83260  16.283  23.522   2.810
14887W        W83261  32.071  36.350   1.729
14888W        W83262  34.381  29.054  10.467
14889W        W83263   5.723   7.812  10.572
14890W        W83264  42.464  12.634   1.796
14891W        W83265   2.356  12.776   0.381
14892W        W83266   3.844  20.689   4.818
14893W        W83267  33.618  31.004   9.945
14894W        W83268   0.483  40.490  13.378
14895W        W83269   2.317   5.748  11.452
14896W        W83270  19.102   6.208  13.379
14897W        W83271  10.293   4.246  12.910
14898W        W83272  11.247  30.550  10.511
14899W        W83273   6.747  40.396  12.026
14900W        W83274  18.144   1.806  10.534
14901W        W83275  39.512   4.354  11.438
14902W        W83276   6.279  23.197   9.584
14903W        W83277  28.966  26.051  13.005
14904W        W83278   3.329  41.296  14.403
14905W        W83279   7.890  39.843  12.348
14906W        W83280  29.958  19.533   0.419
14907W        W83281  44.270  12.655   2.832
14908W        W83282  19.601  36.898  14.846
14909W        W83283   4.914  12.131   1.377
14910W        W83284  34.407   8.400  12.089
14911W        W83285  35.089   4.808   9.946
14912W        W83286  40.397  37.909  12.397
14913W        W83287  22.133   4.940  14.826
14914W        W83288  14.635  17.601  10.493
14915W        W83289   9.274  16.318  13.042
14916W        W83290  12.277  26.566  13.884
14917W        W83291  30.539   9.855  10.593
14918W        W83292  10.228  13.726  10.569
14919W        W83293  27.089  41.967  11.459
14920W        W83294  13.111  29.455  10.942
14921W        W83295  11.134   4.440  14.976
14922W        W83296   4.317  12.649  10.573
14923W        W83297   4.361   8.201  10.453
14924W        W83298  41.910  13.620  13.392
14925W        W83299  21.159  20.143   0.440
14926W        W83300  16.685  12.120   4.201
14927W        W83301  13.802   8.268  12.016
14928W        W83302   8.884   7.868  13.869
14929W        W83303  40.495   5.813   4.146
14930W        W83304   8.327  41.397  12.425
14931W        W83305  25.990  44.798   4.123
14932W        W83306  30.430  44.860   0.278
14933W        W83307  17.723  21.140   4.703
14934W        W83308  36.024  33.962   1.926
14935W        W83309   6.724   1.955   2.745
14936W        W83310  20.666  37.877   2.728
14937W        W83311   9.700  33.398   0.841
14938W        W83312  40.020  43.936  10.444
14939W        W83313  19.203   1.918   4.634
14940W        W83314  16.666  27.665   2.864
14941W        W83315  24.190  11.251  14.807
14942W        W83316   5.361  18.196  14.804
14943W        W83317  16.294  21.564   0.400
14944W        W83318  24.540   3.911   4.780
14945W        W83319  30.048   1.825   3.682
14946W        W83320  41.398  34.586  11.577
14947W        W83321  20.532  39.393   1.834
14948W        W83322  41.867  19.741   2.358
14949W        W83323  22.688  33.961   4.608
14950W        W83324  23.717  23.670   3.270
14951W        W83325  42.526  21.564  11.995
14952W        W83326  41.800  27.182  14.847
14953W        W83327   3.912   1.916   1.838
14954W        W83328   9.646  14.265   4.838
14955W        W83329   2.916  17.687  13.433
14956W        W83330  13.677  26.019   2.316
14957W        W83331  33.995  39.355   4.774
14958W        W83332  16.309  23.499   0.898
14959W        W83333  36.367  39.910  12.525
14960W        W83334  32.548  11.813  11.095
14961W        W83335  42.344  42.327   1.746
14962W        W83336  17.167  38.557   0.412
14963W        W83337  35.561   5.301   1.313
14964W        W83338   5.252  23.517  14.424
14965W        W83339  24.050  16.269   1.325
14966W        W83340  38.838  43.314   4.309
14967W        W83341  36.953  18.130   0.358
14968W        W83342  16.684  27.018   0.455
14969W        W83343  25.997  29.639   1.378
14970W        W83344  17.617  33.061   0.381
14971W        W83345  33.107  43.888  11.561
14972W        W83346  14.315  29.121  13.349
14973W        W83347   1.743  25.594   4.712
14974W        W83348   8.204   9.735  14.355
14975W        W83349  22.007   0.824  10.895
14976W        W83350  10.210   2.435   2.296
14977W        W83351  37.562  14.676   0.817
14978W        W83352  40.353  21.064  12.085
14979W        W83353  34.098  23.567   1.286
14980W        W83354  18.749   5.217   2.829
14981W        W83355  27.622  43.497  14.907
14982W        W83356  30.072   5.268  10.989
14983W        W83357  39.935  12.183   1.913
14984W        W83358   5.924  39.542   1.436
14985W        W83359  20.096  15.211   4.264
14986W        W83360  14.817  14.820   0.766
14987W        W83361  17.715  33.959  14.906
14988W        W83362  20.538   1.390   2.199
14989W        W83363   5.292  19.591  14.368
14990W        W83364  23.553  40.890   4.617
14991W        W83365   2.366  17.700   2.313
14992W        W83366  40.028  11.821   0.851
14993W        W83367   2.854  41.532  10.469
14994W        W83368  32.482   8.872  11.469
14995W        W83369  17.307  22.726   3.236
14996W        W83370  11.688  23.174   4.195
14997W        W83371  39.355  43.910  14.009
14998W        W83372  33.991  35.553  11.857
14999W        W83373  43.289  39.821   1.347
15000W        W83374  39.015  21.126   0.880
15001W        W83375  12.786  35.929  10.488
15002W        W83376  26.545  36.488  11.589
15003W        W83377  16.780  26.622   4.233
15004W        W83378   3.769   9.840  11.931
15005W        W83379  31.631  20.228   3.344
15006W        W83380  21.182   7.737   2.384
15007W        W83381   8.750  38.025  13.844
15008W        W83382  24.673   3.284   0.457
15009W        W83383  35.386  28.961  12.938
15010W        W83384  14.802  26.029   1.793
15011W        W83385  22.076  42.994  11.515
15012W        W83386  13.755  44.372   4.822
15013W        W83387  41.982  41.027  11.000
15014W        W83388   6.334  35.557   1.360
15015W        W83389   7.869  43.496   4.229
15016W        W83390  28.445  22.085  12.991
15017W        W83391   0.989  13.153   1.877
15018W        W83392  27.688  42.901  11.028
15019W        W83393  37.500  34.879   4.137
15020W        W83394   0.946  36.076   3.769
15021W        W83395   6.237   5.359   0.252
15022W        W83396  16.276   9.201  10.959
15023W        W83397  15.710   6.228   0.729
15024W        W83398  13.641  23.019   1.330
15025W        W83399  21.657  29.632   4.308
15026W        W83400  37.519   0.417  14.466
15027W        W83401  21.125  41.916   5.319
15028W        W83402  28.628  25.042   1.855
15029W        W83403   0.833  14.192   0.339
15030W        W83404  35.391  38.826   4.755
15031W        W83405  13.216  22.010  11.526
15032W        W83406  44.007  22.198   0.336
15033W        W83407  31.492   8.655   0.964
15034W        W83408  31.527  14.732  13.503
15035W        W83409   6.677   3.915   0.404
15036W        W83410  33.458  12.152  14.012
15037W        W83411   4.266  30.988  13.012
15038W        W83412  23.196  25.586   4.193
15039W        W83413  44.814  21.694  12.365
15040W        W83414  13.677  26.644   2.766
15041W        W83415  35.923  18.121   2.223
15042W        W83416  35.457  19.276  11.418
15043W        W83417   4.327  25.019  14.903
15044W        W83418  14.797   1.449   2.846
15045W        W83419   1.432  14.678  11.085
15046W        W83420   5.207  14.612  13.038
15047W        W83421  24.575  14.187   0.372
15048W        W83422  35.900   4.895   5.257
15049W        W83423   1.247  21.181   4.779
15050W        W83424  15.156  42.488   0.413
15051W        W83425  39.345  42.960   5.256
15052W        W83426  20.158  24.142   5.195
15053W        W83427  33.433  31.586  11.874
15054W        W83428  17.704  17.685   4.705
15055W        W83429  33.619  38.074  13.421
15056W        W83430  36.931  15.793   4.630
15057W        W83431   8.780  40.019   3.249
15058W        W83432  14.119  23.588  11.403
15059W        W83433  33.412  42.380   2.341
15060W        W83434  15.636  11.837  10.932
15061W        W83435   9.206  11.278   3.661
15062W        W83436  19.168   9.306  10.571
15063W        W83437  19.704  37.997   0.351
15064W        W83438  38.023  38.436   2.370
15065W        W83439  18.598  22.528   0.834
15066W        W83440  32.060  31.427  13.338
15067W        W83441   5.424  22.095   1.383
15068W        W83442   4.316  23.683   1.350
15069W        W83443  44.974  21.185  13.860
15070W        W83444  21.586  40.817   9.934
15071W        W83445   0.385   4.811   3.339
15072W        W83446   1.744  38.971   4.213
15073W        W83447  44.432  32.928   4.206
15074W        W83448  39.945  34.899   4.688
15075W        W83449  19.719  28.156   4.816
15076W        W83450  36.889  34.545  12.952
15077W        W83451  13.830  15.200  14.761
15078W        W83452  37.502   0.836  14.422
15079W        W83453  21.723  14.341  12.372
15080W        W83454   6.790  38.425   2.770
15081W        W83455   7.293  33.047  10.432
15082W        W83456   5.354   9.255   2.867
15083W        W83457   6.895  17.722  14.394
15084W        W83458  34.957  23.049  12.357
15085W        W83459  20.063  24.714   1.773
15086W        W83460  25.073  18.137  11.577
15087W        W83461  16.121   1.304  14.380
15088W        W83462  20.710  19.560  10.958
15089W        W83463  20.203   9.334   4.303
15090W        W83464  28.957  31.630  13.436
15091W        W83465   8.298  11.344  13.448
15092W        W83466  18.183  18.717  10.408
15093W        W83467  34.604  29.093   4.297
15094W        W83468  17.692  29.585   4.290
15095W        W83469   0.490  39.924  11.376
15096W        W83470  14.729  44.432  14.510
15097W        W83471  30.144  39.451   1.370
15098W        W83472   0.872  11.156   0.886
15099W        W83473   7.754  25.702   5.598
15100W        W83474  21.573  21.576  14.317
15101W        W83475   3.317  23.105   4.126
15102W        W83476  12.246  30.038  11.856
15103W        W83477  18.786  16.080  12.076
15104W        W83478  38.548   9.803  11.879
15105W        W83479  26.639  37.955  11.588
15106W        W83480   8.775   0.763   4.614
15107W        W83481  32.054  23.567   4.838
15108W        W83482  13.692  18.217  14.347
15109W        W83483  34.536   5.757   3.650
15110W        W83484   9.807  29.067   9.471
15111W        W83485  28.492  21.145   2.782
15112W        W83486   9.660   9.756  14.939
15113W        W83487  22.045   9.313  12.077
15114W        W83488  23.662  27.532   1.859
15115W        W83489  13.224  18.572  11.515
15116W        W83490  44.309  42.949  11.028
15117W        W83491  36.999  19.678  12.949
15118W        W83492  37.440  32.551  14.013
15119W        W83493  34.480   5.407  11.898
15120W        W83494  12.268  17.706   3.317
15121W        W83495  14.122  14.736  12.071
15122W        W83496  20.721  19.775  11.870
15123W        W83497  38.060  16.189   1.407
15124W        W83498  17.705  39.416   3.286
15125W        W83499  32.589  20.626   4.299
15126W        W83500   6.851  43.954   0.794
15127W        W83501  11.821   4.943  14.880
15128W        W83502   2.282  44.267  14.330
15129W        W83503  27.077  40.376  12.345
15130W        W83504  42.306  20.266  10.612
15131W        W83505   3.380  41.792   5.165
15132W        W83506   7.789  17.697  12.388
15133W        W83507   1.849  27.952  13.863
15134W        W83508  36.374  40.509   0.367
15135W        W83509  20.654  12.825   0.428
15136W        W83510   8.832  42.912  11.600
15137W        W83511  30.449  43.392   0.808
15138W        W83512  29.096  38.006  10.405
15139W        W83513  20.145  18.275   1.809
15140W        W83514   7.711  43.782  12.386
15141W        W83515  10.840  18.254  13.015
15142W        W83516  24.987   9.191   3.819
15143W        W83517   6.714  43.418  13.328
15144W        W83518  40.943  37.519  14.979
15145W        W83519   2.923   8.842   4.152
15146W        W83520   0.819  40.493  13.434
15147W        W83521   1.457  40.797   3.682
15148W        W83522  35.981  33.926  10.933
15149W        W83523  31.464  18.082  14.387
15150W        W83524  25.692  39.464   3.181
15151W        W83525   9.737  19.675  12.039
15152W        W83526  21.226  32.430   1.303
15153W        W83527  23.540  24.587   4.647
15154W        W83528  17.748  42.514   4.772
15155W        W83529   3.428  29.594   2.246
15156W        W83530  10.785   1.975   2.277
15157W        W83531  18.735  11.637  10.966
15158W        W83532   1.413  11.305   1.437
15159W        W83533  25.639   3.373   2.899
15160W        W83534  11.729  36.438  14.444
15161W        W83535   9.224   7.178   1.302
15162W        W83536   9.324  18.648   2.206
15163W        W83537  22.560  39.064  13.019
15164W        W83538  30.575   8.407  10.565
15165W        W83539  24.564  22.094   2.184
15166W        W83540   0.829  10.309  11.053
15167W        W83541  40.509  31.994  14.799
15168W        W83542   5.221  40.389   4.659
15169W        W83543  16.217   4.707   0.381
15170W        W83544  35.415  33.522  12.430
15171W        W83545   0.755   4.829   1.698
15172W        W83546  28.668   8.890   4.272
15173W        W83547   5.394  38.384  14.386
15174W        W83548  35.923  13.759   3.283
15175W        W83549  29.541  22.657   5.219
15176W        W83550  21.551  10.371  10.070
15177W        W83551  21.622  30.608   3.842
15178W        W83552  40.515  18.226   2.768
15179W        W83553  31.947  35.395  10.452
15180W        W83554  14.228  14.307   3.288
15181W        W83555  10.261   7.786   1.248
15182W        W83556  28.590  33.015   4.662
15183W        W83557   9.700  13.631  14.281
15184W        W83558  16.247   7.245  12.989
15185W        W83559  30.607  38.056  14.490
15186W        W83560  19.674  14.715  11.565
15187W        W83561   7.798  29.148  14.799
15188W        W83562   0.815   1.891  14.339
15189W        W83563  14.834  28.147   2.827
15190W        W83564  36.043  32.962   2.318
15191W        W83565  25.695  43.475  12.826
15192W        W83566  30.417  10.828   4.207
15193W        W83567   0.419  19.733   3.167
15194W        W83568  38.866  38.990   0.767
15195W        W83569  17.254  37.917   3.646
15196W        W83570   4.918  36.965   1.303
15197W        W83571  42.377  38.515   0.374
15198W        W83572  20.716   9.150   2.752
15199W        W83573  19.770  44.927   2.328
15200W        W83574  22.636  23.589  13.318
15201W        W83575  21.174   6.910   1.916
15202W        W83576  39.405  16.301  11.929
15203W        W83577   2.428  29.147  11.035
15204W        W83578  19.136   1.865  14.981
15205W        W83579  42.910  29.923  12.922
15206W        W83580   2.845  18.179  11.521
15207W        W83581  11.763  36.053   5.135
15208W        W83582  30.601  17.726   3.700
15209W        W83583  24.595  22.136   3.219
15210W        W83584   2.368  40.048   1.851
15211W        W83585   2.232  27.571   1.279
15212W        W83586  13.650  34.864   4.659
15213W        W83587   9.675  19.122   3.387
15214W        W83588  14.673  24.036  10.892
15215W        W83589  38.539  11.302  14.929
15216W        W83590  28.647  43.467   2.249
15217W        W83591  26.647  12.198   3.152
15218W        W83592   3.239  25.118   3.357
15219W        W83593  25.677  20.608   2.875
15220W        W83594  43.804   1.941   4.181
15221W        W83595  20.715  18.129  10.601
15222W        W83596   4.209  25.659  10.992
15223W        W83597  35.521  14.288  11.120
15224W        W83598  22.658  42.337   3.860
15225W        W83599  10.832  31.556   1.735
15226W        W83600  23.202  38.045  14.403
15227W        W83601   3.394   6.284   4.740
15228W        W83602  27.655   5.344  12.995
15229W        W83603  36.850  22.703   2.287
15230W        W83604  31.102  12.324   0.301
15231W        W83605  19.736  22.678   2.366
15232W        W83606  27.642  12.695   1.333
15233W        W83607  31.018   0.956   1.261
15234W        W83608  41.926   8.305  10.618
15235W        W83609   0.777  24.187   0.469
15236W        W83610  14.160  14.191   1.802
15237W        W83611  29.535  28.931  10.076
15238W        W83612  18.244  34.381  13.487
15239W        W83613  21.126  12.728   0.844
15240W        W83614  41.501   9.314   1.347
15241W        W83615  27.147   8.776  13.051
15242W        W83616  42.777  39.870  14.792
15243W        W83617  29.560  24.544   2.203
15244W        W83618  21.213   1.283   2.195
15245W        W83619  25.058  11.670   3.151
15246W        W83620  21.108  40.949  14.495
15247W        W83621  29.167   2.749  14.514
15248W        W83622  39.334   1.417  14.925
15249W        W83623  38.399  25.122  13.023
15250W        W83624  32.981  11.784   2.813
15251W        W83625  42.473  28.574   0.366
15252W        W83626  31.599  26.590  10.004
15253W        W83627  38.842  38.826   5.190
15254W        W83628  17.156  42.419   3.838
15255W        W83629   6.329  24.229   4.794
15256W        W83630   5.874  34.414   3.305
15257W        W83631  15.093  35.555   0.904
15258W        W83632  27.960  38.387   2.417
15259W        W83633   7.704  14.095   0.430
15260W        W83634  18.123  29.644  10.596
15261W        W83635  44.413   9.864   0.941
15262W        W83636  27.450   9.752  11.935
15263W        W83637  33.976   0.832  10.434
15264W        W83638  44.769  36.347  12.081
15265W        W83639  16.620  12.657   0.869
15266W        W83640  23.605  18.080  11.520
15267W        W83641  18.242  27.175   0.277
15268W        W83642  35.602  18.281  12.486
15269W        W83643  12.321  38.365  13.482
15270W        W83644   9.766   6.251   3.329
15271W        W83645  25.023  28.985   2.211
15272W        W83646  41.035   8.799   4.293
15273W        W83647  25.981   6.248  12.002
15274W        W83648  11.315  19.101  10.497
15275W        W83649  41.989  25.114  11.383
15276W        W83650  20.768   6.211   0.914
15277W        W83651  12.612  15.755   4.766
15278W        W83652  43.904  23.513  11.441
15279W        W83653  40.340  26.656   3.385
15280W        W83654  26.486   3.435  13.523
15281W        W83655  32.885  31.575   0.901
15282W        W83656  11.834  19.229   3.803
15283W        W83657  40.532  14.157  12.007
15284W        W83658  23.553  42.826   0.285
15285W        W83659  24.020   8.344   3.736
15286W        W83660  39.058   9.832  10.415
15287W        W83661  19.177  35.044  13.413
15288W        W83662  42.860  35.493  13.360
15289W        W83663  41.320  44.780   2.715
15290W        W83664  36.553  35.079  10.942
15291W        W83665  13.334  38.069   2.833
15292W        W83666  16.174   0.332  14.803
15293W        W83667  38.851   8.160   0.391
15294W        W83668  10.675  15.647   4.679
15295W        W83669  33.508  20.168   4.700
15296W        W83670  30.133   0.861   2.829
15297W        W83671   6.342   4.766  12.991
15298W        W83672  20.545  39.041   4.119
15299W        W83673  19.182  21.220   4.343
15300W        W83674  31.905  12.651   0.296
15301W        W83675  35.515  31.119   0.455
15302W        W83676   7.266  32.465   1.816
15303W        W83677  43.999  40.393   0.827
15304W        W83678  18.669   2.377   3.211
15305W        W83679  40.320  42.840  11.020
15306W        W83680   3.412  21.719   1.736
15307W        W83681   9.227  18.197  11.942
15308W        W83682  23.726  17.201   2.238
15309W        W83683  44.829   8.219  10.986
15310W        W83684  10.840  25.093  12.070
15311W        W83685  13.750  18.786   4.725
15312W        W83686   5.403   9.874  11.903
15313W        W83687  35.076   4.936   1.409
15314W        W83688  16.314  19.600   1.812
15315W        W83689  15.676  20.057  12.033
15316W        W83690  39.428  18.164  13.052
15317W        W83691   4.720  34.595  13.368
15318W        W83692  26.589   6.855  12.826
15319W        W83693  27.148  39.436   2.289
15320W        W83694  43.970  25.988   3.671
15321W        W83695  44.292   4.387   0.384
15322W        W83696  24.214  14.241  13.436
15323W        W83697  15.742  24.104   2.720
15324W        W83698   1.448   2.829  11.876
15325W        W83699  25.563  14.116  12.064
15326W        W83700   3.234  25.062  11.418
15327W        W83701  37.981  15.163  12.077
15328W        W83702  38.476  40.399  12.932
15329W        W83703  43.405   1.381   1.784
15330W        W83704  27.637  32.552   3.338
15331W        W83705  31.094  44.922   4.266
15332W        W83706  34.049  42.299   4.821
15333W        W83707  24.976   8.334  14.945
15334W        W83708  37.461   3.264   3.222
15335W        W83709  12.768  44.927  12.420
15336W        W83710  38.421  36.870   4.342
15337W        W83711  25.542   8.373   4.306
15338W        W83712   4.328  33.119  12.020
15339W        W83713  22.152  20.630  14.295
15340W        W83714  30.572  43.475   3.338
15341W        W83715  31.980  42.016  12.094
15342W        W83716  10.717  38.875  13.320
15343W        W83717  26.528  36.844   2.195
15344W        W83718  15.655  22.122  12.969
15345W        W83719  16.178  35.853  14.386
15346W        W83720  30.975  36.520  10.930
15347W        W83721  16.675  41.975   3.284
15348W        W83722  12.686  23.692  12.436
15349W        W83723  38.535  35.500  14.783
15350W        W83724   1.403  32.076   2.814
15351W        W83725   6.712   4.861  12.964
15352W        W83726  17.285  24.989  10.117
15353W        W83727  21.033  11.847  13.340
15354W        W83728  11.716  33.611   2.215
15355W        W83729   0.447   7.737   4.812
15356W        W83730  24.522   3.262   2.711
15357W        W83731  27.470   2.889  14.016
15358W        W83732  25.505  15.771   0.337
15359W        W83733  44.838  14.606   1.711
15360W        W83734  39.412  12.172   1.706
15361W        W83735   9.799  27.627   4.754
15362W        W83736  19.227  34.883  12.522
15363W        W83737  15.295  25.547  13.991
15364W        W83738  17.145  36.577   3.675
15365W        W83739  10.180  37.450   2.343
15366W        W83740  20.130  35.539  14.275
15367W        W83741  29.595  24.221   2.815
15368W        W83742  14.830  19.242   1.349
15369W        W83743  31.059   9.740  11.466
15370W        W83744   9.721   1.848   2.298
15371W        W83745  15.661   7.403  13.005
15372W        W83746  10.652  15.294  10.923
15373W        W83747  34.397  23.044   1.380
15374W        W83748  37.916  36.360  10.982
15375W        W83749  14.242   2.297   4.824
15376W        W83750  32.497  42.033   0.755
15377W        W83751  44.486  13.315  10.935
15378W        W83752  23.049  27.147  10.988
15379W        W83753   4.416  16.764  10.630
15380W        W83754   0.353  14.213  14.303
15381W        W83755  21.702  33.875  13.517
15382W        W83756  41.982  35.942  14.900
15383W        W83757  12.664  36.482  14.349
15384W        W83758  19.649  13.614  13.422
15385W        W83759  31.029  33.938   4.182
15386W        W83760  43.880  11.726   4.619
15387W        W83761  13.204  38.966  14.847
15388W        W83762  29.174  18.590  14.865
15389W        W83763  35.591  18.100  10.979
15390W        W83764  25.713  42.523  11.443
15391W        W83765  21.120  23.611   1.796
15392W        W83766  20.163  11.635  12.833
15393W        W83767   1.432  25.161   1.353
15394W        W83768   1.870  36.950  14.816
15395W        W83769  29.593  12.275   4.144
15396W        W83770   2.258  22.584   2.336
15397W        W83771  31.036  33.044  13.010
15398W        W83772  39.029  38.994  11.946
15399W        W83773  41.464  12.740  11.934
15400W        W83774  33.980  16.770  10.540
15401W        W83775  23.633  14.781   1.288
15402W        W83776   8.300  25.479   4.275
15403W        W83777  40.925  25.198   4.781
15404W        W83778  12.857  36.003   4.644
15405W        W83779  32.964  40.423   2.283
15406W        W83780  34.930   6.866  11.587
15407W        W83781   7.826  44.286  14.820
15408W        W83782  36.463  17.087  11.540
15409W        W83783  39.881  24.087   3.815
15410W        W83784  15.319   4.375  10.494
15411W        W83785  30.063   2.735   4.351
15412W        W83786  42.783   5.291  12.348
15413W        W83787  21.750  31.094   0.855
15414W        W83788   6.228  17.144  11.993
15415W        W83789  34.035  41.833   1.888
15416W        W83790  35.558  31.428   3.298
15417W        W83791  10.634  13.661  11.855
15418W        W83792  33.439  13.185   4.759
15419W        W83793  11.274  20.569   4.307
15420W        W83794   2.420   7.907   4.274
15421W        W83795   0.296  18.753  13.933
15422W        W83796  12.823  32.015   3.254
15423W        W83797   9.221  32.921   3.862
15424W        W83798  23.683   3.756   2.680
15425W        W83799  14.322  20.758  13.478
15426W        W83800  28.116  38.016  13.337
15427W        W83801  43.991  33.474  12.885
15428W        W83802  10.198  11.635   0.370
15429W        W83803  36.077  23.113   3.173
15430W        W83804  30.955  20.617  14.377
15431W        W83805   0.909   7.783   2.832
15432W        W83806  29.454  19.216   1.273
15433W        W83807   6.891  42.868   1.303
15434W        W83808  36.004  30.972  13.025
15435W        W83809   9.732   6.904   0.824
15436W        W83810  19.576  20.037  12.860
15437W        W83811  18.126  32.101   0.374
15438W        W83812   2.447  25.019  12.031
15439W        W83813  44.760   9.321  13.815
15440W        W83814  32.085   5.331   1.361
15441W        W83815  35.524  11.638  10.951
15442W        W83816  12.845  18.200  10.494
15443W        W83817  26.513  24.528   0.252
15444W        W83818  34.505   9.249  11.430
15445W        W83819  33.479   0.852   0.910
15446W        W83820  29.164  43.301  10.435
15447W        W83821  23.158  39.812  14.804
15448W        W83822  42.415  17.636   3.676
15449W        W83823  28.630  39.461   0.481
15450W        W83824  11.653  17.692   2.356
15451W        W83825  23.037  13.235   4.131
15452W        W83826  28.059  36.412   4.252
15453W        W83827  12.254  36.927   0.387
15454W        W83828  24.598  14.105   2.373
15455W        W83829  37.991   8.669  14.893
15456W        W83830   2.811  28.590   2.192
15457W        W83831  26.086  23.524   2.801
15458W        W83832  38.030  35.875   1.746
15459W        W83833  24.510  19.634   0.914
15460W        W83834  13.191  20.683   3.269
15461W        W83835  38.071  19.751  14.788
15462W        W83836  38.533  33.042   1.869
15463W        W83837  39.961  13.638  10.931
15464W        W83838  22.108  40.804  14.511
15465W        W83839  27.603  32.442  14.855
15466W        W83840  11.752  22.122  12.562
15467W        W83841   7.825  17.081   0.465
15468W        W83842   9.388  12.218  10.449
15469W        W83843   3.389  13.798  12.882
15470W        W83844  41.940  22.158   0.732
15471W        W83845  13.227   7.777  11.954
15472W        W83846  13.121  25.584   3.286
15473W        W83847  20.654  43.513  14.988
15474W        W83848  10.299  20.609   1.343
15475W        W83849  40.452  28.451   0.300
15476W        W83850   5.806  42.513  13.504
15477W        W83851  26.584  15.231   2.819
15478W        W83852   6.407  15.735  12.445
15479W        W83853   0.894  26.105  14.018
15480W        W83854   6.282  25.052   4.634
15481W        W83855  35.460  37.929   4.223
15482W        W83856  29.446  26.582  14.365
15483W        W83857   7.194  35.502  14.446
15484W        W83858  27.068  44.945   4.737
15485W        W83859  15.630  15.298   3.713
15486W        W83860  44.491  14.160   1.894
15487W        W83861   5.899  10.176   0.948
15488W        W83862  33.894  21.127  11.055
15489W        W83863  11.271  37.943   3.213
15490W        W83864  29.660  30.998  12.847
15491W        W83865  12.292  11.856   1.351
15492W        W83866  41.425  21.517   4.120
15493W        W83867  42.309  16.225  12.896
15494W        W83868  11.827  39.860   4.298
15495W        W83869  14.723  36.939  10.936
15496W        W83870  41.537   6.194   1.785
15497W        W83871  29.488  44.855   1.818
15498W        W83872  19.210  22.646  14.312
15499W        W83873  27.451  13.165   4.607
15500W        W83874  29.059  16.674  14.474
15501W        W83875  26.701  44.405   5.220
15502W        W83876  44.822  35.090   3.371
15503W        W83877   9.875  35.452  14.960
15504W        W83878   0.357  11.277  14.497
15505W        W83879   6.341  33.007  11.875
15506W        W83880   5.872  14.145   3.758
15507W        W83881  10.321  16.317   3.167
15508W        W83882  14.281  32.074  12.909
15509W        W83883  12.352  27.954   1.694
15510W        W83884  43.814   0.755  11.488
15511W        W83885  31.061  27.102   0.856
15512W        W83886  29.622  34.452  14.301
15513W        W83887  11.767   4.941  10.159
15514W        W83888   9.835  40.963   3.331
15515W        W83889   8.846  25.541  14.309
15516W        W83890  25.697  12.714   1.397
15517W        W83891  19.124  14.129   2.843
15518W        W83892  17.711  13.676  13.811
15519W        W83893  14.709  11.257   4.323
15520W        W83894  37.365   7.809   5.211
15521W        W83895   7.397  16.113  12.990
15522W        W83896  38.334   9.845   1.794
15523W        W83897  35.375  43.500   3.273
15524W        W83898   5.746   7.725  12.428
15525W        W83899  37.977  13.682   2.226
15526W        W83900  40.469  20.229   4.122
15527W        W83901  27.077   5.425   0.813
15528W        W83902  43.365   6.316  13.972
15529W        W83903  14.260  35.555  14.423
15530W        W83904  22.660  36.866   4.299
15531W        W83905  16.233  35.858  13.834
15532W        W83906  40.315  26.074   0.312
15533W        W83907  25.571  24.037  10.965
15534W        W83908  10.826  22.067   2.255
15535W        W83909  40.423  43.426  11.938
15536W        W83910  42.949  25.976   4.291
15537W        W83911   1.258  24.497   1.326
15538W        W83912  27.185  42.486   0.956
15539W        W83913   1.839  30.418  13.981
15540W        W83914  42.931  22.678   2.205
15541W        W83915  14.270  31.090  13.824
15542W        W83916  23.138  30.424   3.355
15543W        W83917   2.334  42.887  10.003
15544W        W83918   7.363  32.101   2.806
15545W        W83919   0.494  11.250  10.523
15546W        W83920  13.672  44.816   0.482
15547W        W83921  43.321  14.636   4.325
15548W        W83922  28.991  28.679   0.418
15549W        W83923  15.763  25.125   2.391
15550W        W83924  26.570  37.863   1.387
15551W        W83925  29.641  43.007   2.353
15552W        W83926   2.410  27.462  14.322
15553W        W83927  28.591   2.246   3.360
15554W        W83928   0.920  41.010  13.407
15555W        W83929   4.281  34.965  10.529
15556W        W83930   7.788   8.780   1.215
15557W        W83931   7.253  10.774  12.533
15558W        W83932  36.892  37.516  10.420
15559W        W83933  17.739  21.751  12.988
15560W        W83934  19.626  11.166   4.792
15561W        W83935  32.041  44.317   1.353
15562W        W83936  16.250   8.699  13.450
15563W        W83937  27.515   8.256  13.960
15564W        W83938  39.543  16.110  11.496
15565W        W83939  21.174   7.670  11.108
15566W        W83940  14.670  35.553   0.773
15567W        W83941   1.924  43.840   3.249
15568W        W83942  16.075  37.001   4.325
15569W        W83943   5.765  21.081  10.577
15570W        W83944  22.089  35.895  13.511
15571W        W83945  21.245  40.541   2.360
15572W        W83946  40.828  20.541   0.477
15573W        W83947   0.283  14.244  13.025
15574W        W83948   4.725  25.184   2.838
15575W        W83949  40.024  27.552   1.804
15576W        W83950  38.046  40.983   4.670
15577W        W83951  37.388  35.856  14.383
15578W        W83952  44.755  33.000  10.954
15579W        W83953  36.412  35.599   4.756
15580W        W83954  26.019  26.980  14.317
15581W        W83955  44.974  27.572  13.025
15582W        W83956  21.199  19.688  12.849
15583W        W83957  34.408  20.607  14.367
15584W        W83958  26.105  12.136   4.344
15585W        W83959  20.151   7.395   1.283
15586W        W83960  37.464   1.932  14.967
15587W        W83961  17.139  21.218  10.479
15588W        W83962  30.577  25.708  14.413
15589W        W83963  14.213  14.773  11.605
15590W        W83964  28.165  22.006  11.489
15591W        W83965  24.010  23.094  13.504
15592W        W83966  33.515   3.216  12.537
15593W        W83967  27.142  33.968   3.332
15594W        W83968  15.823  28.512   0.814
15595W        W83969  33.595   0.357  10.480
15596W        W83970  35.067   6.207   2.767
15597W        W83971  38.347  41.483  11.001
15598W        W83972  26.551  27.954  14.432
15599W        W83973   5.924  19.578   0.409
15600W        W83974  37.054  42.312   0.745
15601W        W83975  15.170  26.095  12.579
15602W        W83976  32.991  11.296  10.479
15603W        W83977   4.862  37.446  10.146
15604W        W83978  36.486  20.670  11.011
15605W        W83979  37.373   6.875  14.800
15606W        W83980  32.471  12.177  11.503
15607W        W83981   2.381   8.694   0.766
15608W        W83982  18.674  14.282  11.118
15609W        W83983  35.054   3.421   4.742
15610W        W83984  33.023   9.315   1.856
15611W        W83985   7.872  15.633   9.986
15612W        W83986   5.314  42.495   0.745
15613W        W83987   1.953   3.949   0.260
15614W        W83988   8.226  20.249  11.994
15615W        W83989   3.226  10.163   0.743
15616W        W83990  10.213  37.557   4.287
15617W        W83991  18.703  35.909  11.000
15618W        W83992  22.136   0.370   1.423
15619W        W83993  23.192  40.997  11.598
15620W        W83994  30.052  34.944  11.104
15621W        W83995   3.792  33.043   3.239
15622W        W83996  11.661  22.700   1.397
15623W        W83997   6.912  37.940   2.835
15624W        W83998  24.505  44.306  10.421
15625W        W83999   5.796  42.023  10.592
15626W        W84000  23.160  27.120  13.541
15627W        W84001  18.761   0.934   2.368
15628W        W84002   9.750  12.118   0.919
15629W        W84003  14.621  20.671   0.735
15630W        W84004  35.513   0.902   2.404
15631W        W84005  10.789  36.417  14.318
15632W        W84006  44.450  29.116  10.435
15633W        W84007   8.708  44.898   3.366
15634W        W84008  30.588   3.263  14.350
15635W        W84009  38.362  12.772  12.086
15636W        W84010   7.730  16.216   0.822
15637W        W84011   0.276  14.176   1.231
15638W        W84012  39.808   5.697  10.988
15639W        W84013  24.532  28.623   2.826
15640W        W84014  12.266  36.924  11.966
15641W        W84015  44.329  24.217   3.701
15642W        W84016  43.333   9.369   3.718
15643W        W84017  12.336  20.131  13.889
15644W        W84018  27.492  33.128   1.783
15645W        W84019  39.475   8.711  13.509
15646W        W84020  43.456  30.018   3.201
15647W        W84021  44.470  41.382  12.926
15648W        W84022  34.040  12.806   1.285
15649W        W84023   4.340   1.949  10.921
15650W        W84024  32.036  30.146  14.932
15651W        W84025  29.496  15.652  12.057
15652W        W84026  44.314  21.120  14.867
15653W        W84027  42.496   7.893   0.869
15654W        W84028  29.563  43.785   2.704
15655W        W84029  41.963  37.507  11.856
15656W        W84030  22.135  28.446   0.243
15657W        W84031  24.980  11.680  14.451
15658W        W84032  30.145  15.264  14.402
15659W        W84033  17.644  24.685  10.960
15660W        W84034  13.817  24.225  13.845
15661W        W84035   6.762  44.800  14.990
15662W        W84036  41.437  29.154   1.837
15663W        W84037  21.642   4.809   1.451
15664W        W84038  32.927  29.571   4.802
15665W        W84039  33.396   3.314  13.011
15666W        W84040  42.491  17.747   3.288
15667W        W84041   6.708  25.981  10.160
15668W        W84042   5.778  22.052  14.891
15669W        W84043  34.583  41.990  12.474
15670W        W84044  26.591  21.697  14.493
15671W        W84045  14.678  13.658   1.284
15672W        W84046   4.285  12.766   2.781
15673W        W84047  10.341  23.230  10.934
15674W        W84048  44.823  19.685   2.310
15675W        W84049  28.601  12.324  14.004
15676W        W84050  32.061   5.757  14.805
15677W        W84051  32.612   0.484   0.945
15678W        W84052  11.234  40.906  14.989
15679W        W84053  18.777  44.926   1.210
15680W        W84054  41.422  26.063  11.479
15681W        W84055   0.936  39.021  10.014
15682W        W84056  31.465  16.720  10.585
15683W        W84057  18.765  29.930   4.801
15684W        W84058  37.580  33.585   1.898
15685W        W84059  12.127  38.362  12.408
15686W        W84060  12.656  32.961  13.047
15687W        W84061  27.158  26.617  12.056
15688W        W84062   7.187  22.221  10.577
15689W        W84063  18.770   7.799  14.827
15690W        W84064  19.713  44.417   1.435
15691W        W84065  10.713  33.533   4.122
15692W        W84066  34.066  12.117  11.570
15693W        W84067  44.310  10.279   4.790
15694W        W84068  32.412  12.183  10.458
15695W        W84069  36.993  12.637   4.717
15696W        W84070   3.722  40.376  13.033
15697W        W84071  38.979  30.418  13.520
15698W        W84072   9.158  13.175  12.938
15699W        W84073  39.052  15.227   3.157
15700W        W84074  39.511  13.684   3.674
15701W        W84075  21.705   4.717   4.808
15702W        W84076  11.199  32.431  14.462
15703W        W84077  15.648  19.691   4.612
15704W        W84078  35.446  37.351   3.711
15705W        W84079   9.671  12.764   1.932
15706W        W84080  19.603  42.878   1.888
15707W        W84081  26.166  18.244  10.456
15708W        W84082  42.474  38.339   2.184
15709W        W84083  44.417  28.557  14.934
15710W        W84084  17.287  27.188  13.860
15711W        W84085  16.169  14.686   4.700
15712W        W84086  34.470  39.433  11.045
15713W        W84087  29.557   5.795  14.459
15714W        W84088  26.094  18.674   2.812
15715W        W84089   2.792  32.470   1.895
15716W        W84090   7.851   6.720   0.302
15717W        W84091  15.620  39.489  13.822
15718W        W84092   3.932  23.171   0.252
15719W        W84093  19.716  36.429   4.722
15720W        W84094  38.896  11.127   2.391
15721W        W84095  40.514  42.492   4.638
15722W        W84096  36.025  15.632  13.343
15723W        W84097  14.269  35.109   1.339
15724W        W84098   6.267  30.982  13.349
15725W        W84099   5.245   4.380   5.628
15726W        W84100  23.100  13.819   0.299
15727W        W84101   9.680   0.298   0.478
15728W        W84102  39.456  12.262   4.749
15729W        W84103  39.370   1.756   1.352
15730W        W84104  17.622   5.420  14.899
15731W        W84105  10.308   3.889   3.668
15732W        W84106  27.479   2.449  14.029
15733W        W84107  19.736  40.425  13.848
15734W        W84108  13.346  37.560   0.764
15735W        W84109  32.122  25.559   0.352
15736W        W84110  43.933  29.990  11.411
15737W        W84111  18.189  41.905  13.941
15738W        W84112  28.445   4.347  10.916
15739W        W84113  40.423  40.876  12.864
15740W        W84114  25.004  36.087   3.329
15741W        W84115  16.315  19.098   3.359
15742W        W84116   1.822  42.467  11.119
15743W        W84117  40.933  10.747  10.470
15744W        W84118   7.281  39.817  13.534
15745W        W84119  31.049  35.486  14.315
15746W        W84120  13.748  16.635  14.897
15747W        W84121  12.296  33.094  11.388
15748W        W84122  22.241  10.176   0.373
15749W        W84123  14.808  22.124  12.948
15750W        W84124  34.876  44.829   2.777
15751W        W84125  33.917  20.738  14.319
15752W        W84126  25.964   2.289  13.035
15753W        W84127  37.534  21.037   0.827
15754W        W84128  35.043  30.957   4.661
15755W        W84129  40.889  42.921  14.892
15756W        W84130   6.850   5.375  12.573
15757W        W84131  18.723  38.531  12.436
15758W        W84132   0.791   8.231  10.607
15759W        W84133  28.631  39.428  12.525
15760W        W84134   1.474  21.515   0.437
15761W        W84135  14.758  13.649  12.059
15762W        W84136  34.465   3.383  11.386
15763W        W84137  28.518  20.696   1.850
15764W        W84138  14.699  37.363   1.220
15765W        W84139   0.410  43.453   2.283
15766W        W84140  27.461  20.041  11.429
15767W        W84141  35.507   2.740   3.258
15768W        W84142   2.338  32.556  12.094
15769W        W84143  42.520  22.036   2.762
15770W        W84144  10.265   4.902   4.645
15771W        W84145  25.087  16.239   1.768
15772W        W84146  17.651  44.002  11.574
15773W        W84147  20.759   4.271   0.814
15774W        W84148  31.412  11.229  11.499
15775W        W84149  14.260  25.999   4.695
15776W        W84150   7.884  34.543  12.507
15777W        W84151  24.691   8.224   2.704
15778W        W84152   0.431  17.065  13.420
15779W        W84153   4.329  20.035  12.517
15780W        W84154  37.541   8.755  13.036
15781W        W84155  37.047  27.654   1.404
15782W        W84156  23.078  36.481   0.315
15783W        W84157   1.814  43.974  14.298
15784W        W84158  14.732   8.311  13.943
15785W        W84159  43.841   4.911  13.879
15786W        W84160  18.138  37.408  10.017
15787W        W84161  11.848  12.321  10.546
15788W        W84162  23.061  39.016  11.595
15789W        W84163   6.340  31.556  13.511
15790W        W84164  40.965   8.826  10.427
15791W        W84165  30.580  40.310  12.831
15792W        W84166  28.170   1.411  14.276
15793W        W84167  19.247  12.137  11.569
15794W        W84168  44.894  43.872  13.879
15795W        W84169  35.084  34.545  14.515
15796W        W84170  16.708  26.110   3.720
15797W        W84171  21.204   9.661   2.731
15798W        W84172   8.329  16.766  13.543
15799W        W84173  12.339  18.738  14.850
15800W        W84174  34.416   0.754  12.873
15801W        W84175   3.905  18.103   0.921
15802W        W84176  24.633  33.535   0.963
15803W        W84177  17.217  30.630   3.210
15804W        W84178   0.349  26.649  11.476
15805W        W84179  32.621  19.594   3.806
15806W        W84180  16.166  22.536   4.825
15807W        W84181  17.581   8.263  12.477
15808W        W84182   1.399  12.770   2.344
15809W        W84183  11.332  42.843  13.827
15810W        W84184  40.933  39.950   3.296
15811W        W84185  35.054  23.069   1.914
15812W        W84186  18.559  19.777   2.267
15813W        W84187  44.005  39.002  13.435
15814W        W84188  33.987   9.814  10.521
15815W        W84189   0.914  42.888  13.818
15816W        W84190  18.057  24.584   2.408
15817W        W84191  42.913  16.813   3.677
15818W        W84192  41.458  43.514  14.838
15819W        W84193  18.725   9.197   0.911
15820W        W84194  36.965  10.310   4.658
15821W        W84195  39.045  39.953   0.352
15822W        W84196  11.716   3.921   3.210
15823W        W84197  31.976  34.524  13.030
15824W        W84198  31.567  16.622   3.306
15825W        W84199  32.972  26.605  14.302
15826W        W84200  20.754   0.979  13.968
15827W        W84201  29.552  34.976   2.411
15828W        W84202  42.521  35.359   3.246
15829W        W84203  29.436  27.064  12.829
15830W        W84204  11.773  40.460   2.347
15831W        W84205   9.789  23.058  12.889
15832W        W84206  18.286  37.505  14.336
15833W        W84207   9.722  43.933  14.331
15834W        W84208  22.684   6.368   4.156
15835W        W84209  13.110   5.737   1.424
15836W        W84210  27.997  36.073   1.894
15837W        W84211  44.487  26.541  11.611
15838W        W84212  28.087  11.635  14.306
15839W        W84213  15.637  29.022   3.754
15840W        W84214  12.727   8.692  13.507
15841W        W84215  21.189  10.342   1.236
15842W        W84216   4.267  29.123   4.813
15843W        W84217  28.481  33.385  14.887
15844W        W84218   8.673  33.504   4.226
15845W        W84219  23.052  13.252   0.474
15846W        W84220  36.875  20.130   1.248
15847W        W84221   3.847   8.379   3.673
15848W        W84222  34.448  33.399  14.011
15849W        W84223   2.785  28.108  12.526
15850W        W84224  31.534   9.265  12.942
15851W        W84225  35.515  21.175   2.704
15852W        W84226  24.114  34.372   2.736
15853W        W84227  31.896  35.444   3.655
15854W        W84228  40.016  12.192  12.848
15855W        W84229   5.805  22.714  14.029
15856W        W84230  17.730  26.577  11.533
15857W        W84231  32.505  39.386   0.272
15858W        W84232  30.127   0.252  12.058
15859W        W84233  31.424  26.550  12.382
15860W        W84234  23.103  22.113   4.720
15861W        W84235  12.813  44.505   2.895
15862W        W84236   4.885  25.660   0.300
15863W        W84237  21.039   6.807  13.958
15864W        W84238  38.880  29.168  12.486
15865W        W84239  31.917   4.891  13.460
15866W        W84240  42.793   0.352  12.499
15867W        W84241   7.264  21.158   0.912
15868W        W84242  20.065   1.358   4.212
15869W        W84243  16.164  20.596   3.271
15870W        W84244  28.049  24.713  14.019
15871W        W84245  16.639  33.954  14.419
15872W        W84246   4.738  11.681   4.731
15873W        W84247  12.187   1.344  12.527
15874W        W84248  17.678  36.878  11.106
15875W        W84249  27.648  34.375  14.508
15876W        W84250  40.009  18.149   3.837
15877W        W84251  12.692  41.400   4.353
15878W        W84252  23.218  18.594   4.800
15879W        W84253  38.489  21.075   2.236
15880W        W84254  24.535  15.581   4.256
15881W        W84255  33.470  36.919  13.037
15882W        W84256  39.854  41.411   3.371
15883W        W84257  17.105  31.579  10.566
15884W        W84258  36.953  30.996  13.030
15885W        W84259  16.659  29.104   2.747
15886W        W84260  39.448  42.399  13.054
15887W        W84261  18.266  16.128  11.524
15888W        W84262  24.489   4.313  12.452
15889W        W84263   5.354  25.638   1.274
15890W        W84264   0.753  15.317   3.762
15891W        W84265  32.074  10.646  11.500
15892W        W84266  33.612   6.749   0.343
15893W        W84267  19.711  11.368   0.411
15894W        W84268  44.777   4.369  12.075
15895W        W84269   0.939   0.981  12.410
15896W        W84270  34.395   4.816  10.472
15897W        W84271   0.400  29.491   0.913
15898W        W84272  19.579  39.487   2.823
15899W        W84273  42.842  17.733   0.835
15900W        W84274  16.148  10.766  14.931
15901W        W84275   1.314  38.982   0.383
15902W        W84276  32.037  41.873  14.447
15903W        W84277  40.329  37.044   4.224
15904W        W84278   8.758   0.344   0.314
15905W        W84279   1.744  20.216  14.848
15906W        W84280  34.410   4.400  10.914
15907W        W84281  11.711   4.734  13.883
15908W        W84282   4.821  24.664   1.344
15909W        W84283  26.458  33.000   1.411
15910W        W84284  28.933   6.284   1.241
15911W        W84285  14.319   5.910   0.248
15912W        W84286  44.913  39.893   4.131
15913W        W84287  14.721  29.608  13.483
15914W        W84288  15.099  35.024   0.779
15915W        W84289  41.893  21.206  12.555
15916W        W84290  15.284  14.814  13.410
15917W        W84291   4.884  27.948   3.240
15918W        W84292  35.381  30.043  12.569
15919W        W84293   6.367  33.620   4.147
15920W        W84294   6.745  41.519  13.444
15921W        W84295  21.243  36.941   4.227
15922W        W84296  43.402   6.822   1.754
15923W        W84297  28.622  23.024  11.918
15924W        W84298  32.965  14.219  14.861
15925W        W84299  19.265   6.762   2.358
15926W        W84300   2.820  42.323  12.985
15927W        W84301  23.641  22.139  12.391
15928W        W84302  38.505  36.095  14.763
15929W        W84303  11.623  20.095  11.013
15930W        W84304  44.844  10.722   3.825
15931W        W84305   5.717  13.687   3.757
15932W        W84306   2.276  18.634  12.422
15933W        W84307  23.502  18.557  12.487
15934W        W84308  35.965  26.613   0.824
15935W        W84309  15.298   0.759   1.922
15936W        W84310   2.428  15.273  14.477
15937W        W84311  24.197  11.127  14.447
15938W        W84312  44.770  11.676  13.887
15939W        W84313  40.364  12.272  14.870
15940W        W84314  41.788  36.387   0.252
15941W        W84315  43.848  39.319   4.138
15942W        W84316  22.056   1.386  11.537
15943W        W84317   7.867   9.775  10.497
15944W        W84318   1.303  11.633  13.915
15945W        W84319   0.365  32.003  14.847
15946W        W84320  42.325  39.043  12.570
15947W        W84321  10.672  23.129   3.299
15948W        W84322  27.586  29.667  12.855
15949W        W84323  40.998  31.519  11.044
15950W        W84324   6.306  11.718  11.000
15951W        W84325  19.103  33.530   0.372
15952W        W84326  38.951   8.350   4.658
15953W        W84327   2.466  22.639  10.485
15954W        W84328   3.334  18.776   0.431
15955W        W84329  16.292  36.070  13.030
15956W        W84330  29.504  27.114   3.300
15957W        W84331  10.711  43.776   0.460
15958W        W84332  31.587   6.688  10.452
15959W        W84333  20.744  34.035   3.680
15960W        W84334   5.924  21.091   1.806
15961W        W84335  28.670  30.647   3.335
15962W        W84336  37.948  23.029  14.993
15963W        W84337  29.085  29.124  13.943
15964W        W84338  11.644  19.113   0.344
15965W        W84339   9.864  11.753  13.914
15966W        W84340  33.048  32.417  14.814
15967W        W84341  26.194  11.738   0.868
15968W        W84342  30.492  40.955  10.408
15969W        W84343  27.688  17.162   3.681
15970W        W84344  10.788  25.512   4.647
15971W        W84345  43.322  37.049   4.625
15972W        W84346  32.971  18.282   0.794
15973W        W84347  38.471  35.015  12.008
15974W        W84348  31.545  24.582  11.438
15975W        W84349  15.242  24.034  10.642
15976W        W84350  27.975  35.874   2.738
15977W        W84351  26.558  34.488  14.799
15978W        W84352   8.196  37.528  14.900
15979W        W84353  42.787  24.519   1.838
15980W        W84354  36.368  44.855  10.434
15981W        W84355  14.774  27.579   2.723
15982W        W84356   0.843   9.182  12.017
15983W        W84357  13.268  38.835   1.345
15984W        W84358   6.751  14.677   1.388
15985W        W84359  38.934   3.925  11.506
15986W        W84360  37.997  26.073   4.118
15987W        W84361  18.592   2.406   2.366
15988W        W84362  10.238  14.304   4.329
15989W        W84363  12.313  17.126   2.356
15990W        W84364   3.309  18.189   3.234
15991W        W84365   1.332  10.676   1.271
15992W        W84366  27.508  19.737  12.040
15993W        W84367  20.155  31.043  13.057
15994W        W84368  19.203  29.002   3.826
15995W        W84369  12.118   4.933  11.906
15996W        W84370  40.425  39.528  11.055
15997W        W84371  27.597  14.102   4.759
15998W        W84372   1.917   6.879   2.369
15999W        W84373  38.331  21.239  10.495
16000W        W84374  40.052  10.249   2.882
16001W        W84375   3.252  10.877  10.491
16002W        W84376  15.287   4.880   1.828
16003W        W84377   0.979  35.417  13.064
16004W        W84378  31.454  12.300   3.316
16005W        W84379  16.568   3.343   4.321
16006W        W84380   4.787  43.413   3.632
16007W        W84381  31.046  44.490   4.306
16008W        W84382  10.716  18.151  10.413
16009W        W84383  36.357   3.738  13.470
16010W        W84384   7.748   7.871  13.886
16011W        W84385  38.507  43.481  14.428
16012W        W84386   9.352   5.317  13.479
16013W        W84387  16.152  15.132   2.412
16014W        W84388  40.947  26.644   3.385
16015W        W84389   9.293  29.506   0.964
16016W        W84390  28.505  34.474  12.923
16017W        W84391  27.446  31.040  11.499
16018W        W84392  14.329  10.328   3.835
16019W        W84393  16.210  41.954  13.324
16020W        W84394  22.657  13.776   0.380
16021W        W84395  35.867  17.224   2.209
16022W        W84396  18.611  18.722  12.023
16023W        W84397  31.605  24.083   1.833
16024W        W84398   2.259  17.169   4.213
16025W        W84399  42.825  26.660   0.400
16026W        W84400   8.302   4.912   1.418
16027W        W84401  25.618  40.358  11.513
16028W        W84402   1.731  27.017  14.427
16029W        W84403  24.697   5.838  14.776
16030W        W84404  20.128  30.654   4.289
16031W        W84405  39.407  26.145   3.818
16032W        W84406  30.149   5.879   3.632
16033W        W84407  19.571  33.949  12.933
16034W        W84408   2.339  30.539  12.019
16035W        W84409  18.248  30.917  13.865
16036W        W84410  14.310  34.419  12.074
16037W        W84411   1.481   5.824  13.906
16038W        W84412  30.496   3.936  14.443
16039W        W84413  26.085   8.774  11.016
16040W        W84414  34.489  26.004   1.372
16041W        W84415  11.151   6.214  11.011
16042W        W84416  22.514  36.894   0.865
16043W        W84417   4.276  16.681   0.266
16044W        W84418  15.117  18.762  13.810
16045W        W84419  30.573  39.511  12.501
16046W        W84420   2.961  44.887   2.314
16047W        W84421  33.382  14.714  10.598
16048W        W84422   7.893  18.263   1.701
16049W        W84423  13.294  13.768  14.874
16050W        W84424  19.759  42.413  14.276
16051W        W84425  36.379  28.498   2.404
16052W        W84426  43.422   1.361   3.217
16053W        W84427  35.493  23.630   1.825
16054W        W84428  30.519   1.281   1.762
16055W        W84429  22.190   5.261  12.538
16056W        W84430  23.685  14.723   4.241
16057W        W84431  34.472  25.022  13.308
16058W        W84432  14.637  28.647   2.387
16059W        W84433  28.484  35.484  13.921
16060W        W84434  22.177  24.480   1.780
16061W        W84435   0.802  18.789  11.040
16062W        W84436  32.951  32.441   4.258
16063W        W84437  35.500  17.076  13.332
16064W        W84438  37.535  25.134  13.875
16065W        W84439  13.120   6.325  12.839
16066W        W84440  11.677  19.239  12.943
16067W        W84441  34.507   4.293   4.207
16068W        W84442  27.639  40.507  11.129
16069W        W84443  15.630  25.045   4.790
16070W        W84444  30.123   6.823   2.760
16071W        W84445  20.616  40.324  11.103
16072W        W84446  25.660  34.889  11.869
16073W        W84447  25.713   1.915   0.476
16074W        W84448  27.649   6.792  14.827
16075W        W84449  16.138  39.364   2.768
16076W        W84450  41.396  19.100   3.178
16077W        W84451  26.528  21.225   3.220
16078W        W84452   5.433  34.867  13.523
16079W        W84453  43.481  30.557   0.389
16080W        W84454   0.781  12.615  13.547
16081W        W84455   3.339   2.365   0.732
16082W        W84456  10.377   6.815  14.771
16083W        W84457  39.020  41.924  12.539
16084W        W84458  33.899   3.239  11.115
16085W        W84459  14.115  35.468  13.350
16086W        W84460   7.782  18.575   4.331
16087W        W84461  39.961  23.589   4.681
16088W        W84462  33.413  36.449  11.393
16089W        W84463  31.602  22.579  11.402
16090W        W84464  33.112  22.691   2.670
16091W        W84465  32.089  42.789  11.375
16092W        W84466   8.850  36.480   1.841
16093W        W84467   6.789   2.962  11.881
16094W        W84468   7.671   9.696   3.830
16095W        W84469  19.272  11.351   4.223
16096W        W84470  26.599   2.339   0.752
16097W        W84471  14.789   4.289  14.482
16098W        W84472  22.574  40.450   1.237
16099W        W84473  18.751   2.791   0.868
16100W        W84474  15.086  33.444  13.855
16101W        W84475   2.823  20.170   3.741
16102W        W84476   0.269  32.464  10.450
16103W        W84477   9.152  32.451   2.732
16104W        W84478   7.808  40.446   1.290
16105W        W84479  28.676   5.792  11.913
16106W        W84480  10.137  17.598  12.059
16107W        W84481  21.612  40.525  11.855
16108W        W84482  12.245  36.498   2.323
16109W        W84483  34.483  40.421  10.639
16110W        W84484  15.201  35.418  10.497
16111W        W84485  16.207  42.405   2.212
16112W        W84486  31.016  23.512   5.228
16113W        W84487   0.961  22.054   3.748
16114W        W84488   0.979  20.245   4.122
16115W        W84489  17.604  13.670  12.825
16116W        W84490  44.477   0.467  12.462
16117W        W84491   3.276  16.168   1.265
16118W        W84492  28.065  39.866  13.835
16119W        W84493  23.701  39.555  13.401
16120W        W84494  35.885  12.620  12.412
16121W        W84495   5.330  34.586   2.887
16122W        W84496  23.627  15.084   2.821
16123W        W84497   6.772  27.658  12.539
16124W        W84498  10.701  25.091   1.347
16125W        W84499  12.795  37.510   1.844
16126W        W84500  35.950  26.966   2.307
16127W        W84501  12.314  15.219   0.257
16128W        W84502  23.020  15.768   9.969
16129W        W84503  17.115   2.444  11.528
16130W        W84504  37.084   1.468   3.346
16131W        W84505  30.006   3.312  10.559
16132W        W84506  11.321  26.987   3.788
16133W        W84507  22.529  19.682   2.722
16134W        W84508  41.404  24.607  13.382
16135W        W84509  10.150  14.809   3.306
16136W        W84510  28.170  21.082  10.609
16137W        W84511   0.987  15.246   0.758
16138W        W84512  18.734   8.213  14.973
16139W        W84513   1.375  36.539  12.096
16140W        W84514  21.601   5.809  10.584
16141W        W84515  26.018   1.339   1.419
16142W        W84516  35.590   4.745  14.493
16143W        W84517  37.505  38.047  13.432
16144W        W84518  43.328  27.008  11.431
16145W        W84519   2.745  21.539   3.696
16146W        W84520  20.717  36.428  12.395
16147W        W84521  19.160  32.452  10.439
16148W        W84522  30.582   2.288  13.348
16149W        W84523  15.328  32.470   0.318
16150W        W84524  17.303  24.701  12.957
16151W        W84525   7.743  40.503  11.914
16152W        W84526  16.593  14.268   4.797
16153W        W84527  37.423  35.430   0.250
16154W        W84528   7.801  42.905  11.107
16155W        W84529  36.419  44.838  13.489
16156W        W84530   4.899  18.547  13.406
16157W        W84531  17.723  14.633   1.266
16158W        W84532  39.994  37.953  14.394
16159W        W84533   3.950   4.792   3.773
16160W        W84534  19.273  25.676  11.449
16161W        W84535  42.795  29.427  14.765
16162W        W84536  40.534  21.656  10.956
16163W        W84537  34.112   2.889  10.624
16164W        W84538  25.980   4.903   1.320
16165W        W84539  33.075  31.425  12.976
16166W        W84540  32.111  37.834   3.798
16167W        W84541  35.530  18.195  11.380
16168W        W84542  21.154   0.394   2.725
16169W        W84543  11.643  20.214  13.434
16170W        W84544   0.397  34.107   4.720
16171W        W84545  25.006  25.126  12.940
16172W        W84546  28.065  44.413  10.952
16173W        W84547   7.303   7.898   0.939
16174W        W84548   0.273  11.661   1.834
16175W        W84549  19.570   3.322   3.775
16176W        W84550  12.828   5.265   0.831
16177W        W84551  23.672  15.175  14.015
16178W        W84552  19.571  24.554  13.477
16179W        W84553   4.343   1.791  11.412
16180W        W84554   2.440   0.453   1.851
16181W        W84555   7.356  30.118   1.781
16182W        W84556  40.336   5.424   3.807
16183W        W84557   1.839  42.352   2.259
16184W        W84558  10.734  37.434  14.316
16185W        W84559   4.760  38.918   3.310
16186W        W84560  28.967  12.744   4.288
16187W        W84561  31.476  24.105   2.367
16188W        W84562  12.699  18.221   4.622
16189W        W84563  20.149  21.196  12.855
16190W        W84564  16.790  29.512  13.062
16191W        W84565  38.539  26.204  13.496
16192W        W84566   9.228   9.886   1.745
16193W        W84567  33.919   1.978  11.567
16194W        W84568  31.495  24.016   1.360
16195W        W84569  30.977  33.933  13.488
16196W        W84570   0.439  38.055  14.903
16197W        W84571  22.230  40.323  11.531
16198W        W84572  44.296  37.877  11.547
16199W        W84573  11.301  23.538   3.629
16200W        W84574  28.978  39.944   0.816
16201W        W84575  20.702  32.558  11.535
16202W        W84576   5.916  19.563   0.789
16203W        W84577   2.738  29.141   2.266
16204W        W84578   3.742  24.667   4.335
16205W        W84579  21.648  17.090  11.041
16206W        W84580   7.274  27.126  13.919
16207W        W84581  10.198  44.009   0.439
16208W        W84582  32.503  17.797   3.163
16209W        W84583   1.832  32.635   2.805
16210W        W84584  15.618  17.763   2.388
16211W        W84585  27.473   3.720  11.377
16212W        W84586  26.145  23.650  14.317
16213W        W84587   8.805  36.366  14.300
16214W        W84588  18.176  28.065   1.450
16215W        W84589  16.573   5.295  13.975
16216W        W84590  35.994   5.769  11.414
16217W        W84591  20.112  12.849  13.983
16218W        W84592  19.177  31.533   0.269
16219W        W84593   8.329  21.201   0.780
16220W        W84594  25.607  24.693   1.785
16221W        W84595  34.896   8.752  10.080
16222W        W84596  16.665  38.902   2.697
16223W        W84597  39.458  41.789   0.350
16224W        W84598   8.351  12.322  11.972
16225W        W84599   8.772   3.249  13.920
16226W        W84600  39.429  35.023  14.459
16227W        W84601  31.125   8.866   0.247
16228W        W84602  34.410   4.748  14.339
16229W        W84603  25.650  22.635  10.036
16230W        W84604  25.528  43.384  11.563
16231W        W84605  24.723   1.831  14.449
16232W        W84606  33.463  30.485  10.947
16233W        W84607  37.567  16.609   0.431
16234W        W84608  30.907  28.044   2.346
16235W        W84609  34.373  35.924  12.016
16236W        W84610  43.803  11.130   2.267
16237W        W84611  24.559  12.719   3.808
16238W        W84612   4.834  14.810  10.569
16239W        W84613  26.994  36.396   1.332
16240W        W84614   3.952  35.461   1.381
16241W        W84615   9.790  23.173   2.750
16242W        W84616  24.489  13.206   3.648
16243W        W84617  10.353  13.756  12.549
16244W        W84618  19.577   0.486  14.952
16245W        W84619  35.532   5.719   4.114
16246W        W84620  18.776  34.400  12.544
16247W        W84621  34.484  16.767  12.424
16248W        W84622  42.470  39.432  11.062
16249W        W84623  19.540  38.536   1.229
16250W        W84624  21.520  43.457   1.318
16251W        W84625  22.518  19.084  12.061
16252W        W84626  13.181  33.385   3.853
16253W        W84627  11.867   0.419  12.467
16254W        W84628  33.551   8.369  10.421
16255W        W84629  30.522   2.811   0.423
16256W        W84630  39.922  31.978   2.709
16257W        W84631  13.651  40.449   3.376
16258W        W84632   6.227  37.838   3.840
16259W        W84633  44.783  34.554   4.341
16260W        W84634  41.408   1.331   3.673
16261W        W84635  18.738  22.011  11.415
16262W        W84636  35.031  44.348   1.447
16263W        W84637  37.971  18.174  11.497
16264W        W84638  13.140  35.015  14.977
16265W        W84639   2.354   2.325   0.963
16266W        W84640  26.524  28.523   4.777
16267W        W84641  28.653  24.542   0.408
16268W        W84642  23.065  23.605   4.323
16269W        W84643  39.982  31.963  13.310
16270W        W84644   0.264  29.149  14.285
16271W        W84645  39.002  39.842   3.645
16272W        W84646  17.168  30.149  12.510
16273W        W84647  13.694  37.504   4.143
16274W        W84648   6.777   4.269   4.189
16275W        W84649  25.192  27.563   3.222
16276W        W84650  25.550  43.298  14.344
16277W        W84651   4.816  21.537  12.384
16278W        W84652  27.091  42.830   5.245
16279W        W84653  43.502   2.270  12.433
16280W        W84654   5.905  43.852   4.746
16281W        W84655  13.602   4.726  11.504
16282W        W84656  25.129  16.308  11.428
16283W        W84657  34.979  33.437   2.682
16284W        W84658  42.308   3.721  11.092
16285W        W84659  14.753  16.247  10.438
16286W        W84660  38.031   6.837  14.768
16287W        W84661  15.196  23.623  13.386
16288W        W84662  28.125  17.652  14.771
16289W        W84663  16.145  26.973   0.840
16290W        W84664  40.411  39.482   4.627
16291W        W84665  20.602  44.868   2.189
16292W        W84666  41.925  32.465  14.388
16293W        W84667  31.922   8.342   0.812
16294W        W84668  39.443  19.616  13.444
16295W        W84669  12.137  39.451  12.851
16296W        W84670  25.184  23.196   1.780
16297W        W84671  24.033   8.785  14.311
16298W        W84672  12.749  20.045  14.002
16299W        W84673  25.038  29.457  13.374
16300W        W84674  41.910  44.984  14.420
16301W        W84675   2.430   1.275  14.764
16302W        W84676  43.830  34.596  11.863
16303W        W84677  35.423  32.485  11.900
16304W        W84678  32.475  21.753   4.205
16305W        W84679   5.261  27.000  12.842
16306W        W84680  27.521  33.047  11.570
16307W        W84681   5.412  26.685   2.762
16308W        W84682   4.885  39.379  14.829
16309W        W84683  31.460  11.156  14.955
16310W        W84684   8.331  41.339   0.363
16311W        W84685  25.197  43.372   0.852
16312W        W84686  26.013   3.220   4.226
16313W        W84687  16.261  37.501  12.344
16314W        W84688  38.403  43.773   4.246
16315W        W84689   8.819  33.069  14.306
16316W        W84690   6.401   8.816   2.189
16317W        W84691   5.690  36.989  11.440
16318W        W84692  42.949  27.664  10.561
16319W        W84693  40.989  32.102   0.919
16320W        W84694  21.531  16.231   1.391
16321W        W84695  41.318   3.923   2.800
16322W        W84696   1.411  23.044  10.595
16323W        W84697  32.078  23.127   1.317
16324W        W84698  36.060  19.147  14.295
16325W        W84699  39.349  37.456   3.321
16326W        W84700  23.201  20.193   4.803
16327W        W84701  42.836  26.025   1.261
16328W        W84702   1.877   1.913   1.770
16329W        W84703  20.745  15.270   2.405
16330W        W84704  15.242   4.941  14.434
16331W        W84705  42.021  43.346  13.955
16332W        W84706   5.265  32.544   0.399
16333W        W84707   1.461  28.442   4.624
16334W        W84708   1.297  35.519  13.838
16335W        W84709   8.361  25.501   4.654
16336W        W84710  24.517  23.680  14.295
16337W        W84711  34.932  39.470  14.987
16338W        W84712   9.363  21.635   5.748
16339W        W84713  44.457  39.859  10.571
16340W        W84714   3.754  29.946  12.859
16341W        W84715  21.165  37.046   3.256
16342W        W84716  40.938  40.541   1.929
16343W        W84717   2.950  25.174  13.911
16344W        W84718   0.268   0.493  11.055
16345W        W84719  43.827   8.278  12.379
16346W        W84720  16.796   8.382  13.911
16347W        W84721  25.216  25.138   4.753
16348W        W84722  30.422   1.925   4.333
16349W        W84723  13.774  38.469   3.171
16350W        W84724   5.238  42.008  13.004
16351W        W84725  39.955  30.026  13.307
16352W        W84726  20.608  29.984  13.336
16353W        W84727  13.667  26.042   0.278
16354W        W84728   5.219  31.587   0.800
16355W        W84729  10.288  20.723   0.885
16356W        W84730   4.393  17.238   0.299
16357W        W84731  39.377  11.141  13.048
16358W        W84732  33.996  17.799   1.754
16359W        W84733  28.957  40.837   1.832
16360W        W84734  14.759  43.933  12.544
16361W        W84735  38.387  11.258   3.700
16362W        W84736  38.499  40.027  12.996
16363W        W84737  28.102   7.687  12.021
16364W        W84738   4.284  21.631   4.738
16365W        W84739  32.572  37.040  12.047
16366W        W84740   9.679  17.792   3.214
16367W        W84741  12.185  26.671  14.759
16368W        W84742  17.780  21.712   2.894
16369W        W84743   9.366  38.887  10.924
16370W        W84744   9.759   2.761   1.323
16371W        W84745  30.101  37.936  14.420
16372W        W84746  22.091   3.414   4.838
16373W        W84747  35.535  29.144  14.857
16374W        W84748  42.452   1.820  10.480
16375W        W84749   0.415  13.214   1.284
16376W        W84750  35.081  26.594  14.978
16377W        W84751   0.910  29.928   0.934
16378W        W84752  35.560  31.416   2.406
16379W        W84753  30.447  23.028  12.002
16380W        W84754  19.090  14.311  14.497
16381W        W84755  20.582  32.910  12.537
16382W        W84756  30.641  43.281   4.276
16383W        W84757  11.205  32.478  11.404
16384W        W84758  13.841  28.996   4.318
16385W        W84759  12.733  31.459   4.677
16386W        W84760  39.437  37.486   2.899
16387W        W84761   2.948   4.876  12.547
16388W        W84762   9.277   4.920   3.180
16389W        W84763  37.452  42.936   3.631
16390W        W84764  23.531  42.952  14.944
16391W        W84765  12.748  40.035  11.474
16392W        W84766   5.310  32.432  12.445
16393W        W84767  44.922  30.060   2.795
16394W        W84768  21.608   3.291  13.810
16395W        W84769  20.140   3.451  12.388
16396W        W84770  26.161  18.575   4.649
16397W        W84771   1.848  36.016   4.326
16398W        W84772   1.449  30.104   2.335
16399W        W84773  25.670  30.026   4.597
16400W        W84774   8.371  23.705   3.173
16401W        W84775  18.544   4.316  11.429
16402W        W84776  27.973  22.113   0.929
16403W        W84777   9.319  14.725   0.764
16404W        W84778  31.034  19.105  11.109
16405W        W84779  38.563  13.164  11.591
16406W        W84780  16.279  24.166  11.012
16407W        W84781  43.962  40.819  12.517
16408W        W84782  27.583  31.153  10.945
16409W        W84783  29.541  28.655  13.340
16410W        W84784  23.063   4.354  14.802
16411W        W84785   9.315  38.884  11.581
16412W        W84786  42.344  44.968   0.329
16413W        W84787  31.479   5.370  11.608
16414W        W84788   4.787  24.064   2.784
16415W        W84789   6.892  41.018  14.323
16416W        W84790  42.777  14.260   0.758
16417W        W84791  40.418  17.785   3.159
16418W        W84792  42.848   4.793   9.949
16419W        W84793  13.203  40.365   3.832
16420W        W84794  17.199  25.971   2.853
16421W        W84795  27.057  12.244  14.011
16422W        W84796  37.870  33.448   4.301
16423W        W84797  19.621  10.379   2.353
16424W        W84798  32.534  37.929   1.753
16425W        W84799   3.850   9.649  11.440
16426W        W84800  36.383   1.954  13.467
16427W        W84801  21.672   1.975  13.059
16428W        W84802  32.491   3.223  11.557
16429W        W84803  27.506  28.051  10.977
16430W        W84804  35.015  25.500  12.974
16431W        W84805  17.730  42.822   2.277
16432W        W84806   1.417  10.674   2.844
16433W        W84807  12.205  30.496  10.924
16434W        W84808  28.187  22.586   0.789
16435W        W84809  25.643  13.662   2.841
16436W        W84810  13.106   1.370  13.361
16437W        W84811  37.840  18.754  14.760
16438W        W84812  44.344  20.271  14.400
16439W        W84813   0.918  26.540   4.245
16440W        W84814  11.254  16.656   4.781
16441W        W84815  37.494   5.900   1.858
16442W        W84816   1.911   1.860   4.800
16443W        W84817   5.333  11.220  13.318
16444W        W84818  12.715   3.783  13.428
16445W        W84819  40.302  21.018   2.899
16446W        W84820  38.886  29.167   0.817
16447W        W84821  38.477  18.099  14.903
16448W        W84822  37.553  15.722   2.303
16449W        W84823  19.604  43.284  12.884
16450W        W84824  36.402   6.293  12.539
16451W        W84825  35.082  10.678  13.499
16452W        W84826  40.379  23.012  12.537
16453W        W84827  42.862  27.982  13.378
16454W        W84828  26.591  30.929  14.399
16455W        W84829  10.744  21.264  12.369
16456W        W84830  39.056  37.380   0.470
16457W        W84831  26.499  25.974  10.635
16458W        W84832  38.982  21.171  10.894
16459W        W84833  44.307  35.564   2.340
16460W        W84834  35.086  16.689   3.742
16461W        W84835  29.579  23.599   1.865
16462W        W84836  12.282  31.594  10.458
16463W        W84837  26.462  26.196   2.691
16464W        W84838   1.437   4.837  12.989
16465W        W84839  19.184  16.707   4.255
16466W        W84840   9.805  32.509   1.343
16467W        W84841  24.686  37.953   2.797
16468W        W84842   0.805  25.565   2.291
16469W        W84843   5.828   2.959  14.773
16470W        W84844   5.426  23.599   4.344
16471W        W84845  27.541  43.311   0.943
16472W        W84846  20.705  25.213   4.333
16473W        W84847  22.067   2.294   4.308
16474W        W84848  31.903  24.491  13.517
16475W        W84849   0.765  41.030   0.805
16476W        W84850   9.276  16.247   3.181
16477W        W84851  44.298  29.581  11.861
16478W        W84852  32.137   9.300   1.902
16479W        W84853  41.866   8.200  10.951
16480W        W84854  19.202  16.700   0.477
16481W        W84855  38.425   3.243   0.382
16482W        W84856  39.927  11.845   3.178
16483W        W84857   2.432  42.319  12.920
16484W        W84858  13.131  30.588  13.913
16485W        W84859   1.438  36.079  12.397
16486W        W84860  44.840  44.004   1.808
16487W        W84861   8.664  17.770   1.357
16488W        W84862  23.686  34.894   0.764
16489W        W84863   4.402  31.596  11.565
16490W        W84864  33.561  35.882  12.071
16491W        W84865  20.558  10.641   3.301
16492W        W84866  14.672  28.589  12.559
16493W        W84867  41.486  24.152   4.350
16494W        W84868  12.280  17.767   2.398
16495W        W84869  33.560  33.594   3.216
16496W        W84870  42.310  31.002  14.929
16497W        W84871   1.908  11.847  11.604
16498W        W84872  39.817   1.272   3.629
16499W        W84873  22.042  19.226  11.091
16500W        W84874  28.619  40.989   4.176
16501W        W84875  26.559  34.401   2.762
16502W        W84876  34.942  11.843   5.264
16503W        W84877  42.507  13.113  10.463
16504W        W84878  40.498  37.025  10.551
16505W        W84879  25.176  13.717  14.946
16506W        W84880  22.578  26.522   3.801
16507W        W84881  18.657  24.592   4.618
16508W        W84882  16.167  14.794  13.863
16509W        W84883  16.771  40.443  12.495
16510W        W84884  42.977   2.775  10.454
16511W        W84885  35.007  19.184  12.511
16512W        W84886  12.678  19.285   1.740
16513W        W84887  25.596  42.948   0.934
16514W        W84888  11.686   4.909   0.422
16515W        W84889  44.458  44.905  12.838
16516W        W84890  36.545  11.805  12.031
16517W        W84891  30.933   1.891   2.711
16518W        W84892  13.696  35.873  12.547
16519W        W84893  26.092  13.670   4.722
16520W        W84894  25.197  22.016  13.540
16521W        W84895  25.026  29.139  10.416
16522W        W84896  28.118  27.026   1.374
16523W        W84897   7.695  14.192  11.866
16524W        W84898  39.949  20.698  12.993
16525W        W84899  34.995  33.620   1.696
16526W        W84900  25.554   2.933  14.820
16527W        W84901  35.889  42.471   4.138
16528W        W84902   1.285  20.720   3.722
16529W        W84903  28.012  42.992   5.231
16530W        W84904  44.502  25.545   1.857
16531W        W84905  41.313  15.623   1.918
16532W        W84906   3.819  14.598  11.090
16533W        W84907  10.761  15.754  14.444
16534W        W84908   1.938  14.695   4.236
16535W        W84909   4.412  17.605  11.123
16536W        W84910  19.642  13.682  14.284
16537W        W84911  13.174  23.512   2.207
16538W        W84912  25.577  17.271   5.121
16539W        W84913  10.802  28.932  14.768
16540W        W84914  21.527   3.778  10.905
16541W        W84915  33.536  10.690   1.774
16542W        W84916  12.835  10.657  12.887
16543W        W84917  29.485  41.038   0.840
16544W        W84918  29.005  11.840   4.226
16545W        W84919  42.475  28.027  10.636
16546W        W84920  34.394  22.196  14.025
16547W        W84921  24.228  23.183   4.661
16548W        W84922  32.567  14.626  12.490
16549W        W84923   3.724  37.439  11.114
16550W        W84924   3.363  44.355   5.180
16551W        W84925  38.420  36.356   1.331
16552W        W84926  20.620   6.761  12.092
16553W        W84927  25.482  21.744   3.354
16554W        W84928  37.376   2.331   0.734
16555W        W84929  33.016   6.853  12.969
16556W        W84930  23.013   2.291  12.513
16557W        W84931  38.457  43.825  14.810
16558W        W84932   3.775  26.037  12.487
16559W        W84933  42.516  32.912   0.840
16560W        W84934   4.867   8.758   0.255
16561W        W84935  40.841   3.823   1.352
16562W        W84936  21.140  11.361   1.216
16563W        W84937  35.965   4.823  13.345
16564W        W84938  37.353  39.363   0.324
16565W        W84939  30.996  39.546   0.798
16566W        W84940  37.387   9.169   4.616
16567W        W84941  13.837  44.001  12.885
16568W        W84942  28.962  20.736  14.779
16569W        W84943  19.106  27.957   2.735
16570W        W84944  44.959  40.899  10.930
16571W        W84945  28.999  21.598  10.543
16572W        W84946  25.694   4.234  11.012
16573W        W84947  39.546  12.299   3.704
16574W        W84948  12.266  42.785   3.342
16575W        W84949  22.996  19.668  14.467
16576W        W84950  42.933  40.421   3.629
16577W        W84951   1.375  10.721   3.329
16578W        W84952  27.652  37.047   3.735
16579W        W84953   2.289  37.465  10.971
16580W        W84954   8.749  13.350  10.433
16581W        W84955  23.635  31.897   4.674
16582W        W84956   6.380  18.058   0.751
16583W        W84957  28.185  18.189   4.179
16584W        W84958  39.840  23.629   2.376
16585W        W84959  27.971  31.140  10.063
16586W        W84960  23.573  17.565   1.859
16587W        W84961  26.985  30.064  13.345
16588W        W84962  41.429   4.819  12.831
16589W        W84963  15.301  28.635   0.287
16590W        W84964   8.300  24.600   0.252
16591W        W84965  44.307  12.363   5.256
16592W        W84966   3.735  39.943   2.393
16593W        W84967  19.673  32.969   4.212
16594W        W84968  42.295   6.308  14.379
16595W        W84969  20.086  42.519   0.806
16596W        W84970  10.784  19.071   1.841
16597W        W84971  44.919  26.536   1.696
16598W        W84972   8.822  26.678  13.878
16599W        W84973  16.222  31.917  10.622
16600W        W84974  27.175  33.555   3.383
16601W        W84975   4.334  16.585   4.631
16602W        W84976   1.273  18.249   1.229
16603W        W84977   8.867   3.224   4.726
16604W        W84978  28.504  17.136   1.341
16605W        W84979  32.488  28.565  14.497
16606W        W84980  31.965  37.548   3.274
16607W        W84981  36.915   7.705   0.371
16608W        W84982  33.547   6.882  14.025
16609W        W84983   7.679  34.071  13.367
16610W        W84984  26.073  27.136  10.510
16611W        W84985  44.488  10.249   2.846
16612W        W84986   6.753   7.312  10.591
16613W        W84987   8.338  16.146   0.303
16614W        W84988  14.161  20.030  12.872
16615W        W84989  37.536  15.699  11.893
16616W        W84990  22.083  18.213  11.069
16617W        W84991  10.847   6.325   4.312
16618W        W84992  13.151   6.231   2.675
16619W        W84993  30.593  16.669  10.606
16620W        W84994  35.020   1.407  14.909
16621W        W84995  32.119  44.945   3.788
16622W        W84996  14.305  11.277   0.786
16623W        W84997  17.282  10.140   3.831
16624W        W84998  20.723  34.988  13.988
16625W        W84999   0.296  24.543   0.832
16626W        W85000  14.287  14.194   3.840
16627W        W85001  10.814  42.444   0.903
16628W        W85002  10.818  14.231  12.971
16629W        W85003  19.666  26.152   0.395
16630W        W85004   5.843  17.224  13.931
16631W        W85005  23.163   8.885   4.683
16632W        W85006  26.630  18.292  14.884
16633W        W85007  38.065  44.849   4.312
16634W        W85008  21.540  14.754   2.253
16635W        W85009   4.924   0.254  11.571
16636W        W85010  16.138  22.093  13.531
16637W        W85011  23.631  36.461  12.005
16638W        W85012   3.887  15.319  13.855
16639W        W85013  38.485  38.072   1.826
16640W        W85014  37.408  25.589  13.871
16641W        W85015   2.750  28.480  12.021
16642W        W85016  12.829  22.010   3.371
16643W        W85017  42.348  31.439  10.574
16644W        W85018  24.541  44.995  11.375
16645W        W85019  37.433  37.836  11.520
16646W        W85020  12.203   3.902  12.032
16647W        W85021   7.703  22.081   4.187
16648W        W85022   0.972  26.078   3.735
16649W        W85023  34.468  16.604  13.956
16650W        W85024   4.796  41.794  13.868
16651W        W85025   2.805   4.714   0.473
16652W        W85026  12.173  20.593   2.902
16653W        W85027  34.120  28.979  12.344
16654W        W85028  21.134   7.267   4.180
16655W        W85029   1.947  32.487   5.303
16656W        W85030  16.709  29.627  12.375
16657W        W85031   4.857  13.326  11.058
16658W        W85032  12.145  24.722  10.640
16659W        W85033  44.806  13.694  10.528
16660W        W85034  30.968   7.859   1.766
16661W        W85035  29.987  22.164   4.306
16662W        W85036  14.669  33.949   0.794
16663W        W85037  13.110  39.507  11.447
16664W        W85038  12.205  10.174   5.315
16665W        W85039   5.703  21.625   3.641
16666W        W85040  33.581  21.235  10.545
16667W        W85041  13.838   4.326   3.733
16668W        W85042  30.595  42.512   3.705
16669W        W85043  15.196   3.300   4.341
16670W        W85044  44.498   2.739  14.308
16671W        W85045  31.433  44.782  13.376
16672W        W85046   3.947   0.301  14.777
16673W        W85047  44.330  19.537  11.482
16674W        W85048  22.151  29.075  13.796
16675W        W85049  14.825  41.338  11.008
16676W        W85050  17.248  12.646  10.097
16677W        W85051  31.440  41.394  11.450
16678W        W85052  42.840  14.129   3.170
16679W        W85053  29.000   7.292   4.178
16680W        W85054  15.820  28.574   1.364
16681W        W85055  29.651   0.955  11.005
16682W        W85056  40.932  17.696   0.856
16683W        W85057   4.846  31.439   0.415
16684W        W85058  28.593  10.681  14.322
16685W        W85059  31.523   3.865   4.645
16686W        W85060  39.521  44.778   4.713
16687W        W85061  37.938  21.707   4.759
16688W        W85062  31.483  12.809   3.320
16689W        W85063  12.671  44.476  11.875
16690W        W85064   8.301  34.009  11.024
16691W        W85065   2.763  37.834  12.857
16692W        W85066  23.597  10.802  13.847
16693W        W85067  26.668  32.507   2.396
16694W        W85068  18.070  11.354  12.017
16695W        W85069  12.839  34.463  14.801
16696W        W85070  35.922  40.834  14.275
16697W        W85071   3.375  25.183   1.751
16698W        W85072  33.905   1.359   3.746
16699W        W85073  25.036  33.533   0.752
16700W        W85074  18.206   0.377  11.565
16701W        W85075   8.171   7.810   3.700
16702W        W85076  13.635   1.415   3.368
16703W        W85077  29.148  19.253   2.712
16704W        W85078   5.262  23.142   1.429
16705W        W85079  20.567   0.804  12.842
16706W        W85080  40.993  15.307   4.672
16707W        W85081   9.395  10.747   4.675
16708W        W85082  20.162  29.138   4.660
16709W        W85083  24.665  13.619  10.567
16710W        W85084  19.154  20.151   2.278
16711W        W85085  18.702  44.305  11.400
16712W        W85086   9.656   0.941   0.726
16713W        W85087  40.824  33.077   0.273
16714W        W85088   8.261  37.406  12.573
16715W        W85089   3.878   3.392  10.622
16716W        W85090   1.950  37.973   1.825
16717W        W85091  10.806  31.483  14.410
16718W        W85092  34.435  28.474  13.899
16719W        W85093   0.897   6.217  10.539
16720W        W85094  36.936  29.579   2.285
16721W        W85095   8.691  37.066  10.579
16722W        W85096  10.311  13.159  14.327
16723W        W85097  17.738  32.920  10.601
16724W        W85098  31.470  19.768   4.316
16725W        W85099  20.669  41.297  11.608
16726W        W85100  11.672  10.150  14.848
16727W        W85101  21.128  37.352  12.843
16728W        W85102  37.980  25.625   3.310
16729W        W85103  26.619  35.571  12.460
16730W        W85104  43.986  21.217   5.109
16731W        W85105  32.562  14.189  13.854
16732W        W85106  15.112  44.899   2.233
16733W        W85107  15.596   5.705   2.299
16734W        W85108   9.887  20.581   5.249
16735W        W85109   7.253   8.167  12.834
16736W        W85110  33.463  23.000  14.975
16737W        W85111  43.007  35.477  11.527
16738W        W85112   0.315   4.324  10.566
16739W        W85113  29.587  10.735   1.932
16740W        W85114  31.897   0.828   2.184
16741W        W85115  40.546  37.540   4.599
16742W        W85116  38.444  39.327   0.290
16743W        W85117  26.577   8.309   4.615
16744W        W85118  34.029  38.409   1.738
16745W        W85119  10.276  11.810   4.742
16746W        W85120  31.436  16.213   2.814
16747W        W85121   8.235  32.551  11.432
16748W        W85122  16.604  31.988  10.481
16749W        W85123  20.753  30.587   4.230
16750W        W85124   2.471  27.591  10.981
16751W        W85125   2.720  15.669  13.399
16752W        W85126   5.223  15.216   0.311
16753W        W85127  30.134  13.125   4.327
16754W        W85128  43.341  34.526  10.921
16755W        W85129  44.979  36.481  13.952
16756W        W85130  35.400  43.020  11.505
16757W        W85131  38.948  23.148   2.277
16758W        W85132  33.552  14.286  10.539
16759W        W85133  17.086  11.632  10.064
16760W        W85134  21.562   0.926   1.841
16761W        W85135  10.829  28.935  10.533
16762W        W85136   7.715  10.786  11.037
16763W        W85137  42.284  34.392   1.930
16764W        W85138  22.021  40.450  12.493
16765W        W85139   0.254  10.695   0.785
16766W        W85140   1.433  32.523   3.860
16767W        W85141  36.435  11.283  10.601
16768W        W85142  18.726  14.619   3.335
16769W        W85143   3.369   1.351  14.961
16770W        W85144  20.680  23.100   2.851
16771W        W85145  14.315  39.489   4.657
16772W        W85146  38.504   9.819  11.117
16773W        W85147  26.576  43.901   0.462
16774W        W85148  18.077  15.757   3.337
16775W        W85149  33.536  29.149  10.614
16776W        W85150   7.181  23.115  14.960
16777W        W85151  43.950  15.728   0.869
16778W        W85152  37.578  34.439   0.379
16779W        W85153   3.710  38.902  14.278
16780W        W85154  38.543  36.857   3.180
16781W        W85155   0.281  28.642   0.366
16782W        W85156   8.838  31.544   0.407
16783W        W85157   9.772  18.656   5.161
16784W        W85158  11.737  43.366   4.677
16785W        W85159  43.892  25.628  14.475
16786W        W85160   7.896  29.116   3.237
16787W        W85161  30.962  42.804   3.211
16788W        W85162  26.610  32.007  12.835
16789W        W85163  39.351  34.097   4.349
16790W        W85164   6.279  36.984  11.531
16791W        W85165  24.554  32.412   3.857
16792W        W85166  42.318  41.517  13.478
16793W        W85167  31.623  28.017   2.817
16794W        W85168   0.492  13.170   2.391
16795W        W85169  26.701   1.245  12.020
16796W        W85170   8.230   6.898   2.882
16797W        W85171  25.154  39.816  12.369
16798W        W85172  34.933  38.530   0.457
16799W        W85173   2.787  14.104   2.807
16800W        W85174  17.793   0.310   2.337
16801W        W85175  20.717  35.464   3.265
16802W        W85176  10.270  29.081  10.937
16803W        W85177  16.241   3.256   1.431
16804W        W85178  34.388   4.926   1.384
16805W        W85179  14.777  14.732   4.335
16806W        W85180  43.302  36.915   2.224
16807W        W85181  35.493  23.687   3.682
16808W        W85182  21.136  31.535   1.742
16809W        W85183   2.376   5.765  12.055
16810W        W85184  18.582   5.808   1.398
16811W        W85185  31.500   2.871  12.017
16812W        W85186   0.336  28.110   1.815
16813W        W85187  26.587  44.837  13.478
16814W        W85188  20.643   4.446   2.676
16815W        W85189  32.906  42.410   4.321
16816W        W85190  29.465  43.796  12.379
16817W        W85191  12.663  38.491  10.985
16818W        W85192   9.777   4.268  11.017
16819W        W85193  40.879  41.919   3.744
16820W        W85194   0.901  23.179   4.629
16821W        W85195  17.290   4.410   3.354
16822W        W85196  26.600  31.412   0.807
16823W        W85197  36.024  40.946  10.900
16824W        W85198  34.431  11.752   1.734
16825W        W85199  12.628  19.218   4.836
16826W        W85200  35.366  15.643   1.403
16827W        W85201  31.976   9.654  13.999
16828W        W85202   4.790  33.461   5.131
16829W        W85203  38.510  22.096   1.827
16830W        W85204  25.540   2.307   2.330
16831W        W85205  10.821  44.316   1.434
16832W        W85206   2.806  18.618  13.363
16833W        W85207  29.112   0.404  11.385
16834W        W85208  10.677  10.732   1.811
16835W        W85209   3.401   7.331   1.297
16836W        W85210   9.668  35.379   3.255
16837W        W85211  39.439  13.298   0.749
16838W        W85212  33.519   4.889   5.290
16839W        W85213  15.274  39.853  11.483
16840W        W85214  30.992  37.876   0.756
16841W        W85215  41.450   2.743   3.163
16842W        W85216   1.286   6.308  12.918
16843W        W85217  18.564  43.021  14.956
16844W        W85218  31.528  11.736  11.018
16845W        W85219  10.235   8.200  11.550
16846W        W85220  29.028  12.235  14.498
16847W        W85221   0.494  42.413  10.422
16848W        W85222  12.128  44.764  13.337
16849W        W85223  16.721  18.054  12.019
16850W        W85224  20.665   4.447  10.492
16851W        W85225  33.925  21.084  13.815
16852W        W85226  36.029  36.556  11.020
16853W        W85227   8.850  25.584   3.655
16854W        W85228   5.735  27.081  14.492
16855W        W85229  14.137  43.474   3.755
16856W        W85230  41.327  31.615   1.729
16857W        W85231  43.296   5.734  10.542
16858W        W85232  36.045  21.621   0.870
16859W        W85233  28.629  24.038  13.318
16860W        W85234  30.568   3.745  10.584
16861W        W85235  44.810  34.398  10.897
16862W        W85236  37.042  39.888   4.782
16863W        W85237  27.182  17.208   4.814
16864W        W85238   3.756  41.894  12.379
16865W        W85239  30.603   4.321   1.921
16866W        W85240   8.314  14.670  12.487
16867W        W85241  24.693  25.617  10.579
16868W        W85242  29.157  16.579   2.680
16869W        W85243  24.514  33.594   3.697
16870W        W85244   3.784  36.079  14.930
16871W        W85245  25.527  20.632  12.979
16872W        W85246  30.613  20.173  12.860
16873W        W85247   6.390  22.110   0.794
16874W        W85248  10.161  20.642  13.855
16875W        W85249  21.717  21.623   3.236
16876W        W85250  31.154  17.616   0.476
16877W        W85251  28.126  44.425  14.448
16878W        W85252   9.863  28.013   3.258
16879W        W85253  20.112  35.925   9.924
16880W        W85254  11.317  13.319  13.054
16881W        W85255  34.014  36.372   2.240
16882W        W85256   8.867  19.136   0.935
16883W        W85257  36.930  14.186   1.243
16884W        W85258  10.679  36.880  14.356
16885W        W85259  36.470  44.387  11.551
16886W        W85260  11.762  22.098   2.377
16887W        W85261   5.809  40.421   3.346
16888W        W85262   9.857  24.109   1.928
16889W        W85263  42.972  23.132  12.448
16890W        W85264  26.074  40.002  14.415
16891W        W85265  10.649   1.750  13.343
16892W        W85266   5.288  10.709   3.810
16893W        W85267  40.311  12.136   2.182
16894W        W85268  23.212  12.117  12.505
16895W        W85269  23.070   9.219  12.345
16896W        W85270  26.681   7.781  13.992
16897W        W85271   5.266  18.602   0.903
16898W        W85272  33.900  10.752  10.595
16899W        W85273  15.308  41.292   1.852
16900W        W85274  32.631  37.914  10.588
16901W        W85275  32.566  31.001  12.379
16902W        W85276  22.523   2.802  12.010
16903W        W85277   7.901  19.658  12.501
16904W        W85278  23.998  35.080  13.903
16905W        W85279   9.839  35.889   3.685
16906W        W85280   0.937  35.970   1.235
16907W        W85281  10.739  37.917   3.297
16908W        W85282  36.559  14.211  11.924
16909W        W85283   3.217  27.551  13.454
16910W        W85284  44.433  24.501  10.924
16911W        W85285  20.053  38.488   4.774
16912W        W85286  42.889  20.273   0.319
16913W        W85287  28.095  35.532   1.718
16914W        W85288  38.899  24.706   1.797
16915W        W85289  36.552  15.593  10.968
16916W        W85290  10.748   5.845  13.501
16917W        W85291  34.898  22.058  10.909
16918W        W85292  18.741  22.147  13.868
16919W        W85293   2.335  32.902  14.973
16920W        W85294  22.086  22.185  14.495
16921W        W85295  12.828  40.871  13.995
16922W        W85296  25.592   3.291  11.880
16923W        W85297   6.848  42.961   0.447
16924W        W85298   8.665  15.188  10.625
16925W        W85299  29.460   1.428  11.119
16926W        W85300   2.915  28.542  12.426
16927W        W85301  12.166   2.392  12.019
16928W        W85302  34.121  28.648  13.966
16929W        W85303  17.075   0.909   3.636
16930W        W85304   2.254  20.728   0.295
16931W        W85305  25.538  27.620  13.982
16932W        W85306  26.460   0.923  12.862
16933W        W85307   4.386  23.597   4.708
16934W        W85308  12.827  41.428  13.820
16935W        W85309  37.343  43.813  11.450
16936W        W85310  30.101  32.579   3.247
16937W        W85311  23.505  11.268  14.964
16938W        W85312  27.024   2.270  13.831
16939W        W85313  11.767  32.951  12.410
16940W        W85314  19.127  34.393  12.030
16941W        W85315  39.060  42.519   1.210
16942W        W85316  39.059   5.324   2.218
16943W        W85317  43.900  15.778  13.888
16944W        W85318  16.124  38.371  12.468
16945W        W85319  24.637  14.788   5.194
16946W        W85320  40.939  32.004  11.962
16947W        W85321  23.502  43.351  12.970
16948W        W85322  36.077  13.648   0.322
16949W        W85323   0.315  10.728  12.439
16950W        W85324  43.773  19.102  12.845
16951W        W85325  40.416  18.185   1.800
16952W        W85326  19.649  16.185  11.945
16953W        W85327   6.742  36.089   3.730
16954W        W85328  10.223  25.582  10.605
16955W        W85329  39.866   3.374   3.862
16956W        W85330  41.953   7.355  13.338
16957W        W85331   0.324  36.971   0.811
16958W        W85332  24.523   6.802  10.919
16959W        W85333  36.016  29.478  10.951
16960W        W85334  26.596  12.149  14.927
16961W        W85335  19.618  33.481   5.255
16962W        W85336  13.834  21.063  14.300
16963W        W85337   0.295  28.668   0.967
16964W        W85338  12.668  25.493   3.646
16965W        W85339  14.217  12.141   4.270
16966W        W85340  37.427  26.064   2.211
16967W        W85341  27.453   5.351  13.881
16968W        W85342   3.824   8.665   2.688
16969W        W85343  32.560   2.891  11.449
16970W        W85344  13.683  11.182  12.478
16971W        W85345  22.566   4.747  11.043
16972W        W85346  36.971  28.445   3.641
16973W        W85347  28.565  34.584   3.860
16974W        W85348   5.867  30.613   1.310
16975W        W85349  42.467  25.178  14.487
16976W        W85350  27.148  10.292  12.565
16977W        W85351  15.088  19.610   1.792
16978W        W85352  13.641  13.685   3.722
16979W        W85353  17.085  40.047   0.846
16980W        W85354  16.655  20.187  14.827
16981W        W85355  22.556   7.349   1.376
16982W        W85356  43.914  25.098   0.482
16983W        W85357  17.708  19.119  13.998
16984W        W85358  13.265  38.910  13.938
16985W        W85359  23.675  12.140  12.846
16986W        W85360  34.022   1.429   1.764
16987W        W85361  12.722   3.935   3.369
16988W        W85362  20.686  31.628  12.048
16989W        W85363  14.134   7.712   4.833
16990W        W85364   1.371  16.699  14.848
16991W        W85365  33.045   5.899  13.541
16992W        W85366   2.255  17.130   3.863
16993W        W85367  13.845  21.578   1.782
16994W        W85368  28.962  27.530  13.945
16995W        W85369  34.400  36.563  10.964
16996W        W85370  28.586   1.447   5.095
16997W        W85371  23.047   6.374  13.801
16998W        W85372   7.261  42.283  14.362
16999W        W85373  27.123  27.470   0.928
17000W        W85374  22.028  14.109   1.873
17001W        W85375  26.501  42.399   0.280
17002W        W85376  21.609  19.041   3.778
17003W        W85377  39.333  43.962   2.784
17004W        W85378   8.338  43.322   4.297
17005W        W85379  36.931   0.313  11.413
17006W        W85380  36.427   0.291   3.780
17007W        W85381  18.550  17.265  13.505
17008W        W85382  16.645   0.934   2.679
17009W        W85383  15.310  30.027  13.820
17010W        W85384  36.547  41.952   4.217
17011W        W85385  41.461   6.714   1.933
17012W        W85386   9.781  11.263  12.506
17013W        W85387  19.690  30.146   0.947
17014W        W85388   8.836  26.662   2.698
17015W        W85389  36.056  32.606  11.058
17016W        W85390  36.085   2.952   0.891
17017W        W85391  25.966   7.320  13.908
17018W        W85392  10.671  36.050   4.658
17019W        W85393  33.061  17.633  14.003
17020W        W85394   6.303   3.808  11.042
17021W        W85395  28.498  38.349   2.813
17022W        W85396  37.072  32.452  13.358
17023W        W85397  11.256  30.481   1.326
17024W        W85398  24.982  44.384   4.291
17025W        W85399   3.326   5.390   1.340
17026W        W85400  20.632   1.301  12.090
17027W        W85401  24.973   9.773   1.881
17028W        W85402  18.561  23.624  12.498
17029W        W85403  38.006  33.534   9.939
17030W        W85404   5.784  24.066  11.506
17031W        W85405  13.155  22.622   5.206
17032W        W85406  34.103  38.067  12.498
17033W        W85407  43.808  20.104  12.402
17034W        W85408  22.162  32.459  11.372
17035W        W85409  17.076  28.678   0.781
17036W        W85410  17.250  22.594   0.468
17037W        W85411  20.687   0.900  13.521
17038W        W85412  38.565  28.058   2.690
17039W        W85413   8.360  29.081   1.761
17040W        W85414  13.827  44.769  13.431
17041W        W85415  17.725  28.608   1.449
17042W        W85416  37.035  38.495  14.387
17043W        W85417  23.569   4.829  10.521
17044W        W85418  25.531  33.015   0.455
17045W        W85419  17.577   2.402  13.390
17046W        W85420   9.684   2.407   3.844
17047W        W85421  16.735   6.321  14.924
17048W        W85422  18.662  19.778   1.786
17049W        W85423  11.334   0.298   3.181
17050W        W85424  34.019  30.021  10.933
17051W        W85425  28.521  40.396   3.711
17052W        W85426  40.845  39.375  13.944
17053W        W85427  35.041   3.433   0.898
17054W        W85428  17.219  24.617  13.961
17055W        W85429  19.611   7.756  13.807
17056W        W85430  27.642  38.957   4.319
17057W        W85431  44.889  18.203   2.881
17058W        W85432  31.117   2.448   2.380
17059W        W85433   4.386  30.539   0.803
17060W        W85434   1.444  37.889  10.574
17061W        W85435  18.051  20.123   2.327
17062W        W85436  27.680  31.995  10.544
17063W        W85437   6.227  28.033   1.749
17064W        W85438   7.859   7.762   3.788
17065W        W85439  18.096   2.467   0.902
17066W        W85440   2.804  33.987  12.468
17067W        W85441   7.290   5.840   0.746
17068W        W85442  14.159   9.298  11.954
17069W        W85443  28.177  28.056  12.381
17070W        W85444  37.482  30.569  13.344
17071W        W85445  29.162  19.174   0.807
17072W        W85446  18.161   8.692   2.330
17073W        W85447  20.589  18.789  10.892
17074W        W85448  22.065  42.783   3.785
17075W        W85449   0.378   4.421   0.959
17076W        W85450  34.012  40.546  10.522
17077W        W85451  25.112   1.275   4.301
17078W        W85452  17.064   0.421  13.536
17079W        W85453  35.454  20.120   2.317
17080W        W85454   2.400  17.172  11.427
17081W        W85455   4.425  30.024  14.000
17082W        W85456  30.139  44.321   2.879
17083W        W85457   4.235  12.750  11.053
17084W        W85458  14.688  28.022  15.000
17085W        W85459  34.935   0.963   1.928
17086W        W85460  15.635  29.144  12.909
17087W        W85461   0.913   5.339   4.771
17088W        W85462  23.542  25.966  12.023
17089W        W85463  36.987   0.294  14.328
17090W        W85464   2.392  23.617   2.241
17091W        W85465  10.266  19.694  12.362
17092W        W85466  16.620  37.437   0.345
17093W        W85467  12.359  25.217  13.941
17094W        W85468  14.111  20.543  11.462
17095W        W85469  44.990   9.698  10.529
17096W        W85470  40.488  37.013   4.732
17097W        W85471  20.187  21.211  12.018
17098W        W85472  26.680  17.690  11.445
17099W        W85473  17.147  19.708   1.418
17100W        W85474  14.103  39.556  14.301
17101W        W85475   7.760   1.362  12.353
17102W        W85476  43.885  24.012  14.398
17103W        W85477   1.308  30.078  11.010
17104W        W85478  20.727  38.972  12.889
17105W        W85479  31.020  13.302   0.464
17106W        W85480  11.219  21.101  11.094
17107W        W85481  31.960  38.016  12.562
17108W        W85482   0.935  40.809  11.371
17109W        W85483  33.482   9.717  11.065
17110W        W85484  15.706  29.067   4.248
17111W        W85485  33.103   8.322   3.259
17112W        W85486  31.010  38.000  10.483
17113W        W85487  23.665   4.747  13.907
17114W        W85488  18.251  13.201  13.527
17115W        W85489  42.846  41.318   1.256
17116W        W85490   9.237  36.383  12.057
17117W        W85491  44.838  44.428   0.731
17118W        W85492   0.359   5.299  13.904
17119W        W85493  25.549  34.453  13.443
17120W        W85494  10.164  33.069  13.334
17121W        W85495   4.248  27.977  13.341
17122W        W85496   8.819   7.390   2.790
17123W        W85497   7.872  13.106  13.962
17124W        W85498  24.188   9.860  10.539
17125W        W85499  17.287  44.918   0.827
17126W        W85500  31.594  42.946  11.918
17127W        W85501   5.304   4.873  13.057
17128W        W85502  22.557  33.416  10.058
17129W        W85503   5.270  15.775  14.891
17130W        W85504  32.588  32.483   0.782
17131W        W85505  10.143  23.617  13.519
17132W        W85506   3.742  44.831   2.294
17133W        W85507  23.061  28.534   2.199
17134W        W85508  15.236   4.832  13.888
17135W        W85509  42.930  20.727   4.138
17136W        W85510   0.468  41.339   1.808
17137W        W85511  37.560  34.599  10.898
17138W        W85512  31.975  36.853   0.391
17139W        W85513   5.904   2.431   1.370
17140W        W85514  12.247  20.032   2.306
17141W        W85515  43.889  24.543   2.684
17142W        W85516  16.592  42.961   4.793
17143W        W85517  10.864   1.816   2.823
17144W        W85518  10.249  38.392  10.555
17145W        W85519  27.591  41.014  13.341
17146W        W85520  37.417  17.292  12.953
17147W        W85521  22.159  15.806  14.429
17148W        W85522  34.887   5.919   3.748
17149W        W85523  34.541   7.269  13.504
17150W        W85524  34.447   2.357  14.353
17151W        W85525  31.116  33.410  13.330
17152W        W85526  43.844  42.831  12.973
17153W        W85527  27.092  15.278  11.386
17154W        W85528  30.017  14.744   0.336
17155W        W85529  34.451  11.681  12.971
17156W        W85530  36.046  26.513  14.011
17157W        W85531  20.563  38.550  11.482
17158W        W85532  15.262  41.945   0.326
17159W        W85533   5.800  36.348  14.447
17160W        W85534  35.488  42.368   2.734
17161W        W85535  18.587   9.300   3.715
17162W        W85536  18.566  42.483  13.318
17163W        W85537  13.294  11.238   0.817
17164W        W85538  15.168  33.129  12.470
17165W        W85539   6.760   3.818   3.778
17166W        W85540  41.408  26.174   0.930
17167W        W85541  16.178  41.897  10.643
17168W        W85542  14.124  32.517   3.841
17169W        W85543   9.253  11.355   1.696
17170W        W85544  17.731  39.356  10.569
17171W        W85545   9.317  28.513   4.209
17172W        W85546  23.551  14.676  14.966
17173W        W85547  15.311  17.602  13.973
17174W        W85548  30.643  16.148   1.397
17175W        W85549  25.504  35.914   0.436
17176W        W85550  32.985   1.474  12.374
17177W        W85551  24.620  18.712  14.838
17178W        W85552  39.453  25.691  12.903
17179W        W85553   6.922  23.084   5.307
17180W        W85554  10.680   4.869   1.919
17181W        W85555  41.431   2.272  12.908
17182W        W85556   9.807  20.090  13.539
17183W        W85557   2.257  14.829  14.768
17184W        W85558   9.875  28.005  11.939
17185W        W85559  33.962  25.106   0.434
17186W        W85560   1.412  22.166  14.874
17187W        W85561   1.324  16.138   4.224
17188W        W85562  22.100   8.301   0.467
17189W        W85563  41.889  16.183  10.993
17190W        W85564  19.699  31.967   4.138
17191W        W85565   7.802   9.368   0.453
17192W        W85566   3.924  11.220  10.969
17193W        W85567  12.138  37.058   3.195
17194W        W85568   2.266  35.526   2.312
17195W        W85569  21.666  24.657   3.648
17196W        W85570  32.447  33.511   2.796
17197W        W85571  29.486  10.827   4.648
17198W        W85572  17.207   4.866  11.941
17199W        W85573  36.863  17.264  10.530
17200W        W85574  31.019  40.531  13.414
17201W        W85575  14.212  35.421  10.513
17202W        W85576  22.625  37.903   3.862
17203W        W85577   4.260  25.498   4.152
17204W        W85578  33.926  17.191   3.688
17205W        W85579  41.429  18.563   1.933
17206W        W85580  32.944  23.638   2.341
17207W        W85581   5.749  21.676   1.877
17208W        W85582  13.234  22.650   2.301
17209W        W85583   5.328   2.334  14.495
17210W        W85584   9.704  35.920   2.244
17211W        W85585  15.136  37.978   0.284
17212W        W85586  10.252  36.864  12.074
17213W        W85587  44.464  20.599  13.314
17214W        W85588   1.865  39.825   1.744
17215W        W85589   1.394   0.389   2.768
17216W        W85590  18.061  19.114   1.924
17217W        W85591  18.767   6.376  14.437
17218W        W85592   7.816  32.480   0.349
17219W        W85593  23.061  14.808   2.736
17220W        W85594   4.720  18.656   1.330
17221W        W85595  34.432  19.713  14.899
17222W        W85596  12.837   0.300  14.838
17223W        W85597  37.551  19.226  12.340
17224W        W85598  30.929  35.413  13.481
17225W        W85599  15.713  38.483  14.427
17226W        W85600  24.502  38.495  11.523
17227W        W85601   6.887   2.857  14.884
17228W        W85602   5.207  17.298  10.160
17229W        W85603  39.429   7.240   0.777
17230W        W85604  33.109  18.120   0.291
17231W        W85605  38.386  12.357   4.166
17232W        W85606  39.442  38.019  12.501
17233W        W85607  36.387  31.955   5.238
17234W        W85608  28.542   3.825  13.035
17235W        W85609  32.986   0.279   0.822
17236W        W85610  28.072  25.077   2.264
17237W        W85611  14.612  41.802  13.490
17238W        W85612  43.834  23.223  11.445
17239W        W85613  41.292   8.827   0.783
17240W        W85614   8.297  13.641  14.834
17241W        W85615  19.557  26.490  10.575
17242W        W85616   3.711  28.180   0.417
17243W        W85617  41.354  34.063  10.514
17244W        W85618   3.265  41.377   3.150
17245W        W85619  42.916  30.553  10.026
17246W        W85620   5.331  13.629  11.586
17247W        W85621  26.633  38.350  11.042
17248W        W85622   5.897   2.249  13.349
17249W        W85623  43.454   2.851   3.738
17250W        W85624  18.255  17.229   4.276
17251W        W85625   2.295   7.829  11.476
17252W        W85626   4.750  33.478  14.434
17253W        W85627  39.879  35.006  13.848
17254W        W85628  28.009  26.203  14.887
17255W        W85629  17.079  31.081  13.510
17256W        W85630  33.071   2.747  11.083
17257W        W85631   3.392   2.727  13.389
17258W        W85632  15.268  33.553  12.009
17259W        W85633  32.549  24.170  10.625
17260W        W85634  36.379   2.894   2.205
17261W        W85635  43.297  20.107   2.221
17262W        W85636  32.576  16.749  11.116
17263W        W85637  42.927  14.652   2.746
17264W        W85638  16.583  21.152  10.423
17265W        W85639  35.375   5.779   1.790
17266W        W85640  23.622  30.651  14.785
17267W        W85641  36.941  19.227   2.369
17268W        W85642  30.546   2.783  13.007
17269W        W85643  44.775   6.239  12.511
17270W        W85644  34.023  29.035  10.507
17271W        W85645   3.263  29.473  11.866
17272W        W85646  37.424  39.014   4.323
17273W        W85647   3.863  10.664  10.590
17274W        W85648  43.361  27.067  14.935
17275W        W85649  22.128  25.190   1.440
17276W        W85650   6.875  26.189   0.371
17277W        W85651  32.619  25.635  13.910
17278W        W85652  36.955  28.636   3.234
17279W        W85653  40.488  32.413   0.312
17280W        W85654  41.920  20.538   3.729
17281W        W85655  10.836   2.322   4.728
17282W        W85656  39.408  18.583   4.672
17283W        W85657   0.907  23.184  12.537
17284W        W85658  30.057  43.948   5.632
17285W        W85659  28.069  20.605   2.892
17286W        W85660   7.332  35.517  10.410
17287W        W85661  36.098  11.167   3.294
17288W        W85662   0.376  24.106  12.917
17289W        W85663   1.861  37.854   2.328
17290W        W85664   3.847  37.403  10.518
17291W        W85665  22.597  20.046  13.496
17292W        W85666  38.823   3.317   4.345
17293W        W85667  22.512  31.471   5.742
17294W        W85668   7.267  28.636   5.309
17295W        W85669  35.917  43.811  14.441
17296W        W85670  15.813  34.389  14.467
17297W        W85671  29.125  10.875  14.305
17298W        W85672   3.879   6.873  14.813
17299W        W85673  10.712   9.223  13.042
17300W        W85674  26.202   4.339  14.419
17301W        W85675  44.452  19.083  10.930
17302W        W85676  19.744   3.416  10.613
17303W        W85677   1.455   0.360   2.196
17304W        W85678  27.951   7.193  14.872
17305W        W85679  21.603  16.806  14.792
17306W        W85680  18.725  35.994   0.318
17307W        W85681   1.477  17.290   1.384
17308W        W85682  21.658  39.027   3.319
17309W        W85683  37.869  11.250   2.884
17310W        W85684  28.129  38.463   1.870
17311W        W85685  24.016   6.802  11.416
17312W        W85686   6.396  32.460   0.842
17313W        W85687   7.297  41.936   0.803
17314W        W85688  29.954  39.327   3.708
17315W        W85689  37.987  32.408   4.793
17316W        W85690   3.455  27.190  12.476
17317W        W85691   0.822  11.136  11.074
17318W        W85692   9.377  39.026  14.955
17319W        W85693  41.889  42.914  11.430
17320W        W85694   8.276  16.102   4.812
17321W        W85695   3.841  37.499   3.818
17322W        W85696  41.975  27.076  13.481
17323W        W85697  13.647  31.578  12.014
17324W        W85698   1.264  36.070   3.679
17325W        W85699  20.522   0.359  14.323
17326W        W85700   3.908   4.749   0.824
17327W        W85701  39.415  43.394   3.819
17328W        W85702  12.790  21.093   4.817
17329W        W85703  30.070  15.703  12.558
17330W        W85704  12.664  43.815   0.483
17331W        W85705  25.513  20.570   4.603
17332W        W85706  33.997  39.389  11.399
17333W        W85707   1.941  34.075   4.634
17334W        W85708  29.624  21.239  12.983
17335W        W85709  23.623  30.471   0.953
17336W        W85710  30.022  12.650   2.862
17337W        W85711  44.928  14.697  13.836
17338W        W85712  40.006  11.644   2.778
17339W        W85713   9.185   1.258  13.367
17340W        W85714  18.730  24.990   2.279
17341W        W85715  19.108  37.008  10.533
17342W        W85716  11.732  30.489  10.417
17343W        W85717  11.162   0.799   0.308
17344W        W85718  28.168   7.821   1.379
17345W        W85719  35.954  19.151  13.439
17346W        W85720   4.882  32.087  14.023
17347W        W85721   7.881  33.922   3.368
17348W        W85722  20.688   3.363  14.957
17349W        W85723  12.176  12.780  14.769
17350W        W85724  13.605  40.356  11.566
17351W        W85725  29.494  43.849   1.881
17352W        W85726  41.816  22.037  11.399
17353W        W85727   2.272  30.050   2.736
17354W        W85728  40.475  17.276  10.019
17355W        W85729  21.525  25.121   3.296
17356W        W85730  34.899   9.345  10.534
17357W        W85731  12.356   0.382   1.418
17358W        W85732   8.183  12.320  12.423
17359W        W85733  19.174  11.812  12.427
17360W        W85734   5.703  23.559   3.371
17361W        W85735  43.338   7.368   0.828
17362W        W85736  25.677  32.414  14.943
17363W        W85737  25.538  35.457  14.295
17364W        W85738  25.617  15.624  10.516
17365W        W85739  15.791  19.072   2.199
17366W        W85740  44.915  37.372   1.749
17367W        W85741  26.488  34.019   2.782
17368W        W85742  35.459  34.436  12.082
17369W        W85743  15.639  14.232   4.771
17370W        W85744  15.704   7.861  13.365
17371W        W85745   3.751  16.263  12.536
17372W        W85746  32.964  13.296   3.793
17373W        W85747  27.025  16.190  12.495
17374W        W85748  33.590   9.154  14.762
17375W        W85749  40.406  30.460  12.932
17376W        W85750   8.174  33.520   3.740
17377W        W85751  12.314  33.601  14.460
17378W        W85752   8.230  15.733  12.957
17379W        W85753  44.901  10.716   3.353
17380W        W85754  37.879  25.029   0.417
17381W        W85755  27.456   3.921  11.109
17382W        W85756  44.001  11.679  10.535
17383W        W85757  20.065  11.333   1.889
17384W        W85758  30.081  29.988   0.409
17385W        W85759  33.465  43.392   4.622
17386W        W85760  16.804  33.113  14.444
17387W        W85761  30.957   6.367   3.293
17388W        W85762  30.565  18.158  12.352
17389W        W85763  24.489  13.799  11.087
17390W        W85764  38.938  31.615   0.802
17391W        W85765  18.740   0.947  10.052
17392W        W85766  16.311   6.820   3.848
17393W        W85767  25.099  40.970  12.016
17394W        W85768  22.193  37.891   9.932
17395W        W85769  14.749  31.151   1.287
17396W        W85770   9.844   3.240   4.755
17397W        W85771   9.212  22.508   0.754
17398W        W85772   4.842  25.131   9.971
17399W        W85773  39.003  38.493  14.322
17400W        W85774  14.316  29.127   0.964
17401W        W85775  30.621  28.076   2.881
17402W        W85776  14.687  44.366  10.982
17403W        W85777  31.550  21.608   0.794
17404W        W85778  24.576  30.649  13.390
17405W        W85779  17.572   3.376  13.041
17406W        W85780   7.347  33.067   0.741
17407W        W85781  11.854  14.107  10.040
17408W        W85782  21.168  26.630  13.444
17409W        W85783   2.414  10.192   3.272
17410W        W85784  31.052  38.557   0.757
17411W        W85785  16.650   9.263  11.015
17412W        W85786  27.989  44.851   5.304
17413W        W85787  44.446   2.877  13.838
17414W        W85788  40.458   0.745   1.880
17415W        W85789  21.639   7.857   3.301
17416W        W85790  13.757  14.590  13.001
17417W        W85791  34.543  28.566  10.460
17418W        W85792   7.775  15.285  11.039
17419W        W85793   1.260  18.226   4.770
17420W        W85794  26.606   8.769  11.048
17421W        W85795  43.311  15.103   0.782
17422W        W85796  21.521  17.710  14.512
17423W        W85797  16.299  26.530   2.192
17424W        W85798  39.904  44.307   4.738
17425W        W85799  23.139  32.525   5.624
17426W        W85800   7.809   9.308   4.116
17427W        W85801   7.193  23.224   2.181
17428W        W85802  12.188   2.801   2.335
17429W        W85803  36.546  22.721   1.260
17430W        W85804  41.491  28.131  11.099
17431W        W85805  23.624   6.355   3.655
17432W        W85806  25.114  20.179  11.069
17433W        W85807  19.739  38.891   4.214
17434W        W85808   9.205  43.491  13.449
17435W        W85809  32.016  44.936   1.842
17436W        W85810  39.338  15.590   3.707
17437W        W85811   6.296  29.030  14.382
17438W        W85812  42.807  38.022  11.932
17439W        W85813  16.788  41.814  13.541
17440W        W85814   1.882  38.856  11.072
17441W        W85815  13.125   7.297   9.932
17442W        W85816  19.635  41.833   1.408
17443W        W85817   8.259  13.201  11.437
17444W        W85818  11.255  11.763   2.338
17445W        W85819  37.374   3.284   1.291
17446W        W85820  19.244  35.561  12.965
17447W        W85821  37.003  29.945   1.222
17448W        W85822  40.897  13.728   2.829
17449W        W85823  18.699  43.273  13.821
17450W        W85824  34.919  29.948  14.512
17451W        W85825  39.042  12.301  13.987
17452W        W85826  42.320  10.140  11.985
17453W        W85827  28.960  33.115  14.914
17454W        W85828  32.105  41.837   4.670
17455W        W85829   9.212  20.087  10.464
17456W        W85830  34.063   5.301  14.944
17457W        W85831  13.241   9.861  14.841
17458W        W85832  16.182   2.358   2.739
17459W        W85833  43.427  20.715   3.709
17460W        W85834  41.477  35.070   2.817
17461W        W85835  15.786   0.936   4.139
17462W        W85836  41.479  25.113  10.430
17463W        W85837  20.529  18.158   1.840
17464W        W85838  15.263  22.232  13.971
17465W        W85839  22.697  27.120  13.546
17466W        W85840  43.463  14.097  13.338
17467W        W85841  36.455  42.969   4.697
17468W        W85842  29.029  28.634  12.539
17469W        W85843   4.250  15.259  13.326
17470W        W85844  26.473  25.543  14.946
17471W        W85845  27.558  39.019  10.515
17472W        W85846   7.683  41.931   3.341
17473W        W85847  31.140  15.098  13.527
17474W        W85848  31.121  23.100  11.031
17475W        W85849  21.105  38.328   2.310
17476W        W85850  44.369   7.384   4.666
17477W        W85851  24.713   9.768  14.301
17478W        W85852  37.010   2.412   2.364
17479W        W85853  25.499   5.878   1.791
17480W        W85854  20.231  33.621  10.091
17481W        W85855  37.519   8.392  13.360
17482W        W85856  12.839  34.881   0.955
17483W        W85857  28.625  25.639   4.775
17484W        W85858  24.572  31.025  12.477
17485W        W85859   8.697  38.841  14.421
17486W        W85860  33.417  26.595  10.640
17487W        W85861   4.335  18.606   4.159
17488W        W85862  26.198   1.769  14.816
17489W        W85863  17.617  33.875   3.714
17490W        W85864  29.632  32.588  12.579
17491W        W85865   3.223   7.271  11.395
17492W        W85866  14.778  34.888   4.823
17493W        W85867  37.456  32.459   0.451
17494W        W85868   2.267  25.988  11.398
17495W        W85869  20.658  41.532  12.866
17496W        W85870  33.051  22.744   3.304
17497W        W85871   7.764   0.297   0.836
17498W        W85872  33.548  42.898  14.814
17499W        W85873   3.849  20.167   4.138
17500W        W85874  38.952   4.848  12.076
17501W        W85875  32.916   6.330  13.902
17502W        W85876  42.485  22.022   0.268
17503W        W85877  27.527  24.679   3.354
17504W        W85878  38.826  38.479   0.845
17505W        W85879  34.908  16.754   0.307
17506W        W85880  35.070  10.178   2.667
17507W        W85881   2.906  21.638  11.011
17508W        W85882  44.342  43.501  14.800
17509W        W85883  39.358  21.577  11.940
17510W        W85884  21.243  24.028  14.014
17511W        W85885  32.637   6.246  13.868
17512W        W85886  32.905  39.045  14.026
17513W        W85887  37.851  44.951  13.847
17514W        W85888  19.121  44.834  14.762
17515W        W85889  40.957  18.119   2.787
17516W        W85890  40.410   9.391  12.348
17517W        W85891  29.134  15.102  12.427
17518W        W85892  36.958  37.058   4.344
17519W        W85893   3.349  13.738   0.738
17520W        W85894  40.014  13.137  14.918
17521W        W85895   8.256  29.009  11.408
17522W        W85896  12.300  44.820   3.697
17523W        W85897  15.706  34.871  14.842
17524W        W85898   2.330  17.243   0.344
17525W        W85899  33.505   8.712  14.469
17526W        W85900  35.364  24.997   4.756
17527W        W85901  16.263  39.056  14.456
17528W        W85902  32.464  41.037   0.433
17529W        W85903  23.182  44.464  10.983
17530W        W85904  26.110  34.495   1.782
17531W        W85905  28.438  30.919  12.428
17532W        W85906  38.432  18.153  10.571
17533W        W85907  29.554  14.834   1.330
17534W        W85908  29.583   1.392  12.527
17535W        W85909  42.961  33.623  12.903
17536W        W85910  11.832  40.838   1.417
17537W        W85911   9.154  43.302   2.701
17538W        W85912  39.031  34.982  14.791
17539W        W85913  17.090   6.832   3.820
17540W        W85914  22.695  24.698  10.534
17541W        W85915   2.916   8.302  10.919
17542W        W85916  41.800  37.931  10.449
17543W        W85917  20.624  41.325   2.371
17544W        W85918  19.669  25.018  13.379
17545W        W85919  14.128  34.081  11.394
17546W        W85920   0.374  39.040  14.399
17547W        W85921  31.905  34.875   3.264
17548W        W85922  34.392  11.315   0.457
17549W        W85923  28.126  10.323   3.656
17550W        W85924  18.666  14.694   0.456
17551W        W85925  15.147  38.427   2.844
17552W        W85926   0.362   5.198   0.899
17553W        W85927  37.968  38.902  12.362
17554W        W85928  33.940  28.139   0.753
17555W        W85929   2.226  31.489  14.832
17556W        W85930  41.468  23.539  13.429
17557W        W85931  41.330   1.803  11.048
17558W        W85932   4.225  12.313   1.864
17559W        W85933  25.083  39.824  11.065
17560W        W85934   7.356   3.950   3.658
17561W        W85935  19.235  18.073   4.135
17562W        W85936  13.768   2.346   1.804
17563W        W85937  11.736  34.437   3.342
17564W        W85938  10.863   3.878   4.214
17565W        W85939   3.760  22.102   0.824
17566W        W85940  23.578  24.560  10.549
17567W        W85941  33.395  39.508  10.957
17568W        W85942   4.786  23.096   0.757
17569W        W85943  14.222  21.602   2.183
17570W        W85944  35.969  28.455   3.233
17571W        W85945  44.851  35.970  14.843
17572W        W85946   6.380  34.421   2.220
17573W        W85947   3.784  19.142   0.363
17574W        W85948   0.256  36.545  10.405
17575W        W85949  25.615  31.135   1.302
17576W        W85950  37.836  26.580  13.407
17577W        W85951  15.169  42.424   4.647
17578W        W85952  26.061  16.291  14.025
17579W        W85953  22.056  20.635   1.825
17580W        W85954  18.757  30.442  10.122
17581W        W85955  17.652   3.388   3.843
17582W        W85956  15.581  16.077   1.869
17583W        W85957  21.658  31.131   9.995
17584W        W85958  39.041  24.521  13.064
17585W        W85959  14.706  23.626  11.925
17586W        W85960  39.990  17.688   0.826
17587W        W85961  31.599  35.084   0.478
17588W        W85962  40.535  27.445  14.306
17589W        W85963  43.879   9.786   1.827
17590W        W85964   7.804   0.380  12.976
17591W        W85965  32.619  20.171   3.366
17592W        W85966  37.951  16.623  13.976
17593W        W85967  44.767  17.061  13.478
17594W        W85968  25.053  21.639  14.812
17595W        W85969   1.892  23.022   4.753
17596W        W85970  39.846  22.733  11.589
17597W        W85971   1.395   1.857   2.192
17598W        W85972  36.909  42.313  12.952
17599W        W85973   0.284  42.332   0.853
17600W        W85974   9.696  28.462  14.802
17601W        W85975  13.310  37.541  14.901
17602W        W85976   5.330   4.215  12.397
17603W        W85977  18.585   2.274   4.271
17604W        W85978  20.638  29.011   1.800
17605W        W85979  11.709  34.496  11.883
17606W        W85980  44.498  23.537   3.637
17607W        W85981  25.982  28.019   2.852
17608W        W85982  38.911  36.023  12.353
17609W        W85983  15.124   2.246  11.584
17610W        W85984  11.321  10.830   0.328
17611W        W85985  19.704  38.043  14.344
17612W        W85986  24.069  12.708  10.119
17613W        W85987  35.064  44.974   0.748
17614W        W85988  42.350  16.767   2.833
17615W        W85989  31.030  41.810  10.504
17616W        W85990   2.786  42.833  14.854
17617W        W85991   1.315  24.572  10.956
17618W        W85992  11.825   7.277   1.791
17619W        W85993  22.017  13.614   0.343
17620W        W85994   7.856  12.700   1.715
17621W        W85995  23.510  16.090   3.674
17622W        W85996  11.649  26.036   3.323
17623W        W85997  43.917   3.893  13.875
17624W        W85998   1.873  11.664   5.139
17625W        W85999  13.684   9.308   2.383
17626W        W86000  34.995   4.303  12.492
17627W        W86001  21.619   7.841  14.915
17628W        W86002   3.777  29.958   0.249
17629W        W86003  19.609   2.408  14.385
17630W        W86004  13.768  12.318   4.649
17631W        W86005  33.021  19.200  10.971
17632W        W86006  25.593  13.162  14.340
17633W        W86007  29.136   2.332  13.896
17634W        W86008  28.154  20.090   2.396
17635W        W86009  34.565  19.082  11.580
17636W        W86010  41.808  20.177  14.408
17637W        W86011  34.570  20.683   0.261
17638W        W86012   2.902  25.196   4.709
17639W        W86013  22.508  10.145  14.816
17640W        W86014  17.759  24.585  14.814
17641W        W86015  21.157  19.755   3.281
17642W        W86016  31.638   9.214  14.394
17643W        W86017  32.104  35.053   4.669
17644W        W86018  20.603  12.133   0.326
17645W        W86019  11.215  29.057  13.904
17646W        W86020  22.700   7.711   1.284
17647W        W86021  23.578  13.724  13.820
17648W        W86022  14.597  18.264   3.814
17649W        W86023  42.436  25.593   3.672
17650W        W86024  26.594  43.938  14.363
17651W        W86025  10.377  10.152   3.326
17652W        W86026  35.857  40.398  13.429
17653W        W86027   7.906   4.304  12.353
17654W        W86028  18.764  23.610  13.344
17655W        W86029  18.095   0.972   2.783
17656W        W86030   6.867  39.898   4.659
17657W        W86031   3.302  38.479  14.943
17658W        W86032  35.043   5.216   1.243
17659W        W86033  17.733   3.807   2.299
17660W        W86034  43.425   6.716   4.816
17661W        W86035  39.831   0.860   1.373
17662W        W86036  19.741  21.632  13.821
17663W        W86037  42.286  23.120   0.801
17664W        W86038  11.721  18.255  11.411
17665W        W86039  20.056  14.797  14.303
17666W        W86040  37.529  17.645   0.425
17667W        W86041   3.757  21.196  14.356
17668W        W86042  32.450   5.862   3.849
17669W        W86043   9.744  30.058   9.556
17670W        W86044  44.454  30.486   4.150
17671W        W86045  26.163  29.521   2.388
17672W        W86046  26.057  35.859   2.295
17673W        W86047  26.198  27.084   2.710
17674W        W86048  37.341  34.550   1.919
17675W        W86049  38.523  34.386  10.419
17676W        W86050  36.863  33.921  13.053
17677W        W86051   2.394  33.420   3.640
17678W        W86052  14.252   7.843   1.237
17679W        W86053  19.606  34.391  12.040
17680W        W86054  31.438  21.557  11.889
17681W        W86055  13.732  31.989   0.900
17682W        W86056  42.976  24.528  10.478
17683W        W86057  10.311  34.389  13.406
17684W        W86058   2.242  40.408  10.091
17685W        W86059  42.009   8.205  12.016
17686W        W86060  38.956  27.524   5.144
17687W        W86061   2.744  15.668   1.420
17688W        W86062  15.100  32.058  13.880
17689W        W86063  37.009  32.948  12.011
17690W        W86064   7.297   0.887   4.715
17691W        W86065  23.650   4.881   2.256
17692W        W86066  36.362   8.829  13.904
17693W        W86067  28.045  30.065   2.256
17694W        W86068  33.882  16.660  13.982
17695W        W86069  42.480  27.024   4.270
17696W        W86070   2.251  33.605  11.502
17697W        W86071  29.974  15.643  11.406
17698W        W86072  44.009  28.607  12.075
17699W        W86073  34.411   9.872   4.158
17700W        W86074  43.282  39.341  11.958
17701W        W86075  29.131  11.367  12.826
17702W        W86076  29.488  11.697  12.391
17703W        W86077  21.166  35.983  10.490
17704W        W86078  44.337  17.227   4.643
17705W        W86079  41.943  44.847   0.327
17706W        W86080  31.046  25.079   9.945
17707W        W86081  23.535  44.771   1.228
17708W        W86082  31.520   7.829  12.054
17709W        W86083  10.720  10.286  12.374
17710W        W86084  15.251   2.351   0.430
17711W        W86085  32.583   8.752   4.343
17712W        W86086  18.638  15.142  11.926
17713W        W86087   2.725  44.887   0.346
17714W        W86088  20.564  30.073   0.273
17715W        W86089  29.484  41.496   0.842
17716W        W86090  23.508  18.264   0.938
17717W        W86091  28.080  27.469   4.719
17718W        W86092  23.084  14.272  14.796
17719W        W86093  14.826  14.340  13.498
17720W        W86094  19.276  41.967  14.331
17721W        W86095  20.567  13.243   3.706
17722W        W86096  10.740  36.427   0.336
17723W        W86097  24.055  27.075   4.809
17724W        W86098  22.578  16.716   2.847
17725W        W86099  31.123  10.673   1.259
17726W        W86100  28.442   4.889  10.915
17727W        W86101  15.807  37.867  13.548
17728W        W86102  26.685  27.064  12.470
17729W        W86103  44.901  18.142  14.367
17730W        W86104  27.977  34.605  13.926
17731W        W86105  32.049  43.774  13.522
17732W        W86106   0.970   4.802   4.776
17733W        W86107   0.300  22.997  12.447
17734W        W86108  23.076  38.555  11.613
17735W        W86109  27.966  26.020  12.555
17736W        W86110  16.144  15.200   4.216
17737W        W86111  17.278  20.114   0.434
17738W        W86112  17.077  32.571  12.852
17739W        W86113  35.975   9.240  10.941
17740W        W86114  38.047  33.064  12.952
17741W        W86115  10.697  20.033  10.053
17742W        W86116  33.476  43.959   4.818
17743W        W86117  35.460  11.234  11.496
17744W        W86118  19.246  20.253  13.889
17745W        W86119  20.719  18.256   4.313
17746W        W86120  38.022   5.887   4.313
17747W        W86121  31.015   9.869   0.426
17748W        W86122   7.705   2.471  12.969
17749W        W86123   8.371  14.249   3.772
17750W        W86124   8.181  23.609   1.883
17751W        W86125   5.355  14.201  13.918
17752W        W86126  42.464  12.136  13.063
17753W        W86127   0.961  35.505   0.871
17754W        W86128  23.044  28.161  11.521
17755W        W86129   8.387  30.632   1.831
17756W        W86130   5.795  24.643   2.368
17757W        W86131  44.351   7.690  14.994
17758W        W86132  26.701  30.060   2.355
17759W        W86133   2.237  27.024   2.299
17760W        W86134  33.414  41.965  14.402
17761W        W86135  26.048   4.833   4.816
17762W        W86136  22.559  41.860  12.995
17763W        W86137  41.000  18.572   0.409
17764W        W86138  38.880  16.619  13.539
17765W        W86139  44.968  19.105  11.028
17766W        W86140   7.771  24.669  11.051
17767W        W86141   6.369  39.974  13.062
17768W        W86142  33.880  44.396   3.828
17769W        W86143  25.694  13.178   1.916
17770W        W86144  41.532  44.294   2.225
17771W        W86145   5.272  25.622  13.476
17772W        W86146  17.753  11.745   3.158
17773W        W86147   6.701   3.398   3.161
17774W        W86148  42.803  22.168   1.754
17775W        W86149   1.398  11.253  13.917
17776W        W86150   4.707  36.008  11.057
17777W        W86151   3.456  27.969   5.114
17778W        W86152  32.427  43.397   3.855
17779W        W86153  38.072  20.113  10.445
17780W        W86154  24.118  20.146  10.570
17781W        W86155  17.168  42.373   1.863
17782W        W86156  17.789  14.655   2.320
17783W        W86157  36.865   6.192   3.275
17784W        W86158  27.115  23.552  10.641
17785W        W86159   1.310  40.988   0.412
17786W        W86160   7.750  26.130   0.476
17787W        W86161  37.871  28.529  12.082
17788W        W86162   3.287  19.170  13.868
17789W        W86163  19.150  17.756   3.226
17790W        W86164  17.752   2.367  14.844
17791W        W86165  37.432  17.719  10.636
17792W        W86166   6.881  21.677   0.369
17793W        W86167  30.440  12.222   4.220
17794W        W86168  14.689  25.629  10.948
17795W        W86169   2.865  20.681  11.442
17796W        W86170  11.149  19.164  12.459
17797W        W86171  43.299  22.675   3.211
17798W        W86172  21.749  23.501  12.576
17799W        W86173  42.351  16.692   2.388
17800W        W86174  26.538  14.825  13.980
17801W        W86175  41.446  29.487   1.718
17802W        W86176  32.038   5.299  14.304
17803W        W86177  34.558   0.756   3.338
17804W        W86178   5.195  19.146   1.402
17805W        W86179  13.701   3.855  14.477
17806W        W86180   2.745  39.314   4.769
17807W        W86181   1.823   5.377   0.466
17808W        W86182  11.759  27.648  10.513
17809W        W86183  12.702  35.541   2.732
17810W        W86184  38.835  20.728  14.275
17811W        W86185  10.236  21.554   2.724
17812W        W86186  12.765  28.452   2.705
17813W        W86187  32.577   7.793  14.317
17814W        W86188  24.221  10.739   2.261
17815W        W86189  28.996  17.065   3.250
17816W        W86190  17.691  27.562   2.897
17817W        W86191   3.799  23.537  14.849
17818W        W86192   7.397  38.365   4.206
17819W        W86193  38.973  12.668  13.407
17820W        W86194  12.708   5.878  14.499
17821W        W86195  12.235  30.547   0.328
17822W        W86196  14.676  23.131   4.335
17823W        W86197  32.583  35.377  13.941
17824W        W86198  17.203  41.358   1.874
17825W        W86199   8.840  39.440  11.038
17826W        W86200  32.427   8.358   1.921
17827W        W86201   2.283  31.431  10.610
17828W        W86202  36.407  38.053   1.399
17829W        W86203  30.529   5.270  12.427
17830W        W86204   4.402  13.328   4.292
17831W        W86205  41.989  40.486  12.356
17832W        W86206  25.157   9.651  13.000
17833W        W86207  27.079  28.654   1.214
17834W        W86208  40.801   3.370  14.370
17835W        W86209  41.902  33.018  12.412
17836W        W86210  22.679  21.222   4.786
17837W        W86211  39.456   7.716   0.404
17838W        W86212   2.417  18.673   2.730
17839W        W86213  17.218  14.297   3.213
17840W        W86214  35.096   1.271  13.960
17841W        W86215  24.040  34.468  13.900
17842W        W86216   4.862   8.674  14.395
17843W        W86217  20.073  14.688   2.834
17844W        W86218   4.432  38.408  12.355
17845W        W86219  27.088   5.923  12.904
17846W        W86220  25.587  15.277   1.778
17847W        W86221  17.560  38.342   0.422
17848W        W86222  26.131  16.692  13.501
17849W        W86223  14.777  18.275   4.256
17850W        W86224   3.269  11.856  14.859
17851W        W86225  25.058  30.513   1.351
17852W        W86226  37.993  24.105  11.408
17853W        W86227  10.234  14.213   2.870
17854W        W86228  13.104  20.758  12.919
17855W        W86229  32.506  16.118  11.901
17856W        W86230  22.080  20.653   2.216
17857W        W86231  13.230  29.940  14.280
17858W        W86232  10.859  36.923   0.938
17859W        W86233  31.992  23.705  10.408
17860W        W86234  16.801  39.019  13.054
17861W        W86235  24.685  14.219  11.503
17862W        W86236  21.537  30.088   2.320
17863W        W86237  40.028   3.783  12.474
17864W        W86238  41.004  15.222   2.382
17865W        W86239  36.545   6.824   4.263
17866W        W86240  42.805  11.829  12.073
17867W        W86241  40.970  23.196   0.738
17868W        W86242  22.188   4.875  10.585
17869W        W86243  26.613   1.964  14.926
17870W        W86244   4.813   0.405  10.977
17871W        W86245  32.923  14.686   4.787
17872W        W86246   3.718  13.281  10.521
17873W        W86247   0.339  26.190   0.896
17874W        W86248   2.270  29.018  10.603
17875W        W86249  11.822  12.648   0.269
17876W        W86250   6.253  18.679   9.935
17877W        W86251   1.743  14.104   0.303
17878W        W86252  18.249   3.820  11.054
17879W        W86253   9.213   7.362   2.696
17880W        W86254  22.510  35.407  14.299
17881W        W86255  28.090  29.922   0.834
17882W        W86256   3.296   5.315   0.892
17883W        W86257  37.852  29.049   1.848
17884W        W86258  37.837  29.581  11.916
17885W        W86259   6.876  32.512   4.737
17886W        W86260  23.042  42.928  10.631
17887W        W86261   8.340  25.100  14.942
17888W        W86262   3.341  15.687  11.601
17889W        W86263  15.777  37.337   4.659
17890W        W86264  22.218  34.417   0.836
17891W        W86265  22.641  41.792  14.970
17892W        W86266  18.707   1.930   5.163
17893W        W86267   9.760  25.660   0.844
17894W        W86268  14.733  29.476   4.146
17895W        W86269  28.608   3.731   4.802
17896W        W86270   7.263  44.482   2.751
17897W        W86271   1.784  25.053   4.119
17898W        W86272  43.310  12.122  10.635
17899W        W86273  42.389  24.196  11.508
17900W        W86274  24.127   4.778  13.896
17901W        W86275  15.651   6.888  13.369
17902W        W86276  35.853  44.862  14.369
17903W        W86277   4.414  20.703   2.774
17904W        W86278  29.641  38.968  11.525
17905W        W86279  36.048   1.958  11.543
17906W        W86280  25.555  34.512   3.233
17907W        W86281  16.677  42.779   1.439
17908W        W86282  17.792   0.322   4.213
17909W        W86283  13.601  26.968   0.460
17910W        W86284  42.983  10.186  10.473
17911W        W86285  23.624   6.331  13.492
17912W        W86286  27.563  20.565  14.844
17913W        W86287  26.698  33.548  11.023
17914W        W86288  30.133  13.296  10.555
17915W        W86289  33.509  41.909   1.867
17916W        W86290  43.431  38.936  10.545
17917W        W86291  31.919  12.703  13.491
17918W        W86292  34.009  14.309  13.366
17919W        W86293  26.641  12.279  12.886
17920W        W86294   2.319  18.764  11.100
17921W        W86295   2.298  14.309   0.423
17922W        W86296  23.236  11.811   0.328
17923W        W86297   3.220  35.065   2.348
17924W        W86298  31.062  37.347  12.348
17925W        W86299  41.837  21.572   0.433
17926W        W86300  17.613   0.379   0.913
17927W        W86301  41.466   1.422   4.727
17928W        W86302  44.319  30.507  10.074
17929W        W86303  24.107   4.263   0.342
17930W        W86304   2.421  15.666   0.892
17931W        W86305   9.168   9.268  11.107
17932W        W86306   5.348  32.915  10.958
17933W        W86307  20.567  17.662  14.346
17934W        W86308  44.838  32.392  12.477
17935W        W86309  44.305   9.316   3.696
17936W        W86310  30.977   0.326   1.728
17937W        W86311  38.916   7.171   3.276
17938W        W86312  23.553   1.464  11.496
17939W        W86313  14.687  29.509  11.094
17940W        W86314  17.271   4.291  13.436
17941W        W86315  39.434  36.350   3.653
17942W        W86316  35.515  33.600   2.369
17943W        W86317  14.663  27.193   3.369
17944W        W86318  43.449  29.958  11.419
17945W        W86319  38.831   4.848  14.839
17946W        W86320  44.944  13.315   4.221
17947W        W86321  22.568  15.619   2.819
17948W        W86322   9.194   8.765  11.419
17949W        W86323  21.646  34.046  12.033
17950W        W86324  31.113  24.191  11.401
17951W        W86325  30.037  28.665  10.932
17952W        W86326  40.928  25.579  13.345
17953W        W86327   1.384  22.522   4.798
17954W        W86328  23.501  40.306   4.747
17955W        W86329   6.732  19.602  10.632
17956W        W86330  40.433  44.498  12.872
17957W        W86331  15.807  24.145  10.991
17958W        W86332   4.854  10.749  13.958
17959W        W86333   2.967  21.024  12.888
17960W        W86334  36.524  40.443  12.532
17961W        W86335  17.701  20.273  11.856
17962W        W86336  28.536  25.665   0.933
17963W        W86337  32.060  33.881   2.673
17964W        W86338  12.692  36.035   0.894
17965W        W86339  21.096  29.974  11.985
17966W        W86340  39.494  44.376   3.381
17967W        W86341  31.585  10.691   1.887
17968W        W86342   7.260   0.399  14.446
17969W        W86343  34.965  19.624  11.870
17970W        W86344  30.524  18.698   2.251
17971W        W86345  15.731   4.360  11.555
17972W        W86346  24.976  19.097   1.872
17973W        W86347   1.831   3.788  11.993
17974W        W86348  41.310  11.682   4.347
17975W        W86349  40.357   8.181   0.417
17976W        W86350  33.595  16.154  13.360
17977W        W86351  44.897  40.475   0.788
17978W        W86352  37.509  11.336   3.844
17979W        W86353   0.759   1.857   0.278
17980W        W86354  15.750   5.898  10.543
17981W        W86355  26.495  19.779   3.286
17982W        W86356  14.619   1.804   9.998
17983W        W86357  15.195  39.816   0.793
17984W        W86358  35.985  32.945   3.642
17985W        W86359  28.633  42.476   4.679
17986W        W86360  14.229  39.855   4.734
17987W        W86361   2.290   2.778  11.977
17988W        W86362  26.618  33.950  13.484
17989W        W86363  39.526  40.964   4.190
17990W        W86364  38.444  32.936   2.361
17991W        W86365  16.650  41.888   4.145
17992W        W86366  24.708  43.381  10.974
17993W        W86367  26.496   9.378  11.949
17994W        W86368  27.164  30.419   0.411
17995W        W86369  11.340  37.072   3.684
17996W        W86370   2.407  41.310   5.306
17997W        W86371  20.082  34.532   3.794
17998W        W86372   3.895  19.115   4.251
17999W        W86373  27.116  39.943   2.395
18000W        W86374   6.886  20.683  12.517
18001W        W86375   9.847  17.565   0.761
18002W        W86376   9.167  39.329   3.832
18003W        W86377   7.680   2.901   9.563
18004W        W86378  39.869  19.661  11.503
18005W        W86379  31.912  21.545  13.836
18006W        W86380  44.385  22.130  10.072
18007W        W86381  29.635  23.142   4.134
18008W        W86382   5.437  16.214   4.598
18009W        W86383   7.233   6.192  13.476
18010W        W86384   3.339  20.266  11.121
18011W        W86385  17.700  20.719   0.820
18012W        W86386  20.163   3.278  12.885
18013W        W86387  12.236   3.933  10.510
18014W        W86388   9.285   9.280   1.892
18015W        W86389  17.558  35.051   2.844
18016W        W86390  39.987  14.689   2.758
18017W        W86391  16.211  15.236   3.364
18018W        W86392  12.338  21.167  13.877
18019W        W86393  27.586  32.537  14.306
18020W        W86394  18.213  32.415  11.378
18021W        W86395  34.590   2.353   4.721
18022W        W86396   6.314  43.820   1.925
18023W        W86397  32.549  29.097   9.991
18024W        W86398   3.883  25.637   4.680
18025W        W86399   4.823  12.737   2.886
18026W        W86400  35.587  27.529  13.044
18027W        W86401  29.965  20.184   1.302
18028W        W86402   7.759  33.551  13.336
18029W        W86403   2.900  14.110   3.805
18030W        W86404  27.038  19.206   0.954
18031W        W86405  38.967   4.297  14.974
18032W        W86406  14.797   9.268   4.728
18033W        W86407  14.144   1.344   0.349
18034W        W86408  26.200  25.504   4.316
18035W        W86409  36.462   3.404   2.372
18036W        W86410   6.286   6.871   3.730
18037W        W86411   8.892  28.132   3.831
18038W        W86412  31.964  25.963  14.393
18039W        W86413  32.632  39.398   3.339
18040W        W86414  30.489  18.263  13.829
18041W        W86415   0.861  43.510  11.981
18042W        W86416  24.685  29.563   0.294
18043W        W86417  11.158  22.538   1.740
18044W        W86418  42.989  23.618   1.825
18045W        W86419   8.791   4.732  13.826
18046W        W86420  24.551  17.747   0.791
18047W        W86421  14.310  22.014  10.937
18048W        W86422  28.992   5.882  13.945
18049W        W86423  23.192  22.090  10.981
18050W        W86424   7.765   4.707  14.975
18051W        W86425  22.599  44.284   5.238
18052W        W86426   5.765  37.019  13.024
18053W        W86427  21.106  19.586  13.385
18054W        W86428  11.792  27.965   1.902
18055W        W86429  16.106  31.459   0.282
18056W        W86430  41.983  39.452   3.801
18057W        W86431   0.255  44.405   2.722
18058W        W86432  27.184   3.714   1.363
18059W        W86433   8.191   1.967   2.776
18060W        W86434  35.558  20.170   3.783
18061W        W86435   0.756  29.490  14.472
18062W        W86436  26.554   2.878   4.252
18063W        W86437  32.439  27.651  13.457
18064W        W86438  38.429  32.426  10.904
18065W        W86439  24.171  38.912  11.948
18066W        W86440  12.359  12.778  10.596
18067W        W86441  27.184  39.813  14.446
18068W        W86442  32.960  26.100  13.519
18069W        W86443  10.818  44.291  11.475
18070W        W86444  43.766  44.997  14.878
18071W        W86445  12.303  32.140   4.330
18072W        W86446  37.054  20.068  11.035
18073W        W86447  10.379  13.630   1.311
18074W        W86448   5.860  14.164   4.599
18075W        W86449  35.971   7.869  12.503
18076W        W86450  25.607  41.527   2.746
18077W        W86451  42.930  10.643   4.243
18078W        W86452  10.298  19.576  11.598
18079W        W86453  34.504  33.455   2.362
18080W        W86454  23.513  30.498   2.667
18081W        W86455   3.366  38.409   3.178
18082W        W86456  14.755  35.915   1.218
18083W        W86457  31.421  32.039  13.526
18084W        W86458  34.370  31.151  13.813
18085W        W86459  10.140  16.786   4.739
18086W        W86460  42.782  26.528   3.196
18087W        W86461  29.516   4.765  11.941
18088W        W86462  42.981  19.650   2.396
18089W        W86463  39.959  44.336   0.910
18090W        W86464  14.170  10.238   3.218
18091W        W86465   0.781  11.229  12.551
18092W        W86466  17.794   0.455  10.415
18093W        W86467   5.801  33.499  12.989
18094W        W86468  27.530  25.175  14.362
18095W        W86469   2.249   3.830   2.876
18096W        W86470  36.554  10.227   3.316
18097W        W86471   3.853  37.841   4.781
18098W        W86472  35.380  30.506  12.513
18099W        W86473  34.397  26.461   5.215
18100W        W86474  43.420  14.163  14.390
18101W        W86475   1.816  15.139  12.826
18102W        W86476   0.827  40.463   1.267
18103W        W86477  19.266  10.792   3.363
18104W        W86478  25.479  35.564   2.290
18105W        W86479  20.740  36.459  14.308
18106W        W86480  30.002  35.855   0.897
18107W        W86481  20.735  25.628   3.163
18108W        W86482  15.786  40.343   1.897
18109W        W86483  14.786  16.124  13.031
18110W        W86484  15.727   8.744  11.389
18111W        W86485  10.232  19.214  11.123
18112W        W86486  29.978   3.279   4.702
18113W        W86487  27.959  18.175  10.524
18114W        W86488  30.492  30.974   4.663
18115W        W86489  32.551   3.441   3.654
18116W        W86490  36.510   0.963   1.254
18117W        W86491   8.295  10.250   0.426
18118W        W86492  10.158   8.701   3.727
18119W        W86493  13.719  32.476   3.189
18120W        W86494  20.536  19.248  12.503
18121W        W86495  30.048  37.012  10.554
18122W        W86496  31.494  28.653   1.857
18123W        W86497  28.485   0.318   5.621
18124W        W86498  24.207  23.154  14.858
18125W        W86499  22.540  36.546   4.666
18126W        W86500  40.469  20.221   1.435
18127W        W86501   8.225   8.208  10.422
18128W        W86502   0.435   1.396  12.979
18129W        W86503  32.999  25.136   0.954
18130W        W86504  20.114  40.835   3.177
18131W        W86505  14.806  28.947   2.882
18132W        W86506  14.619  22.711  12.346
18133W        W86507   6.891  37.856  11.013
18134W        W86508  33.551  26.161   2.314
18135W        W86509  32.136  15.708  13.377
18136W        W86510  22.068  23.046  12.054
18137W        W86511  25.084  12.682  11.880
18138W        W86512  33.922   0.398  13.316
18139W        W86513  23.637  16.659  12.846
18140W        W86514  24.662   9.185   3.696
18141W        W86515  13.197  35.506   0.346
18142W        W86516  19.769  21.606  11.871
18143W        W86517  13.720  27.994  14.915
18144W        W86518   3.361  15.739   3.238
18145W        W86519  42.922  18.267  13.496
18146W        W86520  11.781  34.924  13.535
18147W        W86521  43.846  41.024  11.437
18148W        W86522  32.070  44.007  10.037
18149W        W86523   7.872   4.787   4.627
18150W        W86524  24.154  13.211  13.414
18151W        W86525   9.243   0.281   0.828
18152W        W86526   1.824  19.160  11.551
18153W        W86527  15.621  18.699   4.793
18154W        W86528  17.695  35.506   0.404
18155W        W86529  14.731  35.916  11.048
18156W        W86530  27.612   6.310   2.820
18157W        W86531  32.076  39.541   1.928
18158W        W86532  31.404  30.128  14.463
18159W        W86533   9.363  40.451  12.445
18160W        W86534   1.797  34.386   3.794
18161W        W86535  26.697  28.094  10.974
18162W        W86536   3.786  32.107  10.946
18163W        W86537   1.738  31.918  11.030
18164W        W86538   1.938  28.617  14.347
18165W        W86539  21.091  14.782  14.819
18166W        W86540  37.431  36.458   3.713
18167W        W86541  33.489  19.614   5.199
18168W        W86542   3.739   6.233   0.243
18169W        W86543  27.576   9.789   0.808
18170W        W86544  41.947  15.777   1.833
18171W        W86545   9.878  27.630  11.006
18172W        W86546  36.562   4.777   0.270
18173W        W86547  11.645   6.417   3.177
18174W        W86548  24.171  28.118  14.810
18175W        W86549   8.671  32.127  10.461
18176W        W86550  36.016  39.556  14.988
18177W        W86551   3.250  14.226   4.727
18178W        W86552  10.735  35.508  10.571
18179W        W86553  16.111  38.848  13.009
18180W        W86554  19.201  44.403  12.072
18181W        W86555  35.469  36.545  14.859
18182W        W86556  24.495   9.249  10.531
18183W        W86557  21.139  20.050   3.382
18184W        W86558   6.760   7.255   2.373
18185W        W86559   7.297  33.433  11.468
18186W        W86560  39.337  42.011  13.547
18187W        W86561  12.662  15.633  14.499
18188W        W86562  28.617   1.309   2.354
18189W        W86563  12.260  37.575   0.371
18190W        W86564  23.555  39.456  13.005
18191W        W86565  30.649  19.219  12.448
18192W        W86566   6.821  28.100  10.637
18193W        W86567   7.670   1.456   4.136
18194W        W86568   4.446   7.719  11.891
18195W        W86569  27.025   3.799  14.919
18196W        W86570  26.678   9.263   2.394
18197W        W86571   4.366  11.197   4.835
18198W        W86572   0.840  30.486   4.831
18199W        W86573  10.673  12.315   4.755
18200W        W86574   8.809   7.713  14.432
18201W        W86575  28.453  42.369  14.989
18202W        W86576  39.007  38.834   4.285
18203W        W86577  29.591  11.659  13.520
18204W        W86578  35.907  11.262  14.290
18205W        W86579  22.704  29.051   3.801
18206W        W86580  25.625   6.841   2.779
18207W        W86581  32.954  38.327   3.268
18208W        W86582  18.653  14.129   5.313
18209W        W86583  43.874  32.137   1.231
18210W        W86584  14.256  33.876   0.442
18211W        W86585  24.063   1.814   0.888
18212W        W86586  24.147  22.545  13.037
18213W        W86587  44.445   7.266   1.330
18214W        W86588  18.209  32.449  14.765
18215W        W86589  26.462  17.721   3.752
18216W        W86590  42.974   1.308   4.195
18217W        W86591   9.355  17.588  14.986
18218W        W86592  10.149  34.028  12.048
18219W        W86593  14.694  30.478   9.939
18220W        W86594  29.483  41.810   2.247
18221W        W86595   9.651   4.750   1.763
18222W        W86596  24.148  21.250   2.249
18223W        W86597  22.744   0.480   1.343
18224W        W86598  33.570  44.774   3.204
18225W        W86599  10.724  27.606  11.513
18226W        W86600  19.639  38.896   0.931
18227W        W86601   0.355   1.469   0.464
18228W        W86602  22.584  28.969  13.421
18229W        W86603   6.274  43.795  12.443
18230W        W86604  17.208  40.954  13.993
18231W        W86605  22.056  18.086   4.225
18232W        W86606  30.509  12.202  11.536
18233W        W86607  22.201  39.862  13.323
18234W        W86608   1.753  18.669  10.608
18235W        W86609  28.167  24.584   0.787
18236W        W86610  33.505  30.437   3.264
18237W        W86611  23.618  34.869   2.336
18238W        W86612  18.723  30.527   1.922
18239W        W86613  10.380  41.028  12.366
18240W        W86614   5.383   8.794  11.096
18241W        W86615  38.054  31.041  10.941
18242W        W86616  30.945  37.855  14.502
18243W        W86617  23.000  31.592   9.622
18244W        W86618  27.616   3.333  13.808
18245W        W86619  10.825  28.022   2.279
18246W        W86620  26.458  37.457  14.981
18247W        W86621  15.176  14.106  12.879
18248W        W86622  23.058  14.135   3.347
18249W        W86623  22.097  30.487  13.528
18250W        W86624  25.008  13.633   2.814
18251W        W86625   7.890  43.452  11.006
18252W        W86626  28.076  14.108  10.904
18253W        W86627  22.168  29.491   1.373
18254W        W86628  15.308  14.592  10.974
18255W        W86629   5.919  19.750   3.216
18256W        W86630  29.119  17.225  12.936
18257W        W86631  37.863  20.641   4.177
18258W        W86632  38.822  32.391  14.933
18259W        W86633   9.689  43.324   2.817
18260W        W86634  30.456  35.901  12.863
18261W        W86635  39.980   0.854   1.841
18262W        W86636   1.795  36.961  14.278
18263W        W86637  22.031  29.098  14.394
18264W        W86638  35.478   8.189  13.361
18265W        W86639  34.444  37.453   2.862
18266W        W86640  28.603  40.837  11.860
18267W        W86641  24.678  39.993   1.753
18268W        W86642  36.906  16.761   2.404
18269W        W86643  29.022   8.679   1.380
18270W        W86644  30.580   7.824   1.815
18271W        W86645  35.867  31.620   2.367
18272W        W86646  31.434  21.028   0.304
18273W        W86647  36.509  33.384   2.387
18274W        W86648  43.999  26.171   2.859
18275W        W86649  44.838   9.168  12.362
18276W        W86650   2.408  28.474   0.950
18277W        W86651  11.138  18.736   0.789
18278W        W86652   5.438   5.314  13.381
18279W        W86653  38.966  16.114  12.000
18280W        W86654  38.041  30.131   2.808
18281W        W86655   4.728   9.863  11.094
18282W        W86656  22.689   1.858  10.510
18283W        W86657  20.587  31.518   1.381
18284W        W86658   9.235   5.870   1.768
18285W        W86659  38.548  39.974   2.251
18286W        W86660  21.202  30.921  11.054
18287W        W86661  39.408  17.248  13.847
18288W        W86662   2.248   8.324   0.258
18289W        W86663  27.979   8.655   0.261
18290W        W86664  33.393   6.224   2.252
18291W        W86665  17.749  39.032   2.269
18292W        W86666  21.654  44.903   1.725
18293W        W86667  15.709  39.059  13.497
18294W        W86668   2.446  37.076  13.365
18295W        W86669  10.304  17.123  12.015
18296W        W86670  37.916  13.287  11.918
18297W        W86671  23.107  40.509  13.353
18298W        W86672  13.249  25.671   2.669
18299W        W86673  39.346  24.660   0.264
18300W        W86674  42.935  35.088  14.981
18301W        W86675  26.031  43.847   1.866
18302W        W86676  19.128  25.638  10.526
18303W        W86677  23.079  31.424  12.852
18304W        W86678  13.286  25.164  14.933
18305W        W86679  41.007  13.615   4.644
18306W        W86680   2.253  17.163  14.428
18307W        W86681  36.013  33.566   0.408
18308W        W86682  28.966   7.374  14.017
18309W        W86683  37.980  30.977   0.794
18310W        W86684   1.908  33.917  11.952
18311W        W86685  24.668  38.414   1.285
18312W        W86686  14.303  16.222  11.861
18313W        W86687  14.182   6.383   1.334
18314W        W86688  37.026  28.439  11.083
18315W        W86689  38.048   4.335  13.989
18316W        W86690   9.155  36.844  11.058
18317W        W86691  12.319  15.219   2.324
18318W        W86692   2.424  44.284   2.716
18319W        W86693  27.613  14.679   2.705
18320W        W86694  22.150  36.531  14.899
18321W        W86695   6.726  15.704  13.504
18322W        W86696  44.962  26.686   4.732
18323W        W86697  42.464   5.869  12.942
18324W        W86698   3.452  30.161   4.633
18325W        W86699  22.164   3.314   2.692
18326W        W86700  22.685   1.392   1.365
18327W        W86701  43.012  26.702  12.021
18328W        W86702  11.770  19.603  13.014
18329W        W86703  12.731  11.337  12.044
18330W        W86704  13.846  38.822   1.886
18331W        W86705  12.717   9.316   3.807
18332W        W86706   2.955  18.129   2.399
18333W        W86707   7.390  39.960   1.390
18334W        W86708  19.674   6.698   3.712
18335W        W86709  34.917  11.802   1.310
18336W        W86710  42.346  36.938  13.914
18337W        W86711  12.362   6.423  12.977
18338W        W86712  30.100   4.386  14.504
18339W        W86713   9.832  10.678  14.453
18340W        W86714  17.686   1.802   2.891
18341W        W86715  10.852  25.146  13.843
18342W        W86716  44.429   1.437   4.616
18343W        W86717  28.117  29.514  14.371
18344W        W86718   2.466   8.810  11.383
18345W        W86719  38.546  27.650   3.219
18346W        W86720  40.809  28.501  14.811
18347W        W86721  43.377  40.522   3.225
18348W        W86722  13.221  30.152   3.792
18349W        W86723  28.066   3.427   3.280
18350W        W86724  22.101   8.365  14.879
18351W        W86725  30.056   9.354  11.923
18352W        W86726  41.336  28.681  13.036
18353W        W86727  13.831  44.446  14.904
18354W        W86728  18.743  16.698  10.510
18355W        W86729  27.035   9.244  12.484
18356W        W86730   7.762  29.596   4.612
18357W        W86731   3.888  39.440  13.878
18358W        W86732  25.557  18.579  11.547
18359W        W86733  40.326  36.949   3.185
18360W        W86734  16.706   2.456   3.867
18361W        W86735   4.398  35.391   2.712
18362W        W86736  33.460  18.568  13.978
18363W        W86737  30.557   7.665  12.358
18364W        W86738  25.081   4.738  14.002
18365W        W86739   8.376  17.301  11.557
18366W        W86740  13.329  23.187   3.222
18367W        W86741  34.103  40.319   3.245
18368W        W86742   5.355  36.979  11.392
18369W        W86743   5.706   0.933  12.053
18370W        W86744  18.265  41.348   0.454
18371W        W86745  36.032  24.577  12.510
18372W        W86746   2.344   0.461   4.233
18373W        W86747  38.991  42.364   2.891
18374W        W86748  39.418  29.018   1.267
18375W        W86749  41.443  20.694  14.027
18376W        W86750  16.302  18.197   3.264
18377W        W86751  13.749  25.134   3.198
18378W        W86752  28.638  16.790  11.394
18379W        W86753  20.205  38.503   3.338
18380W        W86754  19.699  34.936  13.307
18381W        W86755  37.582   9.669   3.675
18382W        W86756  20.240  30.087  11.554
18383W        W86757  39.327  28.515  14.324
18384W        W86758  22.632  35.395   1.401
18385W        W86759  42.357  18.237  12.030
18386W        W86760   0.860  22.503   3.675
18387W        W86761  20.126  19.186  10.588
18388W        W86762  26.194  43.962  10.436
18389W        W86763  13.793  20.238  14.511
18390W        W86764   2.755  40.021   0.944
18391W        W86765   8.840   3.842  12.448
18392W        W86766  14.746  41.963   2.797
18393W        W86767  31.420  22.019  11.057
18394W        W86768  25.492   3.408   4.226
18395W        W86769  39.031  37.951   1.261
18396W        W86770  25.666  14.797  12.860
18397W        W86771  27.560  10.249  13.431
18398W        W86772  17.118  29.641  13.892
18399W        W86773  12.807  38.333   2.819
18400W        W86774  35.926  14.743   1.844
18401W        W86775  36.906   2.402  12.342
18402W        W86776   8.202  35.443   0.737
18403W        W86777  17.709  22.683   2.221
18404W        W86778  39.432  28.086  12.397
18405W        W86779  43.884   4.255  13.443
18406W        W86780  43.393  34.928  10.059
18407W        W86781  20.123  20.751  12.499
18408W        W86782  22.627  44.374   3.193
18409W        W86783  21.614  22.515   1.378
18410W        W86784  21.038  37.835  13.058
18411W        W86785  16.158  31.457  14.420
18412W        W86786  18.193  29.550   4.735
18413W        W86787   9.372  23.573   0.783
18414W        W86788   4.777  20.732   2.780
18415W        W86789  14.673   9.655   1.823
18416W        W86790  43.949  17.297   1.917
18417W        W86791  10.839  11.217   3.290
18418W        W86792  44.360  24.982   1.912
18419W        W86793  34.559   6.772  11.382
18420W        W86794  44.453  30.164  14.860
18421W        W86795  28.578   8.783   2.698
18422W        W86796  33.928  13.744   4.290
18423W        W86797  42.465  30.601  11.987
18424W        W86798   6.302   9.840  11.447
18425W        W86799  14.627  18.267   5.189
18426W        W86800  22.599  31.108  12.891
18427W        W86801   2.908   3.927  12.877
18428W        W86802  25.541  19.274  13.061
18429W        W86803  27.129  24.648   4.154
18430W        W86804  28.504  35.943   2.897
18431W        W86805   3.450   2.934   2.765
18432W        W86806  19.704  25.998  12.446
18433W        W86807   7.802  22.695  13.855
18434W        W86808  31.426  36.857   3.167
18435W        W86809  40.404   3.760   2.237
18436W        W86810  15.626  18.133  12.943
18437W        W86811  21.683  14.312  10.437
18438W        W86812  36.951  15.284   4.721
18439W        W86813  34.582  36.559  12.510
18440W        W86814   7.689  13.765   4.166
18441W        W86815  38.076  30.509  12.382
18442W        W86816  12.344  23.662   4.730
18443W        W86817  28.086  26.702  14.491
18444W        W86818  24.171   7.891  14.825
18445W        W86819   3.426  27.494   4.151
18446W        W86820   2.923  31.509   0.887
18447W        W86821  30.971  27.047  14.330
18448W        W86822  13.759  25.002   4.696
18449W        W86823  10.361  40.416  10.523
18450W        W86824  35.024  18.205   3.859
18451W        W86825  44.818  32.062   3.234
18452W        W86826   6.219  23.594  12.565
18453W        W86827  18.762  13.745   0.947
18454W        W86828  19.275  17.567  14.357
18455W        W86829  29.163   2.314  11.977
18456W        W86830   7.848  27.011   0.915
18457W        W86831   0.440  26.028   1.752
18458W        W86832   7.353  11.269  10.601
18459W        W86833  34.075  30.471   4.757
18460W        W86834   3.780  19.249  11.451
18461W        W86835  35.066  17.759   0.939
18462W        W86836  35.068  22.012   1.309
18463W        W86837  31.135  27.998  10.915
18464W        W86838   7.294   6.352  11.572
18465W        W86839  19.157  22.720  12.556
18466W        W86840  32.636  22.190   3.386
18467W        W86841   4.827  30.927  13.373
18468W        W86842  44.478  43.331   3.781
18469W        W86843  44.814  21.558  14.853
18470W        W86844   4.716  27.197   1.366
18471W        W86845  25.483  15.110  11.409
18472W        W86846  43.999  15.613  11.112
18473W        W86847   9.674  44.304   0.740
18474W        W86848  44.835  42.914   0.836
18475W        W86849  37.506  24.051  14.356
18476W        W86850   6.743  24.573  12.491
18477W        W86851  43.340   2.839   0.287
18478W        W86852  24.548  43.819  10.642
18479W        W86853  20.588   5.843   1.867
18480W        W86854  19.083  38.541   2.373
18481W        W86855  36.099  40.439   4.139
18482W        W86856  29.024  21.670   3.631
18483W        W86857   3.940  25.702  10.530
18484W        W86858  25.654  22.029  12.825
18485W        W86859  27.185  26.102  14.916
18486W        W86860  37.407  11.735  13.971
18487W        W86861  44.938   5.330  14.448
18488W        W86862  25.510  10.333   4.133
18489W        W86863   8.406  24.614   4.250
18490W        W86864   5.873  40.926   0.897
18491W        W86865  23.554   7.392   3.354
18492W        W86866  41.322  43.785   4.812
18493W        W86867  21.051  27.136   0.304
18494W        W86868  29.507  40.835  13.308
18495W        W86869  44.273  15.294  14.408
18496W        W86870  14.160   9.344   5.247
18497W        W86871   8.682  36.393   3.213
18498W        W86872  30.417  19.611  10.547
18499W        W86873  15.645   5.775   1.343
18500W        W86874  42.315  20.082   1.895
18501W        W86875  10.711  20.528   4.148
18502W        W86876   3.860   7.232  14.829
18503W        W86877   5.393  36.451  14.357
18504W        W86878  31.997  36.052  14.782
18505W        W86879   3.811  22.648   4.349
18506W        W86880  37.552  38.954  11.113
18507W        W86881  22.574  29.609  12.555
18508W        W86882  16.214   8.380   9.620
18509W        W86883  21.691  11.782   3.266
18510W        W86884  30.056  24.223  14.479
18511W        W86885  33.914  30.079  12.370
18512W        W86886  33.094  43.866   1.739
18513W        W86887  34.485   7.316   1.394
18514W        W86888  13.295  23.024   4.836
18515W        W86889  20.072  25.181   1.741
18516W        W86890   1.818  20.624   2.859
18517W        W86891  23.511  11.839  13.858
18518W        W86892  22.622  19.103   1.319
18519W        W86893  11.649  30.946   2.265
18520W        W86894  12.224  19.102   0.876
18521W        W86895   7.709   2.255   0.750
18522W        W86896  33.450  29.047  11.005
18523W        W86897  30.965  23.167   1.341
18524W        W86898  10.869  27.467  14.382
18525W        W86899  27.119  34.541   3.670
18526W        W86900  32.455  16.706   2.350
18527W        W86901  29.131   0.338  14.830
18528W        W86902  14.237  16.621   2.749
18529W        W86903  13.788  36.877  14.795
18530W        W86904   1.956  31.958   1.868
18531W        W86905   7.171   2.889  10.938
18532W        W86906  39.823  30.912   3.329
18533W        W86907   0.916   6.723  10.628
18534W        W86908  24.484  42.464   0.805
18535W        W86909  30.622  19.218   3.174
18536W        W86910  25.054  16.772   4.786
18537W        W86911  37.833  33.925  10.957
18538W        W86912  17.739   0.287   4.745
18539W        W86913  17.284  12.273   3.737
18540W        W86914  33.920   9.309  13.022
18541W        W86915   1.439  29.497  13.493
18542W        W86916  10.163   9.663  12.454
18543W        W86917   2.248   5.808  11.120
18544W        W86918  32.545   9.819  12.070
18545W        W86919  20.559  10.320   1.282
18546W        W86920  10.191   4.716   5.209
18547W        W86921  18.294  44.909   3.815
18548W        W86922   4.725   5.370  11.963
18549W        W86923  41.293  30.569  12.382
18550W        W86924  22.713  41.925   3.737
18551W        W86925  32.517  31.416   1.837
18552W        W86926   0.817  36.902  11.120
18553W        W86927   3.372   2.929   0.382
18554W        W86928  33.591  19.571  10.582
18555W        W86929  33.933  15.814  10.000
18556W        W86930   4.809  34.931  14.935
18557W        W86931   1.477  10.237   3.345
18558W        W86932  43.419  41.363  11.064
18559W        W86933   5.816  42.777   3.373
18560W        W86934  36.538  20.535   2.307
18561W        W86935   4.233  28.634   1.713
18562W        W86936  28.487  34.561   1.398
18563W        W86937  31.610  35.977   3.824
18564W        W86938  20.135   4.831   4.686
18565W        W86939  37.471  33.583   2.329
18566W        W86940  36.432  35.996   3.198
18567W        W86941  30.418  31.007   1.795
18568W        W86942   4.864  43.285  11.585
18569W        W86943   9.299  31.124   4.673
18570W        W86944   9.844  17.780  14.320
18571W        W86945  41.859   9.370   3.682
18572W        W86946  21.055  44.907  14.339
18573W        W86947  33.915  18.175  14.358
18574W        W86948   9.741  30.962   4.599
18575W        W86949  20.668  11.339   4.322
18576W        W86950  16.635  15.670   3.788
18577W        W86951   2.839  25.196  11.405
18578W        W86952  41.413  11.836   4.748
18579W        W86953  14.118   2.427  13.338
18580W        W86954  41.907   9.381   2.186
18581W        W86955   5.439  28.478  14.275
18582W        W86956  30.524  27.504   2.250
18583W        W86957  38.933  20.605   4.287
18584W        W86958  36.951  44.804   4.225
18585W        W86959   5.264  17.075  11.518
18586W        W86960   5.818  17.762   1.777
18587W        W86961  40.325  19.067  11.957
18588W        W86962  26.686  16.103   0.777
18589W        W86963  22.592   1.435   3.212
18590W        W86964  36.537   6.842  13.487
18591W        W86965   2.894  27.671  12.066
18592W        W86966  19.668  19.244  11.976
18593W        W86967  40.521   0.357   0.746
18594W        W86968  40.484  25.658  14.467
18595W        W86969  36.474  19.680  12.916
18596W        W86970  30.653  16.702   0.480
18597W        W86971  24.004  31.615   0.896
18598W        W86972  10.797   8.771  13.480
18599W        W86973  17.295  32.556   4.324
18600W        W86974  20.102  14.646  13.547
18601W        W86975  34.503  28.618  13.466
18602W        W86976  18.597  25.587  13.357
18603W        W86977  27.498  39.370   0.442
18604W        W86978  22.633  15.221  13.512
18605W        W86979  16.292  31.048   1.724
18606W        W86980  29.451  10.878  11.472
18607W        W86981  43.793  13.703   0.967
18608W        W86982  23.507  23.540   1.743
18609W        W86983  29.118  24.663   2.895
18610W        W86984   2.746   3.754  11.999
18611W        W86985   9.876   0.250  10.517
18612W        W86986  19.173  12.339  13.941
18613W        W86987   6.859   9.195   2.358
18614W        W86988  31.018   6.874   3.147
18615W        W86989  16.222  30.442   3.177
18616W        W86990  13.260   9.239  11.991
18617W        W86991  33.420  20.160   1.750
18618W        W86992   1.463  19.636  11.876
18619W        W86993  21.146  41.485   2.748
18620W        W86994  32.065   7.381  14.772
18621W        W86995  12.237   7.225   4.276
18622W        W86996  43.904   6.189  14.380
18623W        W86997  42.009  36.903  14.370
18624W        W86998  19.178   4.346   0.340
18625W        W86999   0.954  33.948  11.985
18626W        W87000   7.188   7.722   2.683
18627W        W87001  39.424  30.080   3.805
18628W        W87002  41.857  28.646   1.773
18629W        W87003   0.769  29.103  10.504
18630W        W87004  29.669  31.429   1.751
18631W        W87005  18.742  13.773   1.862
18632W        W87006   2.444  42.896   0.360
18633W        W87007  36.047  18.602   4.774
18634W        W87008   8.700  27.659  11.397
18635W        W87009  34.094  10.722  14.887
18636W        W87010   0.276  20.730   3.743
18637W        W87011  11.339  16.606  14.028
18638W        W87012   9.296  11.128   4.224
18639W        W87013  23.075  44.905   4.188
18640W        W87014  10.709  31.447   3.716
18641W        W87015   4.365  11.154   2.406
18642W        W87016  44.407  19.124   3.229
18643W        W87017   6.877   8.884   4.203
18644W        W87018  37.504   9.392   2.775
18645W        W87019  35.553  44.871  12.827
18646W        W87020  38.992  41.909   0.481
18647W        W87021  10.259  32.391  11.603
18648W        W87022   7.340  14.197  12.948
18649W        W87023  24.029  40.371   4.220
18650W        W87024  30.445  37.065  10.574
18651W        W87025  25.007  32.526   2.751
18652W        W87026  40.380   8.264  10.430
18653W        W87027  31.600  15.642   2.264
18654W        W87028  44.005  14.309  12.008
18655W        W87029   2.891  34.907  12.843
18656W        W87030  32.097  23.186  13.532
18657W        W87031  32.425  41.340   4.320
18658W        W87032  27.485  13.783  12.517
18659W        W87033  37.435  10.360   4.268
18660W        W87034  32.582   5.408  13.337
18661W        W87035  12.713  30.454   4.120
18662W        W87036   7.705  35.989  11.405
18663W        W87037  42.972  21.215   0.417
18664W        W87038  30.513  10.148   0.855
18665W        W87039   3.823  13.263  12.998
18666W        W87040  10.303  40.023   2.681
18667W        W87041  42.934  27.676  12.417
18668W        W87042  38.863  32.088  12.022
18669W        W87043  11.801  24.585  11.038
18670W        W87044   0.834  44.933   1.793
18671W        W87045  44.313  34.978   4.661
18672W        W87046  10.691  16.254   2.232
18673W        W87047  40.348  20.541   2.279
18674W        W87048   3.321   9.854   0.780
18675W        W87049  19.090  26.114  14.967
18676W        W87050  26.522  18.650   1.360
18677W        W87051   8.344   3.881   3.826
18678W        W87052  10.797  29.598   0.844
18679W        W87053  25.714  37.084   0.424
18680W        W87054  17.222  20.209   4.310
18681W        W87055  37.969  17.166   3.385
18682W        W87056  40.971  38.003  10.593
18683W        W87057   6.189   4.355   2.674
18684W        W87058  32.600  29.463  13.535
18685W        W87059  33.126  11.832  12.937
18686W        W87060   9.395  12.259  12.925
18687W        W87061  24.490  38.935   1.317
18688W        W87062  14.172  16.636   1.354
18689W        W87063  40.333  38.520   1.897
18690W        W87064  32.932  36.496   2.885
18691W        W87065  37.044  31.958  10.644
18692W        W87066  37.985  27.466   1.376
18693W        W87067  32.974   7.327  10.971
18694W        W87068  25.163   9.171   1.878
18695W        W87069  30.551  15.180   3.290
18696W        W87070  23.234  24.076  14.461
18697W        W87071  31.437  24.660   1.378
18698W        W87072  29.938  19.728   4.771
18699W        W87073   5.894  33.109   3.383
18700W        W87074  34.009  37.556   4.716
18701W        W87075  35.492  28.585   1.212
18702W        W87076  14.296  10.846   0.782
18703W        W87077  30.043  26.046   2.901
18704W        W87078  32.514  17.187  13.993
18705W        W87079  19.262  36.566  14.368
18706W        W87080   9.756  33.458   3.676
18707W        W87081  42.027  23.991   1.744
18708W        W87082   8.896  21.741   4.653
18709W        W87083  30.600   6.886  14.762
18710W        W87084  37.036   1.276  12.017
18711W        W87085  44.274  33.886   0.831
18712W        W87086  34.971   1.304  12.544
18713W        W87087   3.297  17.108   3.232
18714W        W87088  34.466  18.784   0.335
18715W        W87089  40.004  21.175   1.793
18716W        W87090  42.006   3.220   9.989
18717W        W87091  13.780  14.778   3.689
18718W        W87092  39.315  14.263   2.242
18719W        W87093   9.878   7.856   0.761
18720W        W87094  19.591   2.449   2.323
18721W        W87095   9.189  41.980   3.319
18722W        W87096  33.068  41.894   0.443
18723W        W87097   4.746  43.779   1.324
18724W        W87098  30.606  29.666  12.855
18725W        W87099  33.584  29.147  12.970
18726W        W87100   7.285  17.121  10.986
18727W        W87101  25.004  34.992  12.917
18728W        W87102   9.828  31.152   3.249
18729W        W87103  33.511   3.342   0.377
18730W        W87104   8.723  15.792  12.837
18731W        W87105  15.803  18.237  14.881
18732W        W87106  43.327  24.089   3.779
18733W        W87107  17.587  30.107   0.393
18734W        W87108   4.853  11.856   3.224
18735W        W87109  16.657  44.919   1.851
18736W        W87110  26.009  12.267   2.760
18737W        W87111  39.830  22.062  12.874
18738W        W87112  41.367  14.270   3.749
18739W        W87113  11.290  26.653   0.917
18740W        W87114  14.622  36.574  11.956
18741W        W87115  43.509  21.048  13.337
18742W        W87116  22.711  34.888  13.961
18743W        W87117   7.220  19.120  10.412
18744W        W87118  26.496   8.842   5.121
18745W        W87119  43.907  21.028  13.410
18746W        W87120  24.540  32.022   5.687
18747W        W87121   2.337   3.782  11.048
18748W        W87122  24.127   4.808   2.795
18749W        W87123  25.644  34.953   2.887
18750W        W87124  29.063  18.565   0.894
18751W        W87125  30.117  40.344   4.698
18752W        W87126  18.204  21.700   4.121
18753W        W87127  27.534  30.443  13.414
18754W        W87128  42.903  31.104   4.813
18755W        W87129  34.398  21.223   0.933
18756W        W87130  23.232  26.683  12.012
18757W        W87131  19.637  41.328  14.293
18758W        W87132   7.711  22.126  13.827
18759W        W87133  28.544  18.634  11.100
18760W        W87134   3.448  36.513  10.995
18761W        W87135  25.528  44.315   0.899
18762W        W87136  34.110  44.495  12.873
18763W        W87137  29.573  18.051   5.271
18764W        W87138  11.701  16.791  10.953
18765W        W87139   8.333  19.561   1.284
18766W        W87140   6.353   3.455  11.034
18767W        W87141   3.450  33.930   3.182
18768W        W87142  37.051  14.183   4.691
18769W        W87143  18.234  10.332  12.517
18770W        W87144   3.406  36.902   2.321
18771W        W87145   3.266  11.191  12.954
18772W        W87146  13.127  25.203  14.454
18773W        W87147  18.072  43.935   4.669
18774W        W87148   9.299   5.926  13.475
18775W        W87149  10.205  16.662  14.292
18776W        W87150  35.416  25.218  13.493
18777W        W87151  25.578   2.767   3.216
18778W        W87152   1.910  33.427  13.041
18779W        W87153  18.287   3.233   1.424
18780W        W87154  39.833  17.276   0.847
18781W        W87155  29.976  41.964   3.774
18782W        W87156  11.366  31.118   2.824
18783W        W87157  12.160  24.644  11.417
18784W        W87158  14.813  34.949   1.450
18785W        W87159  21.112  35.567   2.785
18786W        W87160   9.376   2.813   2.247
18787W        W87161  19.193  34.101   4.599
18788W        W87162  17.764  20.568  13.523
18789W        W87163  17.271  43.358  13.376
18790W        W87164  38.396  10.312   4.694
18791W        W87165  31.520  14.192  14.936
18792W        W87166  19.169  38.038  10.636
18793W        W87167  21.258  24.195   0.951
18794W        W87168   0.494  16.291   3.165
18795W        W87169   2.227  33.009   0.870
18796W        W87170   5.218   3.870   0.317
18797W        W87171  35.006  43.455   2.886
18798W        W87172  39.491  34.378  13.934
18799W        W87173  27.972  25.521   2.852
18800W        W87174  16.208   1.918  10.437
18801W        W87175  29.546  35.964   4.297
18802W        W87176  14.206  26.509   2.753
18803W        W87177  15.790  35.903  14.922
18804W        W87178  32.472  10.803  10.923
18805W        W87179   3.333  42.810  10.599
18806W        W87180  24.536   0.955  14.319
18807W        W87181  21.020   5.220   4.318
18808W        W87182  34.959  37.068  11.091
18809W        W87183  38.359  43.412   0.760
18810W        W87184  22.100   4.244   3.382
18811W        W87185  12.719  17.067  14.836
18812W        W87186  33.463   6.688   5.318
18813W        W87187  11.204  34.069  11.581
18814W        W87188  34.054  41.916   0.751
18815W        W87189  28.449   0.742   1.772
18816W        W87190  43.313   7.285  11.984
18817W        W87191  31.481  16.271   1.385
18818W        W87192  23.084   3.870   0.906
18819W        W87193  39.894   1.316  12.939
18820W        W87194  20.666  38.434   3.367
18821W        W87195  12.690  44.884  11.462
18822W        W87196  35.028  28.586   2.881
18823W        W87197  27.547  26.544   2.842
18824W        W87198  43.908   4.791   2.828
18825W        W87199  18.733  14.731  13.486
18826W        W87200  24.527  33.059   4.156
18827W        W87201  17.759  18.699  12.945
18828W        W87202  30.481  36.992   3.800
18829W        W87203  22.109  31.009  13.795
18830W        W87204  11.728  36.928   4.301
18831W        W87205  17.571   6.808  14.446
18832W        W87206   9.746  13.321   3.239
18833W        W87207  31.467   4.443   3.152
18834W        W87208  11.654  31.627  12.945
18835W        W87209  12.819  24.147  11.404
18836W        W87210  28.579   5.918   3.204
18837W        W87211  11.796  19.540  10.501
18838W        W87212   6.855  23.060   0.856
18839W        W87213   1.974  17.068   2.856
18840W        W87214  31.441   4.876   0.337
18841W        W87215  15.255  13.825   0.807
18842W        W87216  27.968  38.899   3.148
18843W        W87217  15.256  33.968  13.357
18844W        W87218  31.515  39.362   3.366
18845W        W87219   8.245   5.702  11.128
18846W        W87220   4.807   6.345   1.293
18847W        W87221  13.845  42.438   4.636
18848W        W87222  13.234  20.117  13.325
18849W        W87223  16.115  29.665  10.595
18850W        W87224  24.725   5.216   0.402
18851W        W87225  18.608  41.844  11.463
18852W        W87226   3.391   3.346   4.141
18853W        W87227   7.367  27.510  11.881
18854W        W87228  11.232  17.251  13.995
18855W        W87229  42.333  10.315  11.044
18856W        W87230  44.370  23.090   0.854
18857W        W87231  29.489  42.362  14.907
18858W        W87232  34.543  31.972   1.703
18859W        W87233  15.646  21.241  12.562
18860W        W87234  29.105  35.576  11.918
18861W        W87235  22.173  15.593  12.401
18862W        W87236  28.679   9.160   1.707
18863W        W87237  12.178  39.462   2.384
18864W        W87238  43.433  23.575  11.448
18865W        W87239   1.877  35.951   4.617
18866W        W87240  40.975  44.980  10.640
18867W        W87241  30.036  29.007  13.310
18868W        W87242  18.779  37.369   3.260
18869W        W87243  20.182  20.632   3.864
18870W        W87244  39.544  10.367   4.801
18871W        W87245  10.685  18.704   1.403
18872W        W87246  33.070  15.741   2.853
18873W        W87247  19.581  32.439   3.284
18874W        W87248  36.944   2.268  13.817
18875W        W87249  44.490  38.854   1.291
18876W        W87250  12.250  28.092   4.329
18877W        W87251   8.356   4.796  11.994
18878W        W87252   7.375  31.519  14.964
18879W        W87253   3.398  40.462  13.812
18880W        W87254  25.573  24.527   2.252
18881W        W87255  12.298  21.603  12.496
18882W        W87256  19.754  30.067   0.252
18883W        W87257   4.888   2.804  13.054
18884W        W87258   5.873  41.833   4.344
18885W        W87259  34.400  19.221  11.961
18886W        W87260  17.555  21.085   1.416
18887W        W87261   8.359  16.678   4.733
18888W        W87262  14.139  29.160  11.563
18889W        W87263   2.257  42.916   1.804
18890W        W87264  34.608  21.722   1.855
18891W        W87265   9.824  14.759   3.791
18892W        W87266  35.999   6.800   0.778
18893W        W87267  10.669  37.491   5.151
18894W        W87268  31.550   4.865  11.103
18895W        W87269   5.362  36.406   4.209
18896W        W87270  37.854   6.906   1.286
18897W        W87271   0.979  26.101   3.243
18898W        W87272  31.997  16.669  14.801
18899W        W87273  11.624  42.317   3.381
18900W        W87274   7.211  37.833   0.266
18901W        W87275  24.498   2.807   0.429
18902W        W87276  41.893   1.266   1.926
18903W        W87277  41.463   0.266   3.769
18904W        W87278  29.057  10.279  10.469
18905W        W87279  36.567  30.022   1.841
18906W        W87280  22.035   2.957  13.494
18907W        W87281  38.867  33.901  12.506
18908W        W87282   9.171  14.189  10.968
18909W        W87283  11.292  39.341   2.283
18910W        W87284  31.539  43.474   1.915
18911W        W87285  14.243  12.649   4.228
18912W        W87286  12.181   0.938  12.408
18913W        W87287   5.261  30.516   2.892
18914W        W87288  42.787  20.608   0.915
18915W        W87289  44.494  20.254  11.953
18916W        W87290  18.209  21.074   2.314
18917W        W87291  20.631   9.847  11.564
18918W        W87292  14.152  23.155  10.530
18919W        W87293  17.279  12.614   4.696
18920W        W87294  11.301  18.197   0.341
18921W        W87295  17.083  34.941  13.368
18922W        W87296  20.128  23.241  12.480
18923W        W87297  31.934   0.758   5.149
18924W        W87298  28.567  19.712   2.883
18925W        W87299  15.739  36.495   2.764
18926W        W87300  42.352  12.689  14.843
18927W        W87301   1.340  16.664  13.388
18928W        W87302  11.860  33.001   1.330
18929W        W87303  37.512  34.061   1.919
18930W        W87304  10.220  24.585   1.441
18931W        W87305   9.306   5.840  14.334
18932W        W87306  40.847  39.873  13.410
18933W        W87307  44.318   2.939   4.126
18934W        W87308  15.679  38.444   4.134
18935W        W87309  18.216   8.310   0.445
18936W        W87310  40.508  32.111   1.283
18937W        W87311  36.480   9.327  11.032
18938W        W87312   2.359   0.853   4.189
18939W        W87313  27.011  34.583  11.927
18940W        W87314  28.970   3.352   1.736
18941W        W87315  25.063  24.991   0.761
18942W        W87316   7.766  31.508   2.737
18943W        W87317  10.718  43.800   1.247
18944W        W87318  20.679  18.175  13.424
18945W        W87319   8.360  18.578   4.134
18946W        W87320   0.361  14.148   0.380
18947W        W87321  22.722   7.721   0.941
18948W        W87322  14.702  13.113  10.116
18949W        W87323   2.934  31.443   3.793
18950W        W87324  15.594  22.215   3.314
18951W        W87325   1.741   9.679   0.757
18952W        W87326   6.694  21.681  12.913
18953W        W87327  23.574  38.956  12.875
18954W        W87328  15.200  37.498  12.573
18955W        W87329   0.969  23.154   1.312
18956W        W87330  25.605  36.858  11.983
18957W        W87331  36.552  10.714  12.943
18958W        W87332  28.112  25.481   3.384
18959W        W87333  30.080  13.118  14.318
18960W        W87334  41.865  10.723   3.783
18961W        W87335   5.343  25.580  11.389
18962W        W87336  27.551  12.661   0.780
18963W        W87337  31.411  37.041  13.932
18964W        W87338  39.871  18.698  10.472
18965W        W87339  18.573  34.045   1.904
18966W        W87340  24.698  42.400   2.709
18967W        W87341  10.755  19.278  12.870
18968W        W87342   0.866  34.889   1.297
18969W        W87343  34.001  10.702   3.634
18970W        W87344  11.844  35.926  13.852
18971W        W87345   3.390   0.752  13.866
18972W        W87346  21.710  19.675   2.837
18973W        W87347  20.114  32.079  13.446
18974W        W87348  13.131  16.791   2.851
18975W        W87349  41.834  17.676  12.021
18976W        W87350  18.681  20.641  13.950
18977W        W87351  12.298  25.714  14.328
18978W        W87352  26.161  25.498   2.800
18979W        W87353  28.963  20.584   0.298
18980W        W87354  32.398  11.182   0.893
18981W        W87355   7.260  18.731  11.099
18982W        W87356   5.357  32.123  12.827
18983W        W87357  21.254  27.063  13.984
18984W        W87358  23.079   5.224  14.514
18985W        W87359   0.978  25.571   4.216
18986W        W87360   6.183  33.390  11.030
18987W        W87361  11.821   6.307   1.280
18988W        W87362  26.078   6.882  11.074
18989W        W87363  36.854  28.569   1.274
18990W        W87364  42.323   5.301  14.287
18991W        W87365  12.630   9.749   5.229
18992W        W87366  32.022  44.267   3.253
18993W        W87367  16.671  39.018  11.947
18994W        W87368   2.241  29.089  14.019
18995W        W87369  24.540   0.856   4.833
18996W        W87370  13.725   5.283   3.868
18997W        W87371  18.125  21.634   3.381
18998W        W87372  31.119  27.616  14.461
18999W        W87373  29.114  29.947   1.315
19000W        W87374  44.946  15.756  11.434
19001W        W87375  29.479   4.208   2.312
19002W        W87376   9.710   1.933   4.642
19003W        W87377  12.846  34.386   2.782
19004W        W87378  43.784  44.462  13.991
19005W        W87379  19.110  22.523  13.375
19006W        W87380  43.373  38.362   0.811
19007W        W87381  18.609   7.186   0.296
19008W        W87382  38.899  19.091   0.774
19009W        W87383   4.867  28.466  14.847
19010W        W87384  22.060  18.786   3.244
19011W        W87385  10.167  28.938  14.424
19012W        W87386  25.588  39.880  14.874
19013W        W87387  42.833  31.456  10.546
19014W        W87388  23.103  27.132  10.455
19015W        W87389   6.384  18.139  12.054
19016W        W87390   2.276  35.039   2.245
19017W        W87391   3.820  42.029  13.047
19018W        W87392  41.537  44.310   0.808
19019W        W87393  38.936  13.186   1.327
19020W        W87394  34.100  42.890  14.966
19021W        W87395  18.549  19.266  13.363
19022W        W87396  28.584   7.894  11.599
19023W        W87397  18.779  17.787   2.812
19024W        W87398  29.525  37.431   1.835
19025W        W87399  36.540  17.777  12.906
19026W        W87400  40.934  29.539   4.838
19027W        W87401  11.693  39.507   1.371
19028W        W87402   0.456  40.861   4.335
19029W        W87403  12.224  24.060  14.340
19030W        W87404  27.608  29.116  12.550
19031W        W87405  19.276  15.222   3.752
19032W        W87406  27.015  36.507  11.595
19033W        W87407  18.647   9.212   3.213
19034W        W87408  36.945  22.539   1.295
19035W        W87409   1.881   2.875  14.800
19036W        W87410  28.557  33.903   4.712
19037W        W87411  40.370  23.104  13.814
19038W        W87412   4.934  35.369  12.010
19039W        W87413  35.428   5.214   0.336
19040W        W87414   9.714  12.751  14.972
19041W        W87415  12.819  16.079   4.259
19042W        W87416   6.250  42.846  14.940
19043W        W87417   0.461   9.296   2.768
19044W        W87418   6.839  17.738  12.897
19045W        W87419  29.053  37.402   2.345
19046W        W87420  24.039  14.097  14.850
19047W        W87421   3.722  36.054  12.511
19048W        W87422   7.908  38.995  14.899
19049W        W87423  39.512   7.787   1.291
19050W        W87424  26.542  10.288   2.310
19051W        W87425  30.987  36.427  11.505
19052W        W87426   5.882  25.613   0.854
19053W        W87427  19.098  38.524  12.917
19054W        W87428  40.848  40.816  11.979
19055W        W87429  27.600  27.615  14.874
19056W        W87430  31.610  27.185  12.466
19057W        W87431  31.919  22.605  12.344
19058W        W87432  25.577  14.103  14.398
19059W        W87433  22.187  44.917  13.449
19060W        W87434  13.699   5.820  12.900
19061W        W87435  21.602  18.159   2.359
19062W        W87436   0.388  38.436  10.960
19063W        W87437  30.150  16.141   2.832
19064W        W87438  38.879   6.289  14.339
19065W        W87439  33.485  41.981  12.554
19066W        W87440  17.225  17.225  10.433
19067W        W87441  20.032  35.048   2.278
19068W        W87442  10.262  43.000  12.429
19069W        W87443  43.955  25.550  10.605
19070W        W87444  27.125  24.703  13.490
19071W        W87445  36.915  17.700  12.070
19072W        W87446  23.140  37.427   4.278
19073W        W87447  31.946   4.724   0.871
19074W        W87448  24.062   5.781  12.967
19075W        W87449   3.233  24.057   2.182
19076W        W87450  24.492  22.630   3.823
19077W        W87451  32.083  20.144  12.016
19078W        W87452   9.342  29.137   0.956
19079W        W87453   6.357  36.421   1.345
19080W        W87454  26.538  16.188  13.534
19081W        W87455  29.592  39.427   2.694
19082W        W87456  40.392  44.965   3.703
19083W        W87457  11.634   5.733   0.850
19084W        W87458  24.596   2.246   0.468
19085W        W87459   2.330   5.918   3.293
19086W        W87460   3.366   0.908   4.683
19087W        W87461  29.490  39.944  13.458
19088W        W87462  26.113  16.730   5.111
19089W        W87463  24.184  42.407   4.126
19090W        W87464  29.948  30.923  13.318
19091W        W87465  13.164  28.537  12.488
19092W        W87466  44.270  29.608   0.922
19093W        W87467   6.242   4.304  12.345
19094W        W87468  43.500   3.394   3.731
19095W        W87469  38.460  32.581  11.441
19096W        W87470  15.136  21.593  14.825
19097W        W87471   4.311  43.818  12.880
19098W        W87472  14.331  43.461  10.503
19099W        W87473  20.641  42.483  13.887
19100W        W87474  18.118  44.408  14.962
19101W        W87475  44.476   0.873  14.835
19102W        W87476   0.256  29.967  12.886
19103W        W87477  23.644  16.212  10.441
19104W        W87478   5.305   0.981   4.701
19105W        W87479  17.125  24.996   2.670
19106W        W87480  29.619  30.474  10.643
19107W        W87481  14.687  24.500   3.258
19108W        W87482  42.476   3.249  11.060
19109W        W87483   1.374   8.733   2.898
19110W        W87484   2.862   2.819  11.388
19111W        W87485   0.468  16.088  13.992
19112W        W87486  20.071  14.165  13.842
19113W        W87487  14.811  24.608   4.249
19114W        W87488  38.518  19.658   4.626
19115W        W87489  28.129  35.053   0.283
19116W        W87490  32.630  42.291   1.429
19117W        W87491  19.536   0.870  10.993
19118W        W87492  27.569  34.105  12.537
19119W        W87493  39.963  43.372   0.331
19120W        W87494  29.619  11.214  11.054
19121W        W87495  24.086  12.226   1.911
19122W        W87496  12.642   4.220   3.648
19123W        W87497   5.821  24.607   4.277
19124W        W87498  27.033   9.249  12.887
19125W        W87499  35.399  43.963   4.695
19126W        W87500  41.941  14.308  14.324
19127W        W87501   0.838  42.858   0.474
19128W        W87502  14.759   4.900  10.451
19129W        W87503  25.683   6.369   3.691
19130W        W87504  24.045  25.513   4.318
19131W        W87505   8.390  29.169   2.717
19132W        W87506  22.584  11.194  10.625
19133W        W87507  32.915  15.273   0.242
19134W        W87508  31.497   9.653   2.743
19135W        W87509  10.869  10.765   0.919
19136W        W87510  38.421  17.192   2.882
19137W        W87511   3.936  37.907  12.039
19138W        W87512  16.714  41.496  14.459
19139W        W87513  12.208  17.797   1.424
19140W        W87514  37.957  28.553  10.984
19141W        W87515  24.651  34.510   2.295
19142W        W87516  13.267  14.595  14.511
19143W        W87517   9.279  22.228  14.306
19144W        W87518  11.671   6.908  13.064
19145W        W87519  26.992  41.501  14.903
19146W        W87520   3.361  36.389   4.347
19147W        W87521  14.244  41.299   4.270
19148W        W87522  40.410  39.828   3.631
19149W        W87523  29.063  34.994  14.377
19150W        W87524  30.157  43.805   0.954
19151W        W87525  24.126   8.884   3.636
19152W        W87526  12.193  19.074   3.326
19153W        W87527  37.507  32.029   1.217
19154W        W87528   1.880  20.702   4.199
19155W        W87529   6.356  11.661   5.267
19156W        W87530  36.054  38.855  11.389
19157W        W87531   3.785  20.033  11.435
19158W        W87532  15.751  23.718  13.362
19159W        W87533  15.294   8.323   4.276
19160W        W87534  14.680   5.690   3.822
19161W        W87535  34.460   4.912   4.173
19162W        W87536  13.796  31.548  14.290
19163W        W87537  28.947  28.490   3.176
19164W        W87538  32.434  15.642   4.262
19165W        W87539  15.134  29.579  11.878
19166W        W87540   5.261  35.952   2.377
19167W        W87541   2.963  34.041  12.907
19168W        W87542  31.028  14.244   4.623
19169W        W87543  22.581  40.052   0.389
19170W        W87544  21.062  38.905   3.870
19171W        W87545  35.463   9.190   3.727
19172W        W87546  20.056  37.425   1.419
19173W        W87547  19.606  36.395  13.401
19174W        W87548  41.022   5.202   1.699
19175W        W87549  34.615   1.746  13.497
19176W        W87550   2.919  44.801  13.402
19177W        W87551   0.424  20.071   0.845
19178W        W87552  37.521  40.048   0.267
19179W        W87553  12.237  19.188   4.151
19180W        W87554   3.879  32.932   4.150
19181W        W87555  26.662  25.534   1.933
19182W        W87556  27.087  43.277   2.772
19183W        W87557  32.605   1.393  13.515
19184W        W87558  18.643  11.636  10.407
19185W        W87559  20.653  15.172  13.854
19186W        W87560  36.429   6.311   3.207
19187W        W87561  26.200  28.617  13.017
19188W        W87562  40.407  28.148  10.106
19189W        W87563   0.869  30.658  10.576
19190W        W87564  21.131  13.690  13.368
19191W        W87565   4.717   1.370   1.383
19192W        W87566  37.384  22.159   3.768
19193W        W87567  22.032   0.276  13.942
19194W        W87568  11.746   8.655  14.313
19195W        W87569  26.119  12.610  10.978
19196W        W87570   8.206  27.156  10.598
19197W        W87571  14.762  20.204   2.358
19198W        W87572  19.777  40.502   0.852
19199W        W87573  44.910  31.554  14.388
19200W        W87574  18.207  17.574   1.868
19201W        W87575  20.759   2.374   4.771
19202W        W87576   0.938  37.524   2.354
19203W        W87577   9.161  24.575  11.956
19204W        W87578  10.797  19.736  10.439
19205W        W87579  36.429  34.438   1.214
19206W        W87580  38.524  40.362   2.288
19207W        W87581  39.845   0.296  11.404
19208W        W87582  12.795  12.156   1.879
19209W        W87583  23.165  22.643  13.871
19210W        W87584  13.261  23.145   3.736
19211W        W87585  16.217  12.633   0.847
19212W        W87586  11.701  25.686   3.151
19213W        W87587  32.958  18.677  13.348
19214W        W87588  33.398  30.917  14.883
19215W        W87589  39.813  41.013   1.217
19216W        W87590  23.727   9.844  14.436
19217W        W87591  12.230  10.269  13.064
19218W        W87592  42.954  23.558  10.444
19219W        W87593  41.391  28.017   2.207
19220W        W87594  13.836  26.182  11.094
19221W        W87595  39.318  10.648   0.809
19222W        W87596  34.409  44.272  14.782
19223W        W87597  23.489   7.363   0.309
19224W        W87598  42.363  27.688  12.350
19225W        W87599  10.675  29.641   2.277
19226W        W87600  41.926  19.058   3.211
19227W        W87601  27.553   7.842   4.833
19228W        W87602  31.475   0.890   0.939
19229W        W87603  43.845  20.253   4.230
19230W        W87604  20.673  11.686   3.359
19231W        W87605  41.449  43.454  12.449
19232W        W87606  29.973  37.084  13.411
19233W        W87607   5.219  20.551  13.004
19234W        W87608   0.394  12.164   1.390
19235W        W87609  29.426   0.458   4.298
19236W        W87610  16.186   2.811   3.224
19237W        W87611  34.042  22.618   3.351
19238W        W87612   7.748   2.811   2.736
19239W        W87613   0.456  29.014  12.975
19240W        W87614  42.385  34.494  11.593
19241W        W87615  14.735  23.066  13.499
19242W        W87616   4.270  18.560  12.536
19243W        W87617  17.104   5.775  12.064
19244W        W87618  22.053   2.903   0.867
19245W        W87619  28.578  43.892   1.378
19246W        W87620  33.620  36.881  14.466
19247W        W87621  43.920  16.201  11.470
19248W        W87622  31.101  15.122  12.543
19249W        W87623  24.574  20.166   1.747
19250W        W87624   3.871  21.757   3.220
19251W        W87625  29.625  35.001  13.807
19252W        W87626  27.049  10.687  13.321
19253W        W87627  38.867  27.538   2.795
19254W        W87628  16.571   4.448   1.913
19255W        W87629  29.941  36.934  10.917
19256W        W87630  41.333   4.307   3.174
19257W        W87631  37.877  14.213   3.240
19258W        W87632  43.949  21.554   3.238
19259W        W87633   8.398  14.236   2.180
19260W        W87634  35.428  31.059   1.332
19261W        W87635  38.944  22.664   3.724
19262W        W87636  14.677  42.294  11.486
19263W        W87637  24.521  39.455  13.943
19264W        W87638  44.787  19.609   2.806
19265W        W87639  24.595  43.965   3.793
19266W        W87640  15.128  25.080   2.382
19267W        W87641  26.132  18.223   1.284
19268W        W87642   7.409  16.645  11.567
19269W        W87643  35.402  20.148  11.546
19270W        W87644   4.700   5.732  13.059
19271W        W87645  16.767  13.654   3.373
19272W        W87646  18.784  37.913  13.328
19273W        W87647  11.833  38.348  12.410
19274W        W87648  33.880  16.761   2.770
19275W        W87649   6.386   0.264   5.237
19276W        W87650  19.756  29.480  12.059
19277W        W87651   5.365  22.718  11.023
19278W        W87652  29.058   7.772  14.317
19279W        W87653   4.808  39.506   4.737
19280W        W87654  23.191   2.807  14.979
19281W        W87655  41.439   7.716   2.849
19282W        W87656  18.105  28.047  11.576
19283W        W87657  27.112  25.502   1.289
19284W        W87658  34.368  19.605  10.558
19285W        W87659  16.722  22.739  14.370
19286W        W87660  28.542   4.770  14.986
19287W        W87661   1.447  25.081  11.076
19288W        W87662  44.942  37.371   4.116
19289W        W87663  25.204  32.125  13.451
19290W        W87664  43.275   3.857  11.121
19291W        W87665  37.064  21.085  12.948
19292W        W87666  27.033  26.601  11.007
19293W        W87667  19.252  11.303   2.854
19294W        W87668  31.985  35.521   0.773
19295W        W87669  38.030  34.981  12.016
19296W        W87670  35.862   4.353  14.297
19297W        W87671  10.803  21.720   3.849
19298W        W87672   8.840  31.421  12.095
19299W        W87673  26.635  14.170   2.396
19300W        W87674  18.564  18.261   4.184
19301W        W87675  21.243  29.497   4.612
19302W        W87676  27.098  36.921  10.414
19303W        W87677  35.585  26.984  11.101
19304W        W87678  36.855  10.693  14.304
19305W        W87679  11.805  23.189  14.411
19306W        W87680  35.420  20.115  13.954
19307W        W87681   5.396  31.150   0.367
19308W        W87682   3.819   1.894  13.028
19309W        W87683  41.007   3.782   0.351
19310W        W87684  23.652  31.115  13.876
19311W        W87685   9.232  19.284  14.286
19312W        W87686  17.064  19.170   4.288
19313W        W87687   9.679  39.023   9.951
19314W        W87688  37.384  10.780   3.640
19315W        W87689  37.458  30.920   5.088
19316W        W87690  28.128  43.477   3.827
19317W        W87691   7.325  18.288   2.757
19318W        W87692  23.207  43.868   2.207
19319W        W87693  16.577  34.866   1.239
19320W        W87694  25.661  17.177   1.336
19321W        W87695   8.778  28.581   5.594
19322W        W87696  30.000  28.648   4.303
19323W        W87697  32.889   3.760  13.031
19324W        W87698   8.191  11.329   3.838
19325W        W87699  18.208  12.121   1.715
19326W        W87700  15.194   3.894  10.895
19327W        W87701  39.847  29.025   3.848
19328W        W87702   7.308  32.460  11.884
19329W        W87703  34.081   3.889  10.574
19330W        W87704  32.581  16.269  14.780
19331W        W87705  43.015  25.969   1.864
19332W        W87706   6.329  29.547   2.338
19333W        W87707  40.341   6.221  13.352
19334W        W87708  35.070   4.278   1.786
19335W        W87709  43.876  40.382   3.209
19336W        W87710   1.404  31.905  11.968
19337W        W87711  16.679  27.602  12.032
19338W        W87712   3.929  37.464  10.102
19339W        W87713  35.392  33.005  11.528
19340W        W87714  14.785  41.340  14.013
19341W        W87715  35.497   2.876  10.923
19342W        W87716  35.877   0.793   1.297
19343W        W87717  17.099   4.874   4.191
19344W        W87718  42.931  30.155   4.798
19345W        W87719  14.158  28.077   3.292
19346W        W87720  44.803  39.482  10.610
19347W        W87721   2.456  25.064  13.013
19348W        W87722   4.323  44.973  11.860
19349W        W87723  39.927  17.729  10.422
19350W        W87724   2.459  42.445  11.933
19351W        W87725  42.946  28.964   1.217
19352W        W87726  44.437  32.059   1.319
19353W        W87727  37.451  19.756   4.763
19354W        W87728   8.778  35.888  11.931
19355W        W87729  43.781  21.174   4.213
19356W        W87730  43.907   0.793  14.329
19357W        W87731  24.648  17.163  11.125
19358W        W87732  16.742  31.450  10.989
19359W        W87733  43.824  38.327   2.823
19360W        W87734   0.379  31.000   0.406
19361W        W87735  11.348  21.224  14.471
19362W        W87736  27.637   4.423   3.678
19363W        W87737  26.485  30.534   3.855
19364W        W87738  28.637   0.252   1.441
19365W        W87739  22.092  35.380  13.985
19366W        W87740  34.389  44.819   1.722
19367W        W87741  39.547  43.428  13.492
19368W        W87742   1.439  40.042   1.769
19369W        W87743  30.140  22.665   4.136
19370W        W87744  38.569  28.439   4.630
19371W        W87745   0.247  13.627   4.310
19372W        W87746  11.257   7.320  14.328
19373W        W87747  10.316   0.955   0.926
19374W        W87748  30.958  22.201  10.888
19375W        W87749   0.392   8.759  13.872
19376W        W87750  44.813   5.238   0.943
19377W        W87751  35.006  37.851  11.891
19378W        W87752   9.194  42.316  12.921
19379W        W87753   4.262  19.695   0.936
19380W        W87754  30.124  17.666   3.801
19381W        W87755  42.778   3.384  14.398
19382W        W87756   9.735   3.848   3.843
19383W        W87757  35.015  22.179   2.747
19384W        W87758  27.106   6.769   0.422
19385W        W87759  16.268  36.475   3.814
19386W        W87760   4.850   8.765   0.804
19387W        W87761  20.739  29.571   0.790
19388W        W87762   4.438   2.268  12.516
19389W        W87763  28.135   0.767  10.434
19390W        W87764  27.968  30.968   2.362
19391W        W87765  34.390  17.573   2.677
19392W        W87766  37.405   6.405   1.372
19393W        W87767  24.051   4.831   2.384
19394W        W87768  28.953  39.502  13.353
19395W        W87769  32.931  25.675   1.239
19396W        W87770  19.060  16.619  12.828
19397W        W87771   7.404  42.885  13.047
19398W        W87772  42.873  19.268   3.195
19399W        W87773   7.887   5.824   5.777
19400W        W87774  27.575  25.519   4.178
19401W        W87775  31.453  34.925   4.276
19402W        W87776   9.711  19.738  12.399
19403W        W87777  18.181   1.299  14.486
19404W        W87778  14.110  10.359   1.888
19405W        W87779  16.609   4.828   0.938
19406W        W87780   2.914  13.693   1.703
19407W        W87781  33.488  35.053   5.226
19408W        W87782  40.380  25.007   3.756
19409W        W87783  44.325  15.132  12.362
19410W        W87784   6.819  23.573   5.299
19411W        W87785  40.032   0.893  11.989
19412W        W87786  28.155  12.814   1.695
19413W        W87787  25.595   2.833   3.694
19414W        W87788   7.194   4.911  11.514
19415W        W87789  25.601  30.441  14.986
19416W        W87790  31.581   4.902  14.964
19417W        W87791  27.105  25.634  13.513
19418W        W87792   4.937  37.045   4.763
19419W        W87793  24.021  31.424   0.349
19420W        W87794  40.830  33.031   4.189
19421W        W87795  33.937  22.159   3.387
19422W        W87796  33.080   1.250   1.812
19423W        W87797   9.248  29.003  10.971
19424W        W87798   6.206  17.221  12.929
19425W        W87799   3.255  26.643   4.834
19426W        W87800  43.878  40.539   4.759
19427W        W87801  32.470  35.380  12.877
19428W        W87802   0.323  38.970   1.834
19429W        W87803  21.758  10.706   2.203
19430W        W87804  39.429  12.833  12.095
19431W        W87805  39.332  36.486   4.224
19432W        W87806  32.392  23.589  12.532
19433W        W87807  21.719  39.473   0.963
19434W        W87808  19.575   2.851  11.391
19435W        W87809  14.816  29.495  12.463
19436W        W87810  30.083  24.132   3.228
19437W        W87811  12.734  10.216  14.497
19438W        W87812   0.775  23.193   1.874
19439W        W87813  11.782  18.186   9.965
19440W        W87814  12.738  43.875  10.897
19441W        W87815  39.900  25.507  12.508
19442W        W87816   0.376  10.181  13.864
19443W        W87817  18.215  10.772  13.822
19444W        W87818  25.187  32.507  13.309
19445W        W87819  18.552  17.725  10.474
19446W        W87820   0.905  26.479   1.439
19447W        W87821  33.119  16.282  11.556
19448W        W87822  10.705  41.901   2.788
19449W        W87823  10.877   0.281  13.807
19450W        W87824  37.902  27.562  14.412
19451W        W87825  17.291   0.941  12.906
19452W        W87826  29.138  24.136   0.446
19453W        W87827  24.162  38.367   5.239
19454W        W87828   2.945  19.114  14.460
19455W        W87829   4.297  21.684  11.964
19456W        W87830  16.271   8.196   3.326
19457W        W87831  44.423  36.853   1.319
19458W        W87832   4.375  14.113   0.372
19459W        W87833  13.827  16.703  13.460
19460W        W87834  17.149  15.723  10.068
19461W        W87835   5.263   7.821  11.093
19462W        W87836   4.436  10.681  14.370
19463W        W87837  17.749  31.930  12.012
19464W        W87838   1.368  22.516  12.493
19465W        W87839   0.863  29.968  11.425
19466W        W87840  13.266  43.866  13.984
19467W        W87841  26.575   9.855   0.774
19468W        W87842  18.273  23.634  10.908
19469W        W87843  42.347  18.247   0.739
19470W        W87844  28.067  33.102  13.432
19471W        W87845  30.570  42.854   2.342
19472W        W87846   2.910   8.870   3.655
19473W        W87847  31.927  30.035   3.660
19474W        W87848  27.986  42.943  14.962
19475W        W87849  35.051  43.843  12.482
19476W        W87850  33.898  40.985  13.322
19477W        W87851  15.805  42.456   0.867
19478W        W87852  32.436  10.762   0.840
19479W        W87853   5.904  42.505   3.865
19480W        W87854   3.824  23.507  14.330
19481W        W87855  23.108  38.971   3.679
19482W        W87856  10.843  39.894   3.656
19483W        W87857  40.938  21.118   1.753
19484W        W87858  26.041   2.356  14.932
19485W        W87859  25.632   1.831  14.838
19486W        W87860  10.733  16.698   1.906
19487W        W87861  22.527  16.198   4.198
19488W        W87862  31.909  28.992  10.899
19489W        W87863  11.697  37.414   0.402
19490W        W87864  15.622  27.975   3.324
19491W        W87865  39.326   3.758   3.694
19492W        W87866  30.507   1.344  12.973
19493W        W87867  35.861  16.223   4.768
19494W        W87868   6.388  24.094  11.592
19495W        W87869  14.295  44.899   2.751
19496W        W87870  26.058  20.048   0.414
19497W        W87871  38.386  37.353  12.551
19498W        W87872  17.761  44.934  14.509
19499W        W87873  34.482   4.439  11.951
19500W        W87874   2.369  27.686   0.325
19501W        W87875  13.176  22.166   2.177
19502W        W87876   8.229  10.653  12.524
19503W        W87877  13.671  10.651  10.001
19504W        W87878  11.335  17.229   0.346
19505W        W87879   7.205  19.653   3.190
19506W        W87880   9.302  29.130  13.466
19507W        W87881  18.069   3.254   5.283
19508W        W87882  34.004  29.443   0.346
19509W        W87883  23.142  11.679  14.393
19510W        W87884  25.501  10.761   0.476
19511W        W87885  16.232  12.120  11.459
19512W        W87886  39.952  39.549   1.918
19513W        W87887  30.425  13.660   1.784
19514W        W87888  19.260  31.529  13.829
19515W        W87889  21.541   3.292   2.379
19516W        W87890  11.148  37.908  13.895
19517W        W87891  32.471   6.823  11.110
19518W        W87892   2.442   6.879  10.913
19519W        W87893  27.659  38.829  13.455
19520W        W87894  32.586  39.478  11.010
19521W        W87895  37.082   4.707  10.461
19522W        W87896   2.872  24.218  13.973
19523W        W87897  24.222  42.999  14.507
19524W        W87898   8.359  21.137   5.105
19525W        W87899  23.137  29.638  14.019
19526W        W87900  40.403  28.650   4.711
19527W        W87901  40.804   4.888  14.508
19528W        W87902  31.918  41.306   3.676
19529W        W87903  19.594  29.559   0.792
19530W        W87904   8.257  12.330   3.176
19531W        W87905  21.592  17.151   2.889
19532W        W87906  34.998  34.865   2.337
19533W        W87907  14.259  23.666   0.733
19534W        W87908  42.940  34.993   2.273
19535W        W87909  41.998  42.939   0.460
19536W        W87910  23.489  35.870  11.967
19537W        W87911  14.305  16.627   3.651
19538W        W87912  13.732  16.715  11.010
19539W        W87913  13.653  26.628   1.714
19540W        W87914  43.997   3.800  14.439
19541W        W87915  41.292  26.575   2.223
19542W        W87916  29.029  22.659   3.670
19543W        W87917  42.862  33.129  12.850
19544W        W87918   6.786  44.861   0.315
19545W        W87919  26.629   9.361   4.808
19546W        W87920  19.107  16.724  12.361
19547W        W87921   9.868   8.890  10.954
19548W        W87922  41.984   3.768   3.314
19549W        W87923  27.447  15.193   1.315
19550W        W87924  38.015   9.367  10.907
19551W        W87925  19.665  32.484   1.713
19552W        W87926  27.178  32.965  14.303
19553W        W87927   8.258  18.744   1.778
19554W        W87928   5.204  39.384   2.281
19555W        W87929  24.674  30.936   4.232
19556W        W87930  39.456   4.430  12.517
19557W        W87931  33.562  32.595   4.137
19558W        W87932  30.488  33.625  10.409
19559W        W87933  28.959  35.364   0.926
19560W        W87934  31.449  38.831  13.796
19561W        W87935  14.164  30.916  14.327
19562W        W87936  44.954  14.824   0.852
19563W        W87937  28.457  43.452   1.784
19564W        W87938  15.598  19.540  14.291
19565W        W87939  44.818   6.267   2.712
19566W        W87940  20.708  17.583   1.934
19567W        W87941  44.833  34.555   0.397
19568W        W87942  44.461  42.346   4.611
19569W        W87943  11.246  31.064  12.541
19570W        W87944  20.040  40.830   0.380
19571W        W87945  39.894  15.204   3.815
19572W        W87946  43.876  27.612  13.885
19573W        W87947   8.167  11.660   2.236
19574W        W87948  28.047  35.375   3.684
19575W        W87949  39.421  25.537  10.517
19576W        W87950  42.996  24.529   3.674
19577W        W87951   2.439  39.823  10.604
19578W        W87952   1.733  15.823  11.867
19579W        W87953  21.571  13.183   0.477
19580W        W87954  30.043  22.084  12.535
19581W        W87955  39.024  19.545   4.263
19582W        W87956   0.922  31.495  13.952
19583W        W87957   7.278  12.232   4.320
19584W        W87958  44.343  12.783   0.413
19585W        W87959   0.337  18.196  11.555
19586W        W87960  18.677   0.866   4.207
19587W        W87961   6.343  41.851   0.272
19588W        W87962  15.617  16.233   3.814
19589W        W87963  20.582  36.561  13.884
19590W        W87964   0.882  43.017   1.920
19591W        W87965  44.267   0.913   5.112
19592W        W87966  21.525  43.952  14.356
19593W        W87967  13.689  33.897   0.431
19594W        W87968  14.805  35.566   3.646
19595W        W87969  24.623   9.794   4.244
19596W        W87970  21.716   6.222  13.548
19597W        W87971  23.099  11.733   4.290
19598W        W87972   8.173  44.470   0.425
19599W        W87973   4.256  36.857   1.248
19600W        W87974   6.786  20.666  14.372
19601W        W87975   9.178  37.085   3.847
19602W        W87976   2.369  13.675  10.566
19603W        W87977  37.894  15.609   2.841
19604W        W87978  29.577  10.205  11.495
19605W        W87979   6.839  42.370   1.277
19606W        W87980  10.177  19.100   2.393
19607W        W87981   0.765  38.070   1.295
19608W        W87982  40.002   9.250   4.814
19609W        W87983  24.097   4.263   1.258
19610W        W87984  35.004  35.446   0.807
19611W        W87985  34.904  28.483  11.403
19612W        W87986  20.630  36.416   0.304
19613W        W87987  32.577  14.130   2.823
19614W        W87988  28.978  36.393  12.076
19615W        W87989  42.872  15.784   1.264
19616W        W87990  27.173  18.207  14.955
19617W        W87991  42.819  42.877   3.743
19618W        W87992  11.626   6.724   1.830
19619W        W87993  16.784  33.116   1.854
19620W        W87994  23.603  34.103   3.668
19621W        W87995   3.288   1.910  11.600
19622W        W87996  39.318   1.856  12.045
19623W        W87997  16.760  10.206  11.408
19624W        W87998  32.054  18.203  10.596
19625W        W87999  24.537  36.548   0.922
19626W        W88000   2.242  10.337  11.599
19627W        W88001   2.296  23.601   4.205
19628W        W88002  28.603  29.944   2.726
19629W        W88003  38.996  23.146   4.723
19630W        W88004  28.996  13.125   3.864
19631W        W88005  41.791  21.616  14.408
19632W        W88006  36.878  37.557  13.998
19633W        W88007  37.014  19.108   3.151
19634W        W88008  25.709  33.617   0.779
19635W        W88009  19.231  30.147  11.573
19636W        W88010  23.579  30.065   2.413
19637W        W88011  19.252  27.167  14.449
19638W        W88012  26.125  42.777  11.430
19639W        W88013   1.888   7.825   1.811
19640W        W88014  36.516   1.947   4.808
19641W        W88015  36.489  23.537   0.433
19642W        W88016  15.236  26.126   4.157
19643W        W88017  20.667  23.548   2.329
19644W        W88018  34.961   8.708  12.554
19645W        W88019  16.608   5.345   1.286
19646W        W88020   0.298   2.926  14.869
19647W        W88021  23.733  42.803  12.390
19648W        W88022  21.237  21.698  13.859
19649W        W88023  18.654   1.918   4.124
19650W        W88024  15.231  13.148  11.475
19651W        W88025  31.414  17.215   0.728
19652W        W88026   9.360  32.627  11.508
19653W        W88027  20.751  11.790  13.864
19654W        W88028  29.440  42.884   1.734
19655W        W88029  24.600   2.895  14.015
19656W        W88030   0.765   5.272   0.779
19657W        W88031  31.136   6.841   3.736
19658W        W88032  38.824  21.152   4.125
19659W        W88033  41.497   0.985  11.897
19660W        W88034  25.637   1.327  13.027
19661W        W88035  13.303  33.939  10.530
19662W        W88036   7.838   6.314  14.969
19663W        W88037   6.866   7.283  14.275
19664W        W88038  40.333  31.965   3.783
19665W        W88039  28.128  38.429   4.699
19666W        W88040  36.892  29.154  11.102
19667W        W88041  26.166   3.275   3.223
19668W        W88042   3.923  30.988   2.352
19669W        W88043  12.229   6.393  10.568
19670W        W88044  32.445  29.952   0.326
19671W        W88045  16.697  30.978  14.901
19672W        W88046   8.296  44.907   4.332
19673W        W88047  18.251  20.547   1.429
19674W        W88048  22.082  38.063  11.129
19675W        W88049  40.367  37.516   0.409
19676W        W88050  15.281   8.247   0.367
19677W        W88051  32.102   0.888  12.483
19678W        W88052  21.523  32.411   2.786
19679W        W88053   5.431   3.907  13.821
19680W        W88054  27.541  27.021  13.459
19681W        W88055   4.388  10.322   0.362
19682W        W88056  32.421  32.127   2.281
19683W        W88057  34.582  28.167  11.385
19684W        W88058  39.037   6.788  12.912
19685W        W88059  40.317  41.863   3.383
19686W        W88060  37.982  34.121   3.276
19687W        W88061   3.232  14.788   1.268
19688W        W88062  42.987   8.271  10.996
19689W        W88063   6.688  27.588  13.886
19690W        W88064  42.812   2.918   2.292
19691W        W88065  26.173  16.634   4.709
19692W        W88066  31.507  13.684   1.830
19693W        W88067   4.409  17.223  13.813
19694W        W88068   8.678  38.403   3.680
19695W        W88069  23.663  15.764   1.817
19696W        W88070  22.612  26.183  12.854
19697W        W88071   9.885   8.684   0.786
19698W        W88072  26.491  32.480  14.921
19699W        W88073  38.841  29.072   4.682
19700W        W88074   2.249  12.760  10.083
19701W        W88075  43.879   1.861   2.213
19702W        W88076  15.765  18.577   5.156
19703W        W88077  36.462   8.701   2.269
19704W        W88078   0.399  16.231   2.357
19705W        W88079  36.005  43.967   3.871
19706W        W88080  40.487  17.294  13.991
19707W        W88081  12.683  25.091  11.503
19708W        W88082  39.403  31.609  14.930
19709W        W88083  28.615  15.152  12.849
19710W        W88084  30.926   0.468  12.002
19711W        W88085  27.163   3.942  12.976
19712W        W88086  25.963  17.793  14.493
19713W        W88087  14.099  18.052  13.466
19714W        W88088  43.008   6.832  14.462
19715W        W88089   2.300  40.493  14.886
19716W        W88090  23.165  21.112  12.408
19717W        W88091  35.358   4.282   1.742
19718W        W88092  37.554  43.881  12.840
19719W        W88093   7.725  16.720  12.956
19720W        W88094  29.045  16.167   4.277
19721W        W88095   6.318  41.950   2.407
19722W        W88096  34.567  15.592  12.071
19723W        W88097  31.969  39.331   4.314
19724W        W88098  44.869  19.081   1.788
19725W        W88099  38.075  21.579   3.803
19726W        W88100  31.503   9.293   0.449
19727W        W88101   8.338  31.528  10.035
19728W        W88102   1.913   3.243   0.865
19729W        W88103  12.846  18.193   0.243
19730W        W88104  13.671  14.828   0.895
19731W        W88105   4.240   8.203   0.921
19732W        W88106  35.983   4.291  13.489
19733W        W88107   9.265  37.864   0.726
19734W        W88108   1.323  44.853   0.394
19735W        W88109   4.333   6.351  11.550
19736W        W88110  11.264   1.805  11.492
19737W        W88111  16.732  29.645   3.867
19738W        W88112   7.681  30.461  10.460
19739W        W88113  11.201   6.348   3.689
19740W        W88114  21.246  24.556  14.982
19741W        W88115  37.473  38.450  14.920
19742W        W88116  16.212  32.130   3.649
19743W        W88117  30.017   3.438   1.804
19744W        W88118   3.789   7.795  11.095
19745W        W88119  17.622   9.187  11.552
19746W        W88120  43.772  21.639  11.992
19747W        W88121  38.941  30.088  13.353
19748W        W88122  10.649  43.968   1.718
19749W        W88123   0.872  10.726   4.719
19750W        W88124  18.698  18.271  13.463
19751W        W88125  18.607   6.309   3.167
19752W        W88126   9.340   7.339  14.026
19753W        W88127  39.504  10.298   5.105
19754W        W88128  27.121  14.817  13.810
19755W        W88129  23.536  39.499  11.442
19756W        W88130  25.479  32.107   1.694
19757W        W88131   5.834   6.251   3.686
19758W        W88132  43.289  41.890  13.821
19759W        W88133  17.231  32.912   1.933
19760W        W88134  34.454  24.687  12.563
19761W        W88135  26.688  35.909  10.404
19762W        W88136  25.039  31.952   2.405
19763W        W88137  42.370  28.033   2.322
19764W        W88138  11.758  32.625  10.993
19765W        W88139  24.694  28.502  12.039
19766W        W88140  17.295   5.698   1.713
19767W        W88141  16.649   9.738  10.947
19768W        W88142  27.098  18.762   0.853
19769W        W88143   8.215  27.067   3.363
19770W        W88144   4.797  27.681  13.865
19771W        W88145  15.687   0.374  12.013
19772W        W88146   3.806   8.720   2.273
19773W        W88147  39.022  15.181  14.425
19774W        W88148  36.887  21.207   4.740
19775W        W88149  29.114   4.718  10.490
19776W        W88150  15.578  30.037  13.962
19777W        W88151  30.477  33.124   0.958
19778W        W88152  23.227  11.373  12.514
19779W        W88153  23.077  19.181   2.281
19780W        W88154  21.076  23.715  13.471
19781W        W88155  44.502  11.346   1.323
19782W        W88156  35.526  26.523   3.820
19783W        W88157  40.025  30.543   0.400
19784W        W88158  30.962  21.143   4.730
19785W        W88159  29.540  15.310  12.341
19786W        W88160  34.956  38.049  13.494
19787W        W88161  33.110  17.659   0.730
19788W        W88162  10.252  21.164  13.331
19789W        W88163  30.459  13.183  12.068
19790W        W88164  11.212  20.223   2.283
19791W        W88165  36.463   4.295   0.754
19792W        W88166  44.872   9.797   4.607
19793W        W88167  29.587  30.017  14.012
19794W        W88168  25.480  29.585   2.384
19795W        W88169  29.571  26.070  12.969
19796W        W88170  33.493   0.952   3.316
19797W        W88171  14.621   6.361  14.333
19798W        W88172   7.771  41.795  10.459
19799W        W88173  13.828  35.529  14.361
19800W        W88174   5.386  20.642  13.807
19801W        W88175  26.978  30.589   4.216
19802W        W88176  19.693   0.392  12.995
19803W        W88177   1.380   4.736   3.699
19804W        W88178  14.833  20.128  12.900
19805W        W88179  23.613  16.723   4.273
19806W        W88180  36.592   3.841  10.627
19807W        W88181  24.648  12.679   2.418
19808W        W88182  16.726  11.756   3.693
19809W        W88183  40.342  36.950  10.934
19810W        W88184  27.655   4.881  12.370
19811W        W88185  40.853  25.152  13.312
19812W        W88186  39.320  24.644   2.282
19813W        W88187  37.042  25.050  13.374
19814W        W88188  25.612  15.619   3.729
19815W        W88189  43.419  31.641  13.841
19816W        W88190  35.015   8.267   4.673
19817W        W88191  19.713  24.630   1.373
19818W        W88192  43.983  27.036   0.792
19819W        W88193  14.204  32.501   1.217
19820W        W88194  18.679   3.925   2.206
19821W        W88195   3.461  10.330   1.743
19822W        W88196  15.638  37.406   4.313
19823W        W88197  33.424  38.952   4.256
19824W        W88198  22.024   4.921   0.777
19825W        W88199  12.334   0.439  12.971
19826W        W88200   9.190  17.272  12.524
19827W        W88201  37.413  17.631   2.902
19828W        W88202  38.449  38.947  12.558
19829W        W88203  25.671   1.976   1.831
19830W        W88204  23.197  33.986   3.827
19831W        W88205   7.755  41.938  11.509
19832W        W88206  36.931  38.065  12.049
19833W        W88207  11.157  31.564  14.405
19834W        W88208  21.669  31.610   0.455
19835W        W88209  24.030  41.474   4.237
19836W        W88210  19.227   3.421  12.366
19837W        W88211  26.153  28.584   2.369
19838W        W88212  44.367  31.446  10.601
19839W        W88213   2.757  11.834   1.701
19840W        W88214  19.652  31.648   2.401
19841W        W88215   3.823   3.857  13.850
19842W        W88216   9.201  28.543  11.914
19843W        W88217  15.808  16.172  13.965
19844W        W88218   4.345  42.355  13.880
19845W        W88219   6.904   3.420  12.939
19846W        W88220   3.379   1.453  12.919
19847W        W88221  28.606  42.520   2.182
19848W        W88222  42.516  10.237   4.313
19849W        W88223  12.767  30.467   3.235
19850W        W88224  11.282  30.908   1.813
19851W        W88225  30.125  19.710  11.373
19852W        W88226  35.391  24.201   3.202
19853W        W88227   8.860   1.863  10.443
19854W        W88228  43.496   6.260   2.320
19855W        W88229  30.063  18.103  14.408
19856W        W88230  24.107  33.925   4.798
19857W        W88231  31.950  28.619  10.986
19858W        W88232  13.723  22.240   1.866
19859W        W88233  35.891  23.026  12.397
19860W        W88234  18.653  29.507  10.543
19861W        W88235  26.678   4.349   0.380
19862W        W88236  15.235  15.636  14.497
19863W        W88237  38.393  38.565   2.696
19864W        W88238  43.950  19.117   0.298
19865W        W88239   8.358  39.543   0.322
19866W        W88240  15.751  39.870  12.900
19867W        W88241   7.203  14.789   3.326
19868W        W88242  26.960  18.739  13.905
19869W        W88243  34.039  44.777   0.356
19870W        W88244  30.132  30.611  14.387
19871W        W88245   9.296  23.513  10.479
19872W        W88246  38.400  12.856   4.328
19873W        W88247  36.578  21.206   5.256
19874W        W88248  18.075  43.332   2.803
19875W        W88249   4.817  33.395  14.775
19876W        W88250  31.059  32.498  12.554
19877W        W88251   3.816  19.162   0.924
19878W        W88252  37.556   5.767   3.847
19879W        W88253  37.384  38.496  13.942
19880W        W88254  42.828  43.326   2.710
19881W        W88255  37.560   9.349   2.283
19882W        W88256  34.486   9.792  13.840
19883W        W88257   3.366   1.249   0.389
19884W        W88258  21.587  28.484   2.841
19885W        W88259  23.145  26.969  12.009
19886W        W88260  40.003  21.087   1.294
19887W        W88261  44.798  37.348  10.424
19888W        W88262   9.341  32.581   1.293
19889W        W88263  12.116  41.506  13.400
19890W        W88264  22.710  13.323   2.668
19891W        W88265  16.740  43.867   0.359
19892W        W88266   3.880  11.842  14.334
19893W        W88267  36.384   5.378   0.857
19894W        W88268  17.685  20.563   4.635
19895W        W88269  40.827  14.279  13.527
19896W        W88270  19.670   3.941   1.344
19897W        W88271  37.366   8.324   1.878
19898W        W88272  19.238  26.528  13.927
19899W        W88273  13.323   0.750   3.311
19900W        W88274   7.739  34.399   4.228
19901W        W88275   6.805   2.764   1.249
19902W        W88276  17.633  34.075   4.334
19903W        W88277  22.073  33.925  11.528
19904W        W88278   8.816  16.222  13.953
19905W        W88279  32.404   5.204   2.243
19906W        W88280  12.265  41.343  10.954
19907W        W88281  11.322  23.159   4.140
19908W        W88282  24.075  42.456   0.863
19909W        W88283  26.463   5.325   0.480
19910W        W88284   0.323  24.181  13.822
19911W        W88285   2.271   6.355   3.314
19912W        W88286  44.481  31.629   3.334
19913W        W88287  33.611  24.562   0.363
19914W        W88288  19.188  43.502   3.639
19915W        W88289  27.548  16.759   4.238
19916W        W88290  11.639  34.070   2.403
19917W        W88291  15.640  42.975  14.360
19918W        W88292  40.888  26.474  13.063
19919W        W88293   9.765   1.948   3.744
19920W        W88294   3.328  31.413  11.434
19921W        W88295   9.370   6.421  14.477
19922W        W88296  32.533  20.237   2.318
19923W        W88297   7.780   9.678  12.992
19924W        W88298   6.738  29.591  10.432
19925W        W88299  24.663  11.707   2.854
19926W        W88300  22.243  44.376  14.339
19927W        W88301  38.853  41.449  12.493
19928W        W88302  28.462   0.320  10.619
19929W        W88303  22.218  31.404   3.277
19930W        W88304  23.037   7.716  10.432
19931W        W88305  23.100   5.714   0.256
19932W        W88306   9.395   5.697   3.348
19933W        W88307  18.214  37.848  12.876
19934W        W88308  11.734  12.832   0.923
19935W        W88309  35.468  43.994   0.790
19936W        W88310  17.606  25.513   2.409
19937W        W88311  35.944  12.706   0.333
19938W        W88312  23.712  41.483   2.738
19939W        W88313  37.990   3.796  13.802
19940W        W88314  39.463   4.911   3.766
19941W        W88315  39.388   8.237  12.871
19942W        W88316  32.886  11.297   4.677
19943W        W88317  29.031  12.626  14.497
19944W        W88318  43.003  41.496   3.268
19945W        W88319  27.012   7.302  11.886
19946W        W88320   8.211   1.418  12.916
19947W        W88321  28.609  29.668   0.944
19948W        W88322  33.057  41.334  13.051
19949W        W88323   0.815   0.933  11.871
19950W        W88324  20.706  39.491   4.299
19951W        W88325  17.595  11.812  11.957
19952W        W88326  39.937  32.045   0.765
19953W        W88327  15.610  11.777   2.409
19954W        W88328  11.268   0.988  14.979
19955W        W88329  28.538  26.627  10.490
19956W        W88330  16.282   8.340   3.865
19957W        W88331   7.856  42.296  11.411
19958W        W88332   0.360  13.182  13.321
19959W        W88333   6.381  24.639   4.818
19960W        W88334   1.444   7.401   2.670
19961W        W88335  41.029  34.428   2.241
19962W        W88336   1.761  36.424   1.829
19963W        W88337  25.053  32.079  14.374
19964W        W88338  40.922  16.608  11.438
19965W        W88339  28.556   0.296  12.853
19966W        W88340  34.524  16.644  14.900
19967W        W88341  44.760  36.576   1.334
19968W        W88342  14.642  44.004   1.857
19969W        W88343   9.876  27.625  11.402
19970W        W88344  42.852   4.441   4.718
19971W        W88345  10.760  29.996   0.785
19972W        W88346  21.258  15.659   5.143
19973W        W88347  31.104  19.576   9.977
19974W        W88348   4.368   5.799   2.212
19975W        W88349  20.186  19.274   4.243
19976W        W88350  30.489  19.618  10.893
19977W        W88351  40.872   7.366   2.709
19978W        W88352  42.370  17.712   1.275
19979W        W88353  25.662   0.827  11.024
19980W        W88354   2.420  34.445   3.755
19981W        W88355  18.062   8.867   4.230
19982W        W88356  12.769  36.435   2.791
19983W        W88357  32.890  39.396  11.018
19984W        W88358  31.546  43.396  13.409
19985W        W88359  20.096  14.177  14.896
19986W        W88360  16.805  36.355   4.737
19987W        W88361  44.350  20.619   1.781
19988W        W88362   0.946  42.883  10.154
19989W        W88363  36.512  36.592  12.901
19990W        W88364  33.132  17.702   4.680
19991W        W88365  32.090  10.730  13.365
19992W        W88366  10.768  39.997  13.922
19993W        W88367  10.191  27.100   2.721
19994W        W88368   8.757   9.824   3.694
19995W        W88369   0.944  25.172   2.284
19996W        W88370  21.528   0.278   4.833
19997W        W88371  27.115   7.791  14.805
19998W        W88372  25.663  22.527   0.745
19999W        W88373  14.143   2.269   3.290
20000W        W88374   4.941  36.542   3.813
20001W        W88375   0.468  43.313   3.148
20002W        W88376  39.524  10.795   1.824
20003W        W88377  32.124   2.797   1.216
20004W        W88378  32.481  15.092   0.950
20005W        W88379  24.671   1.789   4.771
20006W        W88380   8.840  43.464   4.799
20007W        W88381  43.413   6.357  13.005
20008W        W88382   8.194  34.542  11.905
20009W        W88383  38.538  13.672   0.817
20010W        W88384  16.771   2.441  10.533
20011W        W88385   9.815  17.744   5.794
20012W        W88386  21.206  27.528   4.710
20013W        W88387  35.565  20.633  14.510
20014W        W88388  26.656   7.257   0.346
20015W        W88389  19.655  26.108   4.736
20016W        W88390  14.654  29.586   0.895
20017W        W88391  29.057  19.719  13.403
20018W        W88392  32.404  31.061   1.779
20019W        W88393  29.979  38.456   0.750
20020W        W88394   7.776  11.134  14.798
20021W        W88395  41.009  21.621   0.928
20022W        W88396  25.184  28.086  11.112
20023W        W88397   1.428   2.430  11.527
20024W        W88398  31.925   1.968  11.434
20025W        W88399   8.786  33.127  11.588
20026W        W88400  37.515  40.438   2.693
20027W        W88401  34.415  42.029   3.255
20028W        W88402  33.497  14.751  11.526
20029W        W88403  36.507  29.560  12.446
20030W        W88404  35.900  16.578   3.379
20031W        W88405  24.163  35.105   2.313
20032W        W88406  20.631  33.541  11.043
20033W        W88407  27.185  18.180   0.968
20034W        W88408  29.002  31.906  11.994
20035W        W88409  42.377  38.821   3.287
20036W        W88410  44.420   4.206  10.094
20037W        W88411  29.512  13.601  12.919
20038W        W88412   1.735  19.711  10.413
20039W        W88413  14.708  17.605  11.480
20040W        W88414  15.236  17.302   4.694
20041W        W88415  27.466  38.526   2.239
20042W        W88416  39.047  20.161   0.944
20043W        W88417  26.183  29.125  11.603
20044W        W88418  17.088  22.558   5.084
20045W        W88419  41.342  14.690   4.832
20046W        W88420   4.232  31.462   2.777
20047W        W88421  23.500  20.251  12.001
20048W        W88422  30.097  38.922   3.385
20049W        W88423  11.838  30.040  13.526
20050W        W88424  15.814  29.652  11.594
20051W        W88425  17.269  39.324  14.967
20052W        W88426   0.377  43.454   4.206
20053W        W88427  39.375  39.982  11.453
20054W        W88428   8.230   2.809   5.303
20055W        W88429   5.735   4.343   1.883
20056W        W88430  24.038   2.957   2.193
20057W        W88431  11.351  15.213  12.881
20058W        W88432  44.336  24.710  13.536
20059W        W88433   6.190  29.159   2.712
20060W        W88434  32.440   9.299  12.386
20061W        W88435  36.384  42.317   3.674
20062W        W88436   8.761   7.265  14.397
20063W        W88437  15.219   9.182  13.966
20064W        W88438  34.599  11.736  11.489
20065W        W88439  25.607   6.691  13.914
20066W        W88440  14.676  21.617  11.864
20067W        W88441   9.391  18.271   1.779
20068W        W88442  44.008  11.373   3.728
20069W        W88443  21.259  17.170  12.901
20070W        W88444   4.383   1.283   2.823
20071W        W88445  33.951  29.431  13.943
20072W        W88446  10.710  28.637  13.344
20073W        W88447  35.955  27.512   0.956
20074W        W88448   4.396  44.279   4.250
20075W        W88449   9.349  28.551  14.312
20076W        W88450  10.814  43.959  12.374
20077W        W88451  14.733  30.915  13.030
20078W        W88452  41.445  39.482  14.500
20079W        W88453  18.118  20.258  11.860
20080W        W88454  12.630  43.894  11.999
20081W        W88455  35.011  43.342  10.560
20082W        W88456   2.450   8.233   0.909
20083W        W88457  19.280  26.955  10.927
20084W        W88458  16.801  16.669  14.849
20085W        W88459   5.876  27.179  10.435
20086W        W88460  23.596  43.345  11.424
20087W        W88461   6.799  28.598  12.432
20088W        W88462  31.065   5.871   2.746
20089W        W88463  30.119  31.080   1.795
20090W        W88464  41.819  16.587   0.327
20091W        W88465  33.984  23.134   0.407
20092W        W88466  25.504   1.934   4.212
20093W        W88467  19.272  41.414   2.688
20094W        W88468  31.479  43.375   3.785
20095W        W88469  17.066  42.300  10.900
20096W        W88470   2.751   4.400  11.886
20097W        W88471  38.923  20.122   3.320
20098W        W88472   2.365  32.476  13.346
20099W        W88473  33.419  26.676  11.116
20100W        W88474  33.900  39.942   3.753
20101W        W88475  33.970  16.706  13.507
20102W        W88476   5.712  39.324   4.598
20103W        W88477  29.142  16.760   0.728
20104W        W88478   9.852   1.941  13.386
20105W        W88479   7.757  20.724   2.870
20106W        W88480  32.083  25.520  10.573
20107W        W88481  40.455  12.769  14.494
20108W        W88482  20.671  10.684   0.427
20109W        W88483  22.718  29.598   2.418
20110W        W88484  18.738  40.520   5.082
20111W        W88485  43.904  25.197   4.292
20112W        W88486   1.293  27.601  11.129
20113W        W88487  31.128   6.802  14.303
20114W        W88488  39.407  16.696  12.374
20115W        W88489  27.672  33.121   3.173
20116W        W88490  13.190  40.316   1.805
20117W        W88491  23.568   2.378  12.086
20118W        W88492  10.762  38.900   3.688
20119W        W88493  44.458  16.799  13.030
20120W        W88494  33.569  37.948  11.487
20121W        W88495  13.213  21.697  10.623
20122W        W88496   7.895  13.689  12.531
20123W        W88497  15.089  24.505  14.767
20124W        W88498  26.979  40.904  12.396
20125W        W88499  37.991  17.704   2.183
20126W        W88500  11.226  16.293  10.967
20127W        W88501  10.814  15.795   0.898
20128W        W88502   1.863   4.419   1.901
20129W        W88503  25.484   9.776   1.317
20130W        W88504  27.683  23.601   2.748
20131W        W88505  43.326  24.589   2.382
20132W        W88506   6.729  26.121   3.809
20133W        W88507  43.514  10.368   2.769
20134W        W88508  44.485  21.087   9.992
20135W        W88509  13.807  35.891   0.392
20136W        W88510  35.952  28.525   1.923
20137W        W88511  36.543  30.157  13.912
20138W        W88512  34.535  10.716  14.970
20139W        W88513  21.564  34.393   2.804
20140W        W88514  42.303  37.947   2.328
20141W        W88515  40.870  42.383   2.218
20142W        W88516  43.895  33.063  11.861
20143W        W88517  32.555  20.160   3.698
20144W        W88518  38.397  36.364   4.598
20145W        W88519  39.455  32.627   4.304
20146W        W88520  14.691  20.656  10.431
20147W        W88521   5.915  29.972   1.865
20148W        W88522  38.444  15.781  10.588
20149W        W88523   7.896  22.599   3.187
20150W        W88524  20.718   2.325   2.237
20151W        W88525  29.150  38.898  12.475
20152W        W88526  40.894   8.291   1.319
20153W        W88527  25.523  12.738   4.768
20154W        W88528   9.695  10.834  14.816
20155W        W88529  19.129  20.556   1.849
20156W        W88530  43.411   8.675  14.463
20157W        W88531  14.175  18.232  11.583
20158W        W88532  38.453  33.057  14.426
20159W        W88533  34.947  36.973  14.795
20160W        W88534   5.283   1.295   2.342
20161W        W88535  42.032   9.290   0.392
20162W        W88536  28.681  29.622  13.831
20163W        W88537   9.837  17.718  13.353
20164W        W88538  35.985  35.516   4.729
20165W        W88539  30.615   8.332   2.806
20166W        W88540   4.869  19.039  14.306
20167W        W88541   4.259  19.613  12.845
20168W        W88542  31.060   2.413  11.503
20169W        W88543  43.001   1.857   0.261
20170W        W88544  10.255   1.807  12.527
20171W        W88545  23.985  25.608  13.899
20172W        W88546  27.062  40.382  11.891
20173W        W88547   9.847  43.404  11.895
20174W        W88548   5.212  28.617   0.751
20175W        W88549  38.821  26.983  13.539
20176W        W88550   1.323  19.217  11.913
20177W        W88551   7.355  21.057   3.359
20178W        W88552   4.275  33.985   2.694
20179W        W88553  11.352   4.814   3.208
20180W        W88554  15.112  28.681   4.351
20181W        W88555  10.235  24.664   2.257
20182W        W88556   0.914  23.101   0.381
20183W        W88557  25.102  36.935  12.505
20184W        W88558  13.202  39.830  14.411
20185W        W88559  22.150  33.390  12.875
20186W        W88560  15.705  43.909  13.838
20187W        W88561  28.672  26.503   0.473
20188W        W88562  17.289  22.011   1.416
20189W        W88563   4.729  42.968  12.514
20190W        W88564  17.231  28.619   3.710
20191W        W88565   9.230  26.110   2.238
20192W        W88566  44.798  22.744   4.130
20193W        W88567  40.023  14.664   4.627
20194W        W88568   4.839  19.594   3.792
20195W        W88569  30.602  26.982   0.869
20196W        W88570  16.135  31.973   2.854
20197W        W88571  22.248  11.733  12.461
20198W        W88572  27.183   8.288   3.323
20199W        W88573  25.473   1.237  11.885
20200W        W88574  14.136   9.254  12.989
20201W        W88575  30.653  12.784   2.894
20202W        W88576   0.953  21.597  13.863
20203W        W88577  23.141  38.975  10.968
20204W        W88578  15.735  14.131   1.332
20205W        W88579  18.599  17.226   0.795
20206W        W88580  27.548  13.321  11.467
20207W        W88581  12.813  17.062   4.753
20208W        W88582   6.298   7.792   2.240
20209W        W88583   6.831  33.905  11.088
20210W        W88584  23.736  25.967  11.574
20211W        W88585  44.818  25.652  12.032
20212W        W88586  18.293  16.586   2.690
20213W        W88587  18.280   5.704   1.270
20214W        W88588  38.443  16.072   1.357
20215W        W88589  39.547  27.591   2.199
20216W        W88590  23.544  32.562  10.426
20217W        W88591  31.102   4.739  14.776
20218W        W88592  10.672   1.950  12.468
20219W        W88593  16.730  36.413  11.925
20220W        W88594  20.740   5.213  11.521
20221W        W88595   2.886   7.804   4.825
20222W        W88596   6.823  23.501  13.387
20223W        W88597  14.657  16.698  14.276
20224W        W88598  27.114  28.596   2.323
20225W        W88599  41.474  32.020  14.441
20226W        W88600  30.029  42.965  12.404
20227W        W88601   0.439   9.874   4.719
20228W        W88602  34.080   7.906  11.555
20229W        W88603  31.488  14.097   0.268
20230W        W88604  33.907  31.922   3.857
20231W        W88605   9.299  18.718   3.157
20232W        W88606   5.403   6.263   1.412
20233W        W88607  26.196  42.320   4.715
20234W        W88608  25.581  14.690   3.226
20235W        W88609   8.792  12.290  13.340
20236W        W88610  34.567  28.173  12.375
20237W        W88611  29.928   9.180  10.908
20238W        W88612  43.008  43.424   0.768
20239W        W88613   9.697  30.433   2.206
20240W        W88614  13.214   8.856   0.273
20241W        W88615  38.917  15.616   5.256
20242W        W88616  19.082  25.690  11.010
20243W        W88617  35.036   8.289   2.369
20244W        W88618  25.110   7.784  12.889
20245W        W88619  23.704  44.502   4.337
20246W        W88620   4.897  42.365   3.219
20247W        W88621  16.286  15.717  14.969
20248W        W88622  29.619  17.307  11.535
20249W        W88623   4.855   2.864   1.886
20250W        W88624  26.010  42.885  10.548
20251W        W88625  36.992   8.253   1.738
20252W        W88626  33.599  15.671   3.732
20253W        W88627  43.271  31.639   2.870
20254W        W88628  42.406  35.979   0.357
20255W        W88629  42.334   3.786  13.385
20256W        W88630  44.292   8.192  13.372
20257W        W88631  44.986  18.196  12.024
20258W        W88632   4.317  38.019  14.964
20259W        W88633  17.670  12.117   3.323
20260W        W88634  37.368   5.331  11.531
20261W        W88635  15.225  11.783   1.434
20262W        W88636  41.879  28.045   2.776
20263W        W88637   2.856  19.660   2.327
20264W        W88638  37.964  43.293  13.022
20265W        W88639  25.502  25.080   5.255
20266W        W88640  43.346  23.018   3.166
20267W        W88641  10.708   6.793   2.194
20268W        W88642  44.993   6.400   3.668
20269W        W88643  17.573  36.850  11.541
20270W        W88644   2.368  32.480  14.950
20271W        W88645  27.574  10.647   3.783
20272W        W88646  18.626  11.832   1.898
20273W        W88647  14.160  38.907   0.481
20274W        W88648  21.115  20.537   3.259
20275W        W88649  15.596  32.079   2.403
20276W        W88650  28.623   4.942  13.926
20277W        W88651  30.515  23.211   2.720
20278W        W88652  15.794  18.141   2.417
20279W        W88653   7.248  33.512  13.367
20280W        W88654  39.947   4.723   9.935
20281W        W88655  19.104  36.402   4.698
20282W        W88656   9.202   8.854   0.894
20283W        W88657  41.950  22.513  13.055
20284W        W88658   1.347  23.142   1.240
20285W        W88659  15.700   3.870   2.714
20286W        W88660  28.934  30.153  12.912
20287W        W88661   6.860  26.962   0.952
20288W        W88662  43.951  35.986   2.858
20289W        W88663  43.910   6.813  10.914
20290W        W88664  21.717  19.597  11.372
20291W        W88665  24.602  21.242  10.618
20292W        W88666  10.159  29.075  11.453
20293W        W88667  15.268  21.581   1.445
20294W        W88668  23.607  13.200  11.031
20295W        W88669  35.057  33.067   4.309
20296W        W88670   3.276  24.138  11.405
20297W        W88671   8.264  43.313   1.236
20298W        W88672  32.001  43.489  14.014
20299W        W88673  43.982  44.987   0.482
20300W        W88674  39.475  12.213  13.528
20301W        W88675   0.757  37.546  14.825
20302W        W88676   7.342  13.653   1.718
20303W        W88677  40.412  25.088  11.390
20304W        W88678  22.571  29.499  13.395
20305W        W88679  28.978  16.197  13.931
20306W        W88680   1.773  37.080  12.437
20307W        W88681  16.139  20.630  13.827
20308W        W88682   3.318  36.466  12.495
20309W        W88683  43.950   1.447   0.850
20310W        W88684  16.308  19.698   2.732
20311W        W88685  18.270  17.190   2.893
20312W        W88686   8.326  25.963   3.696
20313W        W88687   4.728  32.536   4.257
20314W        W88688  18.610  20.037  14.820
20315W        W88689  35.543  12.820  13.876
20316W        W88690  10.717  26.567   4.299
20317W        W88691  16.202  36.421  14.446
20318W        W88692  12.659  33.544   4.348
20319W        W88693  20.063   2.958   0.930
20320W        W88694  44.311  11.336   4.733
20321W        W88695  10.803  37.573   4.175
20322W        W88696  32.493  22.555   4.757
20323W        W88697  17.259   3.716   4.601
20324W        W88698  34.609  11.270   2.387
20325W        W88699  12.792   3.258   1.219
20326W        W88700  15.110  19.669   1.278
20327W        W88701  40.517  15.612  12.842
20328W        W88702   4.294  27.175   2.824
20329W        W88703  42.437  23.553  13.508
20330W        W88704  38.419   6.376   4.677
20331W        W88705  21.685  35.514   3.351
20332W        W88706  41.043   0.928  12.570
20333W        W88707  22.747  44.802  12.487
20334W        W88708  44.962  32.044   0.346
20335W        W88709   6.186  26.632   4.266
20336W        W88710  41.968   8.699   0.754
20337W        W88711  24.976  41.968  14.383
20338W        W88712  36.022  41.820   4.787
20339W        W88713  37.891  11.724  10.889
20340W        W88714  40.416  28.938   2.261
20341W        W88715   8.864  21.587   3.252
20342W        W88716  29.923  24.556  14.382
20343W        W88717  40.856   1.243  13.375
20344W        W88718   6.724  12.836   3.790
20345W        W88719  28.510   7.263  14.790
20346W        W88720  20.091  25.132   1.263
20347W        W88721  27.000  34.378  12.927
20348W        W88722   6.244  40.807  11.607
20349W        W88723  35.920   8.899   1.758
20350W        W88724  42.917  17.666  11.504
20351W        W88725  19.544  18.156   1.725
20352W        W88726  13.275  37.445   3.157
20353W        W88727  25.593   2.412   4.727
20354W        W88728  44.758  12.756   3.818
20355W        W88729  41.326  36.499  11.609
20356W        W88730  28.531   6.199  13.029
20357W        W88731  12.287   6.683  12.896
20358W        W88732  23.708  24.179  11.926
20359W        W88733  21.715  21.259   4.343
20360W        W88734  35.448  28.030   4.220
20361W        W88735  32.570   3.899   4.191
20362W        W88736  32.594  40.970  12.441
20363W        W88737  20.597  39.931   0.342
20364W        W88738  28.514  43.364   0.904
20365W        W88739  20.711  27.003  12.999
20366W        W88740  12.746  14.283   0.772
20367W        W88741  22.090  44.955   3.788
20368W        W88742  33.563   0.869  11.910
20369W        W88743  29.993  12.786  10.604
20370W        W88744  32.075   2.782   0.335
20371W        W88745  26.662  32.394  12.999
20372W        W88746  36.891  40.847  10.405
20373W        W88747  40.393  22.606   5.196
20374W        W88748  41.313  42.380  12.383
20375W        W88749  40.508   8.759   3.378
20376W        W88750   4.283  39.316   0.466
20377W        W88751  27.198  13.231   0.251
20378W        W88752  40.461   4.338   0.482
20379W        W88753   9.700  26.481  12.964
20380W        W88754   0.366   7.872  14.858
20381W        W88755   4.301  31.411  13.046
20382W        W88756  26.642  36.582   4.348
20383W        W88757  41.892  19.088  10.930
20384W        W88758  10.351  38.339  11.094
20385W        W88759  11.856   1.911   0.452
20386W        W88760  15.295   5.876   4.316
20387W        W88761   3.395  38.925   2.901
20388W        W88762  33.587   4.893   3.212
20389W        W88763   7.770  39.037  10.412
20390W        W88764  19.042  16.702  13.488
20391W        W88765  15.167  41.377  12.340
20392W        W88766  24.697  13.752   3.281
20393W        W88767  32.991  34.101   4.197
20394W        W88768  27.977  22.059   3.786
20395W        W88769  36.943   2.287   0.948
20396W        W88770  32.607   6.857   4.626
20397W        W88771  21.701  37.889   5.105
20398W        W88772  29.938  13.754   4.782
20399W        W88773  40.812  37.931   2.663
20400W        W88774  14.724  25.710   3.154
20401W        W88775  19.579  37.376   2.755
20402W        W88776  11.666  25.471  11.583
20403W        W88777  32.452   7.303   1.901
20404W        W88778  35.484  22.628  12.043
20405W        W88779  17.184  13.695  13.457
20406W        W88780  39.002  20.760   1.304
20407W        W88781  16.201  17.295   4.674
20408W        W88782  44.775  15.700   0.458
20409W        W88783  10.692  40.519   3.816
20410W        W88784  20.067  39.341  14.884
20411W        W88785  44.335  19.059   2.309
20412W        W88786  38.027  12.341  11.535
20413W        W88787  24.103  43.789  11.114
20414W        W88788   5.871  11.862   2.818
20415W        W88789  39.427  12.804  13.863
20416W        W88790  23.990  36.061  11.879
20417W        W88791   4.377  41.902   0.881
20418W        W88792  25.068  13.756  14.415
20419W        W88793  27.517  11.803  14.834
20420W        W88794  27.643  16.604  13.496
20421W        W88795  18.240  37.028  10.510
20422W        W88796  37.044  35.036  14.901
20423W        W88797   6.344  34.973  12.441
20424W        W88798  29.634  25.583  11.508
20425W        W88799   1.370  43.464  14.315
20426W        W88800   4.235  12.612   0.771
20427W        W88801  25.986  26.586   2.742
20428W        W88802  44.809  15.109   0.777
20429W        W88803  36.880  37.978  14.369
20430W        W88804  44.855  10.717  13.375
20431W        W88805  33.111   4.427   1.338
20432W        W88806  33.429  23.988  13.878
20433W        W88807  12.302  35.049   1.709
20434W        W88808  33.077  42.504  10.411
20435W        W88809  26.510   8.816   3.184
20436W        W88810  20.079  10.686   1.428
20437W        W88811  38.863  22.010  10.531
20438W        W88812  11.777  31.953   3.825
20439W        W88813  38.343  24.191  10.541
20440W        W88814  37.364  28.141   2.809
20441W        W88815  22.251  43.318  10.588
20442W        W88816  40.001  40.984   0.852
20443W        W88817  31.101  18.687   1.759
20444W        W88818  22.536  17.065  12.422
20445W        W88819  21.698  27.639   1.248
20446W        W88820  24.974  32.918  13.911
20447W        W88821  26.152  11.653   3.260
20448W        W88822  28.559  19.131   1.260
20449W        W88823  40.333   7.264   1.782
20450W        W88824  44.420  18.637  11.419
20451W        W88825  39.399  31.899  14.943
20452W        W88826  12.343  10.788   4.813
20453W        W88827   0.916   9.386   0.381
20454W        W88828  38.401  15.749   2.792
20455W        W88829  37.839  35.941  12.963
20456W        W88830  14.216  34.035  11.030
20457W        W88831   8.710  43.366  12.375
20458W        W88832   0.884  12.358  12.890
20459W        W88833  24.983  24.194  14.478
20460W        W88834  14.627  15.579  11.521
20461W        W88835  11.683  19.633   1.429
20462W        W88836  21.619  13.746   4.309
20463W        W88837  29.023  10.729  13.891
20464W        W88838  42.402   0.968  14.984
20465W        W88839   2.778  22.523  14.492
20466W        W88840  18.074  10.204  14.833
20467W        W88841  26.516  20.086   1.406
20468W        W88842  36.500  28.540  10.912
20469W        W88843  31.523  17.203  14.016
20470W        W88844  31.613   4.902   4.114
20471W        W88845   9.768  20.257  13.980
20472W        W88846  23.732  37.571  12.398
20473W        W88847  31.896  38.847   0.733
20474W        W88848   6.286  25.182  13.054
20475W        W88849  11.354  30.027   2.395
20476W        W88850  19.081  32.472  11.511
20477W        W88851  22.717  18.252  11.109
20478W        W88852  43.307   8.832   1.832
20479W        W88853  43.998  11.174  10.963
20480W        W88854  23.607  38.511  13.935
20481W        W88855   7.289   9.822   0.904
20482W        W88856   3.339   7.208  14.436
20483W        W88857   0.933   4.409  11.438
20484W        W88858  34.943   6.290  13.021
20485W        W88859  32.465   5.784  14.368
20486W        W88860   5.354  43.482  10.961
20487W        W88861  23.612   5.332  13.987
20488W        W88862  30.134  36.457  14.031
20489W        W88863  29.014   2.732  14.762
20490W        W88864  13.121  13.282   2.374
20491W        W88865  14.296   4.321   1.757
20492W        W88866  44.990   6.719   0.837
20493W        W88867  30.954   1.445  10.594
20494W        W88868  10.809  34.456   0.760
20495W        W88869   5.366  42.968  13.964
20496W        W88870  35.489   5.887   0.957
20497W        W88871  40.002  38.498  12.983
20498W        W88872  22.086  37.572   5.575
20499W        W88873  34.031  37.337   3.193
20500W        W88874  14.821  30.982  11.464
20501W        W88875   6.407  25.962  13.935
20502W        W88876  32.515   2.777   1.449
20503W        W88877   0.446  44.326   0.371
20504W        W88878  24.026  17.615   5.243
20505W        W88879   5.258  32.132   3.847
20506W        W88880  13.344  14.270  11.492
20507W        W88881  42.350   2.430  11.377
20508W        W88882  32.597  26.521  12.052
20509W        W88883  21.027  17.200   4.748
20510W        W88884   4.829  36.934  13.442
20511W        W88885  12.801  21.144   2.367
20512W        W88886  35.558   9.824  10.427
20513W        W88887  14.805  39.524   0.887
20514W        W88888  31.984  31.103  12.826
20515W        W88889  13.634  19.627  14.449
20516W        W88890  17.797   6.310  14.983
20517W        W88891  16.711   4.896   3.736
20518W        W88892   7.838  33.015   0.437
20519W        W88893  36.421  37.884  14.856
20520W        W88894  29.004  30.431  14.308
20521W        W88895   8.300  29.083   4.819
20522W        W88896  36.043  27.132  10.552
20523W        W88897  18.205  13.822   0.859
20524W        W88898   4.216  10.280  14.997
20525W        W88899  25.512  38.536   2.703
20526W        W88900  31.483  41.362   2.742
20527W        W88901  21.133  13.116   1.330
20528W        W88902  21.656  18.174  12.485
20529W        W88903  11.712  28.663   4.196
20530W        W88904  22.594  35.573  14.776
20531W        W88905   5.207  25.495  14.011
20532W        W88906  18.177  34.879  14.982
20533W        W88907  38.962  13.774  12.925
20534W        W88908  34.404  35.525   1.894
20535W        W88909   8.846  43.431  12.901
20536W        W88910  27.089  30.073   2.868
20537W        W88911  30.143  26.180   0.460
20538W        W88912  24.138  13.285  14.443
20539W        W88913  15.303  32.393  12.541
20540W        W88914  20.102  40.441  11.005
20541W        W88915  34.417  12.694  10.575
20542W        W88916  12.758  19.246   4.332
20543W        W88917  29.652   6.271   4.836
20544W        W88918  10.142  25.516  13.359
20545W        W88919  20.561   6.728  12.837
20546W        W88920  20.094  26.568   3.257
20547W        W88921  23.218  35.370  14.985
20548W        W88922  34.560  28.673   1.839
20549W        W88923  42.838   5.709  14.920
20550W        W88924  35.393   6.197  10.424
20551W        W88925  26.607  16.673  12.431
20552W        W88926  22.172  44.422   2.735
20553W        W88927   8.886  31.114   0.325
20554W        W88928  40.942   5.290  12.042
20555W        W88929  38.043   9.655  12.580
20556W        W88930  21.599  37.368   4.748
20557W        W88931  28.048  34.408   3.716
20558W        W88932  43.965   1.736  10.561
20559W        W88933   7.244  42.351  12.347
20560W        W88934  40.966  30.157   2.178
20561W        W88935  16.227   5.317  14.853
20562W        W88936  30.153  29.023   0.447
20563W        W88937   7.342   1.430   2.850
20564W        W88938  35.933  10.748   3.359
20565W        W88939  19.047  23.186  13.345
20566W        W88940  21.142  22.172   4.738
20567W        W88941  26.610  33.927  14.372
20568W        W88942  26.167  37.999   0.947
20569W        W88943  33.909  11.862  14.973
20570W        W88944  27.497  33.962  13.350
20571W        W88945  28.081   8.400   2.218
20572W        W88946  10.768   9.661   2.416
20573W        W88947  43.459   6.372  11.014
20574W        W88948  28.115  22.024  12.929
20575W        W88949  21.736  44.328  13.484
20576W        W88950   8.293  14.168  13.362
20577W        W88951  27.989   0.832  14.473
20578W        W88952   9.805  15.785  13.465
20579W        W88953  35.543  42.527   4.243
20580W        W88954   3.894  11.142   0.323
20581W        W88955  37.024  14.151  10.518
20582W        W88956  30.574  10.261  10.626
20583W        W88957  15.291  20.120   4.234
20584W        W88958  12.292  15.741   1.282
20585W        W88959  31.033   5.837   2.316
20586W        W88960   9.757  43.019   4.301
20587W        W88961   2.406   5.374  12.561
20588W        W88962  19.691  41.886  10.624
20589W        W88963  32.093  26.608   1.418
20590W        W88964   1.298  43.868   0.820
20591W        W88965   0.883   1.381   0.312
20592W        W88966  18.255  22.249  12.562
20593W        W88967  19.110  22.061  11.051
20594W        W88968  10.350  10.153   5.156
20595W        W88969   6.223  26.685   9.937
20596W        W88970  44.006  14.281   1.371
20597W        W88971  14.320  12.761  12.863
20598W        W88972   7.897   9.837  12.379
20599W        W88973  37.874  43.871  11.882
20600W        W88974  19.675  39.461   3.831
20601W        W88975  13.696  33.539  14.502
20602W        W88976  27.192  34.954  14.918
20603W        W88977  26.194  33.528  11.873
20604W        W88978  27.601  28.652  13.004
20605W        W88979   9.154  12.766  10.553
20606W        W88980  25.001  28.000  12.081
20607W        W88981  39.413   2.897   1.211
20608W        W88982   9.667  10.200  14.421
20609W        W88983  40.519  41.383  10.575
20610W        W88984   8.276  23.137  12.093
20611W        W88985  23.077  28.147   4.690
20612W        W88986  21.232  38.996  11.042
20613W        W88987  10.828  21.201   4.766
20614W        W88988  31.586  35.075  13.821
20615W        W88989   0.829  30.942   3.303
20616W        W88990  10.699   4.740  14.301
20617W        W88991  44.301  20.183   2.220
20618W        W88992   5.922  44.805   4.729
20619W        W88993   4.770  15.151  13.383
20620W        W88994   8.388  26.030  10.405
20621W        W88995  21.600  40.841  12.385
20622W        W88996   3.889   9.248   0.356
20623W        W88997   1.237  11.851  12.491
20624W        W88998  24.574  27.111  14.386
20625W        W88999  28.165   3.876   3.745
20626W        W89000  38.897  22.562   3.310
20627W        W89001  21.163  11.344  13.314
20628W        W89002   1.335  17.165  12.383
20629W        W89003  21.111  15.312   3.183
20630W        W89004  33.016   5.361  14.001
20631W        W89005  29.549   6.850   3.225
20632W        W89006  10.679  14.178   3.260
20633W        W89007  31.605  12.722   3.746
20634W        W89008   7.756  31.914   5.107
20635W        W89009  31.436  34.029  10.461
20636W        W89010  38.422  17.070  13.993
20637W        W89011   8.899  30.479   0.744
20638W        W89012  18.613  32.932  14.899
20639W        W89013  22.010  34.886  10.916
20640W        W89014  37.037  20.262   2.351
20641W        W89015  12.296   0.466   3.839
20642W        W89016   8.310   9.235   4.816
20643W        W89017   4.415  31.101  11.878
20644W        W89018  17.578  33.880  12.021
20645W        W89019   2.400  24.684   1.320
20646W        W89020   9.662   7.267   3.321
20647W        W89021  42.398  43.485  13.813
20648W        W89022  23.664  17.660   2.221
20649W        W89023  14.188   5.347  12.371
20650W        W89024  42.353  27.680  12.824
20651W        W89025   8.304  22.188  14.982
20652W        W89026  43.786  16.638  13.308
20653W        W89027   4.731   0.928   0.833
20654W        W89028  43.987   4.246   0.462
20655W        W89029  11.651  23.016   4.761
20656W        W89030   1.850   3.229   3.278
20657W        W89031  29.613  18.555  11.986
20658W        W89032  32.018  25.539   3.834
20659W        W89033  41.806  44.979  11.033
20660W        W89034  35.545  12.678  13.398
20661W        W89035   6.847  15.203  14.458
20662W        W89036   8.858   0.818   1.278
20663W        W89037  22.165  30.141  13.937
20664W        W89038  11.337  37.040  11.982
20665W        W89039  35.068  21.528  11.019
20666W        W89040  26.678  19.589  12.392
20667W        W89041  14.226  39.065  11.946
20668W        W89042  23.721   4.811   4.817
20669W        W89043  26.585  15.718   0.934
20670W        W89044  31.060   6.278  14.905
20671W        W89045  41.043   7.293   3.314
20672W        W89046  23.118  39.359   5.274
20673W        W89047   1.901  24.108   4.294
20674W        W89048  36.924  31.030   0.937
20675W        W89049   0.966   0.460  12.027
20676W        W89050  33.528  29.655  14.943
20677W        W89051  30.977   2.764   1.788
20678W        W89052  14.649  34.024   0.352
20679W        W89053  42.775  11.127   4.222
20680W        W89054  39.953  30.920  11.992
20681W        W89055  23.195  41.484   3.165
20682W        W89056  40.369   9.697  13.374
20683W        W89057  38.517  25.125   2.365
20684W        W89058  28.045  13.260  14.334
20685W        W89059  33.994  25.217   4.747
20686W        W89060  41.014   0.767  11.474
20687W        W89061  13.140  44.301   1.357
20688W        W89062  22.088  34.894  14.845
20689W        W89063  32.609   7.765  14.949
20690W        W89064  19.137   4.221  12.877
20691W        W89065  22.089   6.231  13.351
20692W        W89066  22.609  23.007   4.814
20693W        W89067  33.947  39.036   9.966
20694W        W89068   0.481  13.738   2.875
20695W        W89069  39.449  28.455   3.661
20696W        W89070  18.173  38.339  13.874
20697W        W89071   2.362  39.044  14.288
20698W        W89072  34.109   4.256   0.445
20699W        W89073  28.121  17.583   0.738
20700W        W89074  29.594  40.823  14.330
20701W        W89075  19.658  22.036   1.396
20702W        W89076   8.671  20.137   9.464
20703W        W89077  15.316  24.097   2.197
20704W        W89078   6.265  10.248   0.878
20705W        W89079   5.358  19.249   3.649
20706W        W89080  19.745  37.008   0.462
20707W        W89081  17.198   7.293  13.388
20708W        W89082  27.967   5.367  12.029
20709W        W89083   3.770  38.567   0.390
20710W        W89084  33.905   2.849   0.384
20711W        W89085  19.769   7.290  11.497
20712W        W89086  26.561  44.883  11.469
20713W        W89087  21.692  21.250   1.219
20714W        W89088  21.235  22.575   3.806
20715W        W89089  21.018   6.824  12.074
20716W        W89090  18.596   1.402  11.094
20717W        W89091  35.439  29.434   2.742
20718W        W89092  21.573   2.737   1.333
20719W        W89093   7.745   9.380  13.462
20720W        W89094  12.757  13.822   4.621
20721W        W89095  35.070  36.878   3.366
20722W        W89096  43.908   4.837  10.943
20723W        W89097  31.988  20.642   5.224
20724W        W89098  36.442  40.026   1.393
20725W        W89099   0.423  35.501  10.574
20726W        W89100  35.066  44.384   2.299
20727W        W89101   1.893  39.889  14.451
20728W        W89102  18.629  24.108   1.372
20729W        W89103  44.475  29.108  11.395
20730W        W89104  16.240  25.964  14.449
20731W        W89105   8.871  18.551  12.940
20732W        W89106   1.876  18.672   3.815
20733W        W89107  35.474  32.046  14.945
20734W        W89108  31.551  36.019  12.569
20735W        W89109  15.744  31.491  14.315
20736W        W89110  10.361  41.011  13.025
20737W        W89111  23.627  31.547  10.484
20738W        W89112  10.720  36.082  11.509
20739W        W89113  27.957  18.616   0.249
20740W        W89114   9.364   0.365   4.137
20741W        W89115  16.689  28.640  11.557
20742W        W89116  26.521  35.026   0.848
20743W        W89117  42.447  33.511  13.324
20744W        W89118   9.201  21.706  12.971
20745W        W89119  17.092  26.573  11.428
20746W        W89120   7.781  12.812   2.868
20747W        W89121   8.818  34.865  11.482
20748W        W89122  23.525  38.014  12.424
20749W        W89123  19.593   9.193   0.249
20750W        W89124  41.816  23.228   1.365
20751W        W89125   5.722   2.450  14.378
20752W        W89126  27.027  28.071   4.635
20753W        W89127   9.379  21.222   4.239
20754W        W89128  27.517  14.119  11.068
20755W        W89129  15.789  29.494  14.454
20756W        W89130  24.071  15.114   0.350
20757W        W89131  35.378  10.217   0.782
20758W        W89132  25.568  43.494  10.978
20759W        W89133  35.922  37.399   1.403
20760W        W89134   1.422  31.090   3.749
20761W        W89135  26.487  29.971  12.560
20762W        W89136  39.833  23.114   4.233
20763W        W89137  10.146  16.125   4.665
20764W        W89138  14.807   0.854   3.857
20765W        W89139  10.218  33.459  13.816
20766W        W89140  31.966   5.821   3.798
20767W        W89141  35.930  22.145   3.663
20768W        W89142  19.241  43.353   4.209
20769W        W89143  12.236   5.373   1.302
20770W        W89144  28.491   0.411   2.779
20771W        W89145  35.012   7.667  11.455
20772W        W89146  18.268   5.387   4.149
20773W        W89147   7.179  35.588   3.167
20774W        W89148   7.270  43.311  11.908
20775W        W89149  24.085  41.938  12.541
20776W        W89150  37.536  17.701   2.300
20777W        W89151  12.641  22.053  12.076
20778W        W89152  40.046  21.621  13.806
20779W        W89153  41.414  30.642  14.986
20780W        W89154  40.847  34.547   3.343
20781W        W89155   2.339  13.160  12.494
20782W        W89156  25.495  37.887   1.864
20783W        W89157  43.808  30.468  14.870
20784W        W89158  44.326   0.396   3.379
20785W        W89159  42.899  15.737  12.823
20786W        W89160  40.016  17.266  10.985
20787W        W89161  24.146  20.580   0.423
20788W        W89162  35.424  40.914   2.276
20789W        W89163  24.569  19.063  14.881
20790W        W89164   6.355  15.160  12.541
20791W        W89165  18.615  31.905   5.162
20792W        W89166  10.293   6.351  12.012
20793W        W89167   3.917   9.744   2.817
20794W        W89168  12.848  30.452  12.556
20795W        W89169  33.112  13.121  14.341
20796W        W89170  39.319   6.387   4.309
20797W        W89171  14.682  27.523   0.258
20798W        W89172  17.581   6.374  11.047
20799W        W89173  23.520  41.381  11.975
20800W        W89174  17.175  26.528   2.701
20801W        W89175  28.110  32.063   3.250
20802W        W89176  29.599  23.178   0.935
20803W        W89177  14.693   2.462  11.002
20804W        W89178   5.231   2.935  14.901
20805W        W89179  39.879  24.065   2.356
20806W        W89180  31.476  36.580   4.237
20807W        W89181  11.699  42.803  14.450
20808W        W89182  38.526  30.939   2.796
20809W        W89183  22.604   6.413   1.845
20810W        W89184  26.142  19.184  13.517
20811W        W89185  36.978   9.747   5.620
20812W        W89186   4.701   1.244   0.739
20813W        W89187  37.432  17.732   1.285
20814W        W89188   2.848   7.822  11.546
20815W        W89189  44.003   1.357  11.987
20816W        W89190  35.971  31.988  13.962
20817W        W89191  16.671  35.395  14.864
20818W        W89192   2.345  30.527  11.028
20819W        W89193  32.104  16.637  13.001
20820W        W89194   4.712  23.089   1.740
20821W        W89195   9.291  24.089   3.650
20822W        W89196  18.081   7.696  12.846
20823W        W89197  34.870  28.170  14.344
20824W        W89198  35.388  20.097   2.791
20825W        W89199  40.960  32.985  12.836
20826W        W89200  42.873  44.335  12.073
20827W        W89201  29.653  20.706   2.783
20828W        W89202   7.890  21.754  10.446
20829W        W89203  34.583  30.606   0.383
20830W        W89204  40.845  19.544   1.860
20831W        W89205  36.883   7.372   5.766
20832W        W89206  11.709  43.982  11.467
20833W        W89207  22.615  11.353   0.378
20834W        W89208  41.427  34.416   3.771
20835W        W89209  22.711   2.250   1.334
20836W        W89210  25.037  39.426   4.642
20837W        W89211  26.116  36.355   3.838
20838W        W89212  17.082   2.824   3.306
20839W        W89213  35.864  41.992  13.797
20840W        W89214  23.038  29.060  14.018
20841W        W89215  20.113  35.875   3.277
20842W        W89216  20.721  11.190  14.798
20843W        W89217  36.500   2.413  13.018
20844W        W89218  32.544  12.761  10.903
20845W        W89219  22.202   5.714  12.860
20846W        W89220   9.278  15.240  10.587
20847W        W89221  29.429  34.462  13.864
20848W        W89222  10.205  22.146  14.028
20849W        W89223   7.211  22.082  13.428
20850W        W89224  39.923   1.387  13.439
20851W        W89225  12.169   8.254  13.879
20852W        W89226  44.477  30.552  10.603
20853W        W89227   4.296  15.735  13.439
20854W        W89228  24.122  26.471   2.769
20855W        W89229  19.564  12.674   3.323
20856W        W89230  32.566  42.516   0.287
20857W        W89231  28.587  24.597  14.349
20858W        W89232  38.366  10.141  12.525
20859W        W89233  34.381  36.539   4.825
20860W        W89234  37.370  36.986   4.711
20861W        W89235  44.420  38.009  14.959
20862W        W89236   4.804  37.853  11.108
20863W        W89237  37.977  11.284  14.506
20864W        W89238  22.105  28.119   3.318
20865W        W89239  23.724  44.340  10.409
20866W        W89240  36.092  10.146   0.760
20867W        W89241  42.502  14.806  12.949
20868W        W89242  32.031  26.676  10.415
20869W        W89243  36.485  42.824   4.261
20870W        W89244  39.330   5.241   4.120
20871W        W89245   8.661  10.244   1.446
20872W        W89246  31.138  18.089   3.153
20873W        W89247  39.842  30.043  12.436
20874W        W89248  17.223  40.486  12.985
20875W        W89249  11.784  17.104  13.373
20876W        W89250  37.406  24.017  11.008
20877W        W89251   0.298   6.776  11.894
20878W        W89252  32.004  10.184  12.473
20879W        W89253  41.446  36.851   0.349
20880W        W89254  11.752  12.170  14.004
20881W        W89255  11.666   6.261   0.948
20882W        W89256  28.614  28.612  11.424
20883W        W89257  35.367  36.518  12.084
20884W        W89258   2.371  33.526  13.964
20885W        W89259  37.024  33.948  12.565
20886W        W89260  35.091   6.283  12.420
20887W        W89261  40.806  15.673   0.287
20888W        W89262  39.420  20.533  10.599
20889W        W89263  40.454  32.019  12.527
20890W        W89264  11.781  27.644   1.433
20891W        W89265   2.324   9.808   3.793
20892W        W89266  23.050   6.875   1.917
20893W        W89267   5.900  17.084   0.814
20894W        W89268  27.538  11.359  11.472
20895W        W89269  17.758   9.868  14.973
20896W        W89270   9.867   1.786   1.913
20897W        W89271  32.529  12.655   4.190
20898W        W89272  15.606  41.418  13.542
20899W        W89273  41.933  10.817  11.531
20900W        W89274  17.110  28.997   4.234
20901W        W89275  35.990  44.451  12.477
20902W        W89276  27.036  26.481   0.293
20903W        W89277  44.851   3.220  13.927
20904W        W89278  18.179  38.912  10.938
20905W        W89279  31.070  31.146   1.252
20906W        W89280  12.204  32.985  12.066
20907W        W89281  18.132  27.489  11.516
20908W        W89282  36.090   6.709  11.431
20909W        W89283   5.380   5.863   1.765
20910W        W89284  35.072  15.133   2.876
20911W        W89285  11.800  40.499  11.546
20912W        W89286   6.841  36.915   3.159
20913W        W89287  18.549  30.532  14.889
20914W        W89288  17.120   3.392  14.993
20915W        W89289  17.142   2.944   4.114
20916W        W89290  31.076   9.710  13.825
20917W        W89291  21.611  31.029  11.521
20918W        W89292   3.458  30.960  10.546
20919W        W89293   5.756  29.595   1.247
20920W        W89294  17.785  33.520  11.054
20921W        W89295  37.909  42.980   3.684
20922W        W89296  13.173  40.431  10.893
20923W        W89297  27.611   4.908   3.831
20924W        W89298  10.137  30.655   2.419
20925W        W89299  31.492  21.568  14.992
20926W        W89300  19.194  27.187   0.933
20927W        W89301  44.492  24.002  11.059
20928W        W89302  37.960   5.436  14.277
20929W        W89303  26.504  11.313  11.871
20930W        W89304   1.377  39.057  14.862
20931W        W89305  17.276  16.593  12.036
20932W        W89306   6.905  28.584   4.778
20933W        W89307  37.884  39.958   4.307
20934W        W89308  35.366  27.184  13.859
20935W        W89309  28.675  23.506  11.099
20936W        W89310  44.445  23.654  10.022
20937W        W89311  20.157  14.202  11.890
20938W        W89312  21.025  22.083  11.126
20939W        W89313  17.094   6.771  11.940
20940W        W89314  34.038  13.734   3.785
20941W        W89315  41.959   4.331  11.084
20942W        W89316  43.439   9.269  11.023
20943W        W89317  15.285  40.463  10.493
20944W        W89318  44.353   7.729   1.695
20945W        W89319  43.357   2.451   2.714
20946W        W89320  37.948   5.205   2.217
20947W        W89321   2.330  10.795  14.408
20948W        W89322  25.488  29.092  12.882
20949W        W89323  27.577  18.174  11.607
20950W        W89324   2.786   1.967   3.642
20951W        W89325  22.630   9.679   4.144
20952W        W89326  39.847  40.479   2.903
20953W        W89327   7.749   7.879  14.393
20954W        W89328  24.043  31.481  10.983
20955W        W89329  39.970  15.139   1.882
20956W        W89330  18.607  37.998  14.393
20957W        W89331  16.725  40.321   2.290
20958W        W89332  16.704  19.611   2.805
20959W        W89333   3.459  17.715  13.460
20960W        W89334  13.621  40.963  13.538
20961W        W89335  21.609  11.169  10.963
20962W        W89336  35.372  26.091  10.997
20963W        W89337  13.674  22.630  14.321
20964W        W89338  37.920   1.858   0.918
20965W        W89339  26.068  37.053  12.948
20966W        W89340  12.231  21.734  14.896
20967W        W89341  39.848  44.875  12.013
20968W        W89342   0.408  40.380  11.415
20969W        W89343  37.537  15.258  10.452
20970W        W89344  32.441  16.697  10.613
20971W        W89345  30.986  42.784   0.442
20972W        W89346   9.661  35.045   3.335
20973W        W89347  27.514   5.858  10.408
20974W        W89348  31.596  40.346   1.382
20975W        W89349  31.555  11.681  11.971
20976W        W89350  42.503  18.637   2.728
20977W        W89351  36.981  37.982   1.231
20978W        W89352   4.915  24.215   4.252
20979W        W89353  42.030  10.362  13.921
20980W        W89354  13.771  29.627  13.317
20981W        W89355  34.569   5.850  14.947
20982W        W89356  27.970  10.247  12.962
20983W        W89357  35.504  43.392   1.735
20984W        W89358  14.648  42.979  10.970
20985W        W89359   1.805  33.454   0.281
20986W        W89360  13.620  16.722  13.058
20987W        W89361  11.283  36.420  12.430
20988W        W89362  34.474  11.141   4.598
20989W        W89363  30.558  22.633   0.372
20990W        W89364  28.110  41.041  10.539
20991W        W89365   3.930  38.014   1.431
20992W        W89366  13.136  36.890   1.232
20993W        W89367  22.605  13.806   4.127
20994W        W89368  13.741   2.285   4.247
20995W        W89369  38.953   9.858   0.743
20996W        W89370  25.612  15.270   1.219
20997W        W89371  39.385   6.185  13.908
20998W        W89372  15.182  23.213   0.940
20999W        W89373  35.466  10.175   4.820
21000W        W89374   2.951  15.182   2.723
21001W        W89375  41.993  26.480  10.098
21002W        W89376  33.090   8.187  12.387
21003W        W89377  28.537  32.938   0.423
21004W        W89378   5.770  14.201   0.380
21005W        W89379  34.915  24.681  10.925
21006W        W89380  18.615   4.910  11.035
21007W        W89381   6.423  43.925   0.780
21008W        W89382  32.634  23.124  14.032
21009W        W89383  10.877   8.273   3.184
21010W        W89384  16.134  21.147   4.660
21011W        W89385   8.717  14.754   2.224
21012W        W89386  14.718  33.961   3.335
21013W        W89387  42.314  12.820  14.376
21014W        W89388  32.410  37.563   4.312
21015W        W89389  13.825  28.134   4.307
21016W        W89390   2.958  25.069  13.044
21017W        W89391   1.356  27.120   2.237
21018W        W89392  12.304  22.549  11.506
21019W        W89393   0.778  23.228  13.012
21020W        W89394   9.192   3.748  10.029
21021W        W89395  39.887  12.300   0.824
21022W        W89396  44.935  11.782  14.330
21023W        W89397  14.608  23.111  14.464
21024W        W89398  15.596  41.502   0.868
21025W        W89399  34.062  12.145   1.370
21026W        W89400  28.113  16.084   0.346
21027W        W89401  24.577   7.247  14.974
21028W        W89402  13.808  17.762   1.404
21029W        W89403   4.273  12.318  13.879
21030W        W89404  15.626  21.613  11.600
21031W        W89405   8.865  21.251   0.899
21032W        W89406   4.274  10.241  14.500
21033W        W89407  14.146  15.716   3.316
21034W        W89408  40.339  43.011  13.528
21035W        W89409  16.670  37.957  10.474
21036W        W89410  21.108  44.361  10.044
21037W        W89411   7.883  32.433  10.611
21038W        W89412  31.076  37.062  12.568
21039W        W89413  14.669  11.836  10.623
21040W        W89414  19.236   1.787  13.053
21041W        W89415  39.496  43.944  11.459
21042W        W89416   6.380  37.978   2.680
21043W        W89417  14.272  10.703   3.834
21044W        W89418  31.927   4.901  14.412
21045W        W89419  13.181  30.983   3.270
21046W        W89420  39.861  34.097  10.913
21047W        W89421  36.428   3.906   2.253
21048W        W89422  34.469  23.985  11.508
21049W        W89423   3.752  43.296  13.397
21050W        W89424  38.949  14.286  14.352
21051W        W89425  17.649  29.555  11.423
21052W        W89426   8.366   4.240  11.519
21053W        W89427   0.467  10.729   4.600
21054W        W89428  35.596  22.676  13.386
21055W        W89429  28.672  15.131   2.296
21056W        W89430  14.217   3.392   2.307
21057W        W89431   4.740   4.826   1.270
21058W        W89432   3.247  23.059  13.862
21059W        W89433  23.071   6.189   2.342
21060W        W89434  13.109  18.769   1.895
21061W        W89435  24.704  18.147  14.441
21062W        W89436  16.189  28.081   3.780
21063W        W89437  11.307  10.791  11.878
21064W        W89438   0.861  37.446   4.227
21065W        W89439  23.995  38.945   1.921
21066W        W89440  44.362  40.319  13.317
21067W        W89441  30.545   5.262   2.222
21068W        W89442  37.897   1.291   2.801
21069W        W89443   6.678   2.957   2.292
21070W        W89444   6.737  12.234   1.376
21071W        W89445   6.771   9.766   2.325
21072W        W89446  37.391   6.883  11.503
21073W        W89447  16.636  39.817  11.410
21074W        W89448  23.629  27.020  14.433
21075W        W89449  25.569  42.918   3.776
21076W        W89450   0.279  35.041  12.015
21077W        W89451  37.581  44.346  10.635
21078W        W89452  13.282   1.315   0.753
21079W        W89453   7.805  43.402  13.811
21080W        W89454   1.834  29.000   0.824
21081W        W89455   2.800  39.921   2.359
21082W        W89456  17.194  22.716   1.861
21083W        W89457  19.192  39.923  13.478
21084W        W89458   9.272   1.737   4.733
21085W        W89459   2.340  41.337  12.871
21086W        W89460   1.755   5.352   2.264
21087W        W89461  27.956  38.819   2.225
21088W        W89462  29.604  44.259  14.295
21089W        W89463  36.460  41.800  13.856
21090W        W89464  37.082  37.917   3.170
21091W        W89465  39.353  29.592   3.871
21092W        W89466  44.364  18.167   3.734
21093W        W89467  26.697  31.469  13.873
21094W        W89468  25.602  23.695  13.036
21095W        W89469   6.285  21.209   4.749
21096W        W89470   5.786  34.016   4.721
21097W        W89471  23.032  23.054   2.725
21098W        W89472  26.105  20.545  14.327
21099W        W89473  22.619  16.207   2.714
21100W        W89474   4.439   4.246  13.041
21101W        W89475  43.415   1.758   2.348
21102W        W89476  20.147  20.146   3.359
21103W        W89477   2.910  10.635   3.368
21104W        W89478  37.338  29.586   0.956
21105W        W89479  17.655  17.798  13.844
21106W        W89480  37.551  28.011   1.441
21107W        W89481  11.141  10.333  12.484
21108W        W89482   0.327  27.175  11.860
21109W        W89483  16.077  14.194  12.544
21110W        W89484  38.866  18.739   0.846
21111W        W89485  44.282  23.527  12.469
21112W        W89486  39.967  35.547  11.586
21113W        W89487  23.648  41.941   3.673
21114W        W89488   1.308  28.659  12.565
21115W        W89489  25.178  21.024  13.853
21116W        W89490  21.172  27.511   3.330
21117W        W89491  23.525   8.693  11.061
21118W        W89492  15.319  12.800  10.615
21119W        W89493   4.759   8.744  10.577
21120W        W89494  28.636  29.921  13.891
21121W        W89495  21.671   2.944   1.720
21122W        W89496  11.312  11.280  11.882
21123W        W89497  35.021   2.947  12.404
21124W        W89498  23.056  11.630  10.892
21125W        W89499  36.980   1.911   0.761
21126W        W89500  35.384  43.791   3.241
21127W        W89501  22.055   9.166   2.416
21128W        W89502  33.061  44.473   4.749
21129W        W89503  37.340   5.295  12.966
21130W        W89504  41.809  32.624  13.878
21131W        W89505  15.284  16.632  13.310
21132W        W89506  21.669  44.933  13.351
21133W        W89507  28.180  37.505  12.521
21134W        W89508   1.863  38.386  14.473
21135W        W89509  22.141   2.453  13.922
21136W        W89510   6.900  31.115  14.811
21137W        W89511   1.289  10.187  14.276
21138W        W89512  41.395   6.321  10.627
21139W        W89513  12.116  13.769  14.446
21140W        W89514  41.816  13.743   2.703
21141W        W89515  40.847  22.011  12.845
21142W        W89516   5.274   7.243  13.350
21143W        W89517  33.619  32.526  13.487
21144W        W89518  10.707   2.900  13.032
21145W        W89519  10.672  23.050   4.130
21146W        W89520  24.071  29.618  10.107
21147W        W89521  31.402  24.089  11.434
21148W        W89522  44.916   3.265  12.359
21149W        W89523   6.397  11.814  12.066
21150W        W89524  44.428   0.950   1.750
21151W        W89525  11.240  33.989  12.947
21152W        W89526  13.628  33.557  10.475
21153W        W89527  12.846  16.611  10.599
21154W        W89528  25.196  17.624  13.835
21155W        W89529  11.866  41.408   0.463
21156W        W89530   5.908  26.593   3.256
21157W        W89531   6.206   7.393  12.421
21158W        W89532  22.601  37.472  10.601
21159W        W89533   0.296  40.844  11.575
21160W        W89534   8.885   2.238  13.339
21161W        W89535   4.820  35.894  14.498
21162W        W89536  13.787  16.149  11.033
21163W        W89537  19.588  25.569   4.689
21164W        W89538  14.832  35.574  11.067
21165W        W89539   8.822   6.195   4.727
21166W        W89540  38.355  41.377   3.779
21167W        W89541  37.927  39.536   2.216
21168W        W89542  29.939  35.501   2.776
21169W        W89543   7.900  34.395   5.081
21170W        W89544  15.578  23.606   1.416
21171W        W89545  19.592  10.701   3.802
21172W        W89546  43.000  15.260  13.502
21173W        W89547  25.139  38.331  13.451
21174W        W89548  24.078  27.964   3.642
21175W        W89549  35.010  26.609  12.394
21176W        W89550  42.014  19.715   1.709
21177W        W89551   9.231  16.643  13.041
21178W        W89552   8.848  16.179  10.971
21179W        W89553   0.750  34.028  13.332
21180W        W89554  42.918   6.795   3.330
21181W        W89555  36.939  16.185   3.237
21182W        W89556  28.469   9.303  13.057
21183W        W89557   3.354  36.457  12.997
21184W        W89558  25.194  14.115   2.682
21185W        W89559   8.334   9.766   2.878
21186W        W89560  24.085  13.759   2.684
21187W        W89561   1.753  38.347   1.904
21188W        W89562  29.070   2.804   3.848
21189W        W89563  44.364  29.620   0.301
21190W        W89564  11.805  33.468   3.721
21191W        W89565   3.709   7.327  12.385
21192W        W89566  12.850   6.395   0.907
21193W        W89567  26.457  23.225  13.937
21194W        W89568   8.352  35.425  10.894
21195W        W89569   5.389   9.321  14.446
21196W        W89570   8.206  27.985   5.568
21197W        W89571  44.306  19.098   2.835
21198W        W89572   9.283  18.232  12.347
21199W        W89573  33.609  42.893  10.434
21200W        W89574   8.658  18.175   2.196
21201W        W89575  35.515  12.676  14.399
21202W        W89576  30.626  38.336   4.122
21203W        W89577  41.813  43.354   4.719
21204W        W89578  12.177   9.286  10.913
21205W        W89579  14.716  31.403  12.060
21206W        W89580  40.816   3.933  12.493
21207W        W89581   0.971  38.945   1.912
21208W        W89582  39.059  18.232   3.262
21209W        W89583  28.981  33.619   1.291
21210W        W89584  29.150   6.864  14.836
21211W        W89585  10.778   8.286  12.429
21212W        W89586   2.724  37.370  11.385
21213W        W89587  41.868  23.503   0.262
21214W        W89588  23.044  28.965   1.358
21215W        W89589   5.256  40.827   0.400
21216W        W89590  25.025  30.130   4.769
21217W        W89591  10.843  22.006  14.838
21218W        W89592  18.163   1.270  13.812
21219W        W89593  11.292  42.007   2.415
21220W        W89594  31.114  20.616  12.077
21221W        W89595   0.885  27.571   2.357
21222W        W89596   0.896  26.582  14.023
21223W        W89597  21.612  15.623   0.352
21224W        W89598  26.175  38.363  10.633
21225W        W89599  30.959  31.089   0.961
21226W        W89600  34.487  20.162   3.673
21227W        W89601  21.523  28.661  10.455
21228W        W89602   3.289   4.918  10.932
21229W        W89603  18.619  22.225   1.893
21230W        W89604  23.623  10.149   0.287
21231W        W89605   6.375  27.991   0.823
21232W        W89606  29.008  37.561  14.836
21233W        W89607  27.668  42.481  10.067
21234W        W89608  28.079  40.901  13.971
21235W        W89609  27.690   4.773   0.793
21236W        W89610  34.867  12.301  13.815
21237W        W89611  24.990  33.398  13.486
21238W        W89612  36.014   9.276   5.273
21239W        W89613  16.267  26.036   2.726
21240W        W89614   5.866  21.193  11.528
21241W        W89615   7.378   0.398  12.074
21242W        W89616  43.831  14.770  10.585
21243W        W89617  18.606  40.910  12.559
21244W        W89618  17.749  23.990  12.051
21245W        W89619  44.771  26.986  12.947
21246W        W89620  17.147   8.687   1.841
21247W        W89621   4.445  31.602   0.846
21248W        W89622   2.253  36.966  12.532
21249W        W89623   9.323  36.931  12.880
21250W        W89624  19.709  21.189  14.450
21251W        W89625  12.687  29.943   4.613
21252W        W89626  23.080  12.313   2.384
21253W        W89627  12.276  28.506  10.980
21254W        W89628   8.791  10.242  11.063
21255W        W89629   2.911  41.853  11.042
21256W        W89630  10.171   9.797  10.026
21257W        W89631  12.735  30.056   3.156
21258W        W89632  19.755  16.667   0.804
21259W        W89633  31.929  44.826   1.251
21260W        W89634   8.297  42.013   4.825
21261W        W89635  27.531  29.091   0.384
21262W        W89636  32.472  44.453  10.519
21263W        W89637  27.581  24.974   0.273
21264W        W89638   1.847   8.794   2.334
21265W        W89639  14.300  32.898   4.269
21266W        W89640  43.455  30.571   1.800
21267W        W89641  15.751  16.255   0.253
21268W        W89642  40.494  44.389   4.203
21269W        W89643  23.690  24.981   1.916
21270W        W89644   7.237   6.801   4.828
21271W        W89645  10.847  13.195  11.549
21272W        W89646  27.949  11.725   0.435
21273W        W89647  34.029  28.455  14.766
21274W        W89648   5.772  13.242   1.887
21275W        W89649  31.127   1.423   2.289
21276W        W89650   3.303   0.376   4.676
21277W        W89651  32.892  26.494  12.857
21278W        W89652  25.629  36.080  11.098
21279W        W89653  14.267   2.292  11.106
21280W        W89654  26.985  41.386  12.064
21281W        W89655  16.234  21.049  12.904
21282W        W89656   8.817  36.081  10.613
21283W        W89657   0.485   1.910  11.055
21284W        W89658  18.668  31.029   0.451
21285W        W89659  21.669  13.699  14.842
21286W        W89660   9.761  25.099  11.376
21287W        W89661   8.281  15.616   0.760
21288W        W89662  30.091  41.019   3.173
21289W        W89663  29.015  40.967   1.359
21290W        W89664   6.349  18.716   0.338
21291W        W89665  24.199  10.830   3.236
21292W        W89666   6.351   2.872  12.934
21293W        W89667   9.257  10.653   0.319
21294W        W89668   8.234  19.063   5.151
21295W        W89669  27.520  26.997  13.848
21296W        W89670  38.460   9.272  10.641
21297W        W89671   2.453  28.618   1.877
21298W        W89672   9.725  13.186   2.862
21299W        W89673  19.729   8.313   3.343
21300W        W89674  39.413   0.920   0.311
21301W        W89675  37.045  27.129   1.782
21302W        W89676   1.372  39.549   2.224
21303W        W89677  34.492  24.592  11.991
21304W        W89678  24.049  29.929  13.794
21305W        W89679  26.201   7.253  13.514
21306W        W89680  30.556  21.575   4.185
21307W        W89681   0.470  33.535  11.057
21308W        W89682  14.212  12.769   3.310
21309W        W89683  44.827  22.550  13.337
21310W        W89684  37.434   3.807   0.826
21311W        W89685  23.101  14.122  12.918
21312W        W89686  19.673  10.301  12.453
21313W        W89687   0.286  38.352   0.431
21314W        W89688   6.749  41.928   3.834
21315W        W89689  14.805  22.105  11.928
21316W        W89690   4.913  19.152   0.476
21317W        W89691  28.453  19.615  11.476
21318W        W89692  27.476  38.026   1.776
21319W        W89693   1.361  40.419   4.163
21320W        W89694  38.435  12.749   1.911
21321W        W89695  21.162  37.375   1.931
21322W        W89696  34.036  28.153  14.465
21323W        W89697   3.822  33.003   3.870
21324W        W89698  10.875  35.887   3.272
21325W        W89699  28.125   2.414   3.649
21326W        W89700  11.356   4.245   4.599
21327W        W89701  26.956  13.793   4.203
21328W        W89702   6.391  28.628  12.485
21329W        W89703  38.446  13.225   2.275
21330W        W89704  41.882  41.354  14.330
21331W        W89705  43.899   7.807  11.999
21332W        W89706  28.523   7.389  11.576
21333W        W89707  27.576  17.781   3.669
21334W        W89708  41.477  18.689   4.202
21335W        W89709  44.389  43.362   1.275
21336W        W89710   2.942  41.358   0.268
21337W        W89711  40.531  35.390   4.287
21338W        W89712  30.511   9.802  12.074
21339W        W89713  28.186   9.270  11.016
21340W        W89714  11.365  12.753   3.824
21341W        W89715  31.467   6.722   1.925
21342W        W89716  37.568  13.700  12.026
21343W        W89717  27.539  41.895   1.734
21344W        W89718   1.902  44.964  10.435
21345W        W89719  35.913  21.518  11.042
21346W        W89720   6.737  14.226  10.475
21347W        W89721  16.073  18.162  14.791
21348W        W89722  27.622  21.030  14.878
21349W        W89723  40.534  43.464  13.937
21350W        W89724   0.782  29.637   2.745
21351W        W89725  32.421   0.904   4.188
21352W        W89726  41.397  30.991  12.844
21353W        W89727  20.677  28.546   3.857
21354W        W89728  15.191   1.975  12.916
21355W        W89729   9.711  16.641  14.851
21356W        W89730   4.818  20.637  11.947
21357W        W89731  19.249  10.801   4.350
21358W        W89732  41.509  36.565   0.450
21359W        W89733  41.389  12.305   2.760
21360W        W89734  17.747  15.163  10.941
21361W        W89735   7.803  27.554  13.834
21362W        W89736  14.229  22.226  12.559
21363W        W89737  43.980  10.646  12.460
21364W        W89738  23.167  12.747  14.912
21365W        W89739  21.146   5.858   1.812
21366W        W89740  30.615  28.673  10.456
21367W        W89741   8.172  29.974   1.783
21368W        W89742  18.211   5.248  13.392
21369W        W89743   0.365   2.817   2.759
21370W        W89744   5.245  16.645  10.524
21371W        W89745  10.279  41.336  12.377
21372W        W89746  28.635  25.995  12.075
21373W        W89747  11.193   4.336   0.484
21374W        W89748   2.263  40.835   0.778
21375W        W89749   0.352  35.554   4.690
21376W        W89750   9.729  14.589  11.488
21377W        W89751   5.811   5.725  13.426
21378W        W89752  23.197  37.967  10.644
21379W        W89753   7.871  35.080   2.841
21380W        W89754  15.296   1.735   0.897
21381W        W89755  35.008  43.338   0.333
21382W        W89756   0.820  41.893   2.761
21383W        W89757  33.899  36.391  12.015
21384W        W89758  13.838  43.432  14.339
21385W        W89759  25.098  19.689  12.079
21386W        W89760   5.439  35.876  14.988
21387W        W89761  18.781  17.639  14.991
21388W        W89762  24.034  26.508  13.968
21389W        W89763   0.477  31.425  11.943
21390W        W89764   8.399  35.886   0.416
21391W        W89765  31.073  25.206   4.247
21392W        W89766  22.575  42.889  14.331
21393W        W89767  22.239   4.314  11.611
21394W        W89768  29.017  25.626  11.919
21395W        W89769  22.682  23.551   0.965
21396W        W89770   8.711  41.317  10.909
21397W        W89771   9.371   4.383   2.769
21398W        W89772  29.462   0.490  11.114
21399W        W89773  41.302   8.782  11.391
21400W        W89774   7.893  32.007   0.855
21401W        W89775  36.369  18.557   2.837
21402W        W89776  27.613  21.737  13.797
21403W        W89777   4.849  39.468  11.596
21404W        W89778  42.939  33.496   5.133
21405W        W89779  30.650  24.052  11.082
21406W        W89780  34.394   3.809  12.524
21407W        W89781  12.122  34.410   4.167
21408W        W89782  29.930  22.038  11.000
21409W        W89783  17.248   6.350   4.773
21410W        W89784  32.962  33.408   2.232
21411W        W89785  22.113  17.753   1.934
21412W        W89786  30.126  15.706   0.482
21413W        W89787  40.456  36.389   2.378
21414W        W89788  20.046  16.315  14.940
21415W        W89789  34.401   1.850  11.596
21416W        W89790   5.359  26.600   0.930
21417W        W89791   4.287  24.664  14.948
21418W        W89792  32.019   7.909  11.977
21419W        W89793  28.045   3.316  12.339
21420W        W89794  24.177   2.870   4.686
21421W        W89795   7.742  24.027  10.142
21422W        W89796  30.622   1.466   3.733
21423W        W89797  27.181  33.124   2.321
21424W        W89798  17.067  11.372   3.383
21425W        W89799  25.035  41.373  14.012
21426W        W89800   1.847  15.620   5.120
21427W        W89801  42.390   5.265   0.252
21428W        W89802   4.251  36.885   2.357
21429W        W89803  41.790  22.095   3.802
21430W        W89804   6.839  30.605   4.752
21431W        W89805  13.336  33.120   2.734
21432W        W89806  11.366  36.403  12.919
21433W        W89807   9.699  41.818   1.792
21434W        W89808   7.329  25.468   4.778
21435W        W89809  16.176   2.413  11.099
21436W        W89810  28.143   7.224   1.886
21437W        W89811   0.378  10.140  10.421
21438W        W89812  37.514  40.811   3.863
21439W        W89813   9.361   1.736   1.714
21440W        W89814  30.003  16.308   4.144
21441W        W89815   2.834  11.624   0.902
21442W        W89816  36.902   4.785   3.683
21443W        W89817  29.431  19.690   3.698
21444W        W89818   3.237  40.986  12.535
21445W        W89819   3.361  41.953  12.370
21446W        W89820   4.302  12.633   3.148
21447W        W89821  40.953  23.566   3.302
21448W        W89822   5.877  39.457  12.548
21449W        W89823  34.403  24.221   2.679
21450W        W89824  43.979  43.767   2.221
21451W        W89825  11.267  41.930   2.800
21452W        W89826  21.610  16.714   1.432
21453W        W89827   8.898   5.745  11.991
21454W        W89828   8.312  19.042   3.795
21455W        W89829  13.757  41.038  11.534
21456W        W89830  33.456  40.526  14.311
21457W        W89831  10.269   1.443  12.064
21458W        W89832  33.598  41.534   3.255
21459W        W89833  13.625  34.595  14.889
21460W        W89834  39.419  17.150  13.392
21461W        W89835  25.662  21.084  10.606
21462W        W89836  28.654  32.934  12.514
21463W        W89837  21.639  19.650  14.903
21464W        W89838  24.534  30.610   3.151
21465W        W89839  43.788  33.070   1.891
21466W        W89840  44.841  39.063   4.769
21467W        W89841  30.520   1.435   4.710
21468W        W89842  30.124  33.932  12.356
21469W        W89843   7.297  16.651   4.624
21470W        W89844  20.164  42.802   0.266
21471W        W89845  35.950  21.131   3.656
21472W        W89846  43.767  42.996   4.641
21473W        W89847  13.320  27.115  10.928
21474W        W89848   8.260  12.767   0.749
21475W        W89849  23.042  16.232  13.518
21476W        W89850  28.139  11.295  11.002
21477W        W89851  20.613  20.040   1.695
21478W        W89852  40.303  14.249   9.988
21479W        W89853   4.870  25.502  13.408
21480W        W89854  21.133   5.854   3.643
21481W        W89855  21.102  39.985   1.294
21482W        W89856  35.928  36.417  14.440
21483W        W89857  18.768  38.946  14.957
21484W        W89858  13.116  36.431  14.879
21485W        W89859  27.543  25.598   0.396
21486W        W89860  29.589  43.442  10.634
21487W        W89861  21.175  34.050   1.838
21488W        W89862  35.938  25.118  12.419
21489W        W89863   0.986   1.904   0.932
21490W        W89864  39.404  20.230  14.296
21491W        W89865  37.354  31.630   4.608
21492W        W89866   8.699  33.114  10.582
21493W        W89867  34.458  14.160   0.920
21494W        W89868  15.600  28.524  11.464
21495W        W89869  36.948  36.869   0.844
21496W        W89870   3.899  18.166  13.819
21497W        W89871   3.232   7.887   1.893
21498W        W89872  43.777   2.738   2.380
21499W        W89873  42.969  29.997  14.320
21500W        W89874   9.270  44.784   0.329
21501W        W89875  33.459   8.860   0.762
21502W        W89876  34.489  22.602  13.419
21503W        W89877   4.311   7.321   1.731
21504W        W89878  28.505  18.186  10.903
21505W        W89879  15.726   1.322   3.788
21506W        W89880  23.711  35.367   1.268
21507W        W89881   3.318   2.271  13.821
21508W        W89882  36.973  22.008   1.808
21509W        W89883  29.646  43.344   2.868
21510W        W89884  22.524  27.674  14.499
21511W        W89885  12.355   7.736  12.977
21512W        W89886  42.466  12.630  11.502
21513W        W89887  30.537  19.553  13.045
21514W        W89888  42.971   4.228   3.795
21515W        W89889  14.285  41.484   1.283
21516W        W89890  11.861  29.109  10.464
21517W        W89891  17.629  24.180   2.674
21518W        W89892  39.849   4.860  14.898
21519W        W89893  35.538  37.882   0.892
21520W        W89894  18.633  35.360  13.352
21521W        W89895  13.768  44.290   3.342
21522W        W89896   0.834  13.219  14.912
21523W        W89897  34.403  29.525  12.868
21524W        W89898   6.820  10.218  13.461
21525W        W89899  42.028  17.172   3.785
21526W        W89900   7.193  23.653  12.360
21527W        W89901   0.859   1.932  11.936
21528W        W89902  13.254  16.792  14.847
21529W        W89903   2.339  13.213  12.868
21530W        W89904  24.126   4.805  14.774
21531W        W89905   8.207  18.114  14.022
21532W        W89906   5.836  28.041   3.702
21533W        W89907  12.276  24.557  13.393
21534W        W89908   3.871  12.287   4.250
21535W        W89909  37.885  15.208   2.793
21536W        W89910   3.785  41.503  12.360
21537W        W89911  32.450  42.829  12.908
21538W        W89912  42.817   0.334   1.773
21539W        W89913  41.392   5.222  13.391
21540W        W89914  15.161  19.543  12.532
21541W        W89915  23.059  10.370   1.744
21542W        W89916  37.022  36.012  11.459
21543W        W89917  18.685  34.507   4.796
21544W        W89918  32.594  40.335  10.916
21545W        W89919  14.313  36.423   5.214
21546W        W89920   6.249  41.440   0.255
21547W        W89921   9.320  29.110   9.467
21548W        W89922  44.928  16.660   0.404
21549W        W89923   6.277  39.057  10.094
21550W        W89924  14.095  23.032  13.357
21551W        W89925  23.647  34.406  14.818
21552W        W89926   9.374  23.087   4.203
21553W        W89927  39.902  44.916  10.937
21554W        W89928   1.332  38.411  14.988
21555W        W89929  14.654  37.956   3.327
21556W        W89930  28.056  32.979   2.222
21557W        W89931  23.238  44.312  12.346
21558W        W89932  30.483  17.607  11.472
21559W        W89933  24.715   8.722   1.261
21560W        W89934   1.470  14.782  12.546
21561W        W89935   0.854   1.972   9.922
21562W        W89936  18.232  20.150   0.761
21563W        W89937  10.859  11.839  13.828
21564W        W89938  31.998  16.623  14.411
21565W        W89939  28.646  34.464  11.542
21566W        W89940  23.545  42.421   0.271
21567W        W89941  14.277   5.735   9.961
21568W        W89942   1.788  36.007  12.369
21569W        W89943  44.343   6.295  13.823
21570W        W89944  44.769   6.808  10.459
21571W        W89945  21.594  36.077  11.467
21572W        W89946   7.200  30.585  10.414
21573W        W89947  30.597  20.111   2.253
21574W        W89948   0.424  18.206  10.499
21575W        W89949  13.684  33.531   0.346
21576W        W89950   1.328  21.232   3.813
21577W        W89951  20.591  36.869  12.941
21578W        W89952  36.929  15.127  12.852
21579W        W89953  16.228  25.026   1.856
21580W        W89954  22.179  21.194   1.928
21581W        W89955  32.023   3.732   0.279
21582W        W89956  28.170  20.081   4.831
21583W        W89957  37.879   6.710   3.664
21584W        W89958  23.021   8.878   0.419
21585W        W89959  13.221   3.306  13.482
21586W        W89960  40.022  44.828   4.788
21587W        W89961  11.756  19.095  11.609
21588W        W89962  19.216  23.168  13.895
21589W        W89963   0.904  22.639  12.551
21590W        W89964   6.273  37.844  12.522
21591W        W89965  11.706  12.187   3.822
21592W        W89966  30.039  14.654  13.902
21593W        W89967  31.906  41.389   5.304
21594W        W89968  11.631  18.698   2.895
21595W        W89969  40.506   4.843   3.803
21596W        W89970  28.134  42.949   2.383
21597W        W89971  18.554  18.672  13.815
21598W        W89972  29.518  16.652  14.942
21599W        W89973  15.800  26.993   4.284
21600W        W89974  24.683  38.020  11.379
21601W        W89975   5.224   5.719   0.912
21602W        W89976  28.186  43.765   2.869
21603W        W89977  42.498  22.556   2.407
21604W        W89978  38.465  22.007  11.566
21605W        W89979  22.686  15.762   4.608
21606W        W89980  15.683   6.701   4.146
21607W        W89981   2.894   2.443  13.042
21608W        W89982  17.635   1.738  12.488
21609W        W89983  36.936  40.941  13.385
21610W        W89984  40.878  41.966   3.243
21611W        W89985   9.706  26.514  12.092
21612W        W89986  27.571  38.824  13.001
21613W        W89987  39.514  26.146  14.414
21614W        W89988  11.789  20.604   1.738
21615W        W89989  22.161   1.408   4.317
21616W        W89990  35.384  30.995   2.823
21617W        W89991   1.308  36.471   0.730
21618W        W89992  33.948  29.109   2.190
21619W        W89993   7.302  26.506   3.836
21620W        W89994  31.562  21.662  12.417
21621W        W89995  41.892  26.117   0.823
21622W        W89996   2.874  21.656   1.829
21623W        W89997  41.862  19.174  12.429
21624W        W89998  29.095   8.231  14.000
21625W        W89999  30.970  32.059  11.078
21626W        W90000  24.709  11.681   4.733
21627W        W90001   3.408  26.010   3.311
21628W        W90002  36.081  21.660   3.293
21629W        W90003  26.598  15.809  11.003
21630W        W90004  12.817  41.393  12.475
21631W        W90005  15.201  13.731  10.439
21632W        W90006  41.369  40.995  14.906
21633W        W90007  22.671  29.438  13.931
21634W        W90008   0.958  43.270  14.487
21635W        W90009  12.851  26.480  11.382
21636W        W90010  18.546  18.084  11.384
21637W        W90011  13.612   4.449  12.422
21638W        W90012  25.493  20.614  14.941
21639W        W90013  16.210   7.706  14.374
21640W        W90014   1.333  38.459  13.312
21641W        W90015  31.109   2.343   3.342
21642W        W90016   7.273  40.426   3.751
21643W        W90017  38.523   7.405  13.883
21644W        W90018  44.318  16.593  10.467
21645W        W90019  23.189  24.709   2.292
21646W        W90020  17.294  16.652   1.300
21647W        W90021  30.018  28.616   0.797
21648W        W90022  36.422  31.428   3.773
21649W        W90023  15.157  18.785  12.537
21650W        W90024  32.540  32.034   4.657
21651W        W90025   2.422  42.365   4.777
21652W        W90026  32.100   7.227   0.779
21653W        W90027  35.874   4.215   0.312
21654W        W90028  22.087  40.400   0.367
21655W        W90029   2.253  36.590   2.195
21656W        W90030  13.800   8.289  10.091
21657W        W90031  17.304   3.862  12.095
21658W        W90032  44.291  26.701   3.823
21659W        W90033  16.804   1.443   2.255
21660W        W90034  38.063  29.149  14.505
21661W        W90035  26.986  10.648   3.228
21662W        W90036  14.097   1.434  14.310
21663W        W90037  35.889   3.400   0.855
21664W        W90038  41.848  41.923  12.064
21665W        W90039  39.869  44.797   0.905
21666W        W90040  39.459   7.813  12.454
21667W        W90041  29.972  19.121  12.873
21668W        W90042  27.541  40.848  12.544
21669W        W90043  33.004  12.634   4.115
21670W        W90044  34.441   3.376  13.932
21671W        W90045  38.364  10.662   2.789
21672W        W90046  23.507  13.796   1.344
21673W        W90047  43.855  39.515   0.844
21674W        W90048   5.823  12.346   2.894
21675W        W90049   4.731  28.586  11.061
21676W        W90050  27.995   4.234   4.648
21677W        W90051   3.320  44.791  13.517
21678W        W90052  27.007  33.981   0.252
21679W        W90053  33.966  36.421  12.422
21680W        W90054   1.781  36.967  14.003
21681W        W90055   7.702   9.277   2.367
21682W        W90056   5.688  25.678  11.046
21683W        W90057  21.081   7.344  10.588
21684W        W90058  11.697   1.746   1.221
21685W        W90059   0.815  10.346   0.773
21686W        W90060   2.461  32.005  11.859
21687W        W90061  37.490   2.334  13.884
21688W        W90062  28.607  36.939   0.477
21689W        W90063  43.469  42.424  11.935
21690W        W90064  33.471  20.146   3.817
21691W        W90065  24.710  13.740  14.376
21692W        W90066  14.302   6.705   3.225
21693W        W90067   7.814  18.067   4.837
21694W        W90068  42.859  12.210  13.346
21695W        W90069   4.287  10.358  14.011
21696W        W90070  22.506  43.900   3.335
21697W        W90071  29.017  36.007   0.251
21698W        W90072  40.303   3.867   2.707
21699W        W90073   6.303  23.694  13.343
21700W        W90074  43.818  30.093  14.406
21701W        W90075  13.616  40.452   1.807
21702W        W90076   1.972  22.172   3.175
21703W        W90077  39.498   8.732   3.667
21704W        W90078   3.448  33.443   5.275
21705W        W90079   3.748   6.283   3.697
21706W        W90080  38.365  37.851  11.076
21707W        W90081  15.622  27.125   1.746
21708W        W90082  39.451  43.418  11.550
21709W        W90083  32.946  29.564   3.256
21710W        W90084  36.563   0.828   1.825
21711W        W90085  28.602   9.304  13.993
21712W        W90086  11.633   7.784   2.355
21713W        W90087  41.959  20.648  12.557
21714W        W90088  25.108  39.835  13.507
21715W        W90089  18.173   6.914   3.741
21716W        W90090  37.890  26.610   3.322
21717W        W90091   2.907  31.642  13.871
21718W        W90092  39.496  40.474  10.414
21719W        W90093  19.186  41.036   4.331
21720W        W90094  22.042  10.730   1.746
21721W        W90095  23.579  38.542   4.609
21722W        W90096  42.964   9.675   2.739
21723W        W90097  41.292   2.750   4.266
21724W        W90098  31.129  16.579   3.864
21725W        W90099  22.653   8.762  14.912
21726W        W90100   3.300   7.690   2.779
21727W        W90101  42.505  14.680  14.336
21728W        W90102  11.313  15.289  12.569
21729W        W90103  31.921  42.926   2.849
21730W        W90104  36.089  34.559   2.238
21731W        W90105  11.261  33.416   2.722
21732W        W90106  20.722   2.873  13.035
21733W        W90107  25.174  19.039  11.085
21734W        W90108   7.288  14.705  10.958
21735W        W90109  27.090  11.371   0.242
21736W        W90110  32.924   0.950  14.838
21737W        W90111   2.841   5.809  10.474
21738W        W90112  38.045  12.719  10.624
21739W        W90113  42.847  11.216   9.995
21740W        W90114  12.849  21.659   1.392
21741W        W90115  41.326  39.061   5.144
21742W        W90116  11.659  23.583  12.874
21743W        W90117  23.007  27.585   0.433
21744W        W90118  16.643  40.921   2.795
21745W        W90119  44.493  12.141  11.491
21746W        W90120  26.595  34.447   9.965
21747W        W90121   1.435  21.048  12.464
21748W        W90122  13.832  10.840   2.218
21749W        W90123   3.339   8.772   1.935
21750W        W90124  12.288  43.821   4.601
21751W        W90125  39.426   4.869   1.345
21752W        W90126  40.995  13.121   4.353
21753W        W90127  21.167  17.654   0.252
21754W        W90128  40.808  15.666  14.430
21755W        W90129  44.398  23.001   4.674
21756W        W90130  19.631  44.970  12.940
21757W        W90131   2.342  44.821  13.843
21758W        W90132  14.193   0.770  10.542
21759W        W90133   8.823  34.535  14.985
21760W        W90134   7.722  39.462   1.921
21761W        W90135  38.047  11.786   9.988
21762W        W90136  24.060  33.930   1.805
21763W        W90137   4.860  38.941  11.896
21764W        W90138   5.226  41.795  10.641
21765W        W90139  12.192  19.152  13.043
21766W        W90140  41.978  39.928  13.801
21767W        W90141  12.320  33.462   3.172
21768W        W90142  30.070   4.914   2.797
21769W        W90143  42.824   9.713  13.311
21770W        W90144  20.593  15.603   2.669
21771W        W90145  29.640  38.420   0.828
21772W        W90146  24.527  30.124   2.686
21773W        W90147  29.131  17.116  14.920
21774W        W90148  35.864  44.955   2.205
21775W        W90149  13.329  33.408   2.863
21776W        W90150  16.813   0.366   4.671
21777W        W90151  40.333  32.597  14.825
21778W        W90152   0.960  40.841   2.663
21779W        W90153  39.472  39.003  13.799
21780W        W90154  32.132  13.311   2.222
21781W        W90155  21.076  43.506  11.605
21782W        W90156  20.617   9.176  14.876
21783W        W90157   6.859   6.263   2.275
21784W        W90158  36.032  33.109  12.000
21785W        W90159  29.926  11.158  10.603
21786W        W90160  20.182  32.030  11.986
21787W        W90161  20.073  39.508  12.340
21788W        W90162  35.863  26.555  12.023
21789W        W90163   0.433  38.500  14.884
21790W        W90164  18.217  32.958  13.820
21791W        W90165   8.345  23.134  10.619
21792W        W90166  26.993   5.932   4.729
21793W        W90167  35.471  22.115   4.151
21794W        W90168  13.752  14.605   4.340
21795W        W90169  20.526   2.837   0.246
21796W        W90170  18.790  23.584   0.399
21797W        W90171  28.453   1.746   0.742
21798W        W90172  33.511  27.129   1.410
21799W        W90173  27.092  15.716  12.480
21800W        W90174  40.317   9.691  14.881
21801W        W90175   9.264  41.938  10.907
21802W        W90176  44.992  36.885  13.885
21803W        W90177   1.274  21.660   1.388
21804W        W90178  36.893  21.036  11.597
21805W        W90179  10.153  43.358   2.724
21806W        W90180  16.132  33.517  12.928
21807W        W90181  40.034  42.959  13.502
21808W        W90182  25.646  10.873  10.508
21809W        W90183  18.777  44.467   4.648
21810W        W90184  21.520  19.241   4.738
21811W        W90185  37.018  19.568   1.288
21812W        W90186   8.174  43.991   0.404
21813W        W90187   6.703  37.988   4.253
21814W        W90188  20.242  31.929   0.826
21815W        W90189   0.341   7.667  14.375
21816W        W90190  38.349  25.675   2.331
21817W        W90191  26.552  21.180   3.760
21818W        W90192  44.942  33.616   1.435
21819W        W90193  23.652  32.114  10.094
21820W        W90194   0.901  42.983   2.741
21821W        W90195  16.662  34.567  13.024
21822W        W90196  42.466   8.894  12.092
21823W        W90197  35.547  42.974  14.963
21824W        W90198  42.914  38.509   2.276
21825W        W90199  13.261  35.531  13.985
21826W        W90200  35.517   7.224  10.419
21827W        W90201   6.868  43.869  14.467
21828W        W90202  21.661  39.976  12.001
21829W        W90203   6.300  15.587  11.484
21830W        W90204  30.548  25.109  14.321
21831W        W90205  19.281  41.454   4.691
21832W        W90206  14.223  28.522   0.302
21833W        W90207  42.423  35.100  11.095
21834W        W90208  19.210  30.421   1.411
21835W        W90209  44.273  41.302   0.928
21836W        W90210  21.653   9.821  14.026
21837W        W90211  15.661  43.813   4.237
21838W        W90212   3.364   0.812  14.355
21839W        W90213  38.416  16.615   3.827
21840W        W90214  26.674  24.575   1.801
21841W        W90215  35.371  31.944  12.580
21842W        W90216  13.328  38.823  11.007
21843W        W90217   4.855  22.508  11.498
21844W        W90218  29.670  18.570  10.908
21845W        W90219  21.581   1.971  11.608
21846W        W90220  22.999  23.222  10.476
21847W        W90221  27.157  32.558  14.452
21848W        W90222   6.694   3.424   0.329
21849W        W90223   9.346  43.931   2.762
21850W        W90224  34.863  16.683  13.545
21851W        W90225  11.831  35.950  10.638
21852W        W90226  23.994   3.435   4.271
21853W        W90227  31.950   6.922  11.461
21854W        W90228  20.563   6.210   2.260
21855W        W90229  29.561   2.465  12.547
21856W        W90230  41.389  38.852   3.194
21857W        W90231  35.995  17.227  14.292
21858W        W90232  28.525  34.546  13.398
21859W        W90233  16.746  35.427  12.508
21860W        W90234  26.137   1.831   0.302
21861W        W90235  25.671  10.685   0.845
21862W        W90236   2.435  42.347  14.291
21863W        W90237  26.026   2.923   3.149
21864W        W90238  24.516  17.099   4.184
21865W        W90239  35.542  17.264  13.861
21866W        W90240  19.610  37.864  12.058
21867W        W90241  44.450  32.002  14.884
21868W        W90242  32.504  27.029  10.969
21869W        W90243  18.780   0.861  11.499
21870W        W90244  18.689   0.979   0.850
21871W        W90245  36.482  22.017  13.469
21872W        W90246  21.137  32.586  12.867
21873W        W90247   4.758  31.979  11.468
21874W        W90248  26.967  14.731   3.163
21875W        W90249  31.055   0.774  12.417
21876W        W90250  41.988  10.719  10.497
21877W        W90251  38.392  12.270   4.704
21878W        W90252  20.203  29.485   1.928
21879W        W90253  42.948  44.800  12.824
21880W        W90254  44.893   0.953   1.296
21881W        W90255  18.211  13.181   4.654
21882W        W90256  43.018  32.482  11.871
21883W        W90257  35.423  41.437   1.877
21884W        W90258  19.719  41.446  13.470
21885W        W90259  37.048  37.577   1.253
21886W        W90260  11.789  29.564   2.281
21887W        W90261  11.229  28.127   1.738
21888W        W90262   7.699  36.019  14.347
21889W        W90263   7.342  27.517  14.425
21890W        W90264  20.725  22.505   1.790
21891W        W90265  18.178  37.838   0.846
21892W        W90266  24.111  26.563   0.896
21893W        W90267  10.636  18.682  10.539
21894W        W90268  19.223   3.813   4.692
21895W        W90269  20.711  14.664   0.460
21896W        W90270  32.006  39.387  11.033
21897W        W90271  18.595   2.911   0.303
21898W        W90272  22.995  30.441  12.901
21899W        W90273  26.477   7.835  14.463
21900W        W90274  22.205  23.719  11.933
21901W        W90275  26.078  27.177   3.765
21902W        W90276  32.581  31.602  12.993
21903W        W90277  37.939  38.411   3.323
21904W        W90278  42.339  24.536  10.485
21905W        W90279  13.633  19.582   0.729
21906W        W90280  19.240   8.668   2.682
21907W        W90281   5.374  36.554   1.909
21908W        W90282  29.003  44.398  11.898
21909W        W90283  44.392  16.690  10.906
21910W        W90284  33.953   6.784  13.881
21911W        W90285  16.148  11.342  13.870
21912W        W90286   4.213  40.898   0.750
21913W        W90287  41.931  31.053   4.619
21914W        W90288  10.184  21.551   4.604
21915W        W90289  36.578   9.324   3.772
21916W        W90290  37.017  12.349  10.477
21917W        W90291  36.408   9.190  10.054
21918W        W90292  26.540  29.569   0.844
21919W        W90293  14.117  15.823   5.165
21920W        W90294  18.164   2.247   3.264
21921W        W90295  27.093  31.522   2.248
21922W        W90296  33.587  37.027  12.530
21923W        W90297   5.751  23.694   2.812
21924W        W90298   7.366   4.241  11.891
21925W        W90299  17.730  39.888  14.423
21926W        W90300   5.201   4.360   2.821
21927W        W90301  43.818  19.241  10.969
21928W        W90302   5.294  12.759   1.282
21929W        W90303  29.522  24.482   4.162
21930W        W90304  44.767   7.830  13.059
21931W        W90305  29.621  26.097  10.422
21932W        W90306  12.748  28.569   0.741
21933W        W90307   3.914   5.411  14.831
21934W        W90308  28.981  10.227  12.862
21935W        W90309   1.808  12.329  11.129
21936W        W90310  42.287  23.511   1.450
21937W        W90311  35.403   8.776   1.323
21938W        W90312  40.035  14.225   3.271
21939W        W90313   6.245  13.673  12.841
21940W        W90314   0.323  31.952   1.350
21941W        W90315  21.686   8.250  12.901
21942W        W90316   9.348  29.087  10.560
21943W        W90317  20.226  43.870   0.262
21944W        W90318  40.935  31.917   1.367
21945W        W90319  40.514  27.997   3.366
21946W        W90320  40.945  20.191  12.534
21947W        W90321  27.102   4.358  10.588
21948W        W90322  28.127  21.029   2.300
21949W        W90323  11.760  15.276   4.719
21950W        W90324   0.492  29.493   4.652
21951W        W90325  41.948   6.877  11.019
21952W        W90326  38.855  43.386   2.874
21953W        W90327  17.673  41.449   1.850
21954W        W90328   3.900  40.960   4.228
21955W        W90329  39.442  31.060  10.445
21956W        W90330  19.118  27.629   0.348
21957W        W90331  36.949   2.744  14.446
21958W        W90332  11.162   3.244   2.214
21959W        W90333   6.687  11.194  11.405
21960W        W90334  42.992  24.659   4.196
21961W        W90335  19.203  43.807   0.417
21962W        W90336   7.324  35.932  14.904
21963W        W90337  29.427  40.890  12.573
21964W        W90338   7.187  33.384   3.323
21965W        W90339   4.767  26.651   5.086
21966W        W90340  21.571   2.749  14.870
21967W        W90341  21.040  25.150  12.429
21968W        W90342  33.502  26.601   2.340
21969W        W90343  44.294  31.037  14.957
21970W        W90344  19.224  14.719  12.924
21971W        W90345  18.581  10.290   1.303
21972W        W90346  39.823   8.274   9.483
21973W        W90347  25.702  14.193   2.717
21974W        W90348  30.913  34.523  13.059
21975W        W90349  25.537  21.115   2.367
21976W        W90350  12.662  18.583   1.278
21977W        W90351  40.325  14.764   4.309
21978W        W90352  41.424  23.090   3.310
21979W        W90353  41.895  40.035   1.895
21980W        W90354  15.142   6.686  12.527
21981W        W90355  26.493   1.466   1.402
21982W        W90356  38.033  21.571   2.401
21983W        W90357   9.267  39.013  14.310
21984W        W90358  20.590   7.363  13.320
21985W        W90359  38.068  21.735  13.840
21986W        W90360  21.587   7.362   4.770
21987W        W90361  21.036   1.812  12.928
21988W        W90362  29.662  16.186   3.678
21989W        W90363  15.586   1.862  12.828
21990W        W90364  12.133  27.949  14.505
21991W        W90365  41.336  14.659   3.213
21992W        W90366   7.173  16.778   1.443
21993W        W90367  40.804  43.854  12.504
21994W        W90368  22.650  20.573  12.957
21995W        W90369  18.228   4.842  13.863
21996W        W90370  38.329  33.562  11.545
21997W        W90371  24.085  20.111  12.382
21998W        W90372  34.067  16.568  13.027
21999W        W90373  29.629   4.855   1.350
22000W        W90374  42.805  30.015   3.203
22001W        W90375  23.074   2.727   3.672
22002W        W90376  32.942  28.488  13.391
22003W        W90377  31.590  27.690   2.781
22004W        W90378  44.345  10.346  14.436
22005W        W90379   7.816   6.410   2.714
22006W        W90380  31.584  21.243  13.320
22007W        W90381  28.985  16.082   3.717
22008W        W90382   6.360  13.299  14.380
22009W        W90383  35.022  16.194  10.942
22010W        W90384  19.604   1.461   1.372
22011W        W90385   6.408  32.127   0.755
22012W        W90386  32.623  10.779   2.272
22013W        W90387   5.310  43.988  11.057
22014W        W90388  21.745   3.393  10.991
22015W        W90389  27.121   1.289  12.408
22016W        W90390  31.413  23.038   1.812
22017W        W90391   4.408  13.168  12.403
22018W        W90392  25.094  25.095  13.395
22019W        W90393  24.624   3.935   2.416
22020W        W90394  16.690  10.246  14.002
22021W        W90395  34.384  25.617  14.288
22022W        W90396  26.495   8.404   4.274
22023W        W90397  37.844  23.691  12.427
22024W        W90398  28.074  35.098   1.234
22025W        W90399  15.179  25.192  13.468
22026W        W90400  42.867  24.136   0.836
22027W        W90401  30.122  28.462   0.379
22028W        W90402   7.812   5.225  12.993
22029W        W90403  10.777   3.458  11.394
22030W        W90404  20.110  24.619  11.968
22031W        W90405   0.790  20.068  14.400
22032W        W90406  20.544  22.572   0.338
22033W        W90407  21.568  12.180   0.933
22034W        W90408  34.455  14.701  14.808
22035W        W90409  33.619  34.570   3.748
22036W        W90410  36.847  38.058  12.404
22037W        W90411  24.120  29.510  13.329
22038W        W90412  38.465  33.950  11.376
22039W        W90413   7.322  25.974   4.341
22040W        W90414  34.882  33.110   1.732
22041W        W90415   9.852   3.870   2.681
22042W        W90416  17.683  38.547  12.837
22043W        W90417  30.583  29.518  14.358
22044W        W90418  31.962  16.137  14.853
22045W        W90419   1.922  44.450   2.881
22046W        W90420  17.731  11.691   0.962
22047W        W90421  24.995   0.924  11.855
22048W        W90422  16.660  31.487   4.832
22049W        W90423  19.610   4.820   5.171
22050W        W90424   7.802  31.599   9.562
22051W        W90425  22.085  32.066   1.762
22052W        W90426  31.537  11.683   4.131
22053W        W90427  42.463   9.237   0.966
22054W        W90428  17.089   4.321  13.958
22055W        W90429  42.478  41.037  13.539
22056W        W90430  29.977  16.231  14.280
22057W        W90431   7.293  28.587  14.883
22058W        W90432  13.167  43.888  11.859
22059W        W90433   3.932  17.719  14.480
22060W        W90434  13.339  36.067  10.889
22061W        W90435   2.842  43.515   0.470
22062W        W90436  12.658  11.680   1.272
22063W        W90437   8.230  23.038   3.386
22064W        W90438   2.296   3.761   3.293
22065W        W90439  12.146  39.980  10.981
22066W        W90440  39.493   4.295  11.879
22067W        W90441  41.912  10.319  14.276
22068W        W90442  14.193  34.487  11.022
22069W        W90443   6.727  39.947  11.094
22070W        W90444  32.035  29.031   4.137
22071W        W90445  39.987  33.469   4.776
22072W        W90446  13.600  41.027   4.211
22073W        W90447  33.451  29.663   1.403
22074W        W90448  42.871  28.437   2.201
22075W        W90449  16.073  22.537  11.393
22076W        W90450   4.377  17.131  14.422
22077W        W90451   9.840  30.558   3.797
22078W        W90452  35.004   2.287   3.844
22079W        W90453   2.758  27.668   3.296
22080W        W90454  24.666  11.763  10.509
22081W        W90455  26.066  37.339   1.250
22082W        W90456   6.300  22.511   4.339
22083W        W90457  18.750   8.891  13.362
22084W        W90458  14.243   1.863  10.578
22085W        W90459  21.163  14.664  12.985
22086W        W90460  27.669  15.786  13.349
22087W        W90461  29.608  19.694   5.222
22088W        W90462  43.331  37.037   1.769
22089W        W90463  37.975  42.514   4.732
22090W        W90464  17.101  36.082   0.395
22091W        W90465  40.385  34.989  11.876
22092W        W90466  24.154  26.691  14.885
22093W        W90467  34.574  23.159   0.267
22094W        W90468   6.237   5.784  10.566
22095W        W90469   0.789  44.769  11.436
22096W        W90470   6.317   7.376  10.549
22097W        W90471  11.160   1.348   3.304
22098W        W90472  34.077  11.252  14.298
22099W        W90473  25.993   6.838   3.257
22100W        W90474   5.340  16.077   3.702
22101W        W90475  20.168  16.661  13.894
22102W        W90476  14.772  19.163  12.004
22103W        W90477  32.008  13.202  12.521
22104W        W90478  10.665   4.300  12.365
22105W        W90479  27.164   6.901  10.599
22106W        W90480  43.282   3.947   1.400
22107W        W90481  37.908  40.019   0.471
22108W        W90482  28.546  26.108  11.539
22109W        W90483  21.628  36.474   1.332
22110W        W90484  38.898  25.676  14.990
22111W        W90485  25.160  28.466   2.369
22112W        W90486   9.180  33.085  12.002
22113W        W90487   6.395   5.226  12.866
22114W        W90488  13.818  21.567  12.524
22115W        W90489   8.738  15.288  14.344
22116W        W90490  41.027   5.288   0.427
22117W        W90491  24.654  42.831   3.675
22118W        W90492  12.127  40.012  13.042
22119W        W90493  44.333  26.964   5.136
22120W        W90494   6.361  36.436  10.639
22121W        W90495  24.562  10.723  12.438
22122W        W90496   2.239  38.031   1.412
22123W        W90497  19.625  37.858  13.359
22124W        W90498  20.192  23.015   4.772
22125W        W90499  15.619   7.834   0.325
22126W        W90500   0.330  38.915  12.965
22127W        W90501  40.348  40.822   0.904
22128W        W90502  35.870  42.474   4.710
22129W        W90503  25.522  19.136  13.998
22130W        W90504  44.927  13.727  11.857
22131W        W90505  21.729  22.152   3.770
22132W        W90506  24.489   6.202  12.097
22133W        W90507  20.245  37.494  12.944
22134W        W90508   8.342  35.881   1.216
22135W        W90509  40.844   2.873   0.911
22136W        W90510  35.359  43.820   4.216
22137W        W90511  23.706  41.533   4.799
22138W        W90512  36.475  12.230  14.312
22139W        W90513  41.319  15.797  12.549
22140W        W90514  25.210  17.153  11.480
22141W        W90515  10.254  42.283  13.860
22142W        W90516  22.106  26.113  11.384
22143W        W90517  17.153  39.983  13.543
22144W        W90518  20.239  25.026  11.415
22145W        W90519  40.393   3.955   0.821
22146W        W90520  13.138  30.633   3.278
22147W        W90521  28.974  35.010  11.599
22148W        W90522  24.630  30.061  14.966
22149W        W90523  22.140  20.144   0.391
22150W        W90524   5.287  24.692   1.327
22151W        W90525  34.077  15.640   3.332
22152W        W90526  13.833  12.294  14.814
22153W        W90527  24.683  28.048   2.393
22154W        W90528  10.690  39.042  11.502
22155W        W90529   0.986  20.685  11.977
22156W        W90530  20.190  44.901  14.825
22157W        W90531  16.625  37.546   3.869
22158W        W90532  27.610  23.663   1.846
22159W        W90533  20.118   7.337   5.224
22160W        W90534  31.984   6.743   1.279
22161W        W90535  34.046   5.808   3.371
22162W        W90536  28.048   0.395  11.044
22163W        W90537  28.493  18.747   1.436
22164W        W90538  27.022  23.718   3.663
22165W        W90539  20.661   2.328  12.478
22166W        W90540  39.403  27.692  14.838
22167W        W90541  28.974  13.604  11.871
22168W        W90542  43.280  16.586   1.839
22169W        W90543   9.236   4.871  10.152
22170W        W90544   5.407  16.168  14.773
22171W        W90545   6.884  24.153   4.697
22172W        W90546   5.928   4.274  14.445
22173W        W90547   8.784  33.052  14.946
22174W        W90548  40.949  40.051   0.303
22175W        W90549  11.325  14.818  12.910
22176W        W90550   7.316  42.941  14.011
22177W        W90551  27.581   5.786  11.410
22178W        W90552  25.177  35.947  13.951
22179W        W90553  26.167  14.771  10.442
22180W        W90554  29.080   0.934   2.831
22181W        W90555  21.073  28.032   0.731
22182W        W90556  42.787  39.882   1.694
22183W        W90557   4.383  34.587   3.230
22184W        W90558  30.642   1.744  12.525
22185W        W90559  41.016  32.561   3.767
22186W        W90560   0.276   8.237   2.194
22187W        W90561  42.885  39.843   3.745
22188W        W90562  23.614  13.254   1.368
22189W        W90563  36.940  10.227  13.498
22190W        W90564  43.363   0.885   0.462
22191W        W90565  10.156   2.845  11.880
22192W        W90566  35.585  21.123  12.399
22193W        W90567   6.264  33.535  13.042
22194W        W90568  17.192  38.917   2.286
22195W        W90569  11.759  26.496  10.039
22196W        W90570   6.397  13.292  13.916
22197W        W90571  41.466  44.488   5.155
22198W        W90572   6.213  39.949  10.068
22199W        W90573  33.476   3.889  14.818
22200W        W90574  38.515  10.244   0.402
22201W        W90575  30.032  23.238   0.417
22202W        W90576   1.803  44.407   1.794
22203W        W90577  22.698   1.440  14.409
22204W        W90578  17.627  34.573   4.220
22205W        W90579  28.642  38.970  14.779
22206W        W90580  20.065  39.324   3.236
22207W        W90581  29.167  23.689  14.502
22208W        W90582  39.046   7.818   2.245
22209W        W90583  37.928  11.155  12.502
22210W        W90584   7.209   5.333  14.924
22211W        W90585  32.562   3.910  11.423
22212W        W90586   5.720  34.494   2.230
22213W        W90587   2.427  20.572  13.063
22214W        W90588   1.390  42.030  10.600
22215W        W90589  24.613  28.555  10.556
22216W        W90590  28.509  32.037  10.906
22217W        W90591  35.869  33.458   4.690
22218W        W90592  22.512  44.765   1.325
22219W        W90593  40.024  17.651   2.828
22220W        W90594   0.855  26.513  10.971
22221W        W90595  10.816  26.565   1.405
22222W        W90596  35.927  25.548  12.959
22223W        W90597  13.227   1.843  11.985
22224W        W90598   7.876  35.868   2.751
22225W        W90599  13.245  37.533  10.967
22226W        W90600  16.575   9.342   1.730
22227W        W90601  44.950  42.351  11.928
22228W        W90602   7.784  16.147  12.346
22229W        W90603  39.875  21.247   9.948
22230W        W90604  14.632  35.597  13.062
22231W        W90605  41.801  11.806  12.423
22232W        W90606  22.123   4.310   1.276
22233W        W90607  22.583  29.454  11.995
22234W        W90608  27.952   0.429   3.239
22235W        W90609  39.040  38.457  10.403
22236W        W90610  12.726  44.822  12.062
22237W        W90611  30.024  41.353   0.369
22238W        W90612  31.569   7.823  11.406
22239W        W90613  31.422  39.407   3.752
22240W        W90614  43.890  21.144  11.554
22241W        W90615  12.697  32.429   2.279
22242W        W90616  40.966  23.107   3.736
22243W        W90617  44.454  19.744   0.326
22244W        W90618   3.381  44.491  14.304
22245W        W90619  36.055  23.526   0.889
22246W        W90620   4.283  36.855  12.427
22247W        W90621  27.060  24.028   2.305
22248W        W90622  42.813  39.489   3.182
22249W        W90623  42.950  31.625   0.805
22250W        W90624  41.337   4.942   3.323
22251W        W90625  10.257   6.862   4.246
22252W        W90626   1.977   9.380   2.231
22253W        W90627  24.186  40.308  14.419
22254W        W90628  33.124  12.176   4.145
22255W        W90629   5.397   5.910   2.245
22256W        W90630   3.849  40.484   4.133
22257W        W90631  43.330   3.924   2.208
22258W        W90632  18.600  32.430  12.340
22259W        W90633   6.219  29.563   2.707
22260W        W90634  25.208  27.163   1.366
22261W        W90635  33.551  16.297  14.472
22262W        W90636  13.262   2.852  11.047
22263W        W90637  23.182   2.400   4.339
22264W        W90638   7.734   5.281   4.709
22265W        W90639   8.874  15.111  12.833
22266W        W90640  33.501  25.182  12.084
22267W        W90641  15.628  21.527  10.048
22268W        W90642  25.517  32.022  14.397
22269W        W90643  15.271  44.420   2.244
22270W        W90644  24.620  36.855  11.053
22271W        W90645  28.670  10.335   1.785
22272W        W90646  44.828  37.903   0.947
22273W        W90647  43.459  23.165   1.285
22274W        W90648  16.773  26.588   0.372
22275W        W90649  21.663  17.713   2.727
22276W        W90650   2.848  16.274  14.878
22277W        W90651  39.987  12.201  10.925
22278W        W90652  20.032   1.404   4.646
22279W        W90653  24.219  26.703   4.699
22280W        W90654  41.016  26.647   0.819
22281W        W90655   5.900  18.675   1.280
22282W        W90656  14.297   3.327   1.404
22283W        W90657  39.434  32.460  10.526
22284W        W90658  39.373  32.052  13.440
22285W        W90659  41.787  34.566  14.832
22286W        W90660  31.972  39.481   3.300
22287W        W90661  14.298  11.633   4.114
22288W        W90662  34.478  39.815   4.165
22289W        W90663  17.734  33.459  14.394
22290W        W90664  18.257   0.750  11.961
22291W        W90665   4.891  35.923  14.963
22292W        W90666   5.307  33.891  10.994
22293W        W90667  14.630  17.119   0.299
22294W        W90668  29.592  12.331   1.782
22295W        W90669  40.411  36.550  13.984
22296W        W90670  21.579  36.002   2.746
22297W        W90671  24.185   7.302   0.302
22298W        W90672  36.012  27.968   0.871
22299W        W90673   5.214   3.767   0.922
22300W        W90674  31.488  25.686   0.258
22301W        W90675  19.045  32.104  10.438
22302W        W90676   9.790  17.072  12.468
22303W        W90677  30.613   4.743  14.472
22304W        W90678  31.023  44.943  14.421
22305W        W90679  24.044  26.483   0.335
22306W        W90680  14.278  26.603  13.814
22307W        W90681  40.889  34.429  13.058
22308W        W90682  30.463  20.547   0.836
22309W        W90683   1.335  38.041  13.879
22310W        W90684  13.803  39.819   0.773
22311W        W90685  20.131  41.023  12.470
22312W        W90686   4.219   8.395   4.782
22313W        W90687   9.773  43.382  14.908
22314W        W90688   9.250   4.236  13.503
22315W        W90689   1.422  12.332   4.189
22316W        W90690  27.533   1.440   0.307
22317W        W90691   7.866  42.990   0.416
22318W        W90692   7.326  16.657   0.412
22319W        W90693  17.794  41.352  11.932
22320W        W90694   0.826  40.039   4.194
22321W        W90695   0.989  27.957  11.052
22322W        W90696  11.633   3.945   0.345
22323W        W90697  42.966  37.488  10.007
22324W        W90698  14.654  36.944   1.831
22325W        W90699   1.922  37.339   0.449
22326W        W90700   2.361  22.162   1.226
22327W        W90701  22.048  31.482  14.299
22328W        W90702  40.517  24.597   0.949
22329W        W90703  18.768  17.261  11.527
22330W        W90704   5.902  14.223   0.738
22331W        W90705  20.108  18.654  10.590
22332W        W90706  22.541  18.757  10.935
22333W        W90707  25.093  12.302  13.880
22334W        W90708   4.751  26.955   3.827
22335W        W90709  12.621  14.734  12.967
22336W        W90710   7.686   6.361   4.311
22337W        W90711  11.296  33.495   2.354
22338W        W90712   2.853  40.935   1.378
22339W        W90713  35.075  26.499  12.937
22340W        W90714  23.989  20.049  14.322
22341W        W90715  37.925  15.193   0.943
22342W        W90716  28.642  38.492   1.358
22343W        W90717  18.074  34.931   3.863
22344W        W90718   5.363  36.389   0.815
22345W        W90719  15.226  36.517  12.950
22346W        W90720  44.933  36.891   4.309
22347W        W90721  37.389  35.594   4.181
22348W        W90722  20.237  26.177  11.458
22349W        W90723  13.278  27.156  12.968
22350W        W90724   7.256  25.106  12.419
22351W        W90725  44.491  26.603   4.260
22352W        W90726  29.599  18.090  11.421
22353W        W90727  10.804  36.845  10.539
22354W        W90728  40.039  10.827   2.182
22355W        W90729  12.737  17.212   0.766
22356W        W90730  37.036  15.231   2.182
22357W        W90731  24.644  32.074   1.874
22358W        W90732  29.960  32.923  11.491
22359W        W90733  39.882  36.526   1.857
22360W        W90734  39.443   9.199  11.592
22361W        W90735  38.002  20.755   0.400
22362W        W90736  30.072  13.186   2.342
22363W        W90737  41.935  19.141  10.571
22364W        W90738  39.503  27.612  12.427
22365W        W90739  39.036  29.588   3.673
22366W        W90740  33.972  34.511  10.418
22367W        W90741  32.007  44.325  14.471
22368W        W90742  19.564  41.019  11.862
22369W        W90743  23.552  16.171  12.432
22370W        W90744  14.726   3.221  13.369
22371W        W90745   5.426  16.609   1.879
22372W        W90746  12.811  11.353   3.247
22373W        W90747  39.958  19.230  13.822
22374W        W90748   7.275  23.184  13.884
22375W        W90749  42.976  20.600  10.534
22376W        W90750  28.481  26.676  14.946
22377W        W90751  17.669  33.539  13.978
22378W        W90752  22.665  22.705   5.281
22379W        W90753  18.698  31.468   3.228
22380W        W90754  27.125  33.591   0.760
22381W        W90755  41.817  23.136  12.986
22382W        W90756  10.792  15.101   4.238
22383W        W90757   6.783  31.560   3.220
22384W        W90758  13.803  23.669   0.348
22385W        W90759  15.806  30.938  14.495
22386W        W90760  16.100  40.546   1.815
22387W        W90761  27.689  12.641  12.471
22388W        W90762  31.588  12.676   1.355
22389W        W90763  15.308  19.129   4.118
22390W        W90764  43.766  44.490   0.900
22391W        W90765  30.418  18.619  10.421
22392W        W90766  32.567  29.073   2.752
22393W        W90767  25.974  20.124  11.003
22394W        W90768  34.958   6.341  13.324
22395W        W90769  34.396   4.281   0.355
22396W        W90770  15.326   1.374  12.976
22397W        W90771  41.406  15.765  14.969
22398W        W90772  36.848  33.007   2.283
22399W        W90773  13.801  40.385  12.398
22400W        W90774  43.502  15.089  14.916
22401W        W90775  36.526   9.787  14.784
22402W        W90776   4.397  18.749  12.891
22403W        W90777   2.941   4.329   0.851
22404W        W90778  32.393  30.659   5.202
22405W        W90779  26.551   9.201   4.220
22406W        W90780  41.450  11.665  11.064
22407W        W90781  35.997   4.854  11.085
22408W        W90782  44.923  41.819   0.892
22409W        W90783  34.898  28.173  11.073
22410W        W90784  27.459  42.996   9.930
22411W        W90785  42.895  43.868  12.997
22412W        W90786  12.758   2.726   2.785
22413W        W90787  10.748   2.745  13.791
22414W        W90788   5.269  12.610   0.964
22415W        W90789  42.427   8.777  10.050
22416W        W90790   2.819  34.944  10.422
22417W        W90791  10.200  40.399   0.471
22418W        W90792  26.698   5.376   4.181
22419W        W90793   4.892  25.177   3.329
22420W        W90794  35.958  10.829  12.004
22421W        W90795   9.365  40.862  13.332
22422W        W90796  15.669  10.649   2.220
22423W        W90797  32.507  11.699   0.826
22424W        W90798  26.960  10.245   3.361
22425W        W90799  34.613  15.220   4.767
22426W        W90800  43.515  42.846   1.325
22427W        W90801  17.166  30.578   1.808
22428W        W90802   9.663  41.904  13.319
22429W        W90803  31.580  36.998   2.366
22430W        W90804  30.973  26.973   3.817
22431W        W90805  38.938  14.173   2.898
22432W        W90806  39.361  38.482  11.029
22433W        W90807  43.981  19.641   2.786
22434W        W90808  43.950  13.680   2.703
22435W        W90809  17.789  14.818   3.298
22436W        W90810  25.150  12.127   4.787
22437W        W90811  25.629  24.005   2.702
22438W        W90812  23.162  28.614   3.770
22439W        W90813  22.623  24.210  11.587
22440W        W90814   8.364  42.311  11.900
22441W        W90815  11.782  44.404   0.374
22442W        W90816  35.587  38.520  14.018
22443W        W90817  33.539   0.316  11.421
22444W        W90818  28.453  14.221  14.426
22445W        W90819  15.193  17.631   1.696
22446W        W90820   1.305   2.268  10.927
22447W        W90821  10.750  20.240  13.873
22448W        W90822   6.301   1.962  10.074
22449W        W90823  21.591   0.952  14.410
22450W        W90824  26.105  12.354  13.922
22451W        W90825  17.197  13.119  11.953
22452W        W90826  31.123  16.732  13.537
22453W        W90827  41.859  37.959  14.313
22454W        W90828  30.982  43.901   2.862
22455W        W90829  38.476  33.898   1.447
22456W        W90830  35.930  33.018  11.496
22457W        W90831  29.118  31.916   4.353
22458W        W90832  19.264  42.526   3.835
22459W        W90833  25.701  19.098  11.410
22460W        W90834   7.807   5.913  13.340
22461W        W90835   6.778   5.917  12.052
22462W        W90836  23.569  14.162   2.696
22463W        W90837  33.970  19.129  14.496
22464W        W90838  11.221  29.072  10.645
22465W        W90839  38.920   0.859  14.009
22466W        W90840  11.818  20.126   4.345
22467W        W90841  13.228  32.885  14.314
22468W        W90842   6.730  13.193  10.437
22469W        W90843   5.340  30.099   0.773
22470W        W90844   6.287  16.303   2.274
22471W        W90845  15.304  19.266   0.328
22472W        W90846  17.767   3.710  11.992
22473W        W90847   0.966   4.747   2.229
22474W        W90848   7.302  35.014  14.969
22475W        W90849  37.354  33.490  12.377
22476W        W90850  28.966  12.713   2.417
22477W        W90851  32.959   7.857  10.631
22478W        W90852   7.795   0.822  14.494
22479W        W90853   9.844  32.445   2.222
22480W        W90854  40.518  18.608   4.839
22481W        W90855   8.687  26.552  11.088
22482W        W90856  28.058   8.787   2.752
22483W        W90857   3.914  23.196  14.441
22484W        W90858  30.434  37.479  13.367
22485W        W90859  17.781  18.647  14.917
22486W        W90860  33.931  17.561  10.589
22487W        W90861   3.948  23.712  12.965
22488W        W90862  11.772   5.794   1.756
22489W        W90863  33.616  17.630   0.439
22490W        W90864   3.832  26.963  13.398
22491W        W90865  21.260  42.317   2.230
22492W        W90866   6.743  27.070   2.377
22493W        W90867  29.964  40.810  10.609
22494W        W90868   2.808  41.958   3.771
22495W        W90869  21.167  43.803   0.422
22496W        W90870   9.889  16.215  12.871
22497W        W90871  42.831   1.902   4.289
22498W        W90872  12.654  36.984  14.982
22499W        W90873  26.019   0.274   3.685
22500W        W90874  14.094  21.036   5.218
22501W        W90875  10.299  36.927   0.808
22502W        W90876   6.369   8.216  10.982
22503W        W90877  44.848  41.356  14.877
22504W        W90878  17.563  18.235  10.997
22505W        W90879   7.858  12.238  11.568
22506W        W90880  27.584  25.157  12.847
22507W        W90881  14.233  43.368   2.419
22508W        W90882  43.451   9.243  13.852
22509W        W90883  15.097   8.205  10.423
22510W        W90884  34.513  16.217   2.227
22511W        W90885   7.225  21.042   5.088
22512W        W90886  18.556   6.702  14.884
22513W        W90887  42.434  17.276  14.032
22514W        W90888  41.023  34.599  14.401
22515W        W90889  43.293  27.682   2.206
22516W        W90890  40.385  35.029   0.388
22517W        W90891   7.733  33.114   3.343
22518W        W90892  25.013   9.734  12.466
22519W        W90893  20.136  18.775   4.259
22520W        W90894  18.777  43.020  14.384
22521W        W90895  23.531  13.117  14.923
22522W        W90896   7.877  30.599   1.219
22523W        W90897  35.464   6.898   0.952
22524W        W90898  30.502  22.098   2.387
22525W        W90899  20.252   8.309   1.789
22526W        W90900  35.481  16.708  11.508
22527W        W90901  17.139  21.160   3.298
22528W        W90902   1.899  43.407  13.536
22529W        W90903  30.638   6.221  13.540
22530W        W90904   9.749   6.355  14.878
22531W        W90905   6.782  24.668  11.424
22532W        W90906  26.180   5.406  12.874
22533W        W90907   7.892  32.520   4.340
22534W        W90908  20.589  31.495   2.802
22535W        W90909  22.729   2.768  14.293
22536W        W90910  17.591  19.171  11.945
22537W        W90911   3.405  32.443   4.789
22538W        W90912   1.474   8.791   0.247
22539W        W90913  36.949  23.635  14.926
22540W        W90914  25.105  19.643   0.336
22541W        W90915  44.455  36.990   4.118
22542W        W90916  40.950  10.633   1.703
22543W        W90917  38.496  40.336   3.212
22544W        W90918  29.932  40.915   2.207
22545W        W90919  37.423  28.635  10.441
22546W        W90920  38.418  18.067  13.892
22547W        W90921  37.024  39.554  14.996
22548W        W90922  30.551  12.217   3.163
22549W        W90923  18.613  13.789  11.869
22550W        W90924   9.749  18.637   1.741
22551W        W90925   3.841   0.374  10.613
22552W        W90926  24.975  13.684   3.356
22553W        W90927  23.064  35.095  13.823
22554W        W90928  13.837  42.895  13.404
22555W        W90929  27.551  22.223  11.492
22556W        W90930  20.618   1.868  14.030
22557W        W90931  22.152  11.648   0.316
22558W        W90932  28.469  13.813   0.367
22559W        W90933  39.823  18.280  14.957
22560W        W90934   0.369   3.336   2.268
22561W        W90935  23.677  20.618  13.916
22562W        W90936  14.680  42.376  10.496
22563W        W90937  30.141  34.537   2.411
22564W        W90938  40.992  41.975   4.637
22565W        W90939   1.252  42.982   3.763
22566W        W90940  31.418  15.668  10.594
22567W        W90941  38.027  26.008   1.923
22568W        W90942  22.735  12.629  12.013
22569W        W90943  16.296  17.566   2.772
22570W        W90944  42.518  31.992  13.360
22571W        W90945  32.469  18.677  13.018
22572W        W90946  33.053   0.861  12.385
22573W        W90947  27.664  20.587   1.852
22574W        W90948  42.993   1.424  12.484
22575W        W90949  10.868   1.275  10.946
22576W        W90950  27.447  12.266   2.368
22577W        W90951   9.681  11.339   4.599
22578W        W90952  12.163  15.608  10.531
22579W        W90953   6.906  28.642   3.796
22580W        W90954  25.159  33.437  12.085
22581W        W90955  33.496  29.485   3.344
22582W        W90956  33.616   3.374  10.576
22583W        W90957  23.995  33.015   0.865
22584W        W90958   3.819  16.733   3.384
22585W        W90959  10.340  35.968   4.261
22586W        W90960   8.264  11.323   0.825
22587W        W90961   4.916  39.020  12.850
22588W        W90962  29.658  36.039  14.336
22589W        W90963  16.685  25.675  11.887
22590W        W90964  43.847   2.745  13.376
22591W        W90965  14.190  24.540  10.614
22592W        W90966   6.363   8.737  10.546
22593W        W90967   5.818  42.961   1.929
22594W        W90968  17.119  35.503  10.509
22595W        W90969  34.941  24.067   4.211
22596W        W90970  32.886  13.787  13.317
22597W        W90971  33.617   7.390  12.937
22598W        W90972  12.171  16.167  10.499
22599W        W90973  29.968  32.590   2.329
22600W        W90974  33.576  11.713  10.569
22601W        W90975   7.250  27.025   0.845
22602W        W90976  35.602  30.652   1.411
22603W        W90977   8.285   5.728  11.449
22604W        W90978  27.547  41.449  11.405
22605W        W90979  30.033  30.039   3.358
22606W        W90980  12.813   4.891  10.965
22607W        W90981  41.302  31.617  12.465
22608W        W90982  22.009  34.084   1.213
22609W        W90983  26.126  23.683  10.605
22610W        W90984  39.502  11.140   1.273
22611W        W90985  20.054   8.404   3.160
22612W        W90986   1.973  11.715   3.216
22613W        W90987  16.085  43.285  11.110
22614W        W90988  33.882  28.568  11.402
22615W        W90989  22.657  44.477   1.758
22616W        W90990  31.119  23.060  13.842
22617W        W90991   5.763  34.549  14.930
22618W        W90992  16.567  37.440   2.250
22619W        W90993  40.892  26.667  10.484
22620W        W90994  12.229  23.553   1.303
22621W        W90995  32.553  44.284   3.755
22622W        W90996  18.167  18.284   4.141
22623W        W90997  21.573  13.169   3.198
22624W        W90998  19.152  16.130  10.453
22625W        W90999  31.464  36.967  12.874
22626W        W91000  43.508  22.611  11.460
22627W        W91001  22.699  15.117  14.021
22628W        W91002  18.140  26.126  13.981
22629W        W91003  40.487  39.064  11.375
22630W        W91004   6.424   6.297   2.815
22631W        W91005   8.389  38.540   4.664
22632W        W91006   0.746   7.791   3.829
22633W        W91007  30.113  41.991   4.742
22634W        W91008  40.331  21.068  10.898
22635W        W91009   2.808   5.262   2.841
22636W        W91010  26.668   5.707  14.830
22637W        W91011  21.238  10.686   4.736
22638W        W91012  34.425  28.612  14.817
22639W        W91013  44.357   3.255   3.198
22640W        W91014  13.796  33.121  10.896
22641W        W91015  30.516   6.770   2.785
22642W        W91016   7.693  37.856  11.873
22643W        W91017  12.172   1.743  12.990
22644W        W91018  29.628   3.803  12.823
22645W        W91019   6.911  19.216  13.400
22646W        W91020  33.457  22.074  13.533
22647W        W91021  13.723  18.709   3.233
22648W        W91022  43.968  34.039  11.442
22649W        W91023  40.308  40.332  14.459
22650W        W91024  34.899  18.087   1.345
22651W        W91025  12.744   6.812  12.999
22652W        W91026   9.308  11.623   1.795
22653W        W91027  23.129  22.225   1.801
22654W        W91028  44.989  11.369   4.221
22655W        W91029   2.811  14.658   3.267
22656W        W91030  35.084   1.785   4.205
22657W        W91031  18.267  28.498  12.445
22658W        W91032  16.089   7.674  12.881
22659W        W91033  34.550  40.336   2.313
22660W        W91034  16.253  39.436   0.290
22661W        W91035  11.261   9.742  12.078
22662W        W91036  42.422  31.962   3.681
22663W        W91037  10.253  26.475   2.275
22664W        W91038  24.723  10.169  14.943
22665W        W91039  34.864  11.682   0.417
22666W        W91040   6.228  40.494  14.369
22667W        W91041  28.657  13.175   1.765
22668W        W91042  44.457  13.694   0.335
22669W        W91043  13.172   5.359   0.901
22670W        W91044  17.092   5.722   2.763
22671W        W91045  14.814  10.834   5.291
22672W        W91046  20.686  26.499   0.965
22673W        W91047  27.089  25.135  13.910
22674W        W91048  37.417  24.611   2.246
22675W        W91049  37.526   7.728  11.039
22676W        W91050  21.549  18.124   3.630
22677W        W91051  20.202  32.506  13.027
22678W        W91052   0.459  44.939   4.663
22679W        W91053  22.044  37.434  11.056
22680W        W91054  17.587  32.109   0.341
22681W        W91055  31.084  17.784   1.794
22682W        W91056  31.949  21.133   3.683
22683W        W91057   0.814  35.476   3.261
22684W        W91058  17.772   4.205   4.722
22685W        W91059  35.079  32.569   1.811
22686W        W91060  17.105  21.523   3.819
22687W        W91061   7.195  21.262   3.800
22688W        W91062   1.884  34.013  10.985
22689W        W91063  39.906  42.308   4.642
22690W        W91064  41.504  31.527   2.865
22691W        W91065  29.959  24.647   3.711
22692W        W91066  11.285  11.215   2.720
22693W        W91067  41.359  14.635   0.764
22694W        W91068  36.391  23.108   3.719
22695W        W91069  36.912  30.510  14.377
22696W        W91070  14.199   2.250  11.504
22697W        W91071  23.642   2.865  12.368
22698W        W91072  34.609   1.422  14.440
22699W        W91073  15.814   8.848   9.950
22700W        W91074  22.101  12.822   1.410
22701W        W91075  38.479   4.843  11.413
22702W        W91076  17.782  16.134  13.809
22703W        W91077  32.112  29.020  11.413
22704W        W91078   7.392   9.762  10.510
22705W        W91079  16.176   1.238  10.450
22706W        W91080  21.220   3.353   2.393
22707W        W91081  41.819  27.568   4.764
22708W        W91082  41.434  27.462  11.906
22709W        W91083  27.484  14.333   3.350
22710W        W91084  26.166  20.181   4.161
22711W        W91085  33.966  22.029   4.825
22712W        W91086  37.972  44.997  10.538
22713W        W91087  39.988  26.181   1.837
22714W        W91088   5.853  19.717  11.859
22715W        W91089  26.621  15.258  11.050
22716W        W91090   0.296  43.774   2.845
22717W        W91091  14.755  10.365   5.165
22718W        W91092  23.514  28.529  13.867
22719W        W91093   1.388  12.174   2.290
22720W        W91094  39.489   5.323   0.774
22721W        W91095  44.879   6.218   0.853
22722W        W91096  35.403  38.437  10.407
22723W        W91097  40.330  28.063  12.926
22724W        W91098  32.992  30.147  11.597
22725W        W91099  41.297  38.494   0.771
22726W        W91100  32.010  18.684   1.246
22727W        W91101  10.214  24.017   4.164
22728W        W91102  44.386  20.560   3.179
22729W        W91103  24.111  26.688  12.898
22730W        W91104  10.187  15.321  14.794
22731W        W91105  33.950  24.498  14.771
22732W        W91106  10.293   2.268  14.461
22733W        W91107  15.314  44.486  11.928
22734W        W91108  32.432  20.047   4.353
22735W        W91109  26.980  35.884   0.447
22736W        W91110  28.092  30.986  10.967
22737W        W91111  43.899  10.636   0.393
22738W        W91112  15.743  24.043  14.478
22739W        W91113  26.611  18.290   4.223
22740W        W91114  27.125  44.847  11.944
22741W        W91115  35.881  16.717  13.492
22742W        W91116  43.870  34.509   0.340
22743W        W91117  37.082   1.371   0.271
22744W        W91118  22.605  18.095   5.309
22745W        W91119  13.757   6.810   1.791
22746W        W91120  19.159  13.645   3.759
22747W        W91121   1.915  27.002   4.341
22748W        W91122  20.621  21.540  12.508
22749W        W91123  16.624   5.787   4.185
22750W        W91124  28.937   4.887  13.820
22751W        W91125  44.340  23.601   1.848
22752W        W91126  39.829  14.211  13.029
22753W        W91127   2.330  11.792  12.878
22754W        W91128  15.143  26.201   3.733
22755W        W91129  40.411  38.376   0.333
22756W        W91130   4.284  38.332   0.934
22757W        W91131  17.798  34.546  11.114
22758W        W91132  18.296  35.433  14.439
22759W        W91133  28.051  32.919  12.409
22760W        W91134  28.957  32.578   1.410
22761W        W91135   0.900  28.990  11.966
22762W        W91136  24.634  23.705  11.585
22763W        W91137  22.721  33.497   0.726
22764W        W91138  20.082  16.140  10.463
22765W        W91139  14.096  30.076   0.377
22766W        W91140  23.210  30.648  13.506
22767W        W91141  11.727   5.272  11.551
22768W        W91142  12.771  42.835  13.825
22769W        W91143  17.688  24.670   1.402
22770W        W91144  29.644   5.907  13.512
22771W        W91145  41.408   2.854   4.652
22772W        W91146  19.095  40.443  13.366
22773W        W91147  38.885  44.497  13.547
22774W        W91148   1.428   8.890   1.279
22775W        W91149  40.926  29.934   3.322
22776W        W91150  31.119  40.345  12.566
22777W        W91151   7.246  39.837  12.978
22778W        W91152  16.281  18.106   0.428
22779W        W91153  41.999  10.756  14.325
22780W        W91154  32.606  32.584  11.424
22781W        W91155  39.825  13.181   3.702
22782W        W91156   3.728  42.941   1.887
22783W        W91157   5.289  40.318   1.724
22784W        W91158   7.785  36.981   1.858
22785W        W91159  40.492   3.807   4.128
22786W        W91160  37.086  38.879   0.836
22787W        W91161   9.341   1.959  11.089
22788W        W91162  41.349  40.847  11.508
22789W        W91163  34.981   6.897  14.393
22790W        W91164  10.698  17.162  14.280
22791W        W91165  32.583  11.279  14.509
22792W        W91166  23.011  29.503   5.170
22793W        W91167   1.914   0.285  11.502
22794W        W91168  24.683  22.097  12.013
22795W        W91169  35.873   6.242   1.282
22796W        W91170  38.836  20.755  11.922
22797W        W91171  42.519   0.771   3.802
22798W        W91172  43.494  19.763   3.672
22799W        W91173  39.414  43.503  14.934
22800W        W91174  35.578  31.007  12.908
22801W        W91175   5.376  21.707   2.755
22802W        W91176  16.092   0.488  13.357
22803W        W91177  15.302   5.755  10.450
22804W        W91178  17.693   0.392  14.300
22805W        W91179  34.864  34.873  10.522
22806W        W91180  28.024  37.391  10.577
22807W        W91181   0.454  12.203  13.957
22808W        W91182  42.799  23.234  10.561
22809W        W91183  43.353  10.310  11.554
22810W        W91184  29.940   3.881   2.352
22811W        W91185  44.971  16.161  11.105
22812W        W91186  12.643  29.023  11.493
22813W        W91187   1.884  22.695   3.256
22814W        W91188  19.207  28.011   0.798
22815W        W91189  29.029  11.364  11.547
22816W        W91190  39.953   7.348  11.547
22817W        W91191   5.355  16.574   2.275
22818W        W91192  44.501  26.986  11.913
22819W        W91193   5.291  13.186  10.445
22820W        W91194   4.736   6.423   0.878
22821W        W91195  18.610  38.902  11.045
22822W        W91196  35.986  18.292   0.920
22823W        W91197   9.664  25.001  12.366
22824W        W91198  10.154  40.408   2.770
22825W        W91199  42.916   3.406   4.338
22826W        W91200  11.637  42.972   2.717
22827W        W91201  17.661  34.926  12.938
22828W        W91202  25.596  18.172   2.289
22829W        W91203  23.589  23.580   0.941
22830W        W91204  21.244  30.922   3.653
22831W        W91205  39.846  39.490  12.996
22832W        W91206   5.905  44.456   1.710
22833W        W91207   8.785  41.328   4.656
22834W        W91208  26.643  11.684   3.229
22835W        W91209  26.478   8.726   2.415
22836W        W91210  43.297  30.950  13.803
22837W        W91211   6.839   2.350  10.951
22838W        W91212   3.333  44.872  11.986
22839W        W91213   5.201  44.342  12.385
22840W        W91214  44.478   2.462  13.321
22841W        W91215  12.206  12.695  12.348
22842W        W91216  39.357  34.967   3.186
22843W        W91217  37.931   5.330  13.460
22844W        W91218  12.121  32.888   3.855
22845W        W91219  14.671   1.266  12.042
22846W        W91220  31.029  26.126   4.328
22847W        W91221  33.529  41.355  14.363
22848W        W91222  39.967  33.961  10.500
22849W        W91223   4.767  28.062   2.759
22850W        W91224   1.276   3.225   2.294
22851W        W91225  17.746  11.824   0.386
22852W        W91226  42.933   2.963   4.720
22853W        W91227   6.821  35.999   1.406
22854W        W91228  36.439  32.141   1.221
22855W        W91229   1.856   0.431   3.779
22856W        W91230   4.248  20.087   3.194
22857W        W91231  20.178   2.440   3.246
22858W        W91232  25.642  11.343  12.870
22859W        W91233  40.009   2.750  11.869
22860W        W91234  32.071  24.653   0.411
22861W        W91235  20.593  15.310   3.777
22862W        W91236  26.465   8.261  13.335
22863W        W91237   3.327  19.213   0.732
22864W        W91238   5.926   4.746  11.933
22865W        W91239  43.365  19.271   3.792
22866W        W91240  34.981  20.182  11.870
22867W        W91241  27.473  34.507   3.785
22868W        W91242  12.265  21.609  14.410
22869W        W91243  31.436  15.304  12.357
22870W        W91244   9.793  17.072   4.618
22871W        W91245  35.076  28.087   2.793
22872W        W91246  20.767  24.032  13.322
22873W        W91247  44.803  26.470  11.533
22874W        W91248   3.787  18.730  12.976
22875W        W91249  10.793  41.044   3.346
22876W        W91250   5.204  11.183  10.605
22877W        W91251  31.902  12.745   3.270
22878W        W91252  11.668  12.618   4.668
22879W        W91253  25.712  20.758   1.339
22880W        W91254  33.058  41.487   3.825
22881W        W91255  42.495  14.662   2.252
22882W        W91256  35.900  24.180   5.140
22883W        W91257  33.461   4.738  13.529
22884W        W91258  31.633  19.739   1.779
22885W        W91259  39.334  33.428  12.534
22886W        W91260   6.385  31.450   1.314
22887W        W91261  33.119  11.314   1.746
22888W        W91262   7.684  27.149   2.875
22889W        W91263   6.828  41.979  11.882
22890W        W91264   8.229  20.652  13.985
22891W        W91265  38.371  41.015  12.823
22892W        W91266  21.542  27.086  14.423
22893W        W91267  22.501   3.215  11.452
22894W        W91268  10.834   7.407   1.292
22895W        W91269  41.973  22.014  12.952
22896W        W91270  30.079  23.051  13.406
22897W        W91271  12.618  10.831  13.336
22898W        W91272  43.366  43.351   4.756
22899W        W91273  37.363  41.436   0.917
22900W        W91274  20.757  31.948  10.471
22901W        W91275  26.552  32.068   1.724
22902W        W91276  43.348  20.129   4.817
22903W        W91277   7.266   8.248  12.057
22904W        W91278  26.199  38.566  13.492
22905W        W91279   6.913  44.308   1.698
22906W        W91280   4.746  21.205   4.774
22907W        W91281  25.178   2.429  10.593
22908W        W91282  29.444  26.153  11.512
22909W        W91283  14.804  25.185   1.226
22910W        W91284   1.261  18.082   2.848
22911W        W91285   9.305  41.836  10.542
22912W        W91286  26.988  39.033  14.943
22913W        W91287  22.722  31.000  14.345
22914W        W91288   0.279  27.461   0.858
22915W        W91289  43.951   2.467   4.649
22916W        W91290   8.353  40.971   1.868
22917W        W91291  22.641  27.529  13.354
22918W        W91292  26.538  11.754   1.378
22919W        W91293  28.952  28.040  12.381
22920W        W91294   1.960  41.859   3.169
22921W        W91295  22.097  24.021   3.335
22922W        W91296  30.416  14.306   3.341
22923W        W91297  18.648  20.712   1.422
22924W        W91298  18.089   9.655  14.900
22925W        W91299  16.714  37.445  10.890
22926W        W91300  12.645  40.471   4.790
22927W        W91301  38.072  18.090   4.233
22928W        W91302  33.916   9.321  11.031
22929W        W91303  33.036  19.556  14.017
22930W        W91304  31.055  31.558  10.441
22931W        W91305  11.736  42.316   2.796
22932W        W91306  11.626  15.120   1.435
22933W        W91307  39.817  41.840  13.528
22934W        W91308  16.571  20.623  11.059
22935W        W91309  34.873  38.503  11.572
22936W        W91310  39.012   1.362  13.508
22937W        W91311   5.747  26.077   1.393
22938W        W91312  24.191  22.106  12.008
22939W        W91313  17.085   1.763   0.423
22940W        W91314  31.921  43.380   4.218
22941W        W91315  12.274  37.060   0.815
22942W        W91316  16.594  13.105  10.582
22943W        W91317  24.682  14.650  13.429
22944W        W91318   1.751   2.878   3.855
22945W        W91319  25.069  29.658  12.989
22946W        W91320   9.260  17.152   2.410
22947W        W91321   8.751  37.948  10.968
22948W        W91322  10.161  18.668  13.058
22949W        W91323   1.441  25.985   1.380
22950W        W91324  38.430  17.281   3.303
22951W        W91325  21.251  33.585   0.450
22952W        W91326   4.831  21.737  11.922
22953W        W91327  12.287   9.393  11.456
22954W        W91328  25.707  41.866   2.390
22955W        W91329  40.427  32.402   4.652
22956W        W91330  29.607  23.205   0.360
22957W        W91331   9.714   7.338  14.490
22958W        W91332  30.992  36.468  13.449
22959W        W91333  24.520  38.355  14.454
22960W        W91334  11.830  24.065  10.427
22961W        W91335  30.574  26.594  13.909
22962W        W91336  15.094  28.153   2.208
22963W        W91337   5.247  27.137   0.349
22964W        W91338  10.253  32.621   3.811
22965W        W91339  36.372  15.698  12.528
22966W        W91340  18.269  24.977   0.432
22967W        W91341  33.504  38.465  13.881
22968W        W91342  18.121   8.659   0.827
22969W        W91343  38.448   6.196   5.630
22970W        W91344  38.367  44.953   2.893
22971W        W91345   2.354  41.469   2.771
22972W        W91346  31.103  35.083  11.565
22973W        W91347  18.271   8.246  14.293
22974W        W91348  17.254  19.092   1.804
22975W        W91349  19.113  15.248  11.497
22976W        W91350  38.381  14.798   4.233
22977W        W91351  31.974   5.906  13.377
22978W        W91352  14.184  11.131   3.169
22979W        W91353  39.912  11.338   1.795
22980W        W91354   6.777  10.853  14.288
22981W        W91355   4.245  44.933  14.504
22982W        W91356  21.660  37.401   9.616
22983W        W91357  38.419  43.485   2.723
22984W        W91358  38.848   8.713   2.803
22985W        W91359   2.333  36.018  13.478
22986W        W91360  38.514  14.770  14.878
22987W        W91361   7.678  15.784   5.197
22988W        W91362  41.375   8.251   2.398
22989W        W91363   9.351   2.885   3.797
22990W        W91364  15.123   3.872   2.855
22991W        W91365  40.318  43.822   2.887
22992W        W91366  43.970  20.142   3.364
22993W        W91367  29.952  38.058   1.387
22994W        W91368  25.652  25.538  10.950
22995W        W91369   1.928   7.688   2.891
22996W        W91370   9.167  29.139   2.300
22997W        W91371  33.034  14.693  13.012
22998W        W91372  35.585   7.194  12.961
22999W        W91373  41.867  13.122  14.507
23000W        W91374  31.525  43.388   2.713
23001W        W91375  28.576  25.671   1.923
23002W        W91376  32.898  14.628   2.390
23003W        W91377  44.485  26.508   5.300
23004W        W91378  37.887  10.357  13.464
23005W        W91379  44.297  19.634  14.878
23006W        W91380  31.144  10.726   0.428
23007W        W91381  39.441   2.470  14.498
23008W        W91382  16.590  14.739  11.580
23009W        W91383  34.918   8.716   2.296
23010W        W91384   1.465   8.683  13.408
23011W        W91385  13.730  36.884  13.950
23012W        W91386  19.723  22.069   2.317
23013W        W91387  20.724  31.961   0.254
23014W        W91388   6.213  25.119  11.550
23015W        W91389   3.747  41.819  11.947
23016W        W91390  13.264  25.031   3.699
23017W        W91391  24.565   3.955   2.877
23018W        W91392  34.448  26.562   3.231
23019W        W91393   2.885   9.777   1.801
23020W        W91394  17.218  30.960   4.664
23021W        W91395  27.618  35.870  13.990
23022W        W91396  20.045   7.186   1.809
23023W        W91397  38.887  10.201   5.089
23024W        W91398   6.741  11.781   3.165
23025W        W91399  32.416  33.443  10.424
23026W        W91400  24.024  12.807   4.280
23027W        W91401  38.880   2.356  10.940
23028W        W91402   5.816  18.116   3.786
23029W        W91403   1.254  31.116   3.186
23030W        W91404  25.661  24.184  14.453
23031W        W91405  23.179  30.132  12.959
23032W        W91406  18.252  22.553  11.508
23033W        W91407  43.000  30.518  13.039
23034W        W91408  16.656  33.438  10.618
23035W        W91409   6.871  37.903   0.484
23036W        W91410  24.042  39.368   2.385
23037W        W91411  16.084   5.928  13.517
23038W        W91412   3.912  14.729   4.351
23039W        W91413  10.719   8.764  12.976
23040W        W91414  42.835  41.865   3.194
23041W        W91415  12.724   1.331  14.371
23042W        W91416  18.275  21.090   5.246
23043W        W91417   0.934  33.069  12.460
23044W        W91418  24.559  26.491  12.892
23045W        W91419  30.158  23.671  11.036
23046W        W91420  22.701   8.827  11.378
23047W        W91421  44.404   9.160   0.830
23048W        W91422  43.786   6.293  11.603
23049W        W91423  30.932   7.321   3.382
23050W        W91424  16.263  23.495  13.831
23051W        W91425  29.018  23.218  11.920
23052W        W91426   5.933  22.660   0.424
23053W        W91427  44.828  26.500   3.802
23054W        W91428  19.658   5.367  14.922
23055W        W91429  22.088  26.508  14.898
23056W        W91430   2.236  35.854   2.362
23057W        W91431  31.420   1.737   0.863
23058W        W91432  33.409   2.328   1.255
23059W        W91433   1.297  35.435  11.876
23060W        W91434  22.054   7.898  12.840
23061W        W91435  42.421   9.262  11.934
23062W        W91436  27.526   3.323   2.704
23063W        W91437  18.727  13.706  11.510
23064W        W91438   4.251  19.670   4.314
23065W        W91439  27.655   2.874   0.318
23066W        W91440  44.846  10.278  11.467
23067W        W91441  30.434   4.233   0.334
23068W        W91442  10.734   9.769   0.404
23069W        W91443  23.992  21.597   2.902
23070W        W91444   9.890   0.403  13.407
23071W        W91445  37.939  42.406   2.408
23072W        W91446  10.359  35.988   4.717
23073W        W91447  43.342   7.737  14.295
23074W        W91448  27.959  21.094  11.029
23075W        W91449  14.261  27.962   5.149
23076W        W91450   4.346  44.871   0.332
23077W        W91451  41.477  20.766  14.461
23078W        W91452  11.149  15.188   4.679
23079W        W91453  23.632  34.058  11.409
23080W        W91454  31.450  20.097  10.580
23081W        W91455  44.998   6.764   2.203
23082W        W91456   1.354  33.063  13.052
23083W        W91457  22.736  33.587  14.831
23084W        W91458   5.783   5.317  12.472
23085W        W91459  34.965  11.169  12.977
23086W        W91460  13.236  18.068  14.862
23087W        W91461  36.463  40.809   0.316
23088W        W91462  16.248   0.425   1.390
23089W        W91463  12.244   4.900   2.248
23090W        W91464  18.232   4.363  12.930
23091W        W91465  44.450  29.493  14.969
23092W        W91466   3.917   5.314  14.312
23093W        W91467  29.603  44.000  14.992
23094W        W91468  29.025   0.278  10.914
23095W        W91469  21.031   1.306  10.953
23096W        W91470   7.747   7.297  12.381
23097W        W91471  43.441  44.472   0.851
23098W        W91472  15.155  18.236  11.973
23099W        W91473  25.105  36.487  10.408
23100W        W91474  33.926  26.031   1.321
23101W        W91475  19.261   6.755  10.470
23102W        W91476  25.106  44.309   4.658
23103W        W91477  28.443   6.359  13.422
23104W        W91478  44.289  13.644  10.406
23105W        W91479  44.000  35.366   4.334
23106W        W91480   9.865  10.732   0.822
23107W        W91481  41.803  42.340   3.294
23108W        W91482   3.371  24.707   2.288
23109W        W91483  32.464  18.576  11.453
23110W        W91484   0.434  38.941  13.385
23111W        W91485  30.029  18.185   1.316
23112W        W91486  24.074   2.443   0.757
23113W        W91487  40.508   1.371   2.758
23114W        W91488  16.753   4.859  10.452
23115W        W91489   8.367  33.519  12.979
23116W        W91490  36.404  18.195   4.646
23117W        W91491   7.377  29.061  11.110
23118W        W91492  10.260  33.040  10.068
23119W        W91493  27.182  29.629  14.332
23120W        W91494  31.411  17.634   0.947
23121W        W91495   6.778  32.468  14.794
23122W        W91496  29.175  38.938  14.971
23123W        W91497  22.192  21.658  12.097
23124W        W91498  15.736  25.647  11.993
23125W        W91499  21.230  32.471  14.409
23126W        W91500  21.228  17.078  12.499
23127W        W91501  22.211  26.577  12.894
23128W        W91502  14.689  39.894  14.937
23129W        W91503   0.475  43.812   3.798
23130W        W91504   8.873  44.928  13.033
23131W        W91505  21.561   3.419  11.542
23132W        W91506  32.547   2.388   3.234
23133W        W91507  40.494  42.955  10.475
23134W        W91508  19.692  14.094   2.792
23135W        W91509   6.680  17.624  10.451
23136W        W91510   7.829   1.320   2.720
23137W        W91511  39.534   7.309   5.208
23138W        W91512   3.742  36.394  12.042
23139W        W91513   7.675  42.459  12.553
23140W        W91514   1.978   4.945  11.526
23141W        W91515  35.870  26.488  14.885
23142W        W91516  37.575  42.492   0.957
23143W        W91517   2.320  12.668  13.370
23144W        W91518  25.177   3.731   3.856
23145W        W91519   5.824  31.030  12.561
23146W        W91520   2.357  15.770  11.982
23147W        W91521   8.827  44.820   0.356
23148W        W91522  21.095   1.790  14.464
23149W        W91523  11.760  19.606   4.831
23150W        W91524  16.136   7.729  11.595
23151W        W91525  25.689  12.842   1.774
23152W        W91526  21.738  26.651   3.212
23153W        W91527  19.569  25.486   0.379
23154W        W91528   8.352  34.435  12.952
23155W        W91529  31.564  18.141   4.164
23156W        W91530  44.423  23.032   3.864
23157W        W91531   9.280   1.974   4.208
23158W        W91532  39.853  13.192  12.079
23159W        W91533  36.489   9.849  13.387
23160W        W91534  26.601  38.050  12.833
23161W        W91535  37.430  41.381   2.838
23162W        W91536   7.808   2.305  11.403
23163W        W91537  43.924  23.990  13.337
23164W        W91538  34.869  30.080  14.872
23165W        W91539  38.880  44.958  13.057
23166W        W91540  43.373  24.537  10.566
23167W        W91541  31.503  28.633  12.039
23168W        W91542  32.009  12.841  13.825
23169W        W91543   3.738  11.808   4.293
23170W        W91544   4.339  15.819  10.033
23171W        W91545  14.792  28.664   1.444
23172W        W91546   6.325   1.956  14.847
23173W        W91547   8.160  25.973  14.377
23174W        W91548   7.264   9.769   0.260
23175W        W91549   4.914  34.393   1.808
23176W        W91550  30.487   8.661   1.241
23177W        W91551  44.466   2.820  12.524
23178W        W91552   2.429  20.639  10.538
23179W        W91553  12.295  21.719   0.791
23180W        W91554  31.587  19.181   2.790
23181W        W91555  20.672  24.189   2.340
23182W        W91556  32.476   0.436  14.500
23183W        W91557  34.891  23.508  13.345
23184W        W91558  18.703  24.660  11.886
23185W        W91559  38.985  44.311  10.506
23186W        W91560   8.713   7.675   4.715
23187W        W91561  24.604  17.796   2.196
23188W        W91562  18.783  23.588  14.003
23189W        W91563   3.834  20.080  12.500
23190W        W91564   6.205  31.596  13.971
23191W        W91565  25.579  27.020  14.014
23192W        W91566  41.038  12.689   1.724
23193W        W91567  32.139  35.457   4.762
23194W        W91568   3.264  39.920   2.782
23195W        W91569  33.952  16.237  13.814
23196W        W91570  21.125  38.526   4.714
23197W        W91571  36.455  13.677   0.821
23198W        W91572  31.028  23.085  14.793
23199W        W91573  25.078  38.954  11.533
23200W        W91574  41.830  32.121   3.268
23201W        W91575  19.068  23.190   0.408
23202W        W91576   9.222  29.097   1.343
23203W        W91577  25.156  11.223  14.304
23204W        W91578   9.678   3.398  11.101
23205W        W91579   1.784  32.396   3.334
23206W        W91580  36.942  24.693  10.503
23207W        W91581   9.351  27.194  12.464
23208W        W91582  36.500   1.373   3.687
23209W        W91583  25.679  22.007  11.964
23210W        W91584  17.574  18.636   3.751
23211W        W91585  19.121   6.917   4.705
23212W        W91586  18.700  12.793   0.351
23213W        W91587   0.989   8.669  14.898
23214W        W91588  29.468   5.704  13.918
23215W        W91589  15.635   4.255   3.218
23216W        W91590   6.742  16.744  10.463
23217W        W91591  29.455  21.127   3.632
23218W        W91592   3.453  17.296   1.410
23219W        W91593   6.721  12.635  11.425
23220W        W91594  20.131  20.222  11.082
23221W        W91595  26.692   7.815  12.578
23222W        W91596  30.420  35.969   4.144
23223W        W91597   0.392  17.685   4.144
23224W        W91598  20.029  44.301   1.320
23225W        W91599  27.970   1.877   5.093
23226W        W91600   1.421  38.470  12.421
23227W        W91601  17.748  35.882   2.832
23228W        W91602   6.853  30.012  10.062
23229W        W91603  27.070   6.902  11.505
23230W        W91604  44.355  11.156  14.948
23231W        W91605  13.651   9.394   0.764
23232W        W91606   7.766  10.205  10.604
23233W        W91607  30.495  30.640   4.664
23234W        W91608   3.373  11.191  14.760
23235W        W91609  17.134  26.649   5.316
23236W        W91610   7.320  32.593  13.022
23237W        W91611   4.249   2.798  13.794
23238W        W91612  19.687  15.669   4.686
23239W        W91613  17.590  26.110   3.846
23240W        W91614   0.972  21.116   2.774
23241W        W91615   6.230  41.875  12.980
23242W        W91616  28.569  14.727  13.385
23243W        W91617  27.680  24.025   4.626
23244W        W91618  44.358   6.719   3.291
23245W        W91619  34.086  35.487   0.326
23246W        W91620  37.456   9.669   9.554
23247W        W91621  19.568  35.418   0.367
23248W        W91622  32.018   6.697   4.129
23249W        W91623   7.891  11.221  14.385
23250W        W91624  30.556  25.708   0.857
23251W        W91625  23.144  29.508  13.328
23252W        W91626   0.822  40.043  12.061
23253W        W91627  14.138  38.043  10.441
23254W        W91628  38.844  24.601  12.576
23255W        W91629  38.440  12.727  13.870
23256W        W91630   7.887  30.584   5.716
23257W        W91631  13.319   5.808   2.180
23258W        W91632  40.378  17.707  11.118
23259W        W91633  35.990  40.441   3.280
23260W        W91634  11.126  34.547  10.930
23261W        W91635  16.592  32.494  13.050
23262W        W91636  37.953  14.163   2.877
23263W        W91637  42.890   9.818  11.056
23264W        W91638  33.045  29.998   1.405
23265W        W91639   3.243  24.005   5.169
23266W        W91640  28.068  31.472  14.965
23267W        W91641  41.021  31.050   3.820
23268W        W91642  33.465  24.720   1.847
23269W        W91643  33.527   5.377   3.697
23270W        W91644  42.877  16.627   0.895
23271W        W91645  30.973  41.829   4.649
23272W        W91646  39.402  23.725  10.606
23273W        W91647  29.995  40.852   0.387
23274W        W91648  39.928  38.030  12.873
23275W        W91649   8.178  13.156  13.395
23276W        W91650  32.996  16.686  10.565
23277W        W91651  30.502  16.570   3.175
23278W        W91652   1.390   2.945  11.423
23279W        W91653   3.826  22.597  14.506
23280W        W91654  26.623  36.472   0.460
23281W        W91655  35.598  10.849  13.866
23282W        W91656  39.353   0.750   3.649
23283W        W91657   0.257  19.661  14.495
23284W        W91658  11.821  44.452   2.843
23285W        W91659  30.435  11.803   4.162
23286W        W91660  31.041   8.213   3.850
23287W        W91661  15.092  33.085  10.584
23288W        W91662  10.335   5.435   3.152
23289W        W91663  43.484  43.010  10.888
23290W        W91664   5.285  39.021  10.520
23291W        W91665  17.572  21.696  11.538
23292W        W91666  41.019  28.557  12.967
23293W        W91667  18.726   7.256  14.772
23294W        W91668  11.195  27.631  14.347
23295W        W91669  14.733  35.862  14.768
23296W        W91670   6.201  35.076  14.782
23297W        W91671  15.649   7.742   5.294
23298W        W91672  24.194   2.746   4.122
23299W        W91673  16.216   2.763  11.571
23300W        W91674  35.972   5.230   4.683
23301W        W91675   5.349  20.102   3.808
23302W        W91676  12.810  19.683  11.117
23303W        W91677  10.859   9.194  11.609
23304W        W91678  37.509  26.980  12.567
23305W        W91679  40.909  16.104  11.544
23306W        W91680   1.913  43.516  13.868
23307W        W91681  24.097  14.138  14.349
23308W        W91682  23.130  41.422   2.223
23309W        W91683  33.495  22.545   4.190
23310W        W91684  26.465  10.344   5.312
23311W        W91685  36.370  44.413   4.600
23312W        W91686  23.583  29.506  14.493
23313W        W91687  17.792  39.389  14.981
23314W        W91688  35.872  15.158   4.260
23315W        W91689   8.844  39.441  12.985
23316W        W91690   8.823  27.549   1.275
23317W        W91691  37.470  13.646  14.944
23318W        W91692  12.756  39.543  11.434
23319W        W91693  18.080  28.664  10.990
23320W        W91694  33.076  38.865   2.376
23321W        W91695  37.881  25.053  13.969
23322W        W91696  19.071  28.092   1.404
23323W        W91697  26.681   4.794   1.387
23324W        W91698   4.778  34.001  11.024
23325W        W91699  14.144   9.302   3.677
23326W        W91700   2.351  31.017   2.255
23327W        W91701  44.360   0.363  10.605
23328W        W91702   1.261  11.789  12.013
23329W        W91703  18.564  29.498   2.231
23330W        W91704  12.207  17.601   0.956
23331W        W91705   9.291  13.342   1.934
23332W        W91706  44.821  11.172  14.354
23333W        W91707   7.708  27.998  14.869
23334W        W91708  44.901  26.034  11.510
23335W        W91709  33.471   8.723  10.123
23336W        W91710  12.803  20.662  12.401
23337W        W91711  14.599  42.787  13.984
23338W        W91712  37.856   2.248   1.261
23339W        W91713  41.461  12.291   4.765
23340W        W91714  41.827  13.161   3.741
23341W        W91715   8.683  30.988   1.908
23342W        W91716  22.508   6.808  12.434
23343W        W91717  18.650  11.297   1.823
23344W        W91718  32.977  28.008   2.328
23345W        W91719  27.983  28.935   5.256
23346W        W91720  34.413  38.867   2.199
23347W        W91721  32.100   8.683  13.817
23348W        W91722  29.007  43.003   1.770
23349W        W91723  37.907  44.900  12.928
23350W        W91724  32.606  28.621   1.757
23351W        W91725  41.791  32.592  11.527
23352W        W91726  25.043  22.587   3.327
23353W        W91727  21.169   4.722   0.469
23354W        W91728  19.121  43.426  12.929
23355W        W91729  16.657  24.629  13.969
23356W        W91730  40.020  25.644  14.910
23357W        W91731  27.564  43.286   2.369
23358W        W91732  27.640   1.785  14.352
23359W        W91733  24.636  15.091   0.350
23360W        W91734  21.552  17.610  11.947
23361W        W91735   3.251  38.862   3.259
23362W        W91736  22.016  12.651  14.892
23363W        W91737   2.289  15.619  10.628
23364W        W91738  36.953  32.461  14.760
23365W        W91739  13.792  28.015  12.954
23366W        W91740  10.769  21.596  10.633
23367W        W91741   5.823  15.136   4.652
23368W        W91742  24.193  28.004   4.698
23369W        W91743   9.223  20.060  11.991
23370W        W91744  27.026  25.568   2.247
23371W        W91745  29.020  27.545  13.327
23372W        W91746  13.739   0.784   0.304
23373W        W91747  32.065  20.585  13.941
23374W        W91748  43.823  38.467   0.274
23375W        W91749  42.509  36.950   1.370
23376W        W91750  11.708  26.597  12.485
23377W        W91751  28.077  38.947  10.468
23378W        W91752  29.520  17.164   2.242
23379W        W91753   9.763  36.523   3.765
23380W        W91754   5.260  29.439  13.460
23381W        W91755  13.736  20.142   3.639
23382W        W91756  13.316  14.285  13.348
23383W        W91757  12.202  22.136  13.503
23384W        W91758  12.613  43.972   1.410
23385W        W91759  33.498  44.861  10.021
23386W        W91760  19.578  44.369  12.871
23387W        W91761   2.913  24.110   1.308
23388W        W91762  18.261  30.460   1.896
23389W        W91763  31.928  16.670   9.984
23390W        W91764   8.354  41.418  13.522
23391W        W91765  23.014  33.874   0.860
23392W        W91766   1.425   4.844  10.579
23393W        W91767  23.984  34.490  10.633
23394W        W91768  20.711  25.660  12.945
23395W        W91769  18.279  37.507   5.267
23396W        W91770  28.127   0.340  10.462
23397W        W91771  44.810   5.893  10.904
23398W        W91772  15.646  31.553  11.446
23399W        W91773  44.934  41.347  13.961
23400W        W91774  35.438  25.206  12.945
23401W        W91775  25.100  15.198  10.145
23402W        W91776   8.827  15.662   2.711
23403W        W91777   2.230   7.906  11.107
23404W        W91778  22.037   1.316  13.838
23405W        W91779  26.123  11.213   4.697
23406W        W91780   4.258  26.957  12.890
23407W        W91781  40.456  18.737   3.726
23408W        W91782  11.676  28.010  12.968
23409W        W91783  30.920  39.892  10.568
23410W        W91784  13.794   7.709  10.915
23411W        W91785  37.875  38.488  11.890
23412W        W91786  13.293   1.273   1.749
23413W        W91787  10.338   9.269   2.781
23414W        W91788  38.052  10.798   4.124
23415W        W91789   0.891  28.932  14.293
23416W        W91790  39.368  42.931   2.245
23417W        W91791  22.032  29.440   5.217
23418W        W91792  38.370  25.565  12.422
23419W        W91793  43.423  26.180  14.477
23420W        W91794  11.697  37.433   1.230
23421W        W91795  26.500  13.599   4.822
23422W        W91796  12.243  14.796   1.829
23423W        W91797  31.995  26.054   3.841
23424W        W91798  43.881  42.929   3.641
23425W        W91799  34.531   6.428  10.996
23426W        W91800  23.621  36.461   0.923
23427W        W91801  36.550   3.278  13.041
23428W        W91802  14.736  34.454  14.377
23429W        W91803  10.876  27.104   4.794
23430W        W91804  17.662  32.134   5.211
23431W        W91805  44.380  11.729  10.106
23432W        W91806  18.270  10.173  13.427
23433W        W91807  38.978  17.072  10.545
23434W        W91808  29.977  40.923  12.826
23435W        W91809   3.742  27.580   4.660
23436W        W91810  17.601  44.455   2.406
23437W        W91811  14.186  31.600  14.001
23438W        W91812  28.175  23.105   0.409
23439W        W91813  19.761  21.170  11.037
23440W        W91814  11.670  18.226  13.521
23441W        W91815  40.520  11.668   0.812
23442W        W91816  20.624  12.612   2.303
23443W        W91817  21.666  33.886  10.997
23444W        W91818  11.354   2.344   2.216
23445W        W91819  14.588  26.650  13.978
23446W        W91820   3.319  38.971   4.298
23447W        W91821  34.117  29.660   1.362
23448W        W91822  43.340   4.293   3.634
23449W        W91823  12.832  12.129   1.273
23450W        W91824   8.372  19.724  14.894
23451W        W91825  24.515  10.711   2.875
23452W        W91826  25.014  14.112  12.394
23453W        W91827  36.889  23.070   1.310
23454W        W91828  22.681  29.475   2.847
23455W        W91829   0.354   9.833  11.995
23456W        W91830   0.315  22.111   3.265
23457W        W91831  26.982   2.801  10.606
23458W        W91832   9.152  27.633   4.138
23459W        W91833  17.220  43.002   0.300
23460W        W91834   6.864  32.481  14.443
23461W        W91835  29.993  27.627  14.029
23462W        W91836  16.702  39.926   4.664
23463W        W91837  23.708  17.063  11.858
23464W        W91838  38.914   1.908  12.002
23465W        W91839  43.801  21.032   1.283
23466W        W91840  26.027  40.920   0.356
23467W        W91841  40.528  34.049  13.365
23468W        W91842   2.738  23.672   0.380
23469W        W91843  26.041   9.693  14.890
23470W        W91844  17.582  16.607  12.826
23471W        W91845   1.778  14.192   2.872
23472W        W91846   7.855   1.776   4.154
23473W        W91847  33.084   6.370   1.841
23474W        W91848  28.625  34.041  11.919
23475W        W91849   8.739  38.364  13.317
23476W        W91850   8.799   3.453   0.297
23477W        W91851  24.096   9.281  13.490
23478W        W91852  12.326  10.163   4.749
23479W        W91853  38.977  27.059   2.705
23480W        W91854   9.881  25.712  13.800
23481W        W91855  11.317  23.102  11.030
23482W        W91856  30.125   0.386   3.644
23483W        W91857  34.935  30.024  12.927
23484W        W91858   3.873  14.176  11.588
23485W        W91859  36.395  41.954   2.277
23486W        W91860  15.768   8.370  11.552
23487W        W91861  41.019  31.904  12.350
23488W        W91862  18.729  15.622   4.328
23489W        W91863   5.707  18.068   3.223
23490W        W91864  39.420  19.605  12.944
23491W        W91865  34.451   4.423  12.846
23492W        W91866  21.134  32.629  14.773
23493W        W91867   9.762  11.648  14.918
23494W        W91868  11.188  18.586  13.939
23495W        W91869   7.878  34.100  14.986
23496W        W91870  23.057  26.587   1.827
23497W        W91871   3.410  18.621  11.985
23498W        W91872   2.885  38.541  14.507
23499W        W91873  39.834   4.341  11.550
23500W        W91874  41.879   3.825   4.243
23501W        W91875  16.728  44.917   0.808
23502W        W91876  35.038  32.468  13.515
23503W        W91877  27.989  15.201  10.420
23504W        W91878  29.953  13.668   1.764
23505W        W91879  14.608  12.204   0.805
23506W        W91880  15.272  44.946   3.284
23507W        W91881  31.961   8.840  12.512
23508W        W91882  24.211   9.377   4.272
23509W        W91883  34.976  22.693   1.900
23510W        W91884  36.865  35.950   3.272
23511W        W91885   7.212  34.031  13.465
23512W        W91886  30.079  39.886  11.568
23513W        W91887   9.180   8.695  12.484
23514W        W91888  28.638  19.172   4.839
23515W        W91889  16.774  15.615   2.353
23516W        W91890  20.618  35.935   1.846
23517W        W91891  37.366   4.332   4.284
23518W        W91892  43.378  14.600  12.538
23519W        W91893  21.653  28.645   4.802
23520W        W91894  14.285  23.194  14.941
23521W        W91895  11.311  25.016   3.867
23522W        W91896   0.908   1.465  11.077
23523W        W91897  37.011  34.478   1.300
23524W        W91898  20.580  19.767  14.764
23525W        W91899   9.313  32.594   2.388
23526W        W91900  19.135  31.081   0.328
23527W        W91901   9.730  14.270   3.685
23528W        W91902  22.742  42.346  10.440
23529W        W91903  29.114   8.763  10.569
23530W        W91904  32.063   0.917  14.345
23531W        W91905  38.440  15.180   1.824
23532W        W91906  15.789  28.633  10.937
23533W        W91907  33.455   4.251   3.226
23534W        W91908  44.449  33.419   2.375
23535W        W91909  30.454  15.155   0.461
23536W        W91910  14.334  32.449   1.699
23537W        W91911  29.164  23.044  13.926
23538W        W91912  27.614  18.265  13.961
23539W        W91913  31.112  22.654   3.228
23540W        W91914  17.596  20.662   3.762
23541W        W91915  23.083   8.364   1.404
23542W        W91916  30.109  15.125  13.057
23543W        W91917   2.867   4.329   4.254
23544W        W91918  12.229  19.184  14.847
23545W        W91919  42.819   2.263   0.864
23546W        W91920   7.184  32.087  12.342
23547W        W91921  32.042  14.299   9.999
23548W        W91922  38.836   3.743  10.042
23549W        W91923  18.787  21.755   3.310
23550W        W91924  16.699  23.053  10.645
23551W        W91925   9.841  21.610  11.525
23552W        W91926  13.844  37.380  14.358
23553W        W91927  40.535  11.856   2.349
23554W        W91928  18.616  37.987  13.887
23555W        W91929  26.679  38.427   0.316
23556W        W91930  29.097  32.944   1.410
23557W        W91931  16.316  16.114   2.316
23558W        W91932   1.470   8.258   3.262
23559W        W91933  16.297  10.252   5.644
23560W        W91934  18.281  18.253   4.692
23561W        W91935  16.272  17.101   1.320
23562W        W91936  43.408  21.060  10.622
23563W        W91937  17.574  39.815   0.810
23564W        W91938   2.801   5.216  12.929
23565W        W91939  43.941  33.547  11.095
23566W        W91940   4.804  42.862   1.414
23567W        W91941  13.645  42.289  14.388
23568W        W91942  44.449  34.387  12.339
23569W        W91943  17.112  36.044  12.862
23570W        W91944  31.586   0.429  10.554
23571W        W91945   5.211   0.808  12.352
23572W        W91946  30.116  40.513   3.168
23573W        W91947  29.612  43.334   3.630
23574W        W91948  11.192  37.065   0.754
23575W        W91949  41.978  32.090   1.745
23576W        W91950   9.342  25.689   2.814
23577W        W91951  35.550   7.821   2.223
23578W        W91952  31.904  18.279  14.296
23579W        W91953  23.071  15.670   5.190
23580W        W91954  38.843  27.961  12.840
23581W        W91955  21.683   8.769   3.367
23582W        W91956  10.760  33.483  10.967
23583W        W91957  10.808  36.961   2.283
23584W        W91958  40.546  17.642  14.919
23585W        W91959  31.573  14.257  13.528
23586W        W91960  22.068  14.751   4.622
23587W        W91961  36.957   4.881   4.303
23588W        W91962  28.052  10.858   3.695
23589W        W91963   6.322  42.025   4.801
23590W        W91964  29.485  36.061  11.556
23591W        W91965  21.745  20.762  13.976
23592W        W91966  18.292   4.370   4.241
23593W        W91967  18.722   6.413   4.205
23594W        W91968  13.147   9.815   2.872
23595W        W91969  39.015  10.184   3.380
23596W        W91970  10.221   8.667   3.268
23597W        W91971  24.569  32.485  13.418
23598W        W91972  18.191  15.131   4.279
23599W        W91973   3.749  29.614  12.880
23600W        W91974  20.750  29.946  12.526
23601W        W91975  38.514  24.010   2.898
23602W        W91976  39.419  20.156  12.007
23603W        W91977   7.754  38.503   0.419
23604W        W91978  31.634  11.254  14.352
23605W        W91979  31.050  28.145  13.323
23606W        W91980  18.665   5.411   4.819
23607W        W91981   7.692  16.271   4.683
23608W        W91982  24.638  22.548   0.424
23609W        W91983   8.842  13.627   2.773
23610W        W91984  18.087   6.333  13.480
23611W        W91985  41.897  31.573  11.081
23612W        W91986  36.886  37.395  10.986
23613W        W91987  18.265  12.687   3.652
23614W        W91988  44.414  39.461  10.089
23615W        W91989   0.387  35.895   3.810
23616W        W91990  28.055  15.785  13.533
23617W        W91991  19.685  13.661  11.088
23618W        W91992  17.243  10.730   3.692
23619W        W91993  12.620  39.441  14.488
23620W        W91994  18.092  38.855  13.370
23621W        W91995  11.722  43.389  12.456
23622W        W91996  44.323  20.108   4.607
23623W        W91997  41.507  13.732  12.554
23624W        W91998  30.486  21.711  11.372
23625W        W91999  20.762  17.092   1.361
23626W        W92000  26.500  24.204  10.640
23627W        W92001   3.843  44.846   1.747
23628W        W92002  36.477  27.598   4.350
23629W        W92003  11.861   6.790  13.984
23630W        W92004  42.470  41.886  12.970
23631W        W92005  18.670  44.370  12.407
23632W        W92006   7.311  30.075   0.804
23633W        W92007  42.440  28.929  11.544
23634W        W92008   3.929  15.109  10.449
23635W        W92009  43.866  33.396  12.457
23636W        W92010   5.870   4.901   9.964
23637W        W92011  29.468  25.537   2.682
23638W        W92012  37.563  10.256  10.466
23639W        W92013   6.742  30.976   2.363
23640W        W92014  22.529   5.707  13.523
23641W        W92015  27.660   2.771  14.388
23642W        W92016  15.702  39.946   1.449
23643W        W92017  27.147  27.608  13.487
23644W        W92018   2.854  28.059  14.428
23645W        W92019  20.101   9.749  13.799
23646W        W92020  22.126  42.491  11.434
23647W        W92021   6.306  44.947   2.211
23648W        W92022  19.244  41.506   3.183
23649W        W92023  38.876  11.227  11.503
23650W        W92024  17.172  34.029   4.194
23651W        W92025  38.558  42.521  11.066
23652W        W92026  44.348  17.706   2.735
23653W        W92027  10.325   8.371  14.432
23654W        W92028   6.760   0.847   1.724
23655W        W92029  19.711  35.964  13.952
23656W        W92030   6.365  12.614   3.638
23657W        W92031  26.667   6.337   2.744
23658W        W92032  38.992  11.275   9.974
23659W        W92033  15.167   3.915   2.274
23660W        W92034  41.888  22.202  10.483
23661W        W92035  25.589  41.409  13.914
23662W        W92036  24.112  31.079   4.175
23663W        W92037  41.342   6.750  11.380
23664W        W92038  35.028  17.781  10.910
23665W        W92039  35.925  16.249  12.867
23666W        W92040  38.962   2.280   3.243
23667W        W92041  23.556   6.412  12.866
23668W        W92042  42.976  28.472   4.245
23669W        W92043   5.916  17.639   3.862
23670W        W92044  21.094  27.505   0.813
23671W        W92045   4.731  37.425   4.802
23672W        W92046  22.011  32.078   4.255
23673W        W92047   6.359   4.848  12.573
23674W        W92048  36.350  13.216   0.303
23675W        W92049  20.540  27.578   4.697
23676W        W92050  41.042  32.435  12.405
23677W        W92051  27.552  13.659  12.052
23678W        W92052  42.808  37.837   2.807
23679W        W92053  20.743  44.824  13.924
23680W        W92054  27.192  15.165   0.335
23681W        W92055  42.418  25.589  12.074
23682W        W92056  10.353   7.851   3.637
23683W        W92057   1.747  25.044   0.473
23684W        W92058   8.232   3.936  13.908
23685W        W92059  23.189  28.619   4.791
23686W        W92060  35.542  33.548  13.330
23687W        W92061  28.548  28.974  10.419
23688W        W92062  38.012  22.621   1.248
23689W        W92063  42.931  20.682   1.396
23690W        W92064  10.673   0.346  14.770
23691W        W92065  11.778  20.580  13.961
23692W        W92066  31.111   0.919  14.428
23693W        W92067   0.800  15.596   5.243
23694W        W92068  42.846  43.418  14.961
23695W        W92069  34.473  17.597   4.253
23696W        W92070  36.379   3.828  14.875
23697W        W92071  11.131  40.335   1.283
23698W        W92072  34.984  34.484  11.435
23699W        W92073   3.430   6.422  10.986
23700W        W92074   4.341  43.501  11.376
23701W        W92075   6.900  43.819   1.365
23702W        W92076  18.703  38.941  13.381
23703W        W92077  21.546   9.352  14.816
23704W        W92078  40.914  22.151  14.423
23705W        W92079  19.252   3.458   1.736
23706W        W92080  17.159  43.333   0.914
23707W        W92081  33.081  25.119   1.395
23708W        W92082  17.781  14.658  13.833
23709W        W92083  36.059   1.331   0.404
23710W        W92084  19.676   7.185   2.828
23711W        W92085  28.607   4.259   4.805
23712W        W92086   6.326   7.301  11.400
23713W        W92087   0.446  22.548  12.070
23714W        W92088  14.254   2.247   2.705
23715W        W92089   7.318  33.624   1.865
23716W        W92090   0.785  25.495  10.611
23717W        W92091  43.478  32.028  10.545
23718W        W92092   6.242  12.132   1.302
23719W        W92093   1.946  14.104   4.131
23720W        W92094   0.255  21.054   2.339
23721W        W92095  32.093  34.540  13.317
23722W        W92096   9.686  41.536  10.563
23723W        W92097  15.108   5.711  10.900
23724W        W92098  26.047  22.604   2.312
23725W        W92099  33.914   2.906  13.017
23726W        W92100  25.637  36.018   3.272
23727W        W92101   5.710  11.307  10.421
23728W        W92102  37.571  10.340   0.809
23729W        W92103   0.964  26.531   0.790
23730W        W92104  32.457   0.980   2.236
23731W        W92105   6.379  18.283  12.497
23732W        W92106  42.799  36.077   0.929
23733W        W92107   1.377  26.648   4.128
23734W        W92108  27.478  30.552  11.557
23735W        W92109  19.175  11.780  11.577
23736W        W92110  37.341   6.400   3.859
23737W        W92111  15.674  19.704  10.076
23738W        W92112   4.912  22.044   1.820
23739W        W92113  24.164  43.364  13.981
23740W        W92114  34.880  15.234  13.879
23741W        W92115   3.845  44.494  13.807
23742W        W92116   0.338  28.647   1.831
23743W        W92117  11.845  23.061   3.777
23744W        W92118  13.716  15.146   1.338
23745W        W92119   2.318  33.051   2.761
23746W        W92120  34.017  34.392   0.930
23747W        W92121  27.445   1.769  13.541
23748W        W92122   5.243   1.744  13.955
23749W        W92123  12.206  12.817  12.934
23750W        W92124  23.629  30.500   0.312
23751W        W92125   7.315  31.506  10.041
23752W        W92126  26.120  30.009   1.336
23753W        W92127  20.574  42.872   1.857
23754W        W92128  39.938  25.105   2.371
23755W        W92129  40.974  42.466   0.838
23756W        W92130  36.347  36.088  13.399
23757W        W92131   5.314  44.969  14.840
23758W        W92132   0.275  33.561  14.833
23759W        W92133   0.933   7.886  11.390
23760W        W92134  29.666  15.683  11.375
23761W        W92135  15.680  31.092  13.433
23762W        W92136   7.682  24.556   1.742
23763W        W92137  29.009  16.600  11.947
23764W        W92138   3.442  20.638  12.371
23765W        W92139  33.536  18.090   2.178
23766W        W92140  16.753  28.964   1.915
23767W        W92141  15.668  12.251  12.366
23768W        W92142  11.251  11.846   2.850
23769W        W92143   8.781  14.762  13.435
23770W        W92144   8.864  10.641   0.730
23771W        W92145  23.559   8.301   4.684
23772W        W92146   0.758  10.225  11.566
23773W        W92147  38.992  11.778  12.519
23774W        W92148  33.562  34.487   4.289
23775W        W92149  37.424  34.523  12.491
23776W        W92150   6.266  43.910   3.206
23777W        W92151   9.777  14.712   1.232
23778W        W92152  16.746  43.955  14.950
23779W        W92153  41.399  24.173   1.846
23780W        W92154  12.205  13.282  13.314
23781W        W92155   2.372  22.647  12.953
23782W        W92156  38.970  38.529  11.612
23783W        W92157  38.876   3.765   2.216
23784W        W92158  37.964  12.346  10.622
23785W        W92159  40.938  41.318  12.875
23786W        W92160  15.259   9.218   1.334
23787W        W92161  35.878  17.670  13.430
23788W        W92162   7.879  26.587  12.980
23789W        W92163  14.654  24.695  12.371
23790W        W92164  21.541   6.808   3.158
23791W        W92165   5.822  34.994   1.262
23792W        W92166  12.802  35.576   0.801
23793W        W92167  18.690  12.209  12.041
23794W        W92168   6.315  27.560   3.747
23795W        W92169   4.896  21.588  10.514
23796W        W92170  32.052  28.174  14.787
23797W        W92171  42.951  17.567  13.520
23798W        W92172  33.086   5.325   3.753
23799W        W92173  22.546  14.684  11.556
23800W        W92174   4.204   2.721   4.199
23801W        W92175  11.335  37.035  13.498
23802W        W92176  19.158  38.992   4.736
23803W        W92177  22.242   4.235  11.901
23804W        W92178  23.605   5.302  10.583
23805W        W92179   2.853   1.831   2.886
23806W        W92180  31.483   9.817  13.442
23807W        W92181  21.065  32.044   4.661
23808W        W92182  25.996  14.154   2.863
23809W        W92183  15.139  28.617  14.008
23810W        W92184  11.195  24.482  12.534
23811W        W92185  18.726  26.701  13.836
23812W        W92186   1.347  13.774  13.937
23813W        W92187  38.366  34.039   1.909
23814W        W92188  20.235   1.882   2.713
23815W        W92189  34.108  34.050  14.894
23816W        W92190  32.974  41.481  11.497
23817W        W92191  28.944  27.665   2.677
23818W        W92192   1.417  35.007  14.287
23819W        W92193   2.420  16.291   2.245
23820W        W92194  15.250  25.130   1.400
23821W        W92195   9.713   6.418  10.572
23822W        W92196  13.198  39.014   4.261
23823W        W92197  14.131  16.299   4.648
23824W        W92198  34.472  35.407  14.381
23825W        W92199   0.439   0.816  13.928
23826W        W92200  21.191  28.168   3.703
23827W        W92201   0.923  11.359  10.633
23828W        W92202  24.096  36.860  10.494
23829W        W92203   0.278  22.591   4.265
23830W        W92204  10.869  33.113   2.808
23831W        W92205  43.278  36.945  11.573
23832W        W92206  43.928   0.471  13.049
23833W        W92207  44.487   5.803   1.376
23834W        W92208  27.146  43.435  12.489
23835W        W92209  44.324  38.511   3.830
23836W        W92210  19.771  26.150  10.957
23837W        W92211  10.347   6.202   5.168
23838W        W92212  11.670  30.052  12.566
23839W        W92213   4.720  41.896  11.416
23840W        W92214  24.202  18.647   2.857
23841W        W92215  31.434  15.144  12.025
23842W        W92216  42.973   8.188  11.441
23843W        W92217  29.952   8.763   0.346
23844W        W92218  44.901  23.203   4.630
23845W        W92219  21.703  37.404  10.057
23846W        W92220  11.369   3.327   1.394
23847W        W92221  35.592  21.062   4.630
23848W        W92222   1.927   5.834   2.221
23849W        W92223  38.457  44.004  12.353
23850W        W92224  13.184   6.809   3.711
23851W        W92225  18.737  13.214   2.716
23852W        W92226  43.480  26.970   2.370
23853W        W92227   3.372   7.175  13.334
23854W        W92228  28.954  25.712   0.885
23855W        W92229   1.310   3.733   2.323
23856W        W92230  29.101  39.533  11.561
23857W        W92231   6.211  12.759  10.432
23858W        W92232  39.028  34.610   4.152
23859W        W92233  15.150  41.964   4.348
23860W        W92234  34.552  30.465  11.529
23861W        W92235  43.505  35.530   3.689
23862W        W92236  16.176  21.051  14.873
23863W        W92237  41.535  29.657  11.914
23864W        W92238  29.593  39.044   5.104
23865W        W92239  35.446  21.596   2.198
23866W        W92240   7.293  31.022   4.327
23867W        W92241  38.506  26.977   0.396
23868W        W92242   9.368   4.445  13.985
23869W        W92243   7.336  41.972  14.388
23870W        W92244   9.373  29.578  10.128
23871W        W92245  18.072   8.322  11.449
23872W        W92246  17.275  39.016   4.114
23873W        W92247  14.593   7.359   2.352
23874W        W92248  20.574  20.583   1.249
23875W        W92249  39.445  34.919  11.421
23876W        W92250   8.220  33.601  13.947
23877W        W92251   3.334   3.795   2.716
23878W        W92252  21.621  12.610  12.544
23879W        W92253  29.929   0.886   3.684
23880W        W92254  26.610  21.660  11.109
23881W        W92255  12.126  32.403   3.217
23882W        W92256  16.688  12.291   3.710
23883W        W92257  36.425  37.017   0.366
23884W        W92258  36.018  32.630  10.474
23885W        W92259  23.235  20.662   0.462
23886W        W92260  13.179  22.055   4.229
23887W        W92261  13.665  23.645  12.926
23888W        W92262  28.539  21.046   2.365
23889W        W92263   3.351  22.149   1.830
23890W        W92264  10.232   8.790  13.338
23891W        W92265  36.410  35.532   0.883
23892W        W92266   5.706  25.612  14.872
23893W        W92267  41.802  36.884  10.959
23894W        W92268   3.459  31.457   0.917
23895W        W92269  35.496  18.167   1.895
23896W        W92270   4.308  27.192   1.362
23897W        W92271   9.819   2.271  13.059
23898W        W92272  12.640  22.690  13.014
23899W        W92273  23.088  10.658  13.818
23900W        W92274  27.590  30.913   0.367
23901W        W92275  12.834  28.174   3.751
23902W        W92276  42.435  38.034  12.059
23903W        W92277  33.519  36.983  11.913
23904W        W92278  38.563  24.034   0.327
23905W        W92279  30.993  40.345   3.847
23906W        W92280   0.261  32.008  10.568
23907W        W92281  19.545  29.964   3.705
23908W        W92282  34.475  28.536  12.389
23909W        W92283  29.439   5.776   0.460
23910W        W92284  42.479   0.831  12.398
23911W        W92285  43.961  19.738   1.801
23912W        W92286   8.191  26.470  10.544
23913W        W92287  34.457  17.662   0.281
23914W        W92288  35.854  30.996   0.434
23915W        W92289  43.364  31.448  13.318
23916W        W92290  38.341  33.457   4.793
23917W        W92291  43.458  40.422  11.920
23918W        W92292  19.604  18.782   3.371
23919W        W92293  42.871   4.836   3.729
23920W        W92294  27.612  17.699  13.412
23921W        W92295  17.273   5.208  14.333
23922W        W92296  31.647  16.216   2.345
23923W        W92297  31.603   0.451  13.312
23924W        W92298  37.341  44.897   4.743
23925W        W92299  39.885  23.665   1.806
23926W        W92300  42.387   6.326   4.631
23927W        W92301  29.931   3.726   4.339
23928W        W92302  38.369  30.640   3.215
23929W        W92303  44.436  36.949  12.525
23930W        W92304   1.904  20.578  12.889
23931W        W92305  35.027   7.856  14.914
23932W        W92306  23.506  38.885   2.803
23933W        W92307  27.461  20.523   4.195
23934W        W92308  21.205   5.213   4.796
23935W        W92309  39.364   5.330   3.669
23936W        W92310  16.103  36.055  10.543
23937W        W92311  13.189  20.032  10.593
23938W        W92312  15.733   9.790  14.986
23939W        W92313  22.069  42.972  11.986
23940W        W92314  34.448   0.476  11.462
23941W        W92315  24.978   2.797  14.792
23942W        W92316  42.486  30.510  12.947
23943W        W92317  19.275  29.427  11.535
23944W        W92318   6.855   7.325   4.170
23945W        W92319  31.995   2.909   2.711
23946W        W92320  22.229  32.549  10.098
23947W        W92321  38.409  35.593   2.791
23948W        W92322   6.793   0.745   0.259
23949W        W92323  32.908  26.035   4.227
23950W        W92324  14.222  16.079   0.409
23951W        W92325  23.211  12.728   0.479
23952W        W92326  36.446  22.528  14.013
23953W        W92327   2.832  13.326  13.994
23954W        W92328   5.920  24.153  13.981
23955W        W92329  33.624   4.718  12.833
23956W        W92330  37.496  31.491  14.308
23957W        W92331   9.689  22.198  11.606
23958W        W92332  20.260   4.887   0.392
23959W        W92333   4.761  15.303  13.885
23960W        W92334  12.153   4.812  10.464
23961W        W92335  29.615  14.336  13.538
23962W        W92336  13.130  19.226  11.566
23963W        W92337  21.106  11.162   4.283
23964W        W92338   8.277  44.458   4.783
23965W        W92339   0.749  37.561  12.536
23966W        W92340  33.453  20.714  12.019
23967W        W92341  24.651  31.079  11.534
23968W        W92342  31.420  12.650   2.803
23969W        W92343  14.694  29.928  14.407
23970W        W92344  24.999  44.863   4.684
23971W        W92345  20.193  41.421   2.850
23972W        W92346  20.269   2.869  11.474
23973W        W92347  14.169  36.866  13.859
23974W        W92348  13.666  21.606  11.995
23975W        W92349  42.524   9.693   0.376
23976W        W92350  18.151  32.038   2.336
23977W        W92351  41.495  43.453  13.801
23978W        W92352  13.705  15.738  10.046
23979W        W92353  11.284   7.897   4.718
23980W        W92354  37.495  15.666  10.518
23981W        W92355   8.896  25.013   0.357
23982W        W92356   3.332  32.415   3.320
23983W        W92357  29.965   2.892   1.812
23984W        W92358  21.229  24.178  10.938
23985W        W92359  37.954  13.797   4.151
23986W        W92360  11.834  33.011  14.853
23987W        W92361  43.952   9.173  12.890
23988W        W92362   3.727  37.864   2.803
23989W        W92363  26.552  26.128   0.886
23990W        W92364  30.457  39.473  11.032
23991W        W92365   9.885  42.355  10.982
23992W        W92366  28.119  38.518  10.942
23993W        W92367   9.672  24.569   3.287
23994W        W92368  19.730  21.098   0.362
23995W        W92369  24.601  41.794  11.473
23996W        W92370  34.396  12.831  12.093
23997W        W92371   4.224  31.991   4.829
23998W        W92372  11.207  22.019  14.927
23999W        W92373   7.332  20.223   1.750
24000W        W92374   8.234  29.463   5.237
24001W        W92375  41.311  23.169   1.331
24002W        W92376  35.971  15.612  11.885
24003W        W92377  26.189  38.335  14.904
24004W        W92378  39.973  21.020   2.842
24005W        W92379  32.093  20.261   3.364
24006W        W92380   0.893  30.460   3.706
24007W        W92381  21.174   3.251  11.917
24008W        W92382   6.325  26.618   5.246
24009W        W92383  34.893  34.912  12.865
24010W        W92384  40.304  22.726  13.903
24011W        W92385  10.644   8.890   2.308
24012W        W92386   6.876  40.815   3.774
24013W        W92387   5.254  25.708   3.238
24014W        W92388  35.868  24.492   4.663
24015W        W92389  13.347  21.620  11.589
24016W        W92390  13.114  36.961   3.341
24017W        W92391   9.183  21.230  14.510
24018W        W92392  32.067  31.948  10.910
24019W        W92393  30.539  26.972   2.828
24020W        W92394  11.627  27.016  10.456
24021W        W92395  17.568  25.162  12.013
24022W        W92396   1.408  15.196   1.227
24023W        W92397  21.205  39.963  12.823
24024W        W92398  32.014  14.241   3.194
24025W        W92399   3.277  28.070  14.973
24026W        W92400  41.943  34.936  13.341
24027W        W92401   5.693  23.190  13.395
24028W        W92402  12.126  21.654   0.378
24029W        W92403   8.837  23.069   0.466
24030W        W92404   6.185  33.003   0.744
24031W        W92405   6.302  15.758   1.408
24032W        W92406  20.253  12.359   2.210
24033W        W92407  24.010  38.831  11.024
24034W        W92408   8.359  12.782  12.888
24035W        W92409  20.525   0.250  12.014
24036W        W92410  10.862  24.213   4.626
24037W        W92411   2.289  39.832  14.999
24038W        W92412  35.551   9.298  13.844
24039W        W92413   5.298  11.755  10.509
24040W        W92414  18.658  28.637   4.276
24041W        W92415  28.636  41.885   2.887
24042W        W92416  22.008  37.351   1.268
24043W        W92417   6.891   9.269   1.327
24044W        W92418  14.268  42.801   1.913
24045W        W92419  12.619  12.232   4.243
24046W        W92420   7.864  10.147  12.437
24047W        W92421   5.817   3.841  12.863
24048W        W92422   6.870  19.159   4.217
24049W        W92423  34.934  40.453   1.832
24050W        W92424  42.412   2.278  10.425
24051W        W92425  36.378  19.257   2.413
24052W        W92426  34.057  16.242   1.311
24053W        W92427  23.065  10.874   1.368
24054W        W92428  35.546   0.321  11.895
24055W        W92429  33.996  33.501   1.246
24056W        W92430  39.943   2.339   1.760
24057W        W92431  41.310   3.322   2.202
24058W        W92432  40.032  17.119   4.622
24059W        W92433  44.408   9.310  12.560
24060W        W92434  34.921  22.223  12.911
24061W        W92435  15.191   9.178   3.351
24062W        W92436  40.406  11.658  12.500
24063W        W92437  29.936  11.770  11.955
24064W        W92438   3.327   0.279  14.352
24065W        W92439  23.710  42.798  13.972
24066W        W92440   1.956  28.658   0.313
24067W        W92441   6.833  24.054  10.429
24068W        W92442  21.056  35.589  10.519
24069W        W92443  38.390   0.279   4.613
24070W        W92444  24.636  28.071  10.438
24071W        W92445  26.079  26.042   0.244
24072W        W92446  43.504  34.567   4.774
24073W        W92447  32.582  34.457  12.983
24074W        W92448   9.717  17.070   2.180
24075W        W92449  16.615   2.770  14.500
24076W        W92450  12.816  15.631  12.033
24077W        W92451  34.062  18.728  11.396
24078W        W92452   1.442  15.622  11.911
24079W        W92453  16.638  15.204   0.341
24080W        W92454  34.554  35.411   4.204
24081W        W92455  34.612  10.319  10.532
24082W        W92456  22.591  24.601  11.061
24083W        W92457  12.826  17.307  14.463
24084W        W92458  39.003  22.615  12.904
24085W        W92459   9.648  20.624  13.004
24086W        W92460  44.383  35.529   4.799
24087W        W92461   7.828   3.788   4.739
24088W        W92462  35.910  33.123  13.546
24089W        W92463  14.639  11.321   3.196
24090W        W92464   7.814   2.334   5.272
24091W        W92465  41.886  30.043  12.919
24092W        W92466  28.538  11.684  10.060
24093W        W92467  25.581  22.591   5.278
24094W        W92468  22.250  27.983  13.857
24095W        W92469   8.194  14.332   3.270
24096W        W92470   3.367  14.728  13.430
24097W        W92471  17.797  18.180   1.273
24098W        W92472  27.956   4.385  11.441
24099W        W92473   4.772  40.803   4.301
24100W        W92474  24.706  30.587   4.804
24101W        W92475  43.017  37.557  11.398
24102W        W92476  12.683  28.527   1.759
24103W        W92477  37.851  18.717   3.838
24104W        W92478   7.834  42.442   4.773
24105W        W92479  40.041  19.562   1.314
24106W        W92480  18.238   1.870   3.810
24107W        W92481  43.942  23.028   4.255
24108W        W92482  13.697  34.471   3.831
24109W        W92483  33.103  13.137   1.730
24110W        W92484  18.182  23.040  12.922
24111W        W92485   2.429   3.332   2.868
24112W        W92486  20.557  27.537   2.397
24113W        W92487   3.877   5.194  12.984
24114W        W92488  34.433  26.583  10.614
24115W        W92489  36.463   2.376   3.789
24116W        W92490  13.693  14.740  12.492
24117W        W92491  35.939  13.811  14.400
24118W        W92492  31.915   2.230  14.919
24119W        W92493   9.369  20.028  12.439
24120W        W92494   6.278  12.306   3.774
24121W        W92495  39.420  38.968   0.958
24122W        W92496  35.064  35.528   2.214
24123W        W92497  17.126  33.394  11.085
24124W        W92498  28.503  20.240  14.492
24125W        W92499  17.203  14.636   2.386
24126W        W92500  41.373   8.223   1.882
24127W        W92501  18.208   2.901  12.454
24128W        W92502   6.337   4.268   4.676
24129W        W92503  26.700  39.871  11.004
24130W        W92504   2.804  26.159  12.471
24131W        W92505  19.066  22.055   0.292
24132W        W92506   1.357  41.367  11.890
24133W        W92507  24.206  29.080  10.997
24134W        W92508  26.955  20.202   4.252
24135W        W92509   1.313  36.542   2.339
24136W        W92510  33.598   6.192  14.510
24137W        W92511  37.459  38.410   0.948
24138W        W92512  29.483  30.050   4.675
24139W        W92513  23.196  25.213  10.467
24140W        W92514  12.816  27.968   0.402
24141W        W92515   4.807   3.350  14.983
24142W        W92516  33.037  23.645  11.976
24143W        W92517   8.735  43.780   0.853
24144W        W92518  33.074  25.131  14.890
24145W        W92519   6.247  28.070  10.095
24146W        W92520  14.817  20.066  12.428
24147W        W92521  39.995   2.765  13.446
24148W        W92522   2.965  25.146   0.856
24149W        W92523  39.041  10.168  12.067
24150W        W92524  11.305  19.216   1.851
24151W        W92525  42.313  24.569  11.429
24152W        W92526  26.696  27.059   1.310
24153W        W92527  15.242  31.035  10.905
24154W        W92528  35.460  43.422   0.804
24155W        W92529  32.133  44.911  10.462
24156W        W92530  16.256   0.766   1.828
24157W        W92531   6.404  10.274   2.398
24158W        W92532  26.975  39.417  11.416
24159W        W92533  38.354  30.566  10.953
24160W        W92534  19.616   5.311   3.282
24161W        W92535   5.350  10.189  14.888
24162W        W92536  35.388  38.515  13.329
24163W        W92537  26.009  42.511  12.566
24164W        W92538  37.433   0.307   1.316
24165W        W92539  26.110  23.209   0.767
24166W        W92540  12.195  41.914  13.919
24167W        W92541   8.320  37.371   4.834
24168W        W92542  21.709  34.479   3.321
24169W        W92543  30.082   3.412   1.342
24170W        W92544  12.116  41.795   1.898
24171W        W92545   0.864  43.369  11.592
24172W        W92546  38.908   7.406  13.982
24173W        W92547  16.631  11.721   3.342
24174W        W92548  39.467  28.583  12.840
24175W        W92549  36.945  19.684   0.253
24176W        W92550  43.401   5.409  12.052
24177W        W92551  17.567  14.727  10.943
24178W        W92552  11.684  39.978  10.988
24179W        W92553  42.028  23.196   2.792
24180W        W92554  39.410  35.532  10.890
24181W        W92555   6.378  18.651  11.868
24182W        W92556   4.280  34.079  12.046
24183W        W92557  35.386  17.145   0.343
24184W        W92558  40.992   0.769   3.264
24185W        W92559  18.549  23.209   1.816
24186W        W92560  35.106  10.334  13.524
24187W        W92561  41.501  32.106   1.833
24188W        W92562  42.356  29.655   4.782
24189W        W92563  12.683   5.701  10.536
24190W        W92564   0.811  20.655   3.780
24191W        W92565  20.241   6.285  12.506
24192W        W92566  23.639  10.692   0.383
24193W        W92567   1.239   3.276   3.299
24194W        W92568  25.505  38.551  10.594
24195W        W92569  22.118  28.182   1.407
24196W        W92570  44.963  33.457   0.930
24197W        W92571  37.834   0.875  11.939
24198W        W92572   6.765  20.657   3.307
24199W        W92573  30.915  44.005   1.421
24200W        W92574  38.519  26.485  11.998
24201W        W92575  26.638   4.250  10.122
24202W        W92576  25.009  41.826   3.310
24203W        W92577  10.225  12.202  11.601
24204W        W92578  21.241  14.685  11.439
24205W        W92579   9.374  10.824  14.367
24206W        W92580   3.730  31.528   0.404
24207W        W92581  37.935   4.250  10.893
24208W        W92582  24.639   0.460  11.125
24209W        W92583  13.192  15.661   0.248
24210W        W92584  32.910  44.819   2.762
24211W        W92585  30.162   2.752  14.943
24212W        W92586  26.116   6.830  12.410
24213W        W92587  19.118  25.622   0.272
24214W        W92588  28.997  43.504  13.996
24215W        W92589  10.219  41.464   3.339
24216W        W92590  40.889   3.333  13.976
24217W        W92591  25.616  44.418  12.428
24218W        W92592  12.169  32.495  13.316
24219W        W92593  41.499  23.583   0.324
24220W        W92594   6.282  37.489   5.138
24221W        W92595   3.326   7.260   0.784
24222W        W92596  30.006  43.908  11.919
24223W        W92597  27.493  33.475  10.998
24224W        W92598  27.995  27.990   0.818
24225W        W92599  20.574  44.430   4.721
24226W        W92600  24.617  41.408   4.316
24227W        W92601  34.999   7.220   2.671
24228W        W92602  42.516  18.781   4.273
24229W        W92603  20.084  19.266   0.932
24230W        W92604   3.930  16.750  11.896
24231W        W92605  32.101  17.758   0.458
24232W        W92606  31.476  44.799  14.423
24233W        W92607  14.124  43.010  11.488
24234W        W92608   1.895   3.379  12.429
24235W        W92609  16.615  19.190  14.319
24236W        W92610   6.259  18.726  11.100
24237W        W92611  44.293  18.676   3.259
24238W        W92612  15.693  36.868  12.392
24239W        W92613  26.086  44.437   1.727
24240W        W92614  27.160  18.781  12.073
24241W        W92615  18.599  22.009   2.862
24242W        W92616   9.880  21.690  12.466
24243W        W92617  10.300  32.627  12.456
24244W        W92618   8.231   3.813  14.792
24245W        W92619   6.262  18.655   1.748
24246W        W92620  17.708   2.741   3.797
24247W        W92621  34.062  35.398   0.747
24248W        W92622   5.377   1.329  12.033
24249W        W92623  43.837  27.957   3.360
24250W        W92624  14.595  37.996  10.425
24251W        W92625  15.784  25.569   1.253
24252W        W92626  43.347  27.026   0.790
24253W        W92627   0.266  32.519  14.357
24254W        W92628  40.803  20.245   2.859
24255W        W92629  39.003  19.754  13.888
24256W        W92630  43.002  14.158  12.496
24257W        W92631  18.761   3.736  13.824
24258W        W92632  15.197  10.821  12.066
24259W        W92633  27.467  18.230   0.744
24260W        W92634   6.916  39.934  11.592
24261W        W92635  42.967  18.741  12.906
24262W        W92636  10.311   5.380   1.256
24263W        W92637  25.983   8.741   4.750
24264W        W92638  12.206  20.141   1.797
24265W        W92639  19.271  32.132   4.615
24266W        W92640  44.851  37.071   3.283
24267W        W92641  10.753   9.681  14.981
24268W        W92642   4.929   8.892   1.933
24269W        W92643  36.408  35.949   0.413
24270W        W92644  39.868  42.472  14.315
24271W        W92645  13.638  25.015  14.426
24272W        W92646  16.299   5.739   3.194
24273W        W92647  11.290  24.544   0.921
24274W        W92648   6.765  35.856  11.880
24275W        W92649  25.981  34.559   2.268
24276W        W92650  15.709  22.586   0.374
24277W        W92651   6.380   4.311  13.413
24278W        W92652  30.612  18.598   4.237
24279W        W92653  24.051  44.465  12.862
24280W        W92654  22.206  14.755   0.243
24281W        W92655   0.414  20.534  11.503
24282W        W92656  28.062  42.406  10.489
24283W        W92657  12.149  39.842  12.443
24284W        W92658  44.502  20.074   5.098
24285W        W92659  15.686  33.922  13.371
24286W        W92660   9.286   1.239   1.769
24287W        W92661  12.246  40.514  13.548
24288W        W92662   6.276  27.096  14.017
24289W        W92663  43.487  33.482   0.261
24290W        W92664  17.242  13.600  11.964
24291W        W92665  44.377  36.565  14.995
24292W        W92666  31.908  30.073  14.442
24293W        W92667   6.209  12.675  11.490
24294W        W92668  15.702  34.929   2.675
24295W        W92669  37.927  32.395   0.856
24296W        W92670  13.247  15.601  12.833
24297W        W92671  21.558  26.697   0.940
24298W        W92672  11.278  24.068   3.285
24299W        W92673  17.113   4.766  10.969
24300W        W92674  13.110  42.393  12.443
24301W        W92675  44.339   6.240   0.472
24302W        W92676  38.828  44.970   0.858
24303W        W92677  24.685  37.447  14.467
24304W        W92678  33.574  39.848   3.379
24305W        W92679   1.281  15.623  11.382
24306W        W92680   0.844  22.666  11.040
24307W        W92681   0.938  13.801   2.197
24308W        W92682  10.365  39.475  10.956
24309W        W92683  43.318  24.522  11.393
24310W        W92684  22.519  34.085   4.336
24311W        W92685  10.316  31.099   0.418
24312W        W92686  12.786  33.906  12.463
24313W        W92687  30.562   3.913  10.941
24314W        W92688  25.189  19.713   2.874
24315W        W92689  18.666  22.013   0.766
24316W        W92690  22.117  41.443  10.929
24317W        W92691  36.094  43.868  11.059
24318W        W92692  13.637   7.860   1.849
24319W        W92693  19.222  36.883   2.190
24320W        W92694   6.736   9.724  10.530
24321W        W92695  28.038  11.364  13.808
24322W        W92696   4.234   9.742   1.935
24323W        W92697  18.678  42.519  10.945
24324W        W92698  28.553  26.461  13.380
24325W        W92699  32.606   7.405  10.456
24326W        W92700  34.438  20.662  13.362
24327W        W92701  14.590  17.083   3.380
24328W        W92702  17.755   4.405  12.542
24329W        W92703  43.892  41.483   4.830
24330W        W92704  26.512  18.283  14.378
24331W        W92705  29.167  42.971  10.605
24332W        W92706  39.830  40.364   0.384
24333W        W92707  41.518  36.414   5.292
24334W        W92708  12.795  21.730   4.708
24335W        W92709   9.772  21.754  14.490
24336W        W92710  10.734  13.838  10.543
24337W        W92711  30.070   0.829  13.993
24338W        W92712  40.505  16.792  11.963
24339W        W92713  30.131  25.705   1.790
24340W        W92714  23.684  19.040   0.878
24341W        W92715  28.008  17.587   4.232
24342W        W92716  10.842  17.556   1.933
24343W        W92717   9.310  39.928   0.815
24344W        W92718  25.627  39.005   2.225
24345W        W92719   3.384  28.073   3.214
24346W        W92720  32.048  35.042  13.316
24347W        W92721  21.593  44.297  12.954
24348W        W92722  30.963  41.982  12.900
24349W        W92723  37.434  27.105   3.170
24350W        W92724  19.067  26.539   4.177
24351W        W92725  34.927  18.693  12.562
24352W        W92726  17.655  40.438  13.338
24353W        W92727  17.187  13.342  13.912
24354W        W92728  24.170  29.547   2.238
24355W        W92729   9.833  26.098   0.841
24356W        W92730  22.132   9.354  11.433
24357W        W92731  25.664  18.696  13.975
24358W        W92732   2.822  17.081  11.056
24359W        W92733  36.845  28.943   3.855
24360W        W92734   4.716  42.877   2.714
24361W        W92735  33.537  26.132   3.197
24362W        W92736  14.317  21.107   2.667
24363W        W92737  36.945  34.473   4.607
24364W        W92738  41.908  35.379  10.996
24365W        W92739  42.380  25.688   1.734
24366W        W92740  39.840   3.779  14.479
24367W        W92741   1.760   0.833  10.640
24368W        W92742  20.757  21.554   3.690
24369W        W92743  23.117  34.955   3.364
24370W        W92744  28.062  36.461   3.695
24371W        W92745  12.809   3.252  11.568
24372W        W92746  26.965  40.381   3.359
24373W        W92747   0.936  37.899  10.999
24374W        W92748  12.138  21.138  14.380
24375W        W92749   2.850  36.991  10.516
24376W        W92750   8.160  37.901   1.788
24377W        W92751  43.413  30.634  13.951
24378W        W92752  11.128  13.342   1.731
24379W        W92753  31.949  26.981   2.341
24380W        W92754  35.051  29.423  10.599
24381W        W92755   8.380  35.062  11.023
24382W        W92756  11.251  14.159   4.173
24383W        W92757   2.387  29.108  11.972
24384W        W92758   4.243  10.726  11.959
24385W        W92759  22.722  37.488   0.428
24386W        W92760  14.591  20.764   1.374
24387W        W92761  30.097  14.204  12.418
24388W        W92762  16.084   7.261  14.893
24389W        W92763  43.956  17.625  12.485
24390W        W92764  10.359  28.671  11.117
24391W        W92765  15.107  16.266  10.440
24392W        W92766  33.531  39.416   0.817
24393W        W92767  39.875  38.927   3.743
24394W        W92768  21.587  12.312  10.979
24395W        W92769  19.536  35.867   3.239
24396W        W92770  38.820  31.597   4.300
24397W        W92771  29.465   2.820  10.986
24398W        W92772  28.937  15.670   0.338
24399W        W92773   2.800  31.065   3.790
24400W        W92774   2.385  12.688  13.811
24401W        W92775  21.261  13.635   2.213
24402W        W92776   8.242  23.591   0.881
24403W        W92777   3.797  35.945  11.064
24404W        W92778  11.685  40.912   1.804
24405W        W92779  33.619   8.173   1.315
24406W        W92780  15.805  42.013   2.288
24407W        W92781   9.352  13.147  10.545
24408W        W92782  25.617   3.874   3.751
24409W        W92783  21.716  10.297  13.797
24410W        W92784  24.715  23.211  12.951
24411W        W92785  20.758  36.871   0.367
24412W        W92786  13.618  33.021   3.689
24413W        W92787  14.169  12.853  13.846
24414W        W92788  40.467   9.874   4.222
24415W        W92789  39.537   9.698  12.016
24416W        W92790  12.807  27.057  10.482
24417W        W92791  32.604  32.998   2.717
24418W        W92792   1.375  40.003  14.332
24419W        W92793   3.770   2.778   4.154
24420W        W92794  12.344  11.355  10.500
24421W        W92795  15.791  41.415  11.460
24422W        W92796  16.755  40.393  12.034
24423W        W92797  34.512  26.004  12.452
24424W        W92798  33.999  40.036   0.465
24425W        W92799   5.227  14.619  13.342
24426W        W92800  14.276  38.430   2.851
24427W        W92801   8.233  33.531   0.309
24428W        W92802  19.133   5.400  12.014
24429W        W92803  32.533  39.500  12.848
24430W        W92804  34.541   2.834   0.951
24431W        W92805  41.009  29.513  13.396
24432W        W92806  16.748  19.648  14.478
24433W        W92807  11.357  38.864  12.487
24434W        W92808   6.285  12.180  14.483
24435W        W92809  31.140  17.078  13.030
24436W        W92810   8.822  39.324   1.821
24437W        W92811  44.357  36.988  13.802
24438W        W92812  13.118  41.888   4.252
24439W        W92813  15.601   4.931  12.468
24440W        W92814   5.218  14.250  11.035
24441W        W92815   6.722  14.300  12.377
24442W        W92816  36.375  31.488  13.991
24443W        W92817  20.029  19.630  14.307
24444W        W92818  22.572   4.230  14.992
24445W        W92819  21.069  28.630   0.338
24446W        W92820  12.728  15.651   4.154
24447W        W92821  33.609  32.036   9.930
24448W        W92822   0.394  12.746  14.470
24449W        W92823  37.571  42.287  11.106
24450W        W92824   5.760  29.525  14.808
24451W        W92825  20.679  12.204   4.337
24452W        W92826  36.888  26.489  14.513
24453W        W92827  34.061   7.408   4.753
24454W        W92828   3.838  15.198  13.462
24455W        W92829  16.812  29.555  10.616
24456W        W92830   2.284   2.750   2.795
24457W        W92831  23.163  12.763   0.926
24458W        W92832   5.813  38.389   3.334
24459W        W92833   0.411  42.905   1.806
24460W        W92834  14.107  13.651  11.481
24461W        W92835  31.095   7.271  12.860
24462W        W92836  32.942   1.358   4.634
24463W        W92837  14.598  13.774   4.798
24464W        W92838  16.307  43.353   4.752
24465W        W92839  42.446  29.052  12.522
24466W        W92840  30.164  37.466   0.755
24467W        W92841  12.322  20.073   4.227
24468W        W92842  31.520   0.775  10.465
24469W        W92843   0.898   1.870   5.269
24470W        W92844   7.189  27.098   1.324
24471W        W92845  15.705  21.666  14.363
24472W        W92846   6.291  21.045   0.297
24473W        W92847  40.323   6.892   0.756
24474W        W92848   4.719  32.432   3.728
24475W        W92849   7.749  29.654   1.919
24476W        W92850  18.192   2.751   4.230
24477W        W92851  29.456  11.278   2.708
24478W        W92852  34.508  32.112   3.334
24479W        W92853  14.789   2.932   3.257
24480W        W92854  34.047  13.606   0.298
24481W        W92855  32.508  12.700  12.075
24482W        W92856  19.679  27.578   2.851
24483W        W92857  28.534  31.511   3.704
24484W        W92858  11.687  10.682   0.916
24485W        W92859   1.870  42.984  13.314
24486W        W92860  36.469  38.521   4.196
24487W        W92861  10.680  26.038   1.766
24488W        W92862   9.166  22.589  12.504
24489W        W92863  23.725   6.266   0.961
24490W        W92864  15.780   1.954   3.183
24491W        W92865  13.329  25.519  13.444
24492W        W92866  21.191  40.987  13.367
24493W        W92867  38.981  20.725   1.894
24494W        W92868  24.588  24.138   0.958
24495W        W92869  32.614  17.641  10.910
24496W        W92870  27.164   8.859   3.817
24497W        W92871  28.052  16.645   3.770
24498W        W92872  28.460  16.773  13.512
24499W        W92873  31.043  13.693  13.536
24500W        W92874  14.811  28.057  10.975
24501W        W92875  29.650  17.748   1.264
24502W        W92876  43.415   4.720   3.228
24503W        W92877  15.811  16.307  11.452
24504W        W92878  22.190  28.591   3.167
24505W        W92879   9.733  39.042  14.781
24506W        W92880   9.860  15.161  14.912
24507W        W92881   0.942  19.709   2.311
24508W        W92882  31.116  27.581   2.733
24509W        W92883  40.897  18.698   2.662
24510W        W92884  36.384  24.604   4.697
24511W        W92885  18.218  42.438  14.294
24512W        W92886  42.021  32.450  11.069
24513W        W92887   2.327   1.451   4.189
24514W        W92888  16.151   0.882  14.963
24515W        W92889  29.585  35.893   2.202
24516W        W92890   7.176  24.706  12.833
24517W        W92891   1.853  20.257  13.981
24518W        W92892   3.757  43.978   2.818
24519W        W92893  41.036   2.871  14.900
24520W        W92894  12.244  11.358   0.476
24521W        W92895  42.376  43.887  11.867
24522W        W92896   4.435  30.653   1.799
24523W        W92897   2.852   7.320   2.368
24524W        W92898  35.981  40.504  14.393
24525W        W92899  29.078   0.369   5.292
24526W        W92900  42.505   0.981  10.904
24527W        W92901  33.613  20.037  10.949
24528W        W92902   9.178   4.297  12.070
24529W        W92903  32.967  30.982   1.446
24530W        W92904  36.411  18.698  10.588
24531W        W92905  42.794   9.282   2.397
24532W        W92906  17.589  27.125   2.242
24533W        W92907  16.717  41.838  14.889
24534W        W92908  43.480  12.337  11.557
24535W        W92909  12.116  14.750   2.281
24536W        W92910   3.347  36.373  14.006
24537W        W92911   8.278  11.700  12.871
24538W        W92912   1.397   1.253   0.895
24539W        W92913  44.872  33.441  10.927
24540W        W92914  25.967  16.232  14.874
24541W        W92915  12.316  23.239   3.657
24542W        W92916  16.088  10.363   3.812
24543W        W92917  21.119  21.624   4.345
24544W        W92918  20.533   0.877  14.955
24545W        W92919  29.003  42.004   1.311
24546W        W92920  27.118  11.734  11.078
24547W        W92921  27.636  14.762   3.756
24548W        W92922  40.851  35.587   1.270
24549W        W92923  35.965  44.465   3.777
24550W        W92924  37.958  32.443   3.824
24551W        W92925  16.691  33.072   1.283
24552W        W92926  15.695  42.515  13.813
24553W        W92927   2.825  36.557   0.902
24554W        W92928   9.371  27.160   2.846
24555W        W92929  42.442   6.207   1.352
24556W        W92930  10.765  37.537  10.139
24557W        W92931  34.453  36.496   0.773
24558W        W92932  33.915  22.124   1.441
24559W        W92933  31.078  27.566  11.078
24560W        W92934   9.309  13.130  11.098
24561W        W92935  13.287  35.975  11.970
24562W        W92936  19.175  24.618  12.579
24563W        W92937   9.674  13.652  11.974
24564W        W92938  18.135  33.610   3.239
24565W        W92939  14.255   6.757   4.202
24566W        W92940  38.981   9.705   9.549
24567W        W92941  14.182  23.196   0.876
24568W        W92942  38.034  36.849   2.690
24569W        W92943   9.646   7.309  14.924
24570W        W92944  34.892  42.856   5.143
24571W        W92945  28.655  42.469   5.794
24572W        W92946  37.030  20.721   0.790
24573W        W92947  24.092  26.200  10.521
24574W        W92948  41.470  36.889  10.929
24575W        W92949  43.329   0.317   2.845
24576W        W92950  15.733  26.512  14.353
24577W        W92951  29.984  25.112  12.889
24578W        W92952  38.511  43.940  13.000
24579W        W92953  29.053   2.950   1.774
24580W        W92954  14.636   7.824  11.091
24581W        W92955   9.249  24.688   2.888
24582W        W92956  32.425  17.577  12.982
24583W        W92957  32.503  14.666  10.491
24584W        W92958  27.108  16.094  13.052
24585W        W92959  13.750  38.905  13.951
24586W        W92960  29.503  38.519  11.493
24587W        W92961  16.768  36.016  12.421
24588W        W92962  44.874  28.671  11.048
24589W        W92963  23.004  23.210   3.349
24590W        W92964   8.280  44.443  11.514
24591W        W92965   2.946  25.983   3.632
24592W        W92966  35.868   3.761  14.416
24593W        W92967   1.805  44.815   0.477
24594W        W92968  22.655  15.719  11.049
24595W        W92969  17.729  41.365   1.367
24596W        W92970  31.466  38.909   2.418
24597W        W92971  23.609  19.697  11.612
24598W        W92972  14.730  14.767  10.481
24599W        W92973   3.238  44.899  13.889
24600W        W92974   2.251  14.217  12.410
24601W        W92975  23.503  29.137  13.393
24602W        W92976  15.589  12.765   0.262
24603W        W92977  10.263   9.334   4.221
24604W        W92978  37.987  21.056  12.995
24605W        W92979  27.603  28.184   1.750
24606W        W92980  13.828  38.873  14.334
24607W        W92981  43.884  10.291  14.453
24608W        W92982  11.739   3.413  14.997
24609W        W92983  27.559  39.914   3.295
24610W        W92984  18.282  17.731  14.862
24611W        W92985  23.998   4.205  11.406
24612W        W92986  32.003  15.627   0.925
24613W        W92987   4.286  28.160  11.995
24614W        W92988  37.521  12.662  12.927
24615W        W92989  38.064   7.370   1.887
24616W        W92990  32.942  20.557   4.140
24617W        W92991  39.538   2.927   2.372
24618W        W92992  21.025   0.879  10.899
24619W        W92993  24.114  42.973   1.255
24620W        W92994  25.056  13.716   3.789
24621W        W92995  18.263   7.732   2.397
24622W        W92996  16.281  41.457   0.727
24623W        W92997   2.420   9.368  12.872
24624W        W92998  23.075  31.102   1.395
24625W        W92999  30.493   6.706  11.397
24626W        W93000  27.599  13.339   0.904
24627W        W93001   7.360  20.766   1.784
24628W        W93002  22.140  40.964   2.411
24629W        W93003  30.442  36.095  12.564
24630W        W93004  43.904  43.828  12.919
24631W        W93005   1.444  12.136   3.229
24632W        W93006  36.375  13.179  11.611
24633W        W93007  28.122   8.856   4.249
24634W        W93008  35.854   8.754   3.376
24635W        W93009  26.686   5.739  11.586
24636W        W93010  40.493  40.899  11.980
24637W        W93011  28.558  32.452  12.860
24638W        W93012  20.710  20.254  13.333
24639W        W93013   9.651  10.720  11.424
24640W        W93014   9.173   3.824   5.201
24641W        W93015  44.954  25.042   1.353
24642W        W93016  36.966  44.924  13.316
24643W        W93017  38.533   0.426   1.319
24644W        W93018   5.871  23.040   4.616
24645W        W93019  38.426  25.133   1.901
24646W        W93020  16.579  18.592   4.184
24647W        W93021  38.011  12.665  12.018
24648W        W93022  20.721   1.318   0.845
24649W        W93023  27.674  20.522  11.425
24650W        W93024  18.255  33.607  14.309
24651W        W93025  40.842   7.724   2.821
24652W        W93026  36.477  26.151  12.560
24653W        W93027   5.828   3.336   5.657
24654W        W93028   1.831  31.977  12.503
24655W        W93029   8.693  21.689   2.343
24656W        W93030  23.684  38.057   3.637
24657W        W93031  44.858  29.591   4.751
24658W        W93032   9.782  42.371   0.360
24659W        W93033  17.163   0.911  10.405
24660W        W93034  11.271  19.137   4.348
24661W        W93035   3.849  16.219   3.161
24662W        W93036  38.467   3.777  14.905
24663W        W93037  31.605  29.458   2.889
24664W        W93038  43.326  38.890  10.120
24665W        W93039   9.664  19.659  11.099
24666W        W93040  10.662  21.745  12.447
24667W        W93041   9.274  12.797  11.418
24668W        W93042  40.429  20.137  12.932
24669W        W93043  17.721  12.299  12.889
24670W        W93044  43.304  16.762  13.834
24671W        W93045  30.026  10.360  11.484
24672W        W93046   8.842  12.620   4.637
24673W        W93047  21.620  20.029   4.169
24674W        W93048  23.650   9.847  13.421
24675W        W93049  11.226  41.861   4.718
24676W        W93050  17.235  31.644   9.942
24677W        W93051  17.085  26.998   1.823
24678W        W93052   2.234  44.323   2.366
24679W        W93053  23.211   5.904   4.792
24680W        W93054  30.980  13.786  11.495
24681W        W93055  16.105  14.732   1.429
24682W        W93056  23.159  34.059  11.467
24683W        W93057  31.969   5.769  11.998
24684W        W93058  19.642  12.658  14.980
24685W        W93059   3.433  37.359  12.500
24686W        W93060  30.980  14.245  12.964
24687W        W93061  31.051   4.257  12.020
24688W        W93062  34.886  24.001   2.270
24689W        W93063   8.897  31.115   3.695
24690W        W93064  31.025  11.850   0.802
24691W        W93065  18.072  26.041  12.876
24692W        W93066   7.318  18.155   9.923
24693W        W93067  37.491  35.036   4.818
24694W        W93068  33.424  12.328   1.817
24695W        W93069  15.707  15.201   0.434
24696W        W93070  39.432   9.747   0.732
24697W        W93071   6.343  34.109  14.000
24698W        W93072  15.628  25.963   4.273
24699W        W93073  30.061  41.916  11.606
24700W        W93074  15.711  25.177   0.904
24701W        W93075   6.887   5.212  10.148
24702W        W93076  40.389  10.171   3.309
24703W        W93077  17.669  34.043  13.531
24704W        W93078  23.121  10.184  14.985
24705W        W93079  10.671  27.493  13.899
24706W        W93080   4.750  44.952   2.397
24707W        W93081  35.450   2.301  13.956
24708W        W93082  30.423  21.132   3.762
24709W        W93083  13.818   9.293  13.043
24710W        W93084  34.039  43.382   1.911
24711W        W93085  29.951  22.502  12.531
24712W        W93086   1.853   5.862  12.090
24713W        W93087   3.262  23.173   1.707
24714W        W93088   5.739  34.018  13.905
24715W        W93089  41.522   5.215  10.436
24716W        W93090  13.826  23.567  12.053
24717W        W93091   2.838  44.754  14.895
24718W        W93092  11.216  23.037  14.460
24719W        W93093  44.373  35.091   3.744
24720W        W93094  15.792  28.962  10.972
24721W        W93095  41.010  42.464  11.966
24722W        W93096  26.578   6.755  12.347
24723W        W93097  24.122  31.438   2.733
24724W        W93098  28.526  28.477   2.315
24725W        W93099  37.962   5.762  14.965
24726W        W93100  16.740  22.527   0.322
24727W        W93101  13.168  27.458   4.342
24728W        W93102  38.850  16.073   1.217
24729W        W93103  37.040   5.327  10.972
24730W        W93104  36.416  32.605  13.321
24731W        W93105   5.435  15.603   3.193
24732W        W93106  29.586   7.888  14.392
24733W        W93107   8.230   9.706  12.415
24734W        W93108   6.751  16.245  13.404
24735W        W93109   0.939  33.887   4.818
24736W        W93110   9.813  23.152  12.572
24737W        W93111  31.615   2.352  11.504
24738W        W93112  34.033   0.869  14.277
24739W        W93113  11.134  20.114  10.994
24740W        W93114   9.230  38.446   1.817
24741W        W93115  29.653   2.470  12.840
24742W        W93116   8.660  20.257   3.774
24743W        W93117  16.635  14.762   0.728
24744W        W93118  36.863  30.924   2.203
24745W        W93119  11.207  40.965   4.652
24746W        W93120  20.639   9.753   0.795
24747W        W93121  32.935  36.504   0.419
24748W        W93122  16.747  18.762  10.616
24749W        W93123  13.606  17.698   2.774
24750W        W93124   9.357  24.543   3.789
24751W        W93125  34.470  18.683  14.781
24752W        W93126  11.854  29.081  12.371
24753W        W93127  20.042  34.379  10.589
24754W        W93128  23.210  28.052   1.752
24755W        W93129  13.291  32.122  13.864
24756W        W93130  35.901  23.060  12.020
24757W        W93131  28.614  27.016   0.859
24758W        W93132   0.899  20.741   2.808
24759W        W93133  38.412  32.070   3.704
24760W        W93134  41.867  35.366   2.803
24761W        W93135  39.846  16.596  13.343
24762W        W93136  20.698  44.387   2.842
24763W        W93137  15.823  40.539   1.365
24764W        W93138  37.577  20.166  10.609
24765W        W93139  25.584  23.577   2.795
24766W        W93140   8.775   7.344  13.983
24767W        W93141  43.844  22.055  13.000
24768W        W93142  26.046  16.715  11.904
24769W        W93143  16.763  10.864  14.389
24770W        W93144  41.803  16.211  10.610
24771W        W93145  40.870  26.638  12.580
24772W        W93146  39.433   1.254  11.102
24773W        W93147   8.858  37.580  13.023
24774W        W93148   8.826  20.769   3.206
24775W        W93149  42.994  27.504  11.409
24776W        W93150  41.452  33.118   4.820
24777W        W93151  44.007  13.846   4.232
24778W        W93152  27.538   2.786  13.366
24779W        W93153  35.391  44.951  11.922
24780W        W93154   1.421  19.244  14.031
24781W        W93155  15.683  44.354  11.077
24782W        W93156  13.245  24.072  11.483
24783W        W93157   9.838  25.515  13.332
24784W        W93158  12.123   9.804   4.200
24785W        W93159  19.584   7.225   4.604
24786W        W93160  30.504  31.114   2.334
24787W        W93161  29.029   3.940   2.732
24788W        W93162  12.704  35.464  14.376
24789W        W93163  35.460  15.226   0.735
24790W        W93164  12.175  29.635   4.638
24791W        W93165  23.217  22.248   0.243
24792W        W93166   5.357  22.649  14.407
24793W        W93167  37.042  31.938  10.159
24794W        W93168  14.230  41.361   2.253
24795W        W93169  20.113   6.349  12.920
24796W        W93170   2.446  14.248   4.735
24797W        W93171  34.957  20.646   1.449
24798W        W93172  12.763  39.925  13.998
24799W        W93173   9.719  17.618  13.926
24800W        W93174  15.092  27.605   2.256
24801W        W93175  34.084  42.300  12.390
24802W        W93176  28.163   5.214   1.727
24803W        W93177  41.007   0.323   0.757
24804W        W93178  18.560   2.897  11.071
24805W        W93179  12.787   9.214  11.426
24806W        W93180  24.187  41.869   1.247
24807W        W93181   2.330  44.453   0.951
24808W        W93182   2.265   7.757   3.226
24809W        W93183  32.992   3.819  13.353
24810W        W93184  42.026  11.821  10.037
24811W        W93185   4.442  19.731   2.324
24812W        W93186  29.569  17.665  13.548
24813W        W93187  26.686  31.414  11.447
24814W        W93188  33.913   6.736  14.299
24815W        W93189   7.887  10.332   1.918
24816W        W93190  29.033   6.873  13.473
24817W        W93191  16.257  25.034   5.090
24818W        W93192  26.703  40.360   4.711
24819W        W93193  21.648  28.527   1.809
24820W        W93194   9.322  27.057   4.621
24821W        W93195  21.232  37.848   5.683
24822W        W93196  38.004  22.643   4.214
24823W        W93197  29.129  34.909   3.681
24824W        W93198   1.356   0.335  12.009
24825W        W93199  19.220  32.574  12.015
24826W        W93200  11.221   0.490   0.858
24827W        W93201  44.485  36.908  10.950
24828W        W93202   3.819  21.667   0.946
24829W        W93203  30.636   9.255  14.314
24830W        W93204  25.962  26.626  10.429
24831W        W93205   1.790  29.617   3.386
24832W        W93206  35.526   7.326  12.085
24833W        W93207   0.442  13.729   2.353
24834W        W93208  28.613  41.936  10.495
24835W        W93209  14.764   6.337  13.446
24836W        W93210  31.596  27.639  11.872
24837W        W93211  27.141  21.526  13.423
24838W        W93212  23.148   8.740   2.190
24839W        W93213  24.229  31.964  11.501
24840W        W93214  44.880  28.114  14.391
24841W        W93215   8.172   1.314  10.901
24842W        W93216  38.866  41.376   2.843
24843W        W93217  35.008  17.274  10.910
24844W        W93218  13.766  20.624  12.030
24845W        W93219  32.909  16.677   4.808
24846W        W93220   5.265  31.150  12.954
24847W        W93221  31.920  20.718   0.383
24848W        W93222   4.403   3.417  14.482
24849W        W93223   8.184  32.570   1.923
24850W        W93224  28.565   7.173  13.434
24851W        W93225  11.658  18.757  12.006
24852W        W93226  26.125   8.881   3.658
24853W        W93227  28.003   4.857   2.363
24854W        W93228  32.964  22.574  10.484
24855W        W93229  38.533  39.948  14.938
24856W        W93230  26.552   9.325  12.900
24857W        W93231  37.383  14.267  12.546
24858W        W93232  40.891  27.983  11.912
24859W        W93233   2.801  40.896   0.893
24860W        W93234  25.624  23.206   2.673
24861W        W93235  21.258   1.303  13.812
24862W        W93236   1.355   9.878  14.395
24863W        W93237   3.329  15.823   4.812
24864W        W93238  16.590  15.618   1.709
24865W        W93239  13.225  35.930   5.141
24866W        W93240  26.539  34.068  14.012
24867W        W93241  42.792  32.043  14.883
24868W        W93242  21.214  32.955   4.682
24869W        W93243  15.646  10.715  12.075
24870W        W93244  21.138  29.532  12.906
24871W        W93245  22.719  37.859  13.867
24872W        W93246  33.386  41.496   4.278
24873W        W93247   3.878   8.239  14.011
24874W        W93248   7.185   6.364  10.597
24875W        W93249  33.945   3.758   0.750
24876W        W93250  20.662   1.880   0.851
24877W        W93251  30.435  41.943   2.687
24878W        W93252   0.807  18.091  10.138
24879W        W93253  38.357   6.831   1.260
24880W        W93254  21.190  34.412   3.161
24881W        W93255  14.252  23.146   1.414
24882W        W93256  44.504  42.986   3.808
24883W        W93257  14.725   0.770   1.440
24884W        W93258  30.545  26.070   2.750
24885W        W93259  23.512  37.350   2.296
24886W        W93260   0.954   3.241  10.082
24887W        W93261  36.095   5.893  10.477
24888W        W93262  32.538  22.090  11.034
24889W        W93263  17.302   0.780  13.973
24890W        W93264  10.696  34.940   2.245
24891W        W93265  33.905  37.833   4.286
24892W        W93266  11.235  42.885  11.434
24893W        W93267  33.393   7.903   1.447
24894W        W93268  17.568   2.320  11.434
24895W        W93269   5.690   4.309  13.330
24896W        W93270  40.008  26.501  10.615
24897W        W93271  20.687  29.028   0.922
24898W        W93272   4.897   1.433   3.345
24899W        W93273  23.695   4.416  13.793
24900W        W93274  38.562  33.076   4.219
24901W        W93275  33.481  38.865   0.437
24902W        W93276  40.958  25.139   1.410
24903W        W93277  33.086   1.954   1.898
24904W        W93278  29.020   4.263  14.954
24905W        W93279  14.735   7.278   0.400
24906W        W93280  23.505  29.089   0.862
24907W        W93281  33.025   8.693   2.327
24908W        W93282  14.780   9.199  10.994
24909W        W93283  10.151  20.650   4.755
24910W        W93284  37.064  25.591   0.912
24911W        W93285  44.858  13.130  14.990
24912W        W93286  34.973  21.047   2.674
24913W        W93287  33.397  33.426  13.432
24914W        W93288   7.783  22.242  14.882
24915W        W93289  17.094   6.690  11.593
24916W        W93290   2.761  36.449  14.021
24917W        W93291  20.739  13.268   2.266
24918W        W93292  28.678   1.938  12.897
24919W        W93293  32.517  21.544  12.404
24920W        W93294  21.551  37.393  12.933
24921W        W93295   5.883  10.661  12.977
24922W        W93296  21.701  21.257  13.399
24923W        W93297  26.125   6.213  14.028
24924W        W93298  42.414  36.045  13.424
24925W        W93299   7.814   8.703   2.847
24926W        W93300  29.959  43.814   9.463
24927W        W93301  22.549  21.160   5.144
24928W        W93302  20.526   4.848  11.501
24929W        W93303   3.227  11.229   3.200
24930W        W93304  22.632   9.166   3.722
24931W        W93305  12.194   6.287   3.286
24932W        W93306  41.372  28.449   2.303
24933W        W93307  24.566   4.415  13.536
24934W        W93308   6.680  22.006   4.202
24935W        W93309  37.487  20.692  13.884
24936W        W93310   5.896  20.694  11.936
24937W        W93311  24.041  44.399  10.637
24938W        W93312  11.757  27.966  12.542
24939W        W93313  28.680  13.143   4.228
24940W        W93314  41.361   1.838   0.466
24941W        W93315  34.450  10.744   2.361
24942W        W93316  11.351  24.986   0.315
24943W        W93317  11.289  28.994  12.418
24944W        W93318  31.062   8.823  13.458
24945W        W93319  36.876   2.457  11.423
24946W        W93320  10.667  28.654   1.344
24947W        W93321  44.357  23.720   1.415
24948W        W93322  19.720  30.501  11.555
24949W        W93323   3.829  19.043  12.886
24950W        W93324  29.613  30.541   2.278
24951W        W93325  33.985  42.852  13.347
24952W        W93326  36.858  26.180   0.824
24953W        W93327   8.820  32.095   4.291
24954W        W93328  16.568   8.836   4.767
24955W        W93329  40.485   3.755  11.559
24956W        W93330   3.252  20.635   0.243
24957W        W93331  40.343  42.829   4.757
24958W        W93332  22.628  11.857   4.681
24959W        W93333  21.599   4.224   3.661
24960W        W93334   3.347  23.091   0.784
24961W        W93335  37.523   1.970  10.952
24962W        W93336  13.117   8.384  14.844
24963W        W93337  20.140  40.881  11.466
24964W        W93338  39.060  27.502  10.421
24965W        W93339  14.685  26.527  12.506
24966W        W93340   3.246  24.977   2.838
24967W        W93341  24.557  37.357   4.264
24968W        W93342  39.051  17.225   2.791
24969W        W93343  16.190  34.865  12.833
24970W        W93344  28.541  15.745  13.048
24971W        W93345   1.364  17.657  12.498
24972W        W93346  34.451   1.435   0.277
24973W        W93347  27.960  32.434   4.786
24974W        W93348  13.713   6.894  13.856
24975W        W93349  10.189  36.592  12.091
24976W        W93350  35.460  28.971  13.832
24977W        W93351  40.990  20.730   2.298
24978W        W93352  34.409  18.278   2.233
24979W        W93353  42.969  44.964   3.213
24980W        W93354  27.088  24.078  12.539
24981W        W93355  22.123  39.557  12.530
24982W        W93356  44.430  12.805  13.939
24983W        W93357   2.458  40.998   1.418
24984W        W93358   4.387  35.477   4.702
24985W        W93359  40.805   9.665  12.408
24986W        W93360  14.154   2.825  14.784
24987W        W93361   4.916  33.991  11.608
24988W        W93362   3.430  39.927  14.945
24989W        W93363  24.055   0.334   2.769
24990W        W93364  14.305  42.803  13.449
24991W        W93365   8.192  14.595   4.264
24992W        W93366  44.362  24.489  10.594
24993W        W93367  26.637   0.337  12.067
24994W        W93368  34.995  22.603  14.017
24995W        W93369  16.639  23.017  14.947
24996W        W93370  29.060   1.253  12.983
24997W        W93371  43.396  20.153  14.482
24998W        W93372  40.953  44.874  14.820
24999W        W93373  21.143  43.294  14.926
25000W        W93374  17.300  25.535   3.278
25001W        W93375  37.540  34.565  14.419
25002W        W93376  14.241  42.410  14.002
25003W        W93377  11.166   5.751   4.673
25004W        W93378  34.113  10.218   4.726
25005W        W93379  36.459  29.461   2.696
25006W        W93380  31.966  31.111   1.761
25007W        W93381  12.699  33.001  11.105
25008W        W93382  17.675  18.737   3.334
25009W        W93383   1.264  19.246  10.504
25010W        W93384  16.590  41.003  12.903
25011W        W93385  10.878  27.168  12.383
25012W        W93386  23.614  17.113  10.408
25013W        W93387  27.689  27.461  12.929
25014W        W93388   7.907  11.184   2.841
25015W        W93389   7.178   2.458  14.775
25016W        W93390  24.510  26.078   2.704
25017W        W93391  38.867   7.307   4.350
25018W        W93392  35.424  10.374  10.023
25019W        W93393  26.958  28.022  13.535
25020W        W93394  11.209  13.684  12.947
25021W        W93395  38.562   2.388  10.903
25022W        W93396   2.813  30.614   2.781
25023W        W93397   7.187  42.337   4.765
25024W        W93398  15.729  12.734  11.869
25025W        W93399  24.135  40.491   0.255
25026W        W93400  34.960   7.393   3.157
25027W        W93401  25.608   0.811   0.379
25028W        W93402  41.344  33.043  13.967
25029W        W93403  44.355   0.479   2.254
25030W        W93404  37.077  27.500  12.454
25031W        W93405  28.574  25.490   3.386
25032W        W93406  20.529  12.749  14.967
25033W        W93407  13.210  23.165   4.287
25034W        W93408  35.439  31.515  13.308
25035W        W93409  32.541   2.335   1.281
25036W        W93410  40.915  21.182  12.411
25037W        W93411  19.226  21.129   1.362
25038W        W93412  21.082  26.059   3.637
25039W        W93413  10.710  26.034   4.251
25040W        W93414  26.983   0.839   2.346
25041W        W93415   3.350   9.683   4.766
25042W        W93416   7.758  17.587   0.961
25043W        W93417   0.833  34.888   0.418
25044W        W93418  21.701  31.928  11.539
25045W        W93419   7.362   1.895   3.175
25046W        W93420   5.279  27.508  10.891
25047W        W93421  38.995  41.308   4.153
25048W        W93422  23.564  39.049  12.457
25049W        W93423  44.478  37.908   0.324
25050W        W93424   7.809  27.468   1.246
25051W        W93425  18.697  23.016   4.781
25052W        W93426  19.692  26.639   2.186
25053W        W93427   4.241   6.842   0.332
25054W        W93428  40.411  25.548  11.591
25055W        W93429  43.909   5.242  13.359
25056W        W93430  16.077   0.419   4.234
25057W        W93431  28.083  13.715   1.383
25058W        W93432   3.259   8.689   4.752
25059W        W93433  23.240  35.464  11.502
25060W        W93434  24.652  41.327  13.476
25061W        W93435  25.984  38.411   0.926
25062W        W93436   8.684  32.093   1.930
25063W        W93437  28.613  44.771   3.668
25064W        W93438  24.559  39.357   2.750
25065W        W93439   7.711  33.421   1.933
25066W        W93440  42.986  39.428   3.704
25067W        W93441  15.808   1.849   2.298
25068W        W93442   4.816   6.711   0.363
25069W        W93443  36.539  37.907  14.382
25070W        W93444  14.233  43.898   3.743
25071W        W93445  33.976  27.607  13.348
25072W        W93446   0.290  18.663  12.921
25073W        W93447  14.827  33.995  13.489
25074W        W93448  40.526  25.963  12.516
25075W        W93449  39.864  38.474   1.837
25076W        W93450   2.939  18.182   3.204
25077W        W93451  39.937  43.467  14.420
25078W        W93452  10.199   7.194  11.995
25079W        W93453   7.719   6.248  12.492
25080W        W93454  17.592  27.674   4.737
25081W        W93455  36.483  44.262   1.265
25082W        W93456  16.132   0.797  10.446
25083W        W93457  18.160   8.366   2.398
25084W        W93458  22.024   9.175   3.717
25085W        W93459  35.062  32.122  11.000
25086W        W93460  19.718  11.257  12.348
25087W        W93461  21.194  17.158  14.880
25088W        W93462  31.053  12.621  12.989
25089W        W93463  29.435  41.831   3.669
25090W        W93464  11.741  23.609  12.475
25091W        W93465  29.947  25.656   4.632
25092W        W93466  27.644   6.722   0.393
25093W        W93467   6.367  27.454   1.888
25094W        W93468  23.216  34.894  10.896
25095W        W93469  19.692  40.539   3.768
25096W        W93470  31.935  12.324   2.814
25097W        W93471  15.769  33.039   0.906
25098W        W93472  13.763   3.861  12.947
25099W        W93473   7.769   7.394  13.010
25100W        W93474   4.296  36.883  14.433
25101W        W93475  19.733  29.127   4.670
25102W        W93476  17.757  18.182  13.838
25103W        W93477  27.999  16.581  11.011
25104W        W93478  10.153  29.638   3.174
25105W        W93479  44.928   3.824   1.256
25106W        W93480   4.355  40.014   3.162
25107W        W93481   5.731   3.452   4.619
25108W        W93482  17.563  10.248  13.875
25109W        W93483  39.015  35.454   0.787
25110W        W93484   0.947  37.023  11.493
25111W        W93485  14.636  27.045   4.611
25112W        W93486  44.418  27.533   1.287
25113W        W93487  34.451   5.701  11.876
25114W        W93488  39.361  11.811   2.179
25115W        W93489  25.665  11.824  14.888
25116W        W93490   4.420  20.084  13.451
25117W        W93491  26.668  36.085  12.460
25118W        W93492  11.293  23.033   2.264
25119W        W93493  44.426  35.053  13.016
25120W        W93494  31.925  43.835   1.827
25121W        W93495  17.714  25.969  12.849
25122W        W93496   9.689  32.910  11.869
25123W        W93497  36.523  13.753  13.462
25124W        W93498  16.678  31.943  10.148
25125W        W93499  28.492  37.958  13.975
25126W        W93500   3.353  16.639   0.951
25127W        W93501  38.002  42.844  14.487
25128W        W93502   3.896  22.078   1.929
25129W        W93503  32.961  15.248   1.772
25130W        W93504  36.080  24.712  14.346
25131W        W93505  37.042  41.906  14.400
25132W        W93506  11.703  21.056  12.528
25133W        W93507  19.555   9.718  12.931
25134W        W93508  24.518  21.618  13.871
25135W        W93509  23.225  24.193  12.954
25136W        W93510   0.476  33.454   0.416
25137W        W93511  33.045   0.306  12.408
25138W        W93512  10.681  11.787   4.333
25139W        W93513  15.262  13.189  13.880
25140W        W93514  37.070  12.657  11.462
25141W        W93515  38.524  34.966  14.303
25142W        W93516  37.894   6.192   1.268
25143W        W93517   3.732   3.315   5.118
25144W        W93518  43.920  35.963  10.577
25145W        W93519  30.924  35.034  11.017
25146W        W93520   5.264   1.349  11.043
25147W        W93521  20.629  38.345   3.654
25148W        W93522  38.913  33.413  12.930
25149W        W93523  36.421  12.784  10.149
25150W        W93524  36.382  32.439  14.365
25151W        W93525  43.872  30.969   3.265
25152W        W93526  19.228  10.818  12.963
25153W        W93527  17.152  24.591  12.054
25154W        W93528   9.663  10.383  10.910
25155W        W93529  33.120  39.342   2.183
25156W        W93530  26.672  43.425   4.731
25157W        W93531  36.847  23.121   1.775
25158W        W93532  11.788  39.038   3.664
25159W        W93533  15.149  43.273   1.350
25160W        W93534  10.879  35.928  12.578
25161W        W93535   9.702  25.689  12.043
25162W        W93536  25.594  20.034   0.333
25163W        W93537  38.949  41.518   3.709
25164W        W93538  33.535  36.989  11.486
25165W        W93539  31.572   5.360   2.739
25166W        W93540  17.088  36.007   2.723
25167W        W93541  39.487   8.809  11.050
25168W        W93542  30.033  16.581  12.541
25169W        W93543  39.516  10.347  12.880
25170W        W93544  41.444  38.067  10.584
25171W        W93545  11.247  43.320   4.601
25172W        W93546  40.464  15.236   4.739
25173W        W93547   3.417   4.250  10.535
25174W        W93548  43.465  20.551  11.045
25175W        W93549  11.221  16.634   3.831
25176W        W93550  23.521  28.037  11.461
25177W        W93551  33.908  37.336  10.411
25178W        W93552  12.823  34.456   1.279
25179W        W93553  14.203  11.645   1.444
25180W        W93554   1.959  24.527   4.675
25181W        W93555  23.177  13.231  11.869
25182W        W93556  26.607  14.303   4.238
25183W        W93557  21.626  26.038  10.469
25184W        W93558  38.043  13.183   4.681
25185W        W93559  39.381   0.869  12.422
25186W        W93560   4.383  14.335  10.936
25187W        W93561   0.299  39.551  12.054
25188W        W93562  27.675  39.466  12.396
25189W        W93563  43.830  20.142  10.567
25190W        W93564  34.988  28.509  12.437
25191W        W93565  30.931   6.870   1.701
25192W        W93566  40.485   9.768  12.021
25193W        W93567  24.503  13.313   0.848
25194W        W93568  31.522   6.291   2.708
25195W        W93569   6.814  31.014  11.553
25196W        W93570  26.670  29.501   3.631
25197W        W93571   6.222  32.057   1.256
25198W        W93572  34.453  15.819   2.778
25199W        W93573  44.286  23.603   0.758
25200W        W93574  39.380  11.782  12.485
25201W        W93575  36.491  16.652  10.011
25202W        W93576  37.929  11.235  10.572
25203W        W93577  13.276  35.382   2.778
25204W        W93578  43.941  12.310   4.611
25205W        W93579  40.968   2.772  11.913
25206W        W93580  15.310  24.137  12.368
25207W        W93581  22.709  17.571   3.809
25208W        W93582   7.781  23.541   0.433
25209W        W93583  27.941  37.935   1.294
25210W        W93584  29.128  42.898   0.304
25211W        W93585  41.417  35.527   2.874
25212W        W93586   6.420  20.654   3.218
25213W        W93587  41.964  35.909  11.925
25214W        W93588   2.905  15.145  13.868
25215W        W93589  33.489  38.461   0.967
25216W        W93590  26.499  30.492   3.360
25217W        W93591  10.656  26.632   2.359
25218W        W93592  41.362  32.457   2.865
25219W        W93593   4.292  29.553   4.327
25220W        W93594  13.110  14.239  11.888
25221W        W93595   1.405   5.343  12.535
25222W        W93596  31.052  30.437  13.048
25223W        W93597   3.452  27.070   2.332
25224W        W93598  44.985   5.726   3.321
25225W        W93599  28.567  43.895   2.761
25226W        W93600  28.075  29.162  12.531
25227W        W93601  23.220  30.917   4.342
25228W        W93602  31.497  19.603  14.277
25229W        W93603  17.743  32.020   4.166
25230W        W93604  35.854  15.669  13.795
25231W        W93605  14.312  43.864   4.602
25232W        W93606   0.857  39.420   1.826
25233W        W93607  25.630  39.511  11.545
25234W        W93608   6.379  22.647   0.939
25235W        W93609   6.745  17.651  12.461
25236W        W93610   9.279   0.863   9.923
25237W        W93611  25.046   8.789  10.908
25238W        W93612  36.370  21.191   4.175
25239W        W93613  23.530  12.706   0.302
25240W        W93614  19.619  34.381   3.849
25241W        W93615  11.249  37.977   3.821
25242W        W93616  43.289  37.477  14.410
25243W        W93617  23.077  13.677   2.857
25244W        W93618   6.686   7.354  11.864
25245W        W93619  37.066   0.796   3.852
25246W        W93620  42.441   1.819  13.816
25247W        W93621  21.258  31.977   3.695
25248W        W93622  35.417   9.346  12.549
25249W        W93623  23.040   7.225   1.278
25250W        W93624   2.369  21.105   3.785
25251W        W93625  27.650  35.986   0.732
25252W        W93626  16.182  20.743   0.795
25253W        W93627  30.413   1.770  13.031
25254W        W93628  17.716  36.912   2.844
25255W        W93629  44.890  44.284   1.841
25256W        W93630  15.259  36.049  11.515
25257W        W93631   6.699  24.640  14.354
25258W        W93632  19.228  18.140   3.853
25259W        W93633  36.057   9.877  13.458
25260W        W93634  41.343  16.159  12.860
25261W        W93635  34.558  39.875   3.632
25262W        W93636  18.702  39.815  13.907
25263W        W93637  38.398  19.218  14.511
25264W        W93638   1.861   4.798  14.805
25265W        W93639  33.023   3.755   1.801
25266W        W93640   3.259  39.881   0.943
25267W        W93641  35.504   3.275   4.761
25268W        W93642  23.664  19.760   1.851
25269W        W93643  12.684  19.259   0.792
25270W        W93644  33.996   0.391   3.204
25271W        W93645  19.734  23.660  13.500
25272W        W93646  16.740  19.608  10.890
25273W        W93647  25.182  16.626   3.689
25274W        W93648  25.510  31.976   0.857
25275W        W93649  18.649  15.226  13.441
25276W        W93650   0.745  30.980  13.456
25277W        W93651   7.872  39.937  11.129
25278W        W93652  26.124  35.525   0.793
25279W        W93653  43.789  43.987   3.356
25280W        W93654  28.593  31.017  11.539
25281W        W93655  41.999   0.490  11.089
25282W        W93656   0.450  32.481  12.904
25283W        W93657  16.190   1.754  13.493
25284W        W93658  38.444  38.027   3.783
25285W        W93659  34.519  26.518  12.847
25286W        W93660  33.417  17.677  12.941
25287W        W93661  32.990  34.874   3.381
25288W        W93662   5.219  15.118   2.257
25289W        W93663  28.112  10.834   5.193
25290W        W93664  13.191  33.954  12.009
25291W        W93665  20.683   4.730   4.336
25292W        W93666   6.811  16.635  11.016
25293W        W93667  32.140  23.191   0.322
25294W        W93668  43.004  34.025   1.431
25295W        W93669  23.989  18.756  13.792
25296W        W93670   3.386  22.067   1.422
25297W        W93671  20.208  20.685   1.882
25298W        W93672  13.608  44.919   1.350
25299W        W93673  10.811   9.293  13.928
25300W        W93674  14.665  44.289  12.056
25301W        W93675   6.763  39.041  10.985
25302W        W93676  33.529  18.230   9.965
25303W        W93677  31.445  19.758  12.083
25304W        W93678  22.661  44.418   4.235
25305W        W93679  11.797   3.904   4.606
25306W        W93680  39.515  30.956   4.250
25307W        W93681  16.608  22.065  13.461
25308W        W93682  29.005  19.679   2.330
25309W        W93683  14.231  37.430   3.308
25310W        W93684  29.474  20.717   1.734
25311W        W93685  17.751  12.619  11.468
25312W        W93686  16.605   0.969  13.840
25313W        W93687   1.822   7.878  13.899
25314W        W93688   7.255   2.845  12.853
25315W        W93689  14.313  26.058   0.334
25316W        W93690  22.687  22.706   4.663
25317W        W93691  31.528  32.448   0.320
25318W        W93692  39.432   3.756   1.433
25319W        W93693  43.323   8.221  11.560
25320W        W93694  40.053  30.157   1.723
25321W        W93695  42.323  18.152  13.029
25322W        W93696  29.661  31.611   0.958
25323W        W93697  10.860  39.343  14.319
25324W        W93698  24.096  33.476  14.871
25325W        W93699  30.421  21.620  12.922
25326W        W93700  26.085  14.279  11.088
25327W        W93701  10.257   4.915  13.047
25328W        W93702  36.373  36.887   1.433
25329W        W93703   0.970  26.018   1.702
25330W        W93704  44.958  44.854  12.002
25331W        W93705   1.331  41.538   3.313
25332W        W93706  21.662  27.599   4.711
25333W        W93707  35.362  32.955   4.176
25334W        W93708   1.965   2.880   0.819
25335W        W93709  43.352  28.958  12.030
25336W        W93710  15.728  39.355  14.285
25337W        W93711   4.385  22.210  14.449
25338W        W93712   3.955  19.555  11.999
25339W        W93713   6.261  18.649  12.518
25340W        W93714   7.358   2.829   0.875
25341W        W93715  10.793  20.240  12.937
25342W        W93716   5.231   6.408  10.136
25343W        W93717  37.047  32.450  13.895
25344W        W93718  12.156  10.323   3.796
25345W        W93719  28.074  12.196  12.081
25346W        W93720   4.334  28.466  14.024
25347W        W93721  24.193  35.887  14.028
25348W        W93722  25.171  16.314  12.960
25349W        W93723  20.580  33.918  10.417
25350W        W93724  36.994  24.183  14.949
25351W        W93725  44.802  30.926   3.221
25352W        W93726  14.222  30.628  11.558
25353W        W93727  30.036   9.886  11.897
25354W        W93728  22.665   9.659   1.746
25355W        W93729  35.485  33.587   4.692
25356W        W93730  41.938  42.439  11.416
25357W        W93731   0.248  11.633   2.861
25358W        W93732   0.782   7.379  11.379
25359W        W93733  20.530  40.962  11.920
25360W        W93734  37.968   8.286  13.063
25361W        W93735  28.174  28.117   4.611
25362W        W93736  28.492  19.638   3.204
25363W        W93737   9.217   4.814   1.365
25364W        W93738   4.922  11.863   2.179
25365W        W93739  18.092  34.062  13.512
25366W        W93740  25.179  27.052   2.883
25367W        W93741  17.650  33.047  14.364
25368W        W93742  40.391  42.413   4.199
25369W        W93743   8.386  11.190   3.318
25370W        W93744  33.939  37.916   3.285
25371W        W93745   7.288  10.750   4.806
25372W        W93746  11.317   7.710   0.282
25373W        W93747   4.698   5.879   2.300
25374W        W93748  11.161  19.579  12.835
25375W        W93749  28.142  31.513  11.413
25376W        W93750  31.004  19.189  12.574
25377W        W93751  27.189  34.475   5.280
25378W        W93752   2.838  43.476   4.145
25379W        W93753   9.149  37.057   0.760
25380W        W93754  21.740  14.311  14.795
25381W        W93755  44.480  33.481  13.475
25382W        W93756  44.897  42.790  10.896
25383W        W93757  12.297  12.266   1.255
25384W        W93758  17.617   1.366   4.229
25385W        W93759  30.068  26.638   1.731
25386W        W93760  12.186   3.821   4.785
25387W        W93761  33.508   9.185   0.943
25388W        W93762  39.335  27.036   3.275
25389W        W93763  17.728  27.043   1.211
25390W        W93764  41.808   6.400   3.273
25391W        W93765  40.352  43.492  11.420
25392W        W93766  14.711  25.020   4.766
25393W        W93767   2.406   5.744  13.011
25394W        W93768  36.382   3.938   3.845
25395W        W93769  39.373  28.000  11.471
25396W        W93770  43.890   1.944   0.934
25397W        W93771   6.245  29.997   0.310
25398W        W93772  11.686  37.371  14.383
25399W        W93773  39.330  28.451  14.825
25400W        W93774  22.120  23.192  11.555
25401W        W93775   5.422   3.367  11.913
25402W        W93776   9.754  24.565  13.984
25403W        W93777  20.187  37.550   1.734
25404W        W93778  30.479  13.147  11.110
25405W        W93779  18.752  36.975   4.610
25406W        W93780  11.728   7.768  11.533
25407W        W93781  44.954   8.316  11.544
25408W        W93782  12.260   0.878  12.924
25409W        W93783   4.872  42.830   3.814
25410W        W93784  40.872  44.346   4.253
25411W        W93785  44.259  38.406   5.298
25412W        W93786  32.962   8.754  14.850
25413W        W93787  37.398  24.164  12.437
25414W        W93788  16.718  13.820   2.387
25415W        W93789  16.695  11.297   0.397
25416W        W93790  16.084   8.372  10.424
25417W        W93791  29.967   2.796  12.502
25418W        W93792  33.894  38.056   1.392
25419W        W93793  40.549  36.087  11.378
25420W        W93794   2.836  17.648  14.506
25421W        W93795  11.818   1.475   3.210
25422W        W93796  36.564  30.067   0.768
25423W        W93797  31.990  24.509  12.838
25424W        W93798  32.417   1.377   0.319
25425W        W93799  27.122  41.040   3.205
25426W        W93800  16.700   8.792   1.801
25427W        W93801  33.974  23.114  10.945
25428W        W93802  41.955  38.490  14.947
25429W        W93803   4.867  20.738  11.455
25430W        W93804   6.205  29.645  13.400
25431W        W93805  19.097  30.983   2.715
25432W        W93806  13.638   7.760  14.977
25433W        W93807   1.914  11.306   0.867
25434W        W93808  25.177  22.570   4.209
25435W        W93809  44.348  12.850  11.053
25436W        W93810  18.271  40.943   0.285
25437W        W93811  24.071  30.621  10.076
25438W        W93812   3.220  17.223   3.788
25439W        W93813  39.525  35.056  10.979
25440W        W93814   5.342  24.559   9.990
25441W        W93815  17.766  13.343  11.531
25442W        W93816  39.335  18.774   3.227
25443W        W93817  36.074  13.633  11.438
25444W        W93818  26.070  32.029  10.407
25445W        W93819  36.521  13.224  12.051
25446W        W93820  25.482   8.835  14.760
25447W        W93821  36.910  32.943   0.386
25448W        W93822   5.836  19.763   4.259
25449W        W93823  17.101  10.146  14.783
25450W        W93824   7.806  44.801   1.316
25451W        W93825  20.254   6.682   0.943
25452W        W93826  28.599  44.376  14.482
25453W        W93827   9.311  12.171   4.263
25454W        W93828  44.469  36.474  13.004
25455W        W93829  22.024  10.805  10.949
25456W        W93830  26.560  14.155   3.150
25457W        W93831  13.349  17.748  12.873
25458W        W93832  29.042  31.131  14.392
25459W        W93833  39.350  19.170   3.327
25460W        W93834  16.762  23.124   1.365
25461W        W93835  20.676  42.806  13.494
25462W        W93836  22.159  36.947   4.189
25463W        W93837  38.041   4.878  14.777
25464W        W93838  44.277  41.017   1.845
25465W        W93839  31.944  13.679  12.386
25466W        W93840  17.106   3.220  12.858
25467W        W93841  29.603   3.939  13.894
25468W        W93842  11.193  15.675  14.869
25469W        W93843  32.570   9.842  14.960
25470W        W93844  14.105  15.707   1.376
25471W        W93845  27.567  30.501   2.394
25472W        W93846   8.874  27.066  14.459
25473W        W93847   4.207  43.326  12.543
25474W        W93848  15.703   6.687  11.942
25475W        W93849  17.783  27.547   1.235
25476W        W93850  23.117  43.272  10.523
25477W        W93851  18.700  32.495   1.801
25478W        W93852  42.412  16.284   3.270
25479W        W93853  14.134  44.419  11.913
25480W        W93854   5.930  32.104  12.993
25481W        W93855  39.492  22.106   4.121
25482W        W93856   8.874  42.001  11.875
25483W        W93857  17.792  12.326   1.426
25484W        W93858  23.632  13.227   2.228
25485W        W93859  16.127  15.733   4.839
25486W        W93860  24.684  42.353   3.869
25487W        W93861   6.855  30.520   9.528
25488W        W93862  28.530  29.057  12.912
25489W        W93863  37.032  32.919  13.809
25490W        W93864  39.401   2.333   1.272
25491W        W93865  29.470  18.127   1.933
25492W        W93866   0.911  12.274   4.221
25493W        W93867  22.181  17.619   2.278
25494W        W93868   0.263   3.389  11.380
25495W        W93869  17.179   4.931   0.281
25496W        W93870   9.786  21.679  13.859
25497W        W93871  16.807  10.294  13.403
25498W        W93872  20.647  40.513   3.170
25499W        W93873  30.510  21.588  10.588
25500W        W93874  26.060  11.678  14.346
25501W        W93875  21.210  16.726   3.369
25502W        W93876  34.518  35.519  11.383
25503W        W93877  10.226  31.602   3.866
25504W        W93878  38.512   4.776  14.015
25505W        W93879  35.943  42.840  13.385
25506W        W93880  41.973  11.833   3.172
25507W        W93881  29.544  38.971   3.329
25508W        W93882   8.322  27.644   2.727
25509W        W93883  28.618  13.167  12.983
25510W        W93884  16.296  19.777   0.345
25511W        W93885  41.358  43.811  12.026
25512W        W93886   7.722   5.199  10.911
25513W        W93887  28.106  18.116  14.003
25514W        W93888  17.603  43.892  12.989
25515W        W93889   8.302   4.357   2.667
25516W        W93890  11.647  30.106   4.639
25517W        W93891  43.982  20.148   1.751
25518W        W93892  40.915   4.326  13.546
25519W        W93893  19.732   0.880   1.798
25520W        W93894  20.632  39.550   0.308
25521W        W93895  24.569   2.234   4.226
25522W        W93896  31.414  35.539   3.223
25523W        W93897   4.218  25.106  13.044
25524W        W93898  17.257  39.372   1.829
25525W        W93899   0.829  22.539   0.907
25526W        W93900  27.147   6.195  14.800
25527W        W93901   3.456  22.200   2.267
25528W        W93902  40.978  33.900  13.498
25529W        W93903  12.195  33.500   2.382
25530W        W93904  32.109   2.379  11.074
25531W        W93905  17.659  36.863  13.317
25532W        W93906  17.239   4.437   2.856
25533W        W93907  12.301  32.032  13.843
25534W        W93908  14.118  19.203   2.760
25535W        W93909   9.380  25.055   1.398
25536W        W93910  39.452   0.287   3.706
25537W        W93911  14.643   5.730  11.891
25538W        W93912  44.423  16.218  11.572
25539W        W93913   1.246   5.395  14.462
25540W        W93914   2.727  30.550  10.518
25541W        W93915  10.150   3.269   4.353
25542W        W93916  23.661   5.760   2.728
25543W        W93917  30.642   7.196   0.455
25544W        W93918  28.456   6.324   0.475
25545W        W93919   8.376  40.833   4.772
25546W        W93920  30.431  22.562  11.583
25547W        W93921  40.973  26.664  11.507
25548W        W93922  44.771  35.068   1.424
25549W        W93923   2.765   6.878  13.857
25550W        W93924  24.620   1.418   4.246
25551W        W93925  20.062  42.514  13.541
25552W        W93926  36.009  35.037   1.329
25553W        W93927  24.633  38.544   3.644
25554W        W93928  34.983  27.996   5.282
25555W        W93929  29.921  16.135   1.927
25556W        W93930   0.342  43.804  10.603
25557W        W93931  36.929  21.701  13.527
25558W        W93932  34.069  30.077   1.295
25559W        W93933  19.654   0.910   4.264
25560W        W93934  14.672   7.678   9.572
25561W        W93935  13.240  26.142  14.484
25562W        W93936  12.833  34.552   0.857
25563W        W93937  29.119  34.538   4.681
25564W        W93938  41.413  44.876   4.205
25565W        W93939  30.422  40.381   1.389
25566W        W93940  10.687  41.346  10.530
25567W        W93941  10.792  23.100   1.844
25568W        W93942  43.303  36.091  13.414
25569W        W93943   4.247   1.897  14.290
25570W        W93944   2.803  16.139   1.363
25571W        W93945  41.945  24.628   0.272
25572W        W93946  41.314  39.814  12.484
25573W        W93947  39.352  12.735  10.897
25574W        W93948   8.373   7.177   4.329
25575W        W93949  17.269  12.178  11.962
25576W        W93950   9.853  22.574   4.259
25577W        W93951  20.613  18.702  12.953
25578W        W93952  33.914  15.653   1.729
25579W        W93953  42.330  43.271  12.464
25580W        W93954  44.847   7.331  14.792
25581W        W93955  41.452   1.416  14.463
25582W        W93956  10.178  44.394  11.400
25583W        W93957   8.276  15.707  13.478
25584W        W93958  23.584  14.226   4.136
25585W        W93959  39.541  41.298   2.204
25586W        W93960   9.727  25.037  13.446
25587W        W93961  36.856  24.146  11.995
25588W        W93962  29.136  28.057   3.230
25589W        W93963  37.910   5.293  12.853
25590W        W93964   8.202  10.310  11.388
25591W        W93965  38.331  10.288   4.284
25592W        W93966  21.623  21.554   2.208
25593W        W93967   3.817   3.367   4.720
25594W        W93968  37.086  35.069  12.886
25595W        W93969  35.074  26.467  11.503
25596W        W93970   9.846  26.100   2.809
25597W        W93971  33.104  25.495   0.755
25598W        W93972  35.968  16.208  14.502
25599W        W93973  34.933   9.799  12.352
25600W        W93974   0.743   6.842  12.859
25601W        W93975  32.982  35.996   2.357
25602W        W93976  38.932  12.614  12.998
25603W        W93977   0.366  41.348   3.839
25604W        W93978   6.249  29.940  10.422
25605W        W93979   4.889  39.970   3.363
25606W        W93980  43.359  15.743   0.794
25607W        W93981  18.097   0.472   4.183
25608W        W93982  27.562  28.107  13.446
25609W        W93983  12.290  34.983   1.442
25610W        W93984  33.996  42.882  11.096
25611W        W93985  43.816  43.872   0.758
25612W        W93986  39.432   1.816  12.866
25613W        W93987  36.854  27.074  10.452
25614W        W93988   1.781  25.006  11.911
25615W        W93989  44.816   2.399   2.675
25616W        W93990  19.227  43.801  10.597
25617W        W93991  39.341  14.132   4.675
25618W        W93992   5.277  39.039   2.325
25619W        W93993   2.815  22.046  14.026
25620W        W93994   5.398  18.604  13.995
25621W        W93995  23.163   5.206   4.618
25622W        W93996  21.118  20.721   1.424
25623W        W93997   8.194  43.920   1.883
25624W        W93998   3.940  32.474  11.452
25625W        W93999  26.667   6.917   2.673
25626W        W94000  43.822  42.016   3.802
25627W        W94001  28.617   7.803  12.864
25628W        W94002  25.481  22.724  12.880
25629W        W94003  24.172  19.746  10.117
25630W        W94004  24.132  24.987   3.793
25631W        W94005  30.613   2.943   1.849
25632W        W94006  29.453  17.677  14.346
25633W        W94007  13.303   3.449  12.490
25634W        W94008  26.604   5.357  10.521
25635W        W94009  36.011   2.920  12.008
25636W        W94010  39.405  15.132   0.456
25637W        W94011  42.322  39.053   3.640
25638W        W94012  39.948  30.494   0.812
25639W        W94013  11.825  21.666   2.674
25640W        W94014   7.883  41.889  11.998
25641W        W94015  35.986   0.367   1.421
25642W        W94016  30.112  41.943   0.886
25643W        W94017  32.910   7.703   3.342
25644W        W94018  18.090  31.604   0.370
25645W        W94019  20.274  33.393  11.516
25646W        W94020  12.691  12.750  14.468
25647W        W94021  26.086   1.911   4.292
25648W        W94022  41.806  21.543   1.739
25649W        W94023  37.483  28.681  10.970
25650W        W94024   9.185  10.807   1.446
25651W        W94025  17.785  32.911  14.978
25652W        W94026  28.101   7.393  12.092
25653W        W94027   1.853   6.249  10.459
25654W        W94028  41.315  31.564   0.472
25655W        W94029  29.635   6.345  11.608
25656W        W94030  12.740  24.228  14.952
25657W        W94031  18.613  43.850   4.152
25658W        W94032  33.128  32.516   4.815
25659W        W94033  42.974  23.149  11.492
25660W        W94034  38.820  42.910   0.910
25661W        W94035  10.191  16.625  13.852
25662W        W94036  28.018  23.060  11.058
25663W        W94037   5.368   1.853  10.563
25664W        W94038  42.333  19.147   0.856
25665W        W94039   3.276  42.971  14.026
25666W        W94040  42.476  44.347   2.221
25667W        W94041  32.471  13.319   4.333
25668W        W94042  27.691  10.188  12.384
25669W        W94043  21.242   7.334   4.724
25670W        W94044  44.266   3.236   2.752
25671W        W94045  17.191  20.184   1.741
25672W        W94046  39.377   9.197   1.342
25673W        W94047   2.278   2.399   4.605
25674W        W94048  25.030  13.799  11.088
25675W        W94049  35.386  29.020   2.297
25676W        W94050  43.839  34.493  14.340
25677W        W94051  13.233  39.899  13.359
25678W        W94052  16.744  29.171   4.272
25679W        W94053   6.327   5.264  10.471
25680W        W94054  15.326   1.956  14.860
25681W        W94055  38.334  24.074  14.512
25682W        W94056   0.300  35.945   3.271
25683W        W94057  38.020  36.972   4.228
25684W        W94058   4.849  11.740  10.549
25685W        W94059  27.673  14.252  13.971
25686W        W94060  15.182  30.553  12.577
25687W        W94061   7.347  27.089   4.292
25688W        W94062  30.426   0.482   3.337
25689W        W94063   1.401  34.460   1.300
25690W        W94064   2.314  32.101   2.251
25691W        W94065  22.177  37.503   4.144
25692W        W94066  21.249  26.133  13.950
25693W        W94067  12.800  37.480  10.581
25694W        W94068   6.913  38.450  11.024
25695W        W94069  30.467  44.793  10.446
25696W        W94070  30.450  34.072  12.364
25697W        W94071  42.931  15.132  11.919
25698W        W94072  23.719  44.259  13.996
25699W        W94073   2.948  20.746  12.379
25700W        W94074  33.874   7.896  12.448
25701W        W94075  44.296  11.795   4.252
25702W        W94076  18.547  31.986   1.434
25703W        W94077   0.451   9.652  14.027
25704W        W94078  23.635  30.483   3.365
25705W        W94079   4.911  40.357  10.482
25706W        W94080  27.472  19.638  14.909
25707W        W94081  25.071   7.332  11.004
25708W        W94082  29.049  26.511  13.038
25709W        W94083   2.740  33.409  13.512
25710W        W94084  29.620   7.290  11.922
25711W        W94085   1.827  13.740  12.521
25712W        W94086  41.008  18.761  13.481
25713W        W94087   8.386  40.421  14.413
25714W        W94088  35.082   7.703  14.504
25715W        W94089   7.234  32.468  13.823
25716W        W94090  20.148  27.184  10.461
25717W        W94091   3.217  17.089   5.266
25718W        W94092  30.619  35.470  13.310
25719W        W94093  44.371  15.304  13.904
25720W        W94094   9.818  35.552  10.927
25721W        W94095   2.727   7.886   2.701
25722W        W94096   8.192   3.392  12.378
25723W        W94097  39.341  34.949   0.272
25724W        W94098  28.455   3.241   1.729
25725W        W94099  21.637  10.761   3.252
25726W        W94100  18.115   5.372  11.398
25727W        W94101  32.502   4.233   4.753
25728W        W94102  20.104  40.513   4.274
25729W        W94103   9.887  43.773  11.556
25730W        W94104   0.299  43.466  14.942
25731W        W94105  12.125  42.985  12.413
25732W        W94106  23.172  42.462  14.352
25733W        W94107  25.164  42.341  11.009
25734W        W94108  38.470   7.893   0.443
25735W        W94109  11.158  18.246  10.963
25736W        W94110  15.303  21.166   2.765
25737W        W94111   2.803  32.578  13.839
25738W        W94112  44.794  38.877  11.487
25739W        W94113  36.023  29.152  11.436
25740W        W94114  43.273  12.251   3.852
25741W        W94115   2.237  40.023  14.345
25742W        W94116  36.358   0.381  10.527
25743W        W94117   1.783  13.231   2.731
25744W        W94118  27.030   6.257   1.785
25745W        W94119  12.771  30.493   0.877
25746W        W94120  28.066   9.209   1.910
25747W        W94121  35.094  21.660  14.289
25748W        W94122  39.510  10.138  11.437
25749W        W94123  31.122  22.682  14.337
25750W        W94124  35.373  22.592  10.567
25751W        W94125  16.570  42.872   0.294
25752W        W94126  34.393   0.852   1.221
25753W        W94127  19.704  36.412   1.765
25754W        W94128   0.819  23.698   0.929
25755W        W94129  36.081  21.053   0.457
25756W        W94130  22.065   4.386  13.436
25757W        W94131   2.934  26.970  13.005
25758W        W94132  17.590  37.500  14.966
25759W        W94133  25.993   5.700   1.700
25760W        W94134  30.041  21.044   1.261
25761W        W94135  25.683  29.152  11.906
25762W        W94136  36.875  26.117   4.614
25763W        W94137  33.610  35.364  14.978
25764W        W94138   5.311  11.229   4.730
25765W        W94139  25.082  32.447   1.424
25766W        W94140  13.688  44.994  11.860
25767W        W94141  44.002  14.821   0.760
25768W        W94142  34.089   3.345  11.978
25769W        W94143  17.168  42.810   3.688
25770W        W94144  10.836   3.350   0.263
25771W        W94145  26.203  14.775   0.449
25772W        W94146  33.601  23.114  11.406
25773W        W94147  20.058  32.918  11.066
25774W        W94148  39.895  29.463   1.905
25775W        W94149   2.730  21.619  12.453
25776W        W94150  40.343  17.224   0.333
25777W        W94151  40.988  17.111  14.874
25778W        W94152  20.545  39.882   4.127
25779W        W94153  12.826   1.731   2.345
25780W        W94154  11.787  43.817  13.351
25781W        W94155  37.426  43.999  14.770
25782W        W94156  38.021  28.665   4.710
25783W        W94157   1.838  11.825   4.680
25784W        W94158  32.503  38.413  12.959
25785W        W94159  36.373  15.103   0.460
25786W        W94160   6.713  43.300  14.507
25787W        W94161   8.861  32.483   3.229
25788W        W94162  32.558   3.764  11.082
25789W        W94163  14.723   5.345   4.619
25790W        W94164  20.556  38.072  14.982
25791W        W94165  44.970   4.243  12.982
25792W        W94166  41.353  37.869   0.379
25793W        W94167  37.534  25.006   0.279
25794W        W94168  44.954  39.492  14.276
25795W        W94169   1.462  15.821   1.705
25796W        W94170  42.933   8.383   4.793
25797W        W94171  21.140  28.172   2.200
25798W        W94172   0.808   0.416  13.448
25799W        W94173  23.707   0.882  10.409
25800W        W94174  37.909  39.003  13.472
25801W        W94175  41.349  18.568   2.876
25802W        W94176  41.897  37.866  10.919
25803W        W94177  44.887  26.056  13.887
25804W        W94178  21.023  28.525   4.142
25805W        W94179  25.628  30.050  11.525
25806W        W94180  35.008  11.198  11.918
25807W        W94181  22.241   6.740  12.079
25808W        W94182  19.069  21.575   2.227
25809W        W94183   1.402  26.169  13.818
25810W        W94184  13.627  26.491  11.984
25811W        W94185  29.148  21.186  11.908
25812W        W94186  31.937   7.798  14.969
25813W        W94187  44.467  41.810  14.778
25814W        W94188  17.725  31.460  13.027
25815W        W94189  10.313  21.238   2.220
25816W        W94190   8.715   9.319   1.384
25817W        W94191  27.513  21.749  14.289
25818W        W94192  24.100  26.984  12.836
25819W        W94193  44.380  21.030  10.508
25820W        W94194  16.289  29.603  11.443
25821W        W94195  13.710  11.667   4.831
25822W        W94196  34.594  37.874  11.011
25823W        W94197  40.032  24.129   2.753
25824W        W94198  17.562  30.534  10.888
25825W        W94199  40.319  30.039  14.362
25826W        W94200  19.182  10.750   3.686
25827W        W94201  11.666  30.609   3.652
25828W        W94202  17.693  43.319   4.757
25829W        W94203   5.207  23.532   3.373
25830W        W94204  16.744  13.644   1.366
25831W        W94205  34.915  41.513  11.544
25832W        W94206  21.680  16.680  13.810
25833W        W94207   1.278  29.036  14.806
25834W        W94208   0.301  17.613   4.619
25835W        W94209  36.945  22.997  12.478
25836W        W94210  36.997  26.110   1.370
25837W        W94211  20.671   9.320   0.855
25838W        W94212  23.228  16.202   5.220
25839W        W94213   6.737  30.159  11.495
25840W        W94214   9.836  34.548  10.424
25841W        W94215  29.648  20.178   2.754
25842W        W94216   6.271  26.962   3.786
25843W        W94217   2.932   5.749   3.797
25844W        W94218  30.487  16.266   0.861
25845W        W94219  32.635   4.912   2.258
25846W        W94220  34.075  36.949   2.730
25847W        W94221   6.332  38.877  11.985
25848W        W94222  41.530  17.795   3.756
25849W        W94223   3.952  18.167   1.695
25850W        W94224  39.846  40.817  10.549
25851W        W94225  31.496  26.643  13.037
25852W        W94226  36.052  21.519  14.326
25853W        W94227  19.740  10.762  12.405
25854W        W94228  37.337  14.116  10.608
25855W        W94229  31.119  35.402  11.383
25856W        W94230  10.646  40.023  14.486
25857W        W94231  24.707  37.876   0.762
25858W        W94232  17.304  18.095   2.794
25859W        W94233  24.098  36.483   3.295
25860W        W94234  13.197  33.900   1.336
25861W        W94235   0.934  18.607   1.347
25862W        W94236  11.667  20.565   2.184
25863W        W94237  12.299   1.781   1.386
25864W        W94238  18.062  35.429  11.925
25865W        W94239   2.930  22.185  11.009
25866W        W94240  36.425  17.757  13.855
25867W        W94241   1.449  37.943   2.228
25868W        W94242  27.186   0.431  12.998
25869W        W94243  37.044  14.724  11.520
25870W        W94244  28.470   3.857  13.320
25871W        W94245   7.870  14.739  13.839
25872W        W94246   0.941  41.895   3.744
25873W        W94247  41.445   8.668   1.756
25874W        W94248  26.570  41.537   2.695
25875W        W94249   8.258  37.364  11.472
25876W        W94250  32.544  42.983   2.691
25877W        W94251  26.147  39.019  10.590
25878W        W94252   1.337   6.772   4.613
25879W        W94253  17.176  36.859  10.461
25880W        W94254  13.272  39.887  11.023
25881W        W94255  11.145  26.557  13.064
25882W        W94256  35.908  23.686  10.582
25883W        W94257  34.067  21.156  12.383
25884W        W94258  38.514  34.381   4.649
25885W        W94259  16.197  44.762  12.910
25886W        W94260  12.333  38.073  12.932
25887W        W94261  21.157  26.633   3.657
25888W        W94262  43.319   2.345  14.431
25889W        W94263  27.016   9.863   3.645
25890W        W94264   0.838  24.591  12.015
25891W        W94265   8.711  27.947   1.856
25892W        W94266   7.723   3.883   2.765
25893W        W94267  10.237  26.107   3.267
25894W        W94268   9.668  37.349  13.809
25895W        W94269  32.487   6.745  12.068
25896W        W94270  32.042  34.877  14.513
25897W        W94271  37.396   5.223  12.512
25898W        W94272  41.874  33.380   4.641
25899W        W94273  26.613  16.271  10.588
25900W        W94274  11.225  27.048   1.318
25901W        W94275  29.029  16.312   2.359
25902W        W94276  17.107  17.129   1.213
25903W        W94277   5.751  39.492   4.127
25904W        W94278  12.250  37.368   2.806
25905W        W94279  18.069  43.855   0.247
25906W        W94280  33.412   0.810   2.806
25907W        W94281   1.422  15.695  14.896
25908W        W94282  27.088  40.401  13.058
25909W        W94283  36.844  44.442  12.976
25910W        W94284  22.601   3.343  12.942
25911W        W94285  26.504  18.715   4.758
25912W        W94286  28.552  19.718  13.333
25913W        W94287  30.094  44.905   9.542
25914W        W94288  30.100  21.552   2.236
25915W        W94289  28.465   0.278  14.993
25916W        W94290  15.736   9.885   3.670
25917W        W94291  44.280  30.136  11.085
25918W        W94292  42.985   9.715   1.768
25919W        W94293  31.497  21.179  12.414
25920W        W94294  21.537  30.627   2.286
25921W        W94295  32.009  44.422  13.008
25922W        W94296  23.611  37.356   3.663
25923W        W94297  11.661  18.589   1.319
25924W        W94298  29.140  11.865  11.414
25925W        W94299  20.244  11.214   3.837
25926W        W94300   9.787  13.109   4.708
25927W        W94301   3.334  42.890   1.223
25928W        W94302  29.430  31.947  10.580
25929W        W94303  41.015  36.367  14.481
25930W        W94304   0.921  10.824   0.927
25931W        W94305  22.561  13.697  13.996
25932W        W94306  44.356  14.713   4.201
25933W        W94307  26.126  33.483   2.360
25934W        W94308  30.415  15.810   2.376
25935W        W94309  40.540  18.102   4.627
25936W        W94310   3.786  10.679   3.209
25937W        W94311  29.558  38.994  10.938
25938W        W94312  23.106  14.226   0.911
25939W        W94313  16.210  29.154   0.475
25940W        W94314  29.020  16.585  13.005
25941W        W94315  42.487   6.752   0.261
25942W        W94316  33.081  12.303  10.479
25943W        W94317  36.371  37.881  12.544
25944W        W94318   8.336  11.155  12.062
25945W        W94319  14.616  33.464  14.896
25946W        W94320  29.955  21.166  10.417
25947W        W94321   5.293  44.343   0.921
25948W        W94322  26.668  34.465  11.094
25949W        W94323   7.304  42.281   3.844
25950W        W94324  25.201   4.241  13.368
25951W        W94325  20.148  21.099   4.629
25952W        W94326   2.883  15.790  14.486
25953W        W94327  17.606  17.632  11.071
25954W        W94328  40.895  40.518   4.149
25955W        W94329   3.424   6.711  12.879
25956W        W94330  18.069  35.067   1.912
25957W        W94331  18.251  38.881   2.704
25958W        W94332   5.817  40.456   1.752
25959W        W94333  44.912  33.420  11.419
25960W        W94334  17.725   7.196   3.717
25961W        W94335  39.872  32.927   3.789
25962W        W94336  31.111  16.786  14.367
25963W        W94337  12.843  30.110  13.063
25964W        W94338   4.399  13.334  13.029
25965W        W94339  37.953  28.170   0.248
25966W        W94340  27.573  35.012   0.430
25967W        W94341   3.399  18.084  10.153
25968W        W94342  38.411  13.734   3.181
25969W        W94343  36.577   7.327   3.194
25970W        W94344  19.049  43.358  13.893
25971W        W94345  37.002  31.931  14.303
25972W        W94346   0.319   1.329   4.199
25973W        W94347  40.046  35.107  11.479
25974W        W94348  19.188  18.611  11.451
25975W        W94349  42.895  18.203   4.142
25976W        W94350  34.878  16.813   0.739
25977W        W94351  27.626  30.539  12.421
25978W        W94352  27.011  36.586  11.128
25979W        W94353  33.615  10.379   1.797
25980W        W94354  39.989  13.139   2.197
25981W        W94355  32.896  39.480  10.585
25982W        W94356   2.368  29.971  11.884
25983W        W94357  33.500  30.058   9.998
25984W        W94358  37.870  41.489  13.515
25985W        W94359  29.550  25.128  11.593
25986W        W94360  18.066  26.177  11.090
25987W        W94361  39.942  25.981  13.062
25988W        W94362  22.600  34.993   2.261
25989W        W94363  25.573   8.740   0.841
25990W        W94364  30.640   5.707   3.272
25991W        W94365  20.133   5.327   2.750
25992W        W94366  13.653  38.013   2.248
25993W        W94367  36.936   3.745   4.297
25994W        W94368  31.983  41.946   4.250
25995W        W94369  38.503   6.917   4.818
25996W        W94370  39.867  18.165  13.045
25997W        W94371   7.253  41.849   3.212
25998W        W94372  27.563   6.891  13.891
25999W        W94373  13.265   1.425   3.708
26000W        W94374  39.437  10.751   0.364
26001W        W94375  22.503  20.578  11.901
26002W        W94376  21.245  29.129  12.861
26003W        W94377  23.164  36.026  12.399
26004W        W94378  32.465  43.934  11.005
26005W        W94379  11.228  36.358   0.384
26006W        W94380  18.755  41.359   3.271
26007W        W94381  34.946  22.662   3.386
26008W        W94382  22.717  32.044   4.222
26009W        W94383  17.101  35.518   1.721
26010W        W94384  28.519  33.399   0.248
26011W        W94385   6.798  22.629   0.288
26012W        W94386  36.951   7.769  13.831
26013W        W94387  23.192  14.724   4.653
26014W        W94388  36.555  25.477  12.521
26015W        W94389  22.126   0.449  14.815
26016W        W94390  15.279  28.637   1.859
26017W        W94391  39.049  34.594  10.953
26018W        W94392  26.565  40.952   1.299
26019W        W94393  26.100  20.085  11.546
26020W        W94394  26.198  28.996   3.335
26021W        W94395  37.375  36.933   0.945
26022W        W94396  40.042  44.985  14.481
26023W        W94397  41.291  20.643   0.479
26024W        W94398   9.395  21.683  10.445
26025W        W94399  29.569  12.158   0.734
26026W        W94400  27.664  35.867   2.253
26027W        W94401  11.863  17.104   0.757
26028W        W94402  35.471  15.798   0.897
26029W        W94403  19.103  40.386   1.378
26030W        W94404   2.242   4.428   2.375
26031W        W94405  43.004  38.939   0.371
26032W        W94406   5.879  30.587   2.274
26033W        W94407  17.658  33.427   4.758
26034W        W94408   8.348   9.195  13.813
26035W        W94409   0.256  30.552   0.251
26036W        W94410  12.797  36.404   2.281
26037W        W94411   1.272  14.642   2.375
26038W        W94412  26.122  18.189   2.849
26039W        W94413  10.780  33.467   2.367
26040W        W94414  14.671   2.363  13.049
26041W        W94415   9.213  12.213   0.261
26042W        W94416  22.222  38.044  12.912
26043W        W94417   6.744   1.831  14.985
26044W        W94418  34.584   2.360  13.940
26045W        W94419  14.588  40.964  12.376
26046W        W94420  43.391  11.667  10.538
26047W        W94421  25.193  19.602   4.771
26048W        W94422  28.594   7.737   1.863
26049W        W94423   5.224  37.469  10.608
26050W        W94424  44.497  12.230   2.743
26051W        W94425  36.500   2.308   2.387
26052W        W94426  23.081  20.544   4.820
26053W        W94427  19.568   0.368  13.804
26054W        W94428  13.629  30.603   3.781
26055W        W94429  21.570  27.033   3.212
26056W        W94430  17.670  17.561  14.846
26057W        W94431  36.022  35.966   1.842
26058W        W94432  36.589  40.375  11.551
26059W        W94433  33.990  12.645  11.016
26060W        W94434   7.686  10.708   3.360
26061W        W94435  21.155  19.666   0.297
26062W        W94436  44.814  12.146  11.959
26063W        W94437  43.500  33.557   1.244
26064W        W94438  28.009  42.306  13.835
26065W        W94439   0.261  10.236   0.825
26066W        W94440  15.139  34.011   1.876
26067W        W94441  29.972  33.516  11.065
26068W        W94442   2.879  15.175  12.999
26069W        W94443   4.259   5.245   1.290
26070W        W94444  26.692  22.722  12.397
26071W        W94445  27.495  15.102   3.292
26072W        W94446  35.002  29.567   1.292
26073W        W94447  32.918   8.808  14.357
26074W        W94448   4.342  35.366  13.485
26075W        W94449  29.597  17.775   3.249
26076W        W94450  41.354  44.425  11.522
26077W        W94451  33.510  27.643   1.451
26078W        W94452  30.442  29.652   1.223
26079W        W94453   1.907  28.548  13.884
26080W        W94454  23.025  41.041   2.401
26081W        W94455  43.014  22.608  14.966
26082W        W94456   0.329  10.639  14.762
26083W        W94457  39.521  22.626   2.847
26084W        W94458  12.765   5.762   4.281
26085W        W94459  12.267   5.360   2.838
26086W        W94460  26.535  31.450  13.475
26087W        W94461  17.122  22.045   4.611
26088W        W94462  31.434   4.929  13.428
26089W        W94463  14.162  15.112  12.485
26090W        W94464  27.085  36.568   2.190
26091W        W94465  26.574  15.112   4.755
26092W        W94466  18.191  33.513   1.915
26093W        W94467  30.068  20.693   3.219
26094W        W94468  43.298   2.759  10.952
26095W        W94469   0.248  19.533   3.790
26096W        W94470   8.716  42.010  12.849
26097W        W94471  13.304  21.559   1.231
26098W        W94472  29.426  33.913  12.566
26099W        W94473  16.102  41.809   0.397
26100W        W94474  10.277  30.975  13.493
26101W        W94475   9.352  26.132   4.677
26102W        W94476  11.861  10.731   4.718
26103W        W94477  29.653  14.715  11.952
26104W        W94478   6.291  38.496  11.547
26105W        W94479  19.598  26.572  12.531
26106W        W94480  17.106  21.127  12.579
26107W        W94481  29.091   1.764  13.812
26108W        W94482  33.523  15.580   0.392
26109W        W94483  25.581  10.249   2.352
26110W        W94484  27.165  33.025  13.041
26111W        W94485  11.736  41.302  11.997
26112W        W94486   7.172   5.758  13.927
26113W        W94487  30.564   0.926  13.977
26114W        W94488  10.293  42.408  10.525
26115W        W94489   2.397  21.652  10.463
26116W        W94490  22.208  44.361   3.331
26117W        W94491  38.010  44.482  10.635
26118W        W94492  31.036   4.715   4.609
26119W        W94493  21.748  24.530   1.342
26120W        W94494  12.334  36.562  14.802
26121W        W94495  33.000   2.403   2.692
26122W        W94496   7.783   3.899  12.048
26123W        W94497  37.430   3.234   5.105
26124W        W94498  18.708  21.062   5.086
26125W        W94499  37.028  24.587   2.391
26126W        W94500   2.724  21.525  13.953
26127W        W94501  13.638  13.227   2.179
26128W        W94502  18.150   4.936  12.417
26129W        W94503  42.806  38.361   4.731
26130W        W94504   2.888  21.253   2.248
26131W        W94505  15.158  41.372   0.838
26132W        W94506  24.105  43.916  14.473
26133W        W94507  17.103  10.170   1.913
26134W        W94508  25.668  16.680   1.718
26135W        W94509  38.353  32.000  10.504
26136W        W94510  40.388  30.482  14.335
26137W        W94511  23.564   4.741  11.475
26138W        W94512  24.568  23.216   0.909
26139W        W94513  32.527  17.291  10.130
26140W        W94514  26.181  12.344  13.005
26141W        W94515  43.353  11.185  11.463
26142W        W94516  33.517  11.352   0.441
26143W        W94517   7.339   8.721   0.928
26144W        W94518  33.971  27.466  12.047
26145W        W94519  25.709  36.512   2.201
26146W        W94520   9.697   0.742  13.498
26147W        W94521  40.801  39.866   1.860
26148W        W94522  13.266  34.494  14.280
26149W        W94523  12.245  32.424  12.867
26150W        W94524   2.863  18.188  11.859
26151W        W94525  38.871  14.691  11.504
26152W        W94526  30.067   5.323   1.402
26153W        W94527  13.331  36.516   4.805
26154W        W94528  22.645  38.340  13.917
26155W        W94529  37.432  25.556  10.492
26156W        W94530  23.999  13.298  14.806
26157W        W94531   3.244  20.065  13.513
26158W        W94532   5.214  15.092  14.985
26159W        W94533  44.490  40.965   1.256
26160W        W94534  36.016  32.460  11.476
26161W        W94535  15.319   0.309   0.304
26162W        W94536  11.765   9.805   2.801
26163W        W94537  44.488  23.224  10.891
26164W        W94538  24.063  17.108   2.286
26165W        W94539   1.444  43.286  11.090
26166W        W94540  23.532  23.073   2.272
26167W        W94541  44.851  17.147  10.917
26168W        W94542  22.087  14.682   0.947
26169W        W94543  29.464  36.948   1.284
26170W        W94544  31.513  43.443  14.462
26171W        W94545   1.419  29.942   3.247
26172W        W94546  17.569  37.909  10.965
26173W        W94547  12.763   0.427   4.280
26174W        W94548  32.930  39.940   2.771
26175W        W94549   9.847  32.937  10.573
26176W        W94550  10.828   7.910   1.768
26177W        W94551   5.791  36.556  10.914
26178W        W94552  26.511  19.274   4.817
26179W        W94553  23.513  21.141  13.539
26180W        W94554  34.912  25.565   2.722
26181W        W94555  21.639  21.058  12.886
26182W        W94556  30.640   9.158  11.422
26183W        W94557   0.933   8.773  14.309
26184W        W94558  21.674   4.263   3.338
26185W        W94559  39.012  22.640   4.601
26186W        W94560  19.270  35.938   3.148
26187W        W94561  24.497  31.560  12.498
26188W        W94562   1.272  24.996   2.286
26189W        W94563  40.475   0.434  10.899
26190W        W94564   8.786  21.101   9.600
26191W        W94565   1.803   3.764   4.160
26192W        W94566  31.983  28.158   2.235
26193W        W94567   3.225  18.265   4.338
26194W        W94568  41.438   9.393  12.092
26195W        W94569   2.797  27.592  11.604
26196W        W94570  19.739  40.454   3.167
26197W        W94571  20.049  21.087  13.985
26198W        W94572  12.855  22.510   0.839
26199W        W94573  18.275  35.493  14.015
26200W        W94574  22.574  18.064  14.818
26201W        W94575  42.793  14.131   5.243
26202W        W94576  31.518  41.023   2.690
26203W        W94577   5.906   8.874   1.815
26204W        W94578  38.006  31.609   0.863
26205W        W94579  20.592  28.444   1.807
26206W        W94580  30.599  40.898  11.957
26207W        W94581   8.224   8.366  13.917
26208W        W94582   2.880  22.616   1.295
26209W        W94583  35.025  41.512   2.832
26210W        W94584  21.192  24.620   0.909
26211W        W94585  17.226  13.724   4.153
26212W        W94586  34.594   3.371   0.833
26213W        W94587  38.464  30.579   0.798
26214W        W94588  35.933   5.763   4.321
26215W        W94589   3.447   1.324  11.116
26216W        W94590  20.626  28.594   4.174
26217W        W94591   7.742  22.063   1.430
26218W        W94592  13.771   3.937   4.717
26219W        W94593  18.224  42.800   0.279
26220W        W94594   4.876   3.247  12.405
26221W        W94595  12.192  15.310  11.610
26222W        W94596   5.747  14.276  12.056
26223W        W94597  40.810  34.387  11.864
26224W        W94598  25.120   4.754   3.226
26225W        W94599  17.211  25.190   5.125
26226W        W94600  18.777  32.570  10.901
26227W        W94601  23.039  27.459   4.143
26228W        W94602  16.221  37.013  14.924
26229W        W94603   1.837  44.438  12.922
26230W        W94604   5.341   7.232   3.295
26231W        W94605  18.668  40.871   3.705
26232W        W94606   5.897  39.876   4.210
26233W        W94607  30.039  12.153  11.998
26234W        W94608  25.510  20.243  11.569
26235W        W94609  37.925   7.705  14.985
26236W        W94610  30.636  16.279  13.000
26237W        W94611  11.142  15.124   0.295
26238W        W94612   3.803  17.667  10.423
26239W        W94613  18.180  27.530  10.582
26240W        W94614   5.778   2.772   0.784
26241W        W94615   1.332  26.532   2.693
26242W        W94616  25.475  28.163   4.656
26243W        W94617   2.911   9.797   0.362
26244W        W94618  15.664  36.909   1.874
26245W        W94619   6.199  36.436  12.025
26246W        W94620  40.822   2.788  14.022
26247W        W94621  40.953  37.406  13.892
26248W        W94622  31.620  26.131   3.243
26249W        W94623  39.848  20.161   3.763
26250W        W94624  22.545  13.727   0.915
26251W        W94625   0.838   0.825  14.008
26252W        W94626  17.121   2.847  12.343
26253W        W94627   5.220   7.219  12.440
26254W        W94628  23.084  18.225  14.879
26255W        W94629  32.592   8.679   1.334
26256W        W94630  10.658   1.846   3.362
26257W        W94631   7.205   1.854  13.458
26258W        W94632  21.748   7.792   0.331
26259W        W94633  38.326  36.932  11.091
26260W        W94634  39.549  23.549  14.370
26261W        W94635   5.816  37.859  12.860
26262W        W94636  19.095  22.111  13.908
26263W        W94637  35.919  10.790   4.205
26264W        W94638  16.746   1.412   0.739
26265W        W94639  38.041  15.708   4.656
26266W        W94640  29.098  13.607   2.357
26267W        W94641  40.355  40.022   4.225
26268W        W94642   4.784  44.369  13.833
26269W        W94643  29.004   9.803   1.840
26270W        W94644   2.910  13.629   4.284
26271W        W94645  23.719  13.321  13.802
26272W        W94646  39.339   9.360  10.016
26273W        W94647  21.074  19.686   5.190
26274W        W94648   8.711  38.985  12.521
26275W        W94649   3.437  29.666  12.437
26276W        W94650  17.258  39.033  11.128
26277W        W94651  20.266  24.674  13.010
26278W        W94652  42.928  43.988  12.051
26279W        W94653  38.009  39.551  12.943
26280W        W94654  21.722  32.076   4.616
26281W        W94655  41.321   5.350  14.404
26282W        W94656  34.548  35.094   1.706
26283W        W94657  10.763   9.342   4.267
26284W        W94658  28.945  41.376  10.624
26285W        W94659  39.060  13.704  14.023
26286W        W94660   1.845  39.517  14.374
26287W        W94661  11.725  32.934  11.115
26288W        W94662  44.430  14.660  13.985
26289W        W94663   4.781  41.354   2.228
26290W        W94664  28.468  31.607   2.389
26291W        W94665  17.233  42.808  11.427
26292W        W94666  42.442  14.609  13.341
26293W        W94667  12.238   5.346  12.078
26294W        W94668  23.085  31.640   0.373
26295W        W94669  35.852   8.846   1.267
26296W        W94670  37.844   1.842  12.355
26297W        W94671  40.971   6.278  11.374
26298W        W94672  30.597  35.068  13.847
26299W        W94673  14.687  14.713  10.900
26300W        W94674  12.173  35.478   3.169
26301W        W94675  34.934   4.876  12.925
26302W        W94676  14.283  11.328  12.959
26303W        W94677  31.932  22.697  11.453
26304W        W94678  13.244  14.197  10.494
26305W        W94679  12.631   5.211   3.788
26306W        W94680   3.317  26.600  13.950
26307W        W94681  10.639  19.535  10.966
26308W        W94682  31.025   7.776  14.913
26309W        W94683  12.771  11.225   1.246
26310W        W94684  23.156   5.893  12.960
26311W        W94685  22.704  41.005  12.090
26312W        W94686  38.457  43.907   0.379
26313W        W94687  41.450   4.731   3.791
26314W        W94688  14.128   8.848  11.918
26315W        W94689  27.967  16.625  12.392
26316W        W94690  40.306  14.787   1.738
26317W        W94691  17.734   3.456  14.915
26318W        W94692  37.481   4.224  13.425
26319W        W94693   6.682  43.362  13.857
26320W        W94694   1.854  37.481   0.729
26321W        W94695  23.105  25.059  13.006
26322W        W94696  23.138   7.352   3.342
26323W        W94697   6.693  41.504  13.998
26324W        W94698  30.608  36.391   0.482
26325W        W94699  42.301  43.007   2.735
26326W        W94700  14.783  23.117   2.773
26327W        W94701  34.462  41.008   1.727
26328W        W94702   7.364   0.388  11.576
26329W        W94703   2.743  44.975  11.073
26330W        W94704  35.872  22.077   3.370
26331W        W94705   1.418  42.817  14.419
26332W        W94706  31.971   0.365   0.915
26333W        W94707  39.029  42.494  10.107
26334W        W94708  42.809   1.810   3.153
26335W        W94709  37.077  17.217  11.917
26336W        W94710  40.031  31.527  11.558
26337W        W94711  16.270  28.526  14.759
26338W        W94712   7.345  22.604  11.114
26339W        W94713  36.521  22.576  11.539
26340W        W94714  12.705  28.128   1.842
26341W        W94715   4.923  12.707  14.471
26342W        W94716  10.708  29.986  13.994
26343W        W94717  17.074  37.389  11.881
26344W        W94718  33.092  32.573   3.159
26345W        W94719  30.098  19.262  13.962
26346W        W94720  21.144  39.819   2.385
26347W        W94721  42.852  19.218  13.037
26348W        W94722  37.544   6.848  10.561
26349W        W94723  31.519  13.164  10.610
26350W        W94724   1.344   2.461   4.260
26351W        W94725  17.657   7.829  12.536
26352W        W94726  43.287  10.230   0.799
26353W        W94727  38.008  17.113   1.434
26354W        W94728  24.119  44.366   3.642
26355W        W94729  35.361  30.545  14.292
26356W        W94730   3.895  44.301   2.334
26357W        W94731  26.596  28.031   0.288
26358W        W94732  18.722  33.025  12.945
26359W        W94733  15.216  24.614  14.407
26360W        W94734  39.552   7.315   0.346
26361W        W94735   5.866  41.966  10.974
26362W        W94736   0.924  38.551   3.242
26363W        W94737  25.977  19.062  11.474
26364W        W94738  22.033  32.407   1.407
26365W        W94739  10.859  24.668   4.699
26366W        W94740  15.280  33.956   4.326
26367W        W94741   7.370  27.651   3.869
26368W        W94742  35.543  14.791   3.271
26369W        W94743  42.402   9.646   1.296
26370W        W94744  25.023  16.786  13.912
26371W        W94745  28.099  42.899   9.633
26372W        W94746  37.909  39.057  11.564
26373W        W94747  10.768   1.938   3.629
26374W        W94748  42.026  43.919  10.635
26375W        W94749  36.094   9.718   0.363
26376W        W94750  33.097   8.227  14.875
26377W        W94751  44.317  11.795  14.025
26378W        W94752   5.852  31.569  12.993
26379W        W94753  43.339  31.601   1.309
26380W        W94754  33.499  37.931  14.012
26381W        W94755   9.776  32.089   0.809
26382W        W94756   3.425  42.843   3.372
26383W        W94757  24.612   7.894  11.966
26384W        W94758  25.052  40.915   4.253
26385W        W94759  31.446  12.766  13.548
26386W        W94760  24.015  16.271  11.053
26387W        W94761  25.001  40.432  14.809
26388W        W94762  25.516  18.197  12.534
26389W        W94763  25.649  44.835  10.433
26390W        W94764  29.610  43.494   3.247
26391W        W94765  17.181  27.170   3.709
26392W        W94766  36.023  35.428  11.602
26393W        W94767  32.026  19.565   1.224
26394W        W94768  37.046  21.753  11.508
26395W        W94769  29.624  21.742   2.289
26396W        W94770   6.693  19.593   1.392
26397W        W94771  33.125  38.393  11.576
26398W        W94772   6.382  26.151   2.731
26399W        W94773  42.033  34.063   3.298
26400W        W94774  42.791  32.507   3.231
26401W        W94775   7.760  25.561   0.841
26402W        W94776   4.768  14.832  11.886
26403W        W94777  41.438  19.570  13.821
26404W        W94778  32.398  41.915   3.234
26405W        W94779  24.135   6.706   0.757
26406W        W94780   1.458  37.451  10.492
26407W        W94781   5.889  14.641  11.060
26408W        W94782  44.473   7.869   0.257
26409W        W94783   9.696  21.180  14.990
26410W        W94784  32.086  41.940   1.776
26411W        W94785   2.875  17.563   1.330
26412W        W94786  25.043  16.121   2.891
26413W        W94787  40.316  26.479  14.865
26414W        W94788  19.757   5.816  11.540
26415W        W94789   9.296  40.993   0.842
26416W        W94790  33.095   8.233   2.206
26417W        W94791  23.175  37.372   5.108
26418W        W94792  10.198   9.743   4.601
26419W        W94793  11.671  19.275   1.340
26420W        W94794  20.529   6.677   2.852
26421W        W94795  32.060  33.434   2.212
26422W        W94796  30.043  43.387  13.310
26423W        W94797   5.887   7.896   1.838
26424W        W94798   7.192  38.332   4.661
26425W        W94799  41.447  12.193  10.459
26426W        W94800  11.202  28.473   0.874
26427W        W94801  15.634  34.521   3.156
26428W        W94802  26.034  31.592  10.523
26429W        W94803  33.937  44.757   3.369
26430W        W94804  34.926  43.856   2.261
26431W        W94805   4.203  24.579   2.702
26432W        W94806  18.124  37.857  13.476
26433W        W94807   5.390  29.929   2.883
26434W        W94808  19.768  25.645   1.297
26435W        W94809   6.197  39.854   3.803
26436W        W94810  27.609  33.090   2.348
26437W        W94811  39.390  12.346   1.352
26438W        W94812  15.579  27.044   1.388
26439W        W94813   8.314  42.366  10.432
26440W        W94814  25.636  14.823   4.824
26441W        W94815  36.534  34.966   4.601
26442W        W94816  36.968   8.752  14.362
26443W        W94817  16.577  13.640   0.326
26444W        W94818  26.202   1.340   4.265
26445W        W94819   2.957  41.331  13.812
26446W        W94820  43.774  27.692   0.780
26447W        W94821   8.665  33.421  10.997
26448W        W94822  13.217  11.196   4.649
26449W        W94823  15.722  21.181   0.915
26450W        W94824   9.157  37.874   4.304
26451W        W94825  38.562   6.368  14.349
26452W        W94826   9.750  21.242  14.398
26453W        W94827  44.337  35.908  13.005
26454W        W94828  33.983  12.335  10.406
26455W        W94829   5.817  32.573  11.044
26456W        W94830   8.693  44.402   4.230
26457W        W94831  10.273  21.143   0.272
26458W        W94832  40.481  16.812  11.093
26459W        W94833  41.922  10.839   4.605
26460W        W94834  22.132  26.128  14.902
26461W        W94835  28.463  17.104   2.375
26462W        W94836   5.705  36.049  14.877
26463W        W94837   8.834  26.052  11.120
26464W        W94838  36.566  44.504   0.880
26465W        W94839   9.215  18.268   3.646
26466W        W94840  12.808  40.441   0.827
26467W        W94841  17.137  40.818  10.570
26468W        W94842   4.858   9.187   4.747
26469W        W94843  20.256  20.552  13.494
26470W        W94844  26.573  36.900  13.822
26471W        W94845  29.652   1.797  12.887
26472W        W94846  13.672   8.855  13.891
26473W        W94847  31.939  34.610  12.381
26474W        W94848   1.430  43.454   2.675
26475W        W94849   1.854  31.125   1.250
26476W        W94850  38.067  10.235  13.971
26477W        W94851   5.769  30.414  11.424
26478W        W94852   0.374  42.516   2.803
26479W        W94853   0.850  20.090  10.580
26480W        W94854  31.122   8.180   0.339
26481W        W94855  19.125   9.304   4.732
26482W        W94856  14.725   9.197   0.927
26483W        W94857  15.784  28.514  11.976
26484W        W94858  26.582  17.136  12.529
26485W        W94859  32.604  21.620   0.273
26486W        W94860  20.570  17.730   0.326
26487W        W94861  17.109  34.965   3.344
26488W        W94862   2.293   5.371  11.559
26489W        W94863  21.622  22.067   3.168
26490W        W94864  19.684  42.953  10.609
26491W        W94865  11.289  25.192  11.125
26492W        W94866  33.537  17.672  13.854
26493W        W94867  30.920  10.651  11.458
26494W        W94868  42.349  28.651  12.492
26495W        W94869  15.722  39.870   1.800
26496W        W94870  20.128  25.606   0.321
26497W        W94871  28.457  13.143  14.289
26498W        W94872  37.910  25.005   4.169
26499W        W94873  25.558   1.412  11.087
26500W        W94874  42.971  13.233  14.872
26501W        W94875  15.626  35.949  10.891
26502W        W94876  35.587  40.046  14.873
26503W        W94877  36.390  28.672   0.256
26504W        W94878   8.873  12.318   2.874
26505W        W94879   6.865   2.352  12.552
26506W        W94880  40.810  42.998  13.001
26507W        W94881  35.377  12.835   1.797
26508W        W94882  38.541  42.851  14.383
26509W        W94883  22.244   0.350   3.715
26510W        W94884  39.983  10.227  14.490
26511W        W94885   0.391  25.070   3.244
26512W        W94886  16.155  19.154   2.687
26513W        W94887  16.270  10.155   2.203
26514W        W94888  17.285  25.187  13.034
26515W        W94889  38.971  31.424  12.992
26516W        W94890  22.731  10.810  11.468
26517W        W94891  38.487  22.101  14.471
26518W        W94892  26.201  16.251   4.703
26519W        W94893  20.751  21.755  11.002
26520W        W94894   6.901   8.240  14.313
26521W        W94895  13.664   6.406   2.849
26522W        W94896  32.480  12.346   1.874
26523W        W94897   3.409  18.607   2.206
26524W        W94898  33.604   5.330   2.312
26525W        W94899  26.206  19.061  10.547
26526W        W94900   0.867  39.519   4.715
26527W        W94901  30.912  22.039  11.871
26528W        W94902  13.289  14.769  13.933
26529W        W94903  41.936  18.226   3.216
26530W        W94904  44.011  16.712  13.959
26531W        W94905  44.940  40.822  14.000
26532W        W94906  21.552  29.056   0.338
26533W        W94907  34.580  22.098  10.970
26534W        W94908  44.316  19.606   0.790
26535W        W94909   6.235   6.413  14.954
26536W        W94910  20.619  42.994  13.052
26537W        W94911  38.429  10.784   1.871
26538W        W94912  38.988  24.169   3.853
26539W        W94913  10.189  16.296   2.763
26540W        W94914  25.964  36.462   4.635
26541W        W94915  18.563   5.273  12.573
26542W        W94916  39.941   8.769  12.055
26543W        W94917   5.438  40.936  11.560
26544W        W94918  22.730   4.246  13.867
26545W        W94919  11.681  29.548   0.389
26546W        W94920  38.434   0.923  10.898
26547W        W94921  43.803   1.244  13.945
26548W        W94922   2.937  11.276  11.022
26549W        W94923  28.596  30.516   1.890
26550W        W94924  17.257  43.408  11.501
26551W        W94925  16.192  44.285   9.972
26552W        W94926   6.780   0.322   0.420
26553W        W94927  19.231   9.717  13.843
26554W        W94928  44.816  23.091  12.346
26555W        W94929   5.765  28.931   9.622
26556W        W94930  28.548   3.459  10.443
26557W        W94931  10.167  12.184  10.608
26558W        W94932  16.313  15.801   3.686
26559W        W94933   6.881   1.938   3.788
26560W        W94934  18.546  27.103   1.722
26561W        W94935  25.479  42.315  13.500
26562W        W94936  30.083  21.159   0.921
26563W        W94937  33.552  31.977  12.966
26564W        W94938  42.492  32.937   3.361
26565W        W94939  43.839  42.815   2.665
26566W        W94940  42.364  24.611  12.464
26567W        W94941  32.911  27.471   0.902
26568W        W94942   5.310  10.775   2.708
26569W        W94943  22.226  18.556   4.170
26570W        W94944  25.006  20.260   3.688
26571W        W94945  30.107   1.292   1.302
26572W        W94946   6.920  19.559  12.072
26573W        W94947  28.122  29.992   4.608
26574W        W94948  34.460   0.963  14.883
26575W        W94949   4.316  22.567  14.891
26576W        W94950  35.404  12.168   1.787
26577W        W94951   6.825  22.636  12.362
26578W        W94952  38.415   7.195   4.153
26579W        W94953  29.065  25.019   1.339
26580W        W94954  16.249   3.762   1.796
26581W        W94955  21.178  26.185  12.021
26582W        W94956  42.447   6.917   4.752
26583W        W94957  11.673  44.361   4.162
26584W        W94958   7.240  37.846  13.939
26585W        W94959   5.912  12.662  14.804
26586W        W94960  35.910  31.117   3.170
26587W        W94961  42.963  25.963  13.475
26588W        W94962  12.732  22.629  13.842
26589W        W94963  43.941   8.888  11.906
26590W        W94964   0.884  20.663  14.013
26591W        W94965  43.991  37.855  14.907
26592W        W94966   4.713  39.326   3.149
26593W        W94967  19.076  12.255  14.444
26594W        W94968  12.818  43.794   4.160
26595W        W94969  18.107   1.731   0.861
26596W        W94970  41.396  18.136  13.548
26597W        W94971  38.977  11.702   3.780
26598W        W94972   4.446  40.478   4.671
26599W        W94973  28.040  25.005   2.818
26600W        W94974  26.570  36.403   3.632
26601W        W94975   8.336  37.004  14.922
26602W        W94976  27.584  33.605   2.269
26603W        W94977  19.233  21.671  13.384
26604W        W94978  42.477  35.036  13.978
26605W        W94979  11.731   9.841   4.674
26606W        W94980  17.211  15.115  14.481
26607W        W94981  25.468  24.106   1.246
26608W        W94982   4.725   7.838  11.612
26609W        W94983   3.719  40.524   1.436
26610W        W94984   3.432  39.523   2.742
26611W        W94985  27.171  31.144   4.312
26612W        W94986  42.498  24.042   1.833
26613W        W94987  35.546  35.533   4.178
26614W        W94988  38.457  23.024   0.334
26615W        W94989  15.125   9.380   0.299
26616W        W94990  39.328  42.903  14.504
26617W        W94991  35.451   7.277   1.238
26618W        W94992   8.334  25.612   1.395
26619W        W94993  30.551  32.125   2.801
26620W        W94994  19.055   1.785   4.311
26621W        W94995  43.296   6.828  11.408
26622W        W94996  23.573   6.241  11.126
26623W        W94997  25.991   9.774   4.616
26624W        W94998   1.977  33.444   1.441
26625W        W94999   3.875  10.210  12.351
26626W        W95000  32.502  12.194   4.626
26627W        W95001   0.963   6.824  11.885
26628W        W95002  12.289  39.421   4.708
26629W        W95003  13.634  18.233   4.754
26630W        W95004  34.606  18.783  14.443
26631W        W95005  21.143  40.847   0.778
26632W        W95006  31.562  17.261   2.238
26633W        W95007  14.098  39.832   2.777
26634W        W95008   5.822  34.865   2.276
26635W        W95009  44.982  13.606  13.875
26636W        W95010  27.187  14.235   1.883
26637W        W95011  18.657  31.091  12.858
26638W        W95012   9.304  13.600  14.412
26639W        W95013  23.062  34.398  13.949
26640W        W95014  43.444   8.213   4.703
26641W        W95015  24.071   4.387  13.832
26642W        W95016  18.081  19.566   2.816
26643W        W95017   7.847  33.593   0.442
26644W        W95018   3.950  21.727  12.078
26645W        W95019  31.021   2.401  12.389
26646W        W95020  31.084  30.597  13.330
26647W        W95021  10.704  25.193   3.338
26648W        W95022  41.991  38.330   1.278
26649W        W95023   1.249   0.888  11.585
26650W        W95024  11.231  28.472   4.164
26651W        W95025  16.784  39.061   0.465
26652W        W95026  42.348  27.121   4.826
26653W        W95027  10.691  43.389   2.354
26654W        W95028  10.239  26.477   1.355
26655W        W95029  10.771  40.869   4.209
26656W        W95030  36.518  28.132  12.018
26657W        W95031   0.792   8.699  10.545
26658W        W95032   5.208  43.766  10.455
26659W        W95033  28.637  20.243  12.468
26660W        W95034  22.038  14.189  11.975
26661W        W95035  12.321  40.402   0.244
26662W        W95036  24.585  39.006   3.814
26663W        W95037  11.731  12.267  11.393
26664W        W95038   1.289   3.237   1.896
26665W        W95039  23.568   4.862   0.737
26666W        W95040   5.301  27.955   1.846
26667W        W95041  18.207  24.643  10.441
26668W        W95042   3.422  12.322   2.756
26669W        W95043  22.014  35.890  11.058
26670W        W95044   7.391  44.797   0.299
26671W        W95045  26.480  31.907   0.329
26672W        W95046  14.659  27.152   3.846
26673W        W95047  42.912  25.538   0.926
26674W        W95048  16.297   9.376   4.788
26675W        W95049  25.022  23.023  11.436
26676W        W95050   2.301  10.672   0.816
26677W        W95051  11.794  16.317   4.329
26678W        W95052   3.865   9.710   3.829
26679W        W95053   6.388   8.856  13.034
26680W        W95054  16.780  23.142   3.145
26681W        W95055  11.289  43.949   0.471
26682W        W95056  37.836  30.648  13.517
26683W        W95057  41.826  12.297   3.681
26684W        W95058   2.831  34.977  13.462
26685W        W95059  34.385  40.521  13.530
26686W        W95060  20.134   5.856  14.787
26687W        W95061  32.526  33.484   1.296
26688W        W95062  25.671   0.365   0.877
26689W        W95063  28.182  30.616   5.107
26690W        W95064   8.173  17.633   9.571
26691W        W95065  25.139   5.324  13.363
26692W        W95066   8.820  30.539   1.366
26693W        W95067  44.500  22.673   1.266
26694W        W95068  19.274  44.313  11.599
26695W        W95069  40.338  16.676  10.635
26696W        W95070  25.638  17.171   5.804
26697W        W95071  39.484  24.676   4.791
26698W        W95072   2.808  19.190   1.728
26699W        W95073  22.029  40.882   5.082
26700W        W95074  10.172  44.807  11.919
26701W        W95075   0.776   4.331  12.452
26702W        W95076  26.958  19.622  14.822
26703W        W95077  27.676   4.381   0.462
26704W        W95078  25.130  39.525   0.326
26705W        W95079  32.583  43.329   0.254
26706W        W95080  11.746  22.078   1.278
26707W        W95081  18.548  30.046  13.456
26708W        W95082  14.835  25.994  11.059
26709W        W95083  29.651  25.622  10.601
26710W        W95084  37.556  23.212  13.021
26711W        W95085   9.380  32.140  12.007
26712W        W95086  23.646  41.992   4.201
26713W        W95087  28.615  36.028   4.312
26714W        W95088  30.102  17.607  12.443
26715W        W95089  35.539   1.466  13.878
26716W        W95090  41.513  42.523  10.403
26717W        W95091  42.473   3.363   0.382
26718W        W95092  13.350  10.197  11.415
26719W        W95093  11.155  24.521   3.188
26720W        W95094  38.978  28.177   9.960
26721W        W95095  18.169  34.039   1.237
26722W        W95096  25.468  27.951  13.534
26723W        W95097  29.975  40.808   4.309
26724W        W95098  25.163  10.854   0.260
26725W        W95099  20.662  20.197   2.697
26726W        W95100  33.382  32.561  14.515
26727W        W95101  42.333  14.679  12.018
26728W        W95102   2.469  15.298  13.961
26729W        W95103   5.305  25.020   9.946
26730W        W95104   3.276   6.692  11.443
26731W        W95105  23.158  20.153   0.780
26732W        W95106  21.547  44.982   3.248
26733W        W95107  14.757  26.463  11.568
26734W        W95108  44.823   5.726  12.538
26735W        W95109  36.375   1.759   1.317
26736W        W95110  19.544  31.084   3.767
26737W        W95111  41.828  14.682  14.002
26738W        W95112  29.658  11.324   0.393
26739W        W95113  40.326  43.981   4.161
26740W        W95114  35.528  44.908  13.327
26741W        W95115  37.968  30.107   1.316
26742W        W95116  29.067  32.042  13.426
26743W        W95117  14.625  15.735   4.809
26744W        W95118  29.073  22.654  12.364
26745W        W95119  30.030  21.020  11.386
26746W        W95120   4.330  38.052   3.361
26747W        W95121  38.851  39.520   1.925
26748W        W95122   6.265   4.832   3.263
26749W        W95123  36.863  26.162   2.879
26750W        W95124  20.078  30.051   4.652
26751W        W95125  10.308  27.513   3.289
26752W        W95126  44.831  26.513   2.831
26753W        W95127   0.292  12.305  11.594
26754W        W95128   8.665  12.268   1.227
26755W        W95129  11.858  29.666  12.521
26756W        W95130  24.571  43.405  12.547
26757W        W95131  22.597   5.244   4.785
26758W        W95132  42.361  38.558  12.926
26759W        W95133  18.718  18.600   4.119
26760W        W95134   0.374  36.367   0.746
26761W        W95135  21.722   1.341   1.932
26762W        W95136  33.969   5.312   0.894
26763W        W95137  22.179  32.121  14.302
26764W        W95138  32.415  27.546  12.462
26765W        W95139  21.190  22.633  14.826
26766W        W95140   3.830  13.144   0.929
26767W        W95141  32.078  40.992  11.431
26768W        W95142   8.776  24.011  14.377
26769W        W95143  42.986  37.441  11.917
26770W        W95144  14.273  25.047  10.606
26771W        W95145  11.761  28.641  13.975
26772W        W95146  28.184  36.985  14.930
26773W        W95147  21.199   3.807  13.458
26774W        W95148  36.378  26.496   4.711
26775W        W95149  10.201  24.047  14.471
26776W        W95150  15.294  17.725  14.841
26777W        W95151  26.175  44.457   2.682
26778W        W95152   2.369  21.155  12.089
26779W        W95153   7.198  10.168   1.381
26780W        W95154   0.762   3.942  11.862
26781W        W95155  35.505   8.289  14.869
26782W        W95156  13.742  31.426   0.274
26783W        W95157  38.368  34.909  13.529
26784W        W95158  39.532  24.530   3.634
26785W        W95159  12.817  35.503  11.003
26786W        W95160   6.713  38.994  13.445
26787W        W95161  14.690   3.263  14.795
26788W        W95162   4.383  35.396   3.184
26789W        W95163  17.663  10.187   3.756
26790W        W95164  26.972  40.896   4.232
26791W        W95165  37.077  40.381  11.103
26792W        W95166  35.934  26.117   0.870
26793W        W95167   9.844  11.805  10.920
26794W        W95168  18.278  34.983  12.892
26795W        W95169  36.554  36.087  10.112
26796W        W95170  12.767  16.248   1.779
26797W        W95171  21.543   5.836  14.358
26798W        W95172   6.869   6.681  10.545
26799W        W95173   8.813  19.629   3.696
26800W        W95174  19.146  27.015   0.347
26801W        W95175   3.835   9.736  10.891
26802W        W95176   0.768  30.631  13.537
26803W        W95177  14.278  21.726  14.393
26804W        W95178  34.868  18.121  12.017
26805W        W95179  40.882   5.728  11.527
26806W        W95180  10.843  43.943  10.578
26807W        W95181  30.938  32.047   1.299
26808W        W95182  11.191   6.343  12.483
26809W        W95183  27.951  37.959   3.384
26810W        W95184  39.032   0.925   3.769
26811W        W95185  35.493  14.833   3.832
26812W        W95186   0.943  20.749  12.932
26813W        W95187  14.200  14.620  14.782
26814W        W95188   1.472   3.458  12.559
26815W        W95189  33.963  10.808   1.708
26816W        W95190  35.033  32.130  12.973
26817W        W95191  18.295  44.476   1.845
26818W        W95192  36.960   9.759  13.872
26819W        W95193   5.921  38.348  12.924
26820W        W95194   4.763  34.382  13.875
26821W        W95195   0.273  28.047  13.411
26822W        W95196  26.512  32.057  14.023
26823W        W95197  19.576   5.903  13.954
26824W        W95198  26.575  41.920  13.530
26825W        W95199  18.224   3.247  13.443
26826W        W95200  28.002   4.377   0.470
26827W        W95201   5.863  40.026   3.780
26828W        W95202  30.639  42.499  13.446
26829W        W95203   2.792  24.537  13.879
26830W        W95204  18.777   8.749   4.256
26831W        W95205  35.883  31.516   4.639
26832W        W95206   8.371  27.954   2.218
26833W        W95207   0.835  13.630  12.962
26834W        W95208  44.438  42.811   1.762
26835W        W95209  19.181  15.810  13.890
26836W        W95210  34.011  33.564  11.582
26837W        W95211  23.064  44.330   1.750
26838W        W95212   4.773   7.172   1.366
26839W        W95213  22.564  31.532   4.137
26840W        W95214  37.056  34.592  11.514
26841W        W95215  39.446  17.112  11.377
26842W        W95216  22.707  28.623  14.300
26843W        W95217  16.103  27.128  12.410
26844W        W95218  41.915  26.651   0.890
26845W        W95219  31.639  30.432  12.830
26846W        W95220  26.514  21.182   2.297
26847W        W95221  40.363   2.767   4.697
26848W        W95222   3.448   2.277   3.154
26849W        W95223   5.791  37.364  13.339
26850W        W95224  28.115   6.221  13.474
26851W        W95225  41.496  21.744   2.757
26852W        W95226  42.332  19.135   2.801
26853W        W95227  27.470  12.807  10.484
26854W        W95228  42.798   2.255   3.747
26855W        W95229  18.237  40.930  12.436
26856W        W95230  23.047  36.414   3.844
26857W        W95231   2.331  32.457  12.341
26858W        W95232  44.991   9.290  10.583
26859W        W95233  25.085  42.904  12.358
26860W        W95234  20.601  25.694   3.695
26861W        W95235  44.829  32.625   3.675
26862W        W95236  40.398  11.670   3.699
26863W        W95237  34.924  31.988   0.900
26864W        W95238  39.894  34.469  10.960
26865W        W95239  25.501   1.740   2.333
26866W        W95240   6.339  26.623   3.689
26867W        W95241  26.632  14.144  11.987
26868W        W95242  34.500  27.053  13.924
26869W        W95243   2.344  37.492  13.883
26870W        W95244  29.530  18.732  13.026
26871W        W95245  33.902  23.190   4.620
26872W        W95246   0.809  20.589   4.834
26873W        W95247  41.470  33.462  12.061
26874W        W95248   3.925  16.761   4.781
26875W        W95249  43.864  20.135   3.717
26876W        W95250  23.232  11.622   3.681
26877W        W95251  19.196  20.707   1.323
26878W        W95252  25.029   6.729   1.885
26879W        W95253  18.577  28.979   1.929
26880W        W95254  39.474  34.474   0.378
26881W        W95255  23.706   4.698  10.920
26882W        W95256  33.954  26.595   1.395
26883W        W95257   0.856  27.529   2.741
26884W        W95258  25.685  36.935   1.767
26885W        W95259  16.695  37.491   4.130
26886W        W95260  37.953   8.753  13.486
26887W        W95261  30.102  37.007  14.430
26888W        W95262   5.264  14.664  11.469
26889W        W95263  16.126  34.004   3.810
26890W        W95264  17.626   9.385   0.755
26891W        W95265  44.310  13.207  13.928
26892W        W95266  38.844   8.828  11.964
26893W        W95267  27.164  18.138   1.812
26894W        W95268  25.962  37.899   1.277
26895W        W95269   0.379   5.800  10.943
26896W        W95270  10.298   4.821   0.749
26897W        W95271   3.830  37.074   2.679
26898W        W95272  39.463  38.440   0.768
26899W        W95273   8.277  27.485   3.298
26900W        W95274  15.253  21.685  13.397
26901W        W95275  19.063  14.287  11.592
26902W        W95276   1.289   4.824   4.239
26903W        W95277   4.820   3.436   0.416
26904W        W95278  37.905  43.432  13.833
26905W        W95279  38.912  18.109  10.907
26906W        W95280  44.452   4.799   0.329
26907W        W95281   6.354  34.540   4.747
26908W        W95282  39.365  43.333   1.806
26909W        W95283  29.169  22.066   4.805
26910W        W95284  27.987  33.050  14.828
26911W        W95285  17.108  39.063  14.334
26912W        W95286  31.104   0.885   0.279
26913W        W95287   5.427  29.436  13.867
26914W        W95288  16.808  35.056  10.443
26915W        W95289  30.451  29.663  12.569
26916W        W95290  32.997   3.840   4.828
26917W        W95291  39.018  27.475   0.403
26918W        W95292   7.319  10.290  11.101
26919W        W95293  14.651  11.362   5.280
26920W        W95294   2.252  21.176  13.402
26921W        W95295   6.699  24.710  11.091
26922W        W95296  14.297  17.197  10.585
26923W        W95297  18.629  36.846   2.187
26924W        W95298  35.466   1.919   1.373
26925W        W95299  24.039  31.113   9.978
26926W        W95300  22.506  25.143   0.881
26927W        W95301   0.288  33.984   4.208
26928W        W95302  16.658  28.539   1.330
26929W        W95303   2.442  32.987  12.344
26930W        W95304  21.197  11.192   0.265
26931W        W95305  26.497   0.436  11.605
26932W        W95306  41.424  32.466  14.768
26933W        W95307  26.703  23.161   3.845
26934W        W95308  12.158  36.466  11.544
26935W        W95309   6.214  33.879  10.419
26936W        W95310   5.769  37.974   3.330
26937W        W95311   5.843  33.469  13.997
26938W        W95312  26.177  31.618   2.266
26939W        W95313  34.571  39.470  11.565
26940W        W95314  19.112  11.370  12.551
26941W        W95315  36.540  29.511  11.450
26942W        W95316  42.311  43.851   1.213
26943W        W95317   3.427  33.117  11.021
26944W        W95318  33.467  11.279  12.847
26945W        W95319  41.374  42.480  14.760
26946W        W95320  31.097   9.846   2.206
26947W        W95321   7.387   0.815  12.954
26948W        W95322   4.429  25.601  13.421
26949W        W95323   5.400  13.217  14.810
26950W        W95324   3.267  25.008  10.540
26951W        W95325  30.562  16.621  14.384
26952W        W95326  42.483  29.164  14.982
26953W        W95327  19.535  25.597   1.813
26954W        W95328  33.947  43.805  11.104
26955W        W95329  36.568  34.537  14.472
26956W        W95330   5.231  34.037  12.846
26957W        W95331   6.296  33.409  13.813
26958W        W95332  28.985  20.550   3.233
26959W        W95333  11.732  44.345  12.466
26960W        W95334  13.822  37.037   0.397
26961W        W95335  25.058  13.249   1.874
26962W        W95336  15.094   0.384   3.728
26963W        W95337  44.963  15.088   0.395
26964W        W95338  23.086  17.736   2.853
26965W        W95339  26.629  11.361  10.543
26966W        W95340  36.041   6.376  13.466
26967W        W95341  29.125  37.419   1.908
26968W        W95342   8.897  30.572   2.408
26969W        W95343  34.882  11.661  14.363
26970W        W95344  38.841  33.009   0.944
26971W        W95345   2.229  43.488   2.224
26972W        W95346  17.728  33.561   2.686
26973W        W95347  25.977  16.802  11.527
26974W        W95348   1.276  14.125  12.371
26975W        W95349   7.810  14.253   1.920
26976W        W95350  44.851  11.244  13.953
26977W        W95351   7.171  22.653  11.999
26978W        W95352  27.189  33.520   0.246
26979W        W95353  29.555  41.993   0.431
26980W        W95354  39.914   5.735  11.927
26981W        W95355  30.940  21.554   2.259
26982W        W95356  27.093   7.415   3.817
26983W        W95357  27.534  40.924   3.275
26984W        W95358  24.175  14.609   4.826
26985W        W95359  14.822  39.334   4.119
26986W        W95360  17.562   6.361  14.387
26987W        W95361  14.297  10.703   1.225
26988W        W95362  12.179  40.935  12.826
26989W        W95363   4.400   8.814  13.490
26990W        W95364  35.886   8.168  14.486
26991W        W95365  15.735  20.685  12.572
26992W        W95366   2.389   8.285   1.935
26993W        W95367   2.890  36.583   3.271
26994W        W95368  42.956  27.185   1.870
26995W        W95369   4.701  23.209   4.800
26996W        W95370  15.666  34.083   3.713
26997W        W95371  27.968  22.220   2.293
26998W        W95372  31.494  14.235   3.825
26999W        W95373  22.115  38.537   2.395
27000W        W95374  38.880  12.657   4.169
27001W        W95375  44.844  15.621  13.063
27002W        W95376  26.173  20.638   0.432
27003W        W95377  14.327  24.586   4.709
27004W        W95378  21.725   9.163   2.859
27005W        W95379  20.225  33.479  12.384
27006W        W95380   1.965  18.736   0.861
27007W        W95381  30.543  34.454   1.726
27008W        W95382  28.110  21.693  11.571
27009W        W95383  12.349   5.264   3.652
27010W        W95384  15.154  14.117  14.348
27011W        W95385  19.088  30.924   4.810
27012W        W95386  35.905  32.004   1.864
27013W        W95387  15.311  24.057  14.842
27014W        W95388   4.445  10.820   1.885
27015W        W95389  37.087   4.733   0.749
27016W        W95390   8.241  33.391  10.945
27017W        W95391  31.542   8.346   1.256
27018W        W95392   5.698  11.635   1.908
27019W        W95393  24.994  44.817  11.091
27020W        W95394  20.761  21.532   2.769
27021W        W95395  21.019  17.598  11.499
27022W        W95396  28.111  31.012   4.742
27023W        W95397  40.461  11.666   2.790
27024W        W95398   4.261  14.272  11.931
27025W        W95399  27.979  30.561  14.354
27026W        W95400  29.017  20.692  12.879
27027W        W95401   5.250  18.631  11.397
27028W        W95402   2.466  28.435   4.319
27029W        W95403  31.560  32.044  10.486
27030W        W95404   0.934   9.690   2.880
27031W        W95405  15.114  43.428  14.378
27032W        W95406  17.163  30.970  14.964
27033W        W95407  10.713  21.020   2.210
27034W        W95408  29.498  29.534   1.830
27035W        W95409   8.344  36.899  10.983
27036W        W95410  29.571  32.950   1.326
27037W        W95411   3.801  38.900  11.463
27038W        W95412  18.580   0.267  13.442
27039W        W95413  24.038  21.649  11.512
27040W        W95414  26.077  28.484   2.841
27041W        W95415   1.864  41.416   2.298
27042W        W95416  44.420  24.680   9.924
27043W        W95417  39.903   6.303  12.029
27044W        W95418  39.420   1.242   2.399
27045W        W95419  28.121  14.227  13.511
27046W        W95420  33.927   6.828  11.985
27047W        W95421  44.816  33.495   1.773
27048W        W95422  35.897  10.381   2.850
27049W        W95423  32.601  14.134  14.867
27050W        W95424  14.638  10.197   0.297
27051W        W95425  24.198  25.139   0.327
27052W        W95426  31.541  23.616   3.742
27053W        W95427  13.153  14.657   1.848
27054W        W95428  37.552  30.040   2.388
27055W        W95429  26.664  10.151  11.966
27056W        W95430  41.918  20.234   2.187
27057W        W95431  23.179  44.376  13.868
27058W        W95432  22.564   2.259  10.459
27059W        W95433  42.410   8.867   2.211
27060W        W95434  12.748   3.388  13.405
27061W        W95435  34.583   3.824   1.304
27062W        W95436  32.545  34.042   1.853
27063W        W95437  40.471  35.434  14.491
27064W        W95438  44.441  24.153  12.533
27065W        W95439  27.996   8.876  14.008
27066W        W95440  10.199  35.060   1.262
27067W        W95441  37.398  21.724   2.386
27068W        W95442  12.623  18.577  12.866
27069W        W95443  13.838  43.370   2.364
27070W        W95444  33.573   5.839   0.305
27071W        W95445  35.522  36.436   1.365
27072W        W95446   1.480  16.681   2.263
27073W        W95447  29.579  18.742   2.198
27074W        W95448  10.195  24.177   1.853
27075W        W95449  19.263  43.773   2.271
27076W        W95450  31.946   3.413  14.438
27077W        W95451   9.322  34.582   2.367
27078W        W95452  27.191  21.623   2.185
27079W        W95453  44.309  37.339   3.225
27080W        W95454  36.056  12.645   0.914
27081W        W95455  24.134  11.653   5.179
27082W        W95456  34.545  28.173   4.826
27083W        W95457   9.857   4.389   2.209
27084W        W95458  31.028  12.194   0.759
27085W        W95459  11.155  37.350  14.905
27086W        W95460  12.189  11.199   4.705
27087W        W95461  28.589  39.361   4.650
27088W        W95462  23.626   3.254  12.949
27089W        W95463  38.456   1.794   0.437
27090W        W95464  29.566  27.025   2.681
27091W        W95465   6.247   2.805   4.222
27092W        W95466  41.955  37.408   3.635
27093W        W95467   0.918  12.754  10.612
27094W        W95468  31.486  29.920   3.349
27095W        W95469  17.302  19.180  13.342
27096W        W95470   4.331   6.714  13.423
27097W        W95471  34.977  34.432  12.505
27098W        W95472  24.976  20.574  13.866
27099W        W95473   4.886  27.060   5.101
27100W        W95474   1.250  12.634   0.818
27101W        W95475  16.574  41.917   3.720
27102W        W95476  43.999   3.223  10.921
27103W        W95477   2.327  32.403   4.833
27104W        W95478  35.965  27.038  12.539
27105W        W95479  43.291   2.410   4.716
27106W        W95480   5.371  41.853  14.899
27107W        W95481  28.437  39.336  10.537
27108W        W95482  42.295  30.628  12.362
27109W        W95483  12.313  12.152   3.722
27110W        W95484   3.254  18.653   5.179
27111W        W95485  30.445  10.755  14.415
27112W        W95486  30.641  40.538  12.034
27113W        W95487  27.585  38.482  12.339
27114W        W95488  36.454  35.930  14.477
27115W        W95489  23.110  39.509   5.643
27116W        W95490   3.786  21.069   4.282
27117W        W95491   4.285  38.054   3.809
27118W        W95492  31.150  26.662   2.763
27119W        W95493  15.315  41.019   4.162
27120W        W95494  30.048  37.411   1.707
27121W        W95495  18.697  15.129   1.281
27122W        W95496  23.998  39.325  14.390
27123W        W95497  43.501   2.913  12.465
27124W        W95498  22.039   5.357  14.449
27125W        W95499  41.998  15.290  13.490
27126W        W95500  36.923   9.345   0.752
27127W        W95501  39.861  37.433   3.288
27128W        W95502  21.222  13.142   4.318
27129W        W95503   8.380  37.005  11.389
27130W        W95504   5.209  44.396   3.386
27131W        W95505  34.002  44.431   2.257
27132W        W95506  38.538   5.389   2.731
27133W        W95507  37.550  39.323  14.461
27134W        W95508  23.690  23.054  12.513
27135W        W95509   4.850  14.152  13.411
27136W        W95510   3.936  29.587   2.691
27137W        W95511  44.410   5.279  10.015
27138W        W95512  20.694  14.643   1.429
27139W        W95513  29.125  24.590   0.316
27140W        W95514   1.960  12.164   2.794
27141W        W95515  27.611   5.368   0.760
27142W        W95516  25.602   6.384  11.999
27143W        W95517   0.357  40.324  14.954
27144W        W95518  42.021  14.174   9.968
27145W        W95519  10.325  29.106   0.317
27146W        W95520  32.140  17.785  14.413
27147W        W95521  39.355  34.555  12.860
27148W        W95522   9.779  36.472   2.893
27149W        W95523  30.449  24.212  10.438
27150W        W95524  27.148  12.638  10.025
27151W        W95525   4.275   8.685   0.914
27152W        W95526  42.518  33.882   2.823
27153W        W95527   2.794  16.634   2.387
27154W        W95528   0.397  36.980  12.380
27155W        W95529  43.959  39.522  12.993
27156W        W95530  29.953  16.305  11.508
27157W        W95531  31.555   7.693  10.563
27158W        W95532  33.075   4.853  12.074
27159W        W95533  37.452  31.943  11.585
27160W        W95534  41.336   6.877  14.435
27161W        W95535   1.364  28.021   0.739
27162W        W95536  19.573  44.924   3.237
27163W        W95537  27.014  19.083  10.512
27164W        W95538  39.501   2.258  11.986
27165W        W95539  23.496  15.209   9.667
27166W        W95540   8.886  35.387  14.351
27167W        W95541  35.484  29.619  13.003
27168W        W95542  34.002   4.899  12.539
27169W        W95543  28.078  17.694   1.291
27170W        W95544  32.550  25.215   2.298
27171W        W95545   1.884  17.142   4.750
27172W        W95546  13.720   2.268   1.381
27173W        W95547  18.553  14.590   3.801
27174W        W95548  16.771   0.276  14.765
27175W        W95549  27.999  44.837  12.384
27176W        W95550  39.821  41.520  13.485
27177W        W95551  14.118  21.230  10.953
27178W        W95552   3.338  18.241   2.673
27179W        W95553  16.592  11.763   0.452
27180W        W95554  41.412  20.530   2.857
27181W        W95555   6.813  33.404  13.046
27182W        W95556  31.963  27.069   3.232
27183W        W95557  26.607  36.957   4.612
27184W        W95558  19.563   8.201   4.121
27185W        W95559   1.855   1.801   2.262
27186W        W95560  11.161  28.554   3.719
27187W        W95561  20.171  38.350  12.913
27188W        W95562  16.678  11.131   2.315
27189W        W95563  27.974  26.637   0.450
27190W        W95564  32.526  28.999   1.439
27191W        W95565  15.803  42.788  10.022
27192W        W95566  41.900  26.686  11.879
27193W        W95567  42.830  24.715   2.761
27194W        W95568   9.237  43.363   4.187
27195W        W95569  36.456  29.088   4.708
27196W        W95570  35.442  32.889  13.443
27197W        W95571   7.305   0.761  12.045
27198W        W95572   6.748   9.389   0.383
27199W        W95573  33.994   2.789  11.904
27200W        W95574   5.885  13.708  11.067
27201W        W95575  27.028  32.479   1.345
27202W        W95576  37.424  41.461  10.913
27203W        W95577  10.748   7.865   0.792
27204W        W95578  31.473  34.863   2.273
27205W        W95579   4.261  32.967  13.848
27206W        W95580  41.314  39.937  12.975
27207W        W95581  39.542  22.691  14.403
27208W        W95582  30.582  14.315   4.648
27209W        W95583  42.930  26.998   5.250
27210W        W95584  26.961  31.949  11.385
27211W        W95585  39.557  41.453  12.091
27212W        W95586  25.098  17.563   9.572
27213W        W95587  17.609  43.430   0.274
27214W        W95588   6.922  23.648   2.377
27215W        W95589   4.772  31.980  10.081
27216W        W95590  20.576  17.792  12.534
27217W        W95591  37.013  16.261  12.008
27218W        W95592  24.978  24.140  10.489
27219W        W95593  13.623  37.353  13.966
27220W        W95594   6.689  19.092   5.621
27221W        W95595  35.875  35.541  13.414
27222W        W95596   7.276  25.624   0.778
27223W        W95597  35.105  25.093  13.438
27224W        W95598  41.354   8.351  12.056
27225W        W95599  34.889  42.519  12.518
27226W        W95600  27.494   5.896   4.152
27227W        W95601  17.184  28.576   4.792
27228W        W95602   9.821  15.301  13.797
27229W        W95603  29.130   8.658   2.392
27230W        W95604  35.479  21.713   0.779
27231W        W95605  30.535  15.596   5.127
27232W        W95606  23.051   0.745  12.922
27233W        W95607  41.438   1.451   3.296
27234W        W95608  33.430  11.661   5.253
27235W        W95609   0.980  44.841   2.213
27236W        W95610  16.143   8.188   2.763
27237W        W95611  31.005  29.046  11.964
27238W        W95612  12.129  36.025   2.808
27239W        W95613  43.864  13.642   0.356
27240W        W95614  14.770  31.989   0.319
27241W        W95615  16.191  14.633   4.135
27242W        W95616  33.445  44.970  12.496
27243W        W95617   8.366  13.698  14.013
27244W        W95618  19.160   2.877   0.396
27245W        W95619  34.464  18.780  13.400
27246W        W95620  23.725  15.682   3.684
27247W        W95621  37.420  33.525   4.221
27248W        W95622   2.371   1.939  11.523
27249W        W95623  37.067   8.238   5.174
27250W        W95624  37.455  37.048  12.401
27251W        W95625  11.198  33.414  14.884
27252W        W95626  17.193   3.415  13.959
27253W        W95627  44.419   5.844  11.588
27254W        W95628  20.703  14.191   0.414
27255W        W95629  12.360   9.175   3.837
27256W        W95630  20.527  22.677  10.622
27257W        W95631  27.506  13.629  14.788
27258W        W95632  36.079  26.530   3.683
27259W        W95633  31.067  34.369   5.287
27260W        W95634  22.177  16.573   4.691
27261W        W95635  16.105  40.883  14.350
27262W        W95636   0.819  40.377   1.698
27263W        W95637   9.215  12.204   4.607
27264W        W95638  18.225  36.030   2.798
27265W        W95639  11.295  34.529  14.347
27266W        W95640   1.873  20.032  11.049
27267W        W95641  19.165  31.067  10.541
27268W        W95642  11.672   7.173   0.935
27269W        W95643  40.380  37.476   0.845
27270W        W95644  19.250  17.217  13.360
27271W        W95645  18.776  36.568  12.042
27272W        W95646  10.368  43.997  14.428
27273W        W95647  21.106   9.782  14.984
27274W        W95648  40.549  21.217   0.807
27275W        W95649  30.636   6.725   1.416
27276W        W95650   0.769  22.009   1.764
27277W        W95651  12.702  23.576   0.892
27278W        W95652  29.959  28.500   3.344
27279W        W95653  35.485  12.186   3.217
27280W        W95654  33.438  33.890  14.928
27281W        W95655  23.671  16.163   5.152
27282W        W95656   9.825  25.559   2.841
27283W        W95657  28.439  25.976  13.021
27284W        W95658  23.042  30.630   3.832
27285W        W95659  16.289   9.232  12.406
27286W        W95660   8.825  20.274  11.062
27287W        W95661  12.219  24.123  10.549
27288W        W95662  34.038  33.460   2.791
27289W        W95663  10.366   3.335   4.731
27290W        W95664  21.747  14.303  13.839
27291W        W95665   8.244  22.623   0.321
27292W        W95666   1.848  22.572  14.429
27293W        W95667  34.057   8.269  13.382
27294W        W95668  35.557   9.755  14.791
27295W        W95669  20.088  25.975   4.729
27296W        W95670   4.251  10.638   3.162
27297W        W95671   2.900  29.489  11.979
27298W        W95672  19.178  17.244  14.290
27299W        W95673  12.622  21.147   2.699
27300W        W95674  41.953  33.115   0.371
27301W        W95675  17.070  44.794  12.440
27302W        W95676   2.856   6.225   3.366
27303W        W95677   2.272   3.934   4.836
27304W        W95678  28.503  25.189   0.338
27305W        W95679  30.509  41.872  10.995
27306W        W95680  44.432  33.540   4.820
27307W        W95681  35.866  18.659  11.891
27308W        W95682  10.767  41.495  11.574
27309W        W95683  30.564  24.006  12.920
27310W        W95684  13.658  42.842   1.779
27311W        W95685  34.071  14.799   1.704
27312W        W95686  36.362  36.896   0.812
27313W        W95687  22.637  31.478   1.228
27314W        W95688  32.927  11.856  13.884
27315W        W95689  31.898  38.824  13.360
27316W        W95690  12.617  29.644   2.714
27317W        W95691  12.185   2.454   2.901
27318W        W95692   7.181  20.196   9.481
27319W        W95693   0.772  26.041   1.427
27320W        W95694   6.313  22.501   0.359
27321W        W95695   8.214  28.523   1.904
27322W        W95696  31.428  36.089   0.314
27323W        W95697   6.743  44.363   2.828
27324W        W95698  15.242  26.629  14.343
27325W        W95699  39.867  43.947  13.985
27326W        W95700  31.084   7.245   2.693
27327W        W95701  13.720  23.157  10.546
27328W        W95702  33.621  29.645  12.021
27329W        W95703  15.131  24.700  12.913
27330W        W95704  24.038   1.766   3.216
27331W        W95705   9.790   1.411  10.993
27332W        W95706   4.289   0.767  13.013
27333W        W95707  24.060  37.416   3.698
27334W        W95708  42.989  31.113   5.127
27335W        W95709  29.992  44.811   4.750
27336W        W95710  25.049  22.086  12.957
27337W        W95711  28.150  17.255  13.495
27338W        W95712   6.242  19.271  14.322
27339W        W95713  13.657  41.864  13.914
27340W        W95714  20.618  14.116  13.371
27341W        W95715   7.881  20.631   1.910
27342W        W95716   6.234   9.367   1.784
27343W        W95717  16.138   7.361  14.485
27344W        W95718  27.568  32.917  10.951
27345W        W95719  23.115  34.897  13.494
27346W        W95720  23.205  40.862  13.528
27347W        W95721  34.561  28.554   4.832
27348W        W95722  24.500   7.731  13.324
27349W        W95723  17.238  34.922  12.945
27350W        W95724  16.241  29.525   2.208
27351W        W95725  42.849   9.787   0.384
27352W        W95726  16.709   4.732   1.288
27353W        W95727  24.641  17.755   1.707
27354W        W95728  31.616  19.088   3.177
27355W        W95729   7.352  28.958  14.890
27356W        W95730  40.990  14.330   0.820
27357W        W95731   9.245  34.912  10.405
27358W        W95732  38.070  40.433   2.310
27359W        W95733  12.119   1.412  13.865
27360W        W95734  16.636  17.772   1.263
27361W        W95735  44.386  26.076  10.420
27362W        W95736  36.353  35.881  10.592
27363W        W95737  28.135  42.963   3.321
27364W        W95738  22.536  15.326   3.247
27365W        W95739  11.311  28.976  11.070
27366W        W95740   5.785   5.327   2.682
27367W        W95741   4.446  28.090   1.300
27368W        W95742  39.418  12.630   2.668
27369W        W95743   7.238   3.731   0.294
27370W        W95744  12.165   1.884  10.424
27371W        W95745  16.681  20.213   0.873
27372W        W95746   5.687   7.417  12.509
27373W        W95747  28.559  26.103   0.339
27374W        W95748  29.426  27.498  12.066
27375W        W95749  42.779   9.783   3.810
27376W        W95750   8.838  18.545   5.306
27377W        W95751  17.204  20.709   2.301
27378W        W95752  41.957  31.441  12.846
27379W        W95753  18.706  15.147   3.643
27380W        W95754   1.268  44.949   4.252
27381W        W95755   0.360  43.018  13.330
27382W        W95756  12.362  40.538   4.182
27383W        W95757  20.662  19.134   2.877
27384W        W95758  23.719  44.471  11.564
27385W        W95759  11.646  13.751  14.876
27386W        W95760  38.514  20.141   2.335
27387W        W95761  20.547  35.911   2.868
27388W        W95762   3.779  28.562   0.266
27389W        W95763   1.787   8.820   0.960
27390W        W95764   1.265  15.628  13.406
27391W        W95765  23.575  39.391  10.950
27392W        W95766   8.325   0.976  11.954
27393W        W95767  23.681  22.039   2.731
27394W        W95768  38.508   2.319  12.952
27395W        W95769  28.659  24.551   1.346
27396W        W95770  39.951  31.406  13.918
27397W        W95771  13.651  35.536   3.167
27398W        W95772  38.850  42.449   0.925
27399W        W95773  44.315   5.217   2.283
27400W        W95774  40.863  39.547  12.412
27401W        W95775   7.759  23.603  11.036
27402W        W95776  28.058  15.585   9.989
27403W        W95777   5.410   6.698   4.601
27404W        W95778  16.759   0.313   1.881
27405W        W95779  38.390  38.988  10.516
27406W        W95780  18.180   8.240   4.782
27407W        W95781  20.169  18.268  11.472
27408W        W95782  23.690  29.593   5.192
27409W        W95783  36.021   0.322   1.739
27410W        W95784  14.136   3.221  13.544
27411W        W95785   5.699   2.470   3.708
27412W        W95786  31.975  32.973   0.880
27413W        W95787   8.280  26.579  13.395
27414W        W95788  10.676  16.273  13.028
27415W        W95789  27.614  19.586  13.033
27416W        W95790  15.585  21.758   1.415
27417W        W95791  41.344  12.256  12.368
27418W        W95792   7.912  14.224   3.735
27419W        W95793  34.027  23.043  13.806
27420W        W95794  26.602  13.255   1.426
27421W        W95795  33.485  11.176  13.401
27422W        W95796  13.623  21.588  12.919
27423W        W95797  22.634  44.852  10.577
27424W        W95798  13.823  18.756  11.406
27425W        W95799   1.392  18.588   0.467
27426W        W95800  19.272  35.489   4.191
27427W        W95801   4.411  31.020  13.461
27428W        W95802  32.125  24.053   2.901
27429W        W95803   0.969  21.095   1.447
27430W        W95804  17.715  19.137   0.857
27431W        W95805  17.780   1.944  10.605
27432W        W95806  41.381  10.372   5.203
27433W        W95807   8.195  22.123  13.839
27434W        W95808   6.205  24.541   3.237
27435W        W95809  21.230  32.064   1.307
27436W        W95810   3.387   6.796  11.950
27437W        W95811  41.329  22.726  13.791
27438W        W95812  28.530  26.978  11.077
27439W        W95813   0.763  41.415  10.554
27440W        W95814   8.818  44.415   0.332
27441W        W95815  41.356  38.419   4.259
27442W        W95816  30.008  39.899   4.218
27443W        W95817  25.595  30.621  12.431
27444W        W95818  27.048  16.652  11.473
27445W        W95819  40.985   0.348   0.478
27446W        W95820  24.532   7.253   3.757
27447W        W95821  26.674  29.134   2.302
27448W        W95822  25.641  37.367   3.225
27449W        W95823  28.990  20.230   1.867
27450W        W95824  27.144  32.966   2.748
27451W        W95825  29.977  14.636  14.992
27452W        W95826  39.809  21.531  11.917
27453W        W95827   0.315  17.792   3.386
27454W        W95828  24.994   5.742   3.869
27455W        W95829  32.062  35.011  11.585
27456W        W95830  38.908   0.304   4.706
27457W        W95831  13.629  44.428  14.374
27458W        W95832   6.766  30.637   5.582
27459W        W95833  25.554  34.885   0.920
27460W        W95834  29.648  34.441   0.766
27461W        W95835  20.620  12.838   0.949
27462W        W95836  18.660  23.079  12.532
27463W        W95837   1.390  29.020  11.887
27464W        W95838  13.769  19.146   2.282
27465W        W95839  12.185   8.317  14.810
27466W        W95840  23.000   3.403   1.375
27467W        W95841  44.356  29.964  11.987
27468W        W95842  44.936  41.405   1.908
27469W        W95843   7.810  15.758  10.639
27470W        W95844  17.134  19.734   2.879
27471W        W95845  11.286  39.899  11.119
27472W        W95846  12.271  29.161  12.388
27473W        W95847  21.742  11.843   0.906
27474W        W95848   6.406  24.981   2.219
27475W        W95849  12.297   9.752  10.464
27476W        W95850  17.206  41.022  13.486
27477W        W95851  22.086   4.419   3.758
27478W        W95852  21.119  34.090   3.150
27479W        W95853  29.056  36.870   0.315
27480W        W95854   0.833  41.859   4.763
27481W        W95855   2.470  19.712   4.724
27482W        W95856  33.016  37.365  13.547
27483W        W95857   3.871   5.415   3.860
27484W        W95858  37.479  16.170  12.490
27485W        W95859  10.258  13.255  11.454
27486W        W95860  43.280  44.401   1.859
27487W        W95861  25.594  35.038   4.349
27488W        W95862  39.505  35.902   0.334
27489W        W95863  17.261  14.164  13.006
27490W        W95864   6.903  34.955   2.231
27491W        W95865   1.890  33.544  10.538
27492W        W95866  29.461   5.738   2.758
27493W        W95867  16.236  40.356  13.414
27494W        W95868  43.328  24.981  10.531
27495W        W95869  21.079   7.860  10.412
27496W        W95870  11.174   3.278  10.948
27497W        W95871   7.707  13.341   1.761
27498W        W95872  30.090  14.123  10.942
27499W        W95873  21.714   8.667   4.637
27500W        W95874   4.862   5.387  14.422
27501W        W95875  28.057  30.976  12.417
27502W        W95876  32.887  31.411  11.374
27503W        W95877  34.946  18.578   3.810
27504W        W95878  10.650  38.453   4.708
27505W        W95879  37.935  33.440  13.869
27506W        W95880  35.891  14.149   3.724
27507W        W95881  15.124  27.940   2.738
27508W        W95882  42.007  14.820   1.275
27509W        W95883   6.815  42.468  12.351
27510W        W95884  27.534  31.415  10.974
27511W        W95885  21.632  14.595  14.924
27512W        W95886  16.112   9.788  12.978
27513W        W95887  14.589  21.054  14.844
27514W        W95888  32.057  30.529  10.078
27515W        W95889  40.041  20.649  10.931
27516W        W95890  24.515  15.196   3.651
27517W        W95891  32.530  15.233  13.792
27518W        W95892  32.017   4.875   2.887
27519W        W95893  14.761  27.002  13.063
27520W        W95894  20.082  43.938   1.814
27521W        W95895   2.335  17.212   4.734
27522W        W95896  32.894  42.844  11.449
27523W        W95897  44.454  21.580  12.580
27524W        W95898  24.161  28.499  12.040
27525W        W95899   1.923  26.070  14.971
27526W        W95900  36.864  38.830  14.287
27527W        W95901  29.111  26.581   0.769
27528W        W95902  44.879  35.414   2.310
27529W        W95903   5.295  38.415  13.409
27530W        W95904  15.677   5.298  13.812
27531W        W95905  41.848   6.353  10.979
27532W        W95906  28.043  16.806   1.348
27533W        W95907  29.081  30.650   0.844
27534W        W95908  38.920  40.890   3.860
27535W        W95909  18.679  34.576  11.463
27536W        W95910  37.441   0.987  13.404
27537W        W95911  41.950  30.127  13.828
27538W        W95912  36.065  43.349  11.904
27539W        W95913   4.261  17.235   1.700
27540W        W95914  27.018  34.091   4.305
27541W        W95915  15.660  24.662  10.516
27542W        W95916  32.954  26.559   4.253
27543W        W95917  43.477  37.532   3.784
27544W        W95918  40.808  30.146   4.782
27545W        W95919   3.311  12.810   2.662
27546W        W95920   4.360  17.572  12.498
27547W        W95921  12.159  28.586   0.952
27548W        W95922  30.980   9.798   4.211
27549W        W95923  16.712  43.301   0.308
27550W        W95924  34.519   4.788   3.335
27551W        W95925   6.336  16.639   4.137
27552W        W95926  15.807  16.317   1.240
27553W        W95927  20.138  41.932   2.824
27554W        W95928  37.890  21.681  13.444
27555W        W95929  19.672   3.410  13.017
27556W        W95930  39.847  23.056   3.866
27557W        W95931  14.807  31.939   2.320
27558W        W95932   3.328  13.325   1.734
27559W        W95933   9.876   8.864   0.431
27560W        W95934  12.794  27.535   3.771
27561W        W95935  13.730   1.457   2.811
27562W        W95936  32.026  33.580   1.382
27563W        W95937  35.418  28.586   0.916
27564W        W95938   1.850   2.806   3.211
27565W        W95939  26.134  25.992  10.558
27566W        W95940   3.457  11.153  14.324
27567W        W95941  16.093  43.952   4.222
27568W        W95942  40.053  10.312  11.099
27569W        W95943  14.592  17.234  13.929
27570W        W95944  39.441  26.468  10.641
27571W        W95945   9.792  13.731   4.774
27572W        W95946  26.042  23.622  10.888
27573W        W95947  43.780   5.830  12.428
27574W        W95948  43.415   7.180   3.186
27575W        W95949  23.711   1.305   4.256
27576W        W95950  32.036  30.518  12.405
27577W        W95951  31.424  24.662  11.868
27578W        W95952  27.192   8.695   2.708
27579W        W95953  19.566   4.913  14.959
27580W        W95954   5.375  20.166  14.351
27581W        W95955   9.160  36.954  14.318
27582W        W95956  21.677   3.714   4.303
27583W        W95957  19.143  24.096   0.296
27584W        W95958  40.876  30.975  11.570
27585W        W95959   4.432  18.779  11.107
27586W        W95960  44.856   1.888   4.186
27587W        W95961   5.378   3.938   4.603
27588W        W95962  43.369   0.827  14.883
27589W        W95963  13.246  38.342  10.547
27590W        W95964   5.799  34.013  10.931
27591W        W95965  21.683  36.041   4.286
27592W        W95966   9.812  22.698  11.547
27593W        W95967  12.116   6.835   1.711
27594W        W95968   6.220  11.356  11.947
27595W        W95969  25.117  34.102   3.782
27596W        W95970   4.449  11.848   3.790
27597W        W95971  14.103  19.559  14.417
27598W        W95972  31.430  21.137   4.735
27599W        W95973  27.452  24.150  14.880
27600W        W95974  21.151  36.025   1.224
27601W        W95975  15.732  24.576  14.841
27602W        W95976   6.375  16.162  12.573
27603W        W95977  29.529  25.703   2.331
27604W        W95978  27.676  17.082  14.815
27605W        W95979  25.138  10.795  11.570
27606W        W95980  22.739  33.995  13.061
27607W        W95981   4.731  19.747   1.356
27608W        W95982  38.896   6.352  12.496
27609W        W95983  31.410  41.003  13.933
27610W        W95984  38.556  18.566  14.975
27611W        W95985  28.085  36.041   5.276
27612W        W95986  41.810  44.420   3.206
27613W        W95987  39.863  41.807  12.556
27614W        W95988   9.224  12.157   3.826
27615W        W95989  17.716  40.402   0.792
27616W        W95990   4.888  13.222   3.319
27617W        W95991   4.835  26.193  11.072
27618W        W95992  29.497  31.984   3.321
27619W        W95993   8.302  35.566   1.428
27620W        W95994  28.492  35.385   3.758
27621W        W95995  21.521  34.070  13.978
27622W        W95996  32.890  36.914   2.792
27623W        W95997   8.808  21.170  10.473
27624W        W95998  39.541   7.694  11.546
27625W        W95999  33.407  29.527  13.441
27626W        W96000  25.632  26.114   2.860
27627W        W96001   5.246  13.118  12.086
27628W        W96002  13.216  44.811   0.904
27629W        W96003  26.503  22.735  11.074
27630W        W96004  27.144  32.996   4.190
27631W        W96005  31.625  11.207   3.720
27632W        W96006  27.525  36.503  12.396
27633W        W96007  11.227   8.724  14.988
27634W        W96008  30.601  16.167  10.546
27635W        W96009  22.096   2.789  12.551
27636W        W96010  18.548  18.640  14.497
27637W        W96011  21.023   1.419   3.778
27638W        W96012   8.721  14.646  13.797
27639W        W96013  10.333  16.784  14.790
27640W        W96014  25.578  25.635  12.008
27641W        W96015  16.267   5.838  12.433
27642W        W96016   8.329   6.407  10.593
27643W        W96017   7.381  25.146  14.783
27644W        W96018  42.436  21.077  11.400
27645W        W96019  26.515  43.000  13.799
27646W        W96020  41.839  42.949   0.858
27647W        W96021   4.923   5.220  13.809
27648W        W96022  20.568  30.516   4.778
27649W        W96023   8.284   0.288  14.516
27650W        W96024  38.831  24.579   1.348
27651W        W96025  23.207  32.118   1.244
27652W        W96026  18.749  32.466   4.121
27653W        W96027  22.243  44.820   0.810
27654W        W96028  34.977  11.713   2.877
27655W        W96029   5.254  32.442  10.998
27656W        W96030  32.440  37.059   2.791
27657W        W96031  41.352  14.200   3.253
27658W        W96032  21.096  20.754  14.797
27659W        W96033  39.349   8.895   4.837
27660W        W96034  28.680  42.318   3.227
27661W        W96035  31.562   7.211   1.749
27662W        W96036  13.105  17.763   0.405
27663W        W96037  40.983  26.039   1.271
27664W        W96038  38.488  25.168   3.766
27665W        W96039  12.631   1.403   4.735
27666W        W96040  25.968  30.154   0.339
27667W        W96041  35.056  44.404   3.805
27668W        W96042  14.721   8.894  13.372
27669W        W96043  25.141  23.629  13.040
27670W        W96044  41.922  38.524  12.062
27671W        W96045  19.138  38.487   2.675
27672W        W96046   8.861  24.039  12.049
27673W        W96047  41.392  33.624   4.174
27674W        W96048  35.523  33.919   2.828
27675W        W96049  36.422   9.789   1.801
27676W        W96050  13.111  20.065  14.308
27677W        W96051  21.140   3.782   0.398
27678W        W96052   6.318  36.974  13.931
27679W        W96053  33.018  34.047   4.793
27680W        W96054  10.147  26.073  10.645
27681W        W96055  32.443   9.814   4.784
27682W        W96056  38.994  37.494  10.639
27683W        W96057  33.905  28.150   2.258
27684W        W96058   1.856   4.338   3.373
27685W        W96059  19.562   6.364   0.296
27686W        W96060   7.314   0.364   4.294
27687W        W96061   7.853  10.204   3.168
27688W        W96062   9.784   4.854   4.153
27689W        W96063  22.140  43.399   2.413
27690W        W96064  38.022   7.407   3.210
27691W        W96065  24.134  12.806   3.705
27692W        W96066   1.896  15.287   2.732
27693W        W96067  25.699  29.479   0.396
27694W        W96068  25.518  38.488   3.325
27695W        W96069  32.032   2.923  14.300
27696W        W96070  26.967  39.954   3.677
27697W        W96071  13.662   0.902  10.430
27698W        W96072  40.435  18.596  12.092
27699W        W96073  16.695   3.763  11.577
27700W        W96074   8.884  12.306  12.016
27701W        W96075  37.037  33.988   0.375
27702W        W96076  10.279  23.105  14.928
27703W        W96077  24.088  33.464   2.382
27704W        W96078  37.848  24.659   3.731
27705W        W96079  16.650  42.501  11.075
27706W        W96080  28.443  28.455   0.738
27707W        W96081  32.954  11.251  12.891
27708W        W96082  32.400  16.639   1.899
27709W        W96083  25.968  20.099  13.964
27710W        W96084  39.967   4.417  10.568
27711W        W96085   8.900  35.865  13.378
27712W        W96086  36.982   0.807   0.289
27713W        W96087  18.548   3.809   0.955
27714W        W96088  16.270  30.464   4.795
27715W        W96089   2.418  30.137   0.383
27716W        W96090  21.078   5.275   0.361
27717W        W96091  16.123  23.509  13.442
27718W        W96092  13.669  17.761   0.307
27719W        W96093  20.117  12.829   1.761
27720W        W96094  26.588   3.296   0.443
27721W        W96095  25.528  40.336   0.323
27722W        W96096  37.370   1.409   3.185
27723W        W96097  13.279  17.215  13.346
27724W        W96098  19.149  21.131   0.767
27725W        W96099  39.466  14.590   1.732
27726W        W96100   2.727  35.887  12.526
27727W        W96101  28.997  27.631   0.820
27728W        W96102   9.197  17.697   5.259
27729W        W96103   9.359   2.913   5.235
27730W        W96104  17.175  10.749   1.271
27731W        W96105  32.979   2.937  14.830
27732W        W96106  26.692  30.082  13.474
27733W        W96107  31.611  30.493  14.949
27734W        W96108  41.337  19.115   0.367
27735W        W96109  23.733   2.768   0.928
27736W        W96110  16.771  29.140  13.492
27737W        W96111  36.993  23.710  10.975
27738W        W96112   0.777  14.138   0.959
27739W        W96113  14.608  26.989  12.362
27740W        W96114   9.779  18.133   4.163
27741W        W96115  35.000  12.246  11.057
27742W        W96116  38.020  39.323   0.266
27743W        W96117  21.597   6.733   2.707
27744W        W96118  13.219  19.601   0.350
27745W        W96119  19.137  30.578   0.956
27746W        W96120   4.303  27.501  12.990
27747W        W96121  34.084   8.657   0.298
27748W        W96122  39.021  44.274   3.217
27749W        W96123  12.192  42.284   1.912
27750W        W96124  21.037   3.772  14.983
27751W        W96125   7.268  11.801   2.670
27752W        W96126  18.570  15.217   4.125
27753W        W96127  29.004  23.706   3.803
27754W        W96128  42.490  22.252  12.363
27755W        W96129   1.876  24.046  14.849
27756W        W96130  30.590  34.956   2.865
27757W        W96131  12.848  17.747  11.076
27758W        W96132  10.647  32.042  11.067
27759W        W96133   1.877  16.772  13.007
27760W        W96134  40.803  26.194   4.781
27761W        W96135  36.849  18.685   0.929
27762W        W96136   7.752  32.410   2.688
27763W        W96137   0.328  31.988  14.503
27764W        W96138  27.977  15.786   4.187
27765W        W96139  13.609  24.118   1.367
27766W        W96140   3.871  18.710   4.145
27767W        W96141  15.789  43.388  12.033
27768W        W96142  17.567  44.832  14.877
27769W        W96143  44.967  38.421  14.994
27770W        W96144  35.424  44.311  14.017
27771W        W96145  39.472  42.367   2.844
27772W        W96146   5.728  42.886   4.789
27773W        W96147  28.140  42.878   1.861
27774W        W96148  21.040   0.425   3.752
27775W        W96149  40.309   1.247  12.899
27776W        W96150   4.406  19.282   2.853
27777W        W96151   5.934  20.640  11.411
27778W        W96152  31.103  36.984   3.675
27779W        W96153  22.637  37.949  10.511
27780W        W96154  17.771  29.557  11.006
27781W        W96155   0.761  28.009   2.767
27782W        W96156  17.245  36.029   5.280
27783W        W96157  18.606  17.288   2.892
27784W        W96158   4.312   6.804   3.648
27785W        W96159  10.196  36.076   0.931
27786W        W96160  30.581  10.221   2.292
27787W        W96161  31.553  18.654  11.522
27788W        W96162  44.346   0.903  10.615
27789W        W96163  14.705  16.158   4.157
27790W        W96164   8.877  25.214   4.317
27791W        W96165  13.737  14.681   1.731
27792W        W96166  34.034  42.931  13.059
27793W        W96167   8.857  19.550   1.935
27794W        W96168  36.866  43.984  14.013
27795W        W96169   4.755   4.406  14.796
27796W        W96170  26.510  19.710   5.175
27797W        W96171   9.210  42.940   2.309
27798W        W96172  29.946  34.388   2.832
27799W        W96173  16.725  21.130  14.412
27800W        W96174  37.547  27.536  14.931
27801W        W96175  28.968  41.788   2.832
27802W        W96176  32.627  28.509  13.878
27803W        W96177  37.873   0.324   0.370
27804W        W96178   7.340  33.595   1.240
27805W        W96179  16.245  21.655  14.336
27806W        W96180  24.991  20.118   5.108
27807W        W96181  25.134  36.366   3.786
27808W        W96182  16.165   9.298   3.833
27809W        W96183  43.907  44.262  12.063
27810W        W96184  14.102   2.316   5.150
27811W        W96185   3.407  41.043  14.373
27812W        W96186  12.764  18.267  10.999
27813W        W96187  29.655   7.273  10.483
27814W        W96188   6.300   5.742  12.904
27815W        W96189  37.531  40.538   3.212
27816W        W96190  29.669   0.889   2.203
27817W        W96191  17.161   2.434  10.577
27818W        W96192  41.791  10.200   2.727
27819W        W96193  10.279  22.568   4.642
27820W        W96194   5.920  15.586   0.245
27821W        W96195   2.720  24.714  11.045
27822W        W96196  31.588  19.561   2.402
27823W        W96197  13.768  24.562   4.282
27824W        W96198  19.202  13.807   3.322
27825W        W96199  22.725  39.880  12.439
27826W        W96200  37.419  34.020  10.527
27827W        W96201  17.658   4.218  11.129
27828W        W96202  28.175  11.153  12.884
27829W        W96203  12.170  10.162  10.615
27830W        W96204  26.043  35.011   2.896
27831W        W96205  11.306  34.381   4.830
27832W        W96206  10.153  33.094   4.303
27833W        W96207   9.360   5.388  14.976
27834W        W96208  10.292  28.536  11.491
27835W        W96209  17.233  20.210  12.949
27836W        W96210   5.431   5.355   0.734
27837W        W96211  43.479  31.402  11.012
27838W        W96212  43.298   5.350  13.925
27839W        W96213   4.416  14.153  13.479
27840W        W96214  34.522  23.561   3.718
27841W        W96215  18.071   7.843  12.419
27842W        W96216   3.298  30.429   3.158
27843W        W96217  25.065   6.369   0.923
27844W        W96218   7.851  41.864  12.855
27845W        W96219  30.549  26.179   1.699
27846W        W96220  41.522   1.322  13.464
27847W        W96221  41.896  20.252  11.060
27848W        W96222  30.603  14.761  11.125
27849W        W96223  14.120  17.779   4.642
27850W        W96224  41.010  10.357  12.523
27851W        W96225  18.565  10.162  11.026
27852W        W96226  24.096  24.999   4.260
27853W        W96227  44.826   4.707  14.871
27854W        W96228  43.272  39.521   1.231
27855W        W96229  25.603   4.395   4.692
27856W        W96230   8.385  18.604   1.430
27857W        W96231  21.068  30.026  13.350
27858W        W96232  41.843  10.269  11.592
27859W        W96233  28.628  42.282   2.834
27860W        W96234  34.600  27.149   1.849
27861W        W96235   8.271  31.562   4.151
27862W        W96236   1.250  38.481   2.877
27863W        W96237  10.732  19.106  12.002
27864W        W96238  20.615  27.664  13.034
27865W        W96239   0.277  25.003   4.826
27866W        W96240  17.203  36.376   2.266
27867W        W96241   8.313   0.431   2.858
27868W        W96242   5.262  35.941   0.913
27869W        W96243  28.540  25.097   2.818
27870W        W96244  23.124  11.267  13.418
27871W        W96245  40.953  39.377   0.849
27872W        W96246   4.909   9.231   4.253
27873W        W96247  10.736  35.078   1.888
27874W        W96248  21.168  20.625  11.574
27875W        W96249  34.560  11.265   3.831
27876W        W96250  28.969   2.464  13.338
27877W        W96251  28.179  33.558  13.952
27878W        W96252  27.127   2.453   2.724
27879W        W96253   8.216  21.133  14.816
27880W        W96254  41.293  12.227   0.333
27881W        W96255  10.225  39.826   0.911
27882W        W96256  41.822  15.101   1.324
27883W        W96257  11.827  11.861  14.000
27884W        W96258   6.288  22.657   4.769
27885W        W96259  16.226  12.629  12.572
27886W        W96260  14.808  42.333   2.865
27887W        W96261  19.717  29.547   3.156
27888W        W96262   0.871  31.923   0.262
27889W        W96263  26.482  15.237  12.380
27890W        W96264  28.041  32.003   5.155
27891W        W96265   0.292  21.646   1.828
27892W        W96266  41.029  19.256  10.613
27893W        W96267   9.877  12.810  13.373
27894W        W96268  38.014  43.942   1.716
27895W        W96269   8.761  20.560  13.381
27896W        W96270   6.788  31.092   0.396
27897W        W96271   4.772  43.764   0.250
27898W        W96272  42.844  19.051   3.850
27899W        W96273   6.332  21.148  11.567
27900W        W96274  37.023   7.286   2.836
27901W        W96275   5.271  39.490   4.242
27902W        W96276  30.971  35.376  14.958
27903W        W96277  44.966   5.438   1.835
27904W        W96278  34.903  21.079   5.181
27905W        W96279  42.440  33.499  13.802
27906W        W96280  12.621  17.555   0.461
27907W        W96281   1.860  18.757   1.886
27908W        W96282  23.098  18.575   2.687
27909W        W96283  37.996   9.308  11.459
27910W        W96284  40.375  13.656  11.577
27911W        W96285   1.833   3.226  12.026
27912W        W96286  31.491  31.475   1.754
27913W        W96287  38.513  39.887  13.873
27914W        W96288  29.962  26.636   0.292
27915W        W96289   2.366  43.376   3.260
27916W        W96290  36.846  21.602  11.887
27917W        W96291  44.931  17.749  13.347
27918W        W96292  28.100   2.914   2.270
27919W        W96293  27.516  27.095   0.736
27920W        W96294   2.952   5.395   0.734
27921W        W96295   3.949  41.421   0.328
27922W        W96296  18.151  24.596   1.759
27923W        W96297  41.402  36.861  13.866
27924W        W96298  40.345  21.057   1.928
27925W        W96299  17.264  38.845  13.364
27926W        W96300  14.286  16.147   0.834
27927W        W96301   2.229   8.283  14.433
27928W        W96302   4.735   7.264   0.903
27929W        W96303  24.093  20.199  13.856
27930W        W96304  16.165  26.597  14.512
27931W        W96305  34.926   6.273   0.835
27932W        W96306  40.440  17.140   2.679
27933W        W96307  39.987  13.259  10.612
27934W        W96308   2.749  18.136  12.902
27935W        W96309  30.133  28.931  12.375
27936W        W96310  10.277  14.157  14.296
27937W        W96311   9.803  10.314   2.755
27938W        W96312  10.285  21.196  14.290
27939W        W96313  36.871  42.436   2.370
27940W        W96314   3.862   9.284  10.595
27941W        W96315  10.215  33.983   2.729
27942W        W96316  34.423  38.966   1.447
27943W        W96317  36.868  23.722   4.313
27944W        W96318  28.560  43.896  10.567
27945W        W96319  21.645  37.393  14.367
27946W        W96320  22.129  38.558  10.894
27947W        W96321  37.054  43.356   0.331
27948W        W96322  41.510  28.065   1.883
27949W        W96323  12.150   6.402   4.659
27950W        W96324  20.647  16.598   1.244
27951W        W96325  15.754  37.563   0.948
27952W        W96326  40.883  25.639   4.783
27953W        W96327   1.302  41.371   1.843
27954W        W96328  24.642  14.206  10.568
27955W        W96329  15.200  12.674   4.728
27956W        W96330   6.360  13.217   3.314
27957W        W96331   8.667  16.649   2.417
27958W        W96332  14.295  36.065   3.283
27959W        W96333  34.947  37.374   0.771
27960W        W96334  41.418  22.132   1.250
27961W        W96335   0.256   2.290  14.921
27962W        W96336  36.891   3.760  11.378
27963W        W96337   8.729  26.197  11.510
27964W        W96338   7.687   8.709  10.109
27965W        W96339  39.853  11.249   3.351
27966W        W96340  23.529   7.880  11.448
27967W        W96341  25.191  32.936   1.331
27968W        W96342  25.633   4.852   3.331
27969W        W96343  21.556   6.757   4.817
27970W        W96344   5.934   6.842   3.766
27971W        W96345  41.806  43.456   2.663
27972W        W96346  30.909   7.404   0.313
27973W        W96347  33.542  11.346   4.288
27974W        W96348  31.916  22.724   2.687
27975W        W96349   8.800  39.903   0.428
27976W        W96350  15.679  27.066  11.456
27977W        W96351  38.963  44.807   2.303
27978W        W96352   3.318  13.174  14.319
27979W        W96353  12.309  29.489  11.088
27980W        W96354  20.038  28.031   2.732
27981W        W96355  19.255   1.483   0.308
27982W        W96356  42.854  10.696   2.662
27983W        W96357  37.971  13.701   3.251
27984W        W96358  19.112  37.996   1.867
27985W        W96359  12.116  15.117  14.370
27986W        W96360  36.540  13.601   2.750
27987W        W96361  39.812   0.490   3.193
27988W        W96362   1.430  32.497   4.602
27989W        W96363  38.489  11.255   1.271
27990W        W96364   7.335  21.154  11.105
27991W        W96365  12.318  16.317   1.278
27992W        W96366  39.037  19.050   2.761
27993W        W96367  36.559  38.071   3.313
27994W        W96368  31.096  13.662   0.908
27995W        W96369  35.883  31.516   3.314
27996W        W96370  41.344  15.801   0.784
27997W        W96371  25.999  23.010   2.271
27998W        W96372  19.265  30.489  14.390
27999W        W96373  28.100   8.301  12.897
28000W        W96374   4.872  35.479   4.225
28001W        W96375  25.986   5.873   1.218
28002W        W96376   0.364   2.784  11.918
28003W        W96377  37.529  25.561  12.437
28004W        W96378  37.880  27.668   0.773
28005W        W96379  24.701  41.514  11.856
28006W        W96380   9.286  18.201   9.542
28007W        W96381  13.764  29.474  12.833
28008W        W96382  12.297  35.459  12.832
28009W        W96383  25.110   4.875   0.912
28010W        W96384  17.207  21.020  13.470
28011W        W96385  26.985  28.648  10.630
28012W        W96386  40.527  37.504  13.999
28013W        W96387  24.546  23.200   3.785
28014W        W96388  19.581  15.152  12.399
28015W        W96389  35.490  17.279   4.683
28016W        W96390   6.188   4.386  14.803
28017W        W96391  42.334  10.266   0.855
28018W        W96392  35.587  24.026   4.255
28019W        W96393  26.536  44.849  14.515
28020W        W96394  16.717  30.161  10.615
28021W        W96395   4.241  27.658   0.311
28022W        W96396  33.595  16.605  13.041
28023W        W96397  39.914   8.397   4.225
28024W        W96398  20.527  28.957  12.402
28025W        W96399   1.365  24.081   4.142
28026W        W96400  16.575   2.876   3.706
28027W        W96401   3.256  44.376   0.774
28028W        W96402  22.142  18.070  11.989
28029W        W96403   0.766   0.394   3.215
28030W        W96404  44.773   3.338  14.445
28031W        W96405  20.224  30.037   0.436
28032W        W96406  10.358  17.801  14.404
28033W        W96407  28.625  30.603  10.580
28034W        W96408  35.019  43.972  12.973
28035W        W96409   6.798  39.381   1.712
28036W        W96410  24.165  33.437   3.835
28037W        W96411  18.755   1.334  13.486
28038W        W96412  25.546  42.892  12.537
28039W        W96413  39.959  10.230   2.360
28040W        W96414  24.626  18.720   1.768
28041W        W96415  14.186  18.614  13.891
28042W        W96416  26.487  40.336   0.482
28043W        W96417  18.711  27.461  12.870
28044W        W96418  23.660  26.117   3.378
28045W        W96419  22.217   3.400  12.031
28046W        W96420  15.779  23.195  13.838
28047W        W96421  33.042  30.425   3.731
28048W        W96422   4.406  19.534   1.774
28049W        W96423  22.575  40.852  13.510
28050W        W96424  15.254   1.455  13.876
28051W        W96425  11.356  29.625   3.312
28052W        W96426  24.539  39.527   0.403
28053W        W96427   4.920  35.070   2.348
28054W        W96428  28.944  41.036  11.541
28055W        W96429  24.012  13.298  12.402
28056W        W96430  18.751  25.567   3.163
28057W        W96431  28.017  27.989  11.865
28058W        W96432  11.707  15.317  11.608
28059W        W96433  31.551  11.253  13.821
28060W        W96434   0.989  26.060  11.873
28061W        W96435  31.033  15.175   0.835
28062W        W96436  44.349  37.549  11.042
28063W        W96437   2.932  27.101  11.481
28064W        W96438   5.921  14.180  14.299
28065W        W96439  43.419   6.853   2.760
28066W        W96440  30.007  27.167  13.821
28067W        W96441   1.731  40.964  10.616
28068W        W96442  41.404  10.336  10.962
28069W        W96443   7.413   2.338   1.908
28070W        W96444  21.087  21.190  13.044
28071W        W96445  19.208   4.344  13.893
28072W        W96446  37.375  18.675   3.852
28073W        W96447  42.000  43.894   3.730
28074W        W96448  42.395  30.035   0.291
28075W        W96449  38.478  42.944   4.628
28076W        W96450   2.860  28.126   1.768
28077W        W96451  13.139  15.238   3.365
28078W        W96452  29.485  23.641  13.347
28079W        W96453  29.440  13.748  11.109
28080W        W96454  22.148  43.411   1.862
28081W        W96455  30.090  32.568   1.932
28082W        W96456  24.655  21.026   1.352
28083W        W96457   9.735  22.556   3.163
28084W        W96458  12.164  13.160  11.042
28085W        W96459  38.897  19.164   3.370
28086W        W96460   0.964  31.130   1.785
28087W        W96461   5.810  25.645   4.312
28088W        W96462  22.048  28.548  14.794
28089W        W96463  28.650  39.982   2.864
28090W        W96464  29.496  17.225   5.225
28091W        W96465  30.412  25.648   2.808
28092W        W96466  11.668  44.392   2.206
28093W        W96467  39.970  20.687   4.659
28094W        W96468  27.624  18.620  12.347
28095W        W96469  34.936   1.437   3.337
28096W        W96470  21.228   2.446   4.781
28097W        W96471  39.395  33.586  13.930
28098W        W96472  39.831  30.636   3.654
28099W        W96473   8.760  12.809  13.986
28100W        W96474  11.691  22.229   4.752
28101W        W96475  12.798  23.643   3.676
28102W        W96476  18.176  25.189   4.302
28103W        W96477   7.196  38.411  13.951
28104W        W96478   3.786   0.273  12.506
28105W        W96479   4.750  25.093  14.790
28106W        W96480  40.955  28.066  13.419
28107W        W96481  10.722  23.685   0.379
28108W        W96482  25.665  15.258   4.254
28109W        W96483  11.803  23.582  14.498
28110W        W96484  42.444   5.862   0.387
28111W        W96485  20.250  16.625   3.685
28112W        W96486  33.513  12.680   0.257
28113W        W96487  14.213   6.346  11.492
28114W        W96488  38.381   4.329  13.327
28115W        W96489  32.411  33.432  12.893
28116W        W96490  38.523   3.793  13.849
28117W        W96491  30.441  41.881   4.739
28118W        W96492  27.103   3.804  13.888
28119W        W96493   7.775   5.356   5.223
28120W        W96494  17.626  23.698   1.342
28121W        W96495   8.268   4.826   0.961
28122W        W96496  38.406  41.908  13.977
28123W        W96497  28.548   5.697   0.858
28124W        W96498  18.682  41.349   0.879
28125W        W96499   6.911   4.339   3.857
28126W        W96500  13.147  11.782  13.361
28127W        W96501  43.333  36.531  11.398
28128W        W96502   6.321  37.038  12.027
28129W        W96503  21.670   6.720  12.953
28130W        W96504  24.133  12.268   0.734
28131W        W96505  12.709   7.798  12.823
28132W        W96506  19.096  42.397  12.026
28133W        W96507  25.704  10.720   1.716
28134W        W96508  31.038  27.004  13.801
28135W        W96509   7.674  36.519   0.888
28136W        W96510  39.446   1.785  12.362
28137W        W96511   0.393   6.411   4.621
28138W        W96512  39.499  21.091  11.121
28139W        W96513  36.997  44.856   4.739
28140W        W96514  16.116  15.638  13.498
28141W        W96515  34.099  44.946  12.389
28142W        W96516   2.884  35.495  14.027
28143W        W96517  13.275  43.335  11.517
28144W        W96518  36.418  22.576  10.041
28145W        W96519  39.816   5.760   0.798
28146W        W96520  18.776  26.596  10.413
28147W        W96521  41.008   9.208   0.746
28148W        W96522  37.360  18.170   1.843
28149W        W96523  12.190  30.432  13.422
28150W        W96524  44.433  36.484  11.552
28151W        W96525  14.258  19.256  10.472
28152W        W96526  22.999  24.028   3.254
28153W        W96527  22.059  35.101  11.987
28154W        W96528  37.447  35.041  10.956
28155W        W96529  25.217   6.904   2.818
28156W        W96530  29.574  14.121  11.474
28157W        W96531  24.106  36.875   0.288
28158W        W96532  28.656  42.961   0.798
28159W        W96533   5.229  32.421   3.381
28160W        W96534   0.323   1.287  11.060
28161W        W96535  12.181  23.005  12.392
28162W        W96536  40.491   6.339   5.270
28163W        W96537  16.292  14.105  12.905
28164W        W96538   8.161   4.249   4.792
28165W        W96539  13.148  20.221   1.241
28166W        W96540  20.627   9.189  10.593
28167W        W96541   4.440  19.247   4.175
28168W        W96542  44.471  43.815  13.389
28169W        W96543  40.443  27.968   5.234
28170W        W96544  27.198   5.318  13.819
28171W        W96545  32.106  17.629  13.425
28172W        W96546   1.309  34.606   3.369
28173W        W96547  23.494  43.360   4.267
28174W        W96548  34.587  30.071  14.861
28175W        W96549   8.394  19.258  14.979
28176W        W96550  38.854  40.910   0.365
28177W        W96551  44.914  37.416   5.167
28178W        W96552  33.005  12.676  14.318
28179W        W96553  13.794   8.353  11.058
28180W        W96554   0.841  29.451  10.485
28181W        W96555  42.321  37.852   4.739
28182W        W96556  23.646  40.373   2.812
28183W        W96557  37.415  12.329   4.198
28184W        W96558  10.154   7.381   3.343
28185W        W96559  42.817  11.640   1.927
28186W        W96560  35.446  33.101  11.090
28187W        W96561  32.466   6.266  14.280
28188W        W96562  15.809   0.436  12.487
28189W        W96563  21.204  44.301   4.677
28190W        W96564  41.807  20.678  13.816
28191W        W96565  30.956   0.290   4.164
28192W        W96566  23.209  21.728   1.842
28193W        W96567  10.369  35.017   4.283
28194W        W96568  43.312  28.517  10.929
28195W        W96569  14.626  31.051   0.357
28196W        W96570  10.335  36.847   1.742
28197W        W96571  16.610  11.664  14.368
28198W        W96572  27.197  27.559  12.395
28199W        W96573  30.128  12.823  11.427
28200W        W96574  43.408  11.734   1.695
28201W        W96575  38.889  44.297   0.395
28202W        W96576   3.911  43.350  10.999
28203W        W96577  26.037  38.339   1.296
28204W        W96578  23.575  12.250   1.299
28205W        W96579   8.699  39.550  13.329
28206W        W96580  25.611  23.708   3.839
28207W        W96581   2.802   2.884   4.702
28208W        W96582   8.298  36.534   3.269
28209W        W96583  38.446  41.501   0.424
28210W        W96584  21.169  17.706   3.776
28211W        W96585  25.965  19.715   2.373
28212W        W96586  25.185   4.862  14.472
28213W        W96587   1.301   1.473   4.698
28214W        W96588  20.607  39.953   3.256
28215W        W96589  13.319   2.315  11.606
28216W        W96590  43.019  21.606   3.327
28217W        W96591  34.879  16.672  12.429
28218W        W96592  43.270  31.084   3.223
28219W        W96593  13.176  35.021  12.580
28220W        W96594   3.388   1.385   1.896
28221W        W96595  43.951  28.936   3.821
28222W        W96596  44.797  14.237  11.435
28223W        W96597  43.945  40.816  14.501
28224W        W96598   8.197  33.601   1.285
28225W        W96599  22.638  38.416  12.874
28226W        W96600   0.858  31.571   4.801
28227W        W96601   8.712  18.583  11.099
28228W        W96602   2.370  31.608  11.019
28229W        W96603  32.514  25.544  12.491
28230W        W96604  32.063   8.808  14.907
28231W        W96605  44.399  35.070   0.309
28232W        W96606  23.586  33.031  13.316
28233W        W96607   6.412  44.334   3.743
28234W        W96608  16.625  17.673  10.961
28235W        W96609  11.272  18.734  13.332
28236W        W96610   2.866  44.937  10.420
28237W        W96611  15.162  42.793  12.852
28238W        W96612  42.388  30.607   1.234
28239W        W96613  21.635  18.659   2.784
28240W        W96614  33.539  34.437   2.181
28241W        W96615  27.032  26.042  13.811
28242W        W96616  18.095  11.281   2.824
28243W        W96617  29.038  16.274   4.807
28244W        W96618   6.916   8.374   2.823
28245W        W96619   5.734  43.313   0.889
28246W        W96620  31.151  30.009   1.766
28247W        W96621  10.338  31.918   5.247
28248W        W96622   2.937  30.052  13.990
28249W        W96623   9.813  29.467   2.902
28250W        W96624  34.592  10.298   0.481
28251W        W96625  20.228  34.529  14.478
28252W        W96626  28.579  23.590   3.158
28253W        W96627   8.195  32.116   3.354
28254W        W96628   8.772  34.568   4.325
28255W        W96629  24.097  12.319   3.257
28256W        W96630   9.199   7.380  11.977
28257W        W96631  40.332   1.811  10.583
28258W        W96632  38.398  10.797  13.495
28259W        W96633  34.071   8.751   2.791
28260W        W96634  39.543  24.698  13.900
28261W        W96635  25.169  21.754   4.230
28262W        W96636  11.795  11.624  11.107
28263W        W96637  42.784  28.556   4.833
28264W        W96638  43.328  20.662   4.195
28265W        W96639  36.500  37.938   3.771
28266W        W96640  27.471  40.929  10.607
28267W        W96641  23.527   8.275  14.010
28268W        W96642  30.519  40.309   0.242
28269W        W96643  26.164  32.503  11.381
28270W        W96644  43.932  11.345   0.315
28271W        W96645  22.018  10.378  11.944
28272W        W96646  14.732  11.141  11.907
28273W        W96647   4.218  16.210  14.374
28274W        W96648  11.682   3.252   2.897
28275W        W96649   7.838  33.976   2.727
28276W        W96650  44.907  37.544  11.439
28277W        W96651  35.068   0.333  11.877
28278W        W96652  28.982  10.704   4.627
28279W        W96653  22.600   1.309  13.990
28280W        W96654  43.773  13.613  11.125
28281W        W96655  22.589  25.493  14.349
28282W        W96656  16.178   8.786   2.376
28283W        W96657  17.612  16.726   2.294
28284W        W96658   6.756   4.847  13.408
28285W        W96659  31.148  37.419   0.905
28286W        W96660   0.766  17.251   0.877
28287W        W96661  11.710  43.903  14.797
28288W        W96662  37.343  23.026   2.730
28289W        W96663  16.271   9.833  10.534
28290W        W96664  25.979   6.263   0.898
28291W        W96665  29.970  39.436  14.275
28292W        W96666  30.955  22.681   0.256
28293W        W96667  29.634   5.347  13.422
28294W        W96668  37.053   7.389  14.453
28295W        W96669  29.665  40.538   5.286
28296W        W96670  14.679   9.251  10.412
28297W        W96671  24.069  26.118  10.890
28298W        W96672  18.660  19.120  10.891
28299W        W96673  21.511  24.082   4.276
28300W        W96674   2.877   0.402  13.347
28301W        W96675  42.901   8.667   3.675
28302W        W96676   4.260  38.053   4.659
28303W        W96677   1.794  22.088  13.053
28304W        W96678  19.703  38.477  12.838
28305W        W96679   8.852  38.938  12.028
28306W        W96680  35.030  16.204  14.967
28307W        W96681  29.608  42.867  14.763
28308W        W96682  39.891  36.947   1.261
28309W        W96683  18.079  41.845  14.918
28310W        W96684   8.255   3.328   0.848
28311W        W96685  19.274   5.347  12.525
28312W        W96686   3.238  44.480  12.992
28313W        W96687  26.990  36.443   0.313
28314W        W96688   2.435  16.179  12.520
28315W        W96689  37.994  42.999  13.505
28316W        W96690   9.234   2.923   5.715
28317W        W96691  31.928  39.061  10.539
28318W        W96692  15.270   4.308  11.106
28319W        W96693  32.624  34.033   3.781
28320W        W96694  41.304   3.931   4.645
28321W        W96695  19.059  30.932  11.949
28322W        W96696  25.192  42.979  13.914
28323W        W96697  17.686  39.495   3.654
28324W        W96698   1.360  41.438  12.951
28325W        W96699  24.674  31.920  11.414
28326W        W96700  32.940   9.853   4.833
28327W        W96701  31.643  41.363  10.592
28328W        W96702  28.002  16.221  10.558
28329W        W96703  28.514  19.260  11.986
28330W        W96704   3.758  34.882  11.500
28331W        W96705  15.273  38.997  14.321
28332W        W96706  14.649  33.036  13.477
28333W        W96707  37.084  12.247  14.767
28334W        W96708  25.647  34.064   3.685
28335W        W96709  25.994  37.011   2.231
28336W        W96710  42.404  26.951   3.776
28337W        W96711  25.548  10.322   0.422
28338W        W96712  21.559   8.295   3.167
28339W        W96713  17.592  12.266  10.958
28340W        W96714  29.989  37.944  14.888
28341W        W96715  19.200  24.551   1.721
28342W        W96716  11.346   7.856  10.590
28343W        W96717   7.908  11.624   4.658
28344W        W96718  17.624  10.649   0.313
28345W        W96719  11.863  23.631  13.518
28346W        W96720  27.469  18.735   1.738
28347W        W96721  12.710   7.786   4.614
28348W        W96722  44.338  33.998  12.847
28349W        W96723  38.362  21.201   0.275
28350W        W96724   0.488  33.424  12.345
28351W        W96725   0.919  40.545  14.935
28352W        W96726  16.772  14.716   2.701
28353W        W96727  18.615  37.355   4.184
28354W        W96728  21.665   3.785   1.210
28355W        W96729   1.874  44.864  11.941
28356W        W96730  24.621  29.626  14.007
28357W        W96731  12.830  42.883  10.471
28358W        W96732  26.665   4.721   4.754
28359W        W96733  11.837   2.465  10.042
28360W        W96734  27.559  43.928   2.808
28361W        W96735   4.872  17.766  11.966
28362W        W96736  20.117  37.838  12.428
28363W        W96737  27.088  25.052  10.982
28364W        W96738  10.668  22.597   0.879
28365W        W96739   1.941  41.870  13.361
28366W        W96740  29.164  31.492  13.013
28367W        W96741  22.636  36.438  10.963
28368W        W96742  21.073   8.305  11.055
28369W        W96743  26.493  13.817   3.180
28370W        W96744  11.180  23.240  12.080
28371W        W96745  28.005   2.348   4.114
28372W        W96746  12.343  29.170   3.747
28373W        W96747  43.365   3.888  10.559
28374W        W96748  33.599  16.617   0.968
28375W        W96749  35.022  29.582  13.317
28376W        W96750   6.860  30.412   0.358
28377W        W96751  33.960  31.534  13.957
28378W        W96752  42.423  11.639   4.784
28379W        W96753  37.434  27.966  10.989
28380W        W96754  32.909  36.405  13.793
28381W        W96755  22.131   3.302  11.023
28382W        W96756   5.432   8.285  10.471
28383W        W96757   5.798  10.365  13.810
28384W        W96758  25.565  21.215   1.796
28385W        W96759  19.137  28.961   4.632
28386W        W96760  23.711   9.844  10.927
28387W        W96761  29.096   5.237  10.945
28388W        W96762   6.249  38.028  13.478
28389W        W96763  43.018  37.404   0.406
28390W        W96764  30.412  18.103  13.473
28391W        W96765  44.954  15.687   5.227
28392W        W96766  37.967  18.159   3.238
28393W        W96767  17.567  12.672  12.487
28394W        W96768  35.523   5.917  13.969
28395W        W96769  25.707  28.004  14.892
28396W        W96770  18.230  20.717   4.787
28397W        W96771  15.137  23.145   2.336
28398W        W96772  41.838  31.929  10.455
28399W        W96773   5.789  37.478  13.028
28400W        W96774  21.655  10.313   4.264
28401W        W96775  30.596  34.522  11.380
28402W        W96776  42.501  12.822   0.947
28403W        W96777   9.173  28.662   1.747
28404W        W96778  18.732  20.196   0.768
28405W        W96779   9.160  38.824   4.762
28406W        W96780  40.412  31.122   0.469
28407W        W96781  15.819  15.757   4.284
28408W        W96782   0.800   1.330   2.715
28409W        W96783  38.973  34.092   2.889
28410W        W96784   6.831  18.776   2.761
28411W        W96785  30.133  26.615  10.108
28412W        W96786  29.156  19.148   4.730
28413W        W96787  29.140  27.065   3.169
28414W        W96788  44.935  14.314  13.964
28415W        W96789  15.664  12.842  10.602
28416W        W96790   4.384  34.103  13.015
28417W        W96791  20.198  39.317  10.413
28418W        W96792  10.741  27.505   4.273
28419W        W96793  15.138  27.053  13.315
28420W        W96794   7.776  37.344  12.002
28421W        W96795  44.374  40.051  13.521
28422W        W96796  33.127  28.065  12.015
28423W        W96797  23.524   0.797  14.971
28424W        W96798  17.790  11.708   4.701
28425W        W96799   3.435  24.202   4.761
28426W        W96800   2.362  34.992   3.653
28427W        W96801  31.586   2.425  13.512
28428W        W96802  19.720  42.360   4.621
28429W        W96803  28.082   9.874   4.335
28430W        W96804  16.074  29.428   3.745
28431W        W96805  23.632  11.773  11.579
28432W        W96806  31.002  34.980   0.750
28433W        W96807   1.308  40.447   3.839
28434W        W96808  20.061   9.321  13.327
28435W        W96809  31.601  30.602  11.585
28436W        W96810  35.382  22.518   1.317
28437W        W96811  16.303   1.915   4.610
28438W        W96812   5.734   1.739   0.757
28439W        W96813  27.034  43.367  10.478
28440W        W96814  43.764  22.190  10.605
28441W        W96815  24.574  41.989   0.468
28442W        W96816  31.004  14.238   1.266
28443W        W96817   2.227  40.828   1.892
28444W        W96818  11.143  25.151   4.286
28445W        W96819  14.311  38.325   0.437
28446W        W96820  32.132  40.433  13.466
28447W        W96821  27.665  13.693   4.177
28448W        W96822   5.414  44.957   4.703
28449W        W96823   7.701   0.273  13.359
28450W        W96824   4.368  13.738   0.821
28451W        W96825  40.829   8.383  12.401
28452W        W96826  13.195   8.898   4.816
28453W        W96827  16.649  39.541   3.152
28454W        W96828  39.953  10.856  13.491
28455W        W96829  28.988   7.315  12.892
28456W        W96830  35.510  35.483   2.252
28457W        W96831  33.606  23.150  10.590
28458W        W96832  25.093   6.373  14.794
28459W        W96833   5.235  34.522  14.987
28460W        W96834  21.521  27.006   0.285
28461W        W96835  28.482   2.448   2.252
28462W        W96836  40.512  12.159   3.637
28463W        W96837  43.836  15.641   2.747
28464W        W96838  15.759  28.555   4.336
28465W        W96839  23.231  35.937  11.875
28466W        W96840  13.821  25.093  13.315
28467W        W96841  19.666   2.394  14.834
28468W        W96842  26.182  12.680   1.857
28469W        W96843  43.385   2.745  12.016
28470W        W96844   3.273  15.110  13.906
28471W        W96845  12.829   9.171   0.315
28472W        W96846  28.146   9.835  13.841
28473W        W96847  12.355  16.713  14.784
28474W        W96848  39.870   6.285   2.286
28475W        W96849  20.762  14.705  11.862
28476W        W96850  19.720  15.653   5.185
28477W        W96851  14.827  18.197   4.601
28478W        W96852   0.366   5.832   1.321
28479W        W96853  43.925  15.097  12.864
28480W        W96854  24.058  25.027   2.693
28481W        W96855  36.965  18.657  11.373
28482W        W96856   6.709  16.674   1.358
28483W        W96857  21.539  43.413   3.835
28484W        W96858  41.502  39.823   4.754
28485W        W96859  24.573   7.377   2.835
28486W        W96860  27.163  20.214   1.799
28487W        W96861  18.691  40.976  14.281
28488W        W96862  36.945   3.901  14.933
28489W        W96863   1.321  33.557  14.842
28490W        W96864  36.976  12.813  14.990
28491W        W96865  16.678  39.062   1.722
28492W        W96866  42.860  39.520  11.069
28493W        W96867  15.749   3.873  11.553
28494W        W96868  19.765   5.369   1.391
28495W        W96869  30.547  30.948   0.387
28496W        W96870  36.358  44.960   1.277
28497W        W96871   5.383  36.085   4.715
28498W        W96872  40.913   4.818  10.595
28499W        W96873   2.233   8.673   1.269
28500W        W96874   3.802  25.701  14.288
28501W        W96875   7.265   9.817  10.953
28502W        W96876  11.338  38.861  11.950
28503W        W96877  29.159  41.507  13.324
28504W        W96878  37.363   5.343  13.349
28505W        W96879  17.753  28.136   2.375
28506W        W96880  13.773  34.056  14.433
28507W        W96881  42.022  42.840  10.585
28508W        W96882  27.957  10.205  11.886
28509W        W96883   6.857  23.681  13.048
28510W        W96884  17.173   9.318  13.352
28511W        W96885  19.131  31.500  14.407
28512W        W96886  29.562   2.428   4.160
28513W        W96887  14.116  43.833   0.926
28514W        W96888  35.451  17.738  12.954
28515W        W96889   5.386  11.299   3.287
28516W        W96890  23.535  38.001   1.838
28517W        W96891  38.868  32.099  11.019
28518W        W96892  31.083  17.136   1.310
28519W        W96893  20.177  33.983   1.444
28520W        W96894  20.610   7.317   2.237
28521W        W96895   5.278  39.053   1.219
28522W        W96896  26.649   4.402  11.407
28523W        W96897  44.259  14.240   2.263
28524W        W96898  35.535  25.081  12.445
28525W        W96899   2.782  32.001   1.932
28526W        W96900   0.863  30.116   1.429
28527W        W96901  30.460   1.352  11.372
28528W        W96902  25.515  23.003  12.982
28529W        W96903  16.275  18.745   2.675
28530W        W96904  44.498  41.905   1.313
28531W        W96905  25.110  21.575  10.645
28532W        W96906  27.630   7.210  11.460
28533W        W96907  20.144  14.101  12.971
28534W        W96908  39.421   4.887   4.794
28535W        W96909  28.994  33.575   2.353
28536W        W96910  39.479  19.723   4.643
28537W        W96911  36.528  23.579  14.339
28538W        W96912   5.344  21.126  14.322
28539W        W96913  42.012  38.473  12.424
28540W        W96914  31.042  24.693   0.879
28541W        W96915   1.808   0.292   3.156
28542W        W96916  24.075   9.735   1.421
28543W        W96917  43.339   6.334  10.069
28544W        W96918  35.554   6.791   2.251
28545W        W96919  22.697  14.097   1.268
28546W        W96920   9.285  32.574   3.162
28547W        W96921  38.403  23.170  12.870
28548W        W96922  12.632  26.196  12.389
28549W        W96923  40.997  16.784   2.743
28550W        W96924   5.273  41.827   1.362
28551W        W96925  28.679   3.438  11.445
28552W        W96926   8.734  22.711   2.383
28553W        W96927  12.687  18.788   2.296
28554W        W96928  11.807  37.018  12.945
28555W        W96929   8.698  22.125  10.930
28556W        W96930  40.344  30.990  12.492
28557W        W96931  39.930  27.684  13.331
28558W        W96932  23.592  41.516  13.038
28559W        W96933  21.065  15.251   2.756
28560W        W96934  25.187  25.072  11.417
28561W        W96935   1.881  25.998   1.896
28562W        W96936   4.223  28.082  11.003
28563W        W96937  42.340  42.953   2.217
28564W        W96938  42.435   5.840   1.810
28565W        W96939   5.753  18.176  14.389
28566W        W96940   0.910   7.414   4.662
28567W        W96941  26.549  26.586  10.598
28568W        W96942   4.211   7.775   2.198
28569W        W96943  17.707  36.925  14.340
28570W        W96944  27.103  41.995  12.069
28571W        W96945   0.973  21.597  12.377
28572W        W96946   8.666   4.431  13.462
28573W        W96947   2.950  19.735  14.766
28574W        W96948  16.741  18.252   4.242
28575W        W96949  20.760  37.882  13.951
28576W        W96950  21.658  44.933   1.283
28577W        W96951  44.348   0.902   4.613
28578W        W96952  39.324  14.223   0.345
28579W        W96953  36.026   5.927  12.426
28580W        W96954  14.137   5.929   1.726
28581W        W96955  11.131  16.093   2.669
28582W        W96956   2.415  21.659   0.376
28583W        W96957  23.146  21.733  13.541
28584W        W96958  18.116  19.237  10.518
28585W        W96959   1.249  43.823   3.771
28586W        W96960  40.804   7.891   3.700
28587W        W96961  10.182   7.838   0.375
28588W        W96962  10.230  32.512   2.231
28589W        W96963  15.285  44.999   3.850
28590W        W96964   1.313   0.280  12.408
28591W        W96965   9.151  10.376  10.905
28592W        W96966  40.044   9.326   1.837
28593W        W96967   2.802  11.806   1.240
28594W        W96968  31.034  29.070   1.895
28595W        W96969  24.983  10.316   1.434
28596W        W96970   1.424  32.978  12.047
28597W        W96971   6.870  22.112  12.870
28598W        W96972  35.572  24.713  13.849
28599W        W96973   7.756  33.412   5.287
28600W        W96974   2.816  36.016   2.814
28601W        W96975  28.479  33.922   0.324
28602W        W96976  11.361  23.494  12.540
28603W        W96977  41.941  41.464  10.066
28604W        W96978   5.909  20.657   3.707
28605W        W96979  16.761   0.742   2.299
28606W        W96980  35.376  26.565   0.292
28607W        W96981  43.877  22.658   4.257
28608W        W96982   3.809  42.875   0.299
28609W        W96983  11.291  28.997   4.328
28610W        W96984  16.252  26.081  11.610
28611W        W96985   2.805  37.557   4.203
28612W        W96986  23.711  32.590  12.563
28613W        W96987   6.912  44.998  13.792
28614W        W96988  23.657  24.714   3.373
28615W        W96989  25.597  16.641  13.435
28616W        W96990  33.896  29.528  11.378
28617W        W96991   3.360   2.865  11.015
28618W        W96992   4.447  18.296  11.487
28619W        W96993  26.654  27.660  11.890
28620W        W96994  18.707   1.417   1.922
28621W        W96995  37.861  21.166  14.006
28622W        W96996  12.742  11.684  11.599
28623W        W96997  23.617  13.106   1.720
28624W        W96998  39.989  30.418  14.840
28625W        W96999  33.126  42.397   3.283
28626W        W97000  28.667   7.191  14.475
28627W        W97001  33.476  37.348   2.864
28628W        W97002  36.052   9.856  10.640
28629W        W97003  16.093  29.124  12.532
28630W        W97004  36.025  38.525  13.509
28631W        W97005   9.166  12.129   1.267
28632W        W97006  38.016  25.154  11.425
28633W        W97007  15.199  35.464  11.956
28634W        W97008  37.953   9.882  10.136
28635W        W97009  34.900  21.074  10.924
28636W        W97010  15.587   6.846  12.534
28637W        W97011  29.947  13.664   3.380
28638W        W97012   8.192  27.084  11.420
28639W        W97013  39.056  21.601  14.801
28640W        W97014  14.334  11.681   5.281
28641W        W97015  43.897  39.316  10.541
28642W        W97016  29.559  44.275   9.615
28643W        W97017  16.150  19.253   3.777
28644W        W97018  11.778  35.958   1.875
28645W        W97019   7.190  16.081   1.271
28646W        W97020  33.925   9.742   4.339
28647W        W97021  12.346   4.373   0.406
28648W        W97022  24.502   2.802   1.698
28649W        W97023  19.243  36.099   2.192
28650W        W97024  26.598  44.345  10.560
28651W        W97025  31.926  36.403  10.920
28652W        W97026  42.419  39.058  14.861
28653W        W97027  20.639  35.041   1.747
28654W        W97028   4.354  43.994  11.452
28655W        W97029  15.619  28.651  14.281
28656W        W97030  30.068  37.510  13.802
28657W        W97031   3.377  28.086  13.826
28658W        W97032  11.324  37.480  13.359
28659W        W97033  36.483  34.606  12.008
28660W        W97034   6.324  43.413   1.360
28661W        W97035  22.605  20.122   1.301
28662W        W97036  33.985  39.025  11.112
28663W        W97037  10.299  35.453  12.069
28664W        W97038  37.957   9.305   4.813
28665W        W97039   2.422   8.691   3.151
28666W        W97040  25.131  30.095  14.400
28667W        W97041  38.956  23.093   2.665
28668W        W97042  23.042  44.947  13.882
28669W        W97043  29.653   3.924  12.013
28670W        W97044  21.621  38.857   2.293
28671W        W97045  37.008   0.877   4.634
28672W        W97046  36.356   2.785   4.132
28673W        W97047  19.571  36.487   0.821
28674W        W97048  24.635   3.253   3.315
28675W        W97049   0.859   6.754  14.963
28676W        W97050  38.499  41.397  14.481
28677W        W97051  16.608   6.895  10.505
28678W        W97052   6.715  40.416  14.391
28679W        W97053  12.293   0.821  14.444
28680W        W97054  33.979   4.837   4.332
28681W        W97055  30.941  31.617  12.086
28682W        W97056  23.207  21.663  13.841
28683W        W97057  32.927  15.723  14.925
28684W        W97058  17.237   8.171   4.753
28685W        W97059  10.323  27.969   1.254
28686W        W97060  33.521  11.868   2.746
28687W        W97061  32.904   5.751  11.889
28688W        W97062  12.135  11.149  14.825
28689W        W97063  40.315   6.338  11.101
28690W        W97064  19.267   6.745   3.731
28691W        W97065  23.632  36.495  12.574
28692W        W97066  34.903  29.968  10.564
28693W        W97067  10.842   8.733   4.817
28694W        W97068  12.145  11.806   1.862
28695W        W97069  13.332  36.881  14.951
28696W        W97070  41.963  16.181   2.795
28697W        W97071  28.656  26.694   0.762
28698W        W97072  24.079  12.792   2.738
28699W        W97073  31.520   5.707   2.884
28700W        W97074  28.661  13.668  11.035
28701W        W97075  19.558  16.121   3.331
28702W        W97076  41.027  13.726  13.809
28703W        W97077  35.031  10.172  13.917
28704W        W97078  11.277  10.186   4.679
28705W        W97079  27.058  29.158  12.829
28706W        W97080  43.897   0.297   3.378
28707W        W97081  29.928  28.456  12.063
28708W        W97082  42.825  25.122   4.253
28709W        W97083  29.921   5.275  13.825
28710W        W97084  40.844  20.766   0.889
28711W        W97085  38.443  32.599  14.905
28712W        W97086  15.171  20.721   3.751
28713W        W97087  31.969  37.431   1.918
28714W        W97088  14.815   7.833   2.369
28715W        W97089   0.392  20.081   3.674
28716W        W97090  33.950   1.941  10.463
28717W        W97091  27.141  41.349   0.479
28718W        W97092  14.636  16.581  12.475
28719W        W97093  34.898  25.082   2.254
28720W        W97094   8.294  28.448   3.331
28721W        W97095  40.324   2.390   4.200
28722W        W97096  28.974   3.231   4.715
28723W        W97097   3.718  41.446  14.803
28724W        W97098  16.109  39.466  13.910
28725W        W97099  37.902  32.072   0.939
28726W        W97100  25.480  37.043  13.426
28727W        W97101   7.300  38.442  14.332
28728W        W97102  29.160  15.719   4.763
28729W        W97103   7.233  31.924  12.943
28730W        W97104   3.805   2.244   3.242
28731W        W97105   0.901  21.237  12.937
28732W        W97106   3.218  19.741   4.831
28733W        W97107  17.216  33.948  10.426
28734W        W97108   5.332  23.237  14.980
28735W        W97109   7.810  28.584   9.662
28736W        W97110   0.962  40.003  11.063
28737W        W97111  20.179  14.654  10.563
28738W        W97112  23.571   6.265   1.387
28739W        W97113  28.678  34.455  12.454
28740W        W97114  14.695  24.715  11.908
28741W        W97115  38.863  27.986  11.109
28742W        W97116   3.956   0.455  13.514
28743W        W97117  41.904  42.821  14.289
28744W        W97118   3.868  30.436  14.414
28745W        W97119  37.884  31.424  14.860
28746W        W97120  13.761  11.233  13.859
28747W        W97121  25.488  30.590   1.370
28748W        W97122  29.564  16.307  11.906
28749W        W97123  21.054  10.373  11.472
28750W        W97124  33.107  22.584  12.478
28751W        W97125  16.176  34.503  10.413
28752W        W97126  21.225  14.751  13.824
28753W        W97127   4.359   5.748   3.205
28754W        W97128  26.678  38.039   3.868
28755W        W97129  38.515  40.374  14.969
28756W        W97130   6.259  41.410  13.943
28757W        W97131  11.811   9.267   0.407
28758W        W97132  19.538  36.592  11.409
28759W        W97133  28.962   9.171   3.757
28760W        W97134   5.282   9.854   2.731
28761W        W97135  36.532  42.324  12.424
28762W        W97136  44.388  30.103   0.250
28763W        W97137  44.863   7.399   2.208
28764W        W97138   2.301   4.368   3.239
28765W        W97139  30.037  27.656  10.963
28766W        W97140  21.222   5.309   0.836
28767W        W97141   8.695  21.208   0.380
28768W        W97142  24.218   9.750   0.481
28769W        W97143  33.964  38.013   4.820
28770W        W97144   3.301   9.181   4.229
28771W        W97145  30.463  29.458   3.769
28772W        W97146  37.084  11.679  12.071
28773W        W97147  19.062   6.296   0.879
28774W        W97148  37.887  20.117   0.465
28775W        W97149  29.600  43.789  13.819
28776W        W97150   9.712   9.849   0.447
28777W        W97151  40.407   5.283   4.626
28778W        W97152  43.961  23.107  10.985
28779W        W97153   8.258  30.155  11.395
28780W        W97154   0.470  16.073   1.742
28781W        W97155   1.323  20.215  13.862
28782W        W97156  10.710  44.990  10.941
28783W        W97157  31.459   7.299  12.924
28784W        W97158  16.269  39.001   2.835
28785W        W97159  23.074  15.272   1.450
28786W        W97160  42.818  20.073   1.878
28787W        W97161  20.153   7.868   2.784
28788W        W97162  16.271  39.846  10.996
28789W        W97163  29.602  25.679   4.657
28790W        W97164  26.670  10.149  10.897
28791W        W97165  33.472  41.383   4.640
28792W        W97166  31.582  38.986   3.166
28793W        W97167   1.451  25.482  10.993
28794W        W97168   0.254  34.918  11.042
28795W        W97169  34.444  21.196  14.494
28796W        W97170   9.728  28.492  14.283
28797W        W97171   1.455  16.231  12.907
28798W        W97172  44.920  26.001   3.667
28799W        W97173   5.696   2.862  12.481
28800W        W97174  25.620  14.186  10.019
28801W        W97175  36.514  28.967  12.042
28802W        W97176  18.646  29.046  14.423
28803W        W97177   1.847  25.154  13.442
28804W        W97178   7.675  44.758   3.169
28805W        W97179  12.186  20.243   3.311
28806W        W97180  42.970  14.649  11.079
28807W        W97181  11.730  38.023   4.341
28808W        W97182   2.894  22.651  12.825
28809W        W97183  40.924  16.738  11.045
28810W        W97184  30.443  18.765   0.361
28811W        W97185  24.070   6.230   3.226
28812W        W97186  22.514  12.689   4.321
28813W        W97187  30.436  25.063   1.231
28814W        W97188  38.942   5.912   4.736
28815W        W97189  12.625  14.672   0.287
28816W        W97190  29.573  37.832   0.871
28817W        W97191   8.677  20.557   5.750
28818W        W97192  35.063  42.842   0.454
28819W        W97193   4.366   1.298  13.399
28820W        W97194   0.897  31.028  14.881
28821W        W97195  22.705  30.631  10.911
28822W        W97196  19.281  11.648   4.825
28823W        W97197  43.808   5.226  14.423
28824W        W97198  26.519  41.797   2.707
28825W        W97199  40.387  35.867   2.898
28826W        W97200   0.443  27.046  12.406
28827W        W97201   5.341  30.948  11.966
28828W        W97202   3.219  13.253  10.974
28829W        W97203  29.982  13.772  14.000
28830W        W97204  16.594  31.068   4.611
28831W        W97205  26.032  18.226   0.448
28832W        W97206  30.039   7.288   0.951
28833W        W97207  29.537  26.078   1.222
28834W        W97208  22.660  17.168  11.415
28835W        W97209  36.991   7.216  13.363
28836W        W97210  43.924  25.127   3.807
28837W        W97211  15.582  31.421   2.710
28838W        W97212  43.977  27.146  14.496
28839W        W97213  33.510  34.073  12.416
28840W        W97214   3.876  23.708   3.730
28841W        W97215  38.959  27.659  14.912
28842W        W97216  30.473  36.039   0.376
28843W        W97217  38.946   0.443  12.950
28844W        W97218  14.802   0.256  12.927
28845W        W97219  29.041  26.166   0.346
28846W        W97220  30.444  10.761  12.388
28847W        W97221  41.342  19.268   1.322
28848W        W97222  17.669  20.688  10.964
28849W        W97223  36.850   7.289   2.405
28850W        W97224  28.639  11.861   1.834
28851W        W97225   4.216  28.017   2.899
28852W        W97226  42.789  43.840  12.545
28853W        W97227  43.907  20.187  11.031
28854W        W97228  27.006  33.410  12.350
28855W        W97229  35.421  31.449  11.958
28856W        W97230  43.956  42.848  14.901
28857W        W97231   8.371  25.587  14.013
28858W        W97232  41.889  22.570  11.496
28859W        W97233  22.617  30.417   4.270
28860W        W97234   4.363  35.088  13.531
28861W        W97235   7.260  43.395   0.324
28862W        W97236  33.530  44.488  11.422
28863W        W97237  37.065  41.828   1.435
28864W        W97238  22.115  25.158  12.982
28865W        W97239  40.879   2.251  14.971
28866W        W97240  26.481   3.954  13.910
28867W        W97241  29.655  26.033   2.731
28868W        W97242   4.277  11.791  12.079
28869W        W97243   4.256  40.991   0.340
28870W        W97244  27.049   6.892  11.857
28871W        W97245   5.694  22.077   3.790
28872W        W97246  43.430  10.753  13.033
28873W        W97247  30.602   1.876  12.019
28874W        W97248  28.992  37.019  11.855
28875W        W97249  37.558  40.922  12.548
28876W        W97250  11.274   4.917  11.443
28877W        W97251  42.384  15.251  12.350
28878W        W97252   3.230  40.368   5.143
28879W        W97253  29.161   4.215  13.842
28880W        W97254   9.344  10.227   2.752
28881W        W97255  26.658  24.614  11.572
28882W        W97256  18.185   2.355  14.291
28883W        W97257  14.249  15.641  11.082
28884W        W97258  34.923  27.146  11.552
28885W        W97259   3.271  24.191  14.928
28886W        W97260  42.914   0.849  14.309
28887W        W97261   9.731  31.972  13.483
28888W        W97262  26.633  34.502  14.468
28889W        W97263   2.962   8.208   0.392
28890W        W97264  30.552   0.288  10.893
28891W        W97265  42.455  38.067   2.814
28892W        W97266   7.756  36.466   1.295
28893W        W97267  34.980   9.206   0.436
28894W        W97268  21.559  33.883   3.679
28895W        W97269   7.203  43.329   4.312
28896W        W97270  41.502   9.713   1.716
28897W        W97271  44.444  37.357  13.411
28898W        W97272   8.262   4.272  10.936
28899W        W97273   4.844   7.335  12.090
28900W        W97274   1.483   9.816   3.811
28901W        W97275   8.876  11.287  11.581
28902W        W97276  24.142  41.422   0.482
28903W        W97277  27.149  37.519  10.906
28904W        W97278  19.070  38.418  14.297
28905W        W97279  14.771  37.962  10.922
28906W        W97280  28.018  32.046  11.379
28907W        W97281  39.854  26.031  10.532
28908W        W97282  15.322   8.241   2.290
28909W        W97283  35.443  44.946   4.353
28910W        W97284   0.945   2.944  13.033
28911W        W97285   3.230  21.027   2.767
28912W        W97286  15.128  32.496   2.721
28913W        W97287  30.910  23.045   0.949
28914W        W97288   4.911   9.735  14.510
28915W        W97289   7.393   2.909   1.311
28916W        W97290  23.006  23.584  14.981
28917W        W97291  41.901  29.481   2.391
28918W        W97292  11.789  43.928  12.852
28919W        W97293  14.121  27.575  14.458
28920W        W97294  29.431  15.149   3.715
28921W        W97295  32.075  37.917   2.863
28922W        W97296  22.083   8.274  13.354
28923W        W97297  42.484   4.896   2.856
28924W        W97298  31.513   6.412   3.298
28925W        W97299  31.001   5.791   0.466
28926W        W97300  29.161   5.835  12.466
28927W        W97301  18.186  38.906  12.922
28928W        W97302  31.021  31.633   2.776
28929W        W97303   6.296  11.271  10.565
28930W        W97304  43.325   6.812  12.471
28931W        W97305  39.831  18.718   4.741
28932W        W97306  29.116  40.380   1.390
28933W        W97307  21.049  36.060   4.712
28934W        W97308  25.017  19.137  13.044
28935W        W97309  23.987  36.987  12.521
28936W        W97310  12.171  11.312   0.726
28937W        W97311  13.658  15.643  13.346
28938W        W97312  16.253  43.368  12.854
28939W        W97313   8.298  20.210   0.778
28940W        W97314  44.420  20.590  14.946
28941W        W97315  36.377  19.100   0.482
28942W        W97316  22.651  37.849   1.363
28943W        W97317  25.481  20.583   1.848
28944W        W97318  12.143   7.780   3.649
28945W        W97319  33.624  23.513   2.227
28946W        W97320  34.040  20.618   1.401
28947W        W97321  21.700  31.624   0.965
28948W        W97322   5.690  26.519  11.462
28949W        W97323  16.111   4.287  11.450
28950W        W97324   0.809  23.599   2.662
28951W        W97325  29.952  23.211   1.342
28952W        W97326  19.626  24.487   3.358
28953W        W97327  40.501  31.585   0.945
28954W        W97328  39.340   2.320   2.894
28955W        W97329  21.526  21.566  14.892
28956W        W97330  33.606  26.513   9.970
28957W        W97331  15.317  27.649   0.272
28958W        W97332   7.751  26.122   0.764
28959W        W97333   6.364  25.139   1.702
28960W        W97334   0.273  44.761   4.151
28961W        W97335  38.517  40.939   2.678
28962W        W97336  24.497  36.510  13.837
28963W        W97337  19.124  25.157  10.598
28964W        W97338   0.922   4.288  14.355
28965W        W97339  14.305  27.660   4.269
28966W        W97340  18.149  37.486  14.977
28967W        W97341  35.522  24.010   3.789
28968W        W97342  11.163   0.940  12.004
28969W        W97343  43.371  22.230   1.251
28970W        W97344   9.767  26.165   2.392
28971W        W97345  24.699  37.892   3.212
28972W        W97346  43.917  21.698  11.379
28973W        W97347  42.320  41.487   4.346
28974W        W97348   7.296  34.410  12.040
28975W        W97349  14.673  11.324   0.367
28976W        W97350   5.739  11.305   3.733
28977W        W97351  39.508  25.217  14.938
28978W        W97352  11.308  22.564  10.644
28979W        W97353   7.695  31.063   5.690
28980W        W97354  35.402  20.736   3.366
28981W        W97355  41.356  25.690   0.832
28982W        W97356  20.205   0.349   1.813
28983W        W97357  25.701  36.872   2.724
28984W        W97358  33.472  32.053   5.129
28985W        W97359  38.884   1.385   5.304
28986W        W97360  43.333  29.528   2.251
28987W        W97361  12.829  33.942  11.940
28988W        W97362   5.345  13.720  14.859
28989W        W97363   5.248  11.206   4.281
28990W        W97364  28.497  42.983   0.279
28991W        W97365  43.374  40.378  14.959
28992W        W97366  17.265   0.800  12.020
28993W        W97367   6.317   8.780   2.743
28994W        W97368  15.163  24.684   0.422
28995W        W97369  19.540  28.000  13.488
28996W        W97370   0.443  22.738   3.842
28997W        W97371  31.062  36.447  14.972
28998W        W97372  30.448   8.170  13.914
28999W        W97373  13.166   2.836   4.658
29000W        W97374  15.170  24.086   3.726
29001W        W97375   4.292  28.525  11.556
29002W        W97376   6.786  37.449  11.465
29003W        W97377  44.436  44.282  14.852
29004W        W97378  13.765  39.450  12.518
29005W        W97379  31.139   1.370  12.903
29006W        W97380  39.349  12.127  14.988
29007W        W97381  11.710  41.430   4.690
29008W        W97382  31.098  16.706  12.904
29009W        W97383  33.923   4.252   2.692
29010W        W97384  18.166  12.359   4.747
29011W        W97385  31.025   2.379   4.337
29012W        W97386  11.309  39.965   3.318
29013W        W97387   6.293  33.062   4.604
29014W        W97388   0.443  19.048  11.921
29015W        W97389  13.610  11.280   0.787
29016W        W97390  10.180   0.480  13.794
29017W        W97391  43.950   9.152   4.773
29018W        W97392  35.987  14.723   3.156
29019W        W97393  31.082  28.137   0.258
29020W        W97394  38.463  31.602  14.853
29021W        W97395  27.682  24.710  14.290
29022W        W97396  13.684  41.002   2.376
29023W        W97397  41.335  29.038  13.013
29024W        W97398  33.940  13.254   2.813
29025W        W97399   3.347   9.834  12.947
29026W        W97400  15.792   1.956  10.607
29027W        W97401  35.996  22.121  10.976
29028W        W97402  40.398  20.163  11.581
29029W        W97403  37.443   9.703  12.555
29030W        W97404  31.043  38.878   2.318
29031W        W97405  34.438   0.379  14.470
29032W        W97406  35.584  17.751  11.907
29033W        W97407  22.153  12.325  13.525
29034W        W97408  24.479  21.716   2.186
29035W        W97409  21.574   1.396   2.195
29036W        W97410  27.614   0.467   4.266
29037W        W97411   7.904  30.078   4.215
29038W        W97412  13.782  18.789  13.361
29039W        W97413   2.342  19.619  11.562
29040W        W97414  21.681  29.117  14.887
29041W        W97415  36.404  28.023  11.009
29042W        W97416  29.043   6.768   4.626
29043W        W97417  22.184  29.009   0.378
29044W        W97418  18.051  35.018  12.414
29045W        W97419  28.469  31.945  14.447
29046W        W97420  27.640  10.743  13.309
29047W        W97421  37.556  41.019  14.458
29048W        W97422   4.884  22.587   2.666
29049W        W97423  29.455  35.493  13.987
29050W        W97424  10.257   1.454  14.416
29051W        W97425  14.125  32.909  13.876
29052W        W97426   6.802  35.486  11.478
29053W        W97427  41.809  27.468   2.312
29054W        W97428  15.169  15.791   3.861
29055W        W97429   4.822   6.267   2.743
29056W        W97430  18.188  15.734   3.662
29057W        W97431  30.547  32.926   4.805
29058W        W97432   4.825  34.610   1.235
29059W        W97433  17.223  16.715  12.375
29060W        W97434  29.526  33.618   1.829
29061W        W97435   8.307  16.762   2.673
29062W        W97436  22.210  28.055   1.765
29063W        W97437  31.555   5.776   1.716
29064W        W97438  15.638  38.559  12.887
29065W        W97439  20.700  21.231   4.674
29066W        W97440  25.044  12.297   4.217
29067W        W97441   8.728  27.659  10.578
29068W        W97442  16.077   9.262  14.007
29069W        W97443  11.634   9.251  10.894
29070W        W97444  33.428  31.121   3.668
29071W        W97445  17.168   9.773  12.848
29072W        W97446   7.363   4.297  14.494
29073W        W97447   3.918  11.270  14.382
29074W        W97448   9.807  21.641   4.666
29075W        W97449  24.154  12.841   1.849
29076W        W97450  23.580  19.087   4.133
29077W        W97451  24.050  14.808  12.830
29078W        W97452  13.687   9.745   2.889
29079W        W97453   9.853  15.204   3.224
29080W        W97454  39.487  42.923  12.905
29081W        W97455  42.889  10.756  11.950
29082W        W97456   2.800   1.784  10.463
29083W        W97457   5.328  30.908  13.798
29084W        W97458  25.511  22.623   2.671
29085W        W97459  16.618  11.786  11.857
29086W        W97460   1.753  19.198  13.440
29087W        W97461  27.154  40.884  10.437
29088W        W97462  24.197  43.322  13.409
29089W        W97463  30.133  11.801   1.768
29090W        W97464  30.419  38.406  14.775
29091W        W97465  40.806  42.304   2.840
29092W        W97466  31.938   9.247  14.311
29093W        W97467   3.849  22.168  12.355
29094W        W97468  13.209   3.824   2.827
29095W        W97469  24.163  30.468  12.395
29096W        W97470  42.864  43.938   2.245
29097W        W97471  10.649  24.667  13.830
29098W        W97472  42.886  39.446   0.341
29099W        W97473  25.576  25.630   3.673
29100W        W97474   9.347  39.385  14.839
29101W        W97475   3.727  26.962   0.943
29102W        W97476  14.589   0.395   1.245
29103W        W97477  36.983  13.337  10.479
29104W        W97478  22.552   7.239  13.002
29105W        W97479  44.824   9.152  13.493
29106W        W97480  10.373  25.165  11.507
29107W        W97481  28.952  30.430   1.310
29108W        W97482  42.029  15.174   3.329
29109W        W97483  26.163  12.711   0.308
29110W        W97484   0.957  38.831  13.484
29111W        W97485  37.002  21.554   4.196
29112W        W97486  33.088  18.586   1.229
29113W        W97487   5.724  33.034  13.064
29114W        W97488  44.969  17.766   1.825
29115W        W97489  39.507  25.528   4.716
29116W        W97490   6.727  22.212  13.333
29117W        W97491  43.819  33.007   4.667
29118W        W97492  24.116   7.872  10.444
29119W        W97493  38.012  34.086  14.361
29120W        W97494  38.043  31.470  13.898
29121W        W97495  22.736  39.881   1.780
29122W        W97496   7.335   5.860   4.620
29123W        W97497  37.861  29.925  12.035
29124W        W97498  17.062  11.643  12.516
29125W        W97499  13.292  35.941   0.730
29126W        W97500   6.308  37.048   4.653
29127W        W97501   8.717  27.474   3.207
29128W        W97502   7.241  27.090  12.069
29129W        W97503  40.900   0.301   3.869
29130W        W97504  37.907  40.028   3.284
29131W        W97505  32.082  33.546  11.599
29132W        W97506  29.057   1.362   0.820
29133W        W97507   2.825  34.419   0.949
29134W        W97508   4.386   8.172  11.115
29135W        W97509  24.212  38.852  10.036
29136W        W97510  37.456  38.365   1.877
29137W        W97511  15.284   1.261  13.324
29138W        W97512  36.465  40.526   2.814
29139W        W97513  11.723  20.227   0.424
29140W        W97514   7.700  18.789  10.036
29141W        W97515  24.500  44.490   3.208
29142W        W97516  23.080  31.581  11.497
29143W        W97517   6.385  10.202  10.485
29144W        W97518  13.780  43.785   4.815
29145W        W97519   2.404  17.089  11.030
29146W        W97520  37.037  28.653  12.920
29147W        W97521  22.626  19.103  13.953
29148W        W97522  40.477  32.053   0.828
29149W        W97523  44.281  14.707  12.570
29150W        W97524  27.519   6.247  12.568
29151W        W97525  18.759  44.829   1.702
29152W        W97526   9.266   3.734   0.406
29153W        W97527  22.023  36.015   0.245
29154W        W97528   8.667  41.347   2.835
29155W        W97529  11.806  40.902  14.856
29156W        W97530  26.008   7.692   3.191
29157W        W97531  35.095   8.838  14.820
29158W        W97532  40.401  39.877   1.913
29159W        W97533  43.815  30.544  10.456
29160W        W97534   2.892   0.448  14.969
29161W        W97535  23.506  26.073   0.806
29162W        W97536  27.045  26.155  11.990
29163W        W97537  44.815  27.653  13.327
29164W        W97538  42.290  40.394  14.828
29165W        W97539  24.146   0.388  13.516
29166W        W97540  33.624  17.725  14.359
29167W        W97541  16.191  43.440  13.330
29168W        W97542  16.792   8.394   4.696
29169W        W97543  29.634  42.442  10.982
29170W        W97544  40.048  12.639  13.322
29171W        W97545  14.323  18.239   1.827
29172W        W97546  43.488  42.934  12.498
29173W        W97547  10.228  27.001   0.758
29174W        W97548  13.346  34.515   3.262
29175W        W97549  27.462   4.838   4.651
29176W        W97550  27.504  29.529  14.808
29177W        W97551   9.197  21.082   3.660
29178W        W97552   0.810  34.904  13.833
29179W        W97553  33.005  43.990   3.769
29180W        W97554  21.174  10.322  13.355
29181W        W97555  21.734   8.336  14.340
29182W        W97556  18.140  39.932   3.379
29183W        W97557  13.313  11.317   3.234
29184W        W97558  33.536   7.280  13.825
29185W        W97559   8.835   1.472  10.535
29186W        W97560  36.464  16.641   2.190
29187W        W97561  35.584   1.818   0.890
29188W        W97562   9.184  23.561  12.069
29189W        W97563   2.920  20.126   2.703
29190W        W97564  28.043  38.549  13.859
29191W        W97565  39.981  16.777   1.230
29192W        W97566  25.654  29.429  12.394
29193W        W97567  26.689  18.081   2.885
29194W        W97568  25.196   5.359   0.267
29195W        W97569  32.921  42.018   4.257
29196W        W97570  43.928  36.405  10.488
29197W        W97571  21.648  41.020   1.286
29198W        W97572  28.981  22.675  11.602
29199W        W97573   6.416   4.313   3.278
29200W        W97574  36.995  29.432   3.347
29201W        W97575   5.223   9.385  12.011
29202W        W97576  39.339   3.228   2.248
29203W        W97577  17.613  15.760  10.416
29204W        W97578   7.344  15.095  13.003
29205W        W97579  30.110  13.198  13.918
29206W        W97580  28.020  23.561   2.271
29207W        W97581  44.418  44.336  11.909
29208W        W97582  22.142   1.245   1.246
29209W        W97583  30.939  32.916   0.832
29210W        W97584  28.181  18.127  12.438
29211W        W97585  20.681  13.773   4.238
29212W        W97586  17.717  32.501  14.363
29213W        W97587   6.221  41.453  11.547
29214W        W97588  16.302  26.040  12.887
29215W        W97589  40.013   3.221  14.917
29216W        W97590   8.367   6.742   2.240
29217W        W97591   8.360   0.273   0.438
29218W        W97592  35.859  31.137   1.224
29219W        W97593  32.476  19.596   5.097
29220W        W97594  17.589  37.471   5.173
29221W        W97595  43.917  27.014   4.809
29222W        W97596  12.728   8.172   5.160
29223W        W97597  18.133  44.815   1.698
29224W        W97598  18.269  44.839   2.187
29225W        W97599  11.681   5.214  14.481
29226W        W97600  33.497   6.767   2.772
29227W        W97601  27.679  21.589  13.442
29228W        W97602  42.787  33.608   4.657
29229W        W97603  14.730  37.961   0.242
29230W        W97604  22.157  36.947   5.632
29231W        W97605  36.451  34.888  13.513
29232W        W97606  22.233  33.464  11.394
29233W        W97607  43.837  30.556   1.779
29234W        W97608   1.266  31.592  11.086
29235W        W97609  23.684  12.280  10.633
29236W        W97610  33.104   3.299  14.880
29237W        W97611  15.192  27.629   1.394
29238W        W97612   1.455  20.204   1.351
29239W        W97613  32.632  38.403   4.327
29240W        W97614  41.313  44.357   4.782
29241W        W97615   9.647   2.735   2.181
29242W        W97616  41.842   1.339   4.837
29243W        W97617   6.372  30.114  11.970
29244W        W97618  19.169  24.035   4.711
29245W        W97619  43.951  39.976  14.786
29246W        W97620  21.575   6.330   2.865
29247W        W97621   2.789  16.611  14.334
29248W        W97622  30.995  20.161   4.269
29249W        W97623   2.277  34.436  13.405
29250W        W97624   8.200  17.224  10.953
29251W        W97625   9.719  29.534   5.799
29252W        W97626  37.994  19.098  14.324
29253W        W97627  28.990  32.073   3.187
29254W        W97628  28.557   2.940  13.851
29255W        W97629  14.209  16.280   2.368
29256W        W97630   0.297  10.721   4.316
29257W        W97631  14.214  26.061  11.608
29258W        W97632   6.258  12.682  14.011
29259W        W97633   1.884  10.787  10.889
29260W        W97634  20.695  25.163  12.906
29261W        W97635  14.823  25.533  14.311
29262W        W97636  13.319  10.158  11.091
29263W        W97637  16.151   3.765  11.065
29264W        W97638   7.412   2.396  14.432
29265W        W97639  18.781  39.954  12.511
29266W        W97640  16.710  21.163   0.835
29267W        W97641  21.669  37.502   5.092
29268W        W97642   4.306  19.228  12.049
29269W        W97643  41.017  35.041   0.370
29270W        W97644  19.214  13.647  11.418
29271W        W97645  39.915  17.802   3.869
29272W        W97646  19.729  25.630   3.790
29273W        W97647  23.651  31.034   0.744
29274W        W97648  43.275  29.978   4.797
29275W        W97649  31.948  11.719   1.259
29276W        W97650  12.779   8.834  10.153
29277W        W97651   5.262  35.410   0.413
29278W        W97652  38.053  34.036   1.815
29279W        W97653   6.694  25.139   4.808
29280W        W97654  38.904  35.036   2.215
29281W        W97655   1.304  21.681   4.620
29282W        W97656  41.355  27.016   4.822
29283W        W97657  35.366  29.574   3.858
29284W        W97658  29.170  31.406   0.813
29285W        W97659  38.565   9.299   2.235
29286W        W97660   3.308  14.766   0.945
29287W        W97661   9.700  37.363   4.802
29288W        W97662   3.716  15.803  14.800
29289W        W97663  24.503  21.566  12.537
29290W        W97664  13.343  16.580  10.542
29291W        W97665  33.108   2.746  12.375
29292W        W97666  42.920  13.112   1.732
29293W        W97667   8.224  32.476   4.735
29294W        W97668   5.404   3.231   2.409
29295W        W97669  36.349  12.256   1.329
29296W        W97670  16.777  30.907  12.535
29297W        W97671  25.070  30.634   1.905
29298W        W97672  19.275  11.258   0.956
29299W        W97673  14.715   6.385   1.250
29300W        W97674   7.380  34.420   1.386
29301W        W97675  17.784  40.349  10.428
29302W        W97676   0.757  35.586  14.852
29303W        W97677   2.836  30.629  12.091
29304W        W97678  18.208  35.976   4.170
29305W        W97679  38.950  30.473   4.211
29306W        W97680  27.997  13.105   3.250
29307W        W97681  14.187  11.339  10.437
29308W        W97682  42.522  35.453   4.722
29309W        W97683  10.754   7.725   4.302
29310W        W97684  12.271  37.055  14.380
29311W        W97685  41.944   9.150  11.373
29312W        W97686  30.057  43.799   0.242
29313W        W97687  14.108  38.834  11.527
29314W        W97688   4.338  37.002  13.508
29315W        W97689  37.080  28.559   2.191
29316W        W97690  32.973  22.233   3.835
29317W        W97691  30.007  25.177  13.536
29318W        W97692  42.846  18.586   0.890
29319W        W97693  41.353   9.670   3.264
29320W        W97694  37.040  26.512  12.059
29321W        W97695  33.528  11.808   3.169
29322W        W97696   8.283  20.068  13.835
29323W        W97697  19.083  41.815  11.993
29324W        W97698  18.556   7.413  12.935
29325W        W97699  40.837  20.099  13.515
29326W        W97700  43.392   0.479   3.764
29327W        W97701  42.011  22.148  14.862
29328W        W97702  10.301  35.531   1.931
29329W        W97703  26.147  29.100   4.727
29330W        W97704  35.570   2.420  10.971
29331W        W97705  30.454  29.453  11.127
29332W        W97706  28.578  14.327  13.926
29333W        W97707  22.226  36.060   4.811
29334W        W97708  23.663  41.412   4.131
29335W        W97709  11.301  17.073  11.399
29336W        W97710  33.108  29.090   1.259
29337W        W97711  22.605   0.920  13.466
29338W        W97712  21.699  32.077   1.734
29339W        W97713   4.241  15.223   2.831
29340W        W97714   8.793  29.984   0.787
29341W        W97715  32.076   4.854   3.859
29342W        W97716   1.896  35.896  10.941
29343W        W97717   4.764  37.507   3.708
29344W        W97718  35.573  28.186  10.920
29345W        W97719  13.825  24.486   4.693
29346W        W97720  38.857   1.479   1.409
29347W        W97721  20.753  22.663  10.991
29348W        W97722  39.514  22.247   3.859
29349W        W97723  24.037  22.656   0.291
29350W        W97724  26.116   2.935  14.854
29351W        W97725  20.101   4.297   3.190
29352W        W97726  10.279  32.596   5.290
29353W        W97727  44.901  28.442   1.307
29354W        W97728  37.934   3.761   4.798
29355W        W97729   8.310  27.037   0.442
29356W        W97730   0.385  17.574   2.327
29357W        W97731  13.770  15.649  13.809
29358W        W97732  32.981  32.900  11.564
29359W        W97733  37.521  27.587   0.906
29360W        W97734  36.870  20.542  12.004
29361W        W97735  17.601   5.306  12.460
29362W        W97736  21.121  22.141   3.293
29363W        W97737  27.471   2.810   4.619
29364W        W97738  19.246   6.786  12.572
29365W        W97739  29.077  14.726  14.370
29366W        W97740  14.184   1.873   0.944
29367W        W97741  12.802   2.954  11.485
29368W        W97742  10.849  30.073   4.338
29369W        W97743   6.705  33.433   1.370
29370W        W97744  39.987  24.544  10.567
29371W        W97745  40.998  31.608   1.761
29372W        W97746  27.060  20.642  12.382
29373W        W97747  28.544  41.511   1.342
29374W        W97748  32.022  27.486  14.763
29375W        W97749  42.785  15.707  13.372
29376W        W97750  43.903   7.725   3.163
29377W        W97751  43.331  13.628   1.263
29378W        W97752   4.866  24.214   0.776
29379W        W97753  34.567  11.161  13.939
29380W        W97754   9.833  18.618  12.418
29381W        W97755  11.275  10.302  14.322
29382W        W97756  32.624  30.092   0.941
29383W        W97757  30.533  39.533   2.208
29384W        W97758   4.365  19.569   3.312
29385W        W97759  17.695  27.947   3.652
29386W        W97760  34.598  10.817  11.962
29387W        W97761  10.295  23.612   0.440
29388W        W97762  27.116   8.886   1.291
29389W        W97763  23.701  32.430   1.222
29390W        W97764  30.107  28.515  12.416
29391W        W97765  38.471  37.876  11.492
29392W        W97766  12.323   1.414   0.894
29393W        W97767  22.126   7.842  13.502
29394W        W97768   9.770  12.311  14.873
29395W        W97769  41.355   1.847   4.648
29396W        W97770  20.248  38.451  14.846
29397W        W97771   5.301  38.850   0.433
29398W        W97772  33.007  28.542  13.019
29399W        W97773  44.857  42.915   4.606
29400W        W97774  24.227  14.301  10.538
29401W        W97775  16.176   1.478   1.766
29402W        W97776   9.218  26.168   2.678
29403W        W97777   3.917   9.202  11.610
29404W        W97778  22.153  40.469   4.811
29405W        W97779  11.847  32.537  13.348
29406W        W97780  15.782  20.049  11.395
29407W        W97781  37.945  40.406   0.760
29408W        W97782  38.476   3.370  14.808
29409W        W97783  38.556  24.021   4.338
29410W        W97784   7.799  35.571  14.940
29411W        W97785  22.576  34.559  10.500
29412W        W97786  41.798  35.087   4.609
29413W        W97787  27.673  18.286   3.184
29414W        W97788  36.990   6.275  13.975
29415W        W97789  29.949  16.723  12.023
29416W        W97790  27.480  39.930  13.800
29417W        W97791  37.964  21.646  10.429
29418W        W97792  27.174  13.165   4.201
29419W        W97793  19.682  20.730   1.873
29420W        W97794  30.469  25.525   2.248
29421W        W97795  11.180  35.075  11.392
29422W        W97796  23.080  44.862  10.441
29423W        W97797  10.142  10.347  11.991
29424W        W97798  12.150  34.471  14.296
29425W        W97799  22.736  30.057   0.770
29426W        W97800   6.410  36.964   2.363
29427W        W97801   5.873  37.981  11.939
29428W        W97802   2.843  33.894   0.292
29429W        W97803  42.483  16.585  11.603
29430W        W97804  43.935  11.853  13.343
29431W        W97805   9.841  38.526  14.873
29432W        W97806  20.061   2.437  14.322
29433W        W97807  32.000  12.646   2.208
29434W        W97808  44.277  17.575  12.028
29435W        W97809  20.644  12.650  13.871
29436W        W97810  32.910   2.356   4.326
29437W        W97811  38.050   7.406   3.729
29438W        W97812   4.376  39.314  14.310
29439W        W97813  17.156  26.678  10.931
29440W        W97814  40.349  21.179   3.209
29441W        W97815  29.435  36.870  14.311
29442W        W97816  25.475  34.992  12.354
29443W        W97817   8.208  16.681  12.012
29444W        W97818  26.135  44.279   4.275
29445W        W97819  42.847  27.661  12.080
29446W        W97820  29.948  44.355  12.837
29447W        W97821  39.858   8.356   5.134
29448W        W97822  25.127  20.178   2.791
29449W        W97823  11.169  37.412  11.560
29450W        W97824  36.003  16.251   0.452
29451W        W97825   7.388  14.649  14.476
29452W        W97826  39.527   3.299   3.261
29453W        W97827  40.884   0.401  11.001
29454W        W97828  32.534  11.742  12.046
29455W        W97829   6.361  34.937   0.842
29456W        W97830   8.209  36.981  14.412
29457W        W97831   9.284  32.420  14.806
29458W        W97832  13.148  43.785  14.421
29459W        W97833   1.942  36.979   1.289
29460W        W97834  33.479  27.100   4.767
29461W        W97835  41.010  38.914  10.978
29462W        W97836   4.441  30.048   1.742
29463W        W97837  21.591   4.786  12.500
29464W        W97838   8.671   9.695  10.614
29465W        W97839  14.708  31.120   1.910
29466W        W97840   4.449  37.403   3.367
29467W        W97841  43.291  28.660  12.378
29468W        W97842  30.619   3.905   1.802
29469W        W97843  15.258  43.299   2.748
29470W        W97844   8.677  14.795  10.933
29471W        W97845   8.265  17.218   4.175
29472W        W97846  40.424  26.677  13.487
29473W        W97847  19.603  19.115   3.653
29474W        W97848  22.645   6.676   2.253
29475W        W97849   7.280   1.863  11.509
29476W        W97850  36.373   9.316  11.541
29477W        W97851  19.211  33.886   1.253
29478W        W97852  37.898  15.651   2.385
29479W        W97853  13.255  18.066  10.993
29480W        W97854  11.299  22.047   0.346
29481W        W97855  14.804  36.408   2.340
29482W        W97856   9.720  18.641  10.109
29483W        W97857  28.976  40.934   4.339
29484W        W97858  37.893  23.493  12.009
29485W        W97859  36.425  14.224  14.957
29486W        W97860  22.514   4.226   1.795
29487W        W97861  29.656  21.526   1.298
29488W        W97862  34.954  12.290   0.776
29489W        W97863  27.532  17.201  14.026
29490W        W97864  21.043  18.087  11.869
29491W        W97865  30.098  42.457   1.330
29492W        W97866  39.846  37.463  10.432
29493W        W97867  23.603  29.617  13.414
29494W        W97868  41.913  40.320  11.493
29495W        W97869  33.888  13.256  10.923
29496W        W97870  34.557  43.455  12.579
29497W        W97871  26.618  35.896   4.771
29498W        W97872  38.499  18.145  12.970
29499W        W97873  23.519  16.159  10.011
29500W        W97874   6.699  11.679   4.703
29501W        W97875  15.622  35.933  13.397
29502W        W97876  18.693  25.619   1.750
29503W        W97877  44.262  34.439  11.496
29504W        W97878   4.246  38.361  10.887
29505W        W97879   2.249  21.053  12.983
29506W        W97880  44.487  41.807   4.654
29507W        W97881  32.507  23.062  12.553
29508W        W97882   0.750   6.803  14.481
29509W        W97883  10.176  21.528  13.965
29510W        W97884  43.423  23.659   0.269
29511W        W97885  23.024   6.757   2.861
29512W        W97886  10.764  44.760  11.421
29513W        W97887  38.065  34.000   0.835
29514W        W97888  30.065  22.506  12.826
29515W        W97889  16.766   2.864   1.355
29516W        W97890  20.092  40.521  14.402
29517W        W97891  23.508  18.251   3.310
29518W        W97892   1.908   7.255  12.084
29519W        W97893  13.175  33.490  14.762
29520W        W97894  23.201  12.842   2.393
29521W        W97895   2.227  16.618   4.243
29522W        W97896  39.915  10.783   0.473
29523W        W97897  24.689  43.859  11.612
29524W        W97898  37.523  19.121   2.326
29525W        W97899  26.980  30.655  13.999
29526W        W97900   1.809  35.060  14.833
29527W        W97901  43.005   3.449  12.848
29528W        W97902  31.921   1.826   2.382
29529W        W97903  18.157  16.216   2.804
29530W        W97904  23.693  40.412  11.049
29531W        W97905  29.578  43.313  11.975
29532W        W97906  41.925  29.100   2.902
29533W        W97907  27.172  35.435  13.000
29534W        W97908   6.872  25.554   5.194
29535W        W97909  30.106  41.346  10.473
29536W        W97910  19.669   4.426   0.357
29537W        W97911   3.893   6.191  12.351
29538W        W97912   7.683  36.520  10.554
29539W        W97913  39.526   1.822   2.343
29540W        W97914  25.212  12.774   3.160
29541W        W97915  11.654  35.425   3.820
29542W        W97916  40.015  20.636   2.280
29543W        W97917  26.012  35.541  10.464
29544W        W97918  16.090   2.914   2.408
29545W        W97919  23.041  42.385   4.706
29546W        W97920  24.137  25.092   0.788
29547W        W97921  27.181  13.680  11.383
29548W        W97922  40.018  26.016   3.643
29549W        W97923   1.810  29.485   4.809
29550W        W97924   2.263  16.248   0.262
29551W        W97925  26.587  43.810  10.482
29552W        W97926  18.585  19.536   4.727
29553W        W97927  39.317   6.763  13.476
29554W        W97928  38.059  27.967  14.882
29555W        W97929  40.890  40.516  14.430
29556W        W97930  15.818  24.095  12.384
29557W        W97931  30.511  17.609  10.425
29558W        W97932  39.970  13.268  12.521
29559W        W97933  21.168  16.624  14.927
29560W        W97934  19.756  16.121  14.949
29561W        W97935   1.848   7.724   3.747
29562W        W97936  34.115  30.556   1.325
29563W        W97937  25.125  12.791   2.689
29564W        W97938  44.005  23.239   1.260
29565W        W97939  18.657  14.297   9.949
29566W        W97940   4.711  22.149   3.668
29567W        W97941  16.304  31.124  10.551
29568W        W97942  12.162  39.406  10.586
29569W        W97943  38.013  33.569   3.700
29570W        W97944  44.999  28.673   4.304
29571W        W97945  37.964  33.452   2.721
29572W        W97946  40.391  10.296  13.479
29573W        W97947  41.440   9.199  12.921
29574W        W97948  14.683  44.769  13.492
29575W        W97949  41.393  19.662  13.516
29576W        W97950  16.646  15.204   3.172
29577W        W97951  36.537  40.805   1.261
29578W        W97952  26.991  15.584   4.655
29579W        W97953   2.336  43.495   0.738
29580W        W97954  12.132  33.913   2.282
29581W        W97955  29.433  14.689  12.885
29582W        W97956   0.959  19.113   1.300
29583W        W97957  25.197  25.051   0.313
29584W        W97958  18.223  25.081  10.582
29585W        W97959   1.914  25.499   2.693
29586W        W97960   6.735  12.209   0.363
29587W        W97961  12.663  14.213   4.761
29588W        W97962  43.769  14.311  14.932
29589W        W97963   0.793  29.528   3.335
29590W        W97964  20.562   0.256   0.796
29591W        W97965  21.195  17.212   5.208
29592W        W97966  39.981   9.256  10.452
29593W        W97967   6.281  10.200  10.942
29594W        W97968  42.857  28.129   1.916
29595W        W97969  18.206   4.210   1.375
29596W        W97970   2.847  43.965   2.704
29597W        W97971  42.349  14.252   2.322
29598W        W97972   9.868  21.121  10.912
29599W        W97973   3.877   3.410  13.403
29600W        W97974   2.331  21.744   4.144
29601W        W97975  34.402  21.561   0.305
29602W        W97976  28.150  44.486  12.946
29603W        W97977  20.175  39.507  11.397
29604W        W97978  42.823   0.857  10.587
29605W        W97979  15.662  34.462   2.197
29606W        W97980   6.705   7.770  11.925
29607W        W97981  36.022  16.631   2.294
29608W        W97982  32.953   3.330   3.865
29609W        W97983  17.269   9.885   2.388
29610W        W97984   3.349  14.792   4.736
29611W        W97985   7.714  38.009   2.412
29612W        W97986  33.984   4.311   4.297
29613W        W97987  10.356  38.335   3.857
29614W        W97988  30.995  44.315   3.790
29615W        W97989  42.493  36.890   4.124
29616W        W97990  12.302  44.991  12.990
29617W        W97991  34.516  31.132  12.010
29618W        W97992  18.720   4.262   3.750
29619W        W97993  41.396  40.453   4.671
29620W        W97994  36.487  37.434   0.381
29621W        W97995  41.911   9.249   4.205
29622W        W97996  44.909  30.492  12.565
29623W        W97997   5.356  27.520   0.373
29624W        W97998  39.947  37.977  12.441
29625W        W97999   9.289  30.448  13.353
29626W        W98000  39.414   4.745  11.950
29627W        W98001  27.131  39.004  14.452
29628W        W98002  22.101  36.377   1.316
29629W        W98003  44.958  44.834  12.947
29630W        W98004  33.505  42.314  14.814
29631W        W98005  12.663  32.474   0.953
29632W        W98006  17.751  22.722   3.778
29633W        W98007   6.762   9.263  14.969
29634W        W98008  23.579   1.445  14.514
29635W        W98009   8.160  24.142   2.320
29636W        W98010  35.872  30.607   4.689
29637W        W98011  37.859  36.899   0.847
29638W        W98012  26.118   3.375  14.436
29639W        W98013   4.932  17.585   0.324
29640W        W98014   6.759  19.041   3.212
29641W        W98015  42.328  20.253   4.605
29642W        W98016  10.783  11.837  14.429
29643W        W98017  32.567  11.160  12.922
29644W        W98018  39.492  44.818   0.888
29645W        W98019  24.497   4.841   4.200
29646W        W98020  10.282  29.121   1.327
29647W        W98021  19.040  39.335   4.606
29648W        W98022  37.066  36.544  13.319
29649W        W98023  12.747  21.522   3.665
29650W        W98024  24.007  29.992  10.407
29651W        W98025  27.098  15.760  13.934
29652W        W98026  10.651  17.630   0.828
29653W        W98027   6.234  24.607   4.288
29654W        W98028  41.823   7.667  13.913
29655W        W98029  34.460  21.140  14.804
29656W        W98030  32.940  39.818  10.492
29657W        W98031  19.259  34.542  13.019
29658W        W98032  26.488   8.393  11.035
29659W        W98033  33.976  34.050  13.898
29660W        W98034  44.466  33.579  14.897
29661W        W98035  32.522   8.771   5.134
29662W        W98036  30.075  44.341  14.881
29663W        W98037  17.715  23.497  13.544
29664W        W98038   8.794  24.018   3.863
29665W        W98039  21.530  19.039  11.005
29666W        W98040  12.130   0.494   4.255
29667W        W98041  33.487   0.444  12.018
29668W        W98042  38.855  11.277   0.897
29669W        W98043  23.100  22.627  14.474
29670W        W98044   2.449  11.816   4.640
29671W        W98045  21.033  19.143   3.356
29672W        W98046   9.203  13.709   1.892
29673W        W98047  38.947  33.969  13.850
29674W        W98048  32.074  40.931   4.204
29675W        W98049  11.627   6.279  12.363
29676W        W98050  34.894  24.154  11.952
29677W        W98051  17.123   6.831   4.138
29678W        W98052  11.239   7.337   0.735
29679W        W98053  34.445  14.338   4.749
29680W        W98054  12.639  37.998  12.835
29681W        W98055  21.019  32.080  13.905
29682W        W98056   7.713  33.479  11.429
29683W        W98057  25.602  27.999   3.644
29684W        W98058  38.017  19.044  12.348
29685W        W98059  21.533  39.339   5.258
29686W        W98060  27.117  28.581   2.899
29687W        W98061  28.582   8.227  13.524
29688W        W98062  26.177  10.654  12.974
29689W        W98063  10.696  26.137  11.523
29690W        W98064  25.054  20.114   1.847
29691W        W98065  25.700  27.029  10.935
29692W        W98066   7.669  32.465   1.299
29693W        W98067  34.886  26.008  13.055
29694W        W98068   7.410  17.792  13.427
29695W        W98069  27.165   3.904  14.291
29696W        W98070   1.768   9.714  14.803
29697W        W98071   9.189  31.061  12.829
29698W        W98072  18.164  33.556   4.721
29699W        W98073   9.886  35.596  14.010
29700W        W98074   2.775  15.626   1.789
29701W        W98075  38.339  10.327  11.122
29702W        W98076   8.871   4.375   1.846
29703W        W98077  19.137  37.888   3.835
29704W        W98078  26.470  15.790  12.375
29705W        W98079  10.226  22.608   1.440
29706W        W98080  21.684  35.452   2.728
29707W        W98081  21.135  40.518   4.719
29708W        W98082  31.467  41.015   1.316
29709W        W98083   6.708  19.219   1.221
29710W        W98084  35.591  17.653   2.699
29711W        W98085  42.419  33.452  14.478
29712W        W98086  16.093   6.875  12.496
29713W        W98087  26.656  31.046  14.883
29714W        W98088  17.706  37.412   0.963
29715W        W98089  18.288  18.597   3.255
29716W        W98090  28.992  22.595   1.306
29717W        W98091  27.462  22.073  13.428
29718W        W98092  31.050  18.058   4.666
29719W        W98093  30.032  34.875  12.864
29720W        W98094  35.917  10.289  12.972
29721W        W98095  15.798  41.411   1.817
29722W        W98096  33.615  18.780   2.882
29723W        W98097  15.093  17.087   2.182
29724W        W98098   5.262  26.118  12.011
29725W        W98099  44.486  27.143   2.849
29726W        W98100  15.095   9.158  10.444
29727W        W98101  15.328  14.654  12.547
29728W        W98102   3.877  41.917   3.200
29729W        W98103  19.216  29.484  14.810
29730W        W98104  16.656  16.607   4.199
29731W        W98105  13.351  35.398   3.180
29732W        W98106  26.009  26.587  14.311
29733W        W98107  37.521  28.977   0.845
29734W        W98108  20.217  19.756  10.408
29735W        W98109  10.779  43.005   5.237
29736W        W98110   3.262  17.266   4.301
29737W        W98111   0.859  43.992  11.474
29738W        W98112  38.013  11.778   1.909
29739W        W98113  27.634   1.937   0.833
29740W        W98114  34.403  29.117  11.462
29741W        W98115  38.050   5.780   9.954
29742W        W98116  30.547  21.559   0.930
29743W        W98117  19.563   6.853   4.624
29744W        W98118  32.989   1.814  11.044
29745W        W98119   2.323  29.602  14.977
29746W        W98120  20.111   8.866   1.795
29747W        W98121   0.788   0.949  12.916
29748W        W98122   7.782  11.682   2.259
29749W        W98123  40.314   2.850   3.235
29750W        W98124  36.532   9.234  14.831
29751W        W98125  44.847  19.543  13.880
29752W        W98126   4.878  20.275  10.424
29753W        W98127  40.442  28.472   2.859
29754W        W98128  23.647  41.999   3.334
29755W        W98129  35.575  40.832  13.925
29756W        W98130  13.821  25.603   1.727
29757W        W98131  26.646  25.083   0.414
29758W        W98132  32.076  38.957   3.749
29759W        W98133  35.046  15.738   2.228
29760W        W98134  26.025  31.501   3.634
29761W        W98135  29.445  12.203   3.196
29762W        W98136   6.231  26.154   2.294
29763W        W98137  29.969  43.992  12.900
29764W        W98138   4.919   2.445  14.863
29765W        W98139  24.545   1.435   3.752
29766W        W98140  34.451  25.708  10.500
29767W        W98141  31.102  28.579  11.929
29768W        W98142  23.100   0.392  14.856
29769W        W98143  37.564   8.699  10.435
29770W        W98144  37.450  36.493   5.163
29771W        W98145   8.328  26.107   0.954
29772W        W98146  21.075  17.579  14.406
29773W        W98147  27.135  42.321   1.449
29774W        W98148  27.501  43.294  10.132
29775W        W98149  37.943  23.198   2.723
29776W        W98150  25.581  27.017   3.205
29777W        W98151  20.742  36.878   2.749
29778W        W98152  31.601  44.491  10.945
29779W        W98153  33.590  15.146  14.386
29780W        W98154  38.061  17.717  10.599
29781W        W98155  20.124  25.086  12.975
29782W        W98156  21.687  28.974   1.213
29783W        W98157  17.655   0.464  12.456
29784W        W98158   2.790   2.367   4.183
29785W        W98159  26.473  32.601  11.022
29786W        W98160  15.248  19.145  10.941
29787W        W98161  13.227  24.135  10.978
29788W        W98162  44.390  13.290   3.744
29789W        W98163  33.404  10.645  11.558
29790W        W98164  33.465   1.941   2.364
29791W        W98165  40.430  13.301   5.238
29792W        W98166  31.994  32.557   1.385
29793W        W98167  11.817  19.713  12.060
29794W        W98168  21.613  11.663   2.863
29795W        W98169  41.986  33.623   0.294
29796W        W98170  11.632   2.852  10.406
29797W        W98171  14.170  44.808   3.746
29798W        W98172   2.354  11.713   1.822
29799W        W98173   5.754  27.137   0.928
29800W        W98174   3.793   6.200   4.126
29801W        W98175   3.724   8.297   0.275
29802W        W98176  22.596  43.399  14.459
29803W        W98177   2.313  24.721   2.195
29804W        W98178  32.623  36.525   3.153
29805W        W98179   3.819  39.053   0.348
29806W        W98180   1.844  23.015  14.768
29807W        W98181   0.298  37.981  13.370
29808W        W98182  11.194  14.631   4.188
29809W        W98183  33.041  41.517   4.136
29810W        W98184  22.702  42.359   3.278
29811W        W98185  11.850  15.253  13.501
29812W        W98186  18.759   3.268   3.663
29813W        W98187  43.001  31.595  13.913
29814W        W98188  10.866  13.816   3.255
29815W        W98189  27.039  24.633   2.744
29816W        W98190   8.186  22.732   3.314
29817W        W98191  27.614   8.196  11.579
29818W        W98192   1.767   2.432  14.771
29819W        W98193  44.005   3.810   2.788
29820W        W98194  26.535  30.911   0.902
29821W        W98195   2.843  30.481  13.410
29822W        W98196  23.605  25.562   0.286
29823W        W98197   7.398  29.617  10.644
29824W        W98198  36.888  24.515   1.708
29825W        W98199  43.831  31.956   0.432
29826W        W98200  36.030  41.509   4.837
29827W        W98201   9.259  28.445   4.647
29828W        W98202   4.944  21.691  11.428
29829W        W98203  20.746  42.416  13.382
29830W        W98204  27.619  30.920   3.157
29831W        W98205   4.753  10.142   3.266
29832W        W98206  34.526  40.019   2.772
29833W        W98207  23.073  21.217   0.329
29834W        W98208  19.061   2.953   4.318
29835W        W98209  34.454  40.919  11.917
29836W        W98210   0.984  28.030   0.928
29837W        W98211  15.219  10.201   2.265
29838W        W98212  11.713  28.615   0.781
29839W        W98213  32.514   1.355   4.249
29840W        W98214  20.155  15.096  14.329
29841W        W98215  32.575   1.322   1.740
29842W        W98216  29.014  36.464   1.274
29843W        W98217   6.726  41.304   0.343
29844W        W98218  33.054   8.724  10.989
29845W        W98219   8.660  40.410   0.848
29846W        W98220  15.300   6.226   0.824
29847W        W98221  24.484   9.369   1.909
29848W        W98222  10.265  34.598  14.029
29849W        W98223  24.214  35.056  12.862
29850W        W98224  26.685  19.640   3.748
29851W        W98225  31.558  26.123  14.280
29852W        W98226  24.697   8.219  13.863
29853W        W98227  12.211  43.854   3.322
29854W        W98228  39.544  35.556   2.276
29855W        W98229  27.481  39.827  11.446
29856W        W98230  20.274  25.118  11.102
29857W        W98231  32.033  35.050   1.290
29858W        W98232   2.397  14.254  11.993
29859W        W98233  28.118  19.129  11.904
29860W        W98234  21.585   7.862   0.776
29861W        W98235  12.157  23.729   0.864
29862W        W98236  43.800  35.079  14.445
29863W        W98237  41.979   7.265  13.793
29864W        W98238  31.438  29.990  14.983
29865W        W98239  14.257  21.695   3.799
29866W        W98240   9.269  41.832  11.579
29867W        W98241  25.023  39.042   4.216
29868W        W98242  13.643  12.705   1.230
29869W        W98243   9.342  23.989   4.783
29870W        W98244  23.715  23.564  10.563
29871W        W98245  21.086  39.477   1.315
29872W        W98246  38.436  19.740  11.052
29873W        W98247  44.775   0.852   4.658
29874W        W98248   4.868  37.039   0.399
29875W        W98249   4.835  23.508   0.405
29876W        W98250  19.093   0.368   3.302
29877W        W98251  21.120   4.289   3.269
29878W        W98252  43.789  30.951   2.370
29879W        W98253  31.048  18.753  13.000
29880W        W98254  14.655   8.311   4.654
29881W        W98255  32.591  12.167   0.844
29882W        W98256  19.773   1.298  12.992
29883W        W98257  29.048  17.737  12.847
29884W        W98258   0.956   7.224   4.170
29885W        W98259  23.681  27.500  11.973
29886W        W98260   5.274  24.642   0.458
29887W        W98261  16.791  42.828   3.337
29888W        W98262  24.569  16.667   3.686
29889W        W98263  27.609  31.126   4.214
29890W        W98264   3.829  43.872  10.456
29891W        W98265  26.614   9.834  13.393
29892W        W98266   6.201  25.190   1.298
29893W        W98267  24.098  23.011  12.404
29894W        W98268  13.253  17.130  14.308
29895W        W98269  37.979   4.746   1.702
29896W        W98270   1.341  25.041   4.311
29897W        W98271  19.694  26.195   1.231
29898W        W98272  34.034  27.181   1.881
29899W        W98273   2.754  27.088   0.469
29900W        W98274   3.850  40.395  14.926
29901W        W98275  41.516  19.558   2.241
29902W        W98276  38.974   3.276   0.798
29903W        W98277  25.654  18.111  14.335
29904W        W98278  14.704  29.473   2.293
29905W        W98279  30.156  42.432  14.479
29906W        W98280  27.003  38.042   3.637
29907W        W98281  19.703   5.875  13.521
29908W        W98282  11.687  23.524   5.096
29909W        W98283  20.057   1.838   4.806
29910W        W98284  30.600   3.952   0.428
29911W        W98285   6.279  14.294  13.987
29912W        W98286  20.252  19.240  13.327
29913W        W98287  27.991  12.654  12.492
29914W        W98288   3.432  22.537  13.812
29915W        W98289  13.182   4.905   4.334
29916W        W98290  26.465  23.584  13.458
29917W        W98291  28.046  11.711   4.154
29918W        W98292  17.741  41.813  10.644
29919W        W98293  39.403  34.512  12.382
29920W        W98294  39.392  33.106   3.752
29921W        W98295   4.825  18.722  14.026
29922W        W98296  22.598  20.761  14.866
29923W        W98297  37.906   7.896   3.825
29924W        W98298  27.016  37.562  10.406
29925W        W98299  18.636  25.590   0.288
29926W        W98300  39.390  16.296  13.472
29927W        W98301  20.701  32.536  14.420
29928W        W98302  17.664  37.861  13.007
29929W        W98303  41.890   9.255  10.939
29930W        W98304  16.196  44.891  11.416
29931W        W98305   1.362   6.314  10.523
29932W        W98306  40.972   6.836   2.710
29933W        W98307  16.191  33.070  12.345
29934W        W98308  28.538  34.427  13.918
29935W        W98309  40.493  40.938  12.404
29936W        W98310  36.434  41.012  14.911
29937W        W98311  35.498  33.927  14.924
29938W        W98312  26.192  23.224   2.863
29939W        W98313  26.504   1.833  13.383
29940W        W98314  40.539  28.145   0.860
29941W        W98315  21.635   2.319  11.508
29942W        W98316  16.114  13.775   3.671
29943W        W98317  22.549  15.754   1.865
29944W        W98318   5.811  22.181  12.517
29945W        W98319  34.606  16.278   4.808
29946W        W98320  23.118  44.371   0.481
29947W        W98321  24.547  32.585   4.192
29948W        W98322  35.083  43.515   4.236
29949W        W98323  27.542  19.777  12.502
29950W        W98324  18.690   1.812  14.829
29951W        W98325  24.191  21.177  11.439
29952W        W98326  18.684   1.888  10.560
29953W        W98327  30.048   8.347  11.515
29954W        W98328  29.022   2.326  14.312
29955W        W98329  29.117  24.594   3.174
29956W        W98330   2.420  25.065   1.224
29957W        W98331  33.105  33.538  10.961
29958W        W98332  21.078  21.738   0.285
29959W        W98333  37.485  29.979  10.420
29960W        W98334   5.297  42.306  10.550
29961W        W98335  43.272  35.885   0.252
29962W        W98336  26.038  16.252   4.132
29963W        W98337  16.740  32.096  10.933
29964W        W98338  30.517  37.831  10.539
29965W        W98339  43.885  25.175  14.877
29966W        W98340  40.548  43.879   2.257
29967W        W98341  22.239  13.601  14.941
29968W        W98342  33.519  15.636   2.714
29969W        W98343  36.352  39.833   3.741
29970W        W98344  20.711  26.095  14.500
29971W        W98345  41.020  38.959   3.304
29972W        W98346   9.392  26.168   1.739
29973W        W98347  26.551  36.054   0.280
29974W        W98348  43.385  24.140  12.850
29975W        W98349  18.545   9.790   1.804
29976W        W98350  12.798  42.872   3.212
29977W        W98351   8.405  35.359   4.636
29978W        W98352   3.229  44.320   4.768
29979W        W98353  42.464  26.043   0.795
29980W        W98354   4.432  44.286  13.461
29981W        W98355   3.308   6.817   3.165
29982W        W98356   5.860  14.813  11.429
29983W        W98357  15.704   2.365  14.333
29984W        W98358  12.186  30.637  12.042
29985W        W98359  14.689  44.300   2.239
29986W        W98360  42.336  24.034  14.329
29987W        W98361  13.617  26.018  13.909
29988W        W98362  21.160   4.252  13.046
29989W        W98363  28.169   1.460   5.594
29990W        W98364  43.880  31.575   4.757
29991W        W98365  41.838  29.155  14.436
29992W        W98366   0.381  21.660  12.560
29993W        W98367   9.790  41.042   4.322
29994W        W98368  24.531  10.753  14.849
29995W        W98369  30.007   6.358   2.368
29996W        W98370  34.119  39.040   2.837
29997W        W98371  39.480  26.656   1.440
29998W        W98372  43.387  26.136   0.782
29999W        W98373  26.680  27.692  11.542
30000W        W98374  22.071  22.646  11.405
30001W        W98375  28.945   6.294  12.503
30002W        W98376  38.364  13.122   4.717
30003W        W98377  14.324   6.376  10.985
30004W        W98378  10.643   9.374  13.317
30005W        W98379   1.740  18.221  11.870
30006W        W98380  40.303  30.521   0.356
30007W        W98381   0.291  32.593   3.181
30008W        W98382   4.850  14.805   0.853
30009W        W98383  39.550  10.338   4.211
30010W        W98384  12.668  43.480  12.046
30011W        W98385  22.205   6.413   3.848
30012W        W98386  28.498   0.481   4.705
30013W        W98387  30.920  10.171  10.461
30014W        W98388  36.432  27.565   3.704
30015W        W98389  35.914  21.146   4.820
30016W        W98390   8.219  31.057   5.288
30017W        W98391  20.603  29.464   1.444
30018W        W98392  40.393   4.428  11.436
30019W        W98393  14.647  25.008  14.967
30020W        W98394  39.319   8.805   4.299
30021W        W98395  39.963  42.817  14.970
30022W        W98396   4.805  26.608  10.990
30023W        W98397  32.911  35.915  11.123
30024W        W98398  41.021  13.150  13.519
30025W        W98399  14.764  21.665  14.837
30026W        W98400   4.346  32.443   4.742
30027W        W98401  32.003  12.342  12.419
30028W        W98402  35.923  18.135  13.486
30029W        W98403  25.560  17.082  10.421
30030W        W98404   7.826  33.430  10.001
30031W        W98405   1.434  23.156  11.457
30032W        W98406  17.150  23.022   4.277
30033W        W98407   3.793  30.617  13.013
30034W        W98408  22.009   7.797  12.375
30035W        W98409   7.897  43.394   3.288
30036W        W98410  26.096  15.241  13.837
30037W        W98411  18.589  22.150   1.324
30038W        W98412  10.299  26.107   1.269
30039W        W98413  26.645   7.189  12.974
30040W        W98414  26.513  38.975   4.116
30041W        W98415  18.701  42.010   0.295
30042W        W98416  24.973  28.023  12.982
30043W        W98417  24.000  15.141  14.371
30044W        W98418  26.562  26.539  10.143
30045W        W98419  32.411  34.492  14.983
30046W        W98420  36.914  38.028  14.934
30047W        W98421  32.426  15.316   4.599
30048W        W98422  14.150  22.020   4.646
30049W        W98423  12.263  24.552   2.250
30050W        W98424  17.141  18.279   9.954
30051W        W98425  28.508  15.126  13.354
30052W        W98426  43.281  21.103   1.274
30053W        W98427   9.768  43.293  13.420
30054W        W98428  11.308  18.682   1.428
30055W        W98429   3.879  22.640   4.750
30056W        W98430  17.589  39.945  13.036
30057W        W98431  16.636  29.472  14.479
30058W        W98432  40.038   5.751  10.526
30059W        W98433   4.897   3.790   4.235
30060W        W98434  22.997  18.195  11.915
30061W        W98435  25.514  18.063   3.865
30062W        W98436  25.512   0.303   1.223
30063W        W98437  15.636  13.150   0.317
30064W        W98438  39.875  19.187   4.660
30065W        W98439  41.885  21.722  13.022
30066W        W98440  29.557  39.422  13.468
30067W        W98441   1.244   9.391   3.300
30068W        W98442  16.733  37.012   4.755
30069W        W98443  12.723  22.607   1.860
30070W        W98444   1.389  44.304   3.648
30071W        W98445  42.837   7.173   3.362
30072W        W98446  40.955  14.803   3.356
30073W        W98447  24.710  41.298   2.807
30074W        W98448  26.521  20.105  12.018
30075W        W98449  26.005  17.305  12.050
30076W        W98450  15.267  20.037   1.323
30077W        W98451  41.506   3.797   3.297
30078W        W98452  29.119  28.130   2.219
30079W        W98453  25.091  33.585  11.489
30080W        W98454  13.200  10.788  14.442
30081W        W98455   8.275  35.976  14.762
30082W        W98456   1.366  31.023  12.847
30083W        W98457  28.612  11.331   0.767
30084W        W98458  34.512  27.960   4.260
30085W        W98459  24.565  42.852   4.600
30086W        W98460  12.215   1.827   2.761
30087W        W98461  42.490  33.573  11.088
30088W        W98462  11.738  18.709  13.028
30089W        W98463  19.669   5.700   1.355
30090W        W98464  15.735  28.649  10.548
30091W        W98465  26.538  30.537  11.487
30092W        W98466  37.475  31.624  10.997
30093W        W98467  38.417  36.582   0.270
30094W        W98468  30.020   5.877  12.040
30095W        W98469   2.308  15.799  12.531
30096W        W98470  23.240  37.515  12.834
30097W        W98471  13.253  25.713  11.438
30098W        W98472  22.170  14.331  13.425
30099W        W98473  34.935   2.432  11.935
30100W        W98474  39.870  40.036  13.002
30101W        W98475  12.803  28.105   0.950
30102W        W98476   5.226  23.598   5.233
30103W        W98477  13.160  41.811   1.779
30104W        W98478  12.635  29.480   2.236
30105W        W98479   7.760  23.105   2.724
30106W        W98480  40.344  17.207   4.747
30107W        W98481  44.985   6.215  13.374
30108W        W98482  14.279   4.753  12.521
30109W        W98483  10.826  22.045   3.193
30110W        W98484  17.105  31.492   0.772
30111W        W98485   5.417  36.036   3.336
30112W        W98486  10.277  23.000   4.683
30113W        W98487   0.389  32.399   4.161
30114W        W98488   8.309  14.144   0.381
30115W        W98489   0.976  35.526  14.456
30116W        W98490  38.952  25.655   3.202
30117W        W98491  42.955  39.418  14.417
30118W        W98492  18.758  15.259   3.237
30119W        W98493  35.566   1.830  13.312
30120W        W98494   8.756  20.115   5.597
30121W        W98495  20.196   8.210   3.635
30122W        W98496  15.192  40.850   3.635
30123W        W98497   6.757   7.280   4.700
30124W        W98498  21.611  32.554   1.385
30125W        W98499  12.630  38.029   2.858
30126W        W98500  42.836  24.036  13.994
30127W        W98501  36.999  44.501   4.312
30128W        W98502  31.554  32.070  12.450
30129W        W98503  31.020  13.292   2.220
30130W        W98504  30.079  26.586   3.653
30131W        W98505  18.592  36.428   0.372
30132W        W98506   5.753  34.413   4.802
30133W        W98507  28.026  24.556   2.304
30134W        W98508  24.094  36.904   1.867
30135W        W98509  27.053   9.734  13.392
30136W        W98510  40.851  33.128  12.390
30137W        W98511  28.016   5.415  11.083
30138W        W98512   8.855  14.120  10.888
30139W        W98513  12.611  29.539   1.397
30140W        W98514  39.937  13.804  10.489
30141W        W98515  24.532  30.094   4.759
30142W        W98516  25.987  12.656  12.572
30143W        W98517  41.946  14.246   1.805
30144W        W98518  40.416  17.089   3.695
30145W        W98519  22.511  38.838  11.434
30146W        W98520  39.929  16.208   0.322
30147W        W98521  38.038  21.133   4.316
30148W        W98522  19.766  30.121  11.879
30149W        W98523  28.589  21.224   4.614
30150W        W98524  34.372  14.254  14.833
30151W        W98525  27.591  36.876   1.750
30152W        W98526   0.417   2.894   1.808
30153W        W98527  36.947  14.820   1.396
30154W        W98528  25.650   8.297  14.457
30155W        W98529  12.712  21.238  11.550
30156W        W98530  32.992  23.024  10.947
30157W        W98531  31.931  26.195  13.063
30158W        W98532  31.019  31.563   1.878
30159W        W98533  18.239  32.510   1.219
30160W        W98534  42.815   2.438   2.237
30161W        W98535  14.222   6.757   0.282
30162W        W98536  18.215  23.146  11.113
30163W        W98537  32.070  13.801   3.761
30164W        W98538  17.564  34.610  10.641
30165W        W98539   8.197  43.459  11.515
30166W        W98540  36.439  14.275  14.320
30167W        W98541  22.174  41.420   4.750
30168W        W98542  13.266  43.420   1.785
30169W        W98543  42.289   7.191   2.675
30170W        W98544  15.109   1.387  14.356
30171W        W98545  31.451  25.531  11.067
30172W        W98546  10.686   6.369  14.280
30173W        W98547  33.422  31.592   2.675
30174W        W98548  21.020  20.654  13.043
30175W        W98549  13.776   9.763   3.233
30176W        W98550   3.224   1.823   3.695
30177W        W98551  18.118  30.516  11.477
30178W        W98552  22.683  24.612   2.833
30179W        W98553  32.595  44.885  13.502
30180W        W98554  30.937  42.014  13.921
30181W        W98555  20.598  41.825  14.908
30182W        W98556   7.336  10.650  14.306
30183W        W98557  21.037  33.933  13.321
30184W        W98558  33.132  39.469   4.722
30185W        W98559  12.665  41.994   1.810
30186W        W98560  27.960   2.769  13.522
30187W        W98561  24.615  20.548   4.707
30188W        W98562  21.029  16.079   4.258
30189W        W98563   3.727  18.627   1.419
30190W        W98564  36.470  12.190  13.995
30191W        W98565  30.149  38.959  13.843
30192W        W98566  28.559   1.928   4.195
30193W        W98567  27.098  10.366  10.922
30194W        W98568  34.996  16.099  11.987
30195W        W98569  33.411   1.274  14.397
30196W        W98570   6.402  39.479   4.197
30197W        W98571   1.968  14.709   3.373
30198W        W98572  40.385  39.921   3.203
30199W        W98573  42.935  32.522   2.310
30200W        W98574  12.681  44.293  13.476
30201W        W98575   3.834  25.044   1.759
30202W        W98576  44.772  37.412  13.012
30203W        W98577  17.711  12.164  14.369
30204W        W98578  22.745  22.621   0.846
30205W        W98579   7.279  22.587   3.830
30206W        W98580  22.613   7.687  14.291
30207W        W98581  44.442  36.917  13.037
30208W        W98582  15.197  42.926  13.401
30209W        W98583  23.027  34.375  10.564
30210W        W98584  44.352  33.442   2.865
30211W        W98585  28.660  34.109   1.745
30212W        W98586  44.389   5.860   3.713
30213W        W98587  38.533  16.567   2.370
30214W        W98588  21.128  20.756   1.714
30215W        W98589  38.436  15.193  11.094
30216W        W98590  36.038  11.137  14.973
30217W        W98591  40.455  12.757  14.977
30218W        W98592  34.508  21.050   0.315
30219W        W98593  12.296  34.023  13.423
30220W        W98594  23.531  27.557  14.937
30221W        W98595  41.458  23.669  14.873
30222W        W98596  16.655  29.661   2.688
30223W        W98597  37.963   9.250   2.727
30224W        W98598  21.521  34.888  14.027
30225W        W98599  16.618  41.488  14.991
30226W        W98600  27.995  26.981  12.503
30227W        W98601  21.111  32.539   4.751
30228W        W98602  37.935  26.009   0.803
30229W        W98603  22.080  10.856   4.321
30230W        W98604  39.935   0.802   2.390
30231W        W98605  37.449  28.053   1.843
30232W        W98606  36.976  12.775  14.342
30233W        W98607  23.577  32.125   4.161
30234W        W98608  24.557  39.053  12.395
30235W        W98609  36.468  27.481   2.357
30236W        W98610  15.216  35.525   1.921
30237W        W98611  40.017   8.196   3.276
30238W        W98612  37.508  13.677  11.380
30239W        W98613  34.489  34.056   0.736
30240W        W98614  41.495  14.127  12.875
30241W        W98615  43.980  15.679  11.438
30242W        W98616  11.772   8.269  14.358
30243W        W98617  39.336   0.975  14.466
30244W        W98618   0.963   8.773   1.405
30245W        W98619  17.184   6.256  13.513
30246W        W98620  38.441   3.891  13.527
30247W        W98621   1.890   8.372  10.456
30248W        W98622   7.191  34.979  14.008
30249W        W98623  29.639  25.029   0.766
30250W        W98624  42.508  43.837   1.870
30251W        W98625  24.712   3.917  13.868
30252W        W98626  37.869  15.121  11.074
30253W        W98627   7.744  42.432   3.220
30254W        W98628  35.584  10.251  13.469
30255W        W98629  37.528   4.828  10.480
30256W        W98630  35.926  23.587   2.790
30257W        W98631   1.829  44.913  14.463
30258W        W98632   8.357  28.593   2.227
30259W        W98633  36.973  20.110   3.705
30260W        W98634  17.771   0.967  10.610
30261W        W98635   8.348  41.995  10.468
30262W        W98636  26.501  25.047  14.387
30263W        W98637  12.262   5.920  12.386
30264W        W98638  37.387  11.342  12.396
30265W        W98639  31.901  18.121  11.973
30266W        W98640  12.134  18.086   1.368
30267W        W98641  14.131  21.085   0.414
30268W        W98642  23.052   0.875   0.893
30269W        W98643  26.690  13.347  14.326
30270W        W98644   3.895  29.545  13.852
30271W        W98645  16.309  31.496  11.110
30272W        W98646   1.297  16.794   3.174
30273W        W98647  10.382   8.835   1.923
30274W        W98648  14.642  43.865  14.385
30275W        W98649  28.553  17.156  13.997
30276W        W98650  35.416  32.514   3.662
30277W        W98651  36.864  43.932   4.716
30278W        W98652  31.594  43.354  11.455
30279W        W98653  29.115  33.592  11.460
30280W        W98654  36.565  36.395   1.250
30281W        W98655   3.349  23.158   4.748
30282W        W98656  15.792  13.157  12.562
30283W        W98657  24.205  14.796  10.130
30284W        W98658   8.791   6.878   1.230
30285W        W98659  18.253  11.308  11.114
30286W        W98660  32.084  13.265   3.722
30287W        W98661  12.838  23.710   3.160
30288W        W98662  33.067   2.863   2.273
30289W        W98663  20.661  43.877   4.753
30290W        W98664  23.618  12.155   0.759
30291W        W98665  18.575  38.005   4.714
30292W        W98666  23.580  41.369   1.729
30293W        W98667  10.877  43.388   0.329
30294W        W98668   3.861   7.296   0.318
30295W        W98669  41.318   0.284   2.854
30296W        W98670   5.236  40.967   2.798
30297W        W98671   1.443  32.423   2.344
30298W        W98672   2.839   1.877  14.334
30299W        W98673  19.686  14.764  10.438
30300W        W98674  27.161  29.577  12.411
30301W        W98675  42.390  30.003   1.426
30302W        W98676  44.453  32.472   4.212
30303W        W98677  12.154  14.139   1.418
30304W        W98678  36.009   5.877  11.948
30305W        W98679  14.647   4.861   0.788
30306W        W98680  16.151  26.175  11.954
30307W        W98681   1.474  28.063  10.910
30308W        W98682  34.523  17.200  14.836
30309W        W98683   8.885  28.570   3.815
30310W        W98684  35.997  41.444   3.365
30311W        W98685  16.807  30.501  13.480
30312W        W98686  37.845  33.959  11.405
30313W        W98687  40.969  24.123   4.141
30314W        W98688  31.536   5.759   4.681
30315W        W98689  19.103   7.215  13.010
30316W        W98690   2.340   2.252   2.330
30317W        W98691  23.604   0.288  12.028
30318W        W98692   0.257  10.782  13.419
30319W        W98693  30.133   3.277   3.810
30320W        W98694  11.806   1.742  14.996
30321W        W98695  17.739  32.998  13.838
30322W        W98696   6.731  10.694   1.853
30323W        W98697  31.994  34.378   4.691
30324W        W98698  31.540   0.950  11.033
30325W        W98699  35.432  35.027  12.552
30326W        W98700  38.452   3.724   0.939
30327W        W98701  23.499  33.399   3.742
30328W        W98702  34.979  26.533   4.206
30329W        W98703   4.298  38.838  11.870
30330W        W98704  36.972   3.401   0.473
30331W        W98705  31.535  18.700   4.161
30332W        W98706  11.150  25.636   1.814
30333W        W98707  21.589  38.935   4.808
30334W        W98708   2.930  27.505  14.833
30335W        W98709  34.017   7.315   3.778
30336W        W98710  36.965  43.289   1.340
30337W        W98711  39.920  26.606   1.884
30338W        W98712  14.710  44.764   0.407
30339W        W98713   4.305  26.482  11.958
30340W        W98714  27.468   8.285  14.366
30341W        W98715  11.662  12.620   2.901
30342W        W98716  12.255   2.960   2.702
30343W        W98717   8.712  32.994  13.413
30344W        W98718  34.872  39.338  11.004
30345W        W98719  17.556  36.932  12.928
30346W        W98720  11.162  18.554   1.712
30347W        W98721  41.456  37.856   3.166
30348W        W98722  13.753   1.841   0.846
30349W        W98723  22.170  20.542   1.435
30350W        W98724  15.152   9.778  12.418
30351W        W98725   5.255   3.806   2.702
30352W        W98726   4.431  10.648  13.819
30353W        W98727  41.910  40.034  11.582
30354W        W98728  25.032  28.024  14.342
30355W        W98729  28.935  44.301   1.705
30356W        W98730  25.702  35.588   3.833
30357W        W98731  43.980   1.483  10.548
30358W        W98732  20.106   6.788   3.756
30359W        W98733  32.405  19.758  11.899
30360W        W98734  17.568  19.582  12.922
30361W        W98735  22.245  23.649  12.914
30362W        W98736  10.763   7.393   3.299
30363W        W98737   9.656  12.122  12.474
30364W        W98738  39.505   6.399  13.444
30365W        W98739  37.866  24.131  11.000
30366W        W98740  31.540  11.139   3.280
30367W        W98741  39.319   1.793  14.014
30368W        W98742  24.038   0.354   4.278
30369W        W98743  30.512  11.750  11.521
30370W        W98744   0.359  40.414   4.254
30371W        W98745  25.157  17.177   3.694
30372W        W98746  28.038  35.102  14.450
30373W        W98747  12.659  25.678  12.948
30374W        W98748  20.694   4.449   1.314
30375W        W98749  20.059   1.348   1.836
30376W        W98750  23.604  13.302   0.417
30377W        W98751   7.679  26.458   0.747
30378W        W98752   2.308  39.449   0.463
30379W        W98753  26.031   2.925   0.817
30380W        W98754  41.954  25.577   3.235
30381W        W98755   2.296  27.017   1.418
30382W        W98756  31.558  33.519   0.347
30383W        W98757  33.038  26.178  11.500
30384W        W98758  20.539  26.060   3.798
30385W        W98759  39.875  34.970  12.004
30386W        W98760  42.804  43.887   4.769
30387W        W98761   5.196  13.252   2.338
30388W        W98762  42.837  30.139  14.799
30389W        W98763   9.673  37.564   1.722
30390W        W98764  15.682  42.848   1.303
30391W        W98765  39.478  35.430  13.337
30392W        W98766  15.699  30.522   4.691
30393W        W98767  16.732   3.778   2.817
30394W        W98768  44.837  32.957  10.608
30395W        W98769  44.421  32.095  13.490
30396W        W98770   6.788  39.353  10.948
30397W        W98771  31.514  20.667  10.479
30398W        W98772  19.095  21.595  10.898
30399W        W98773  25.530  33.979  12.519
30400W        W98774  25.511  43.916  10.628
30401W        W98775  22.216  31.067  11.941
30402W        W98776  14.784  38.822   2.755
30403W        W98777   7.675  35.585  13.035
30404W        W98778  42.803  12.718   2.202
30405W        W98779  35.980  39.939  13.525
30406W        W98780  35.396  29.994  13.806
30407W        W98781   4.304   7.280   4.269
30408W        W98782   8.830  11.352   4.611
30409W        W98783  16.242   1.866  14.961
30410W        W98784  28.160   4.350  12.992
30411W        W98785  10.371  19.771   4.751
30412W        W98786  25.174  44.371  14.978
30413W        W98787  38.016  32.560   2.902
30414W        W98788  34.059  32.434  12.350
30415W        W98789  40.496  34.070  11.506
30416W        W98790   1.291  34.019   2.671
30417W        W98791  19.654  10.216   4.257
30418W        W98792  37.368  43.917  12.402
30419W        W98793  43.944  20.194   0.877
30420W        W98794  35.945  30.593  14.873
30421W        W98795  20.055  13.337  13.019
30422W        W98796  34.990   6.776  13.328
30423W        W98797  35.394  15.577   3.839
30424W        W98798  12.256  25.621   3.174
30425W        W98799   9.825  28.505   3.724
30426W        W98800  40.858  42.883   4.276
30427W        W98801   3.307  39.460   4.750
30428W        W98802  28.560  25.112   3.364
30429W        W98803  42.007   7.242   0.827
30430W        W98804   6.412  36.480  12.831
30431W        W98805  32.055  11.757  14.815
30432W        W98806  33.092   8.172   0.388
30433W        W98807  32.951  37.854   3.165
30434W        W98808   3.773  17.715   2.217
30435W        W98809   2.286  40.030   0.449
30436W        W98810   0.389   5.234  10.999
30437W        W98811  25.112  17.741  12.996
30438W        W98812   2.380  29.130  12.912
30439W        W98813   1.417   3.929   4.783
30440W        W98814  18.164  36.886  12.974
30441W        W98815  40.326  24.980  12.369
30442W        W98816  18.085  14.214  10.457
30443W        W98817   9.284   3.716   2.248
30444W        W98818  27.050   0.902   0.467
30445W        W98819  29.608  25.063  10.152
30446W        W98820  22.047   3.956   3.380
30447W        W98821  36.947  16.809   3.152
30448W        W98822  26.663  41.922  13.802
30449W        W98823   0.398   6.755   4.117
30450W        W98824  42.896  36.358  14.950
30451W        W98825  21.021   4.906  11.953
30452W        W98826   8.689  23.725  11.936
30453W        W98827   7.666  17.099  11.927
30454W        W98828  13.790  34.417   2.849
30455W        W98829  22.698  28.096   4.652
30456W        W98830   0.958  42.965   3.324
30457W        W98831  39.873  20.574   0.924
30458W        W98832  30.029  22.095   1.347
30459W        W98833  15.112   7.305   2.194
30460W        W98834  42.320  22.741  13.033
30461W        W98835  38.032  36.397   4.234
30462W        W98836   5.237   5.232  13.907
30463W        W98837  14.708   8.745   9.981
30464W        W98838  35.058  28.574   0.930
30465W        W98839  40.942  28.164  13.954
30466W        W98840  21.264  12.768  12.944
30467W        W98841  17.269  32.114   1.876
30468W        W98842  27.515  29.462   4.736
30469W        W98843   9.829  44.915   4.124
30470W        W98844   5.845   3.399   5.194
30471W        W98845  11.265  41.889   3.194
30472W        W98846  13.659  13.729   0.778
30473W        W98847  18.248   2.375  13.923
30474W        W98848  23.640  32.977   3.232
30475W        W98849  24.693  33.006  11.487
30476W        W98850  27.538  30.463   0.878
30477W        W98851  28.655  38.329  10.550
30478W        W98852   2.895   6.297  11.079
30479W        W98853  12.748  17.063   3.308
30480W        W98854  11.140  27.953   3.287
30481W        W98855  43.391  13.704   3.722
30482W        W98856  21.616  39.858   3.331
30483W        W98857  19.054  44.809   3.286
30484W        W98858  24.205  39.507   1.869
30485W        W98859  29.598   3.861   0.263
30486W        W98860  27.087   6.726  13.458
30487W        W98861  34.019   2.281  13.325
30488W        W98862  42.787  15.711   5.214
30489W        W98863  39.557  23.553   2.312
30490W        W98864  43.869   1.792  13.827
30491W        W98865   5.786  31.494  12.557
30492W        W98866  21.223  19.735  14.886
30493W        W98867   7.383  36.024   2.788
30494W        W98868   5.438  31.523   3.321
30495W        W98869  30.453  34.448  12.527
30496W        W98870  21.703   7.740  10.519
30497W        W98871  26.589  32.111   4.760
30498W        W98872  21.092  10.343   2.180
30499W        W98873  15.155  17.222   2.763
30500W        W98874  26.174  11.280  12.035
30501W        W98875  43.892   3.825  12.470
30502W        W98876  43.492  17.746  10.463
30503W        W98877  42.442  30.006  11.444
30504W        W98878  25.027   0.408   1.902
30505W        W98879  43.426  33.075  14.863
30506W        W98880  30.037  37.420   4.267
30507W        W98881  34.929   7.848  10.971
30508W        W98882  24.086  21.045  10.144
30509W        W98883  19.079  32.961  11.037
30510W        W98884  30.570   6.853   1.752
30511W        W98885  22.539   4.208   4.167
30512W        W98886  32.895  11.191   3.825
30513W        W98887  15.320   2.244   2.248
30514W        W98888  16.156  41.449  14.389
30515W        W98889  10.354   5.850  14.409
30516W        W98890   7.272  23.023  12.443
30517W        W98891  36.444  10.866  14.814
30518W        W98892  12.146   4.413  14.766
30519W        W98893  15.582  37.388   3.712
30520W        W98894  18.606  14.213   4.189
30521W        W98895  11.655  25.218   9.929
30522W        W98896  28.555  14.131  12.033
30523W        W98897   7.890  34.581  13.467
30524W        W98898  30.429  42.902   5.142
30525W        W98899  25.157  18.785   2.781
30526W        W98900  37.011  22.151   0.728
30527W        W98901  34.102  32.509  14.805
30528W        W98902  18.766  26.582   2.681
30529W        W98903   4.359  26.126  13.861
30530W        W98904  30.069  23.007  12.842
30531W        W98905   2.886  22.501  12.008
30532W        W98906  30.557   5.723   4.259
30533W        W98907   5.341   3.755  14.918
30534W        W98908  44.927  15.803   2.759
30535W        W98909   1.770  32.428   0.301
30536W        W98910   0.258  42.981   3.747
30537W        W98911  33.387  34.514   1.701
30538W        W98912   4.347  22.504  11.481
30539W        W98913  25.542  26.022  10.603
30540W        W98914   6.204  28.134   1.320
30541W        W98915   6.800  13.307  13.832
30542W        W98916  36.513  32.516   0.281
30543W        W98917  44.881  25.517  14.947
30544W        W98918  22.511  30.504  10.464
30545W        W98919  13.744  36.378   2.891
30546W        W98920  16.110  20.245   1.259
30547W        W98921  10.874  43.871  11.995
30548W        W98922  14.788  28.040  12.538
30549W        W98923   0.935  26.170   4.815
30550W        W98924  22.679  44.773  14.932
30551W        W98925  22.075  22.025  12.459
30552W        W98926  36.024  44.822  11.463
30553W        W98927  37.407  31.053   1.701
30554W        W98928   3.822  22.161   0.324
30555W        W98929   7.381  30.565  13.861
30556W        W98930  23.704  13.681  12.424
30557W        W98931  33.444   4.219  13.935
30558W        W98932   7.391  43.995   1.391
30559W        W98933  21.069  19.203  14.502
30560W        W98934  41.453   5.386   3.668
30561W        W98935   5.222  26.609   4.792
30562W        W98936  42.303  22.693  13.804
30563W        W98937  29.077   5.801   2.354
30564W        W98938  21.711  12.820   1.923
30565W        W98939  31.078   4.824   3.157
30566W        W98940  24.651  18.644   0.824
30567W        W98941  28.181  23.108  14.370
30568W        W98942  22.555  14.263   1.849
30569W        W98943   9.826  31.971  10.999
30570W        W98944   8.815  30.977  11.380
30571W        W98945  38.867  11.700  11.082
30572W        W98946  12.153   3.424   4.823
30573W        W98947  16.758  37.048  13.346
30574W        W98948  33.391  24.709   3.714
30575W        W98949   4.251  17.783   4.654
30576W        W98950   8.730  19.590   0.785
30577W        W98951  33.017  43.393   0.442
30578W        W98952  44.961  17.693  14.326
30579W        W98953   8.722   5.427  10.470
30580W        W98954  22.552  15.312   1.375
30581W        W98955   3.247   2.897  10.576
30582W        W98956  28.114   0.954   5.638
30583W        W98957  22.231   3.747  14.816
30584W        W98958  10.731   8.787   4.152
30585W        W98959  33.393   6.367   1.380
30586W        W98960  35.983   2.426   2.690
30587W        W98961  11.786  26.486   1.358
30588W        W98962  25.498  42.939  14.030
30589W        W98963  11.761  22.252  11.485
30590W        W98964  28.136   0.381  14.833
30591W        W98965  14.748  12.699   3.658
30592W        W98966  19.534  23.546  13.971
30593W        W98967  44.373  20.106  10.414
30594W        W98968  27.044  30.464  12.509
30595W        W98969  22.221   9.814   0.458
30596W        W98970   3.314  42.292   3.348
30597W        W98971  33.055  42.336   1.251
30598W        W98972  22.502  27.058  10.957
30599W        W98973   8.855  19.266   4.345
30600W        W98974  44.404  23.020  13.918
30601W        W98975  37.987  37.969  12.901
30602W        W98976   5.852   4.350   0.827
30603W        W98977  40.957   0.967   4.629
30604W        W98978  32.094  31.587  12.403
30605W        W98979  28.496  26.113   2.862
30606W        W98980  38.538  35.359   3.848
30607W        W98981  42.992  27.683  12.837
30608W        W98982  29.054  42.842   2.392
30609W        W98983  44.299   8.754   1.231
30610W        W98984  23.994  34.611  11.453
30611W        W98985  13.247  37.358   5.236
30612W        W98986  22.647  16.168   3.710
30613W        W98987  14.735  23.505   2.371
30614W        W98988  11.629  34.460   0.914
30615W        W98989  42.029  40.847   0.803
30616W        W98990  22.190   8.237  13.850
30617W        W98991  24.505   9.821   0.459
30618W        W98992  19.558  44.892   1.269
30619W        W98993   3.307  44.359  13.960
30620W        W98994  20.163  23.014   3.375
30621W        W98995   4.873   6.812  11.411
30622W        W98996  25.519  28.673   4.185
30623W        W98997  27.971  32.506   0.773
30624W        W98998   8.886  27.559  12.933
30625W        W98999  11.767   1.737  12.501
30626W        W99000  29.994  33.584  14.915
30627W        W99001   8.370  41.372   1.226
30628W        W99002  25.631   4.830   0.259
30629W        W99003  21.534  38.440   4.800
30630W        W99004  41.394  42.525   0.729
30631W        W99005   9.275  37.892   3.264
30632W        W99006   3.733  16.279   0.794
30633W        W99007  42.874   3.874  12.878
30634W        W99008  25.612  19.538   3.739
30635W        W99009   7.667   7.872  12.889
30636W        W99010  11.340  26.057  13.451
30637W        W99011  14.830   7.399   5.108
30638W        W99012  11.867  35.418  14.823
30639W        W99013  23.194  30.465  14.839
30640W        W99014  35.515  43.931   0.377
30641W        W99015   9.297  42.294   1.355
30642W        W99016  21.051  30.982   2.738
30643W        W99017  40.410  30.935   3.853
30644W        W99018  30.018  28.501   2.845
30645W        W99019  28.063   9.849   1.710
30646W        W99020   9.657  12.155   0.412
30647W        W99021  36.991  26.032   3.814
30648W        W99022  41.885  33.414   2.840
30649W        W99023  11.159  28.522  12.491
30650W        W99024  39.004   2.813  14.460
30651W        W99025  12.846  24.198   4.283
30652W        W99026  10.139  14.113   0.461
30653W        W99027  37.540  37.409   3.375
30654W        W99028   3.429  21.183   5.112
30655W        W99029  33.396  42.830  10.069
30656W        W99030  24.979  24.535  12.844
30657W        W99031  43.461  15.216   4.213
30658W        W99032  15.668  19.571  11.122
30659W        W99033  16.280  20.057  14.793
30660W        W99034  12.354  27.021  11.409
30661W        W99035   7.379  40.953   0.479
30662W        W99036  28.612  22.033  13.323
30663W        W99037   4.732   6.691   3.694
30664W        W99038  26.497   1.950   0.902
30665W        W99039  18.563  11.305  12.078
30666W        W99040  12.295   3.912  13.043
30667W        W99041  39.381  40.546  12.429
30668W        W99042  26.473  26.200   3.727
30669W        W99043  28.991  17.610  11.403
30670W        W99044  37.997  41.847  12.086
30671W        W99045   7.793   4.908   0.773
30672W        W99046  24.002   5.847   4.351
30673W        W99047  30.418  25.511  11.494
30674W        W99048   6.312  12.287  13.031
30675W        W99049  17.140   7.316   0.778
30676W        W99050  43.482   3.425   1.450
30677W        W99051  14.335   0.288   4.746
30678W        W99052  26.678  14.199  13.330
30679W        W99053   2.447  33.891  10.446
30680W        W99054  43.768   7.676  13.808
30681W        W99055  43.356  27.526  13.362
30682W        W99056  42.801  29.561   4.142
30683W        W99057  17.668  40.935   4.174
30684W        W99058  14.325  34.610   4.781
30685W        W99059   8.267  22.706   2.187
30686W        W99060  36.075   2.369  12.828
30687W        W99061   3.836  42.435  13.883
30688W        W99062   1.310  29.127  11.026
30689W        W99063  35.870  28.114  11.008
30690W        W99064   9.842  38.403  12.419
30691W        W99065  33.940  37.989  14.501
30692W        W99066  14.607  14.192  12.473
30693W        W99067   4.438   7.337  10.432
30694W        W99068  38.067   7.745   1.217
30695W        W99069  21.594   7.873  13.436
30696W        W99070   1.734  23.691  10.490
30697W        W99071   8.195  12.263   0.326
30698W        W99072  42.458  17.224  13.420
30699W        W99073  14.275  29.670   3.377
30700W        W99074  25.059  14.223   4.791
30701W        W99075   3.221   6.360   3.198
30702W        W99076   4.733  20.232  11.932
30703W        W99077  40.862   3.399   4.335
30704W        W99078  29.086  44.845   4.627
30705W        W99079  19.704  23.707  12.853
30706W        W99080   7.893  28.508   1.307
30707W        W99081  37.072  36.933  11.433
30708W        W99082   8.874   1.478  14.479
30709W        W99083  17.746   2.930  13.828
30710W        W99084  28.532  29.428  14.309
30711W        W99085  24.140  29.015   3.258
30712W        W99086  37.544  11.274  11.575
30713W        W99087  14.614  41.927  12.902
30714W        W99088  41.485  12.126  14.957
30715W        W99089   5.889  29.598  14.444
30716W        W99090  22.248  19.629   2.280
30717W        W99091  12.807  38.823   1.373
30718W        W99092  41.902   9.778   4.239
30719W        W99093  19.042  27.597  13.347
30720W        W99094  28.446  30.525  11.387
30721W        W99095   5.742  17.561  13.037
30722W        W99096  24.152  40.823  13.342
30723W        W99097  33.082  12.769   0.948
30724W        W99098  31.100  31.089   0.438
30725W        W99099  16.630   1.314  14.308
30726W        W99100  25.199  39.971   4.724
30727W        W99101  13.601  35.597   4.601
30728W        W99102   9.353  21.568   0.747
30729W        W99103  28.092  44.968  12.996
30730W        W99104  43.299  31.059   1.280
30731W        W99105  35.504  37.516   0.447
30732W        W99106   3.762   6.353  10.594
30733W        W99107  43.282   2.957   2.796
30734W        W99108  19.696  18.118  10.403
30735W        W99109   7.795  17.287  12.368
30736W        W99110   6.399  29.515   0.769
30737W        W99111   3.804   4.314   2.882
30738W        W99112  20.704  26.645  12.060
30739W        W99113  38.332  19.670  14.333
30740W        W99114  12.270  33.964   1.434
30741W        W99115  16.276   9.337   9.970
30742W        W99116   4.208   1.288  11.555
30743W        W99117  21.175  39.941  12.023
30744W        W99118  28.121   2.293  14.325
30745W        W99119   2.850  41.036  12.016
30746W        W99120  13.254  10.256   2.716
30747W        W99121  17.627  23.085   0.338
30748W        W99122  17.596   9.346  11.966
30749W        W99123  26.047  34.369  13.972
30750W        W99124  30.636  41.910  14.372
30751W        W99125  14.605   6.692   2.280
30752W        W99126   6.251  39.502  14.881
30753W        W99127  31.904  16.173  11.451
30754W        W99128  40.855  34.046  12.383
30755W        W99129   5.281   3.742  12.384
30756W        W99130   6.221   7.886   1.328
30757W        W99131  31.116  33.443   0.770
30758W        W99132  39.038  34.098  12.979
30759W        W99133  33.384  15.262  12.840
30760W        W99134  15.226  11.788  10.999
30761W        W99135   3.434  19.538  10.468
30762W        W99136  31.604  32.918   2.825
30763W        W99137  40.800  43.416  12.883
30764W        W99138   1.925   8.890   2.807
30765W        W99139  14.596  16.113   1.255
30766W        W99140  30.016  13.328   0.794
30767W        W99141  12.168  41.294   4.231
30768W        W99142  19.556  37.469  13.546
30769W        W99143  26.497  40.408   1.398
30770W        W99144  36.872   2.314  11.067
30771W        W99145  25.168  42.979  12.875
30772W        W99146   4.291  18.088   4.766
30773W        W99147  37.830  28.155   1.914
30774W        W99148  15.651  19.708   3.858
30775W        W99149  39.456  29.625  13.421
30776W        W99150  23.092  28.945   0.408
30777W        W99151  12.303  30.116   2.303
30778W        W99152  39.849  40.050   4.823
30779W        W99153  43.802   6.283  14.856
30780W        W99154   2.811  19.551   2.713
30781W        W99155  15.667  32.966   4.680
30782W        W99156  40.042   3.444  14.314
30783W        W99157   2.275  21.511  11.875
30784W        W99158  36.967  25.611   1.438
30785W        W99159  18.611  37.040   3.304
30786W        W99160  31.571  43.935  10.566
30787W        W99161   6.883  14.809  14.416
30788W        W99162  24.180   7.266  12.560
30789W        W99163   2.330  37.930  13.934
30790W        W99164   5.272   7.372   4.224
30791W        W99165  40.457   7.329   5.305
30792W        W99166  21.678  21.555  11.962
30793W        W99167   2.356   0.892  11.116
30794W        W99168  11.862  18.222  11.122
30795W        W99169  40.006   6.805   3.748
30796W        W99170  25.483  25.151   2.247
30797W        W99171   4.741  43.936  14.286
30798W        W99172  15.709  14.302   2.673
30799W        W99173   8.658  36.981  13.827
30800W        W99174  22.016  29.064  12.493
30801W        W99175  11.773  16.690   4.303
30802W        W99176   1.275  31.928  12.854
30803W        W99177  32.608  11.275   3.250
30804W        W99178  25.581  31.924  13.048
30805W        W99179   8.281  42.504   3.262
30806W        W99180  41.852  25.517   4.204
30807W        W99181   5.271  40.546  13.397
30808W        W99182  43.813  27.597   3.750
30809W        W99183  43.831  12.818   4.114
30810W        W99184  22.500  14.821   4.322
30811W        W99185  40.536  25.136  13.922
30812W        W99186  11.683  38.967  11.986
30813W        W99187  26.566   1.353   3.340
30814W        W99188   3.853  35.955   4.616
30815W        W99189  30.933  38.409  11.080
30816W        W99190  21.096   6.916   0.264
30817W        W99191   1.772  40.329  14.509
30818W        W99192  33.945  25.572   3.264
30819W        W99193  42.799  31.095  11.480
30820W        W99194  21.227  31.935  10.574
30821W        W99195   9.235   2.376   0.303
30822W        W99196   0.386  15.596   0.378
30823W        W99197  44.366  11.192   2.688
30824W        W99198   5.349  16.313   0.752
30825W        W99199  18.252   7.744   2.897
30826W        W99200   0.315  44.499  13.369
30827W        W99201  43.307  32.044  11.537
30828W        W99202  10.220  25.170   0.376
30829W        W99203   0.868   0.844   3.695
30830W        W99204  28.970  11.796   2.346
30831W        W99205  42.894   8.718   4.261
30832W        W99206  44.939  43.819  13.475
30833W        W99207   9.226  13.609  11.409
30834W        W99208  15.686  31.487  10.555
30835W        W99209  36.422  19.571  13.324
30836W        W99210   9.734   1.382  11.588
30837W        W99211  32.579   9.236   2.191
30838W        W99212  17.190  22.584  11.565
30839W        W99213   7.767  28.113   4.289
30840W        W99214  17.614  33.907   0.350
30841W        W99215  34.594  13.766  11.046
30842W        W99216  12.701  26.567   0.827
30843W        W99217  40.416  12.331   0.453
30844W        W99218  43.779  15.700  14.468
30845W        W99219   9.243  21.749  14.907
30846W        W99220  11.196  18.135   1.310
30847W        W99221  29.959  18.116   4.192
30848W        W99222  34.609  29.480   2.752
30849W        W99223   5.283  26.680   3.180
30850W        W99224   7.874  40.349  14.904
30851W        W99225  40.351  38.930   1.877
30852W        W99226  14.597   2.773  10.628
30853W        W99227  19.129  31.088   1.696
30854W        W99228  37.849  28.098   3.348
30855W        W99229   7.229  35.032   1.882
30856W        W99230   3.260  29.110   3.308
30857W        W99231  37.988   1.371  14.491
30858W        W99232  14.273  41.520  11.393
30859W        W99233  33.512  10.353  13.362
30860W        W99234  34.953  32.050  13.315
30861W        W99235  42.885  23.716  11.484
30862W        W99236  33.096  28.164   3.339
30863W        W99237  17.708  41.393  14.386
30864W        W99238  37.962  44.765   3.719
30865W        W99239  42.778   1.754   1.852
30866W        W99240   8.389   8.734   4.346
30867W        W99241   5.271  38.414   1.723
30868W        W99242  41.304   4.331   0.335
30869W        W99243  11.138   3.224  12.563
30870W        W99244  20.218  14.284  10.008
30871W        W99245  16.716  16.239  12.982
30872W        W99246  17.679  10.221   4.705
30873W        W99247  19.555  34.527   0.462
30874W        W99248  10.721  14.784  13.915
30875W        W99249  33.497  44.909   1.451
30876W        W99250  44.787  40.997  11.497
30877W        W99251   9.225  30.462  13.956
30878W        W99252  34.953   0.341  13.943
30879W        W99253  34.933  29.053   1.695
30880W        W99254  34.053   6.421  13.879
30881W        W99255  29.134  21.549  13.374
30882W        W99256  36.469  27.030   3.218
30883W        W99257  39.502  29.943   0.326
30884W        W99258  38.506   9.394   0.369
30885W        W99259  19.535  42.422  11.418
30886W        W99260  13.721   1.411  11.520
30887W        W99261  16.675  15.184   2.250
30888W        W99262  10.295  41.509   1.850
30889W        W99263  15.791  11.258  13.967
30890W        W99264   2.867  25.077   3.679
30891W        W99265  39.495   3.453  12.382
30892W        W99266   6.677  25.513   3.849
30893W        W99267  31.020  14.667   3.781
30894W        W99268  34.584  37.079  13.919
30895W        W99269  39.539  19.669  10.993
30896W        W99270  18.609  28.978   3.202
30897W        W99271  30.504  19.127   0.803
30898W        W99272  29.969  20.121  13.877
30899W        W99273  14.271  15.641  11.870
30900W        W99274  42.972  21.574   0.927
30901W        W99275  17.640  18.130   1.874
30902W        W99276   0.427  43.351  13.412
30903W        W99277  44.854  39.413  11.896
30904W        W99278  16.111  32.983  14.514
30905W        W99279  43.393  41.958   0.902
30906W        W99280  26.051  28.673   4.130
30907W        W99281  20.764  29.124  11.500
30908W        W99282  33.017  31.407  10.952
30909W        W99283  14.271  35.526  10.957
30910W        W99284   9.784  17.199   1.322
30911W        W99285   6.194  22.194  14.850
30912W        W99286  19.684  41.948   3.359
30913W        W99287  21.090  25.680  14.363
30914W        W99288  23.577  16.314  11.039
30915W        W99289  33.399  19.039  12.896
30916W        W99290  37.534  21.091   2.418
30917W        W99291   4.920  28.555  11.941
30918W        W99292   4.223  24.559   2.371
30919W        W99293  24.559  24.621   0.350
30920W        W99294  11.639  35.457   1.437
30921W        W99295  22.060  40.941  10.611
30922W        W99296   2.863  27.110  10.609
30923W        W99297  20.626  22.621  11.421
30924W        W99298  39.934   6.779   2.363
30925W        W99299  34.566   0.858  11.566
30926W        W99300  27.101   1.391  13.488
30927W        W99301  32.448  40.323   2.239
30928W        W99302  24.621  27.074   4.678
30929W        W99303   7.871  42.816   2.400
30930W        W99304   3.436  20.717  12.060
30931W        W99305  44.986   2.364  10.890
30932W        W99306  16.316  41.338  13.448
30933W        W99307   9.257   9.852   4.811
30934W        W99308  32.932  41.318  13.962
30935W        W99309  12.317  19.585   4.649
30936W        W99310  19.119  14.698  14.412
30937W        W99311  25.020  25.531  12.064
30938W        W99312  24.692  13.775   4.773
30939W        W99313  12.274  32.432   0.907
30940W        W99314  34.381   1.448   2.849
30941W        W99315  15.577  20.089   3.793
30942W        W99316  42.811  23.089  12.863
30943W        W99317   4.427  14.637   4.753
30944W        W99318   7.249  20.124  11.954
30945W        W99319   9.844  42.940   0.822
30946W        W99320  13.185  40.948   1.745
30947W        W99321  14.170  34.537   0.466
30948W        W99322  15.703  15.726   4.704
30949W        W99323  10.166  27.091  13.942
30950W        W99324  39.908  23.615  14.337
30951W        W99325  42.522  19.070  12.934
30952W        W99326  43.270  33.125   0.448
30953W        W99327   4.289  38.947  14.917
30954W        W99328  24.510  16.196  13.497
30955W        W99329   2.851  15.591  11.964
30956W        W99330  33.993  39.866  14.311
30957W        W99331  41.036  40.542  12.023
30958W        W99332  43.773   6.357   4.614
30959W        W99333  30.996  40.534   1.704
30960W        W99334  36.921  20.211  11.611
30961W        W99335  36.354  29.617   3.747
30962W        W99336   1.877  34.096   1.381
30963W        W99337  39.829  31.503   1.431
30964W        W99338  16.737  20.625   4.726
30965W        W99339  41.817  17.262   3.347
30966W        W99340  11.860  17.178  11.974
30967W        W99341   6.258   3.446  13.377
30968W        W99342  43.844   7.792   2.862
30969W        W99343   6.744  35.048  13.451
30970W        W99344  42.882  22.531  13.523
30971W        W99345  24.582  31.984   2.889
30972W        W99346  15.106  44.369  10.928
30973W        W99347  24.082  40.999   4.683
30974W        W99348   1.394   1.240   3.370
30975W        W99349  36.847  31.618  13.891
30976W        W99350  37.888   7.217  13.485
30977W        W99351   5.323  42.886   0.311
30978W        W99352  22.623   1.412  14.784
30979W        W99353  33.114  18.721  12.876
30980W        W99354  36.426  37.518   2.740
30981W        W99355  24.673  31.914   0.400
30982W        W99356  16.126  39.064  10.121
30983W        W99357   2.953  18.647  10.897
30984W        W99358  16.784  14.621   1.334
30985W        W99359  30.028  20.768   4.776
30986W        W99360  11.691  17.090  13.010
30987W        W99361  44.791  40.862  12.341
30988W        W99362  10.347  22.512  11.960
30989W        W99363  21.218  26.618   3.261
30990W        W99364  11.177  10.650  13.048
30991W        W99365   6.373  13.274   0.266
30992W        W99366  18.093  21.718   0.756
30993W        W99367  20.587   2.889   0.824
30994W        W99368  21.143  23.505   4.777
30995W        W99369  27.089  18.165  12.507
30996W        W99370   6.238   6.343   0.897
30997W        W99371  33.967  20.586  12.925
30998W        W99372  37.459   6.421   5.249
30999W        W99373  38.514  27.962  14.855
31000W        W99374  19.068  31.951   1.294
31001W        W99375  15.161  29.079  13.028
31002W        W99376   7.712  13.298   4.256
31003W        W99377  20.134  14.294  10.620
31004W        W99378  28.155  43.504  14.876
31005W        W99379  20.654  31.152  13.454
31006W        W99380  14.103  40.354  13.823
31007W        W99381  30.132  43.340  11.596
31008W        W99382  15.777  31.473   1.435
31009W        W99383  42.483  41.923   0.370
31010W        W99384  14.760  35.861   3.245
31011W        W99385  19.728  31.563  10.900
31012W        W99386  10.305  22.645   9.961
31013W        W99387  35.556   1.471   4.638
31014W        W99388  19.249  16.177   1.694
31015W        W99389  15.681  37.575   2.690
31016W        W99390   0.330  11.627   3.871
31017W        W99391  36.392  18.103  12.079
31018W        W99392  18.558   8.236  14.328
31019W        W99393   7.186  39.027   1.289
31020W        W99394  30.133   9.216   4.352
31021W        W99395  27.652  25.035   1.336
31022W        W99396  31.483  38.003  10.412
31023W        W99397   2.843  22.666  13.503
31024W        W99398  36.945  27.645   0.758
31025W        W99399   8.269  37.340  10.513
31026W        W99400  34.050  23.544   2.881
31027W        W99401  43.372   6.211  11.558
31028W        W99402  41.033  33.939  10.583
31029W        W99403   5.702  16.635  11.506
31030W        W99404  26.054  30.444   3.281
31031W        W99405  44.865  32.924  12.014
31032W        W99406  29.145  22.730   2.326
31033W        W99407  23.059  22.150   1.319
31034W        W99408  13.213  35.430  11.936
31035W        W99409  17.624  39.480   0.403
31036W        W99410  17.725   6.381  10.563
31037W        W99411  41.456  29.518  10.483
31038W        W99412  37.020  29.498  14.489
31039W        W99413  32.520  18.563   1.238
31040W        W99414   8.359  17.782  12.902
31041W        W99415  39.027  26.499  10.473
31042W        W99416  30.999  21.246  13.336
31043W        W99417  30.155  25.128   0.448
31044W        W99418  23.113  38.443   3.214
31045W        W99419  42.782  42.017   4.760
31046W        W99420  34.472  20.542   2.201
31047W        W99421  11.652  18.202   4.308
31048W        W99422  33.477  16.686   4.774
31049W        W99423   0.752  21.703   4.336
31050W        W99424  38.026  44.907   2.187
31051W        W99425   7.319  31.927  10.978
31052W        W99426   7.376  38.418   3.759
31053W        W99427   0.317  30.640  11.949
31054W        W99428  17.228  38.498   1.383
31055W        W99429   9.245  39.424  12.891
31056W        W99430   3.352  19.659   0.353
31057W        W99431  19.170  44.359  11.059
31058W        W99432  10.369   5.799  10.528
31059W        W99433  13.135  26.139  12.927
31060W        W99434   2.777  10.698   1.422
31061W        W99435   4.256  17.194   1.362
31062W        W99436  22.574  13.246   1.804
31063W        W99437  27.477  39.388  11.976
31064W        W99438  10.637  36.058   1.451
31065W        W99439  12.349   6.772   4.694
31066W        W99440  44.763   6.804  12.847
31067W        W99441   2.801  17.065   3.813
31068W        W99442  36.891   0.449   1.778
31069W        W99443  21.681  16.663  11.395
31070W        W99444  18.178  27.162   2.798
31071W        W99445   7.330  19.163   2.725
31072W        W99446  37.355   1.397  11.075
31073W        W99447   6.867  24.564   3.341
31074W        W99448  44.446   3.726  14.947
31075W        W99449  10.826  35.518   0.840
31076W        W99450  29.556  41.030   1.907
31077W        W99451   4.874   7.816  14.028
31078W        W99452  14.234  11.295   5.256
31079W        W99453  18.129  33.055  14.512
31080W        W99454  35.003  31.107   3.827
31081W        W99455  22.182  30.466  13.831
31082W        W99456  25.545  25.014   0.245
31083W        W99457  23.040  38.349  14.464
31084W        W99458  24.694  24.046   1.728
31085W        W99459  21.136  10.747   2.876
31086W        W99460  11.646  33.916  12.541
31087W        W99461   0.409  42.879  12.935
31088W        W99462  18.153  19.240   1.241
31089W        W99463  22.684  18.638   1.846
31090W        W99464   4.901   1.790  13.007
31091W        W99465  32.607  17.146   0.392
31092W        W99466  31.899  24.207   5.268
31093W        W99467  27.169   7.249  11.468
31094W        W99468   7.741  21.247   0.418
31095W        W99469  38.908  26.613  13.362
31096W        W99470  40.947  26.461   1.919
31097W        W99471   9.658   6.863  10.562
31098W        W99472   0.776  26.983  12.936
31099W        W99473  13.223  25.593   0.255
31100W        W99474  29.050  31.130   1.772
31101W        W99475  29.538  17.695   0.306
31102W        W99476   6.676   4.753   1.227
31103W        W99477  31.079  41.337   3.333
31104W        W99478   7.725  21.251   5.204
31105W        W99479  27.089  37.882  12.910
31106W        W99480  35.600  17.581  14.909
31107W        W99481  35.984   7.286   3.146
31108W        W99482  11.652  25.570  14.844
31109W        W99483  26.985  19.605  13.431
31110W        W99484  16.718   9.757  13.419
31111W        W99485  13.272   6.298   1.247
31112W        W99486   5.237   9.671   0.922
31113W        W99487   1.918  35.064   3.185
31114W        W99488  43.889  42.841   3.325
31115W        W99489  44.760   7.870  11.469
31116W        W99490  11.172   5.698  12.039
31117W        W99491  22.594  30.570   1.446
31118W        W99492  26.030  36.475   0.916
31119W        W99493   7.859  43.900   3.177
31120W        W99494  28.644  41.397  11.068
31121W        W99495  36.444  42.844  14.281
31122W        W99496  23.727  25.639  11.423
31123W        W99497  31.433  40.020   3.802
31124W        W99498  42.502  12.212   1.303
31125W        W99499  28.024  43.433  14.344
31126W        W99500  15.792   1.251   2.663
31127W        W99501  10.741  18.706  11.101
31128W        W99502   6.848  43.458   4.141
31129W        W99503  33.948  32.008   1.444
31130W        W99504  33.897  29.468   4.343
31131W        W99505  21.034  13.293   2.668
31132W        W99506  15.618  30.113  12.831
31133W        W99507  19.653  15.585  14.341
31134W        W99508   0.882  21.672  14.486
31135W        W99509  19.556  26.703  12.925
31136W        W99510  21.171  26.198   4.795
31137W        W99511  31.631  42.863  12.905
31138W        W99512  41.475  13.630   3.651
31139W        W99513  35.471  42.852   3.296
31140W        W99514  17.212  12.622   1.808
31141W        W99515  37.011  29.586   3.858
31142W        W99516  23.727  19.274  13.035
31143W        W99517  26.003  39.458   1.857
31144W        W99518   1.269   4.369  12.059
31145W        W99519  20.050   2.296  13.869
31146W        W99520  41.403  29.475  13.046
31147W        W99521   6.880  22.231  10.550
31148W        W99522  22.203   9.862  10.971
31149W        W99523  29.971  12.786   3.736
31150W        W99524   1.424  40.516  14.960
31151W        W99525  36.067  18.668  10.451
31152W        W99526  35.526   4.307  13.489
31153W        W99527   0.765  30.135  12.356
31154W        W99528  17.769  41.957   0.319
31155W        W99529  31.074   0.900  13.825
31156W        W99530  13.292   4.931   0.247
31157W        W99531  44.268  13.799  10.086
31158W        W99532  20.649  14.157   0.848
31159W        W99533  40.513  30.964   4.636
31160W        W99534  44.807   0.488   0.256
31161W        W99535  34.507  17.298   1.215
31162W        W99536  19.234  23.044  11.971
31163W        W99537  15.170  28.148  12.950
31164W        W99538  24.999   2.272   4.720
31165W        W99539  28.555  40.535  14.362
31166W        W99540  30.450   2.900  13.311
31167W        W99541  12.164  29.001  14.424
31168W        W99542   3.414   4.807  14.338
31169W        W99543  39.382  12.144  11.460
31170W        W99544  21.555  37.991   3.765
31171W        W99545  19.769   9.677  11.905
31172W        W99546   7.705  10.830   4.613
31173W        W99547  16.183  22.071   0.928
31174W        W99548  35.484  36.576   3.630
31175W        W99549  35.542  42.013   2.664
31176W        W99550   8.697  42.794  14.779
31177W        W99551  33.041   6.212   2.299
31178W        W99552  30.920  15.611   0.788
31179W        W99553  27.947   8.276  13.850
31180W        W99554  26.040   0.431  11.568
31181W        W99555   5.338  14.302   1.396
31182W        W99556  37.837  26.168   0.349
31183W        W99557  26.999  38.532   0.788
31184W        W99558  15.171  37.533   1.718
31185W        W99559  34.503   3.803  14.509
31186W        W99560  36.360  44.755  11.120
31187W        W99561  10.791  32.954   1.313
31188W        W99562  30.640  34.080   1.227
31189W        W99563  20.208  33.115   0.325
31190W        W99564  43.769  41.335  14.882
31191W        W99565  23.085  35.912  14.980
31192W        W99566  28.153  30.462  12.563
31193W        W99567  16.777  36.046   0.446
31194W        W99568  13.763  44.309  10.972
31195W        W99569  34.924  30.613   3.242
31196W        W99570  43.299   8.334  13.858
31197W        W99571   6.782  29.050  11.070
31198W        W99572  38.046  15.133  10.625
31199W        W99573  17.575  36.092   1.272
31200W        W99574  27.183  38.847   1.752
31201W        W99575  10.644  40.847   1.406
31202W        W99576   3.946  27.459   4.145
31203W        W99577  31.004  40.473  13.003
31204W        W99578  37.419  23.001  13.335
31205W        W99579  22.651   8.826   2.248
31206W        W99580  14.268   3.779   0.917
31207W        W99581  29.632  33.939   3.365
31208W        W99582  14.216  25.612  13.534
31209W        W99583  38.878  40.854  13.827
31210W        W99584  19.254  43.847  12.441
31211W        W99585  21.560  42.417   2.868
31212W        W99586   4.274   1.889  12.094
31213W        W99587  18.087   3.733  10.616
31214W        W99588  43.448  43.360   3.374
31215W        W99589  29.572  35.069  14.997
31216W        W99590   4.449   9.256  14.022
31217W        W99591  18.232   6.898   0.961
31218W        W99592  33.032  35.020  10.468
31219W        W99593  29.524  37.427  12.061
31220W        W99594   5.919   2.841   9.508
31221W        W99595   5.855   7.700   0.429
31222W        W99596  35.073  29.033  13.507
31223W        W99597  24.987  40.461  12.551
31224W        W99598  40.517  21.032   3.753
31225W        W99599  15.089  23.170  11.883
31226W        W99600  32.052  21.671   2.418
31227W        W99601   7.379  30.929   3.335
31228W        W99602  19.072  28.554  12.493
31229W        W99603  33.023   5.325   4.130
31230W        W99604   1.973  42.880   4.175
31231W        W99605  27.979  10.859  13.921
31232W        W99606   1.316  12.362  14.830
31233W        W99607  24.623  19.134  12.003
31234W        W99608   0.397  14.753  13.452
31235W        W99609  13.760  23.003   4.726
31236W        W99610  31.555  23.735   3.198
31237W        W99611  35.446  17.606   1.437
31238W        W99612  33.039  19.185  11.975
31239W        W99613  39.392  41.404   1.289
31240W        W99614  14.648  28.576   3.223
31241W        W99615   0.973   3.713   3.254
31242W        W99616  14.276  35.998  13.862
31243W        W99617   0.900  19.653   1.344
31244W        W99618  13.215   8.771   1.793
31245W        W99619   9.194  40.879   1.259
31246W        W99620   7.795  18.604   0.402
31247W        W99621  34.563  28.095   0.845
31248W        W99622  10.690  11.633  12.080
31249W        W99623  43.478  34.932   1.375
31250W        W99624   7.848  34.424   3.349
31251W        W99625  10.149  22.570   4.161
31252W        W99626  42.395  13.752   0.407
31253W        W99627  21.642  23.655  13.427
31254W        W99628  29.149  18.266  14.323
31255W        W99629  16.266  16.721  10.896
31256W        W99630   0.924  26.577  13.410
31257W        W99631  33.468  33.972   0.455
31258W        W99632  33.120  30.141  12.353
31259W        W99633  39.485  26.073   2.746
31260W        W99634  10.826  37.934  12.917
31261W        W99635  13.133  21.723   4.290
31262W        W99636   4.407   4.210  11.103
31263W        W99637  20.675  34.444  13.801
31264W        W99638  28.037  36.981   4.732
31265W        W99639  37.434  38.022  14.913
31266W        W99640  41.826  42.356  11.908
31267W        W99641   8.828  10.732  14.785
31268W        W99642  36.402  35.975  14.959
31269W        W99643  15.200  26.999   0.436
31270W        W99644  13.763  13.256  12.839
31271W        W99645  27.160  32.026  12.436
31272W        W99646  16.798  38.912   0.955
31273W        W99647  16.139   1.413   3.339
31274W        W99648  38.965  11.768   2.224
31275W        W99649  41.922   6.412  11.606
31276W        W99650   6.681  36.858  11.378
31277W        W99651  42.492  30.479   1.886
31278W        W99652  22.028  22.112  10.597
31279W        W99653  44.873  28.474   0.743
31280W        W99654  33.992  35.888  11.871
31281W        W99655  41.014  20.676  14.481
31282W        W99656  19.141  13.706   2.858
31283W        W99657  44.770  14.605  12.867
31284W        W99658  18.277  23.124  13.837
31285W        W99659   6.268   0.839   0.758
31286W        W99660  24.554   5.702   3.721
31287W        W99661  38.900  28.517   2.757
31288W        W99662  23.037  11.312   1.889
31289W        W99663   4.424  22.094  11.972
31290W        W99664   1.856  19.136   0.369
31291W        W99665   7.407   3.951  12.870
31292W        W99666   7.769  21.129   1.420
31293W        W99667   9.785  35.541  11.479
31294W        W99668  29.448  13.742   4.662
31295W        W99669  25.987   0.829  12.507
31296W        W99670  28.618   8.688   0.380
31297W        W99671   8.265  40.352   2.728
31298W        W99672  33.883  18.082   1.915
31299W        W99673  27.061  21.069   2.746
31300W        W99674  37.015  13.249  13.972
31301W        W99675   0.364  37.424   2.306
31302W        W99676  14.826  22.729   2.720
31303W        W99677  33.447  10.248   4.717
31304W        W99678   8.712  22.194   2.664
31305W        W99679  21.633  41.897   4.658
31306W        W99680   6.341  39.501   2.262
31307W        W99681  39.525  23.086  13.934
31308W        W99682  35.857  38.569   0.423
31309W        W99683  27.132  39.916  13.884
31310W        W99684  29.090   6.765   0.906
31311W        W99685  43.381  41.815   1.712
31312W        W99686   5.352  39.513  14.766
31313W        W99687  38.358  11.183   0.360
31314W        W99688  21.260  18.759  14.874
31315W        W99689  40.526   3.253  14.835
31316W        W99690  33.006  21.758  11.528
31317W        W99691  39.501  32.988  12.836
31318W        W99692  39.357  24.572  10.944
31319W        W99693  37.414  29.983   1.817
31320W        W99694  32.923  32.982   0.308
31321W        W99695  41.871  14.317  10.468
31322W        W99696  41.521  15.597  11.508
31323W        W99697  19.267  38.510   3.157
31324W        W99698  28.510  17.175  14.816
31325W        W99699   6.730  11.642  11.931
31326W        W99700   4.918  15.611   1.378
31327W        W99701  29.557  36.001  12.911
31328W        W99702  13.839  24.695  10.529
31329W        W99703  25.494  33.594  13.526
31330W        W99704   3.219  37.058  11.412
31331W        W99705   6.304  39.529   1.285
31332W        W99706  28.529   5.840   0.290
31333W        W99707  36.994  42.814  12.091
31334W        W99708   9.203  41.413  14.333
31335W        W99709  15.656  27.689   1.442
31336W        W99710  11.647  14.182  14.409
31337W        W99711  16.201  14.605  14.352
31338W        W99712   6.205   1.455  10.453
31339W        W99713  18.225  41.294  10.597
31340W        W99714  30.590  10.144   2.810
31341W        W99715  35.993  26.014   3.849
31342W        W99716  28.602  12.228   3.852
31343W        W99717   4.757  27.488  13.494
31344W        W99718  32.490  26.632  13.406
31345W        W99719  11.189  27.588  11.399
31346W        W99720   1.849  43.283   4.807
31347W        W99721  13.132   4.314   2.199
31348W        W99722  12.632   7.718   1.738
31349W        W99723  39.374  24.120   3.640
31350W        W99724  23.223  41.873   1.835
31351W        W99725  30.589  39.065   2.699
31352W        W99726   9.343  29.149   9.933
31353W        W99727  43.419   9.801  13.467
31354W        W99728  29.426  30.108  14.437
31355W        W99729   9.295  19.208  12.032
31356W        W99730   1.908  40.996   3.277
31357W        W99731   1.425  36.067  13.824
31358W        W99732   6.685  18.251   3.205
31359W        W99733  35.884  11.698  10.548
31360W        W99734  20.681  18.174   4.637
31361W        W99735   4.344  36.902   3.330
31362W        W99736   3.283   9.283  13.951
31363W        W99737  25.991  10.189  12.534
31364W        W99738  38.471   2.276  13.878
31365W        W99739   7.329  10.779   2.295
31366W        W99740  39.990   3.233  11.544
31367W        W99741  33.586   9.722  12.937
31368W        W99742  31.022   9.725  12.388
31369W        W99743  44.351   2.770   3.275
31370W        W99744  41.435  15.704   4.608
31371W        W99745  33.510  15.321  11.953
31372W        W99746  14.259  34.868   3.380
31373W        W99747  17.226   1.316   1.243
31374W        W99748  40.051  17.299   2.190
31375W        W99749  13.136   8.232  11.866
31376W        W99750  23.715  23.655   4.694
31377W        W99751  28.499  33.483   2.783
31378W        W99752  40.987  23.117  12.873
31379W        W99753   7.720  32.541   3.189
31380W        W99754  13.734  30.949   4.130
31381W        W99755  28.149  43.907  14.894
31382W        W99756   5.875  32.504   3.856
31383W        W99757  39.977  15.228  12.043
31384W        W99758  30.088  10.348  14.993
31385W        W99759  18.607   8.729  13.042
31386W        W99760   6.895  11.709  11.459
31387W        W99761   3.870   9.237   2.358
31388W        W99762  27.118   1.762   0.429
31389W        W99763  14.655  41.523   3.244
31390W        W99764  27.658  39.031   2.830
31391W        W99765   5.886  26.969   1.771
31392W        W99766  38.047  42.877   1.932
31393W        W99767  33.059   5.278  10.448
31394W        W99768  15.175  42.333   3.831
31395W        W99769  19.214  33.968  10.930
31396W        W99770  32.992  37.900   1.291
31397W        W99771  37.518  20.604   2.220
31398W        W99772  31.510  34.611  13.827
31399W        W99773  29.142   8.228  12.410
31400W        W99774  27.050  38.519  12.382
31401W        W99775  27.553  27.610   2.665
31402W        W99776  42.826  44.924  10.576
31403W        W99777   0.475  21.040   0.738
31404W        W99778  16.756  40.306   1.916
31405W        W99779  27.197  31.430   4.353
31406W        W99780  39.933   9.884   2.897
31407W        W99781  43.020  27.112  13.825
31408W        W99782   8.832  35.401  12.504
31409W        W99783  32.952   4.228   4.788
31410W        W99784  20.588  28.590  13.028
31411W        W99785  32.017  39.346   2.373
31412W        W99786  25.013  31.106   4.807
31413W        W99787  43.321  35.969  11.582
31414W        W99788  26.538  15.239  11.378
31415W        W99789   8.841   9.263  12.374
31416W        W99790  41.530   9.802  14.994
31417W        W99791  14.811   8.283  10.607
31418W        W99792  14.134  27.628   4.706
31419W        W99793   9.876   8.364   2.737
31420W        W99794  19.162   3.891   0.805
31421W        W99795  17.190  34.885   4.672
31422W        W99796  14.138  30.984  13.422
31423W        W99797  43.984   1.390  14.423
31424W        W99798  15.678  35.006   2.204
31425W        W99799   8.690  16.783  12.533
31426W        W99800  33.540  44.331   4.634
31427W        W99801   4.816   7.244  13.060
31428W        W99802  27.197   5.923  13.504
31429W        W99803  42.404  38.892  11.473
31430W        W99804   0.826   5.260  10.443
31431W        W99805  41.869  13.261  14.984
31432W        W99806  13.712  37.518   2.399
31433W        W99807   5.270  39.412   4.659
31434W        W99808   4.246   6.697   3.238
31435W        W99809  10.149  29.967  10.943
31436W        W99810  23.545   4.430  14.509
31437W        W99811  11.301   2.277   1.840
31438W        W99812  20.576   5.720  11.466
31439W        W99813  10.875  26.625   0.960
31440W        W99814  43.867  37.066  11.512
31441W        W99815  15.713  11.137  12.547
31442W        W99816  40.861  12.615  10.540
31443W        W99817  35.360  35.374  11.611
31444W        W99818  26.109  16.100   1.849
31445W        W99819  42.361  41.822  13.916
31446W        W99820   6.283  31.091   2.342
31447W        W99821  16.616  11.767  11.469
31448W        W99822  28.619  29.443   4.649
31449W        W99823  40.884  41.331  12.570
31450W        W99824   0.267  39.423  11.427
31451W        W99825   1.298   4.859   2.716
31452W        W99826  38.435  16.163  14.447
31453W        W99827  37.508  42.313  10.630
31454W        W99828  35.027  29.515  12.044
31455W        W99829  31.940  32.499  11.509
31456W        W99830   7.191  34.067  11.012
31457W        W99831   5.195  15.307  13.889
31458W        W99832   6.188  28.598  10.541
31459W        W99833  33.900  43.913  10.606
31460W        W99834   6.860   5.711  13.825
31461W        W99835  42.394  10.358   9.953
31462W        W99836  20.056  10.296  10.455
31463W        W99837  38.829  29.017  10.927
31464W        W99838  14.664   4.759   1.249
31465W        W99839  43.828  11.737   2.350
31466W        W99840  43.797  21.748  11.076
31467W        W99841  18.185  38.855  12.550
31468W        W99842  35.474  25.497   4.628
31469W        W99843  43.455  13.766  14.828
31470W        W99844  24.229  21.598   3.752
31471W        W99845  29.109  42.344  10.440
31472W        W99846  43.416   5.260   0.806
31473W        W99847   3.384  39.027  10.604
31474W        W99848  39.823   9.181   3.250
31475W        W99849   4.265  31.571  11.857
31476W        W99850  30.564  32.119  10.975
31477W        W99851  36.577  29.428   5.167
31478W        W99852  41.493  30.656  12.055
31479W        W99853  27.993   2.740  13.049
31480W        W99854   0.352  42.324  11.578
31481W        W99855  24.083   6.741   1.408
31482W        W99856  22.160  24.195   0.255
31483W        W99857  33.940   0.853   2.753
31484W        W99858  27.952  41.985  11.534
31485W        W99859  24.642  29.614   0.736
31486W        W99860  12.715   9.196   2.742
31487W        W99861  19.692  23.497   3.307
31488W        W99862  14.298   0.308  14.842
31489W        W99863  20.102  38.866   2.739
31490W        W99864  33.939  25.082  14.380
31491W        W99865  17.105  42.400   0.395
31492W        W99866   0.981  19.200  13.537
31493W        W99867  30.029  43.838   5.288
31494W        W99868  10.688  38.329   2.192
31495W        W99869   1.482  18.284   3.739
31496W        W99870  31.564  38.910   1.416
31497W        W99871  25.489   6.815   4.285
31498W        W99872  22.070  10.865   0.841
31499W        W99873   4.437  11.163  14.456
31500W        W99874  16.743  34.011   2.852
31501W        W99875   3.731  16.072  14.919
31502W        W99876  15.582   9.220  10.488
31503W        W99877  26.579   3.752   3.698
31504W        W99878   3.257   4.302   1.421
31505W        W99879   4.914   4.918  11.958
31506W        W99880  37.436  21.670  12.431
31507W        W99881  43.311  36.931  11.017
31508W        W99882   3.851  14.243  13.016
31509W        W99883  21.028  42.796  12.498
31510W        W99884  22.583  37.361  14.854
31511W        W99885   2.228  25.969   4.333
31512W        W99886   4.332   2.227  12.965
31513W        W99887  33.043  14.326   0.250
31514W        W99888  15.635   7.811  14.936
31515W        W99889  22.574  35.403  10.592
31516W        W99890  40.429  31.130  13.482
31517W        W99891  19.249   4.901  12.468
31518W        W99892  20.048  40.527  13.531
31519W        W99893  29.589  20.199  14.764
31520W        W99894  29.136   4.395  10.645
31521W        W99895  44.385  32.519  13.451
31522W        W99896  17.598  25.612   0.843
31523W        W99897   9.817  43.928  12.342
31524W        W99898  38.041  44.939   0.443
31525W        W99899  44.762  24.609   1.901
31526W        W99900  14.113  10.640  13.978
31527W        W99901  23.221  41.845   1.380
31528W        W99902  38.934  19.679   2.219
31529W        W99903  37.982  14.231   1.289
31530W        W99904  21.637  36.088  10.442
31531W        W99905  32.072  15.690   2.383
31532W        W99906  43.925   0.449   1.257
31533W        W99907  26.551  41.926   1.698
31534W        W99908  28.977   3.876   3.641
31535W        W99909  17.584   0.372   3.182
31536W        W99910  17.145  15.585   0.782
31537W        W99911   7.879  34.541  12.926
31538W        W99912   0.923  16.152   2.259
31539W        W99913   3.941  39.540   1.755
31540W        W99914  40.807  38.421   1.751
31541W        W99915  14.607  17.235  11.074
31542W        W99916  30.075  31.586  10.583
31543W        W99917   3.836  43.386  14.362
31544W        W99918  42.022  42.339   4.614
31545W        W99919  44.817   3.246  12.855
31546W        W99920  11.143  31.529  13.970
31547W        W99921  38.524  12.186  14.383
31548W        W99922  34.429  34.504  13.979
31549W        W99923  21.606  37.009   5.243
31550W        W99924  12.819  28.011   2.769
31551W        W99925  37.957  38.521   0.482
31552W        W99926  28.647   9.722  13.026
31553W        W99927  43.503   5.757   3.763
31554W        W99928  36.058  22.115  12.339
31555W        W99929   1.805  29.980  11.495
31556W        W99930  43.889  34.104   3.855
31557W        W99931  15.225  25.069   4.808
31558W        W99932  31.500  23.517   0.849
31559W        W99933   4.769   8.816   5.284
31560W        W99934   2.882  42.318   2.389
31561W        W99935  19.249  18.607  12.835
31562W        W99936  41.325   7.314   3.753
31563W        W99937  19.594  40.886  13.893
31564W        W99938  43.894  21.237  13.974
31565W        W99939   1.451  10.817  13.509
31566W        W99940  26.513  13.285  12.451
31567W        W99941  38.949  44.920  12.377
31568W        W99942  24.006  33.425   4.238
31569W        W99943  30.647  33.613  12.017
31570W        W99944  18.057  20.080   0.386
31571W        W99945  11.321  18.658   2.331
31572W        W99946   7.191  30.120   4.620
31573W        W99947  32.095  42.488   2.257
31574W        W99948  31.945  12.339  11.975
31575W        W99949  28.502  40.911   2.723
31576W        W99950  21.518   2.759   3.240
31577W        W99951  41.516   0.779  14.859
31578W        W99952   6.758  22.661  11.034
31579W        W99953  37.999  36.554   1.392
31580W        W99954  19.239   0.806   0.259
31581W        W99955  33.514  22.631  14.383
31582W        W99956  26.500   7.362   0.889
31583W        W99957  31.118   7.372   5.282
31584W        W99958   9.362  18.691   3.646
31585W        W99959  30.041   1.408  13.957
31586W        W99960  22.583  34.964   4.764
31587W        W99961  13.264  36.420   0.827
31588W        W99962  26.604  28.069  12.908
31589W        W99963   5.786  23.584   9.973
31590W        W99964   2.896  41.298  13.529
31591W        W99965   6.748  18.631   5.581
31592W        W99966  20.749  37.458  12.415
31593W        W99967  29.057  17.251   0.299
31594W        W99968   8.823   7.341   1.408
31595W        W99969  39.842   3.386   4.176
31596W        W99970  41.368  42.364   0.303
31597W        W99971   0.787  30.427  12.450
31598W        W99972  21.575  29.925   5.254
31599W        W99973  14.275  11.169   2.416
31600W        W99974  25.175   3.280   4.294
31601W        W99975   7.280  18.592  14.278
31602W        W99976  16.613  31.453  14.291
31603W        W99977  15.254  23.640  12.507
31604W        W99978  43.997  21.184   2.877
31605W        W99979  44.984  23.659  12.086
31606W        W99980  24.022  42.516  11.445
31607W        W99981   8.160  24.503   3.855
31608W        W99982  28.596   0.442   2.384
31609W        W99983  12.764  44.813   0.463
31610W        W99984  26.606  17.152  12.008
31611W        W99985  10.327  19.706   3.730
31612W        W99986  17.200  31.118   2.400
31613W        W99987  19.191  29.471   1.723
31614W        W99988   8.711  17.182   1.327
31615W        W99989   4.418  25.059   3.803
31616W        W99990   0.370  25.587   3.259
31617W        W99991   9.789  24.999   4.828
31618W        W99992   0.320  24.136  14.848
31619W        W99993  37.077   4.346   0.798
31620W        W99994   8.166  42.501  12.473
31621W        W99995  14.828  25.199   4.302
31622W        W99996  42.792  22.690   3.196
31623W        W99997  37.894   5.707   3.744
31624W        W99998  30.462  11.265   2.239
31625W        W99999  32.557  16.250  13.542
31626W        W    0   7.892   4.345   1.858
31627W        W    1  19.264   7.838  10.624
31628W        W    2   3.840  25.672  14.024
31629W        W    3  25.042   1.298  11.552
31630W        W    4  26.017  39.956   2.806
31631W        W    5  40.393  35.979   1.441
31632W        W    6  44.478  16.131  13.378
31633W        W    7  35.495   7.676  14.779
31634W        W    8  44.914  34.884   0.824
31635W        W    9   5.809  42.440  10.562
31636W        W   10   7.722  32.610  14.864
31637W        W   11  31.446   0.885  11.865
31638W        W   12  27.454  11.359   1.377
31639W        W   13  38.837   5.337   2.882
31640W        W   14   0.858  41.516   1.874
31641W        W   15  32.963  35.577   1.235
31642W        W   16  42.904  18.685  14.367
31643W        W   17  15.276  24.548  12.384
31644W        W   18  23.544  31.577  12.349
31645W        W   19  38.378  37.525   4.611
31646W        W   20  36.571   0.826  10.520
31647W        W   21   9.799  21.115  12.852
31648W        W   22  11.369  10.722  14.291
31649W        W   23  13.637  18.164  11.497
31650W        W   24   5.746  18.190  11.919
31651W        W   25  27.109  19.587   4.780
31652W        W   26  33.615   7.689  13.396
31653W        W   27  22.119  25.673  14.826
31654W        W   28   7.202  39.379   4.226
31655W        W   29  31.990  22.505   4.713
31656W        W   30   0.327  17.196   0.342
31657W        W   31  43.973  17.750   4.229
31658W        W   32  40.992   8.277  11.568
31659W        W   33   8.252  15.131   2.716
31660W        W   34  35.427  18.057  13.466
31661W        W   35  11.796  27.121  14.488
31662W        W   36  36.017  14.245   0.392
31663W        W   37  39.333  44.911  11.477
31664W        W   38   3.249  39.560  11.972
31665W        W   39  39.058   6.793   0.828
31666W        W   40   9.203  33.481   0.819
31667W        W   41  25.033   2.262  13.338
31668W        W   42   4.759  32.076   3.848
31669W        W   43   4.878  30.576  10.945
31670W        W   44   7.277  13.609   1.347
31671W        W   45   6.760  26.012   0.819
31672W        W   46  28.156  35.585  14.019
31673W        W   47  37.033  35.076  10.984
31674W        W   48   2.277   3.887   0.452
31675W        W   49   0.958  23.027  10.605
31676W        W   50  25.672  15.151  10.127
31677W        W   51  32.048   5.369   0.406
31678W        W   52   1.275  22.092   0.802
31679W        W   53  37.461  14.701  14.936
31680W        W   54   8.256  22.628   4.716
31681W        W   55  23.002  15.256   0.792
31682W        W   56  16.240  10.666   0.303
31683W        W   57  11.806  41.458   1.373
31684W        W   58  16.158   4.333  12.443
31685W        W   59   7.184  17.272  12.882
31686W        W   60  37.889  31.029   3.318
31687W        W   61  15.668  21.523  11.860
31688W        W   62  16.242  42.464  11.603
31689W        W   63  31.619  15.310   0.791
31690W        W   64  36.985  43.824   0.926
31691W        W   65   2.775  27.017  14.914
31692W        W   66  13.165  31.137  10.929
31693W        W   67  38.874  40.446   2.221
31694W        W   68  21.757  13.731  11.038
31695W        W   69  30.492   4.903  11.529
31696W        W   70  32.601  13.254   1.451
31697W        W   71   1.298  23.516   3.215
31698W        W   72  10.859  17.636   2.368
31699W        W   73  44.789  22.542  11.605
31700W        W   74  30.129  25.137  11.034
31701W        W   75   4.879  28.042  14.282
31702W        W   76  28.527  33.517  14.316
31703W        W   77  39.550  40.928   1.772
31704W        W   78  10.287   4.436  11.987
31705W        W   79  15.241  33.087  11.959
31706W        W   80  40.309   5.836  11.407
31707W        W   81  18.737  34.026  12.043
31708W        W   82  13.290  41.407   2.897
31709W        W   83  34.386   2.399  11.891
31710W        W   84   1.308   9.647  12.579
31711W        W   85  20.050   6.302   5.084
31712W        W   86  11.801  24.212  13.317
31713W        W   87  18.072  43.466   4.199
31714W        W   88   9.676  39.391  14.022
31715W        W   89  25.113  43.413   2.691
31716W        W   90  31.455   5.309  12.381
31717W        W   91   1.418  35.077   4.201
31718W        W   92  17.135   4.746  12.945
31719W        W   93   3.340  11.721  11.587
31720W        W   94  16.242   9.723  14.379
31721W        W   95  43.852  38.957  10.449
31722W        W   96  22.191  34.986   3.864
31723W        W   97   5.217   5.256  11.544
31724W        W   98  13.698  27.198  12.392
31725W        W   99  36.455  12.656  11.973
31726W        W  100  20.155   6.189   2.728
31727W        W  101  31.430  15.756   3.205
31728W        W  102  39.840   8.404   0.320
31729W        W  103  44.006  21.211   4.722
31730W        W  104  27.511  37.575  14.350
31731W        W  105   3.729  17.560   4.261
31732W        W  106   4.401   2.243   4.644
31733W        W  107   2.365  25.111   0.879
31734W        W  108  12.808   0.270  13.327
31735W        W  109  30.555  11.687  12.418
31736W        W  110   3.876  20.733  12.340
31737W        W  111  35.577  25.055   1.270
31738W        W  112  20.192  33.395   4.327
31739W        W  113  28.050  44.268   4.712
31740W        W  114  15.625  14.095  10.052
31741W        W  115   6.413  39.322  13.457
31742W        W  116   9.262  22.072   2.338
31743W        W  117   0.288  20.591  12.898
31744W        W  118  31.948  26.561  11.494
31745W        W  119  12.713  26.180  14.006
31746W        W  120  10.872   2.957  14.282
31747W        W  121  14.256  30.563  13.307
31748W        W  122  13.199  16.088  14.415
31749W        W  123  13.793  19.191   3.321
31750W        W  124  15.224  30.535   3.704
31751W        W  125   7.876  29.984  12.059
31752W        W  126   7.368  28.130  10.909
31753W        W  127  29.458  34.924  12.377
31754W        W  128   3.772  29.528  10.919
31755W        W  129  23.730  44.505  12.532
31756W        W  130   0.468  42.438   4.158
31757W        W  131  18.664  27.092   1.247
31758W        W  132  23.586  16.695   0.432
31759W        W  133  21.124  16.773  12.362
31760W        W  134  40.304  25.571   4.837
31761W        W  135  21.745   7.834  13.805
31762W        W  136   3.826   3.395   1.813
31763W        W  137   0.439   4.875  12.469
31764W        W  138   7.892   0.803  12.865
31765W        W  139  15.240   8.275   0.905
31766W        W  140  17.193  10.728   0.827
31767W        W  141  35.931  39.877  11.601
31768W        W  142  22.229  26.599  13.992
31769W        W  143  31.947   0.976   0.950
31770W        W  144  21.261  42.913   5.121
31771W        W  145  22.169  32.088   5.262
31772W        W  146   7.792  27.005  11.030
31773W        W  147   7.787  28.009   5.723
31774W        W  148   4.344   9.328  14.799
31775W        W  149   0.394   0.356  11.871
31776W        W  150  30.028  34.498   0.866
31777W        W  151  15.721   4.904  13.395
31778W        W  152  27.140  19.757  12.385
31779W        W  153  30.582   5.222  12.916
31780W        W  154  39.990   1.447  12.549
31781W        W  155   6.265  28.186  10.562
31782W        W  156  15.793   2.865   1.316
31783W        W  157  39.403  13.634  14.455
31784W        W  158   2.886   5.409  14.921
31785W        W  159  21.258  23.001  12.552
31786W        W  160  34.946  19.230   4.694
31787W        W  161  21.558  13.164  13.366
31788W        W  162  38.040  13.132   2.732
31789W        W  163   3.296  28.507   0.839
31790W        W  164  37.423  31.512   1.925
31791W        W  165  21.038  24.017   4.165
31792W        W  166  19.703  32.103  12.537
31793W        W  167  44.369  40.468  13.983
31794W        W  168   2.314  40.384   2.823
31795W        W  169  21.156  31.967   1.899
31796W        W  170  35.943  20.121  11.994
31797W        W  171  14.304  15.582   2.871
31798W        W  172   4.699  33.056   0.953
31799W        W  173  30.106  18.186   3.841
31800W        W  174  17.206   0.418  12.823
31801W        W  175   0.926  32.937  14.349
31802W        W  176   1.757  40.395  13.429
31803W        W  177  13.678   4.306   3.306
31804W        W  178  38.047   6.252  12.453
31805W        W  179  44.497  37.469  11.491
31806W        W  180  24.509   1.874  10.481
31807W        W  181  24.622   4.249   4.218
31808W        W  182  33.494  15.217  14.910
31809W        W  183  43.871  11.671   0.876
31810W        W  184  43.387  29.991  12.004
31811W        W  185   4.855  28.150  10.490
31812W        W  186   2.871  30.918  13.544
31813W        W  187   7.332  13.696  12.409
31814W        W  188  38.040   9.836  14.417
31815W        W  189  18.731  32.116   4.229
31816W        W  190  17.237  33.014   4.213
31817W        W  191  37.536  23.191  14.764
31818W        W  192  31.401   6.685  11.538
31819W        W  193  37.336  23.176   0.892
31820W        W  194  13.615  16.200  14.908
31821W        W  195   1.453  29.441   3.192
31822W        W  196   5.317  44.841  11.430
31823W        W  197  22.116  38.970  14.820
31824W        W  198  26.987  35.379  14.421
31825W        W  199   1.780   4.933   4.744
31826W        W  200  36.443  35.585  10.431
31827W        W  201  28.064   6.408   0.443
31828W        W  202  42.499   2.451   3.275
31829W        W  203  44.870   7.357  14.297
31830W        W  204   6.684   5.846   3.279
31831W        W  205  31.111  40.357   5.198
31832W        W  206  23.180   0.262  13.809
31833W        W  207  44.276  12.857   1.875
31834W        W  208  18.242   3.952  12.050
31835W        W  209  27.166   4.722   4.235
31836W        W  210  41.505  25.992  11.991
31837W        W  211  10.878  10.190  12.035
31838W        W  212  24.636   2.964   3.360
31839W        W  213  22.612  17.301  10.156
31840W        W  214  23.691   7.722   1.866
31841W        W  215   8.702  31.614   4.142
31842W        W  216  25.203  15.587   4.827
31843W        W  217   1.963  30.028  13.792
31844W        W  218  41.294  28.471  11.124
31845W        W  219  42.374  35.409  11.541
31846W        W  220  29.475   1.956   0.263
31847W        W  221   3.396  31.441   2.208
31848W        W  222   1.338  15.592  12.950
31849W        W  223  16.115  44.901   3.196
31850W        W  224  32.922  18.566   2.274
31851W        W  225  43.868  38.467   3.817
31852W        W  226  31.491  33.466  11.395
31853W        W  227   0.408   0.336  10.491
31854W        W  228  40.430  19.176  10.613
31855W        W  229  28.158  39.052   1.833
31856W        W  230   1.479  34.603  14.987
31857W        W  231  20.670  36.962   4.759
31858W        W  232   5.917  11.650  11.423
31859W        W  233  39.840  31.990  14.942
31860W        W  234   5.906  13.149   3.283
31861W        W  235  35.554  40.881   0.801
31862W        W  236  24.056  33.882  11.934
31863W        W  237  34.424  29.168  12.506
31864W        W  238  31.475  37.029   4.228
31865W        W  239  39.523  34.434  10.439
31866W        W  240   3.295  25.558  10.598
31867W        W  241  21.742   3.826  13.371
31868W        W  242  34.422  37.832  13.811
31869W        W  243  35.992  40.041   2.751
31870W        W  244  22.603  38.973  13.329
31871W        W  245  41.388  34.085   4.174
31872W        W  246   3.456   2.462  13.543
31873W        W  247  38.950  13.693  12.518
31874W        W  248  27.560   6.416  11.454
31875W        W  249  12.813  15.816  14.858
31876W        W  250  34.380  26.163   3.169
31877W        W  251   4.429   2.355  11.947
31878W        W  252  19.119  33.624  12.508
31879W        W  253  30.520  33.949   4.837
31880W        W  254  38.400  24.595   2.883
31881W        W  255  11.214  14.247   4.736
31882W        W  256  18.695   8.821  13.823
31883W        W  257   8.889   0.284   0.843
31884W        W  258  35.938  40.045  12.435
31885W        W  259  27.159  29.953  12.487
31886W        W  260  12.282  18.549   0.382
31887W        W  261  20.699  38.059   0.802
31888W        W  262  15.583  32.034  12.996
31889W        W  263   2.295   3.296   2.233
31890W        W  264  29.141   0.747  10.067
31891W        W  265  15.674  13.676  10.626
31892W        W  266  41.418  42.891  11.596
31893W        W  267  13.252   6.187   3.331
31894W        W  268   4.810  16.616  12.537
31895W        W  269  43.910  39.389   1.251
31896W        W  270   8.770  29.460   2.722
31897W        W  271  11.844  37.894  11.959
31898W        W  272   7.807   8.680  10.497
31899W        W  273  26.134  15.283   3.702
31900W        W  274  11.748  43.917   3.367
31901W        W  275   4.825  43.276  14.443
31902W        W  276  30.499  11.319  12.008
31903W        W  277  26.459  25.146  13.996
31904W        W  278  38.428  29.467  14.325
31905W        W  279  40.549  38.568  13.363
31906W        W  280  42.012  23.518   4.777
31907W        W  281   7.253  44.299  10.110
31908W        W  282  21.193  38.550  13.919
31909W        W  283   6.254  39.963   2.348
31910W        W  284  14.283   8.388   5.702
31911W        W  285  32.059   6.892   1.802
31912W        W  286  22.173  10.742  11.911
31913W        W  287  20.668   4.831   3.847
31914W        W  288  10.666  43.012   4.758
31915W        W  289  30.547  35.477   2.410
31916W        W  290  27.657  27.602  12.485
31917W        W  291  23.663  26.669   2.723
31918W        W  292  41.921  24.680  14.802
31919W        W  293  20.108  19.654  12.924
31920W        W  294  18.741  10.676  12.994
31921W        W  295   0.963  39.857  10.515
31922W        W  296  29.032  34.067  12.376
31923W        W  297   1.469   8.252   4.169
31924W        W  298  10.693  31.921   9.967
31925W        W  299  13.247   0.449   0.967
31926W        W  300  12.318  19.716  14.937
31927W        W  301  22.561   5.706   4.350
31928W        W  302   6.306  13.271  13.344
31929W        W  303  40.942   8.211  13.414
31930W        W  304  16.699  15.201   2.714
31931W        W  305  38.493   3.871   3.171
31932W        W  306  27.591   8.188  11.009
31933W        W  307  39.861  12.727  14.969
31934W        W  308   1.245  25.475   0.285
31935W        W  309  22.200  20.153  14.839
31936W        W  310   1.853  14.656  10.481
31937W        W  311  15.791  26.692  14.833
31938W        W  312  36.854  21.750   2.363
31939W        W  313  44.424  37.953  12.989
31940W        W  314   7.238  22.061  14.833
31941W        W  315  40.808  39.877  14.890
31942W        W  316  39.875  35.859   4.168
31943W        W  317  28.616  24.991   4.250
31944W        W  318  11.643  41.332   2.340
31945W        W  319  43.273  29.604   3.251
31946W        W  320   3.234  34.925   5.089
31947W        W  321   6.864  19.779  11.116
31948W        W  322  17.641  23.227   1.884
31949W        W  323   6.795  27.547   3.854
31950W        W  324  23.531  27.660   4.793
31951W        W  325  16.781  42.462   0.733
31952W        W  326  13.639   6.902   3.664
31953W        W  327  11.327  36.359   4.632
31954W        W  328  20.761  44.452  14.367
31955W        W  329  14.803  20.653   3.770
31956W        W  330  24.692  12.238   0.258
31957W        W  331  31.103   2.290   3.648
31958W        W  332  38.828  13.800  11.455
31959W        W  333   1.330  28.048   4.145
31960W        W  334  17.167  34.880   2.709
31961W        W  335  22.558  33.964  14.371
31962W        W  336  19.160  39.445  10.584
31963W        W  337  28.068   3.853  11.100
31964W        W  338  10.317   9.773   3.380
31965W        W  339   6.871  27.004  11.033
31966W        W  340   3.258  40.417   3.802
31967W        W  341  27.163  43.383  10.955
31968W        W  342  13.258  36.091   4.149
31969W        W  343  11.635  24.654  10.458
31970W        W  344  43.978  36.853   1.368
31971W        W  345  17.134  24.062  14.964
31972W        W  346  36.051  19.078  14.844
31973W        W  347  26.609  35.449  11.565
31974W        W  348  42.327  42.370   4.346
31975W        W  349  32.065   8.199  12.504
31976W        W  350  32.942  40.329   4.775
31977W        W  351  15.693  18.277  12.345
31978W        W  352   0.915  36.043  14.836
31979W        W  353  22.995  42.012   4.260
31980W        W  354   2.944   8.710   3.185
31981W        W  355  37.526   9.848  11.465
31982W        W  356   1.385  38.425   1.893
31983W        W  357   5.722  30.565   0.349
31984W        W  358  29.111  17.678  13.543
31985W        W  359  24.653  24.009  12.832
31986W        W  360  13.780  12.354  10.975
31987W        W  361  20.552  33.906   4.798
31988W        W  362  10.232  20.038   2.343
31989W        W  363   9.164  42.846  12.981
31990W        W  364  15.105   1.819  10.599
31991W        W  365  36.919   0.267   3.632
31992W        W  366  43.994  44.835   1.745
31993W        W  367  21.084  16.183  14.799
31994W        W  368  26.698  42.023   4.264
31995W        W  369  27.047  36.000   5.099
31996W        W  370  20.088  24.658  14.275
31997W        W  371   8.349  31.035  14.402
31998W        W  372   4.259   1.768  13.847
31999W        W  373  35.555  34.059  12.571
32000W        W  374  19.082  37.912  13.406
32001W        W  375  39.042  33.055   2.753
32002W        W  376  23.680  40.438   3.785
32003W        W  377  14.637  16.642   1.763
32004W        W  378   6.325  29.449   1.237
32005W        W  379  28.526  27.003   0.318
32006W        W  380  39.551  24.011   1.908
32007W        W  381   6.890  29.582  12.998
32008W        W  382  31.090  32.093  12.461
32009W        W  383  27.540   5.800  13.314
32010W        W  384  36.083   7.706  12.041
32011W        W  385  10.668  24.174  13.962
32012W        W  386   3.840  41.007  11.420
32013W        W  387  44.410   2.836   2.219
32014W        W  388  24.553  14.811  11.087
32015W        W  389  44.951  26.113  12.523
32016W        W  390  35.993  26.552  12.836
32017W        W  391  30.960  38.510  12.855
32018W        W  392  39.899  15.736  11.126
32019W        W  393  29.482  16.190   3.331
32020W        W  394  32.487  15.689  14.785
32021W        W  395   0.875  24.604  14.984
32022W        W  396  31.558  42.328   3.330
32023W        W  397  11.667   2.963  12.845
32024W        W  398  21.640  37.369   0.790
32025W        W  399  31.477  18.758  14.008
32026W        W  400   0.978  20.673   2.354
32027W        W  401  14.243  42.285   3.166
32028W        W  402  14.159  15.175   0.354
32029W        W  403  23.496   9.357   1.888
32030W        W  404  29.056  29.962   0.329
32031W        W  405  10.219   4.767  13.325
32032W        W  406  25.682   5.868  13.351
32033W        W  407  20.110  43.355   4.186
32034W        W  408  31.473  13.836  12.036
32035W        W  409  37.431  41.372  10.435
32036W        W  410  37.047  43.443   4.235
32037W        W  411   9.874   7.242  11.572
32038W        W  412  11.711  15.107   2.199
32039W        W  413  34.540  41.449  12.380
32040W        W  414  43.802   6.378  13.977
32041W        W  415   7.829  15.320   4.346
32042W        W  416  41.358  17.078  13.437
32043W        W  417  21.178  27.970   4.782
32044W        W  418  10.654  18.559   2.246
32045W        W  419  38.342   1.435   1.738
32046W        W  420   3.923  28.038  12.347
32047W        W  421  24.050  32.598  11.580
32048W        W  422  21.653  15.788   1.361
32049W        W  423   3.885   9.708   1.250
32050W        W  424  35.902  16.621   0.307
32051W        W  425  18.574  33.422  12.068
32052W        W  426  37.002  28.021   4.179
32053W        W  427  33.018  10.169  10.007
32054W        W  428  26.568  15.285   2.183
32055W        W  429   9.291  42.994  12.414
32056W        W  430  26.565  14.279  10.895
32057W        W  431   3.898  30.995  13.857
32058W        W  432  30.615   6.220  12.922
32059W        W  433  12.184  12.198   0.781
32060W        W  434  31.030  44.463  11.934
32061W        W  435  22.151   9.221  10.586
32062W        W  436  36.903  21.021  14.442
32063W        W  437   7.702  12.327  14.398
32064W        W  438  19.706  36.922  10.914
32065W        W  439  42.857  13.734   2.697
32066W        W  440  12.680  31.148  13.364
32067W        W  441  27.651   8.795  12.435
32068W        W  442  35.500  34.604   1.874
32069W        W  443  28.045  14.681   3.176
32070W        W  444  35.412  15.696  10.525
32071W        W  445  42.359   5.228   2.893
32072W        W  446  15.811   4.867  10.035
32073W        W  447  32.984   6.709   4.800
32074W        W  448  29.555  19.208   1.804
32075W        W  449  13.802  39.556  14.026
32076W        W  450   1.365  29.581  12.930
32077W        W  451  21.022  27.541  10.936
32078W        W  452  43.017  20.768   0.467
32079W        W  453  12.670   1.339   3.296
32080W        W  454  27.683  23.712  14.994
32081W        W  455   2.741  14.829   0.814
32082W        W  456  42.312  34.488   4.342
32083W        W  457  29.137  27.026  10.496
32084W        W  458  43.477   4.296  14.852
32085W        W  459  13.268  13.758   3.310
32086W        W  460  21.555  28.463  14.785
32087W        W  461  42.828  14.727   3.256
32088W        W  462  18.096   3.837   0.807
32089W        W  463  22.606  31.916  11.083
32090W        W  464   4.241   3.937  12.996
32091W        W  465  33.521  23.047   2.210
32092W        W  466  39.850  12.153  13.991
32093W        W  467  13.729  31.518  14.990
32094W        W  468   3.837   5.805   2.703
32095W        W  469  16.745  20.051   1.334
32096W        W  470   5.839  33.411   1.330
32097W        W  471  31.114  17.233  11.429
32098W        W  472  24.125  27.625   1.917
32099W        W  473  17.160  13.613   2.828
32100W        W  474  25.985  28.042   3.842
32101W        W  475  37.538  27.674   4.199
32102W        W  476  10.185  11.215  11.916
32103W        W  477  37.023  37.963  10.633
32104W        W  478   2.298  29.615  13.893
32105W        W  479  25.132  23.719   2.752
32106W        W  480  22.020   8.243  13.022
32107W        W  481  21.601  36.396  14.967
32108W        W  482  28.960  23.181  12.885
32109W        W  483  33.130  12.837  11.049
32110W        W  484   2.258  26.123  11.885
32111W        W  485   9.322  30.115   4.723
32112W        W  486  42.883  41.518  13.385
32113W        W  487   0.971  11.752  11.979
32114W        W  488  40.361  35.604  14.892
32115W        W  489  13.655   1.976   4.303
32116W        W  490  30.517  18.195   0.300
32117W        W  491  16.682  30.498   4.121
32118W        W  492  37.950  30.064   3.810
32119W        W  493   9.274   9.263   0.942
32120W        W  494   1.301  13.780   1.774
32121W        W  495  21.219  42.323  12.976
32122W        W  496  25.480  36.917   1.420
32123W        W  497  27.664  17.632   4.675
32124W        W  498  34.451  26.206  14.362
32125W        W  499  33.037  32.959  10.887
32126W        W  500  42.427  29.504  10.619
32127W        W  501   3.881  26.167   1.322
32128W        W  502  26.032  13.109   4.615
32129W        W  503   8.849  30.522   2.866
32130W        W  504  29.116  22.210  14.024
32131W        W  505  16.743   8.701  12.968
32132W        W  506  38.453  16.795   0.871
32133W        W  507   8.343  16.088   0.753
32134W        W  508  15.204  34.521  10.544
32135W        W  509   9.374  12.342  14.437
32136W        W  510  14.729  27.070   0.863
32137W        W  511   4.839  24.564  11.905
32138W        W  512  27.160   2.387   4.788
32139W        W  513  13.343  20.231  12.356
32140W        W  514   4.448  32.140   4.272
32141W        W  515  35.400  27.165  12.513
32142W        W  516  31.577  23.496   0.434
32143W        W  517  41.894  15.240   0.927
32144W        W  518  14.592  10.150   3.380
32145W        W  519   6.372  19.707  11.046
32146W        W  520   8.750  25.083   2.761
32147W        W  521   2.827  33.590  10.899
32148W        W  522  31.466  27.121  10.932
32149W        W  523   8.852   7.741  11.947
32150W        W  524  22.555  17.250   3.240
32151W        W  525   8.802   1.345  12.825
32152W        W  526  31.643  29.086  10.575
32153W        W  527  18.103  19.253   2.401
32154W        W  528  16.754  33.519   3.145
32155W        W  529  36.066  35.903  12.923
32156W        W  530  23.177  26.030   4.284
32157W        W  531   3.311  42.513   0.784
32158W        W  532   1.948  40.368  12.462
32159W        W  533  11.737  25.138   4.779
32160W        W  534  12.769  33.530   4.664
32161W        W  535  44.928  36.060   4.786
32162W        W  536  41.924  42.525  13.336
32163W        W  537  21.713  22.723   3.173
32164W        W  538  42.795  20.666  12.924
32165W        W  539   1.867  38.490   3.833
32166W        W  540  39.000   6.283  10.569
32167W        W  541  23.199  13.242   2.896
32168W        W  542  32.463  32.478  11.928
32169W        W  543  44.950  42.331   2.268
32170W        W  544  19.636  39.841  13.021
32171W        W  545  26.978   2.454   4.265
32172W        W  546   8.775  17.230   3.860
32173W        W  547  23.491  29.469   2.671
32174W        W  548  15.682  34.114  10.567
32175W        W  549   7.895  26.631  10.078
32176W        W  550  18.580  29.489  13.403
32177W        W  551   2.410  35.599  14.026
32178W        W  552   8.850  20.589   0.895
32179W        W  553  34.093  20.707   1.715
32180W        W  554  41.858  29.092  11.038
32181W        W  555  43.426  37.432  12.361
32182W        W  556  27.113  37.058   1.769
32183W        W  557  32.942   7.849  10.904
32184W        W  558  35.534  23.106   1.276
32185W        W  559  39.028   6.256  10.028
32186W        W  560  11.727  37.367   3.377
32187W        W  561  13.336  21.246   0.401
32188W        W  562  14.736   9.771   0.354
32189W        W  563  25.498  14.593  11.045
32190W        W  564  23.002   1.450  13.517
32191W        W  565  40.481  10.843  10.594
32192W        W  566  23.690  13.813  11.561
32193W        W  567   1.431  38.065   1.725
32194W        W  568  39.532   4.431   4.230
32195W        W  569  31.016  24.681  10.977
32196W        W  570  28.047   6.328  14.836
32197W        W  571  29.148  14.685   0.799
32198W        W  572  40.363  23.089   4.259
32199W        W  573   5.692  36.912  10.536
32200W        W  574  13.157   6.329  10.544
32201W        W  575  38.520   8.784  10.423
32202W        W  576   7.681  12.281  13.858
32203W        W  577  21.746  33.114   1.426
32204W        W  578   8.368  18.178   4.334
32205W        W  579  39.507  21.128  12.489
32206W        W  580   5.907   6.340   4.180
32207W        W  581   2.282  12.735  14.303
32208W        W  582   5.300  26.982  13.891
32209W        W  583   4.415  15.771  12.993
32210W        W  584  33.415  39.884   3.821
32211W        W  585  16.660  25.213  14.776
32212W        W  586  12.214  35.095  11.546
32213W        W  587  22.197  30.011   3.353
32214W        W  588  14.245  36.843  12.067
32215W        W  589  27.167  32.464   2.846
32216W        W  590  24.121  44.007   1.426
32217W        W  591   2.452  20.660  13.808
32218W        W  592  11.368   5.734   1.742
32219W        W  593  26.617  17.214  11.555
32220W        W  594  31.979  20.623   3.247
32221W        W  595  19.711  18.617   2.802
32222W        W  596  17.073  32.101  12.468
32223W        W  597  41.491   4.702   2.820
32224W        W  598  10.290   8.731  10.424
32225W        W  599  25.472  16.205   2.784
32226W        W  600  16.219   9.768  11.438
32227W        W  601  17.161  40.364  13.892
32228W        W  602  30.056  16.685   0.393
32229W        W  603  39.355  19.262   1.751
32230W        W  604  17.245  37.032   3.747
32231W        W  605   6.275   1.813   3.344
32232W        W  606  25.210  15.648   3.729
32233W        W  607  14.334  27.001   1.703
32234W        W  608   8.190  24.122   0.291
32235W        W  609   2.227   3.358  10.101
32236W        W  610  12.259  17.753  13.018
32237W        W  611   6.828   4.380  13.840
32238W        W  612   8.283   3.913  10.109
32239W        W  613  32.074  42.358   1.773
32240W        W  614  24.025  37.388  11.954
32241W        W  615  37.449  15.171   3.302
32242W        W  616  13.687  39.949  13.513
32243W        W  617  31.560   6.209  11.441
32244W        W  618  31.490  23.554  11.978
32245W        W  619  41.538   1.393   2.249
32246W        W  620  15.184  39.326  12.536
32247W        W  621  39.044  32.111  12.383
32248W        W  622  11.329  29.919  14.439
32249W        W  623   7.244  34.607   3.177
32250W        W  624  17.282  33.504   0.868
32251W        W  625  14.113  35.545   3.651
32252W        W  626   5.737  22.147   3.249
32253W        W  627  21.723   5.257   1.244
32254W        W  628  39.869  21.558   2.181
32255W        W  629  33.904  16.576  11.567
32256W        W  630  23.692  33.512   4.323
32257W        W  631  42.923  36.855   2.773
32258W        W  632  27.045  11.648  13.897
32259W        W  633  24.526  29.603  14.933
32260W        W  634  31.107  38.849  12.012
32261W        W  635  24.226   2.426   4.819
32262W        W  636  14.179  40.907   4.164
32263W        W  637  22.638  30.123  14.330
32264W        W  638   0.344  20.214  11.878
32265W        W  639   3.872  18.101  12.477
32266W        W  640  14.163  29.621   1.439
32267W        W  641  36.358   2.867   4.657
32268W        W  642  19.242  10.332  14.004
32269W        W  643   4.408  22.698  10.937
32270W        W  644   4.805  16.254   4.341
32271W        W  645   0.914  10.300   3.640
32272W        W  646  16.652  21.240  12.352
32273W        W  647  23.033  26.139   2.881
32274W        W  648  31.523  38.869   2.785
32275W        W  649  28.084  12.658  14.392
32276W        W  650  22.125   2.919   0.271
32277W        W  651  18.141  26.124   0.750
32278W        W  652  11.133  28.535  10.942
32279W        W  653  35.592  17.094  11.029
32280W        W  654  25.192   6.219  12.912
32281W        W  655  15.119   3.271  14.345
32282W        W  656  11.692   0.396   3.711
32283W        W  657  20.097  42.012   0.370
32284W        W  658  32.142  19.754  10.495
32285W        W  659  18.135   9.232  13.892
32286W        W  660  16.800   9.705   3.165
32287W        W  661  20.740  10.190  12.084
32288W        W  662  27.605  33.091   3.685
32289W        W  663  38.883  36.065   3.860
32290W        W  664  12.841  32.430  12.872
32291W        W  665   3.229  40.428   1.277
32292W        W  666  10.204  14.722   2.821
32293W        W  667  24.083  15.201  12.889
32294W        W  668  32.126  27.954   3.667
32295W        W  669   0.941  17.134  14.814
32296W        W  670  19.155   2.269  13.954
32297W        W  671  33.518  16.786  14.815
32298W        W  672  29.023  26.952  11.382
32299W        W  673   3.256  24.127   3.379
32300W        W  674  36.085   6.709   2.282
32301W        W  675  25.479   7.857  13.014
32302W        W  676  16.226  18.227  12.576
32303W        W  677  22.685  20.218   0.942
32304W        W  678  20.141  25.679  11.918
32305W        W  679  42.468  21.645  13.324
32306W        W  680  23.663  23.157  10.427
32307W        W  681   3.890  38.069  11.385
32308W        W  682   6.204   5.926   3.387
32309W        W  683   4.259  24.014   4.240
32310W        W  684   5.843  37.409  12.578
32311W        W  685  26.970  29.104  13.506
32312W        W  686   0.838   9.843   0.272
32313W        W  687  39.835  37.559   2.769
32314W        W  688  35.073   5.410  12.932
32315W        W  689  27.538  11.158  14.339
32316W        W  690  21.686  37.975   0.926
32317W        W  691  17.154   7.737  13.351
32318W        W  692  13.244  36.542  11.106
32319W        W  693   9.735  39.817  13.970
32320W        W  694  17.086  44.364  11.475
32321W        W  695  12.116  27.691   0.913
32322W        W  696  44.826  10.822   1.695
32323W        W  697   8.769  21.146   3.679
32324W        W  698  23.515   5.298   3.316
32325W        W  699  35.068  17.633  12.873
32326W        W  700  12.156  25.071  14.797
32327W        W  701  21.703   4.741  13.950
32328W        W  702  15.668   8.201   0.934
32329W        W  703  21.192  28.535  10.641
32330W        W  704  26.549   4.805  13.514
32331W        W  705  24.156   1.319   4.791
32332W        W  706   1.915  31.477  12.916
32333W        W  707  14.295  18.597   5.196
32334W        W  708  23.585  27.026  13.046
32335W        W  709  42.885  33.069  12.393
32336W        W  710  43.339  22.078  14.466
32337W        W  711  35.034   2.450   4.759
32338W        W  712  31.444  31.454   4.144
32339W        W  713   7.304  23.580  12.023
32340W        W  714  33.493  44.956  14.515
32341W        W  715  13.610  18.197   3.271
32342W        W  716  42.336  18.252  10.405
32343W        W  717   4.906  36.995  10.921
32344W        W  718  20.687  37.905   5.140
32345W        W  719  17.295  16.134   0.318
32346W        W  720  37.542   9.278  10.986
32347W        W  721   4.932   9.263   0.758
32348W        W  722   5.307  22.724  11.952
32349W        W  723  13.630   0.882  13.923
32350W        W  724  19.565  33.489  11.893
32351W        W  725  13.166  14.148   5.197
32352W        W  726   5.310  22.644  10.040
32353W        W  727   9.179  36.083  14.293
32354W        W  728  15.627  20.625   1.763
32355W        W  729  34.931  20.719   3.244
32356W        W  730  33.058  27.527   3.791
32357W        W  731  38.341  19.218   2.185
32358W        W  732   3.233  16.139   3.789
32359W        W  733  17.723   0.263   3.646
32360W        W  734  41.995   4.881  12.447
32361W        W  735  32.486  23.106   1.305
32362W        W  736   7.825  22.570   4.165
32363W        W  737  42.848  22.036   4.347
32364W        W  738  38.063  21.181  12.542
32365W        W  739  12.145  43.475   0.378
32366W        W  740  26.165  36.354  14.486
32367W        W  741  28.166  43.323  10.490
32368W        W  742  43.454   1.280  14.925
32369W        W  743  19.610   4.870  11.904
32370W        W  744   7.254  36.916  12.875
32371W        W  745  17.179  28.459   1.429
32372W        W  746   6.287   5.431   3.841
32373W        W  747  16.615  14.641   4.725
32374W        W  748   2.949  32.932   0.953
32375W        W  749   1.746   4.887   2.364
32376W        W  750  21.116   2.266   3.258
32377W        W  751  30.025  17.588   0.284
32378W        W  752  29.172   1.369   1.286
32379W        W  753  23.676  18.282  12.502
32380W        W  754  42.980   1.325   3.194
32381W        W  755  17.226   7.714  13.947
32382W        W  756  41.890   8.683   4.143
32383W        W  757  36.945   5.300  13.815
32384W        W  758   0.815  41.859  14.895
32385W        W  759  11.373  18.677  11.383
32386W        W  760   5.289   5.916   1.443
32387W        W  761  26.668   1.461  10.889
32388W        W  762  28.588  29.952  13.327
32389W        W  763  42.855  15.782  12.485
32390W        W  764   4.785  40.884   2.756
32391W        W  765  30.434  43.421   1.840
32392W        W  766  33.544  32.627  10.614
32393W        W  767  27.690  14.651   0.354
32394W        W  768   8.847  37.422   4.277
32395W        W  769  10.870  37.083  11.025
32396W        W  770  26.083   8.172   1.932
32397W        W  771  15.678  41.908   3.327
32398W        W  772  31.046  10.188  14.815
32399W        W  773  14.108   2.852  13.451
32400W        W  774   3.459  23.546  12.360
32401W        W  775  15.327  15.642   1.896
32402W        W  776  32.491   2.268  10.928
32403W        W  777  27.058  43.372   5.627
32404W        W  778  20.131  15.101   4.641
32405W        W  779  29.649  25.528  14.828
32406W        W  780  26.459  42.924   0.448
32407W        W  781   7.670  20.673   0.483
32408W        W  782  43.946  36.956  14.789
32409W        W  783  29.555   7.842   4.348
32410W        W  784  36.430  14.227  10.011
32411W        W  785  42.910  10.743  10.891
32412W        W  786   7.189  35.882   1.848
32413W        W  787  18.773  33.528  13.354
32414W        W  788  16.748   9.875   4.612
32415W        W  789  31.413   9.746  12.474
32416W        W  790  27.941  29.459   3.732
32417W        W  791  19.088   9.758   2.202
32418W        W  792  35.520  10.860  10.894
32419W        W  793   3.818  36.041   3.822
32420W        W  794  15.786   9.860   0.918
32421W        W  795  14.648  27.541   4.739
32422W        W  796   0.966  14.661  12.858
32423W        W  797  43.829   4.422   3.308
32424W        W  798  20.160   2.466   0.878
32425W        W  799  32.611  14.806  13.515
32426W        W  800  14.647  40.835  10.955
32427W        W  801  35.579  10.369   3.358
32428W        W  802  28.931   7.371  12.438
32429W        W  803  39.410  21.724  12.956
32430W        W  804  18.264   0.754  10.907
32431W        W  805  12.663  23.166  13.913
32432W        W  806   0.267  32.079  10.930
32433W        W  807   7.678  35.442  10.502
32434W        W  808  14.325  30.514  13.895
32435W        W  809  34.577  20.539  12.508
32436W        W  810  43.306   1.240  14.473
32437W        W  811  13.706   4.778  14.307
32438W        W  812  35.024  12.643  12.478
32439W        W  813  11.746   4.366   4.247
32440W        W  814  13.667  44.930  12.410
32441W        W  815  16.316  14.799  12.385
32442W        W  816  34.412  32.629   1.709
32443W        W  817  42.353  16.272  14.412
32444W        W  818  23.720   4.765   4.218
32445W        W  819  17.768  21.532  10.464
32446W        W  820  25.563  10.286   9.985
32447W        W  821  42.990   5.324   3.773
32448W        W  822  15.122  43.270   3.179
32449W        W  823  19.706  20.749  11.087
32450W        W  824   5.434  37.979  12.907
32451W        W  825   3.342  20.157   1.292
32452W        W  826  24.999  36.064  10.933
32453W        W  827   9.765  38.419  13.514
32454W        W  828  27.649  36.458   4.781
32455W        W  829  43.798   6.182   0.333
32456W        W  830  16.594  26.510   2.872
32457W        W  831  42.519  37.558  14.330
32458W        W  832  30.945   1.241   1.405
32459W        W  833  15.119  39.324   2.878
32460W        W  834  31.962  36.474  14.335
32461W        W  835  19.058  10.875  11.893
32462W        W  836  31.926  24.529   1.408
32463W        W  837  25.519  36.456   4.836
32464W        W  838  27.450   0.890  14.299
32465W        W  839  24.646  39.399   0.942
32466W        W  840  19.654  26.008   4.233
32467W        W  841  22.250  31.457   0.729
32468W        W  842  16.262  26.968   1.354
32469W        W  843  28.952   6.748   0.401
32470W        W  844  33.874  16.105  11.419
32471W        W  845  26.034  40.798  13.855
32472W        W  846  28.643  19.729   4.276
32473W        W  847  43.301  31.028   1.934
32474W        W  848  22.227  28.967  12.092
32475W        W  849   1.846  27.177   0.285
32476W        W  850  27.005   0.975  11.458
32477W        W  851   7.329  24.116  14.828
32478W        W  852  21.606  27.597  14.513
32479W        W  853  35.965  16.235  14.927
32480W        W  854   9.853  27.532   0.738
32481W        W  855   5.202  27.160  12.421
32482W        W  856  30.936  20.580  13.334
32483W        W  857   9.246   5.880  12.931
32484W        W  858  23.511   7.303  10.504
32485W        W  859  37.458  23.653  11.882
32486W        W  860  11.129   4.919  14.474
32487W        W  861  40.048   4.387   3.274
32488W        W  862  44.004  34.599  13.820
32489W        W  863   1.861  16.765   0.402
32490W        W  864  14.193  40.424  11.918
32491W        W  865  31.103  17.669   1.318
32492W        W  866   8.162  26.632   0.965
32493W        W  867  21.674  17.570  14.958
32494W        W  868  39.368  22.226   1.756
32495W        W  869  44.291  17.120  10.579
32496W        W  870  12.185  32.994  10.913
32497W        W  871  18.096  38.451   0.734
32498W        W  872  10.261  13.766   0.899
32499W        W  873  24.517  26.522  10.466
32500W        W  874  27.639   7.265  13.052
32501W        W  875  42.794   8.702  12.552
32502W        W  876  29.642  32.108  13.918
32503W        W  877  40.007   7.853  13.873
32504W        W  878  22.566  39.956  13.338
32505W        W  879   5.373  42.856  11.460
32506W        W  880  30.516  39.049   0.416
32507W        W  881  27.999  11.321   3.322
32508W        W  882   3.791  25.575  14.985
32509W        W  883  21.213  41.029   1.381
32510W        W  884  28.646   3.846  10.462
32511W        W  885   4.224  40.899   4.650
32512W        W  886  27.452  28.458   1.724
32513W        W  887   7.284  43.841   2.752
32514W        W  888  42.383   1.813   4.653
32515W        W  889  26.120  13.621   1.366
32516W        W  890  35.868  39.431   3.665
32517W        W  891   0.885  12.180   3.149
32518W        W  892  11.215   7.864  12.436
32519W        W  893   5.793  15.697  10.937
32520W        W  894  39.014  19.042  12.839
32521W        W  895  31.089  31.434  11.471
32522W        W  896  34.539  39.336   1.779
32523W        W  897  18.121  33.931  10.523
32524W        W  898  25.973  24.581   0.277
32525W        W  899  44.886  11.149   0.342
32526W        W  900  32.603  12.116  13.443
32527W        W  901  25.208  18.737   4.164
32528W        W  902   4.889  43.833  10.924
32529W        W  903  27.502  44.478  12.076
32530W        W  904   3.790  25.578  12.973
32531W        W  905  22.501  44.324   0.381
32532W        W  906  42.329  23.052  12.505
32533W        W  907  37.991  24.197   4.171
32534W        W  908  28.492   8.169   4.233
32535W        W  909  10.791   1.751   1.792
32536W        W  910  21.062   5.890  11.532
32537W        W  911   8.259  43.369   3.341
32538W        W  912  30.438  28.517   2.761
32539W        W  913   0.388  35.100   0.738
32540W        W  914  12.821  27.061  14.352
32541W        W  915  43.513  34.386  13.471
32542W        W  916   7.295   4.213  14.906
32543W        W  917  39.031  43.375  12.919
32544W        W  918  32.605  13.157   4.643
32545W        W  919  34.927  32.618  12.367
32546W        W  920   9.887  36.575  10.998
32547W        W  921  22.619  37.005   5.286
32548W        W  922  38.467  24.061  13.485
32549W        W  923   7.811  44.287   0.787
32550W        W  924  20.140  33.473   2.268
32551W        W  925   6.781  21.712   0.758
32552W        W  926  24.592  40.428   4.210
32553W        W  927  30.501   8.249   0.381
32554W        W  928  25.706  27.486   2.408
32555W        W  929   8.738  17.577  14.803
32556W        W  930  44.304  38.568  10.419
32557W        W  931  24.530  32.595   4.731
32558W        W  932  34.110  37.886  10.413
32559W        W  933  27.977   7.295   2.733
32560W        W  934   5.421  32.100  10.929
32561W        W  935  30.059  14.182   0.922
32562W        W  936  11.258  40.435  13.833
32563W        W  937  15.228  30.466  13.058
32564W        W  938  38.849  41.979  11.585
32565W        W  939  12.217  35.444   4.159
32566W        W  940  36.386  21.711   1.896
32567W        W  941   9.321  15.642  11.121
32568W        W  942  13.246  26.680   0.457
32569W        W  943  42.830   6.793  12.874
32570W        W  944  12.736  36.458  12.860
32571W        W  945  11.172  33.535  11.963
32572W        W  946   6.751  26.150  13.308
32573W        W  947  17.760   6.804   0.932
32574W        W  948  18.564   8.369   3.349
32575W        W  949   4.812  24.591  10.567
32576W        W  950  12.616  12.164  14.313
32577W        W  951  27.108  30.960   1.443
32578W        W  952  38.053  18.060  11.024
32579W        W  953  11.700  17.583   2.767
32580W        W  954  44.758  13.731   1.798
32581W        W  955  35.101  23.501  12.969
32582W        W  956  15.156  23.641  14.006
32583W        W  957  24.998  41.916   0.883
32584W        W  958  11.305  23.166  10.464
32585W        W  959  43.290  17.646  13.915
32586W        W  960   4.734  19.711  12.984
32587W        W  961   6.769   0.338   4.334
32588W        W  962  17.176  34.604   1.727
32589W        W  963  13.729  26.458  12.408
32590W        W  964  19.598   2.235  12.892
32591W        W  965  11.752   9.812  10.515
32592W        W  966   2.869  35.881   0.730
32593W        W  967  19.742  31.605  11.425
32594W        W  968   4.700  29.521  14.920
32595W        W  969  30.942   9.266   1.698
32596W        W  970  19.180  37.902   4.740
32597W        W  971  42.393  22.025   1.354
32598W        W  972   3.748  20.538   1.839
32599W        W  973  24.599  31.038   0.842
32600W        W  974  30.083   3.391  11.099
32601W        W  975  31.605   4.713  12.414
32602W        W  976  38.878  28.439  12.413
32603W        W  977  28.110  39.512  13.023
32604W        W  978  14.271  14.334   0.782
32605W        W  979   7.852  19.043   1.761
32606W        W  980  34.408  21.137  13.940
32607W        W  981  44.869  25.570  12.994
32608W        W  982  15.146  29.616   1.779
32609W        W  983  16.637  36.007  10.580
32610W        W  984  30.101  17.244   3.867
32611W        W  985  31.137  10.174   3.723
32612W        W  986   1.889  26.699   2.883
32613W        W  987  23.663  28.064  14.500
32614W        W  988   1.882  23.237   1.253
32615W        W  989   0.338  18.056  12.863
32616W        W  990  20.733  27.149   2.716
32617W        W  991  43.995  31.622  12.358
32618W        W  992  10.219   0.882   4.817
32619W        W  993  37.447   8.395  11.912
32620W        W  994  13.263   4.342  11.467
32621W        W  995  34.864  38.015  10.642
32622W        W  996  26.602  38.459  12.000
32623W        W  997  32.565  19.764  10.482
32624W        W  998  35.363  32.885   1.223
32625W        W  999  15.580  32.405   1.268
32626W        W 1000   1.256  19.632   3.258
32627W        W 1001  35.994   0.980   3.169
32628W        W 1002  42.291  18.158   1.807
32629W        W 1003  25.570  34.880  14.976
32630W        W 1004  26.070  12.156   1.734
32631W        W 1005  28.017  43.965   9.974
32632W        W 1006   5.252  13.654  13.411
32633W        W 1007  41.389   3.230  10.896
32634W        W 1008  14.219   8.292  13.979
32635W        W 1009  21.757   2.745  13.047
32636W        W 1010  23.131  15.144  14.797
32637W        W 1011  28.128  34.412  10.572
32638W        W 1012   5.423  20.171  13.994
32639W        W 1013  17.633   3.885  14.359
32640W        W 1014  36.368  36.496  13.972
32641W        W 1015  12.133  10.678  12.873
32642W        W 1016  23.076  10.356  13.479
32643W        W 1017  42.963  34.548  12.872
32644W        W 1018  29.115  12.132  12.511
32645W        W 1019  24.050  39.819   4.279
32646W        W 1020  42.969  25.538   4.748
32647W        W 1021   3.218  30.026   3.370
32648W        W 1022   4.247  33.616   2.674
32649W        W 1023   4.434  14.636   4.284
32650W        W 1024  15.098  10.773   0.760
32651W        W 1025   2.869  37.442   2.178
32652W        W 1026  44.371  30.525   3.735
32653W        W 1027   7.270  11.763   3.336
32654W        W 1028  37.084   4.909   2.725
32655W        W 1029  24.067   1.279  12.875
32656W        W 1030   2.443  41.009  12.940
32657W        W 1031   6.829  43.918   2.225
32658W        W 1032  34.550  30.097   3.160
32659W        W 1033  12.709  41.909   0.349
32660W        W 1034  36.553  38.908  10.932
32661W        W 1035   4.242   6.889  11.550
32662W        W 1036  23.174  38.034   2.254
32663W        W 1037   1.947  21.517  10.573
32664W        W 1038  44.839   0.414  14.966
32665W        W 1039  18.213  21.130  13.447
32666W        W 1040  11.190  12.157   3.349
32667W        W 1041  15.799  10.743   5.713
32668W        W 1042  23.705  25.694   1.860
32669W        W 1043  14.183  14.738   3.277
32670W        W 1044  30.134  13.720  13.323
32671W        W 1045  42.851   9.278  13.847
32672W        W 1046   7.845  29.655   1.344
32673W        W 1047   0.257  27.637   4.322
32674W        W 1048  21.075  24.089   3.247
32675W        W 1049  27.955  42.841   5.682
32676W        W 1050  44.481  37.853   4.629
32677W        W 1051  32.516  23.126   4.340
32678W        W 1052   5.325   4.436   1.868
32679W        W 1053  33.903  22.677  10.414
32680W        W 1054  18.050  19.154  14.308
32681W        W 1055  20.712  30.522  11.013
32682W        W 1056   9.754  25.488  14.301
32683W        W 1057  40.030  34.095  14.387
32684W        W 1058  30.566   5.262  11.373
32685W        W 1059  28.061  42.314   3.301
32686W        W 1060   3.223  42.430  10.943
32687W        W 1061  39.062  40.381  11.855
32688W        W 1062  25.505  23.217  13.827
32689W        W 1063   3.292  10.341   2.778
32690W        W 1064  40.857   4.359   4.699
32691W        W 1065  21.609  24.086  12.044
32692W        W 1066  13.271   2.315  14.850
32693W        W 1067  29.062  35.884   4.241
32694W        W 1068  19.715  42.399   3.788
32695W        W 1069  42.402  26.665   0.401
32696W        W 1070   8.325  21.028  11.107
32697W        W 1071   4.339   3.875  11.081
32698W        W 1072   3.819   2.298  12.406
32699W        W 1073   3.400  30.542   1.407
32700W        W 1074  18.698  33.906   0.399
32701W        W 1075  33.423  17.180  11.440
32702W        W 1076  33.056  19.100   3.356
32703W        W 1077   2.287  22.693   4.240
32704W        W 1078  31.972   2.310  10.606
32705W        W 1079  40.547  15.710  14.896
32706W        W 1080  15.722  44.774   1.267
32707W        W 1081  29.479   2.361  11.395
32708W        W 1082  44.299   1.881  10.544
32709W        W 1083  28.640  20.161  14.867
32710W        W 1084  30.143   7.255  10.970
32711W        W 1085  20.204  16.695   2.262
32712W        W 1086  28.676  33.112  14.309
32713W        W 1087  42.321   7.824   1.845
32714W        W 1088  41.466  31.925  11.541
32715W        W 1089  38.055   1.911  10.473
32716W        W 1090  11.157  17.297  13.493
32717W        W 1091  25.107  19.077   2.358
32718W        W 1092  26.200  44.972  12.377
32719W        W 1093  27.192   3.393  14.415
32720W        W 1094   1.738  20.745  14.833
32721W        W 1095  39.909   6.769  10.541
32722W        W 1096  19.571  27.526   1.249
32723W        W 1097   3.246  33.600   3.380
32724W        W 1098  22.691   2.226   0.933
32725W        W 1099  25.649  18.673  10.980
32726W        W 1100  26.524  34.560  13.913
32727W        W 1101  37.444   6.777   5.143
32728W        W 1102  44.349  31.588   4.827
32729W        W 1103  28.467  12.813  13.483
32730W        W 1104  27.054   9.764  12.346
32731W        W 1105  43.400  31.032   2.815
32732W        W 1106  21.715  12.186   4.597
32733W        W 1107   3.238  11.704   0.293
32734W        W 1108   6.921   0.921  10.468
32735W        W 1109  41.826   8.733  11.856
32736W        W 1110   9.684  32.925   4.248
32737W        W 1111  34.516  37.943   4.196
32738W        W 1112  18.647  39.529   4.239
32739W        W 1113  37.541  11.232   3.297
32740W        W 1114  31.566   5.327  10.502
32741W        W 1115   8.723   6.215  11.450
32742W        W 1116  22.556  19.640  12.465
32743W        W 1117   4.363  43.911   0.726
32744W        W 1118  12.217  24.622  13.853
32745W        W 1119  14.243  15.324  14.972
32746W        W 1120  10.222  20.686   4.133
32747W        W 1121  11.349  35.567  14.477
32748W        W 1122   7.895  19.169   9.937
32749W        W 1123   0.252  27.594   1.303
32750W        W 1124  15.146  25.133  12.866
32751W        W 1125  12.745  43.286   2.674
32752W        W 1126  28.509  27.063  11.985
32753W        W 1127   2.852   7.385   0.291
32754W        W 1128  23.564  17.138   4.638
32755W        W 1129   8.729  13.128   0.380
32756W        W 1130   8.735  19.621   3.285
32757W        W 1131   3.421  41.328  11.106
32758W        W 1132   9.681  38.835  13.009
32759W        W 1133  24.980   6.729   4.683
32760W        W 1134   9.734  10.318   3.644
32761W        W 1135  37.568  19.180  14.285
32762W        W 1136  25.706  32.001  11.892
32763W        W 1137  18.104  14.642  14.992
32764W        W 1138  24.099  20.733   1.323
32765W        W 1139  13.258  31.086  11.410
32766W        W 1140  18.070  41.034  13.826
32767W        W 1141   3.839  17.204  13.362
32768W        W 1142  42.979  39.458   4.319
32769W        W 1143   1.933  20.684  14.412
32770W        W 1144  14.113  21.077   1.214
32771W        W 1145  16.709  41.332  12.901
32772W        W 1146  27.508  14.141  11.918
32773W        W 1147  15.175  35.104  10.610
32774W        W 1148   4.755   5.439  13.422
32775W        W 1149  23.104   1.315   2.866
32776W        W 1150  21.666  27.104  14.892
32777W        W 1151  40.366  25.104  12.049
32778W        W 1152  36.077  25.497  11.024
32779W        W 1153  27.601   9.649  11.554
32780W        W 1154  28.552   6.741  14.907
32781W        W 1155  19.774  10.265   0.876
32782W        W 1156  44.420   3.424  12.843
32783W        W 1157  22.710  26.555   1.819
32784W        W 1158  14.647  30.038   0.728
32785W        W 1159  30.117   4.727   1.877
32786W        W 1160  21.245  23.030  12.030
32787W        W 1161  38.930   9.791   1.416
32788W        W 1162  29.549  43.367   1.892
32789W        W 1163  22.046  18.229   3.199
32790W        W 1164  33.097  26.661  10.924
32791W        W 1165  10.637   6.292   0.873
32792W        W 1166   5.738  19.704  12.953
32793W        W 1167  38.883  20.656  10.938
32794W        W 1168  24.497   5.374  14.431
32795W        W 1169  38.528  41.808   4.765
32796W        W 1170  19.229  36.094  14.839
32797W        W 1171  23.645   3.844  12.068
32798W        W 1172  11.362  34.941   0.781
32799W        W 1173   7.909  25.505   2.779
32800W        W 1174  36.469  24.188   0.379
32801W        W 1175   9.196  16.127  10.988
32802W        W 1176  10.877  44.395  10.122
32803W        W 1177   9.241  21.238   9.977
32804W        W 1178  21.169  35.025   0.361
32805W        W 1179  29.079   9.854  11.017
32806W        W 1180  33.472  30.604   0.844
32807W        W 1181  24.703   8.823  14.029
32808W        W 1182  26.661  26.977   1.851
32809W        W 1183   0.818  19.747   4.603
32810W        W 1184   9.808   4.397  14.945
32811W        W 1185  12.142  16.120  11.932
32812W        W 1186  16.097  16.307   3.838
32813W        W 1187  42.305   4.437   1.774
32814W        W 1188  12.283   8.730  10.570
32815W        W 1189  22.563  28.549   1.855
32816W        W 1190   9.248  24.516   1.279
32817W        W 1191   3.428   9.762  11.409
32818W        W 1192  44.832  33.065  14.023
32819W        W 1193  43.966  27.163  13.978
32820W        W 1194  29.987  20.553  12.824
32821W        W 1195   0.303  22.244  12.350
32822W        W 1196  14.802  15.213  14.850
32823W        W 1197  37.452   8.864  10.955
32824W        W 1198  21.548   1.841   0.770
32825W        W 1199   8.667  13.316   2.867
32826W        W 1200  17.727  28.547   0.346
32827W        W 1201  12.747  29.607  11.481
32828W        W 1202  30.113  17.718  13.963
32829W        W 1203  15.740  31.134  11.965
32830W        W 1204  28.137  13.170   2.772
32831W        W 1205   9.749  13.831  10.996
32832W        W 1206  36.357  10.244   2.307
32833W        W 1207  39.431  24.220   4.131
32834W        W 1208   7.859  29.518  12.952
32835W        W 1209  20.618   9.717   4.293
32836W        W 1210  15.747  10.223  11.544
32837W        W 1211  43.997  44.814  13.052
32838W        W 1212   3.237  35.581   1.305
32839W        W 1213   8.239  20.653   2.678
32840W        W 1214  22.700  40.840   0.440
32841W        W 1215  14.625   1.773  11.866
32842W        W 1216  37.083  39.471   3.157
32843W        W 1217  22.704  43.988   1.841
32844W        W 1218  42.881  40.801  12.000
32845W        W 1219  11.192  41.886  10.939
32846W        W 1220   7.281   0.745  11.108
32847W        W 1221  36.973  34.582  10.913
32848W        W 1222  20.668   8.166   0.773
32849W        W 1223  30.656  17.763  14.472
32850W        W 1224  22.244   1.854  12.884
32851W        W 1225  33.482  30.928   1.446
32852W        W 1226  42.976  34.050   0.743
32853W        W 1227  30.607   2.771  10.621
32854W        W 1228  19.597  19.104   3.234
32855W        W 1229  17.136   1.791  11.072
32856W        W 1230  18.684  20.054  12.349
32857W        W 1231  34.502  41.967   1.813
32858W        W 1232  13.783   2.422  11.954
32859W        W 1233  18.788  41.822   3.755
32860W        W 1234  12.225  31.999  12.357
32861W        W 1235  24.564   9.263   0.353
32862W        W 1236  34.018  22.146  14.774
32863W        W 1237  38.939  37.473  12.482
32864W        W 1238  32.087  12.135  14.384
32865W        W 1239  15.221  43.374  11.875
32866W        W 1240   8.313  29.475  14.873
32867W        W 1241  38.914  35.405  14.376
32868W        W 1242  25.180  21.037   0.440
32869W        W 1243  21.582  11.173  11.529
32870W        W 1244  41.360  43.304  11.917
32871W        W 1245  28.572  18.100  14.863
32872W        W 1246  29.619  35.415   3.772
32873W        W 1247  43.362  12.355   0.443
32874W        W 1248  34.908  40.415   5.122
32875W        W 1249  25.546   9.180  13.995
32876W        W 1250  24.103  14.719   4.144
32877W        W 1251  41.361  26.005   3.291
32878W        W 1252   8.223  39.332  14.380
32879W        W 1253  17.155  28.456  10.611
32880W        W 1254  31.465   8.883  12.367
32881W        W 1255  28.567  44.810   1.310
32882W        W 1256   1.373  33.429   1.912
32883W        W 1257  26.613  20.129  14.912
32884W        W 1258  33.554  23.150  12.087
32885W        W 1259  16.683  39.328  12.987
32886W        W 1260  28.173  39.961  11.067
32887W        W 1261  13.765  33.086   2.193
32888W        W 1262  36.020   4.911  14.398
32889W        W 1263  15.756   7.177   0.945
32890W        W 1264  30.643   7.172   9.975
32891W        W 1265  15.289  16.142  14.881
32892W        W 1266  36.578  43.978  12.374
32893W        W 1267   8.252  44.353   3.177
32894W        W 1268  36.933  41.304   2.801
32895W        W 1269  10.290  30.600  11.894
32896W        W 1270  21.607  22.997   4.812
32897W        W 1271  32.607  38.913  14.859
32898W        W 1272  44.788  44.277  10.972
32899W        W 1273   6.827  23.721   3.849
32900W        W 1274  38.398  11.841  14.812
32901W        W 1275  19.193  25.143   4.349
32902W        W 1276  25.975  15.255   9.441
32903W        W 1277  27.537  29.932  14.287
32904W        W 1278  35.471  28.980   0.860
32905W        W 1279  34.050  33.994  10.984
32906W        W 1280  39.007   6.320  13.913
32907W        W 1281  39.006  31.982   3.385
32908W        W 1282  21.564  24.642  12.437
32909W        W 1283  14.634  34.960  11.546
32910W        W 1284  29.554  32.901  10.440
32911W        W 1285  33.101  15.208  10.524
32912W        W 1286  21.134  41.309  12.030
32913W        W 1287  35.906  28.079   3.735
32914W        W 1288   3.218  22.124  11.009
32915W        W 1289   4.883  16.290  10.442
32916W        W 1290  43.013  40.549   4.643
32917W        W 1291  23.104   7.219  13.847
32918W        W 1292  22.179   7.352   3.842
32919W        W 1293  41.448  17.211   3.269
32920W        W 1294  24.976  22.137   2.317
32921W        W 1295   0.375  10.275  13.322
32922W        W 1296  18.777  33.598  11.127
32923W        W 1297  16.120  41.364  11.875
32924W        W 1298  36.911   6.702   4.186
32925W        W 1299  38.885  23.148   3.659
32926W        W 1300   0.857  14.740  12.494
32927W        W 1301  36.056   1.334  11.481
32928W        W 1302  20.562   0.394  14.936
32929W        W 1303  42.007  36.411  11.520
32930W        W 1304  18.096   6.390  14.361
32931W        W 1305  31.109  37.833  13.394
32932W        W 1306  19.232   2.783  12.933
32933W        W 1307  17.707   8.177  11.911
32934W        W 1308   0.937   1.763  11.118
32935W        W 1309  42.851  16.227  12.531
32936W        W 1310   3.343  19.537  13.882
32937W        W 1311   5.712  23.683  13.817
32938W        W 1312  23.605  18.151  13.926
32939W        W 1313  42.793   6.867  10.421
32940W        W 1314  11.858   0.445   2.784
32941W        W 1315  14.097  35.561   3.306
32942W        W 1316  20.638  10.233   0.450
32943W        W 1317  41.982  23.139   2.275
32944W        W 1318  36.054  14.118  13.486
32945W        W 1319  26.020  26.092   0.820
32946W        W 1320   1.483  32.020  14.497
32947W        W 1321  12.156   0.364  10.951
32948W        W 1322  42.428  24.042   3.368
32949W        W 1323  43.477  28.116   3.633
32950W        W 1324  28.491  15.132   4.826
32951W        W 1325  13.818  36.008   3.350
32952W        W 1326  34.010  34.057   4.828
32953W        W 1327  18.058  40.319   4.165
32954W        W 1328   3.848  43.873  14.013
32955W        W 1329   1.807  43.377   3.773
32956W        W 1330  35.417   1.456   0.449
32957W        W 1331   2.434  18.748  14.947
32958W        W 1332  32.486  35.409  10.964
32959W        W 1333  39.358  15.604  10.570
32960W        W 1334  36.842  24.982  10.512
32961W        W 1335   0.759  38.542  13.333
32962W        W 1336   3.860  30.447  10.145
32963W        W 1337  39.941  20.590  11.525
32964W        W 1338  32.981  43.899   4.200
32965W        W 1339  42.794  17.588   3.152
32966W        W 1340  34.112  37.522  13.028
32967W        W 1341   6.796  33.468  12.382
32968W        W 1342   0.851  25.130  10.112
32969W        W 1343  41.820  32.007  14.769
32970W        W 1344  38.337  22.111   1.397
32971W        W 1345  16.206  29.098  11.076
32972W        W 1346  32.438  36.409   4.794
32973W        W 1347  34.444  37.488   0.748
32974W        W 1348   5.438  14.736  11.952
32975W        W 1349  33.876  26.620   2.201
32976W        W 1350   8.862  28.501   4.211
32977W        W 1351  23.165   5.899   2.388
32978W        W 1352   6.232  34.959  12.015
32979W        W 1353   5.904  10.296   4.132
32980W        W 1354  32.426  22.199   4.643
32981W        W 1355   8.369   9.344  14.396
32982W        W 1356   8.261  44.777   3.194
32983W        W 1357  29.433  21.164  12.063
32984W        W 1358  13.837  32.062   3.332
32985W        W 1359  43.293   2.411  10.615
32986W        W 1360  23.704   8.275   3.275
32987W        W 1361  25.123  29.077   4.774
32988W        W 1362  22.043  13.709  10.429
32989W        W 1363   5.803  17.743   2.687
32990W        W 1364  24.053   3.760  13.312
32991W        W 1365  27.070  39.964  11.906
32992W        W 1366   6.721  14.239   2.901
32993W        W 1367  22.624  30.916   3.829
32994W        W 1368  38.352  17.143   1.858
32995W        W 1369   7.380  40.357  13.037
32996W        W 1370  22.072  29.084   4.226
32997W        W 1371  15.132  19.534   0.784
32998W        W 1372   0.938  40.018   2.360
32999W        W 1373  30.964  31.469  13.365
33000W        W 1374  32.528  32.575  13.495
33001W        W 1375  25.610  37.874  10.583
33002W        W 1376  19.247  39.056   2.726
33003W        W 1377   3.309  15.812   3.640
33004W        W 1378   6.204   7.185  13.867
33005W        W 1379  35.948  39.404   0.743
33006W        W 1380  13.809  43.345  12.403
33007W        W 1381  15.702  22.112  11.479
33008W        W 1382   8.687  38.949  14.001
33009W        W 1383   9.164   6.355   0.447
33010W        W 1384   1.814  23.003  10.946
33011W        W 1385   2.744   0.747   0.303
33012W        W 1386  10.257  13.196  13.352
33013W        W 1387  40.331   9.188  13.453
33014W        W 1388   6.790  21.078   4.758
33015W        W 1389  13.788   0.293   3.209
33016W        W 1390  26.525   4.922   3.766
33017W        W 1391   3.821  40.008  13.883
33018W        W 1392   4.855  21.099  13.873
33019W        W 1393  28.523  31.945   0.915
33020W        W 1394   8.185  19.274  11.574
33021W        W 1395  15.758  25.148  12.095
33022W        W 1396  24.056  31.936   2.241
33023W        W 1397   3.772  24.580  12.835
33024W        W 1398  42.016  41.837   2.213
33025W        W 1399  40.876   8.720   3.287
33026W        W 1400   3.868  24.146  12.348
33027W        W 1401  39.937  22.140  10.926
33028W        W 1402   3.225   4.848  12.401
33029W        W 1403  37.472   6.292   2.715
33030W        W 1404   9.174  24.167   0.781
33031W        W 1405  40.900  11.165  13.520
33032W        W 1406  42.406  21.616   3.203
33033W        W 1407  22.064   1.776  11.434
33034W        W 1408   5.290  17.211  12.339
33035W        W 1409  35.558  15.146  12.936
33036W        W 1410  10.680  42.830  14.868
33037W        W 1411   5.860  39.964   1.324
33038W        W 1412  22.602   7.672   0.315
33039W        W 1413  19.598  26.056   3.345
33040W        W 1414  33.926   1.765   3.820
33041W        W 1415  34.562  11.792   3.801
33042W        W 1416  12.823   6.421   3.256
33043W        W 1417   8.854  13.654  12.950
33044W        W 1418   6.285  15.087  12.057
33045W        W 1419  14.765  10.692  10.427
33046W        W 1420   0.297   7.862   1.447
33047W        W 1421  36.987  18.262   3.161
33048W        W 1422  38.448   1.384  12.579
33049W        W 1423  36.018   8.816   2.682
33050W        W 1424  42.790  29.428  11.108
33051W        W 1425  15.734   0.394  13.968
33052W        W 1426  15.290   8.746  11.936
33053W        W 1427  19.722  42.888  10.965
33054W        W 1428  13.336  31.535  13.814
33055W        W 1429  13.308  27.476   3.312
33056W        W 1430  40.356   8.305   1.414
33057W        W 1431  42.950  24.568   0.862
33058W        W 1432   4.432   0.943   3.696
33059W        W 1433  32.539   9.680   3.646
33060W        W 1434  24.644  16.141  12.469
33061W        W 1435  34.023  17.078   1.387
33062W        W 1436   7.757  41.884   2.247
33063W        W 1437   1.475  40.817   1.795
33064W        W 1438  43.942  29.078  12.901
33065W        W 1439  23.556  38.962  11.065
33066W        W 1440  36.024  34.547   1.853
33067W        W 1441  44.272  34.962   0.825
33068W        W 1442  24.492  16.176   9.990
33069W        W 1443  19.081  14.260   3.373
33070W        W 1444   5.401   2.952  11.121
33071W        W 1445   6.191  38.391   3.249
33072W        W 1446   7.737  40.514   3.822
33073W        W 1447  31.124   6.873   4.269
33074W        W 1448  14.113   8.901   4.812
33075W        W 1449  28.457  10.142   0.843
33076W        W 1450  38.533  18.582   4.648
33077W        W 1451  34.594  26.977  13.442
33078W        W 1452   6.819  19.673   2.373
33079W        W 1453  31.013  31.409   3.319
33080W        W 1454   5.322   7.904  13.428
33081W        W 1455   8.726   9.329  10.476
33082W        W 1456  10.861  23.550  14.819
33083W        W 1457  36.967  15.724  11.013
33084W        W 1458  41.894   5.349   2.405
33085W        W 1459  23.515  32.948   4.830
33086W        W 1460  14.706  31.132  14.280
33087W        W 1461  40.347  43.423   0.265
33088W        W 1462  22.017  12.266   1.918
33089W        W 1463  34.393  15.767  14.470
33090W        W 1464  15.312  43.980  14.011
33091W        W 1465  27.065  21.634  12.904
33092W        W 1466  39.042   7.794   3.796
33093W        W 1467  29.583   3.339   4.776
33094W        W 1468  21.657  35.942  12.527
33095W        W 1469  21.672  12.181  12.496
33096W        W 1470  41.371  26.957  13.482
33097W        W 1471   1.955  32.961   2.733
33098W        W 1472  16.263  18.776   3.721
33099W        W 1473  41.410  37.352  14.920
33100W        W 1474  25.613   7.794   3.816
33101W        W 1475  29.005  31.063  14.907
33102W        W 1476  21.744  33.918   0.308
33103W        W 1477  13.277  17.799  11.112
33104W        W 1478   1.286   1.363   4.278
33105W        W 1479  33.922  26.572   3.818
33106W        W 1480  16.275  16.237   0.463
33107W        W 1481  10.301  11.757  14.925
33108W        W 1482  28.495  20.592  14.442
33109W        W 1483   0.491  31.590   0.913
33110W        W 1484   7.784  14.135  14.362
33111W        W 1485  24.009  10.637  14.454
33112W        W 1486   1.973  39.481   3.865
33113W        W 1487   2.929  13.236   0.295
33114W        W 1488  21.645  32.506   1.908
33115W        W 1489  33.948  30.022   0.900
33116W        W 1490  17.065   5.295  14.862
33117W        W 1491  20.545  42.798   0.854
33118W        W 1492   7.739  28.591  13.488
33119W        W 1493  11.218   0.250  10.476
33120W        W 1494   7.324  30.100  12.485
33121W        W 1495  32.402  26.203   1.272
33122W        W 1496  27.114   9.333  14.864
33123W        W 1497  13.774  18.584  12.834
33124W        W 1498  34.538   8.206   1.862
33125W        W 1499  41.458  34.499   1.398
33126W        W 1500  24.146   9.885   2.767
33127W        W 1501  44.948  34.516   5.314
33128W        W 1502  34.589  40.415  14.433
33129W        W 1503  30.124   2.735  10.550
33130W        W 1504  36.561   1.423  14.874
33131W        W 1505  30.132   3.217  12.560
33132W        W 1506  35.546  25.091  11.031
33133W        W 1507   5.379   3.406   2.740
33134W        W 1508  18.232  36.509  13.387
33135W        W 1509  11.693   7.374   3.290
33136W        W 1510  21.539  16.226   3.279
33137W        W 1511   7.300  12.152   3.823
33138W        W 1512   4.884  39.886   1.860
33139W        W 1513  18.580  32.083  11.965
33140W        W 1514   8.871  17.279   1.725
33141W        W 1515  34.899  39.834  13.814
33142W        W 1516  42.984  25.497   3.734
33143W        W 1517  14.594  21.248   3.751
33144W        W 1518   2.230  14.745   2.383
33145W        W 1519  30.605  42.806   4.277
33146W        W 1520  21.539  25.671   3.653
33147W        W 1521  13.199  34.981  10.905
33148W        W 1522  31.098  27.645  12.847
33149W        W 1523  25.578   7.769   0.817
33150W        W 1524  25.667  11.739  12.407
33151W        W 1525  28.930  20.066  12.398
33152W        W 1526  39.894  44.391   1.432
33153W        W 1527   9.260  18.162  11.008
33154W        W 1528  21.043  27.569  14.500
33155W        W 1529  12.707   2.293   1.876
33156W        W 1530  32.548   6.410   0.753
33157W        W 1531  40.506  14.330   2.196
33158W        W 1532  30.626  44.288  13.343
33159W        W 1533  25.163  11.839   0.943
33160W        W 1534   6.349   6.753   2.885
33161W        W 1535   0.283  24.687  14.906
33162W        W 1536  10.801  17.799   3.358
33163W        W 1537  34.992   3.254  14.438
33164W        W 1538  14.288  17.737   2.820
33165W        W 1539   1.369  17.601   3.184
33166W        W 1540   5.690  29.519   3.804
33167W        W 1541  34.000  30.974   0.924
33168W        W 1542  20.624  31.486  12.444
33169W        W 1543   7.891  44.498   2.403
33170W        W 1544   7.241  10.673  10.540
33171W        W 1545  43.771  37.983  10.537
33172W        W 1546   4.227  21.147   0.877
33173W        W 1547  33.516  31.956  13.871
33174W        W 1548   6.910   0.751   2.832
33175W        W 1549  37.435  18.626   1.701
33176W        W 1550  14.238  41.988  14.390
33177W        W 1551  26.526  21.176   2.712
33178W        W 1552  43.846  41.892  12.491
33179W        W 1553  14.237  30.125   0.913
33180W        W 1554  30.123  14.273  10.559
33181W        W 1555   0.444  10.647  10.452
33182W        W 1556  36.570  41.428  13.868
33183W        W 1557  25.488   2.947  13.384
33184W        W 1558   6.707  18.779  13.372
33185W        W 1559   5.273   5.324  12.014
33186W        W 1560  28.460  34.877   0.423
33187W        W 1561  37.039  27.056  13.842
33188W        W 1562  34.085  32.070  11.435
33189W        W 1563  37.087  42.995   3.306
33190W        W 1564   6.348  25.631   0.863
33191W        W 1565  12.194  14.249  10.644
33192W        W 1566  23.046  31.535  13.362
33193W        W 1567  10.240  26.487  14.942
33194W        W 1568   7.387  19.120   5.214
33195W        W 1569   9.320  43.361  12.538
33196W        W 1570  20.714  34.526   4.283
33197W        W 1571  36.076  18.661  14.973
33198W        W 1572  13.118  15.662   0.871
33199W        W 1573  38.832   8.794  10.935
33200W        W 1574  22.248  18.168  10.578
33201W        W 1575  20.231  23.642   3.256
33202W        W 1576  43.432   4.239   1.737
33203W        W 1577  23.721  35.408   4.294
33204W        W 1578  13.219   0.784   0.407
33205W        W 1579  40.988  11.743   0.840
33206W        W 1580  20.145  37.833   4.684
33207W        W 1581  21.666  19.638   4.139
33208W        W 1582  43.462  17.700   4.767
33209W        W 1583   0.911  38.057   3.152
33210W        W 1584  34.917  33.957   1.859
33211W        W 1585  38.520   9.172   5.726
33212W        W 1586   6.238  15.283   4.692
33213W        W 1587   0.970  37.040   3.343
33214W        W 1588  24.121  16.173   1.829
33215W        W 1589  28.567   6.308  11.905
33216W        W 1590  43.807  34.090  14.461
33217W        W 1591  15.640  33.908   1.748
33218W        W 1592  32.986  18.761   2.896
33219W        W 1593   9.253  35.997   0.346
33220W        W 1594   6.377  40.995   0.423
33221W        W 1595  37.415  36.585  11.426
33222W        W 1596  20.704  18.090  11.890
33223W        W 1597  24.705  15.640  13.371
33224W        W 1598  26.673   8.718   1.907
33225W        W 1599  43.296  44.492   0.276
33226W        W 1600  20.652  42.500   3.281
33227W        W 1601  17.229  35.104   5.299
33228W        W 1602  23.074   3.888   4.293
33229W        W 1603  19.773  28.041  13.798
33230W        W 1604   8.350   9.244  12.051
33231W        W 1605  32.078  31.522   4.160
33232W        W 1606   3.326  39.870   1.702
33233W        W 1607  12.780  24.130  10.592
33234W        W 1608   2.439  32.081   0.907
33235W        W 1609  24.224  16.758   1.921
33236W        W 1610  37.456   3.740  10.546
33237W        W 1611   9.154   7.675   4.344
33238W        W 1612  36.070  24.641  12.843
33239W        W 1613  43.374  26.625  14.020
33240W        W 1614  24.718  30.907   1.354
33241W        W 1615  44.783  14.817  12.012
33242W        W 1616  22.040  16.136   4.332
33243W        W 1617  10.798  33.993   4.114
33244W        W 1618   5.413   3.277   4.764
33245W        W 1619  36.536  13.196   5.252
33246W        W 1620  42.990  32.533  13.449
33247W        W 1621  31.969  20.033   0.331
33248W        W 1622  10.722   3.724  10.524
33249W        W 1623  22.227  19.583   4.205
33250W        W 1624  27.584  43.461  13.380
33251W        W 1625  20.529  28.142  10.589
33252W        W 1626  44.778  38.491  12.901
33253W        W 1627   8.784  41.505  11.604
33254W        W 1628   4.392   8.704  10.539
33255W        W 1629  22.182  36.457   2.899
33256W        W 1630  34.594  22.515  14.992
33257W        W 1631   1.846  40.800  14.304
33258W        W 1632   2.459  34.073  11.025
33259W        W 1633  11.630  16.802  11.524
33260W        W 1634  22.078  15.273   2.329
33261W        W 1635  44.483  40.358  11.560
33262W        W 1636  35.099  35.383  12.971
33263W        W 1637   3.858  44.912  14.486
33264W        W 1638  24.074  36.947   4.308
33265W        W 1639   0.309  42.525   1.299
33266W        W 1640  30.966  28.494  12.460
33267W        W 1641  34.047  31.509  13.537
33268W        W 1642   2.236   6.301   2.211
33269W        W 1643  33.547  23.497   5.259
33270W        W 1644  28.969   0.258   9.546
33271W        W 1645   2.859  16.302   2.356
33272W        W 1646  19.164  36.413  11.048
33273W        W 1647  10.766  37.021   4.611
33274W        W 1648  40.878  28.945   0.805
33275W        W 1649  39.398  14.657  10.547
33276W        W 1650   4.715  44.982  14.830
33277W        W 1651  38.506  22.701   0.393
33278W        W 1652  23.087  13.730  12.378
33279W        W 1653  42.414  12.855   0.462
33280W        W 1654  38.878  43.325  14.025
33281W        W 1655   3.316  10.374  10.613
33282W        W 1656  11.818  33.040   0.789
33283W        W 1657  38.913  38.926  13.970
33284W        W 1658   4.821  18.268   0.737
33285W        W 1659   2.877   2.338   2.207
33286W        W 1660   2.239  30.910   3.162
33287W        W 1661  10.140   8.828  11.598
33288W        W 1662  14.625  41.022  13.476
33289W        W 1663  27.616   7.197   2.318
33290W        W 1664   6.241   6.379   4.148
33291W        W 1665  10.717  41.437  12.471
33292W        W 1666  39.891  42.464  12.965
33293W        W 1667  20.256  11.725   3.234
33294W        W 1668  17.582   1.255   0.892
33295W        W 1669  18.216  19.070  14.010
33296W        W 1670  11.153  21.035  13.506
33297W        W 1671  32.006  25.085  12.872
33298W        W 1672  38.044  43.420   2.765
33299W        W 1673  44.366  18.700   2.889
33300W        W 1674  17.725  13.736   3.325
33301W        W 1675   0.913  34.879  11.513
33302W        W 1676   8.178  10.706  10.908
33303W        W 1677  37.976   6.767   5.659
33304W        W 1678  15.634  25.699  14.965
33305W        W 1679  30.948  26.627   3.840
33306W        W 1680  12.263  42.957  11.489
33307W        W 1681   3.810  27.118  14.445
33308W        W 1682  27.987  29.078   1.792
33309W        W 1683  34.496   9.675  12.410
33310W        W 1684  20.536  40.992  11.462
33311W        W 1685  39.871  35.878   1.334
33312W        W 1686  29.035  19.126  10.969
33313W        W 1687  11.671   3.397  12.391
33314W        W 1688  11.219  42.987  13.499
33315W        W 1689   0.443  36.905   1.697
33316W        W 1690  23.091  30.062   4.687
33317W        W 1691   4.384   2.960  13.446
33318W        W 1692   6.401  26.485  11.558
33319W        W 1693  18.623   0.912   5.248
33320W        W 1694   4.410  14.276  13.969
33321W        W 1695  36.869  22.109   0.382
33322W        W 1696  38.828  35.429   4.810
33323W        W 1697  18.128  33.949   1.709
33324W        W 1698  34.877  15.806   1.820
33325W        W 1699  13.319   4.256  10.440
33326W        W 1700  41.005  30.485  12.357
33327W        W 1701  36.358  43.480  14.974
33328W        W 1702   9.297  13.124   4.790
33329W        W 1703  28.174  37.079   3.198
33330W        W 1704  26.521  37.863  10.549
33331W        W 1705  11.372  40.403   3.296
33332W        W 1706  31.059   1.279  13.458
33333W        W 1707  32.630   1.939   2.833
33334W        W 1708  20.198  29.631   3.863
33335W        W 1709  39.412   4.825  10.995
33336W        W 1710  21.698   2.450   1.717
33337W        W 1711  31.622  15.256  14.980
33338W        W 1712  41.958  39.392   2.724
33339W        W 1713   9.270  30.494  11.929
33340W        W 1714  13.216  19.173  10.636
33341W        W 1715  14.258   8.745   0.300
33342W        W 1716  38.062   3.759  11.004
33343W        W 1717  41.902  25.611   0.334
33344W        W 1718  29.121  34.104   2.746
33345W        W 1719  44.901  24.991   4.696
33346W        W 1720  12.122  26.114  14.015
33347W        W 1721  28.647  23.682  13.861
33348W        W 1722  34.474  30.033   2.281
33349W        W 1723   3.822  41.942   4.722
33350W        W 1724  22.180  31.456   9.999
33351W        W 1725   1.431  12.817  14.835
33352W        W 1726  39.828  25.587  10.927
33353W        W 1727  35.880  44.297  13.863
33354W        W 1728   7.704  14.831  12.415
33355W        W 1729   2.293   6.402   4.228
33356W        W 1730  13.646  19.598   2.381
33357W        W 1731  19.771  10.727  14.926
33358W        W 1732  35.905  43.789  13.314
33359W        W 1733  15.102  15.183  12.882
33360W        W 1734  35.106   6.726   3.339
33361W        W 1735  42.286   6.422   4.255
33362W        W 1736  14.315  40.325  12.560
33363W        W 1737  42.960   8.751  11.442
33364W        W 1738   9.228  22.110  11.512
33365W        W 1739  18.743  26.682   4.814
33366W        W 1740   5.324   6.710   2.328
33367W        W 1741  42.999  10.198   4.772
33368W        W 1742  36.926  17.717   3.356
33369W        W 1743  19.775  19.138  10.638
33370W        W 1744   7.735  33.030  13.045
33371W        W 1745  30.133   9.811  12.425
33372W        W 1746  20.529  35.968   4.612
33373W        W 1747  43.877  18.735  12.088
33374W        W 1748   4.223   4.362  10.495
33375W        W 1749   1.258   5.833  13.367
33376W        W 1750   6.830  39.444  12.929
33377W        W 1751  40.009  31.957   1.796
33378W        W 1752  13.177  39.872  10.606
33379W        W 1753  23.151  33.556  10.616
33380W        W 1754  38.050   0.401   3.853
33381W        W 1755  38.342   2.836  12.555
33382W        W 1756  19.066  42.288  14.823
33383W        W 1757  22.126  19.615  12.850
33384W        W 1758  16.080  30.146   4.702
33385W        W 1759  30.604  32.430   1.444
33386W        W 1760  22.147  11.756  14.313
33387W        W 1761  42.284  36.425   2.374
33388W        W 1762  27.122  24.594   2.394
33389W        W 1763  25.485  35.532  12.497
33390W        W 1764  44.966  22.094  13.321
33391W        W 1765  17.558   9.698   3.269
33392W        W 1766  15.327  40.303   4.247
33393W        W 1767  12.224   1.433  13.392
33394W        W 1768   4.846  38.826   2.336
33395W        W 1769  26.482  19.058  14.833
33396W        W 1770   1.865  28.667  11.605
33397W        W 1771  13.698  21.511   3.695
33398W        W 1772  44.403  34.489  14.831
33399W        W 1773  18.594  15.692   3.694
33400W        W 1774  27.576  40.807   2.258
33401W        W 1775  38.964   9.821   2.190
33402W        W 1776  26.610  34.048   1.872
33403W        W 1777   7.397  29.498  12.830
33404W        W 1778  36.584  16.156  14.436
33405W        W 1779  37.000   2.963   0.358
33406W        W 1780  25.132  30.108  13.381
33407W        W 1781  42.017   7.791   0.347
33408W        W 1782  33.431  40.896  11.425
33409W        W 1783   7.297  12.682   2.694
33410W        W 1784   4.253  12.855  13.838
33411W        W 1785  20.647  22.113   3.650
33412W        W 1786  10.724  12.354  10.447
33413W        W 1787  20.232  29.611   2.781
33414W        W 1788  41.450  35.476  14.436
33415W        W 1789  26.571  11.237   1.426
33416W        W 1790   5.894  23.519   1.351
33417W        W 1791   4.370  13.600   2.231
33418W        W 1792  16.659  13.679  11.605
33419W        W 1793  20.211  28.529   3.656
33420W        W 1794  40.534   5.739   4.833
33421W        W 1795  23.128  23.690   2.897
33422W        W 1796   2.833  44.979   3.686
33423W        W 1797  43.478   2.397  11.103
33424W        W 1798  44.938  20.064  14.971
33425W        W 1799  38.433   2.443   0.319
33426W        W 1800  44.931  38.048   4.711
33427W        W 1801  32.984  15.633   3.809
33428W        W 1802  33.544  40.810  12.893
33429W        W 1803  32.581   4.932   1.424
33430W        W 1804  31.591  19.055   4.337
33431W        W 1805   2.287  21.753  13.346
33432W        W 1806  38.855  14.327   2.409
33433W        W 1807  20.124  26.695   9.988
33434W        W 1808  34.539  42.033   0.737
33435W        W 1809  31.487  36.496  11.400
33436W        W 1810  31.026  23.038   3.262
33437W        W 1811  29.118  23.555  10.502
33438W        W 1812  20.745  13.241   1.343
33439W        W 1813  40.439  21.080  14.428
33440W        W 1814   5.819  36.901   4.134
33441W        W 1815  26.478  23.589   3.163
33442W        W 1816  38.554  31.490   1.840
33443W        W 1817  27.486  23.223   2.886
33444W        W 1818  39.817  43.515   1.747
33445W        W 1819  41.305  38.038  11.072
33446W        W 1820  26.079   4.906   4.163
33447W        W 1821  37.447   8.219   0.314
33448W        W 1822   2.265  13.124   3.246
33449W        W 1823  24.604  32.916   0.933
33450W        W 1824  44.989  43.366   0.810
33451W        W 1825  12.818  28.159   1.296
33452W        W 1826  20.758  30.934  10.429
33453W        W 1827  37.385  39.994   0.769
33454W        W 1828  30.934  19.712   3.270
33455W        W 1829  19.586  21.641   2.356
33456W        W 1830   9.214  16.116   3.807
33457W        W 1831  12.216  34.468  14.893
33458W        W 1832   8.841  26.051   0.930
33459W        W 1833   8.166   2.845  10.499
33460W        W 1834  24.536  20.032  12.827
33461W        W 1835  21.190   5.779   3.215
33462W        W 1836   3.947   7.375   2.241
33463W        W 1837  12.827   0.933   0.779
33464W        W 1838  41.853  19.724  12.374
33465W        W 1839  33.468  29.460  12.514
33466W        W 1840  14.602  11.837  14.875
33467W        W 1841   1.309  32.488  12.964
33468W        W 1842  25.128   6.424  10.465
33469W        W 1843   4.857  36.908  10.555
33470W        W 1844  25.541  17.755   2.333
33471W        W 1845  26.653  34.962   5.245
33472W        W 1846  12.217  21.238  10.621
33473W        W 1847   9.652  17.790  10.160
33474W        W 1848  38.013  26.506   0.952
33475W        W 1849  26.697  38.416  11.435
33476W        W 1850   9.318  31.584   1.290
33477W        W 1851   2.299   0.781   2.866
33478W        W 1852   3.787  33.528   0.855
33479W        W 1853   9.864   3.837  13.011
33480W        W 1854   0.806  41.397  14.493
33481W        W 1855  26.675   7.346   2.809
33482W        W 1856  33.930   0.743  12.493
33483W        W 1857  13.721  20.760  11.490
33484W        W 1858  26.106   7.171  10.627
33485W        W 1859  37.013   7.720   4.753
33486W        W 1860   6.198   3.359  12.029
33487W        W 1861   3.866   7.904  13.861
33488W        W 1862  23.547  25.974   2.284
33489W        W 1863  19.717   9.253  11.482
33490W        W 1864  11.250  22.111  11.016
33491W        W 1865   6.784  22.033   4.672
33492W        W 1866  43.886  10.717   4.833
33493W        W 1867  14.245  42.462   4.270
33494W        W 1868   9.814   3.757  13.479
33495W        W 1869  15.749  24.642   2.772
33496W        W 1870  37.357  20.264   5.137
33497W        W 1871  16.285  16.699  11.554
33498W        W 1872   9.315  14.244  14.896
33499W        W 1873  24.178   6.196   3.712
33500W        W 1874  41.523  31.442  10.903
33501W        W 1875  40.322   7.675  11.001
33502W        W 1876  32.021  44.352  13.525
33503W        W 1877  15.817  10.284  13.313
33504W        W 1878  39.975  12.158   3.816
33505W        W 1879  11.207  11.218   1.332
33506W        W 1880  33.970  40.934   4.607
33507W        W 1881  35.029  25.536   1.251
33508W        W 1882  20.034   9.164  14.299
33509W        W 1883   0.895   8.160  13.044
33510W        W 1884  33.498  38.448   3.792
33511W        W 1885  10.777  11.158  11.909
33512W        W 1886  39.016   2.422   1.825
33513W        W 1887  10.869  32.909  13.482
33514W        W 1888  17.616  13.670  14.300
33515W        W 1889  13.209   1.913  10.509
33516W        W 1890   3.771  35.019   1.801
33517W        W 1891   4.371  32.637   1.432
33518W        W 1892   3.257  43.282   1.762
33519W        W 1893  27.077  35.032   0.939
33520W        W 1894  22.103  17.291   0.863
33521W        W 1895   5.423  30.145   1.726
33522W        W 1896  15.105  29.944   0.370
33523W        W 1897  24.634  17.073  14.884
33524W        W 1898  26.164   6.374  14.945
33525W        W 1899  17.761   5.776  12.963
33526W        W 1900   9.302  21.202  11.914
33527W        W 1901  21.024  44.866   4.328
33528W        W 1902   0.331   3.268  14.939
33529W        W 1903  28.108  24.564   4.310
33530W        W 1904   8.251  25.637   3.233
33531W        W 1905  40.327  11.741   5.256
33532W        W 1906   7.764  18.099  11.404
33533W        W 1907  18.788   0.962   1.915
33534W        W 1908   0.276  18.232  12.344
33535W        W 1909  10.165  27.139  11.495
33536W        W 1910  33.438  17.145  11.119
33537W        W 1911  24.169  34.443   3.800
33538W        W 1912  10.205  13.696   4.337
33539W        W 1913  35.989  24.043  12.853
33540W        W 1914  14.174  13.631  10.535
33541W        W 1915  27.563  43.019   1.384
33542W        W 1916  19.603  38.366  11.463
33543W        W 1917  28.135   4.791  14.431
33544W        W 1918  37.550  41.352   1.293
33545W        W 1919  42.472  43.298  10.936
33546W        W 1920  17.121  15.100  11.603
33547W        W 1921   9.654  10.866   3.702
33548W        W 1922  32.439  11.809   2.749
33549W        W 1923  10.207  37.422   0.290
33550W        W 1924   0.842  21.618   2.307
33551W        W 1925  25.478  20.631  13.945
33552W        W 1926  43.963  44.838  11.604
33553W        W 1927  20.210  43.344   0.278
33554W        W 1928   5.224   0.376  10.453
33555W        W 1929  42.779  33.441  12.371
33556W        W 1930  33.482  42.301  11.064
33557W        W 1931  14.277  28.435   2.898
33558W        W 1932  24.537  21.116   0.915
33559W        W 1933  17.235  39.484  13.370
33560W        W 1934  44.268   5.355  11.071
33561W        W 1935  13.670   2.267  12.469
33562W        W 1936  39.056  38.343   4.342
33563W        W 1937  39.350  16.092   4.176
33564W        W 1938  36.949  17.206   0.361
33565W        W 1939  35.007  35.604  11.509
33566W        W 1940  29.938   5.264  14.853
33567W        W 1941  39.812  38.056   2.882
33568W        W 1942  33.924  31.518  13.055
33569W        W 1943  18.270  36.991  11.380
33570W        W 1944  21.074  37.386   5.299
33571W        W 1945   6.846  35.586  14.346
33572W        W 1946  41.973  40.503  13.495
33573W        W 1947  16.766  25.042   1.914
33574W        W 1948   9.710  28.139  12.544
33575W        W 1949  44.836   0.474   1.718
33576W        W 1950  17.704  33.455   1.848
33577W        W 1951   1.425  31.599   0.783
33578W        W 1952  17.219  28.165   0.806
33579W        W 1953  22.743  31.077  12.540
33580W        W 1954  20.667  44.928   0.396
33581W        W 1955  13.323  15.162   1.707
33582W        W 1956  19.580  25.655  13.416
33583W        W 1957  25.652   1.300  11.434
33584W        W 1958  36.004   7.706   2.419
33585W        W 1959  12.730  12.846   3.213
33586W        W 1960  30.498  27.018  13.337
33587W        W 1961   1.954  30.532   3.763
33588W        W 1962  18.626  28.454   3.848
33589W        W 1963  13.780  29.095  10.493
33590W        W 1964   6.922   9.655   2.854
33591W        W 1965  26.507  19.737   0.965
33592W        W 1966  37.528  19.684   4.303
33593W        W 1967  27.024  11.711  14.295
33594W        W 1968   6.752   0.265  12.057
33595W        W 1969  29.562   8.329  10.943
33596W        W 1970  18.256   4.352  11.612
33597W        W 1971  38.394  40.797   2.190
33598W        W 1972   8.294  33.026  14.478
33599W        W 1973  39.427   9.788  10.420
33600W        W 1974  21.606  37.974  14.300
33601W        W 1975  15.289  22.062  12.000
33602W        W 1976   2.932  10.742  11.585
33603W        W 1977   5.769   1.347  10.543
33604W        W 1978  40.498  29.127  10.899
33605W        W 1979  26.996  10.781   3.636
33606W        W 1980  30.425  32.031  14.948
33607W        W 1981   4.721   0.955   2.300
33608W        W 1982  13.644  36.456   1.371
33609W        W 1983   3.868   5.218   0.261
33610W        W 1984  24.087  21.616   2.223
33611W        W 1985  22.016   8.665  10.570
33612W        W 1986  10.151  40.379  14.305
33613W        W 1987  15.642   1.248   4.284
33614W        W 1988  29.440  39.333   3.734
33615W        W 1989  12.198  30.507  13.987
33616W        W 1990  40.454   8.309   4.812
33617W        W 1991  43.885  33.900  10.417
33618W        W 1992  39.481  18.611  13.841
33619W        W 1993  19.275  21.172   4.741
33620W        W 1994  11.840  18.728  11.528
33621W        W 1995   3.900  23.528   2.888
33622W        W 1996  13.350  10.168   4.831
33623W        W 1997  10.327   0.301  10.516
33624W        W 1998  40.900  10.656   4.759
33625W        W 1999  21.623  36.593   0.763
33626W        W 2000  13.833  12.134   4.287
33627W        W 2001  18.571  24.703   4.204
33628W        W 2002  10.359  10.687   9.966
33629W        W 2003  12.343  37.385  14.810
33630W        W 2004  30.452  28.064  11.930
33631W        W 2005  36.352  35.368  14.402
33632W        W 2006  20.181  25.030  10.074
33633W        W 2007  33.402   7.788  12.390
33634W        W 2008  20.575  34.440   0.949
33635W        W 2009   6.274   5.921  11.610
33636W        W 2010   0.976  26.957   3.353
33637W        W 2011  31.983  23.612   4.128
33638W        W 2012  13.733  44.884  12.972
33639W        W 2013   7.724   6.200   1.904
33640W        W 2014  10.652   0.300   4.680
33641W        W 2015  36.926   8.213  12.413
33642W        W 2016   8.289  12.125   1.893
33643W        W 2017  23.677  10.719  10.490
33644W        W 2018  41.399   3.917   1.834
33645W        W 2019  39.380  19.744   1.847
33646W        W 2020  16.613  44.864   1.315
33647W        W 2021   0.790  21.677   4.800
33648W        W 2022  32.433  40.410  11.504
33649W        W 2023  33.574  30.441   1.780
33650W        W 2024  28.546   1.299   4.758
33651W        W 2025  39.847  16.232   3.749
33652W        W 2026  24.188   2.466   1.782
33653W        W 2027  20.078   7.733  11.956
33654W        W 2028  29.508  22.516   1.415
33655W        W 2029   5.769  40.814   2.694
33656W        W 2030  13.648  37.846  13.825
33657W        W 2031  43.315  44.886  14.881
33658W        W 2032  37.988  33.119   3.362
33659W        W 2033   9.849  35.911   3.291
33660W        W 2034  15.276   6.836   0.810
33661W        W 2035   9.306  20.170   4.328
33662W        W 2036   5.846   8.347  13.451
33663W        W 2037   0.422   2.844   3.257
33664W        W 2038  14.211  22.714  12.981
33665W        W 2039   8.365  19.703   3.823
33666W        W 2040  34.086  44.414   2.741
33667W        W 2041   9.727  11.829  12.489
33668W        W 2042  25.093  15.718  12.365
33669W        W 2043  22.037  28.580  12.914
33670W        W 2044  16.166  20.106  10.515
33671W        W 2045  23.153  25.017  11.504
33672W        W 2046  23.017  35.915   3.763
33673W        W 2047  21.523  10.207   2.351
33674W        W 2048  35.029  12.800   3.157
33675W        W 2049  18.069  12.680   3.152
33676W        W 2050  15.624  44.859  11.000
33677W        W 2051   7.885  40.951  10.616
33678W        W 2052   4.814  32.570   2.852
33679W        W 2053  10.197  22.006   1.248
33680W        W 2054  27.054  43.439   9.966
33681W        W 2055  11.287   2.293  11.378
33682W        W 2056  28.054   5.359   3.861
33683W        W 2057  27.141   4.897   9.967
33684W        W 2058   5.230  11.845  14.319
33685W        W 2059  11.315  43.932   3.339
33686W        W 2060  28.933  22.054  10.458
33687W        W 2061  24.990  26.585   4.219
33688W        W 2062  18.640  25.202   3.164
33689W        W 2063  15.250  20.676  11.027
33690W        W 2064  41.924  40.812  14.000
33691W        W 2065  33.056  39.838  14.946
33692W        W 2066  27.065  30.489   2.208
33693W        W 2067  33.402  42.466  10.477
33694W        W 2068  29.003  42.935  14.387
33695W        W 2069  33.446   3.292   0.901
33696W        W 2070  11.688  23.093   1.703
33697W        W 2071  41.965  43.423   4.285
33698W        W 2072  15.696  35.964   2.773
33699W        W 2073   1.735  21.216  13.805
33700W        W 2074  30.970  10.825  12.421
33701W        W 2075  10.763  37.397   2.737
33702W        W 2076   7.806  12.277  10.512
33703W        W 2077  21.118  25.018   2.875
33704W        W 2078   5.933   7.403   0.744
33705W        W 2079  38.019  35.051   1.445
33706W        W 2080  29.007  25.160   4.784
33707W        W 2081  25.504   1.759   3.267
33708W        W 2082  20.553  15.260  12.085
33709W        W 2083  40.306  28.163   3.757
33710W        W 2084  35.938   3.376  11.613
33711W        W 2085  20.253  41.460   1.851
33712W        W 2086  35.980  42.316   2.250
33713W        W 2087  30.606   2.362   3.178
33714W        W 2088  15.637  22.544   3.354
33715W        W 2089  35.449  36.036   0.753
33716W        W 2090  22.529  25.648  14.950
33717W        W 2091  31.986  44.943  12.420
33718W        W 2092   6.890   6.188   1.272
33719W        W 2093  17.073   8.177  14.361
33720W        W 2094  30.656   5.761  11.068
33721W        W 2095  42.029  18.620   5.316
33722W        W 2096   8.815  22.149  11.948
33723W        W 2097  25.998  15.675  13.324
33724W        W 2098  21.065  22.629  11.907
33725W        W 2099  27.473  21.086  13.956
33726W        W 2100  23.999  19.567   5.297
33727W        W 2101   6.782  40.341  12.563
33728W        W 2102  12.299  37.562   5.301
33729W        W 2103  38.887  33.071  13.806
33730W        W 2104   1.793  10.375   2.774
33731W        W 2105  41.325   6.745   3.146
33732W        W 2106  38.329   8.891   0.822
33733W        W 2107  41.946  31.503  10.550
33734W        W 2108  35.581   2.352   2.682
33735W        W 2109  20.544  19.253   2.200
33736W        W 2110  22.997  40.521  11.588
33737W        W 2111  27.499  12.145  10.634
33738W        W 2112  38.369  25.678   3.759
33739W        W 2113   1.841  13.157  10.587
33740W        W 2114  23.087   9.841  14.931
33741W        W 2115   4.902  27.665   3.744
33742W        W 2116  12.284  17.765  12.398
33743W        W 2117   4.206   9.371  10.442
33744W        W 2118  25.539  42.322  11.067
33745W        W 2119  41.454  28.114  12.971
33746W        W 2120  13.658   2.834  12.427
33747W        W 2121  33.093  20.108  10.539
33748W        W 2122  22.640  42.781  11.113
33749W        W 2123  36.512  40.415  13.954
33750W        W 2124   0.293  36.382  14.844
33751W        W 2125  24.053  32.969   4.190
33752W        W 2126   0.314  41.468  14.816
33753W        W 2127   7.840  11.214  12.923
33754W        W 2128  37.849  34.520  11.601
33755W        W 2129  17.300  17.133   4.792
33756W        W 2130  33.986   1.741  14.881
33757W        W 2131   2.290  17.725  14.507
33758W        W 2132  19.194  32.085   0.422
33759W        W 2133  12.820  11.708   4.341
33760W        W 2134  38.548  25.054   3.164
33761W        W 2135  17.281  41.945   0.328
33762W        W 2136  30.496  22.613   3.266
33763W        W 2137  29.662  16.621  10.507
33764W        W 2138  20.070  44.283   1.907
33765W        W 2139  30.577  31.603   4.300
33766W        W 2140  18.295  40.526   1.217
33767W        W 2141  26.090  28.167   1.263
33768W        W 2142  40.804  14.596  11.986
33769W        W 2143  41.922  20.036  11.929
33770W        W 2144  20.115  31.506   1.402
33771W        W 2145  43.974  35.455   0.475
33772W        W 2146  42.989   9.335   2.705
33773W        W 2147  22.073   5.284   1.379
33774W        W 2148  39.369  35.463  14.839
33775W        W 2149  27.126  37.535   3.228
33776W        W 2150  25.995  43.511  14.339
33777W        W 2151  26.990  32.008   3.306
33778W        W 2152  39.919  22.667  14.417
33779W        W 2153   1.296  28.100   1.798
33780W        W 2154  27.633  14.765  14.413
33781W        W 2155  44.412  40.953  11.554
33782W        W 2156  13.119   4.279  14.814
33783W        W 2157  13.244  40.019   3.720
33784W        W 2158   8.725  28.509   1.728
33785W        W 2159  23.558   8.320  10.581
33786W        W 2160  24.551  34.035   1.445
33787W        W 2161   2.738  23.141   0.828
33788W        W 2162  20.137  32.435   4.818
33789W        W 2163   1.324  19.088   1.369
33790W        W 2164  17.208   3.392  14.453
33791W        W 2165  43.837  39.387  11.007
33792W        W 2166  25.501  31.505   4.831
33793W        W 2167  33.921   0.354  12.025
33794W        W 2168  15.193  10.340  13.536
33795W        W 2169   6.802  17.144   2.326
33796W        W 2170  10.666  11.808   1.215
33797W        W 2171   8.254  34.039  13.863
33798W        W 2172  23.181   5.826  13.458
33799W        W 2173   5.857  26.598   4.284
33800W        W 2174  21.679  28.614  11.105
33801W        W 2175  18.692  14.590  10.544
33802W        W 2176  40.818  26.562   4.803
33803W        W 2177   5.325  41.345  12.404
33804W        W 2178  26.043  25.210  11.540
33805W        W 2179  40.489  26.463   1.862
33806W        W 2180  37.023  29.007  14.925
33807W        W 2181  33.387  10.213  12.552
33808W        W 2182  43.921  22.722   0.464
33809W        W 2183  10.801  17.303  13.434
33810W        W 2184   4.309   7.888   3.301
33811W        W 2185   4.434  23.580  10.638
33812W        W 2186   1.753  37.477   3.171
33813W        W 2187   8.678  32.555   1.932
33814W        W 2188   9.383  15.261   0.409
33815W        W 2189  43.946  29.961  12.490
33816W        W 2190  28.937  13.252   4.708
33817W        W 2191  29.150   5.896  12.992
33818W        W 2192  13.246  42.370   1.914
33819W        W 2193  24.031  22.599   3.859
33820W        W 2194  22.646  12.708  10.941
33821W        W 2195  30.434   2.335   3.809
33822W        W 2196   4.331  12.802   1.311
33823W        W 2197   1.375   6.251  14.421
33824W        W 2198  43.493  28.602  13.925
33825W        W 2199   5.872  30.488  14.498
33826W        W 2200  31.956  43.327  14.487
33827W        W 2201  43.347  35.420  14.511
33828W        W 2202  44.866  39.314  14.897
33829W        W 2203  19.144  44.499  13.859
33830W        W 2204  28.451  30.514  13.427
33831W        W 2205  20.036  37.012   3.754
33832W        W 2206  40.346  21.654  12.519
33833W        W 2207  12.792  39.556  11.073
33834W        W 2208  16.105  16.645   1.397
33835W        W 2209  29.109  22.122  10.984
33836W        W 2210  12.749   4.413   4.681
33837W        W 2211   9.884  10.782   1.912
33838W        W 2212   5.833   0.393   2.856
33839W        W 2213  31.945  12.208  11.439
33840W        W 2214  23.169   6.355   1.324
33841W        W 2215   3.384  28.975   4.614
33842W        W 2216  12.844   1.932  14.763
33843W        W 2217  12.341  35.416  13.921
33844W        W 2218  41.018  15.704   4.308
33845W        W 2219  37.569   6.719   3.147
33846W        W 2220  27.538  22.615  10.596
33847W        W 2221  28.070  35.987   2.179
33848W        W 2222  22.063   8.739   2.390
33849W        W 2223  38.381  12.167  11.959
33850W        W 2224  30.418  40.417   2.269
33851W        W 2225  37.919  15.638   3.702
33852W        W 2226   9.382  35.492  11.536
33853W        W 2227  40.855  20.264   1.211
33854W        W 2228  11.207  29.992   1.921
33855W        W 2229  26.479  42.477   3.277
33856W        W 2230  28.079  28.464   2.284
33857W        W 2231  33.490  24.045  12.465
33858W        W 2232   7.218   4.916   3.830
33859W        W 2233   4.746  12.329  12.869
33860W        W 2234  33.878   6.389   1.891
33861W        W 2235  41.368   3.729   1.416
33862W        W 2236  29.979  29.468   0.871
33863W        W 2237  44.351  15.741   0.895
33864W        W 2238  11.372  32.431   1.330
33865W        W 2239  25.697  16.782   5.247
33866W        W 2240  17.779  44.791   2.244
33867W        W 2241  18.091   3.223   4.340
33868W        W 2242  19.614  30.630   4.601
33869W        W 2243  19.726  11.155   3.816
33870W        W 2244  28.049  13.119   3.682
33871W        W 2245  13.626  16.187   0.407
33872W        W 2246   4.268  38.364   1.711
33873W        W 2247  38.463   8.725   2.278
33874W        W 2248  22.202  33.454  13.962
33875W        W 2249   2.775   5.859   2.734
33876W        W 2250  39.529  13.728  10.945
33877W        W 2251   6.362   9.785  14.888
33878W        W 2252  44.960   4.877   4.801
33879W        W 2253   3.395  35.375  13.807
33880W        W 2254  31.409  11.738  10.540
33881W        W 2255  43.971  21.635   1.888
33882W        W 2256  44.340  28.544   2.872
33883W        W 2257   0.873  25.645   3.854
33884W        W 2258   3.731   3.264  14.817
33885W        W 2259  44.915  30.107  12.343
33886W        W 2260   5.729  10.211  13.008
33887W        W 2261  19.767  43.934  13.929
33888W        W 2262  25.520   1.436   4.788
33889W        W 2263  23.156   6.880   0.836
33890W        W 2264  34.490  30.571  14.767
33891W        W 2265  43.425  30.563   0.790
33892W        W 2266  43.355  41.320  11.439
33893W        W 2267   0.758  22.715  12.029
33894W        W 2268   0.929  42.020   1.312
33895W        W 2269  11.768  24.998  12.375
33896W        W 2270  10.168  27.005  14.305
33897W        W 2271  39.453  11.234   4.606
33898W        W 2272  22.222  18.708  14.025
33899W        W 2273  44.472  19.132  12.438
33900W        W 2274   3.229  17.188   2.404
33901W        W 2275  27.505  31.450   3.226
33902W        W 2276  29.459  39.422   4.150
33903W        W 2277  20.728  22.612   1.351
33904W        W 2278  30.152  44.771  13.837
33905W        W 2279  36.374   1.276  10.928
33906W        W 2280  30.429  34.977  14.993
33907W        W 2281  15.214  34.407   1.814
33908W        W 2282  33.510  16.673  13.831
33909W        W 2283  24.998  31.128  11.456
33910W        W 2284  37.964  23.163  10.512
33911W        W 2285   6.196  33.876   4.677
33912W        W 2286   6.294  11.730   1.210
33913W        W 2287  16.646  42.525  14.405
33914W        W 2288   6.296  24.145  12.026
33915W        W 2289   7.297   4.807  14.930
33916W        W 2290  12.135   5.930   3.292
33917W        W 2291  13.150  38.431   4.226
33918W        W 2292  36.989  17.622  11.560
33919W        W 2293   9.727  18.114  10.980
33920W        W 2294  10.245   9.337   0.899
33921W        W 2295  44.261   0.909   4.258
33922W        W 2296  20.126  28.551   2.196
33923W        W 2297  37.005   5.238   0.344
33924W        W 2298  16.158  29.085   3.719
33925W        W 2299   9.719  30.429  13.000
33926W        W 2300  15.736  32.406   3.357
33927W        W 2301   6.188  16.601  10.567
33928W        W 2302  42.407   0.362   1.241
33929W        W 2303  35.053   8.288  14.463
33930W        W 2304  26.963  19.550  11.565
33931W        W 2305  30.580  27.595  11.088
33932W        W 2306  43.280  20.080   3.780
33933W        W 2307   6.895   7.757  11.108
33934W        W 2308  18.067  39.511  13.969
33935W        W 2309   1.239  38.843  11.112
33936W        W 2310  24.510  34.029  14.380
33937W        W 2311  42.291  15.677   1.887
33938W        W 2312  21.172   0.279  13.427
33939W        W 2313  41.423  17.640  11.935
33940W        W 2314  22.563  10.369  11.901
33941W        W 2315  23.690  29.511  11.865
33942W        W 2316   4.303  41.349   0.334
33943W        W 2317  13.656  31.127  10.465
33944W        W 2318  44.410  32.934   1.254
33945W        W 2319  13.214  17.693  10.632
33946W        W 2320  34.867   8.754   1.389
33947W        W 2321   7.344   6.285  10.980
33948W        W 2322   9.785   2.294   3.339
33949W        W 2323  22.579   3.735   0.457
33950W        W 2324   3.770  42.904  10.891
33951W        W 2325  12.226  17.274  12.019
33952W        W 2326  16.161  44.895  14.295
33953W        W 2327  19.176  13.175  12.010
33954W        W 2328   4.910   2.256  14.431
33955W        W 2329   9.692  28.542   4.269
33956W        W 2330   3.456  27.000   4.278
33957W        W 2331  17.637  44.368   0.475
33958W        W 2332  19.270  11.629   3.667
33959W        W 2333  26.468  33.116  12.532
33960W        W 2334  42.820  14.122   3.686
33961W        W 2335   3.281  30.569   0.910
33962W        W 2336  34.547  26.132   2.869
33963W        W 2337  25.169   0.879  10.908
33964W        W 2338  21.133  22.629  11.432
33965W        W 2339  39.435  11.372   0.460
33966W        W 2340  33.601  23.166   0.926
33967W        W 2341   8.184  12.137  10.590
33968W        W 2342  10.744  44.400  14.983
33969W        W 2343  44.892  18.138  11.088
33970W        W 2344  36.574   3.866   4.657
33971W        W 2345  27.485  41.996  13.028
33972W        W 2346  38.559  18.651  11.122
33973W        W 2347   3.864  11.865  12.003
33974W        W 2348  16.648  43.951   1.268
33975W        W 2349  10.652  40.494   1.247
33976W        W 2350  42.945   2.372  10.967
33977W        W 2351  10.309  26.477  10.496
33978W        W 2352  27.462  10.646   0.857
33979W        W 2353  38.034  16.291   0.736
33980W        W 2354  42.507  17.670   1.769
33981W        W 2355   8.395  44.804   0.346
33982W        W 2356  37.019  39.924   1.350
33983W        W 2357  36.085  44.941   4.326
33984W        W 2358   2.872  43.939   1.230
33985W        W 2359  10.696  43.515   3.299
33986W        W 2360  35.444  17.723  14.409
33987W        W 2361  25.120   3.895   3.337
33988W        W 2362  21.642  20.141  14.894
33989W        W 2363   1.751  19.612   3.688
33990W        W 2364  18.052   2.268   2.887
33991W        W 2365  27.131  24.165   2.782
33992W        W 2366  16.657   2.457   2.886
33993W        W 2367  31.517   0.493   1.322
33994W        W 2368  16.217  18.633   4.636
33995W        W 2369   0.300  18.737   0.922
33996W        W 2370  27.056  34.421   2.415
33997W        W 2371  42.481  21.066   1.738
33998W        W 2372  17.098  11.843   1.727
33999W        W 2373  15.241  32.577   4.128
34000W        W 2374  40.016  13.647  11.883
34001W        W 2375  27.572  38.458   3.288
34002W        W 2376  12.780  28.055  14.806
34003W        W 2377  29.138  13.622   0.473
34004W        W 2378  25.616  27.023  14.307
34005W        W 2379  23.999  29.478   4.298
34006W        W 2380  15.774   6.696  14.015
34007W        W 2381   6.317  37.489   1.239
34008W        W 2382  40.513  31.642  13.927
34009W        W 2383  28.661  30.485   0.919
34010W        W 2384  32.549   0.896   4.633
34011W        W 2385  21.233   3.838   4.723
34012W        W 2386   5.725  24.200   2.678
34013W        W 2387  11.809  20.539  10.967
34014W        W 2388   6.265   1.803  12.878
34015W        W 2389  29.499  10.226  13.800
34016W        W 2390   0.358  32.012   0.816
34017W        W 2391   1.816  23.679  11.045
34018W        W 2392  43.439   4.244  10.549
34019W        W 2393  44.311  33.944  13.520
34020W        W 2394  20.548  16.654   4.814
34021W        W 2395  22.203   0.877  13.894
34022W        W 2396   1.347  34.463  14.406
34023W        W 2397  36.592  40.517  13.335
34024W        W 2398  40.800   7.792  13.018
34025W        W 2399  10.220  40.843   4.340
34026W        W 2400  19.253  34.432   4.276
34027W        W 2401  31.406  35.417  11.445
34028W        W 2402   0.486  19.654  11.951
34029W        W 2403  37.964  23.050   1.735
34030W        W 2404  39.470  32.892  13.912
34031W        W 2405   0.368   8.275   3.164
34032W        W 2406   4.882  21.190   0.806
34033W        W 2407  44.379  31.953  12.881
34034W        W 2408  37.866  36.533   0.246
34035W        W 2409  27.462  40.870  11.119
34036W        W 2410  38.984  15.728  10.414
34037W        W 2411  28.023  42.010  14.765
34038W        W 2412  37.428  27.126   0.395
34039W        W 2413  28.463  43.830  11.066
34040W        W 2414  28.115  19.214  10.996
34041W        W 2415  42.007  44.826  12.386
34042W        W 2416  23.159   3.849  12.383
34043W        W 2417  10.794  27.450   1.861
34044W        W 2418  32.552  21.555   0.833
34045W        W 2419  36.884  23.570   0.751
34046W        W 2420  31.907  27.021   4.690
34047W        W 2421  11.277  44.911  13.887
34048W        W 2422  42.327  15.230  14.371
34049W        W 2423  16.796  41.469   4.746
34050W        W 2424  20.550  25.114  11.018
34051W        W 2425  39.950  14.616  13.884
34052W        W 2426   3.735  39.344  12.958
34053W        W 2427  19.696  22.553   4.794
34054W        W 2428  16.242  44.498  14.280
34055W        W 2429  33.385   3.241   4.317
34056W        W 2430  17.257  42.410  11.390
34057W        W 2431  41.953  14.095  12.882
34058W        W 2432  34.552  38.544   3.869
34059W        W 2433   6.782  16.094  10.909
34060W        W 2434  41.431  26.164  13.980
34061W        W 2435  20.137  15.252   3.279
34062W        W 2436  36.039  39.394   0.469
34063W        W 2437  16.728   3.345  13.924
34064W        W 2438   2.290  18.145  10.953
34065W        W 2439  30.138  22.147   1.866
34066W        W 2440   1.743  11.253  13.949
34067W        W 2441  32.034  11.754  13.481
34068W        W 2442  16.166  27.121  14.959
34069W        W 2443  25.032  30.510   9.672
34070W        W 2444  16.581  22.574  14.870
34071W        W 2445  13.289  28.576  11.582
34072W        W 2446  19.104  42.405   2.731
34073W        W 2447   5.383  36.866   4.264
34074W        W 2448  29.665  43.411  12.496
34075W        W 2449   6.202  23.048   3.715
34076W        W 2450  22.559  14.228   2.245
34077W        W 2451  18.225  14.797  12.478
34078W        W 2452  41.928  22.207  14.391
34079W        W 2453  24.102  28.487  12.915
34080W        W 2454  33.922  10.160   2.274
34081W        W 2455  17.777  27.045  13.489
34082W        W 2456  22.214  42.925   1.388
34083W        W 2457  26.084   8.249  12.874
34084W        W 2458  32.435  15.740  12.532
34085W        W 2459  14.211  26.567   4.671
34086W        W 2460  11.236  26.125  10.609
34087W        W 2461  13.682  23.577   4.215
34088W        W 2462  10.363   9.295   4.778
34089W        W 2463  43.465  20.228  11.890
34090W        W 2464  30.555  24.497  14.998
34091W        W 2465   0.325  28.984   0.386
34092W        W 2466  44.423  32.969   1.825
34093W        W 2467  31.101  42.869  11.518
34094W        W 2468   3.295  23.581  10.567
34095W        W 2469  13.264  14.819   1.217
34096W        W 2470  21.586   5.262  13.411
34097W        W 2471   8.780  21.690  11.459
34098W        W 2472  27.514  42.989  13.358
34099W        W 2473  43.836  15.601  10.424
34100W        W 2474  19.571   5.425   0.922
34101W        W 2475   0.819   2.721  14.807
34102W        W 2476  41.787  15.117  12.972
34103W        W 2477  39.883  44.904   3.666
34104W        W 2478  37.539  27.555  12.026
34105W        W 2479  42.982  18.089   1.447
34106W        W 2480  18.652  27.095  14.344
34107W        W 2481  39.997  44.258  13.983
34108W        W 2482  26.096  17.222   2.802
34109W        W 2483  10.247  20.071  11.519
34110W        W 2484  30.073  15.684  13.318
34111W        W 2485  24.154  38.392  11.018
34112W        W 2486  32.477  20.189  14.770
34113W        W 2487  41.998  28.090   4.224
34114W        W 2488  16.656  34.469  13.374
34115W        W 2489  43.410  24.050   0.904
34116W        W 2490  37.963  40.528  13.463
34117W        W 2491  13.807  41.343  13.312
34118W        W 2492  27.634  42.839  14.309
34119W        W 2493  10.152  21.606   1.239
34120W        W 2494   9.829  10.727   2.393
34121W        W 2495  28.615  14.693  13.969
34122W        W 2496  24.083  29.950  13.453
34123W        W 2497  24.543  37.923  14.913
34124W        W 2498  33.443   5.696  14.959
34125W        W 2499  25.083  37.040  13.417
34126W        W 2500  37.500  39.373   0.738
34127W        W 2501  12.352  36.022   1.368
34128W        W 2502  36.575  19.613   1.705
34129W        W 2503  24.108  17.630   1.374
34130W        W 2504  40.995  10.273  11.880
34131W        W 2505  10.768  25.511   1.856
34132W        W 2506  23.082  19.741  12.419
34133W        W 2507  28.128  26.458  12.848
34134W        W 2508   2.284  43.360   4.659
34135W        W 2509  13.178   5.754   0.855
34136W        W 2510   1.433  25.063  13.368
34137W        W 2511  21.261  31.141  11.954
34138W        W 2512   4.758  24.501  14.462
34139W        W 2513  35.109  12.344  11.541
34140W        W 2514  33.445  22.175  11.053
34141W        W 2515  10.669  25.698   4.290
34142W        W 2516  27.453  15.583   2.339
34143W        W 2517  19.722   6.279  11.967
34144W        W 2518  27.646  37.988  11.898
34145W        W 2519  10.243   8.360  13.854
34146W        W 2520  13.614  40.328   2.399
34147W        W 2521  35.864  19.680  14.843
34148W        W 2522  32.080  37.074  11.918
34149W        W 2523  28.999   7.395   2.735
34150W        W 2524  33.947   0.390  12.950
34151W        W 2525  40.520  17.767  12.544
34152W        W 2526  34.894  21.133   2.387
34153W        W 2527  25.023  34.612  12.978
34154W        W 2528  44.834   0.935   2.707
34155W        W 2529   9.774  27.477  14.510
34156W        W 2530  16.178  17.256  13.947
34157W        W 2531  32.474  28.630   0.911
34158W        W 2532   7.251   1.413  10.521
34159W        W 2533  24.578  17.155   0.298
34160W        W 2534  15.175  42.505   1.845
34161W        W 2535   2.775  38.007   3.733
34162W        W 2536  35.484  39.021  14.804
34163W        W 2537  15.766   0.297   4.276
34164W        W 2538  38.978  44.987  12.003
34165W        W 2539  39.365  25.651  14.410
34166W        W 2540  11.199   4.306  14.390
34167W        W 2541  22.244  36.490   0.310
34168W        W 2542  16.619  39.913  14.363
34169W        W 2543  34.470  40.988  10.467
34170W        W 2544  12.740  19.774  14.336
34171W        W 2545  18.704  32.618  14.325
34172W        W 2546  16.102  33.457  11.471
34173W        W 2547  38.373  33.469  11.042
34174W        W 2548  44.902  16.295  14.396
34175W        W 2549  28.936  39.431   3.378
34176W        W 2550   8.214  24.212   2.705
34177W        W 2551  25.105  23.685  11.375
34178W        W 2552  44.975  22.740  12.873
34179W        W 2553  19.261  25.100  13.377
34180W        W 2554  22.580  29.978  11.605
34181W        W 2555  21.042  23.061  10.918
34182W        W 2556  18.065  30.029  11.487
34183W        W 2557  16.093   6.884  11.475
34184W        W 2558  34.978  34.873   0.961
34185W        W 2559   7.361  34.060   4.346
34186W        W 2560  36.588  20.617   0.833
34187W        W 2561  11.178  13.752   0.282
34188W        W 2562  38.464  26.479   4.317
34189W        W 2563  20.119   7.202   0.831
34190W        W 2564  29.627  14.279  10.125
34191W        W 2565  14.661   3.791   4.183
34192W        W 2566   7.221   2.829  13.318
34193W        W 2567   0.256  12.147  12.431
34194W        W 2568  23.168  21.668  14.838
34195W        W 2569   0.451  32.070  12.908
34196W        W 2570  42.837  21.204  11.517
34197W        W 2571  25.999  20.681  13.422
34198W        W 2572  42.356  27.175   0.966
34199W        W 2573  42.508   5.322   2.331
34200W        W 2574  25.114  39.408   3.167
34201W        W 2575  22.138   8.821   0.862
34202W        W 2576  27.036  34.420  14.779
34203W        W 2577   6.752   6.817  11.395
34204W        W 2578  30.586  19.080  13.427
34205W        W 2579   9.312  16.098  13.468
34206W        W 2580  20.747  35.039   2.282
34207W        W 2581  22.204  17.185  12.458
34208W        W 2582  18.659   5.876   2.352
34209W        W 2583   1.842   0.845   0.859
34210W        W 2584  38.369  21.742  11.025
34211W        W 2585   0.265   2.333  11.995
34212W        W 2586  17.203   7.218  11.460
34213W        W 2587  15.282  34.512  13.881
34214W        W 2588  42.964  29.430   2.807
34215W        W 2589  39.043   4.908  14.009
34216W        W 2590   6.792  36.960   4.738
34217W        W 2591  37.415  35.401   4.670
34218W        W 2592  19.552  41.409  13.991
34219W        W 2593  20.233  40.427   2.893
34220W        W 2594  37.486  44.359  12.051
34221W        W 2595  11.145   9.848   0.386
34222W        W 2596  10.240  33.057  11.382
34223W        W 2597   0.473  26.592   4.313
34224W        W 2598  33.514  39.940  11.589
34225W        W 2599  10.375   7.807  12.914
34226W        W 2600  24.179  37.418   4.209
34227W        W 2601   2.788  32.551  12.509
34228W        W 2602   9.668   7.236  11.006
34229W        W 2603  29.428  29.441  11.881
34230W        W 2604  39.945  13.215  14.018
34231W        W 2605  31.427  42.889  14.483
34232W        W 2606  34.550  14.302  13.497
34233W        W 2607   5.880   3.847   4.614
34234W        W 2608   7.354   6.803  14.031
34235W        W 2609  42.023  17.575  14.885
34236W        W 2610  17.135   6.918  13.502
34237W        W 2611  37.903  29.050  11.487
34238W        W 2612  25.615  37.476   4.292
34239W        W 2613  34.119  22.673  13.913
34240W        W 2614  17.714  31.139   1.315
34241W        W 2615   7.705  37.982  11.534
34242W        W 2616   3.438  16.212   2.688
34243W        W 2617  18.725  30.414  10.991
34244W        W 2618  37.044  44.339  10.952
34245W        W 2619   5.928  39.050  13.309
34246W        W 2620  23.206  16.246  13.823
34247W        W 2621  13.677  12.245  13.388
34248W        W 2622  11.142  35.515   2.736
34249W        W 2623  22.153  30.580   0.390
34250W        W 2624  33.127   5.745   2.811
34251W        W 2625  32.013  29.468  11.433
34252W        W 2626  24.043  18.691  11.097
34253W        W 2627   7.328  20.089   3.250
34254W        W 2628  42.484  30.007  10.946
34255W        W 2629  25.488   6.345   0.331
34256W        W 2630  23.723  37.076  14.984
34257W        W 2631  10.350  19.707   4.310
34258W        W 2632  35.483  21.100  14.890
34259W        W 2633  33.380  38.475  11.002
34260W        W 2634   1.912   0.901   4.698
34261W        W 2635   3.710   1.339   4.296
34262W        W 2636   5.886   9.717  12.040
34263W        W 2637  26.505  34.969   4.775
34264W        W 2638  13.195   4.279  12.871
34265W        W 2639  39.461  39.995   2.718
34266W        W 2640  17.105   5.288   2.189
34267W        W 2641  19.538  44.363   0.959
34268W        W 2642  29.970  22.104   2.740
34269W        W 2643  37.536  31.925   1.920
34270W        W 2644   8.795   2.753   4.810
34271W        W 2645  17.067  40.038   4.731
34272W        W 2646  42.807  24.150  14.777
34273W        W 2647  25.667  21.554  10.436
34274W        W 2648  34.428  27.037  12.868
34275W        W 2649  15.328   2.315  10.999
34276W        W 2650  31.541  38.831  12.517
34277W        W 2651  19.041  24.152  10.939
34278W        W 2652  25.571  18.252  10.640
34279W        W 2653   7.366  42.950  11.862
34280W        W 2654  28.625  43.335  12.529
34281W        W 2655  20.063  15.274   2.752
34282W        W 2656  18.563  25.070   2.820
34283W        W 2657  34.051  27.109   3.386
34284W        W 2658  33.380  16.566  11.106
34285W        W 2659   0.320  22.621  14.761
34286W        W 2660  13.812  28.510  11.987
34287W        W 2661  41.375  23.031  10.576
34288W        W 2662   7.875  43.424   4.737
34289W        W 2663  22.200  43.325   4.767
34290W        W 2664  39.448  39.526   0.894
34291W        W 2665  16.133   2.407  13.443
34292W        W 2666  14.619  15.651   2.762
34293W        W 2667  41.408   4.875  14.956
34294W        W 2668   6.283  10.306   0.448
34295W        W 2669  32.460  19.545  14.411
34296W        W 2670  21.047  12.763  14.862
34297W        W 2671  25.040  25.594  13.919
34298W        W 2672  39.814  39.552   0.434
34299W        W 2673  21.073  17.701   1.827
34300W        W 2674  19.107   8.857  11.908
34301W        W 2675  11.253  38.566  14.959
34302W        W 2676  27.118  26.566  14.470
34303W        W 2677  14.601  33.045  14.501
34304W        W 2678   6.308  26.054  11.918
34305W        W 2679   5.819   3.452   0.945
34306W        W 2680   1.871   0.973   1.811
34307W        W 2681  40.373  44.409  13.807
34308W        W 2682  17.211  38.885  10.472
34309W        W 2683  10.863  18.290  14.814
34310W        W 2684  39.987   4.926   0.815
34311W        W 2685  13.834  11.204   4.683
34312W        W 2686  29.147  32.012  12.508
34313W        W 2687  25.635  32.922  11.120
34314W        W 2688  36.360  14.637  12.038
34315W        W 2689  25.192   3.911   1.448
34316W        W 2690  42.489  32.572  14.788
34317W        W 2691  38.518  23.017   4.204
34318W        W 2692   0.906  44.006   4.802
34319W        W 2693  28.983  12.830   2.778
34320W        W 2694  39.059  37.577   4.723
34321W        W 2695  21.034  27.062  12.974
34322W        W 2696  44.341  21.685   0.419
34323W        W 2697   7.710  19.114   2.383
34324W        W 2698  14.145  15.584  14.860
34325W        W 2699  27.090  33.048   1.794
34326W        W 2700  29.135  39.951  10.566
34327W        W 2701  24.995  26.474   0.461
34328W        W 2702   2.272  16.759  12.920
34329W        W 2703  26.575  28.988  13.941
34330W        W 2704  10.677  16.155   4.325
34331W        W 2705  30.064  17.785  11.884
34332W        W 2706  22.195  24.094  13.960
34333W        W 2707  26.648  30.590  10.003
34334W        W 2708   6.346  11.345   2.362
34335W        W 2709   6.923  10.679  12.482
34336W        W 2710   4.292  19.112   0.402
34337W        W 2711   5.300  24.667   4.159
34338W        W 2712  14.204  35.559   0.795
34339W        W 2713  42.408  12.783  12.529
34340W        W 2714  10.763  33.996  14.471
34341W        W 2715  36.030  42.405   2.667
34342W        W 2716   4.936  28.506   4.799
34343W        W 2717  17.171  33.922   3.792
34344W        W 2718  18.120  12.732  13.823
34345W        W 2719  29.090   0.422   4.326
34346W        W 2720  42.931   7.731  13.515
34347W        W 2721  27.623  39.410  14.496
34348W        W 2722  19.687  21.621   0.466
34349W        W 2723   4.788   7.283  13.831
34350W        W 2724  18.700   6.700   2.266
34351W        W 2725  12.674  17.129   3.841
34352W        W 2726   5.384  28.075   3.220
34353W        W 2727  10.748  34.922  13.499
34354W        W 2728  40.347  35.013  13.378
34355W        W 2729  11.751  24.173  14.331
34356W        W 2730   4.377  33.384  13.911
34357W        W 2731  44.934  17.239   1.352
34358W        W 2732  31.112  17.109   1.837
34359W        W 2733  23.666   0.314  10.535
34360W        W 2734  31.045  26.058  13.819
34361W        W 2735   9.314  19.095   3.850
34362W        W 2736   1.881  12.699   4.699
34363W        W 2737  22.225  35.457  10.496
34364W        W 2738   2.390  37.563  14.481
34365W        W 2739  29.098  42.461   2.890
34366W        W 2740  30.565   4.303   2.382
34367W        W 2741  39.396  44.340   4.610
34368W        W 2742  23.671  40.363  13.907
34369W        W 2743   6.850  22.572   3.158
34370W        W 2744  39.450   0.401   2.405
34371W        W 2745  18.691   9.193  11.496
34372W        W 2746  37.457  17.066   5.321
34373W        W 2747   7.348   1.824  14.349
34374W        W 2748   5.212  33.383  10.038
34375W        W 2749   1.802  32.445  12.082
34376W        W 2750  16.609   7.767   4.201
34377W        W 2751  16.158  26.185   4.137
34378W        W 2752  39.847  24.054  14.510
34379W        W 2753  33.400  18.783  13.332
34380W        W 2754  21.146  11.740   5.308
34381W        W 2755  25.039  10.649  14.946
34382W        W 2756  20.662  32.049  13.926
34383W        W 2757  17.083   8.391  14.904
34384W        W 2758   7.343  23.174  11.993
34385W        W 2759   6.307  24.006   0.258
34386W        W 2760   8.742  14.593   0.745
34387W        W 2761   5.872  20.568   4.132
34388W        W 2762  44.305  28.125  14.769
34389W        W 2763  41.904  31.946  13.909
34390W        W 2764  21.206  11.264  10.616
34391W        W 2765   8.221  38.358  10.462
34392W        W 2766  37.848  31.624  13.332
34393W        W 2767   3.394  23.045   3.795
34394W        W 2768   8.265  20.542   0.440
34395W        W 2769  29.639  27.512  14.972
34396W        W 2770  36.551  14.305  12.374
34397W        W 2771  40.946  27.040  14.769
34398W        W 2772  11.154  30.509   2.245
34399W        W 2773  44.935  14.724   3.699
34400W        W 2774  39.948   0.257  13.978
34401W        W 2775  14.099  17.767   3.698
34402W        W 2776  41.025  33.503  12.902
34403W        W 2777  22.079  13.217   2.706
34404W        W 2778  35.539   1.390   1.750
34405W        W 2779  39.910  29.051  12.863
34406W        W 2780  15.663  32.421  11.041
34407W        W 2781  10.217  15.092  13.934
34408W        W 2782  14.714  38.408  10.906
34409W        W 2783  38.561  19.598   2.687
34410W        W 2784  29.097  13.618  14.914
34411W        W 2785  29.956  17.258   2.342
34412W        W 2786  14.218  44.934   0.288
34413W        W 2787  23.064  24.127   2.864
34414W        W 2788  30.496  42.901  14.402
34415W        W 2789  14.221   3.401   3.747
34416W        W 2790   7.753  31.493   1.270
34417W        W 2791  28.964  30.529  11.908
34418W        W 2792  38.019   6.860  13.042
34419W        W 2793   0.985   2.432   2.254
34420W        W 2794  13.220  31.103   4.193
34421W        W 2795  41.402   0.345  13.539
34422W        W 2796  37.516  32.442   0.748
34423W        W 2797  44.764   2.239   1.412
34424W        W 2798  33.993   1.265  13.455
34425W        W 2799  42.950  41.926   0.242
34426W        W 2800  43.348   9.232  14.800
34427W        W 2801   6.681  39.066   3.778
34428W        W 2802  11.718   0.936   0.476
34429W        W 2803   7.836  23.496   9.557
34430W        W 2804  26.610  35.386   1.337
34431W        W 2805  13.158  39.352  14.012
34432W        W 2806  35.521  27.525   1.846
34433W        W 2807   0.378  15.204  14.803
34434W        W 2808  33.066  15.262   3.830
34435W        W 2809  19.179  41.390  12.868
34436W        W 2810  22.106   7.209  13.004
34437W        W 2811  40.307  27.095   1.354
34438W        W 2812  40.918   7.260  14.936
34439W        W 2813  26.138  12.646  13.953
34440W        W 2814  29.634   2.896   3.764
34441W        W 2815  17.615   3.870   2.778
34442W        W 2816   1.399  18.072  12.970
34443W        W 2817  14.632  27.998  10.461
34444W        W 2818  33.432  22.728  11.995
34445W        W 2819   7.368   2.853  13.978
34446W        W 2820  22.585  38.372   1.421
34447W        W 2821  39.926   4.404  11.913
34448W        W 2822   7.409  34.024  14.953
34449W        W 2823  28.577   8.780  14.996
34450W        W 2824  43.884  39.504  11.501
34451W        W 2825  17.168   4.760  13.969
34452W        W 2826  15.741  43.290   5.119
34453W        W 2827  28.988  24.081   4.823
34454W        W 2828  39.395  14.252   1.344
34455W        W 2829  31.141  17.721  11.097
34456W        W 2830  17.699  18.218   2.232
34457W        W 2831  36.361  25.659   4.293
34458W        W 2832  14.139  36.517   0.850
34459W        W 2833  42.515  26.046   4.331
34460W        W 2834  25.078   9.814   0.891
34461W        W 2835  27.641  38.332  10.595
34462W        W 2836  25.622   1.765  10.029
34463W        W 2837  22.503  38.945   3.257
34464W        W 2838  31.932  32.500   4.655
34465W        W 2839  35.418  36.359  10.967
34466W        W 2840  33.551  40.462  12.085
34467W        W 2841   9.363  23.601   1.426
34468W        W 2842  39.988   0.484   4.756
34469W        W 2843  30.154  21.062  12.888
34470W        W 2844  23.570   6.858  14.946
34471W        W 2845   5.401  28.166  10.412
34472W        W 2846  18.630  30.421  14.403
34473W        W 2847  36.365  32.550   4.292
34474W        W 2848  26.067  20.654  13.885
34475W        W 2849  24.130  42.453   3.218
34476W        W 2850   4.937  17.196  13.949
34477W        W 2851  29.091  42.424   3.335
34478W        W 2852  23.198  31.121  13.849
34479W        W 2853  34.539  38.037  11.515
34480W        W 2854   7.417   2.322  10.488
34481W        W 2855  38.386   4.383   4.775
34482W        W 2856  29.632  33.405   3.291
34483W        W 2857   5.707  24.617  10.048
34484W        W 2858  35.969  29.504  13.954
34485W        W 2859  28.049  44.767  13.532
34486W        W 2860   1.458  38.327  11.115
34487W        W 2861  39.915  40.852   4.739
34488W        W 2862   4.923  11.194   1.906
34489W        W 2863  11.851  32.574   0.829
34490W        W 2864  19.134  35.985   1.273
34491W        W 2865  25.175  24.221  13.342
34492W        W 2866  42.986  17.177  10.469
34493W        W 2867   4.922   2.258  11.509
34494W        W 2868  29.427  21.259   1.281
34495W        W 2869  32.449  35.546   0.462
34496W        W 2870  20.537  31.991   2.819
34497W        W 2871  11.773  21.202  14.317
34498W        W 2872   3.794  28.674  11.544
34499W        W 2873  22.736  25.664  13.805
34500W        W 2874   9.679  14.168   0.268
34501W        W 2875  41.382   2.936  12.053
34502W        W 2876   0.767  33.093   3.691
34503W        W 2877  31.958  30.008   1.819
34504W        W 2878  31.930  29.116  10.616
34505W        W 2879  11.137   7.676   1.803
34506W        W 2880  44.755  38.390   3.338
34507W        W 2881  19.126  34.455  10.441
34508W        W 2882  12.634  23.136  12.952
34509W        W 2883  36.903  15.769  14.384
34510W        W 2884  28.061  44.798  10.909
34511W        W 2885   9.685  41.807   3.646
34512W        W 2886  26.550   6.870  11.476
34513W        W 2887  25.613  34.556  10.433
34514W        W 2888  34.066   0.844  10.035
34515W        W 2889   6.424  40.017   5.233
34516W        W 2890  11.336   1.464  11.495
34517W        W 2891  35.541   7.312   4.632
34518W        W 2892  18.176  28.004  10.625
34519W        W 2893   1.448  19.759  11.468
34520W        W 2894  15.774  40.325   3.795
34521W        W 2895  10.728   9.797   4.161
34522W        W 2896   5.887  27.953   1.765
34523W        W 2897   8.366  43.013  12.558
34524W        W 2898  14.674  34.906   3.296
34525W        W 2899   6.809  39.879  14.852
34526W        W 2900  25.993   9.329  13.541
34527W        W 2901  26.666  11.819   0.454
34528W        W 2902  37.390  36.064   1.909
34529W        W 2903  17.747  39.045  11.468
34530W        W 2904   7.670  22.724  14.919
34531W        W 2905  15.724  36.002   2.414
34532W        W 2906  40.332   4.789   2.711
34533W        W 2907  28.930  22.532  10.920
34534W        W 2908  14.619   9.855   3.645
34535W        W 2909  26.195  22.021   1.440
34536W        W 2910  37.010  40.828   1.338
34537W        W 2911   1.887  40.836  10.942
34538W        W 2912  35.430  17.758  10.971
34539W        W 2913   5.260   6.362   2.395
34540W        W 2914  25.494  36.363  12.894
34541W        W 2915  27.533  27.044  12.934
34542W        W 2916   3.848   0.401   4.831
34543W        W 2917  34.376  22.684   4.344
34544W        W 2918  25.083   9.651  11.040
34545W        W 2919   8.194  43.981  12.482
34546W        W 2920  42.015  22.090   0.478
34547W        W 2921   5.421  31.533   1.916
34548W        W 2922  16.729  16.271  11.986
34549W        W 2923  42.412  15.729  14.889
34550W        W 2924  31.993  24.589  14.817
34551W        W 2925   3.217  16.145   0.245
34552W        W 2926  24.111  32.597   5.663
34553W        W 2927   3.740  36.534   3.387
34554W        W 2928  15.191   2.943   4.204
34555W        W 2929  35.874   5.388   3.162
34556W        W 2930   4.244   9.165  14.280
34557W        W 2931  11.363  13.265  12.471
34558W        W 2932  28.948   3.852  11.125
34559W        W 2933  42.899  31.414   1.724
34560W        W 2934  43.463  40.989   0.389
34561W        W 2935  32.139   9.328   4.705
34562W        W 2936  17.096  26.517   1.875
34563W        W 2937   0.276   1.975  10.479
34564W        W 2938  23.502  25.022   4.248
34565W        W 2939  25.174   3.814  13.869
34566W        W 2940  34.902  27.483   3.795
34567W        W 2941  16.082  37.439   3.669
34568W        W 2942   1.394   8.236   4.737
34569W        W 2943  41.041  18.580  14.337
34570W        W 2944  10.330  33.559   4.114
34571W        W 2945   6.920  32.459  13.023
34572W        W 2946  23.102  22.589   2.250
34573W        W 2947  22.226  21.064  12.049
34574W        W 2948   0.447  26.961  13.930
34575W        W 2949  44.995   8.882  11.447
34576W        W 2950  31.489  40.317   3.385
34577W        W 2951  42.945  20.603  13.471
34578W        W 2952  37.445  38.857   1.230
34579W        W 2953  35.001  42.311  13.479
34580W        W 2954  33.455  41.816  11.471
34581W        W 2955  39.430  32.617  14.814
34582W        W 2956  37.929   2.966   1.340
34583W        W 2957  21.624  34.407  13.454
34584W        W 2958  40.860  31.440  11.985
34585W        W 2959  37.041  39.816  12.020
34586W        W 2960  10.775   1.460  13.886
34587W        W 2961  16.257   8.214   1.928
34588W        W 2962   2.945   6.319   2.419
34589W        W 2963   7.862  16.269   3.751
34590W        W 2964  19.631  39.381  10.529
34591W        W 2965  12.129   8.254  10.519
34592W        W 2966  39.861  16.121  13.893
34593W        W 2967  34.377  10.353   3.697
34594W        W 2968   3.876  13.709   4.171
34595W        W 2969  10.733  31.084  11.494
34596W        W 2970  26.594   3.394  10.429
34597W        W 2971  16.206  14.683  14.841
34598W        W 2972  16.642  32.580  14.902
34599W        W 2973   8.168   4.787  12.937
34600W        W 2974  13.261  17.669  13.839
34601W        W 2975   9.241  13.258  12.550
34602W        W 2976   2.229  17.663  11.407
34603W        W 2977   5.395  26.472  11.065
34604W        W 2978  36.474   8.165   1.722
34605W        W 2979   3.720  27.177   4.318
34606W        W 2980  38.384  21.603   1.260
34607W        W 2981  37.902  38.044  12.403
34608W        W 2982  44.484  35.949  12.082
34609W        W 2983  34.475  42.906   0.861
34610W        W 2984  37.979  16.629   2.288
34611W        W 2985  29.127  36.912  11.493
34612W        W 2986  13.324   3.789  12.457
34613W        W 2987  41.514  35.441  11.586
34614W        W 2988  13.732  27.536   2.780
34615W        W 2989  37.338   3.924  14.790
34616W        W 2990   6.335  43.366   3.652
34617W        W 2991  40.915  17.704  10.499
34618W        W 2992   9.205  16.574   0.440
34619W        W 2993  19.652  26.661  13.833
34620W        W 2994  21.081  30.112   0.368
34621W        W 2995  38.860  18.053   0.439
34622W        W 2996  21.672  15.749   1.755
34623W        W 2997  21.079  35.405   0.807
34624W        W 2998  32.921  11.863  11.467
34625W        W 2999  15.636  29.571   3.778
34626W        W 3000   5.884  39.959  11.861
34627W        W 3001   7.869  24.725   1.214
34628W        W 3002  42.788  23.081   2.690
34629W        W 3003  21.058  41.973  11.886
34630W        W 3004  22.248  31.037   4.178
34631W        W 3005  31.568  38.024  11.022
34632W        W 3006  10.830   6.798  12.979
34633W        W 3007  35.996   7.380  13.804
34634W        W 3008   9.200  22.221   2.691
34635W        W 3009  21.740  26.497   2.294
34636W        W 3010  35.497  25.003  11.548
34637W        W 3011  27.681  44.886  10.595
34638W        W 3012  31.578  42.346   2.408
34639W        W 3013  16.678  18.213   3.700
34640W        W 3014   4.772   4.916  10.997
34641W        W 3015  14.669   2.324   1.422
34642W        W 3016   2.296  20.150  12.939
34643W        W 3017  30.499  23.704  10.893
34644W        W 3018  28.045  33.433   5.296
34645W        W 3019   3.809  13.154   2.353
34646W        W 3020   7.692  40.314   1.832
34647W        W 3021  18.787   7.332   4.177
34648W        W 3022   4.782  40.508   1.330
34649W        W 3023   0.442  20.169   1.370
34650W        W 3024  42.475  38.435  10.895
34651W        W 3025   0.835  14.336   3.828
34652W        W 3026   4.380  41.407   4.603
34653W        W 3027   4.350   0.979   0.824
34654W        W 3028  39.387  18.197   3.245
34655W        W 3029  13.225  25.573  14.806
34656W        W 3030  23.590   0.783   2.810
34657W        W 3031  32.933   2.848   2.748
34658W        W 3032   8.789  28.626   0.389
34659W        W 3033  19.579  21.050   2.260
34660W        W 3034   8.724  26.168  14.932
34661W        W 3035   2.806  21.649   2.679
34662W        W 3036  32.050  17.588   2.897
34663W        W 3037   7.204  10.819   0.916
34664W        W 3038  43.503  43.822  10.500
34665W        W 3039  13.651  34.371  11.910
34666W        W 3040  24.671  36.039   3.374
34667W        W 3041  25.618  43.289   3.783
34668W        W 3042  18.206  19.727  13.983
34669W        W 3043  37.034   7.369   0.264
34670W        W 3044  31.543  28.617   2.687
34671W        W 3045   1.466  39.381  14.376
34672W        W 3046  33.596  21.644   0.891
34673W        W 3047  40.449  40.869  14.818
34674W        W 3048  23.118  12.230  12.010
34675W        W 3049  16.704   8.817   3.173
34676W        W 3050  29.590   7.849  12.081
34677W        W 3051   6.388  13.610   2.332
34678W        W 3052  25.101   4.859  13.381
34679W        W 3053  43.516   4.311  11.390
34680W        W 3054  37.958  42.388   3.737
34681W        W 3055   9.223  35.940  11.928
34682W        W 3056  23.161  17.609   2.381
34683W        W 3057   3.815  28.595  10.469
34684W        W 3058  41.900  43.859  10.999
34685W        W 3059   6.353  15.311   3.324
34686W        W 3060  25.106   9.260  13.945
34687W        W 3061  26.161  43.514  13.532
34688W        W 3062  44.370  10.337  12.549
34689W        W 3063  12.255  30.981   3.225
34690W        W 3064   6.376  16.726   1.733
34691W        W 3065  15.254   9.228   0.878
34692W        W 3066   9.700  14.155   5.111
34693W        W 3067  44.924  41.947   2.417
34694W        W 3068  34.105  12.686  11.429
34695W        W 3069  38.874   7.669  11.452
34696W        W 3070  34.410  43.774  11.100
34697W        W 3071  17.760  29.115   1.778
34698W        W 3072  11.732   7.300  11.889
34699W        W 3073  37.835  21.564   3.169
34700W        W 3074  11.162  25.475  10.467
34701W        W 3075  42.354   9.328  13.060
34702W        W 3076  19.694  39.313  13.334
34703W        W 3077   9.761  29.650  10.103
34704W        W 3078   5.264  21.609   4.607
34705W        W 3079  14.699  16.152   1.772
34706W        W 3080  11.779  26.580  13.434
34707W        W 3081   7.851   8.681   0.941
34708W        W 3082  25.501  25.639  13.905
34709W        W 3083  14.314  36.501  13.823
34710W        W 3084   1.916  17.306   2.390
34711W        W 3085   1.824  28.626   1.409
34712W        W 3086  41.324  43.954   2.365
34713W        W 3087  35.433  37.575  10.638
34714W        W 3088   5.808  17.575   4.740
34715W        W 3089  14.143  42.380  10.461
34716W        W 3090   5.378  39.374  12.083
34717W        W 3091  41.925   7.818   0.889
34718W        W 3092   5.211  21.204   3.300
34719W        W 3093   5.716  10.201   3.824
34720W        W 3094  44.912  38.482  12.380
34721W        W 3095   7.411  33.449   4.666
34722W        W 3096   5.371  28.045  12.907
34723W        W 3097  44.885  29.540  10.415
34724W        W 3098  32.405  11.748   3.701
34725W        W 3099  31.462  21.180   1.262
34726W        W 3100  29.502  19.539  14.380
34727W        W 3101  15.106  41.365  14.457
34728W        W 3102  36.913  13.690  12.349
34729W        W 3103   8.705  23.150  13.804
34730W        W 3104  35.018   3.899   1.914
34731W        W 3105  41.821   1.753  14.471
34732W        W 3106  31.578  30.114   0.864
34733W        W 3107  36.508  32.971  12.341
34734W        W 3108  12.672   5.909  13.477
34735W        W 3109  17.765  43.335  14.403
34736W        W 3110  25.641  15.766  10.918
34737W        W 3111  44.862  24.052   4.831
34738W        W 3112  41.828  24.126   2.262
34739W        W 3113  36.496   8.297   3.330
34740W        W 3114  32.893  35.590   0.866
34741W        W 3115  31.524  20.545  14.839
34742W        W 3116  33.991  21.222   0.743
34743W        W 3117  29.108   0.352   3.160
34744W        W 3118  20.553  41.028   3.786
34745W        W 3119  31.002   3.949   0.339
34746W        W 3120  44.473  19.169  10.594
34747W        W 3121   1.346  24.011   1.442
34748W        W 3122  30.454  38.374   1.899
34749W        W 3123   7.847  41.434   2.694
34750W        W 3124  29.063  37.973  14.336
34751W        W 3125  19.187  36.062  10.498
34752W        W 3126   5.911  13.230   0.320
34753W        W 3127  22.596  18.590   2.696
34754W        W 3128   9.357  41.503   5.304
34755W        W 3129  11.674  14.769   2.376
34756W        W 3130  36.570  35.074   1.358
34757W        W 3131   2.461  20.184  11.385
34758W        W 3132  23.571  29.947  10.589
34759W        W 3133  23.698  27.969   4.714
34760W        W 3134  18.251   5.301   3.849
34761W        W 3135  15.293  30.908  12.011
34762W        W 3136  25.002   7.833  14.385
34763W        W 3137  24.110  39.477  11.013
34764W        W 3138  31.100   3.382  11.591
34765W        W 3139   3.779  26.617   3.341
34766W        W 3140   2.824  17.248  11.862
34767W        W 3141  34.037  17.074  12.889
34768W        W 3142  22.601  11.851   0.454
34769W        W 3143  17.712  32.554   4.294
34770W        W 3144  18.064  44.430  14.029
34771W        W 3145  14.592  20.263   0.904
34772W        W 3146  40.039  41.400  14.886
34773W        W 3147  13.814  29.111  11.923
34774W        W 3148  24.099   5.929  13.917
34775W        W 3149  25.066  37.540   5.200
34776W        W 3150  27.606   3.316   1.853
34777W        W 3151  44.758   9.728  12.510
34778W        W 3152  22.685  34.413   4.115
34779W        W 3153  37.564  37.978  14.425
34780W        W 3154  18.065  33.058   3.298
34781W        W 3155  17.250   2.860  10.623
34782W        W 3156   2.940  32.984  14.947
34783W        W 3157  15.232  39.336  12.961
34784W        W 3158  23.186  29.670   3.865
34785W        W 3159  33.016  35.541   2.295
34786W        W 3160  16.585  37.008  14.807
34787W        W 3161  24.051  16.566  10.414
34788W        W 3162   4.265   5.849  14.384
34789W        W 3163  38.403  21.072  12.925
34790W        W 3164  25.105  38.477  10.115
34791W        W 3165  26.125  29.584   4.770
34792W        W 3166  36.909   3.891   1.809
34793W        W 3167  22.179   6.706  13.328
34794W        W 3168   4.855  25.971   3.184
34795W        W 3169   3.265  25.582   4.225
34796W        W 3170  12.810  36.998   1.238
34797W        W 3171  10.745  29.431  11.901
34798W        W 3172  25.588  14.635  14.025
34799W        W 3173  19.770  15.594   2.684
34800W        W 3174  42.408  30.148   3.785
34801W        W 3175  40.040  26.108  14.435
34802W        W 3176  19.638  36.915   4.182
34803W        W 3177  35.919  18.228   1.732
34804W        W 3178  15.314  13.336  11.036
34805W        W 3179   2.851  26.182  13.864
34806W        W 3180  35.433  42.783  13.876
34807W        W 3181  42.508  18.123   1.367
34808W        W 3182  31.556  41.439   4.671
34809W        W 3183  19.749  18.676  11.076
34810W        W 3184  29.172  10.759   1.424
34811W        W 3185   7.874  37.529  12.425
34812W        W 3186  25.001   8.395   3.862
34813W        W 3187  16.088  26.664  10.928
34814W        W 3188  40.539  25.042  10.963
34815W        W 3189  22.659  12.271  11.498
34816W        W 3190  18.786  34.979   2.363
34817W        W 3191  26.110  23.174  14.874
34818W        W 3192  13.704  25.512   2.840
34819W        W 3193  44.909  44.262  13.364
34820W        W 3194  37.895   3.297   4.264
34821W        W 3195  22.516   0.285  11.436
34822W        W 3196   7.912   4.277   3.814
34823W        W 3197  18.568  27.184  13.822
34824W        W 3198  30.453  36.421   1.420
34825W        W 3199   5.715  29.513   4.160
34826W        W 3200  36.404  19.743   4.259
34827W        W 3201  27.538  31.467  13.412
34828W        W 3202  33.937  41.871  13.474
34829W        W 3203   0.435  15.754   1.390
34830W        W 3204  39.315   8.836   2.280
34831W        W 3205  41.489   0.264  12.340
34832W        W 3206  23.585  22.573   2.702
34833W        W 3207   6.401  13.325   4.773
34834W        W 3208  40.013  34.937  13.527
34835W        W 3209  13.757  22.026  10.443
34836W        W 3210  38.010  21.641  11.038
34837W        W 3211  21.028  29.141   3.708
34838W        W 3212  23.585  30.551  14.325
34839W        W 3213  13.140  32.049   4.614
34840W        W 3214  33.620  10.317  11.539
34841W        W 3215  39.935   3.949   4.634
34842W        W 3216  15.784  14.136   1.801
34843W        W 3217  31.951  25.640   4.183
34844W        W 3218   5.838   7.666   3.371
34845W        W 3219  30.439  15.585   1.284
34846W        W 3220  15.307  32.417   2.260
34847W        W 3221  31.634  22.101   1.302
34848W        W 3222  10.309  35.896  10.467
34849W        W 3223  12.169  32.134   4.728
34850W        W 3224  23.012   5.720   1.935
34851W        W 3225  23.066  44.273   0.948
34852W        W 3226  14.205  17.099  12.420
34853W        W 3227  16.676  18.576   1.754
34854W        W 3228  37.862  34.958  13.418
34855W        W 3229  43.976  14.812  12.572
34856W        W 3230  28.642  43.805   4.124
34857W        W 3231  10.154  17.705  12.369
34858W        W 3232  10.661  30.588   0.281
34859W        W 3233   3.441   5.719  14.806
34860W        W 3234  18.666  40.492   3.710
34861W        W 3235  35.551  26.622   2.839
34862W        W 3236  19.662  24.712   2.306
34863W        W 3237  31.117   5.246  10.950
34864W        W 3238  14.119  36.514  11.905
34865W        W 3239  39.818  32.928  10.579
34866W        W 3240  11.720  25.593  12.035
34867W        W 3241  23.095  38.442   4.255
34868W        W 3242  12.679  44.804   1.349
34869W        W 3243  36.424  41.031  10.532
34870W        W 3244   1.473  21.706  13.471
34871W        W 3245  37.908  13.787   4.604
34872W        W 3246  40.868  17.685  14.476
34873W        W 3247  42.923  33.561   3.731
34874W        W 3248  34.937  42.486   0.402
34875W        W 3249   2.301  22.714   2.838
34876W        W 3250  22.502  13.686   3.180
34877W        W 3251  41.837  11.778   5.171
34878W        W 3252  24.608  10.288   3.196
34879W        W 3253  43.303   5.321   3.376
34880W        W 3254  34.064  35.567   3.303
34881W        W 3255  39.042  31.061  10.529
34882W        W 3256  41.962  11.765  11.569
34883W        W 3257  43.485  29.997  10.499
34884W        W 3258  29.056  17.638   2.791
34885W        W 3259  15.272   5.703   2.360
34886W        W 3260   1.422  15.187   4.328
34887W        W 3261  11.225  14.274   3.270
34888W        W 3262  14.105   3.799   3.258
34889W        W 3263  44.755   9.769   3.722
34890W        W 3264  17.646   4.926   9.987
34891W        W 3265  22.098  24.602   0.838
34892W        W 3266  27.604  26.616  12.982
34893W        W 3267  31.480  22.634   3.677
34894W        W 3268  22.160  38.499  12.830
34895W        W 3269  20.218  22.092   2.863
34896W        W 3270  38.355  40.502   4.629
34897W        W 3271  41.382  38.371   0.356
34898W        W 3272  18.718  26.529   5.222
34899W        W 3273   7.761   1.315   0.351
34900W        W 3274  15.195  28.667  10.999
34901W        W 3275  16.593  35.864   2.749
34902W        W 3276  43.855  42.778   0.932
34903W        W 3277  17.790   5.301   3.267
34904W        W 3278  31.975  43.843   4.634
34905W        W 3279  41.039  33.876  12.965
34906W        W 3280  21.672  10.283  11.604
34907W        W 3281  20.585  44.007   1.280
34908W        W 3282  15.152  32.494   3.716
34909W        W 3283  22.151  16.586   1.386
34910W        W 3284  42.782  12.273  11.445
34911W        W 3285  37.987  29.613  14.326
34912W        W 3286  24.038  33.000  13.926
34913W        W 3287  17.281  36.398  12.541
34914W        W 3288  38.550  30.587  14.338
34915W        W 3289  16.228  29.970   3.816
34916W        W 3290  18.552  12.707  12.408
34917W        W 3291   8.748  13.750  11.008
34918W        W 3292  12.624  38.457  13.943
34919W        W 3293  26.583  37.508   2.190
34920W        W 3294   0.882  33.994   0.354
34921W        W 3295  27.537  35.893  11.994
34922W        W 3296   2.405  24.048  11.920
34923W        W 3297  44.401  37.336   4.813
34924W        W 3298  44.446  29.923  14.397
34925W        W 3299  43.443  25.592  11.436
34926W        W 3300  28.960   1.421  13.903
34927W        W 3301  28.591   1.935  12.502
34928W        W 3302  37.573  36.380   1.302
34929W        W 3303  32.895  24.216   4.315
34930W        W 3304  21.106  27.458   0.434
34931W        W 3305  19.698  44.960  10.437
34932W        W 3306  40.000  40.496   1.390
34933W        W 3307   3.732  11.868  13.963
34934W        W 3308   4.205  32.040   0.883
34935W        W 3309  21.748  40.845  13.531
34936W        W 3310  40.352  15.763   9.963
34937W        W 3311  10.767  15.247   2.339
34938W        W 3312   7.417   1.424   1.738
34939W        W 3313  43.899  32.998  14.824
34940W        W 3314  37.061   9.242  14.340
34941W        W 3315   0.879  20.206   1.768
34942W        W 3316  20.618  28.941   1.384
34943W        W 3317  35.989  22.595   4.622
34944W        W 3318   8.289   2.359  13.425
34945W        W 3319  40.324  13.350  14.766
34946W        W 3320  15.176  15.216  12.508
34947W        W 3321  20.659  26.179  11.967
34948W        W 3322  18.741  30.558   2.802
34949W        W 3323  40.524   3.414   2.778
34950W        W 3324   4.405  21.155   3.680
34951W        W 3325  16.583  38.930   3.841
34952W        W 3326  29.947  43.394   4.321
34953W        W 3327   0.814  32.415   1.842
34954W        W 3328  27.997  13.815   3.345
34955W        W 3329  25.708   9.211   3.257
34956W        W 3330  12.170  15.601  11.534
34957W        W 3331  17.708  39.347   2.354
34958W        W 3332  43.013   1.251   0.841
34959W        W 3333  19.039  20.735  11.457
34960W        W 3334  36.928   8.199   1.337
34961W        W 3335  27.590   5.785   1.837
34962W        W 3336  31.582  36.973   4.720
34963W        W 3337  35.531  31.494   4.331
34964W        W 3338  21.533  39.009   1.319
34965W        W 3339  36.956   7.881  11.505
34966W        W 3340  34.386  11.652   4.780
34967W        W 3341  29.122  32.569  14.960
34968W        W 3342  11.676   8.373   3.645
34969W        W 3343   3.254  23.668   4.333
34970W        W 3344  43.510  40.400  11.028
34971W        W 3345  16.697  21.631   2.229
34972W        W 3346  11.764  40.981  14.314
34973W        W 3347  25.018  29.063  11.587
34974W        W 3348  33.522   7.201   5.226
34975W        W 3349   6.679   2.884   4.165
34976W        W 3350  28.633  11.299   3.662
34977W        W 3351   1.299  29.608   1.875
34978W        W 3352   2.409  17.574   1.411
34979W        W 3353  20.534  25.548   4.701
34980W        W 3354  42.859  10.279  10.953
34981W        W 3355  36.073   2.446  14.907
34982W        W 3356  14.218  20.615  12.504
34983W        W 3357  25.519  23.033  10.964
34984W        W 3358  26.124  34.897  12.414
34985W        W 3359  21.546  11.811   1.874
34986W        W 3360  23.034   9.343  14.800
34987W        W 3361  21.570  35.448  13.962
34988W        W 3362  28.594  43.815  13.896
34989W        W 3363  11.775  18.197  14.444
34990W        W 3364  27.490  34.896   3.827
34991W        W 3365   6.740   8.172   3.322
34992W        W 3366  33.949  25.103  12.892
34993W        W 3367  29.925  31.037   4.289
34994W        W 3368  11.289  43.504  14.857
34995W        W 3369  16.214  33.913  11.055
34996W        W 3370  44.387  28.007   4.180
34997W        W 3371  21.164  26.075  12.561
34998W        W 3372  10.686  37.908   1.728
34999W        W 3373  20.261  14.669  11.102
35000W        W 3374  40.845  16.206   4.329
35001W        W 3375  25.131  41.900  12.856
35002W        W 3376   5.918  25.593  12.903
35003W        W 3377  14.659  39.901   1.221
35004W        W 3378  43.827  42.355  11.482
35005W        W 3379   1.460   5.294  10.580
35006W        W 3380  11.354  11.161  12.895
35007W        W 3381  17.194  23.640  11.864
35008W        W 3382  17.255  25.109   0.794
35009W        W 3383  33.523  40.304  13.986
35010W        W 3384  10.644  36.023  11.127
35011W        W 3385  20.571  14.764   4.782
35012W        W 3386  32.538  16.761   0.753
35013W        W 3387  11.283  29.607   0.287
35014W        W 3388  14.319   5.322  13.910
35015W        W 3389  25.019  25.977  13.449
35016W        W 3390  14.243  32.037   3.191
35017W        W 3391  33.962  39.923   1.384
35018W        W 3392  20.111  15.809  13.887
35019W        W 3393  27.018  41.534   1.694
35020W        W 3394  14.251   2.234  10.499
35021W        W 3395  10.758  22.084  13.369
35022W        W 3396  43.826  28.182   3.755
35023W        W 3397  10.341  34.375  10.063
35024W        W 3398   8.270  20.554  14.810
35025W        W 3399  19.077  41.468  14.288
35026W        W 3400  36.380  41.819   2.851
35027W        W 3401  19.553   0.977  13.037
35028W        W 3402   2.286  37.952  12.057
35029W        W 3403   4.809  37.384  11.857
35030W        W 3404   5.415  15.111   1.440
35031W        W 3405  31.482  33.452   4.782
35032W        W 3406  33.489  18.081   0.379
35033W        W 3407  34.902  23.210   2.234
35034W        W 3408  16.266  30.627  12.839
35035W        W 3409  33.984  30.058   0.251
35036W        W 3410  41.380  25.593   1.353
35037W        W 3411   7.345  18.786  13.468
35038W        W 3412   3.429   9.686   2.842
35039W        W 3413  11.155  24.001   1.841
35040W        W 3414  22.998  30.655  12.006
35041W        W 3415  23.175  28.454   5.636
35042W        W 3416  32.593   4.871  13.831
35043W        W 3417  37.387  13.634   3.223
35044W        W 3418  41.297  21.176   3.221
35045W        W 3419  17.639  31.530   0.950
35046W        W 3420  37.022  26.104  10.519
35047W        W 3421  39.812   4.742  12.365
35048W        W 3422  38.450  27.004   1.738
35049W        W 3423  22.151  20.529  11.915
35050W        W 3424  35.967  15.767   3.734
35051W        W 3425  11.777  26.076  14.988
35052W        W 3426  30.126  20.220  14.436
35053W        W 3427  24.179  43.454   4.617
35054W        W 3428  20.176   1.300   2.743
35055W        W 3429   1.765  27.529   0.362
35056W        W 3430  21.674  42.974   1.911
35057W        W 3431  39.857  10.841  12.943
35058W        W 3432   8.252   9.750  14.937
35059W        W 3433  33.597   8.872   4.319
35060W        W 3434  20.050   9.776  12.364
35061W        W 3435  43.975  24.088  11.942
35062W        W 3436  30.149  15.286  11.504
35063W        W 3437  12.313  25.478  12.957
35064W        W 3438  37.876  36.078   3.159
35065W        W 3439  41.952  28.987  14.934
35066W        W 3440  16.652  44.959  13.848
35067W        W 3441  25.210  39.003  14.826
35068W        W 3442  16.802   9.277  10.608
35069W        W 3443  19.633  15.233  10.542
35070W        W 3444  41.926  36.398   1.840
35071W        W 3445  30.616  17.678   0.449
35072W        W 3446   9.865  11.188  12.994
35073W        W 3447  32.535   3.458  13.527
35074W        W 3448   5.856  29.015  10.958
35075W        W 3449  25.651  38.408  13.486
35076W        W 3450  14.225  39.438   0.349
35077W        W 3451  24.086  40.410   3.839
35078W        W 3452  22.226  11.629   2.396
35079W        W 3453  28.983   1.463   2.362
35080W        W 3454  33.467   5.696  10.405
35081W        W 3455  17.635  31.646   4.143
35082W        W 3456  18.771  41.016  12.088
35083W        W 3457  11.680  18.245   3.824
35084W        W 3458  23.185  42.023   2.755
35085W        W 3459  20.614  27.665   1.322
35086W        W 3460  22.657   8.379  13.452
35087W        W 3461  21.668  12.762   4.674
35088W        W 3462  14.162  43.339  11.120
35089W        W 3463   5.287   9.766   4.226
35090W        W 3464   7.380  17.762  11.071
35091W        W 3465  42.902  40.521   1.443
35092W        W 3466  33.001  27.006   0.835
35093W        W 3467  10.210  12.725   1.390
35094W        W 3468  31.897  20.272  10.576
35095W        W 3469  21.033  38.512   1.370
35096W        W 3470  35.033  28.530  11.938
35097W        W 3471  15.267   2.815   3.300
35098W        W 3472   4.922  26.519  12.512
35099W        W 3473  36.950  27.620  10.540
35100W        W 3474  36.918  34.004   0.967
35101W        W 3475  38.838   9.349  13.867
35102W        W 3476  19.198  18.778   0.437
35103W        W 3477   1.878  24.515  12.839
35104W        W 3478  14.153  36.923   2.848
35105W        W 3479  28.033   2.814   1.712
35106W        W 3480  38.911  25.554   1.229
35107W        W 3481   8.692  15.771  10.542
35108W        W 3482   3.336  31.486  10.620
35109W        W 3483  30.084  42.933   3.179
35110W        W 3484  12.720  28.116   3.330
35111W        W 3485  27.528   1.896   4.734
35112W        W 3486  40.436  19.648  11.083
35113W        W 3487  30.546  44.464   4.130
35114W        W 3488  20.745  20.102   3.862
35115W        W 3489  34.957   2.761   0.332
35116W        W 3490  31.971   5.807  11.594
35117W        W 3491  44.387  43.512  13.359
35118W        W 3492  17.209  25.474  14.890
35119W        W 3493  11.266  15.210   2.781
35120W        W 3494  21.142   3.890   1.801
35121W        W 3495   5.866   3.295   2.298
35122W        W 3496   0.937  36.438  14.389
35123W        W 3497  29.035  34.882  11.024
35124W        W 3498  34.911  27.134  10.457
35125W        W 3499  13.655  17.247   2.245
35126W        W 3500  33.431  12.773   2.669
35127W        W 3501   0.801  26.022  12.551
35128W        W 3502  33.395  19.075   4.814
35129W        W 3503  42.331  26.150   3.661
35130W        W 3504  28.958  37.342   9.928
35131W        W 3505  19.645  27.624  14.780
35132W        W 3506  36.849  23.530   1.736
35133W        W 3507  37.949   2.827  11.098
35134W        W 3508  20.540   5.877  12.896
35135W        W 3509  29.587  37.853  12.009
35136W        W 3510  33.006  40.532  10.433
35137W        W 3511  24.499   7.232  12.836
35138W        W 3512  23.104  14.102   4.176
35139W        W 3513  39.933  30.518  11.073
35140W        W 3514  10.752  14.230  14.318
35141W        W 3515  32.549  22.024  12.457
35142W        W 3516  13.195   1.444  12.493
35143W        W 3517  18.123  26.052  12.425
35144W        W 3518  30.416  13.156  10.426
35145W        W 3519  20.665  24.173  11.548
35146W        W 3520  18.582  40.304  14.904
35147W        W 3521   9.245  22.230   1.707
35148W        W 3522   0.777  37.347  13.033
35149W        W 3523  31.476  25.696  14.883
35150W        W 3524  30.486  16.628  14.011
35151W        W 3525   6.218  27.593   1.310
35152W        W 3526  38.038  43.965  12.563
35153W        W 3527  29.127  24.185  12.428
35154W        W 3528  30.600   5.294  13.383
35155W        W 3529   4.711   8.699  12.443
35156W        W 3530   1.263  17.772   2.331
35157W        W 3531  27.093  17.794   4.698
35158W        W 3532  13.325  14.637  13.509
35159W        W 3533  27.106   5.333   3.382
35160W        W 3534  38.916  25.469   4.806
35161W        W 3535   1.847  33.033  14.450
35162W        W 3536  26.694  26.468   1.824
35163W        W 3537  40.384  24.697   4.825
35164W        W 3538  40.464  42.503   2.264
35165W        W 3539   2.741   3.723   0.444
35166W        W 3540  40.360  11.654  13.025
35167W        W 3541  22.236  34.401  11.915
35168W        W 3542  10.706   2.322   0.887
35169W        W 3543   4.870  31.087  12.023
35170W        W 3544  30.061  40.460   1.338
35171W        W 3545  40.016  33.036   4.828
35172W        W 3546  12.774   9.300   3.316
35173W        W 3547   0.399   3.755   4.158
35174W        W 3548  23.184   7.768  11.038
35175W        W 3549  22.053  16.251   0.846
35176W        W 3550  32.019   3.234   4.737
35177W        W 3551   1.248  23.236   1.759
35178W        W 3552  26.563  10.218   2.820
35179W        W 3553  35.450  13.683  13.795
35180W        W 3554  34.911  44.959  13.937
35181W        W 3555  35.497  43.829   1.912
35182W        W 3556  36.527  34.420   0.788
35183W        W 3557   2.792  38.559   3.688
35184W        W 3558  21.261  13.226   2.282
35185W        W 3559  23.617   8.678   1.727
35186W        W 3560  24.041  36.508   2.415
35187W        W 3561  27.190  27.079   2.696
35188W        W 3562  18.074  10.138   0.953
35189W        W 3563  23.167  26.121   0.860
35190W        W 3564   2.293   4.882  13.523
35191W        W 3565  26.094  12.761  14.800
35192W        W 3566  28.550  34.427  10.622
35193W        W 3567  13.758  33.958  10.544
35194W        W 3568  33.472  37.017   0.805
35195W        W 3569  25.538   4.433  14.932
35196W        W 3570  29.136   7.857  12.983
35197W        W 3571  26.541  32.920   0.373
35198W        W 3572  23.651  35.547   2.186
35199W        W 3573   8.721  35.563  10.423
35200W        W 3574  38.018  30.469  12.096
35201W        W 3575   4.446  17.736   4.241
35202W        W 3576  44.366  15.809   1.333
35203W        W 3577  43.944   9.868   2.788
35204W        W 3578  33.431  21.556  10.540
35205W        W 3579   8.692  11.783   5.171
35206W        W 3580  31.607  11.829   1.860
35207W        W 3581   1.391  19.768   1.371
35208W        W 3582  24.553  25.015  10.547
35209W        W 3583  41.002  26.076   3.758
35210W        W 3584  19.608   9.295  14.983
35211W        W 3585   2.869  30.414  11.483
35212W        W 3586   6.712  11.281  14.393
35213W        W 3587  21.742  21.175   0.397
35214W        W 3588  34.462  24.526   3.224
35215W        W 3589  32.524   2.922   0.737
35216W        W 3590  21.593  43.900   2.705
35217W        W 3591  32.971  11.810  12.530
35218W        W 3592  24.090   0.309  12.354
35219W        W 3593  21.231  18.602   0.417
35220W        W 3594  21.566  15.114   4.329
35221W        W 3595  19.725  31.601   1.256
35222W        W 3596  42.832  44.844   1.304
35223W        W 3597  36.059  28.040  14.855
35224W        W 3598  33.922   0.453  11.495
35225W        W 3599  31.050   6.341  11.481
35226W        W 3600  14.304  25.680   3.655
35227W        W 3601  19.599  24.992  10.937
35228W        W 3602  43.389   7.746   4.190
35229W        W 3603   3.939  34.045  12.539
35230W        W 3604   4.801  36.075  13.451
35231W        W 3605  36.383  31.144   1.775
35232W        W 3606  32.416  26.640  12.370
35233W        W 3607  27.499   7.672  10.449
35234W        W 3608   9.233  34.454  11.429
35235W        W 3609   7.404  15.719  12.824
35236W        W 3610  27.545  38.496   3.638
35237W        W 3611  44.276  16.589   2.311
35238W        W 3612  33.899  42.501  14.869
35239W        W 3613  21.229  44.928   1.814
35240W        W 3614   8.714   8.656   1.274
35241W        W 3615  35.894  18.178  12.912
35242W        W 3616   7.336  31.564   3.870
35243W        W 3617  19.686  23.554  11.971
35244W        W 3618  32.397   7.846   4.653
35245W        W 3619  42.028  22.728   3.661
35246W        W 3620  29.149  38.065   3.660
35247W        W 3621  18.277  21.745  14.024
35248W        W 3622  21.602  38.445   1.898
35249W        W 3623   5.251  14.138   4.755
35250W        W 3624  39.498   0.302   1.854
35251W        W 3625  26.143  22.145   1.795
35252W        W 3626  15.615  33.469  12.517
35253W        W 3627   4.356  33.033   1.718
35254W        W 3628   6.760  10.306   4.777
35255W        W 3629  37.409  38.326  13.457
35256W        W 3630  36.350   3.750   1.242
35257W        W 3631  30.130  19.177   4.211
35258W        W 3632  26.537   1.861   1.315
35259W        W 3633  13.147  34.068  12.959
35260W        W 3634  39.549  39.478   4.633
35261W        W 3635   5.881  25.962   3.654
35262W        W 3636   7.291   1.468  12.022
35263W        W 3637  33.578  18.270   5.225
35264W        W 3638  11.865  43.983  14.360
35265W        W 3639  13.645  24.598   3.798
35266W        W 3640  20.159  29.522  14.904
35267W        W 3641  29.472  30.944   2.378
35268W        W 3642  24.044  43.486  12.461
35269W        W 3643  27.592  41.416   4.185
35270W        W 3644  35.578   2.946   4.317
35271W        W 3645  27.621  42.303  10.905
35272W        W 3646  25.590  24.483  13.958
35273W        W 3647  16.250  11.361   4.233
35274W        W 3648   8.803  16.588   0.944
35275W        W 3649   3.337  11.164  13.805
35276W        W 3650   4.204  38.424   2.229
35277W        W 3651   3.928  20.118  13.396
35278W        W 3652  39.829  19.170   3.642
35279W        W 3653  13.165  31.436  12.523
35280W        W 3654  15.661  25.567  14.381
35281W        W 3655  14.227   9.386  14.321
35282W        W 3656   3.730  34.115  11.960
35283W        W 3657  15.713  39.400  13.411
35284W        W 3658   2.898  10.307   0.304
35285W        W 3659  15.745  38.974   2.885
35286W        W 3660  40.013  43.473  11.979
35287W        W 3661  35.401  37.830  11.024
35288W        W 3662  17.285   5.740   3.868
35289W        W 3663  14.217  19.101  11.113
35290W        W 3664   2.746   0.297   0.877
35291W        W 3665   2.888   2.420   0.800
35292W        W 3666  34.605  23.159   3.178
35293W        W 3667  33.121  26.476  10.584
35294W        W 3668  34.980   0.375   0.337
35295W        W 3669  24.214   8.693  10.531
35296W        W 3670  17.798  35.958   4.129
35297W        W 3671   2.938  13.764   4.730
35298W        W 3672  43.773  29.069  11.869
35299W        W 3673  28.105  19.649   4.679
35300W        W 3674  27.612  34.376   4.298
35301W        W 3675  14.821  16.077  11.575
35302W        W 3676   9.655   5.336  11.580
35303W        W 3677  44.775   8.335   1.787
35304W        W 3678   3.431  15.206   0.348
35305W        W 3679   2.805  29.043   4.271
35306W        W 3680  14.664  28.091  14.497
35307W        W 3681  11.722  44.357   3.770
35308W        W 3682   7.764  37.849   0.476
35309W        W 3683   5.915  36.497   2.830
35310W        W 3684  42.448  23.610  10.972
35311W        W 3685  14.175   1.740  14.387
35312W        W 3686  15.647  17.093   2.366
35313W        W 3687  29.655  31.504  12.036
35314W        W 3688  18.161  28.585   3.166
35315W        W 3689   9.744  14.270  11.913
35316W        W 3690  20.755   1.765   1.290
35317W        W 3691  15.155  30.912  13.497
35318W        W 3692  20.729   8.764  14.809
35319W        W 3693  35.980  13.766   4.309
35320W        W 3694  35.932  37.904  11.372
35321W        W 3695  29.084  35.881   3.205
35322W        W 3696   6.304  30.114  13.931
35323W        W 3697  16.126  13.601   1.341
35324W        W 3698  34.599  13.293  11.391
35325W        W 3699  22.074   4.704  12.989
35326W        W 3700   6.314  25.656   1.240
35327W        W 3701  16.298  19.547  14.934
35328W        W 3702  42.953  26.019   3.189
35329W        W 3703  10.771  44.993   4.745
35330W        W 3704   2.813   7.306   3.860
35331W        W 3705  33.984  19.088  13.844
35332W        W 3706  21.242  18.256  12.424
35333W        W 3707  21.740   9.176  11.493
35334W        W 3708  39.924  31.425   4.308
35335W        W 3709   8.295  33.950   1.338
35336W        W 3710  30.590   7.876  14.429
35337W        W 3711  10.156  37.034  13.890
35338W        W 3712  19.113  32.139  12.867
35339W        W 3713  15.286  24.075  11.579
35340W        W 3714  25.528  40.469   2.371
35341W        W 3715  22.087  41.999   1.307
35342W        W 3716  23.695   1.412   2.894
35343W        W 3717  14.301   2.724   1.811
35344W        W 3718  20.228   1.947   0.448
35345W        W 3719  26.089  27.050  13.941
35346W        W 3720  11.746  15.118  10.933
35347W        W 3721  11.338  38.409  10.891
35348W        W 3722  18.052   2.758  14.442
35349W        W 3723  37.355  17.752  11.609
35350W        W 3724  25.124  40.022  11.376
35351W        W 3725   4.275  26.059  14.409
35352W        W 3726  39.518  16.672   4.730
35353W        W 3727   3.856  12.127   0.961
35354W        W 3728   3.930  24.518   3.376
35355W        W 3729  22.538  14.191  14.836
35356W        W 3730  11.624  34.599   4.269
35357W        W 3731  42.787  33.922  14.402
35358W        W 3732  20.122  41.331   3.648
35359W        W 3733   3.913   1.481  10.459
35360W        W 3734  24.024   8.882  12.843
35361W        W 3735  20.123   5.196  13.001
35362W        W 3736  17.654  43.288   0.917
35363W        W 3737   8.788  24.592  12.436
35364W        W 3738  23.617  32.433   9.506
35365W        W 3739  43.373  19.137  12.486
35366W        W 3740   3.445  43.418  11.404
35367W        W 3741   3.886  32.999  11.541
35368W        W 3742  44.826  21.143   3.663
35369W        W 3743  34.959  32.132  13.818
35370W        W 3744   0.770  21.030  13.397
35371W        W 3745   4.882  14.659   3.280
35372W        W 3746   4.360  39.028   2.834
35373W        W 3747  30.558  43.499   0.377
35374W        W 3748  24.185   8.877  12.504
35375W        W 3749  31.082   4.441  10.631
35376W        W 3750  24.149  11.835   0.935
35377W        W 3751  28.070  38.011  14.355
35378W        W 3752   5.809  13.821   0.350
35379W        W 3753  28.675  18.655   0.920
35380W        W 3754   1.372  18.273  13.545
35381W        W 3755  44.818  33.614   4.337
35382W        W 3756  35.864  15.235  11.447
35383W        W 3757  32.430  20.073  12.006
35384W        W 3758  10.718  17.100  11.427
35385W        W 3759   8.676  29.127  14.998
35386W        W 3760  25.621   8.212   4.721
35387W        W 3761  23.729  44.260   4.612
35388W        W 3762  41.041  31.033   1.930
35389W        W 3763  31.050  25.159   2.828
35390W        W 3764  10.247  13.244   0.444
35391W        W 3765  40.340  19.647   0.860
35392W        W 3766  15.127   6.426   4.157
35393W        W 3767  26.513  24.575   3.724
35394W        W 3768  18.190  27.139   4.201
35395W        W 3769   8.347  11.778   0.809
35396W        W 3770  32.473  25.670   4.765
35397W        W 3771  32.618  41.395   0.918
35398W        W 3772   7.375  13.301  14.379
35399W        W 3773  44.982  41.025  14.962
35400W        W 3774   8.668  40.846  11.969
35401W        W 3775  34.405  29.171   0.803
35402W        W 3776   2.426  17.220   0.763
35403W        W 3777  39.551  33.089  11.563
35404W        W 3778   2.284  36.906  14.421
35405W        W 3779  16.229   7.283  10.912
35406W        W 3780  20.649  36.991  13.915
35407W        W 3781  21.646  29.962  12.520
35408W        W 3782   1.739   7.666  14.404
35409W        W 3783  27.466  37.536   0.862
35410W        W 3784  30.491   7.766   0.397
35411W        W 3785  13.142  22.106  13.450
35412W        W 3786  33.046  40.961   1.239
35413W        W 3787  16.076  38.045   1.865
35414W        W 3788  28.929  17.110  12.347
35415W        W 3789  25.971  12.248   4.813
35416W        W 3790  21.526   3.454   4.223
35417W        W 3791  27.198  26.656   1.903
35418W        W 3792  31.621  27.064   4.316
35419W        W 3793  35.905   6.312   2.774
35420W        W 3794   4.223  20.037   3.644
35421W        W 3795  22.142  30.973   2.354
35422W        W 3796  13.281  41.866  14.436
35423W        W 3797  37.069  37.509   0.747
35424W        W 3798  19.759  32.907  10.448
35425W        W 3799  13.184  18.136   4.778
35426W        W 3800  32.081  32.945   9.920
35427W        W 3801  17.600   0.314   2.853
35428W        W 3802   0.835   7.761   0.481
35429W        W 3803  31.004  12.175  12.930
35430W        W 3804  25.188  30.601   0.891
35431W        W 3805  43.501  34.909  13.835
35432W        W 3806   7.248  29.430  14.414
35433W        W 3807  33.914  22.228  11.866
35434W        W 3808  17.707  35.095  14.491
35435W        W 3809  32.124  40.813  14.305
35436W        W 3810  23.221  36.548   1.845
35437W        W 3811   2.279  17.687  13.875
35438W        W 3812  29.590  36.420  14.992
35439W        W 3813   0.420   0.831   4.690
35440W        W 3814   3.908  34.411  14.298
35441W        W 3815   4.861  34.059  14.480
35442W        W 3816  37.030   4.817  11.082
35443W        W 3817  13.329   8.804  13.932
35444W        W 3818   2.470  24.018   4.160
35445W        W 3819  30.037  28.060  14.282
35446W        W 3820   3.822  22.165  10.628
35447W        W 3821  17.571   5.903  14.973
35448W        W 3822  27.184   5.897   2.702
35449W        W 3823  13.291   2.967   0.361
35450W        W 3824  20.560   1.851  14.804
35451W        W 3825  44.916  24.581   4.645
35452W        W 3826   1.882  10.719   0.341
35453W        W 3827   8.846  33.463  10.449
35454W        W 3828  25.115  22.146   1.386
35455W        W 3829  22.231   1.321   4.673
35456W        W 3830  18.723  36.853  12.907
35457W        W 3831  24.723  28.508  13.969
35458W        W 3832  18.747   1.432   4.161
35459W        W 3833   8.190  32.619  13.919
35460W        W 3834   9.198  38.563  11.882
35461W        W 3835  36.536  42.959   0.447
35462W        W 3836   9.392   8.346   0.746
35463W        W 3837  32.469   2.732   2.200
35464W        W 3838  36.035   0.803   0.805
35465W        W 3839  19.533  29.495  12.838
35466W        W 3840  24.121  23.685   1.438
35467W        W 3841  22.723   6.224   0.296
35468W        W 3842  29.553  35.454  14.835
35469W        W 3843  43.352  35.601  11.880
35470W        W 3844   1.258  25.186  14.842
35471W        W 3845  22.578  33.009   4.253
35472W        W 3846  23.194  20.226   1.359
35473W        W 3847  38.037  43.957  13.015
35474W        W 3848  29.517  14.594   2.364
35475W        W 3849  25.138  30.165   9.439
35476W        W 3850  43.970  18.150   4.797
35477W        W 3851  19.188  21.033   3.746
35478W        W 3852  29.446  36.045   0.379
35479W        W 3853  43.288  31.933   2.262
35480W        W 3854  12.685   1.315  14.924
35481W        W 3855  35.014  42.993  10.627
35482W        W 3856  22.243  42.511  10.446
35483W        W 3857   4.256  14.192   1.927
35484W        W 3858  27.581   0.787  13.058
35485W        W 3859  23.104  12.722  14.491
35486W        W 3860  12.325   9.693  12.841
35487W        W 3861  25.650  43.851  14.312
35488W        W 3862  25.480  28.603  12.075
35489W        W 3863  42.388  17.241   0.279
35490W        W 3864  29.136  11.304   3.707
35491W        W 3865  30.035  25.039  14.325
35492W        W 3866  11.329  41.993  11.586
35493W        W 3867  19.703  33.007  11.900
35494W        W 3868   3.937   5.260   0.767
35495W        W 3869  28.586  15.097   0.318
35496W        W 3870  24.634  16.197  11.068
35497W        W 3871  23.213   6.257  14.846
35498W        W 3872  25.517  17.146  12.840
35499W        W 3873  33.497  18.076   2.761
35500W        W 3874  43.320  39.045   0.750
35501W        W 3875  26.506   3.844   0.846
35502W        W 3876  44.792  14.649  13.459
35503W        W 3877  42.824   1.472   0.421
35504W        W 3878  25.559  22.082  13.920
35505W        W 3879  17.183  21.587  12.385
35506W        W 3880  11.671  11.144   0.377
35507W        W 3881  22.227  30.034   9.949
35508W        W 3882  24.103  20.693   2.207
35509W        W 3883   4.361  32.072  11.924
35510W        W 3884  32.097  19.096   3.636
35511W        W 3885  41.495   6.263  12.553
35512W        W 3886  29.536  40.324  14.928
35513W        W 3887  44.332  38.825  13.308
35514W        W 3888  27.951  18.125  11.121
35515W        W 3889  23.583  16.098  13.504
35516W        W 3890  40.019  32.986   1.394
35517W        W 3891   2.267   0.776  12.455
35518W        W 3892  28.622  20.698   1.421
35519W        W 3893  15.724  24.055  10.526
35520W        W 3894   7.270  16.150  12.479
35521W        W 3895  19.111   5.892  13.028
35522W        W 3896  28.524  44.899  12.999
35523W        W 3897  42.445  41.827  11.588
35524W        W 3898  20.186  27.991   1.703
35525W        W 3899  37.536  41.992  13.493
35526W        W 3900  11.336  38.982   1.271
35527W        W 3901  22.710   8.881   5.136
35528W        W 3902  43.004  27.967  13.021
35529W        W 3903  17.665   1.818   1.393
35530W        W 3904  36.952  16.596   1.380
35531W        W 3905  25.643  41.531  11.111
35532W        W 3906  15.106  15.234   2.886
35533W        W 3907  31.021  41.802  11.395
35534W        W 3908  32.957  27.661   3.306
35535W        W 3909  18.787  41.396   2.728
35536W        W 3910  18.763  17.622  13.995
35537W        W 3911  16.608  41.789   1.346
35538W        W 3912  10.690  15.227  14.303
35539W        W 3913   4.259  17.672   2.842
35540W        W 3914  30.494  31.583  11.057
35541W        W 3915  39.410  16.618   3.662
35542W        W 3916  19.124  39.914  11.389
35543W        W 3917  29.435  37.366  10.513
35544W        W 3918  44.259  37.858  11.959
35545W        W 3919  24.990  28.107   2.784
35546W        W 3920  26.649   0.979   4.330
35547W        W 3921  20.566  28.567  13.454
35548W        W 3922  29.629  12.307   1.435
35549W        W 3923  31.917  34.034   3.183
35550W        W 3924  14.233  29.667   1.739
35551W        W 3925  35.082  36.047   2.350
35552W        W 3926  35.471  41.897   3.753
35553W        W 3927  19.768  21.243   5.081
35554W        W 3928  32.005  25.108  14.361
35555W        W 3929  39.313   1.396   0.267
35556W        W 3930  11.853  23.573  10.910
35557W        W 3931  12.217   4.861   0.348
35558W        W 3932  27.081  21.571  13.967
35559W        W 3933  27.016  17.744   3.776
35560W        W 3934  13.796   9.729   4.165
35561W        W 3935  13.205  36.451   1.708
35562W        W 3936   0.866   9.691  13.495
35563W        W 3937  18.160  33.398  12.096
35564W        W 3938   8.315  43.813   1.400
35565W        W 3939  30.450   6.323  14.445
35566W        W 3940  44.268  26.643  12.990
35567W        W 3941  17.270  28.562  11.036
35568W        W 3942  32.637  26.095  14.455
35569W        W 3943  40.329  32.451  11.999
35570W        W 3944   6.341  39.353  12.466
35571W        W 3945  44.462  36.537   4.182
35572W        W 3946  28.106  18.272  14.767
35573W        W 3947  40.969  10.802   0.952
35574W        W 3948  42.014  25.985  11.961
35575W        W 3949  21.174  43.927  14.960
35576W        W 3950  24.593   7.231   0.439
35577W        W 3951  36.080   8.345   4.327
35578W        W 3952  28.472  40.347   0.265
35579W        W 3953  30.947  12.769  14.497
35580W        W 3954  18.774  44.360   2.850
35581W        W 3955  28.148  30.421   2.254
35582W        W 3956  34.442   3.772  14.905
35583W        W 3957  25.645  29.641   3.202
35584W        W 3958  24.557  12.715  14.955
35585W        W 3959  32.510  36.528  11.911
35586W        W 3960  34.595   5.241   1.695
35587W        W 3961  33.550  13.105   5.177
35588W        W 3962  13.679  20.657  14.946
35589W        W 3963   3.864   8.771   0.802
35590W        W 3964  29.499  39.971   2.870
35591W        W 3965  22.095  15.606   0.412
35592W        W 3966  16.670  27.017  14.473
35593W        W 3967  39.471   9.715   3.811
35594W        W 3968  22.739  27.533   4.616
35595W        W 3969  30.965  32.498   4.728
35596W        W 3970  43.900  12.817  11.010
35597W        W 3971  19.109  19.107  10.444
35598W        W 3972  30.106  42.792  10.601
35599W        W 3973  31.571  14.800  14.352
35600W        W 3974  25.992   8.244  13.488
35601W        W 3975  25.997  37.417   4.733
35602W        W 3976  32.495  21.030  10.449
35603W        W 3977  41.377   3.238   0.781
35604W        W 3978  11.267   5.274   1.340
35605W        W 3979  38.501  30.650  10.444
35606W        W 3980  34.941  27.115  14.924
35607W        W 3981  27.072   3.762   3.837
35608W        W 3982  30.958  15.158   0.320
35609W        W 3983  20.548   3.248   4.751
35610W        W 3984  44.836  14.249   2.669
35611W        W 3985  22.032  21.517   3.343
35612W        W 3986  44.803  18.156   0.791
35613W        W 3987  18.292  25.161   1.905
35614W        W 3988  22.102   6.818   3.209
35615W        W 3989  31.899  15.325  11.911
35616W        W 3990  19.063  34.503   2.261
35617W        W 3991  35.411  32.615  11.523
35618W        W 3992  17.616  39.824   2.419
35619W        W 3993  16.090  29.986   0.733
35620W        W 3994   8.694  28.630  10.070
35621W        W 3995  17.137   0.384   2.725
35622W        W 3996   0.937   5.225  11.481
35623W        W 3997   1.955  32.910   0.735
35624W        W 3998  10.858   9.216   2.287
35625W        W 3999  17.565  13.192   3.743
35626W        W 4000  39.040  21.049   2.882
35627W        W 4001   5.848   8.215   0.391
35628W        W 4002  40.475   1.784   3.308
35629W        W 4003  17.207  18.071   1.417
35630W        W 4004  41.361  40.316  11.404
35631W        W 4005  16.670  15.268   3.774
35632W        W 4006  17.238  34.491   2.219
35633W        W 4007  27.449  17.593   4.264
35634W        W 4008   5.687  19.712   4.652
35635W        W 4009  25.708  24.120   4.156
35636W        W 4010   1.426   6.762   1.772
35637W        W 4011  27.536  24.204   1.383
35638W        W 4012  44.006  30.529  13.858
35639W        W 4013  41.326  17.082   3.741
35640W        W 4014  13.840  36.081  11.481
35641W        W 4015  25.614  38.482   2.338
35642W        W 4016  16.766  25.215   0.354
35643W        W 4017  13.352   7.781   3.317
35644W        W 4018   2.757  19.777  14.280
35645W        W 4019  43.344   0.953  11.541
35646W        W 4020  44.380  36.045   0.456
35647W        W 4021  20.143   3.865  14.804
35648W        W 4022  37.028  20.083  14.985
35649W        W 4023  38.538  27.954  13.477
35650W        W 4024  19.247  29.587   0.277
35651W        W 4025  35.550  31.907  11.014
35652W        W 4026  10.167  42.440  12.967
35653W        W 4027  38.405  15.164   1.236
35654W        W 4028   6.846   4.813  10.101
35655W        W 4029  26.609  13.208   3.193
35656W        W 4030  30.419   0.451   2.760
35657W        W 4031  17.294  41.033   1.920
35658W        W 4032  43.776  39.930   0.837
35659W        W 4033  30.910  33.071   3.378
35660W        W 4034   1.443  41.822  12.952
35661W        W 4035  15.137  21.160  13.829
35662W        W 4036  32.039  30.587  14.813
35663W        W 4037  39.858  17.105   2.835
35664W        W 4038  35.530  28.467   3.675
35665W        W 4039  19.627  42.902   2.293
35666W        W 4040   2.377  44.457   1.388
35667W        W 4041  27.579  34.120   3.667
35668W        W 4042  15.675   5.261   0.455
35669W        W 4043  15.811  15.620  12.042
35670W        W 4044   3.938  37.396  14.940
35671W        W 4045  23.577  24.515  12.534
35672W        W 4046  22.562   6.897   3.181
35673W        W 4047  31.103  41.397  13.919
35674W        W 4048   2.240  28.661  11.415
35675W        W 4049  37.362  42.955   3.168
35676W        W 4050  15.182   2.271  13.063
35677W        W 4051  38.940  21.662   0.867
35678W        W 4052  43.844  39.926  14.378
35679W        W 4053  40.508  44.351   3.761
35680W        W 4054  29.033  24.092   2.822
35681W        W 4055  26.542  39.383   0.871
35682W        W 4056  40.037  25.706  14.468
35683W        W 4057  15.748   3.801  11.881
35684W        W 4058   9.358  19.151  13.345
35685W        W 4059  20.053  40.925  14.281
35686W        W 4060  43.340  10.372  11.948
35687W        W 4061  26.490   9.667   2.339
35688W        W 4062  43.509  23.723  14.794
35689W        W 4063  16.239  37.055   0.424
35690W        W 4064  34.945  14.316   1.329
35691W        W 4065  37.456  13.172  12.543
35692W        W 4066  11.150  20.742   2.720
35693W        W 4067  11.670  37.025   1.873
35694W        W 4068  26.697  42.031   4.662
35695W        W 4069   3.365   9.191  14.499
35696W        W 4070  30.106  42.961   2.791
35697W        W 4071  21.597  31.619   1.407
35698W        W 4072  24.614  22.556  11.576
35699W        W 4073  31.019  34.374  10.902
35700W        W 4074  30.464   1.376   2.372
35701W        W 4075  41.393  12.292   3.795
35702W        W 4076   5.758   3.852  12.430
35703W        W 4077  11.252  12.686  11.025
35704W        W 4078  24.538   6.375  10.936
35705W        W 4079  24.516  41.519   3.816
35706W        W 4080  19.723  28.123  14.761
35707W        W 4081  40.503  18.734   2.835
35708W        W 4082  23.491  16.086  14.482
35709W        W 4083  14.680  40.900   2.709
35710W        W 4084  44.432  40.940  12.993
35711W        W 4085  24.076  34.443  13.524
35712W        W 4086  18.269  33.947  11.915
35713W        W 4087  37.936   7.832   9.963
35714W        W 4088  43.931  22.160   3.690
35715W        W 4089  18.112  42.847   4.618
35716W        W 4090  31.587  35.954   4.186
35717W        W 4091  16.099  42.936  14.870
35718W        W 4092  28.175   1.801  10.638
35719W        W 4093  13.258  19.617   0.945
35720W        W 4094   0.302  21.172  10.892
35721W        W 4095  16.181  30.956  12.474
35722W        W 4096  31.602  12.140   1.761
35723W        W 4097   2.961   8.328   3.752
35724W        W 4098   6.328  35.577  11.559
35725W        W 4099  28.049  42.377  14.879
35726W        W 4100   4.926  10.192  12.086
35727W        W 4101  38.415  38.326  14.340
35728W        W 4102  21.575  36.883   2.386
35729W        W 4103  23.187  11.296   4.673
35730W        W 4104   9.248   0.334  11.981
35731W        W 4105  44.320   2.402  10.943
35732W        W 4106   3.217  30.931  14.515
35733W        W 4107  21.625  40.546   3.283
35734W        W 4108   7.699  26.589   3.826
35735W        W 4109  12.205  22.570   4.138
35736W        W 4110   1.790  26.980  11.439
35737W        W 4111  30.908  33.986  11.544
35738W        W 4112  29.127  14.172   2.260
35739W        W 4113  12.257   3.326   1.286
35740W        W 4114  18.627  21.172  11.013
35741W        W 4115   5.276   8.661   0.388
35742W        W 4116  37.976  15.320   2.323
35743W        W 4117  21.692  31.634   5.699
35744W        W 4118   5.410   4.828  14.510
35745W        W 4119  36.951  24.122   3.356
35746W        W 4120  44.898  27.654  12.461
35747W        W 4121   8.308  32.929  14.031
35748W        W 4122  16.198  16.698   3.342
35749W        W 4123   1.853  31.510  14.333
35750W        W 4124  37.038  12.159  12.552
35751W        W 4125  32.109   1.313   3.382
35752W        W 4126  27.120  42.332  12.478
35753W        W 4127  40.508  44.890   1.876
35754W        W 4128  31.509  25.634   2.694
35755W        W 4129   8.318   0.778  13.396
35756W        W 4130  43.952   7.301  11.600
35757W        W 4131   2.788  34.966   4.631
35758W        W 4132  39.956  17.646   4.743
35759W        W 4133   7.793   0.969   3.676
35760W        W 4134   8.337  14.659  11.075
35761W        W 4135  28.679   9.303  13.519
35762W        W 4136  42.909  24.638   2.205
35763W        W 4137  35.108  43.485  12.576
35764W        W 4138  38.036  21.706  14.946
35765W        W 4139  32.915   2.471   4.779
35766W        W 4140   6.259  44.340  12.442
35767W        W 4141  41.505  30.420   0.311
35768W        W 4142  34.589  29.126   3.663
35769W        W 4143  13.275  15.718   4.659
35770W        W 4144  11.790   6.233   1.732
35771W        W 4145   9.765  29.939   2.374
35772W        W 4146  41.521   2.275   1.290
35773W        W 4147  44.334  30.948   4.699
35774W        W 4148  39.426  11.140  11.470
35775W        W 4149  27.618  17.635  13.047
35776W        W 4150   3.911  14.321   3.153
35777W        W 4151  43.974  41.871   4.255
35778W        W 4152   5.888  27.115  12.936
35779W        W 4153  20.723  14.729   2.354
35780W        W 4154  38.982  35.362   4.330
35781W        W 4155  20.565   2.772   4.267
35782W        W 4156  22.096   5.762  10.970
35783W        W 4157  29.511   9.760  11.447
35784W        W 4158  14.665  30.154   3.651
35785W        W 4159   3.439  31.127   1.780
35786W        W 4160   0.968  22.158  14.512
35787W        W 4161  25.493  39.350   0.957
35788W        W 4162   7.760  23.504  14.327
35789W        W 4163  34.037  34.521   1.357
35790W        W 4164   9.251  33.115  11.400
35791W        W 4165  39.491  20.168  12.502
35792W        W 4166  44.278  22.617  12.088
35793W        W 4167  32.917  28.057  11.488
35794W        W 4168   5.429  25.207   0.913
35795W        W 4169  27.528  11.652   4.758
35796W        W 4170  34.498  22.123   0.881
35797W        W 4171  37.482  26.158  12.579
35798W        W 4172  27.487  35.486  13.951
35799W        W 4173  32.526  13.213   3.869
35800W        W 4174  13.295  28.133  14.283
35801W        W 4175   7.746  39.949  14.001
35802W        W 4176  43.843  37.418  10.027
35803W        W 4177   1.882  33.577   4.294
35804W        W 4178   6.821  38.474   3.812
35805W        W 4179  34.401   7.254   2.817
35806W        W 4180  22.050  17.729   0.804
35807W        W 4181   0.460   6.285  12.847
35808W        W 4182   8.726  17.684  13.376
35809W        W 4183   7.824   6.203  11.087
35810W        W 4184  29.104  30.154  10.577
35811W        W 4185   1.430  26.583   3.276
35812W        W 4186  34.470  29.984   1.279
35813W        W 4187  38.869  21.229   3.376
35814W        W 4188  44.879  22.078  10.467
35815W        W 4189  15.805  32.100   3.225
35816W        W 4190  13.143  36.037   0.315
35817W        W 4191  16.117  26.524   0.877
35818W        W 4192  26.485  12.196   2.385
35819W        W 4193  34.468   9.248   1.698
35820W        W 4194  24.676  17.760  10.484
35821W        W 4195  17.153  42.853   3.255
35822W        W 4196  35.098  15.257  12.343
35823W        W 4197  12.780   1.885   4.186
35824W        W 4198  40.370  14.206   1.821
35825W        W 4199   5.901  36.054   3.753
35826W        W 4200  14.273  15.595  11.484
35827W        W 4201  17.581  12.335  13.456
35828W        W 4202  25.977  32.130  11.126
35829W        W 4203  40.927   4.825   2.399
35830W        W 4204  33.395  37.471   3.184
35831W        W 4205  28.528  22.589  10.581
35832W        W 4206   2.873  41.828   1.263
35833W        W 4207  28.649  33.612   4.137
35834W        W 4208  37.978  26.964   0.455
35835W        W 4209  10.759  19.178  11.413
35836W        W 4210  25.559  40.407   4.777
35837W        W 4211  14.681  40.456   1.386
35838W        W 4212   0.892  44.841   1.417
35839W        W 4213  26.587  16.766  14.032
35840W        W 4214  15.328   7.734   2.295
35841W        W 4215  30.058  31.580  11.399
35842W        W 4216  20.172  15.094  13.902
35843W        W 4217  37.427  15.753   1.720
35844W        W 4218  34.483  13.766  12.990
35845W        W 4219  15.701  44.855   3.387
35846W        W 4220   2.857  23.083   3.331
35847W        W 4221   6.710  16.251  13.792
35848W        W 4222  33.033  39.843   1.862
35849W        W 4223   6.763  27.500   1.330
35850W        W 4224   9.682  36.360  14.968
35851W        W 4225  34.955  26.042   4.768
35852W        W 4226  39.420  28.511  13.971
35853W        W 4227  10.226  36.434  10.468
35854W        W 4228  43.924  13.250  14.918
35855W        W 4229  30.967  26.102   1.428
35856W        W 4230  21.585   0.841  13.375
35857W        W 4231   6.256   9.671   2.868
35858W        W 4232  29.450   9.386   1.773
35859W        W 4233  36.074  19.570  11.469
35860W        W 4234  21.674  43.307  12.488
35861W        W 4235  12.227  12.258   2.839
35862W        W 4236   5.258  23.111   2.363
35863W        W 4237  40.895  14.746  14.465
35864W        W 4238  39.008   8.195  12.371
35865W        W 4239  41.372  32.605  12.443
35866W        W 4240  43.004  30.424   0.346
35867W        W 4241  15.796  11.351  14.277
35868W        W 4242  37.086  17.251   2.233
35869W        W 4243  23.596  25.977  12.981
35870W        W 4244  37.521  11.763   4.668
35871W        W 4245  40.385   9.792  13.900
35872W        W 4246   6.270  18.764   3.232
35873W        W 4247  22.128   6.238   3.381
35874W        W 4248  25.607  36.844   3.337
35875W        W 4249  34.930  36.910   2.718
35876W        W 4250   6.862  33.044  14.484
35877W        W 4251   8.744  14.294  10.075
35878W        W 4252   4.369  36.378  13.439
35879W        W 4253  43.493  10.706   3.164
35880W        W 4254   6.900   3.799   2.833
35881W        W 4255  10.661  43.843   4.727
35882W        W 4256  18.753  31.589  12.844
35883W        W 4257  10.877  30.456   4.145
35884W        W 4258  41.877  36.578  12.847
35885W        W 4259  40.511  23.091   2.755
35886W        W 4260  15.603   3.364  14.912
35887W        W 4261  28.470  25.040  10.540
35888W        W 4262  16.614  39.426   4.603
35889W        W 4263  13.792  31.510   1.829
35890W        W 4264  36.580  12.663   1.810
35891W        W 4265   7.790  11.662  10.965
35892W        W 4266  19.189   6.410  11.424
35893W        W 4267  27.472  36.483   1.838
35894W        W 4268  29.595   7.184  12.955
35895W        W 4269  28.945  37.382  13.943
35896W        W 4270  20.186  13.682  14.848
35897W        W 4271  36.931   0.367   2.275
35898W        W 4272  44.848   2.343   1.755
35899W        W 4273  19.230   6.181  14.477
35900W        W 4274  16.319  26.627   0.473
35901W        W 4275  16.709  28.656   4.699
35902W        W 4276  27.170  12.338   4.664
35903W        W 4277  39.493   6.383   3.799
35904W        W 4278  23.590  29.645  11.591
35905W        W 4279  33.877   7.390   0.854
35906W        W 4280   1.243  11.834  13.427
35907W        W 4281   5.847  11.203   3.255
35908W        W 4282  32.493  16.798  13.443
35909W        W 4283  37.895  26.575   1.816
35910W        W 4284   2.405  34.455  10.453
35911W        W 4285  23.652  23.649  13.501
35912W        W 4286  37.084   1.284   3.817
35913W        W 4287  27.133  36.915   2.211
35914W        W 4288   2.939  34.585  12.090
35915W        W 4289  20.750   8.204  11.989
35916W        W 4290  38.401  27.588   4.285
35917W        W 4291  13.692  13.807  14.450
35918W        W 4292  24.716   4.912  10.101
35919W        W 4293  11.282   7.821   0.868
35920W        W 4294   4.288   9.745  11.045
35921W        W 4295  18.630  12.828  13.447
35922W        W 4296  32.030   2.390  14.431
35923W        W 4297  10.766  26.646  14.331
35924W        W 4298  19.092   5.842   3.227
35925W        W 4299  12.857   0.816   2.757
35926W        W 4300  14.330   6.797  14.852
35927W        W 4301   6.414  18.544   0.802
35928W        W 4302   2.276  17.132  11.869
35929W        W 4303  22.051  40.816  12.837
35930W        W 4304  18.123  20.033  10.456
35931W        W 4305  18.083   4.879   0.835
35932W        W 4306  34.957  17.289  13.506
35933W        W 4307   7.771  16.227   1.842
35934W        W 4308  25.573  35.603   0.901
35935W        W 4309  32.104  33.955  12.080
35936W        W 4310  25.141  26.083  13.930
35937W        W 4311   4.380   5.742  13.939
35938W        W 4312  29.586  23.554   3.146
35939W        W 4313  24.695   9.330  14.998
35940W        W 4314   4.281  27.030   2.263
35941W        W 4315   1.416  17.064  13.519
35942W        W 4316  37.929   2.752   3.317
35943W        W 4317  17.175  26.069   0.450
35944W        W 4318  22.648  33.478  12.570
35945W        W 4319  34.454  27.593   3.171
35946W        W 4320   4.938  38.398   1.216
35947W        W 4321  25.595   1.766  10.486
35948W        W 4322  20.043   6.238  13.348
35949W        W 4323   1.741  17.711  11.558
35950W        W 4324   5.232  30.459  13.366
35951W        W 4325  10.694  40.401  12.091
35952W        W 4326  19.106  31.427   3.255
35953W        W 4327   0.468  43.471  14.364
35954W        W 4328   9.377  24.028   1.768
35955W        W 4329  36.401   8.752   3.262
35956W        W 4330  33.590  19.055  13.543
35957W        W 4331   6.790  36.009  13.028
35958W        W 4332  14.148   7.266  10.575
35959W        W 4333  20.684   5.317  10.967
35960W        W 4334  10.820  20.649  12.055
35961W        W 4335  13.645  44.940  13.899
35962W        W 4336  14.750  21.594   4.318
35963W        W 4337   9.669  34.602  11.508
35964W        W 4338  28.563   5.360  14.021
35965W        W 4339  26.977   4.235   3.148
35966W        W 4340  14.231  39.843  14.866
35967W        W 4341  10.811   2.259  13.420
35968W        W 4342  19.607  29.426  13.423
35969W        W 4343  24.092   1.852   2.195
35970W        W 4344  15.798  14.737  11.972
35971W        W 4345  18.182   3.925   3.791
35972W        W 4346  21.031  35.868   0.938
35973W        W 4347  14.777  38.430  14.999
35974W        W 4348  18.626  14.316  11.989
35975W        W 4349  42.284  20.623  12.367
35976W        W 4350   5.812  41.357   2.405
35977W        W 4351  11.740  31.481   2.205
35978W        W 4352   1.869  39.378  11.604
35979W        W 4353  38.972  15.739   3.273
35980W        W 4354   7.670  11.860  10.153
35981W        W 4355   5.425  12.664   2.411
35982W        W 4356  29.958  31.484  13.368
35983W        W 4357  30.629  28.998   1.696
35984W        W 4358  10.855  40.026   0.438
35985W        W 4359   1.805  27.595   1.807
35986W        W 4360  28.441  29.175   2.742
35987W        W 4361   9.213   9.226  11.872
35988W        W 4362  19.208  33.576   2.722
35989W        W 4363  24.583  16.770  14.470
35990W        W 4364  23.210  11.691  12.064
35991W        W 4365   7.213  40.532  13.390
35992W        W 4366  36.499  14.746  14.437
35993W        W 4367  10.760  23.999  10.516
35994W        W 4368  18.574  38.973   0.843
35995W        W 4369   6.241  18.098  11.051
35996W        W 4370  21.556  33.058  11.511
35997W        W 4371   0.434   5.773  11.860
35998W        W 4372   4.347   5.348   1.754
35999W        W 4373  11.812   2.455  13.471
36000W        W 4374  23.997  44.949  13.874
36001W        W 4375  31.572  37.961   0.453
36002W        W 4376  26.959  12.706  10.999
36003W        W 4377  25.049  27.569   0.895
36004W        W 4378  36.032  17.661  14.515
36005W        W 4379  14.149   3.800   2.773
36006W        W 4380  20.206  32.979   3.761
36007W        W 4381   4.828  13.775   0.881
36008W        W 4382   3.309   0.420   3.186
36009W        W 4383  38.963  40.527   5.267
36010W        W 4384  36.999  33.002   3.745
36011W        W 4385   0.819   0.412   2.392
36012W        W 4386  18.283  22.013   1.849
36013W        W 4387  31.937  26.103   0.828
36014W        W 4388  10.804  36.521   0.814
36015W        W 4389  37.424  44.326   1.708
36016W        W 4390   6.346  20.636   1.449
36017W        W 4391  31.041  30.080  11.071
36018W        W 4392  17.792  14.694  14.424
36019W        W 4393  31.623  24.581  14.921
36020W        W 4394  37.402  19.261  11.385
36021W        W 4395  39.362  21.229   4.702
36022W        W 4396  10.250  30.924   0.851
36023W        W 4397  38.821   4.446   4.642
36024W        W 4398  36.497  42.427   0.370
36025W        W 4399  29.598   3.360   1.776
36026W        W 4400  38.836  24.707   3.250
36027W        W 4401  16.208  30.605   2.738
36028W        W 4402  27.686  24.086   1.871
36029W        W 4403   1.271  24.510   4.688
36030W        W 4404  20.077  15.583   3.259
36031W        W 4405   3.273  20.055  13.822
36032W        W 4406  13.219   3.408  12.043
36033W        W 4407  38.571  35.468   0.458
36034W        W 4408  29.481  20.090   3.372
36035W        W 4409  32.989  32.063   3.345
36036W        W 4410   8.199  14.217  14.017
36037W        W 4411  38.500  42.327  12.925
36038W        W 4412  19.232  12.149  12.005
36039W        W 4413  22.038  21.746   1.752
36040W        W 4414  33.557  37.075   2.811
36041W        W 4415  13.670  23.182   3.356
36042W        W 4416  36.968   8.733  11.519
36043W        W 4417  11.701  38.335   0.886
36044W        W 4418  15.180  19.150  12.396
36045W        W 4419  10.823  36.927   0.272
36046W        W 4420  41.812  17.637  11.557
36047W        W 4421  13.210  40.457   2.359
36048W        W 4422  21.127  18.063  10.932
36049W        W 4423   8.860  36.029   4.207
36050W        W 4424  39.513  14.235   3.344
36051W        W 4425  29.085  12.312  10.505
36052W        W 4426  17.170   1.320   3.812
36053W        W 4427  40.363   9.290  11.382
36054W        W 4428   7.841  33.992  13.911
36055W        W 4429   9.225  26.631   1.308
36056W        W 4430   4.256   6.339  10.461
36057W        W 4431  28.103  43.771   0.849
36058W        W 4432  10.709   7.896   3.815
36059W        W 4433  33.570   8.804   1.843
36060W        W 4434  38.931  38.485  14.924
36061W        W 4435   4.380   6.346   1.264
36062W        W 4436   8.691   4.433  10.644
36063W        W 4437  23.000  25.981  10.580
36064W        W 4438  36.444  21.019   1.829
36065W        W 4439  28.155  20.200  13.461
36066W        W 4440  37.994   0.363   2.686
36067W        W 4441  16.299  18.685  11.005
36068W        W 4442  26.193  40.482  13.799
36069W        W 4443  10.245  37.566  11.561
36070W        W 4444  10.371  16.104  14.363
36071W        W 4445   9.838  40.395  14.785
36072W        W 4446   0.291  16.589  11.892
36073W        W 4447  29.561  20.632   3.818
36074W        W 4448   1.944  31.537  11.543
36075W        W 4449   4.234   7.413   2.810
36076W        W 4450  43.479  30.599   2.271
36077W        W 4451  26.489   1.770   1.864
36078W        W 4452  36.092  24.549   0.320
36079W        W 4453  22.718  24.542  12.095
36080W        W 4454  31.632  34.598   1.724
36081W        W 4455  18.782  34.983  14.891
36082W        W 4456  40.052  26.544   0.408
36083W        W 4457  17.138  42.867  10.071
36084W        W 4458  44.315  11.657   3.235
36085W        W 4459  42.844   2.784   1.252
36086W        W 4460  27.141  38.982  11.560
36087W        W 4461  28.521  33.879  11.513
36088W        W 4462   4.815   0.883  13.060
36089W        W 4463   3.404  31.470   1.911
36090W        W 4464   3.268  26.652   0.282
36091W        W 4465   5.356  23.707   1.367
36092W        W 4466   7.313  39.373   3.166
36093W        W 4467  12.807  18.603  11.957
36094W        W 4468  24.548  35.025   3.263
36095W        W 4469   4.937  32.411   2.207
36096W        W 4470  34.532  37.407   4.656
36097W        W 4471   0.348   8.658   4.129
36098W        W 4472  25.583   0.916  11.524
36099W        W 4473  42.846  30.506   1.908
36100W        W 4474  15.273  38.937  13.868
36101W        W 4475  22.709  44.983   1.814
36102W        W 4476   0.444  15.290  10.955
36103W        W 4477  35.913  28.007   2.777
36104W        W 4478  43.298  32.917  11.048
36105W        W 4479  14.805  32.898   2.665
36106W        W 4480   6.827  29.073  10.033
36107W        W 4481  38.496   8.285   4.704
36108W        W 4482   7.873   6.283   0.901
36109W        W 4483  43.404   5.381   1.879
36110W        W 4484  16.095   5.430  12.376
36111W        W 4485  40.990  24.649   0.267
36112W        W 4486  12.851  23.591  14.929
36113W        W 4487  20.131   5.222   0.465
36114W        W 4488  15.776  23.097  11.592
36115W        W 4489  43.480  22.209   4.343
36116W        W 4490   6.807   4.379   0.435
36117W        W 4491  38.859  38.950   3.184
36118W        W 4492  19.085  36.473  14.967
36119W        W 4493  14.186  33.086   0.444
36120W        W 4494   6.773  38.860   1.801
36121W        W 4495  31.144  36.017   1.399
36122W        W 4496  15.089  13.179   2.712
36123W        W 4497  10.216  37.381  14.923
36124W        W 4498  14.174  17.065  13.059
36125W        W 4499   4.838  15.657  14.793
36126W        W 4500  36.945  42.959   0.768
36127W        W 4501  24.489  33.898   3.243
36128W        W 4502  17.615   1.429  13.512
36129W        W 4503  32.101   5.295  10.640
36130W        W 4504   9.798  40.870   0.759
36131W        W 4505  42.437   1.278  12.525
36132W        W 4506   9.188  21.571  10.889
36133W        W 4507  44.973  17.760  14.831
36134W        W 4508   6.902  30.053   3.377
36135W        W 4509  18.254  32.050   1.769
36136W        W 4510  40.018  27.452   4.204
36137W        W 4511   2.318  27.188   3.865
36138W        W 4512  35.067  43.804   1.849
36139W        W 4513  30.161   3.388  12.061
36140W        W 4514  21.544  22.125   2.260
36141W        W 4515  13.752   0.390   0.481
36142W        W 4516  15.328  13.313  10.447
36143W        W 4517   3.853  19.709   4.151
36144W        W 4518   5.299  10.297  11.494
36145W        W 4519  21.737  13.617  13.430
36146W        W 4520  34.446  19.733   2.715
36147W        W 4521  18.760  16.739  11.019
36148W        W 4522  17.751  25.172  13.477
36149W        W 4523  21.744  38.845   5.268
36150W        W 4524  16.741  25.184   2.401
36151W        W 4525  42.889   7.223   4.170
36152W        W 4526  39.504  41.993  11.036
36153W        W 4527  39.481   6.837   5.596
36154W        W 4528  30.623  22.132  14.840
36155W        W 4529  16.660  12.175  11.568
36156W        W 4530   3.452   8.751   5.142
36157W        W 4531  25.118  13.218   0.759
36158W        W 4532   4.236  10.323   3.372
36159W        W 4533   7.734  31.078  11.535
36160W        W 4534  39.859   6.818   1.775
36161W        W 4535  38.498   8.398   2.899
36162W        W 4536  25.168  36.465   5.168
36163W        W 4537  18.099  19.729   3.165
36164W        W 4538  43.298  18.547  13.334
36165W        W 4539   2.226  22.134  11.964
36166W        W 4540  20.598  22.101   4.815
36167W        W 4541  11.859  38.972   1.323
36168W        W 4542   6.424   2.262   1.240
36169W        W 4543  35.050  33.497  12.564
36170W        W 4544   0.482  13.846  14.414
36171W        W 4545   0.948  16.664  11.484
36172W        W 4546   9.312   7.804  14.462
36173W        W 4547   4.413  43.868  12.559
36174W        W 4548  43.304  25.022  13.862
36175W        W 4549  17.232  36.996  10.978
36176W        W 4550   0.290  31.029  13.017
36177W        W 4551  38.928  23.536  12.902
36178W        W 4552  10.354  18.601   1.215
36179W        W 4553  19.188  23.553   3.721
36180W        W 4554  20.069   0.323   3.342
36181W        W 4555  30.426  43.425  13.536
36182W        W 4556   1.364  35.072  14.828
36183W        W 4557  27.150   3.771  10.464
36184W        W 4558  34.581  31.441   3.824
36185W        W 4559  36.443   6.269   2.360
36186W        W 4560  31.440  36.530  12.415
36187W        W 4561   2.365  26.502  14.434
36188W        W 4562  41.014  13.146   2.239
36189W        W 4563  26.008  15.628  14.934
36190W        W 4564  21.558  35.917  10.899
36191W        W 4565  42.820  13.193  11.580
36192W        W 4566   1.439   6.423   4.184
36193W        W 4567  25.177   2.902   3.159
36194W        W 4568  31.464  38.920  10.602
36195W        W 4569  27.023   2.833  13.523
36196W        W 4570  40.937   5.808   4.751
36197W        W 4571   3.446  38.823  14.464
36198W        W 4572  10.766  33.102   0.332
36199W        W 4573   1.397  40.500  13.387
36200W        W 4574  38.523  26.139  14.423
36201W        W 4575   7.291  13.717  14.894
36202W        W 4576  15.637   9.186  13.339
36203W        W 4577  24.576   0.317  12.868
36204W        W 4578  44.387  39.486   1.879
36205W        W 4579  32.985  26.614   2.830
36206W        W 4580  12.643  30.939   2.373
36207W        W 4581  19.201  42.955  12.941
36208W        W 4582   3.245   2.456   1.711
36209W        W 4583  18.628  32.437   3.733
36210W        W 4584  17.564   4.721   0.863
36211W        W 4585  17.664  16.258   4.739
36212W        W 4586   1.241  28.680  13.919
36213W        W 4587   6.706   6.916  13.541
36214W        W 4588  18.105  28.680   4.662
36215W        W 4589  41.855  25.964  10.541
36216W        W 4590  43.908  15.790  11.992
36217W        W 4591  40.029  14.726   1.835
36218W        W 4592  26.498  44.924  12.005
36219W        W 4593  15.581   9.835   4.767
36220W        W 4594   2.390   9.339  11.397
36221W        W 4595  29.137  23.685  12.448
36222W        W 4596  33.016   4.309  13.397
36223W        W 4597  40.835   1.950   3.730
36224W        W 4598  34.901  14.241  11.372
36225W        W 4599  37.336  34.022   4.601
36226W        W 4600  25.197   6.809  13.505
36227W        W 4601  12.328   5.916   0.381
36228W        W 4602  15.273  14.107  11.021
36229W        W 4603  20.123   0.927  11.010
36230W        W 4604   7.328  38.009   4.335
36231W        W 4605  25.670  42.363   1.376
36232W        W 4606  13.141  11.232  11.547
36233W        W 4607  11.679   2.900   2.851
36234W        W 4608  26.986   5.233   0.366
36235W        W 4609  31.049   6.261   4.222
36236W        W 4610  27.086  12.809  13.928
36237W        W 4611   1.396  22.566  14.952
36238W        W 4612   6.378   9.362   0.378
36239W        W 4613   5.419   9.261   4.693
36240W        W 4614  30.001  35.531   1.387
36241W        W 4615  25.178   5.863  12.867
36242W        W 4616  30.484   3.238  14.955
36243W        W 4617  32.968  28.650  14.809
36244W        W 4618  30.124   9.304  14.362
36245W        W 4619   6.900  26.668   2.413
36246W        W 4620  27.141   7.728  11.035
36247W        W 4621  27.521  20.122  14.765
36248W        W 4622  10.698  35.491  13.856
36249W        W 4623  26.970  22.512   3.193
36250W        W 4624  31.560  27.059  10.469
36251W        W 4625  33.959  12.747  12.022
36252W        W 4626   1.859  29.093  11.603
36253W        W 4627  26.703  39.317  13.835
36254W        W 4628  20.752  38.070  11.045
36255W        W 4629   2.347   6.696  14.809
36256W        W 4630   8.767  35.540   2.214
36257W        W 4631  13.730  41.299   0.733
36258W        W 4632  24.512  11.288   1.387
36259W        W 4633   2.733   2.291  10.970
36260W        W 4634   9.178  27.136   3.223
36261W        W 4635  13.197   3.785   4.740
36262W        W 4636  26.065  41.996  11.468
36263W        W 4637  21.738   6.683   3.745
36264W        W 4638  34.010  27.077   4.737
36265W        W 4639  19.714  17.096  11.492
36266W        W 4640  41.993  44.436   2.325
36267W        W 4641  32.916   1.239  13.052
36268W        W 4642  22.677  18.201   4.241
36269W        W 4643   8.225  11.195  10.633
36270W        W 4644  43.884  43.381  14.423
36271W        W 4645  41.310  24.698   4.138
36272W        W 4646  29.560  30.939  14.825
36273W        W 4647  11.746  41.366  10.545
36274W        W 4648   9.723  44.356   3.268
36275W        W 4649  41.863   4.917  11.524
36276W        W 4650  13.347  34.920  10.423
36277W        W 4651  23.527  40.004   2.767
36278W        W 4652  20.544  10.174   4.224
36279W        W 4653  25.012  27.950   4.277
36280W        W 4654  13.653  13.161   2.885
36281W        W 4655  24.648  43.389  13.809
36282W        W 4656  35.940  37.084   1.873
36283W        W 4657  20.588  43.422   2.268
36284W        W 4658  31.055  34.516   4.786
36285W        W 4659  10.138  39.374   1.379
36286W        W 4660  35.048  35.880   5.095
36287W        W 4661  23.082  13.266  13.834
36288W        W 4662  11.799  20.569  13.313
36289W        W 4663  19.058   4.286   2.301
36290W        W 4664  39.902   8.226  12.084
36291W        W 4665   0.302  11.676  10.409
36292W        W 4666  14.715   5.863   0.467
36293W        W 4667  25.134  43.796  11.076
36294W        W 4668  27.109   0.369   2.883
36295W        W 4669  20.660  28.047   0.889
36296W        W 4670  30.650  34.893  10.522
36297W        W 4671  25.651  12.840   0.461
36298W        W 4672  11.287  32.473  11.865
36299W        W 4673  27.569  22.742   1.268
36300W        W 4674  30.609  39.402   3.337
36301W        W 4675   8.259  12.721  12.500
36302W        W 4676  12.718  24.164   0.298
36303W        W 4677  14.620  29.088  14.016
36304W        W 4678   3.873  32.080   1.238
36305W        W 4679   7.221   6.888   2.732
36306W        W 4680   9.175  42.021   0.958
36307W        W 4681  30.648  11.686   2.264
36308W        W 4682  28.619   2.840  12.506
36309W        W 4683  14.206  40.373   4.254
36310W        W 4684  34.967  24.208  13.496
36311W        W 4685  29.645  44.482   0.409
36312W        W 4686  24.013  39.049  12.521
36313W        W 4687  30.159  38.005   2.860
36314W        W 4688  27.459   7.868   4.157
36315W        W 4689  20.755  23.586  10.898
36316W        W 4690  20.176  33.551  13.942
36317W        W 4691   1.455  15.579   1.295
36318W        W 4692  26.000  42.940   4.805
36319W        W 4693  14.321  24.046  13.884
36320W        W 4694  10.727  10.310   1.855
36321W        W 4695  23.180  38.970  12.459
36322W        W 4696  14.297  26.108  14.334
36323W        W 4697  29.990   0.249  11.411
36324W        W 4698  34.583  33.429  14.850
36325W        W 4699   4.207  24.987   2.669
36326W        W 4700  42.519  15.754   2.724
36327W        W 4701   7.306   5.202  10.060
36328W        W 4702  39.330  42.776   2.822
36329W        W 4703  22.143  16.628  14.907
36330W        W 4704  41.304  37.574  13.045
36331W        W 4705  44.348  31.958   0.262
36332W        W 4706  29.521  13.675  13.374
36333W        W 4707  27.996  13.727  12.007
36334W        W 4708  38.843  34.865  11.089
36335W        W 4709   6.767  10.181   3.332
36336W        W 4710   7.723  38.543   1.442
36337W        W 4711  34.534  44.910   2.226
36338W        W 4712  36.999   0.286   0.835
36339W        W 4713   9.671  44.445  13.879
36340W        W 4714   3.231  37.012  12.514
36341W        W 4715  36.843   6.252   2.338
36342W        W 4716  10.672  40.802   0.809
36343W        W 4717  26.584  22.729   0.254
36344W        W 4718  15.271  16.641   1.800
36345W        W 4719   6.266  28.161  11.985
36346W        W 4720  35.065  22.551   0.427
36347W        W 4721  27.958  42.970   0.907
36348W        W 4722  15.600  44.396  12.454
36349W        W 4723  16.636  39.005  14.940
36350W        W 4724  13.742   0.388   4.135
36351W        W 4725  38.569   9.273  14.409
36352W        W 4726  33.504   9.729   2.267
36353W        W 4727  22.702   8.699  10.022
36354W        W 4728   0.413  22.510  12.534
36355W        W 4729  37.070   2.310   3.276
36356W        W 4730  10.171  10.739   2.196
36357W        W 4731  38.925  25.005  14.860
36358W        W 4732   0.409  37.850  11.484
36359W        W 4733   7.675  34.571   2.262
36360W        W 4734  40.519   7.264  11.878
36361W        W 4735  18.709  37.538  11.404
36362W        W 4736   8.292  27.035   1.880
36363W        W 4737  22.742   8.665  10.483
36364W        W 4738  31.103  30.635   2.220
36365W        W 4739  36.404  16.808  12.841
36366W        W 4740  29.976   4.876  13.870
36367W        W 4741  38.849  17.560   1.217
36368W        W 4742  16.111   6.303  13.309
36369W        W 4743  30.011   6.896   4.662
36370W        W 4744  11.717  41.355   2.788
36371W        W 4745  42.004  41.412  12.498
36372W        W 4746  19.145   9.765  11.571
36373W        W 4747   8.889  20.718  10.456
36374W        W 4748  33.516   3.830  11.120
36375W        W 4749  30.426  11.256   2.838
36376W        W 4750  20.066  11.855  12.085
36377W        W 4751   3.841  13.602  13.432
36378W        W 4752  29.538  41.844  14.328
36379W        W 4753  38.986  26.643   1.751
36380W        W 4754  22.050  22.617   0.727
36381W        W 4755  33.013   5.776  12.561
36382W        W 4756  13.603  18.734  14.818
36383W        W 4757   1.920  41.499  12.897
36384W        W 4758  28.538  34.466  11.914
36385W        W 4759   5.366  44.814   2.902
36386W        W 4760  10.160  13.805   4.611
36387W        W 4761   9.754  18.260   0.374
36388W        W 4762  15.667  37.990   1.250
36389W        W 4763  43.341  36.486   0.392
36390W        W 4764  32.577  33.426   0.943
36391W        W 4765   9.166  42.779   0.750
36392W        W 4766  35.493   1.332  10.624
36393W        W 4767  19.258  29.648  14.320
36394W        W 4768   5.907  32.637  11.863
36395W        W 4769  28.988   3.773  12.483
36396W        W 4770   5.404  39.825   4.819
36397W        W 4771  39.056  42.303  13.474
36398W        W 4772   7.888  32.466  11.113
36399W        W 4773   2.790  10.153  13.458
36400W        W 4774   3.255   1.811  14.486
36401W        W 4775  12.808   9.729  11.371
36402W        W 4776  11.830  25.075  10.421
36403W        W 4777  41.415  28.518   0.886
36404W        W 4778  25.967  12.659  12.922
36405W        W 4779  19.617   3.383   4.250
36406W        W 4780   7.203   1.448   1.224
36407W        W 4781  42.027   8.684  11.403
36408W        W 4782  16.306  31.497   2.265
36409W        W 4783  26.495   5.304   2.860
36410W        W 4784   1.797  27.523  11.058
36411W        W 4785  23.621   7.310   4.604
36412W        W 4786   8.314  25.190  13.817
36413W        W 4787  26.190   2.287   4.266
36414W        W 4788   6.917   4.775  10.541
36415W        W 4789  19.746  18.064   2.799
36416W        W 4790  28.022  33.110   3.796
36417W        W 4791  33.503  26.004  12.083
36418W        W 4792  40.535  33.417   3.834
36419W        W 4793  39.045  39.512  14.372
36420W        W 4794  40.936  21.587  12.931
36421W        W 4795   3.406  36.056  13.323
36422W        W 4796  25.149  29.545  14.511
36423W        W 4797   5.707  24.620   0.852
36424W        W 4798  17.557  25.108   4.305
36425W        W 4799  26.593  27.011  11.068
36426W        W 4800  16.766   7.785  10.990
36427W        W 4801  17.091  39.507   2.747
36428W        W 4802  37.452  38.906   0.750
36429W        W 4803  17.686   5.333  11.460
36430W        W 4804  28.110  27.648  11.564
36431W        W 4805  12.166  22.742   3.316
36432W        W 4806  16.670  38.526  12.380
36433W        W 4807   6.781  32.105  10.143
36434W        W 4808  26.456  27.023   2.876
36435W        W 4809  27.950   4.830   3.302
36436W        W 4810  21.125  11.624   0.952
36437W        W 4811   2.812  42.479  14.919
36438W        W 4812  21.161   9.367  12.978
36439W        W 4813  39.014   0.826  12.382
36440W        W 4814  39.900  35.572  12.358
36441W        W 4815  20.558   3.733  11.547
36442W        W 4816  10.828  38.934  10.888
36443W        W 4817  37.409  17.199  11.489
36444W        W 4818  22.165  15.780   4.771
36445W        W 4819  37.998  14.316  13.451
36446W        W 4820   9.839  35.602   4.177
36447W        W 4821   2.399  17.079  13.543
36448W        W 4822   8.788  35.367   1.292
36449W        W 4823  29.097  15.623  12.061
36450W        W 4824  18.109  34.516   1.796
36451W        W 4825  34.614  25.709   4.690
36452W        W 4826  18.116   3.852  14.490
36453W        W 4827  36.490  43.438  11.040
36454W        W 4828  43.415   9.785  11.511
36455W        W 4829  42.459  30.487   0.243
36456W        W 4830  11.630  11.250  11.433
36457W        W 4831  14.604  23.555  10.132
36458W        W 4832  43.406  34.006  14.463
36459W        W 4833  28.033  13.170   4.199
36460W        W 4834  33.602  22.152  12.002
36461W        W 4835   2.341  44.424   5.256
36462W        W 4836  17.737  26.608   1.339
36463W        W 4837  16.646   8.848  11.905
36464W        W 4838  34.483  26.133   3.738
36465W        W 4839  39.986  19.176  13.309
36466W        W 4840  35.942  21.044  10.644
36467W        W 4841  20.589  18.132  11.038
36468W        W 4842  13.754  33.554   1.227
36469W        W 4843  10.252   5.744  11.453
36470W        W 4844  13.236  17.696   2.883
36471W        W 4845  13.161  15.599   4.278
36472W        W 4846  18.791  41.505   1.904
36473W        W 4847  36.350   8.697  14.338
36474W        W 4848  26.595  38.016   4.838
36475W        W 4849  28.054  17.754  10.992
36476W        W 4850   5.691  39.887   0.820
36477W        W 4851   1.341  35.009   4.657
36478W        W 4852  19.653  18.640  14.798
36479W        W 4853  10.812  14.232  11.439
36480W        W 4854  14.161  13.763   0.294
36481W        W 4855  15.580   1.758   3.809
36482W        W 4856  17.781  38.395   4.341
36483W        W 4857  25.986  39.040  13.817
36484W        W 4858  42.883  28.986   2.857
36485W        W 4859  10.165   6.335   3.722
36486W        W 4860  29.620  13.645  14.861
36487W        W 4861   5.278  34.076   3.163
36488W        W 4862  17.292  27.044  14.370
36489W        W 4863   0.395  14.809  10.606
36490W        W 4864  22.103  20.665  12.453
36491W        W 4865   5.718  44.477   4.699
36492W        W 4866   5.900  17.111  11.953
36493W        W 4867  22.093  37.472  11.525
36494W        W 4868  13.310   8.890   2.828
36495W        W 4869   2.948  27.646   1.752
36496W        W 4870  29.551  28.611   3.661
36497W        W 4871  26.075  38.422   1.933
36498W        W 4872   3.926  36.041  14.428
36499W        W 4873  23.615   9.326  10.467
36500W        W 4874  13.266  34.570  11.543
36501W        W 4875   8.869  20.204  14.836
36502W        W 4876  11.723  16.655   0.890
36503W        W 4877   9.854  23.129  10.556
36504W        W 4878  30.560  39.869   4.280
36505W        W 4879  17.247  19.135   2.672
36506W        W 4880  41.861   4.741   1.437
36507W        W 4881  44.769   4.414  10.956
36508W        W 4882   1.406   5.329  13.844
36509W        W 4883  43.326  39.362  14.358
36510W        W 4884  13.252  34.558  11.906
36511W        W 4885  27.173   5.285  13.345
36512W        W 4886  25.140  22.165  13.995
36513W        W 4887  39.492  14.265  11.498
36514W        W 4888   7.758   4.894   0.344
36515W        W 4889  14.308  31.048  12.534
36516W        W 4890  40.412  20.616  12.479
36517W        W 4891  24.157   7.672   5.238
36518W        W 4892  22.632  15.184  14.326
36519W        W 4893  39.913  40.374   4.684
36520W        W 4894   3.436  12.778   2.295
36521W        W 4895  19.691  21.165  13.036
36522W        W 4896   4.371  42.356  11.605
36523W        W 4897  22.508  42.956  13.878
36524W        W 4898  24.055  35.449  13.359
36525W        W 4899  31.105   1.348   4.277
36526W        W 4900  41.000  15.233   0.420
36527W        W 4901  22.077  18.181  14.978
36528W        W 4902  38.330  15.216   0.365
36529W        W 4903  18.735  19.572  11.476
36530W        W 4904   1.943   0.848   4.191
36531W        W 4905  23.510   6.340   3.351
36532W        W 4906  32.458  16.579  12.346
36533W        W 4907  35.468  40.458   0.287
36534W        W 4908  19.656   4.891  12.872
36535W        W 4909  34.121  43.833   2.267
36536W        W 4910  20.529  19.246   4.231
36537W        W 4911  25.087  41.035   3.845
36538W        W 4912  23.022  19.577  13.526
36539W        W 4913  18.553  24.544   0.894
36540W        W 4914  42.966  16.166   3.282
36541W        W 4915  10.280  19.155  11.397
36542W        W 4916   0.902  36.530  11.861
36543W        W 4917  43.384  22.644  14.821
36544W        W 4918   8.203  20.233  11.414
36545W        W 4919  27.472  34.500   2.260
36546W        W 4920  15.157  41.935  11.416
36547W        W 4921  28.949  14.728   0.385
36548W        W 4922  24.640   1.370  13.002
36549W        W 4923  31.996  14.196   1.448
36550W        W 4924  33.966  23.538  11.398
36551W        W 4925  21.110  21.513   1.370
36552W        W 4926  35.516  10.207  10.998
36553W        W 4927   4.827  38.352  12.001
36554W        W 4928  17.717  41.986  14.840
36555W        W 4929   5.773  25.503   2.765
36556W        W 4930   1.876  23.183  10.482
36557W        W 4931  35.029  32.933  13.974
36558W        W 4932  34.482  44.482   4.149
36559W        W 4933  33.403  42.501   2.807
36560W        W 4934   6.318  29.470   3.276
36561W        W 4935  43.785   8.672  14.382
36562W        W 4936  24.585  43.467   3.315
36563W        W 4937   2.883   2.776   3.169
36564W        W 4938  39.459   6.810   2.258
36565W        W 4939  12.756  26.055  11.104
36566W        W 4940  33.607  18.214  12.988
36567W        W 4941   5.835  26.013  11.444
36568W        W 4942  35.410   4.753  13.932
36569W        W 4943  20.217  43.903   4.119
36570W        W 4944  28.173  12.778   0.738
36571W        W 4945   7.838   1.733  10.910
36572W        W 4946  35.590  26.162  10.622
36573W        W 4947  35.532  20.534  11.386
36574W        W 4948   3.443  28.503  10.588
36575W        W 4949   2.377  28.442   2.178
36576W        W 4950   4.830  40.486   2.789
36577W        W 4951  28.647  14.595   1.897
36578W        W 4952  10.138  13.266  12.534
36579W        W 4953  19.146  17.582  12.422
36580W        W 4954  13.197   5.748  13.828
36581W        W 4955  37.940  13.778  13.974
36582W        W 4956  21.551   3.859  11.899
36583W        W 4957  12.656  24.671  12.082
36584W        W 4958  40.851   1.382   3.859
36585W        W 4959  23.094  36.074  11.441
36586W        W 4960   8.279  24.198   0.733
36587W        W 4961  22.538  21.515   3.175
36588W        W 4962  36.910  22.520   1.774
36589W        W 4963  22.746   9.760   3.826
36590W        W 4964  40.383  11.623  11.410
36591W        W 4965  12.763  16.763   1.906
36592W        W 4966  13.604  38.939   4.654
36593W        W 4967   8.796   2.962   0.385
36594W        W 4968  42.945  39.842  13.337
36595W        W 4969   9.842  32.138  13.942
36596W        W 4970  44.987  12.743  10.499
36597W        W 4971  16.193  21.155  12.491
36598W        W 4972  12.359  28.594   1.763
36599W        W 4973  17.212  38.999   3.871
36600W        W 4974   0.928  33.984   0.829
36601W        W 4975  35.089  26.060  10.596
36602W        W 4976  42.285  37.041  14.900
36603W        W 4977   5.383  26.065  11.040
36604W        W 4978  24.159  29.453   1.816
36605W        W 4979   0.828  16.685  13.317
36606W        W 4980  36.885  40.047  11.090
36607W        W 4981  27.970   1.917  11.561
36608W        W 4982  12.253  34.543   2.389
36609W        W 4983   7.870  17.790  13.839
36610W        W 4984  31.538  28.657   4.601
36611W        W 4985  30.158   0.399   5.295
36612W        W 4986   4.707  13.738   1.828
36613W        W 4987   6.241   3.849  12.573
36614W        W 4988  21.125  13.789  12.465
36615W        W 4989  37.860  28.651   3.302
36616W        W 4990  30.156  15.636   4.723
36617W        W 4991  13.838   9.778  13.899
36618W        W 4992  23.697  13.207  11.506
36619W        W 4993  18.752  39.953   0.949
36620W        W 4994  26.587  36.452  14.910
36621W        W 4995  16.272  11.266   2.731
36622W        W 4996  11.311  37.976   0.760
36623W        W 4997  40.346   6.341   2.308
36624W        W 4998  21.063   6.291   0.915
36625W        W 4999  21.727  25.998  12.030
36626W        W 5000  24.596   5.285  11.415
36627W        W 5001   4.938  31.960   2.383
36628W        W 5002  36.388   2.727  10.614
36629W        W 5003  37.374  40.862  10.605
36630W        W 5004  33.532  11.293  13.996
36631W        W 5005  44.990  35.368   4.707
36632W        W 5006  38.831   0.832   1.857
36633W        W 5007  22.679  39.519   1.400
36634W        W 5008  20.104   6.292   1.262
36635W        W 5009  28.141   1.737  14.448
36636W        W 5010  14.159  26.184  12.572
36637W        W 5011  24.664  32.000  13.916
36638W        W 5012  25.135  33.453   4.350
36639W        W 5013  13.150  18.218   0.455
36640W        W 5014  36.939   3.331   4.331
36641W        W 5015  23.695  38.880   3.385
36642W        W 5016  11.311  20.114   0.262
36643W        W 5017   8.839   4.259   2.254
36644W        W 5018   8.714  16.114  12.916
36645W        W 5019  34.895   3.337  11.029
36646W        W 5020  39.962  22.705   0.299
36647W        W 5021  42.028  22.654  10.943
36648W        W 5022  40.939  26.978  13.354
36649W        W 5023   4.738  34.387   0.744
36650W        W 5024  44.311   6.696   1.735
36651W        W 5025  12.742   1.935   0.739
36652W        W 5026  41.477  28.478   3.211
36653W        W 5027  42.817  24.230   3.367
36654W        W 5028  28.026  24.677  12.933
36655W        W 5029  41.958   0.854  10.615
36656W        W 5030  15.616  38.406  11.445
36657W        W 5031  22.131   8.827  11.901
36658W        W 5032  11.780  34.432   3.771
36659W        W 5033   2.904  32.555  10.469
36660W        W 5034  38.458  44.329  11.986
36661W        W 5035   9.738   6.921   2.710
36662W        W 5036  38.872   1.759  10.447
36663W        W 5037   2.280  18.246   0.472
36664W        W 5038  41.888  24.693   0.965
36665W        W 5039  35.364   0.849  12.535
36666W        W 5040   3.736  33.391  10.001
36667W        W 5041  12.847  12.205   3.656
36668W        W 5042  40.313   5.895  14.026
36669W        W 5043  20.563  21.620  12.979
36670W        W 5044   6.898  44.780  11.399
36671W        W 5045  27.610  10.751  11.001
36672W        W 5046  29.426  43.450  10.951
36673W        W 5047   2.942  18.736  12.345
36674W        W 5048  23.518  27.197   2.275
36675W        W 5049  19.059  41.531   1.720
36676W        W 5050  12.223  44.414  12.571
36677W        W 5051   7.210   2.878   2.402
36678W        W 5052  15.238   3.377   0.320
36679W        W 5053  17.703  20.622   1.353
36680W        W 5054   5.330   1.900  12.467
36681W        W 5055  28.108  12.344  13.501
36682W        W 5056  32.435  40.424  14.938
36683W        W 5057  10.217  12.698   9.968
36684W        W 5058  37.898  37.004   2.217
36685W        W 5059   9.777   2.385  13.904
36686W        W 5060  32.887  30.566  13.435
36687W        W 5061  30.536  10.245   3.765
36688W        W 5062  27.994  29.048   2.668
36689W        W 5063  35.575  30.548  13.823
36690W        W 5064  19.610  41.042   4.173
36691W        W 5065  17.636  36.588   1.371
36692W        W 5066  18.732  18.095  12.928
36693W        W 5067  23.073  26.590   4.712
36694W        W 5068   1.297   7.368  10.958
36695W        W 5069   9.819  16.191   3.860
36696W        W 5070  35.443   6.193  10.945
36697W        W 5071   8.285   7.784  13.427
36698W        W 5072  11.700  11.669  12.484
36699W        W 5073  38.049   2.443  10.417
36700W        W 5074  20.072   8.204  11.558
36701W        W 5075  10.303   6.877  10.457
36702W        W 5076   9.326  18.577   0.754
36703W        W 5077  38.324  11.659   3.809
36704W        W 5078  41.995  37.861   4.250
36705W        W 5079  27.505  22.526  12.055
36706W        W 5080  31.046  11.819   1.342
36707W        W 5081  33.000  17.714   1.350
36708W        W 5082   4.223  25.161   4.656
36709W        W 5083   3.715  30.462   1.334
36710W        W 5084  10.236   7.270  10.980
36711W        W 5085   6.371  40.837   4.150
36712W        W 5086  16.084   2.382   1.918
36713W        W 5087  31.627  17.090  12.511
36714W        W 5088  11.803  12.126  12.857
36715W        W 5089   5.401   0.299  14.013
36716W        W 5090  17.137  30.540   2.227
36717W        W 5091  13.719  24.676   0.323
36718W        W 5092  22.705  44.937   3.794
36719W        W 5093  40.432  10.329   4.224
36720W        W 5094   8.345  29.482   4.289
36721W        W 5095   3.362  21.512   3.706
36722W        W 5096  33.122  40.816  10.409
36723W        W 5097  25.584  25.066  11.377
36724W        W 5098  43.411  12.650  13.851
36725W        W 5099  22.697  41.359  11.965
36726W        W 5100  17.209  27.569   0.466
36727W        W 5101  24.624  19.547  14.412
36728W        W 5102  25.535  11.828   4.291
36729W        W 5103   0.988  31.927   2.295
36730W        W 5104  23.707  24.140   1.391
36731W        W 5105  29.156   2.912  13.973
36732W        W 5106  19.642   1.806  13.333
36733W        W 5107  38.043   9.885   9.608
36734W        W 5108  30.482  16.288   2.206
36735W        W 5109   8.172  41.835  14.777
36736W        W 5110  40.889  23.722   0.348
36737W        W 5111  44.335  40.489  12.535
36738W        W 5112  14.640  21.574   2.833
36739W        W 5113  39.538   6.780  12.876
36740W        W 5114  10.298  41.518  12.852
36741W        W 5115  10.816  24.517  12.959
36742W        W 5116  11.366  36.961  11.612
36743W        W 5117  28.954  39.860  13.859
36744W        W 5118  20.174  42.986  11.484
36745W        W 5119   3.282  38.053   4.637
36746W        W 5120  19.159  19.107  10.922
36747W        W 5121  18.151  34.869  10.565
36748W        W 5122  33.579  30.928   1.737
36749W        W 5123   1.462  39.821   4.165
36750W        W 5124   4.375  18.733   0.817
36751W        W 5125  10.786   4.799   9.934
36752W        W 5126  24.489  35.375  12.391
36753W        W 5127   5.398  20.566   0.782
36754W        W 5128  19.778  22.166  12.068
36755W        W 5129   2.379  41.973   3.383
36756W        W 5130  38.018  22.145   4.186
36757W        W 5131  25.523  13.726  14.949
36758W        W 5132  14.197  29.131  14.767
36759W        W 5133   9.709  14.683   1.921
36760W        W 5134  38.331  22.239   3.642
36761W        W 5135  10.791  16.645  11.899
36762W        W 5136   3.322  28.630  11.422
36763W        W 5137   1.317  43.473   4.749
36764W        W 5138  13.808  27.077  10.642
36765W        W 5139  43.404  33.115   4.808
36766W        W 5140   5.271  38.840  11.500
36767W        W 5141  32.466  11.180  13.411
36768W        W 5142  30.082  29.426   4.169
36769W        W 5143   4.872  28.649  12.908
36770W        W 5144  29.961  12.194  12.525
36771W        W 5145  28.129  20.615   4.235
36772W        W 5146   9.754  13.223  13.049
36773W        W 5147  39.315   9.754   0.350
36774W        W 5148  19.145  30.433   0.355
36775W        W 5149   8.252  38.920   2.874
36776W        W 5150  13.190  12.762   1.752
36777W        W 5151   6.872  23.663  13.898
36778W        W 5152   0.847   1.743  12.495
36779W        W 5153  24.517  43.399  12.831
36780W        W 5154  25.194  30.640   5.271
36781W        W 5155  23.490   0.923  11.915
36782W        W 5156  24.652  20.086  10.490
36783W        W 5157  31.521  25.073  14.287
36784W        W 5158  42.776  36.074   1.414
36785W        W 5159  18.162  27.685   2.840
36786W        W 5160  28.574  11.666  13.396
36787W        W 5161  23.105  25.528  11.011
36788W        W 5162  14.798   2.728   3.797
36789W        W 5163  14.334  31.446   4.659
36790W        W 5164  42.810  38.335   0.357
36791W        W 5165  17.129  23.100   0.367
36792W        W 5166  25.100  41.325  13.018
36793W        W 5167  19.670  42.424  10.542
36794W        W 5168   3.807  39.413   3.805
36795W        W 5169  28.113   1.779  11.975
36796W        W 5170  27.475   0.458  10.468
36797W        W 5171  21.047  35.037   2.312
36798W        W 5172  36.513  24.680   1.237
36799W        W 5173  12.653   5.258   4.207
36800W        W 5174  16.249  36.351  12.514
36801W        W 5175  41.864  11.670  12.051
36802W        W 5176   7.872  36.873   0.306
36803W        W 5177  29.053  27.468   4.266
36804W        W 5178   4.363  11.824   1.398
36805W        W 5179  17.779  31.088   0.925
36806W        W 5180  24.684  30.087   0.867
36807W        W 5181   2.806  14.141  11.983
36808W        W 5182  30.614  33.433  12.432
36809W        W 5183  23.555  27.513  11.434
36810W        W 5184  24.626  41.328  10.472
36811W        W 5185  35.531  22.621  10.950
36812W        W 5186  37.915   4.840   3.739
36813W        W 5187  33.456  26.490   3.693
36814W        W 5188  20.636  29.565  10.506
36815W        W 5189  29.066  31.528  14.422
36816W        W 5190   4.380   7.372  12.497
36817W        W 5191  12.684   6.784   4.232
36818W        W 5192   2.864  19.101   0.258
36819W        W 5193   4.714  38.382   9.991
36820W        W 5194  37.511   3.258  14.438
36821W        W 5195  40.804  19.555   3.786
36822W        W 5196  38.065  16.244  12.994
36823W        W 5197  26.689  43.420  12.932
36824W        W 5198  21.549  26.497  13.961
36825W        W 5199  34.593  40.896  14.409
36826W        W 5200  12.657  16.249  13.799
36827W        W 5201   4.745   0.398  10.557
36828W        W 5202  42.898  27.125   3.792
36829W        W 5203  26.086  44.387   3.304
36830W        W 5204  19.605  34.369   4.218
36831W        W 5205   3.906  13.607   2.742
36832W        W 5206  11.219  20.121   1.848
36833W        W 5207  21.254   5.692  13.938
36834W        W 5208  44.976   5.292   4.609
36835W        W 5209  44.305  43.830   5.164
36836W        W 5210  20.614  15.145  10.466
36837W        W 5211   3.354  19.220   3.776
36838W        W 5212   4.368   6.182  13.407
36839W        W 5213  38.354   2.960  13.879
36840W        W 5214  16.099  16.726  13.436
36841W        W 5215  10.829  12.687  11.001
36842W        W 5216  31.150  20.049  11.462
36843W        W 5217   8.677  22.710   0.436
36844W        W 5218  21.655  21.198  11.947
36845W        W 5219   6.780  13.346  12.069
36846W        W 5220  43.831  18.144   1.787
36847W        W 5221  44.810   4.704  12.907
36848W        W 5222  21.619  33.559  10.134
36849W        W 5223  26.097  33.916  14.495
36850W        W 5224  38.424   9.320   2.847
36851W        W 5225  33.439   6.743  13.513
36852W        W 5226  24.093  34.371  14.990
36853W        W 5227  11.868  21.136   1.226
36854W        W 5228  24.603  11.627   3.798
36855W        W 5229  38.952  43.285  10.949
36856W        W 5230  19.205  28.453   3.217
36857W        W 5231  15.620  29.465  10.922
36858W        W 5232  12.754  40.322  10.501
36859W        W 5233  41.854   5.916   1.758
36860W        W 5234  23.021  17.073   9.514
36861W        W 5235  32.605  42.845  12.087
36862W        W 5236  44.439  14.682   5.291
36863W        W 5237  17.300  28.027  11.857
36864W        W 5238  44.360  28.616   0.797
36865W        W 5239  28.178  28.056   4.132
36866W        W 5240  33.521   5.717   3.658
36867W        W 5241  14.316  20.244   3.324
36868W        W 5242  32.506  29.171  11.585
36869W        W 5243  30.039  43.514   4.718
36870W        W 5244  21.138  20.178  12.893
36871W        W 5245  10.674  10.767   2.227
36872W        W 5246  24.495   7.820  13.975
36873W        W 5247  34.507  17.801  12.555
36874W        W 5248  10.725   7.185  14.940
36875W        W 5249  38.541  17.224   4.347
36876W        W 5250   1.332   4.739   0.397
36877W        W 5251  25.619  34.435   3.730
36878W        W 5252  32.138   5.338   2.844
36879W        W 5253  18.116  37.042  13.509
36880W        W 5254  25.084  43.979  13.942
36881W        W 5255  18.143  28.473   0.844
36882W        W 5256  23.063   6.416  10.065
36883W        W 5257  33.902   3.825  14.960
36884W        W 5258   7.911  39.823  14.387
36885W        W 5259  11.699  34.552   1.418
36886W        W 5260  40.416  29.453  12.578
36887W        W 5261  33.521  10.234   4.340
36888W        W 5262  38.409  38.413  11.398
36889W        W 5263   6.740  31.063  10.950
36890W        W 5264  40.363  38.513   0.900
36891W        W 5265  32.105  19.067   3.163
36892W        W 5266  39.821   7.246  13.969
36893W        W 5267  23.716  15.284  11.504
36894W        W 5268  37.980   4.906   2.212
36895W        W 5269  17.786  42.443   2.279
36896W        W 5270  16.611  29.150  11.427
36897W        W 5271  23.990   5.409  12.529
36898W        W 5272  17.183  19.067   0.867
36899W        W 5273  18.161  25.072  13.988
36900W        W 5274   3.415  42.795  14.420
36901W        W 5275  32.101   1.902   1.802
36902W        W 5276  13.137  28.494  14.994
36903W        W 5277  39.524  39.913  14.794
36904W        W 5278  18.167   0.486   2.827
36905W        W 5279  28.460  17.144  14.329
36906W        W 5280  29.967  33.083  10.453
36907W        W 5281  13.764  10.143   9.631
36908W        W 5282  25.011  16.151   4.618
36909W        W 5283   1.967  31.147  13.010
36910W        W 5284  31.489  36.870  10.501
36911W        W 5285   2.740  33.035  10.924
36912W        W 5286  32.964  14.169  10.476
36913W        W 5287  40.420   4.279  13.422
36914W        W 5288  26.506  36.444   2.352
36915W        W 5289  30.606  24.060  12.484
36916W        W 5290   3.355  22.038   3.369
36917W        W 5291   5.846  37.487  10.439
36918W        W 5292  42.415   7.196  12.540
36919W        W 5293  41.956  30.573  14.015
36920W        W 5294   2.886  36.455  11.906
36921W        W 5295   6.867  14.123  13.016
36922W        W 5296   5.789   3.817   9.966
36923W        W 5297  28.965  23.153   2.258
36924W        W 5298  34.543  12.305  13.384
36925W        W 5299   8.870  33.959   2.279
36926W        W 5300  42.941  15.235  12.868
36927W        W 5301  27.675  34.028   0.467
36928W        W 5302   1.745  14.108   2.236
36929W        W 5303   0.322  28.617   4.685
36930W        W 5304  35.585   0.836   4.227
36931W        W 5305  29.656  36.406   1.362
36932W        W 5306   9.728  33.904   4.305
36933W        W 5307  41.534  32.053   3.794
36934W        W 5308  23.598   5.772   0.811
36935W        W 5309   7.693  34.979   4.699
36936W        W 5310  37.014  20.208  14.387
36937W        W 5311  44.339  20.746  11.120
36938W        W 5312   4.784  34.422  10.406
36939W        W 5313   8.768  18.190   0.797
36940W        W 5314  30.429  39.427  10.481
36941W        W 5315   8.701  37.037   0.837
36942W        W 5316  44.971  12.214   4.219
36943W        W 5317  44.909  32.442  11.939
36944W        W 5318   9.318  21.209   5.697
36945W        W 5319  15.631  15.742  10.611
36946W        W 5320  36.038  34.007   3.373
36947W        W 5321  34.027  30.947  13.914
36948W        W 5322  42.418  23.110  13.991
36949W        W 5323  33.545   5.416   5.301
36950W        W 5324  44.426   8.352   2.809
36951W        W 5325  32.471  34.578   0.338
36952W        W 5326  22.210   9.809   1.356
36953W        W 5327  11.836  28.662   1.697
36954W        W 5328  34.501  42.862   3.244
36955W        W 5329  26.027   7.679  11.433
36956W        W 5330  41.395  11.307   2.711
36957W        W 5331  17.731   2.433   4.742
36958W        W 5332  20.189   1.338  13.791
36959W        W 5333  20.225  23.162   3.687
36960W        W 5334  34.909  21.121   1.420
36961W        W 5335  36.918  11.633   4.685
36962W        W 5336  36.008  27.476  14.443
36963W        W 5337   0.251   9.672  13.366
36964W        W 5338  26.119  16.729   0.314
36965W        W 5339  21.605   3.262  14.830
36966W        W 5340  14.645  44.491   0.247
36967W        W 5341   3.332  43.423  13.998
36968W        W 5342   1.429  26.008  14.890
36969W        W 5343   5.326  34.080  14.933
36970W        W 5344  18.176   5.422   2.337
36971W        W 5345  34.103  14.271  14.432
36972W        W 5346  23.076  35.501   4.719
36973W        W 5347  20.755  31.494  13.055
36974W        W 5348  10.842  43.509  10.438
36975W        W 5349  35.601  36.421   0.761
36976W        W 5350  15.801   2.376   1.890
36977W        W 5351  28.476   0.806   9.935
36978W        W 5352  13.140  44.923  13.029
36979W        W 5353  39.326  23.112   4.171
36980W        W 5354  36.041  21.106  13.436
36981W        W 5355  22.737  41.807  10.556
36982W        W 5356  23.504  40.956   2.781
36983W        W 5357   2.945  15.222  12.485
36984W        W 5358  11.848  14.153  13.795
36985W        W 5359  44.445  22.592  12.498
36986W        W 5360  23.547  12.217   2.681
36987W        W 5361  28.006  34.061   4.637
36988W        W 5362  33.008   6.723  14.295
36989W        W 5363  40.495  19.750   4.140
36990W        W 5364   4.773  33.418   0.955
36991W        W 5365   5.818  11.784   0.805
36992W        W 5366  40.047   9.803  14.304
36993W        W 5367   7.684  11.278  11.934
36994W        W 5368  34.439  31.924  10.569
36995W        W 5369  11.219  19.565   0.925
36996W        W 5370  30.087  43.288  14.471
36997W        W 5371  18.277   9.270  11.055
36998W        W 5372  17.064   4.329  14.896
36999W        W 5373  43.465  27.454   3.717
37000W        W 5374  16.682  19.223   4.633
37001W        W 5375  26.047  33.131  12.855
37002W        W 5376  13.284  42.426   0.416
37003W        W 5377  33.489  19.670  14.369
37004W        W 5378   9.255  36.855  10.451
37005W        W 5379  22.511  16.251   0.281
37006W        W 5380  13.272  18.782  13.958
37007W        W 5381   2.938  31.542  14.975
37008W        W 5382  25.107  24.647   3.213
37009W        W 5383  11.370  18.748  14.373
37010W        W 5384  42.394  11.157   4.320
37011W        W 5385  24.071   2.292  13.812
37012W        W 5386  40.307  28.506  12.437
37013W        W 5387  29.084  10.833   1.810
37014W        W 5388  32.075   5.438   4.799
37015W        W 5389  30.070  33.934   2.182
37016W        W 5390  34.103  28.488   1.239
37017W        W 5391  29.981   1.296  13.512
37018W        W 5392  13.286  21.206  10.134
37019W        W 5393  15.636   2.831  14.479
37020W        W 5394  31.150   3.352   1.326
37021W        W 5395  44.009   1.278   0.292
37022W        W 5396  10.727  19.259  11.068
37023W        W 5397  10.285  29.057   1.815
37024W        W 5398   8.216  26.516  14.461
37025W        W 5399  21.233  36.501   3.230
37026W        W 5400  37.484   8.317  11.384
37027W        W 5401  31.452  31.897   0.357
37028W        W 5402  30.505  33.432   4.694
37029W        W 5403  16.783  24.126  10.447
37030W        W 5404   6.767  14.130   1.815
37031W        W 5405   2.320   4.379  14.850
37032W        W 5406  17.120  33.061   3.372
37033W        W 5407  23.183  31.022   0.287
37034W        W 5408   8.275  19.693  14.466
37035W        W 5409  42.855  32.558  14.871
37036W        W 5410   9.214  37.847   1.764
37037W        W 5411  18.633   9.156   1.794
37038W        W 5412  24.999  14.218   1.351
37039W        W 5413  36.414  38.980   3.161
37040W        W 5414   6.849  35.444  13.373
37041W        W 5415  19.189  36.487   3.852
37042W        W 5416  28.460  40.390   4.597
37043W        W 5417  43.927  23.157   3.798
37044W        W 5418  19.152  22.557  14.836
37045W        W 5419  18.561  19.183   3.146
37046W        W 5420  19.284  38.029  12.355
37047W        W 5421   0.884   3.451   4.730
37048W        W 5422  44.477  13.351   2.709
37049W        W 5423  21.073  14.127  11.556
37050W        W 5424  13.739  43.436   3.329
37051W        W 5425   1.897   2.307  13.384
37052W        W 5426   9.379  19.741   0.941
37053W        W 5427  41.980  16.221   3.746
37054W        W 5428   3.895  32.026  14.810
37055W        W 5429  15.638  31.134  11.566
37056W        W 5430   1.907   1.325   1.375
37057W        W 5431  40.370  10.303   2.719
37058W        W 5432   0.799  17.683  12.411
37059W        W 5433  29.539   1.933  14.391
37060W        W 5434  18.591  10.827   4.711
37061W        W 5435  41.908  30.615   2.332
37062W        W 5436  17.668  26.592  13.528
37063W        W 5437  40.405  39.433  13.477
37064W        W 5438   6.703   1.333  14.515
37065W        W 5439  18.105  15.793  12.039
37066W        W 5440   2.821  16.777  12.572
37067W        W 5441  40.955  28.578   4.831
37068W        W 5442  12.620   8.273  13.403
37069W        W 5443  27.455  26.597   0.430
37070W        W 5444  37.989  35.915   1.373
37071W        W 5445  10.292  32.018  12.393
37072W        W 5446  36.978   2.354   0.325
37073W        W 5447  38.350  16.305  10.973
37074W        W 5448   1.382  34.374  12.407
37075W        W 5449   5.375  40.014  12.937
37076W        W 5450  18.656  31.949  12.922
37077W        W 5451  30.625   8.339   4.816
37078W        W 5452  30.162  15.117   1.426
37079W        W 5453   5.852  13.158  10.552
37080W        W 5454  18.236  27.500  13.428
37081W        W 5455  27.689   5.909  11.881
37082W        W 5456  42.816  14.625   1.813
37083W        W 5457  22.046  31.456   3.737
37084W        W 5458  19.225  28.559   2.402
37085W        W 5459  18.167  43.446  12.023
37086W        W 5460   6.916  21.219  10.485
37087W        W 5461  40.877  12.269   4.124
37088W        W 5462  10.738  33.940   2.842
37089W        W 5463  10.307  17.087  11.524
37090W        W 5464   5.303  31.429   1.445
37091W        W 5465   7.884   3.820  11.461
37092W        W 5466  42.469  21.640  12.424
37093W        W 5467  22.617   6.415  14.026
37094W        W 5468  43.404  18.234  14.884
37095W        W 5469  38.339  30.455   1.771
37096W        W 5470  13.320  23.005  13.513
37097W        W 5471   5.430  35.027   4.304
37098W        W 5472  33.567  21.102  14.471
37099W        W 5473  17.283  43.875  10.049
37100W        W 5474   9.281  17.572  13.036
37101W        W 5475  32.521  42.333   4.279
37102W        W 5476  35.574  28.001  11.931
37103W        W 5477  17.697  19.168  12.510
37104W        W 5478   8.244  22.579   2.688
37105W        W 5479  14.274  30.939  12.869
37106W        W 5480   0.394  34.120  13.018
37107W        W 5481  44.284  37.851  12.480
37108W        W 5482  22.143  32.516   2.850
37109W        W 5483  29.006   1.363   4.812
37110W        W 5484  38.969  44.445   1.223
37111W        W 5485  24.687  27.552   4.819
37112W        W 5486  39.395  33.436   1.413
37113W        W 5487  23.675  26.964  10.951
37114W        W 5488  43.882  41.384   0.323
37115W        W 5489  36.958  39.409   2.353
37116W        W 5490  11.859  20.675   3.228
37117W        W 5491  37.542   3.218  13.878
37118W        W 5492   4.838  29.008  11.051
37119W        W 5493  31.444  27.669  12.958
37120W        W 5494   3.778  26.079  11.994
37121W        W 5495   2.909   1.758  13.972
37122W        W 5496  21.165  17.101  10.557
37123W        W 5497  31.123  27.191   1.922
37124W        W 5498  36.505  36.045   2.810
37125W        W 5499  14.143  32.025  13.444
37126W        W 5500  39.054  17.146  12.526
37127W        W 5501  40.929  17.563   0.245
37128W        W 5502  43.442  33.949   4.634
37129W        W 5503  39.876  35.507   3.191
37130W        W 5504   1.268  23.539  12.512
37131W        W 5505  11.298  25.705   4.725
37132W        W 5506   5.257   4.253   4.783
37133W        W 5507  19.704  17.135  14.499
37134W        W 5508  28.074  40.922   1.819
37135W        W 5509  40.518  25.061   0.943
37136W        W 5510  27.191  44.886  13.363
37137W        W 5511  16.148  10.824   1.394
37138W        W 5512   3.915   2.935  11.015
37139W        W 5513  13.816  17.263   4.136
37140W        W 5514   0.451  43.789  11.954
37141W        W 5515  35.419  32.118  13.413
37142W        W 5516  24.712  30.129   3.863
37143W        W 5517  39.008  14.189   3.184
37144W        W 5518  30.523  16.118  12.415
37145W        W 5519  26.652   8.846   0.845
37146W        W 5520  24.055  36.962  11.870
37147W        W 5521  34.409  20.752  10.412
37148W        W 5522  25.482  25.056   1.354
37149W        W 5523  39.342  37.035  13.847
37150W        W 5524  36.990  31.050  14.900
37151W        W 5525  27.148  29.465   4.308
37152W        W 5526  33.876  14.641  14.327
37153W        W 5527  33.486  12.633   3.722
37154W        W 5528   9.265  17.106  12.070
37155W        W 5529  13.276  12.622  11.949
37156W        W 5530   5.777  29.519   3.351
37157W        W 5531   4.907   8.294  12.912
37158W        W 5532  19.646   3.887  10.432
37159W        W 5533  13.138  43.001  11.981
37160W        W 5534   5.786   5.807   0.243
37161W        W 5535  34.100   0.340  10.440
37162W        W 5536  15.719  10.807   0.857
37163W        W 5537  40.448  36.378   0.845
37164W        W 5538  30.155  13.351  13.363
37165W        W 5539  18.197  29.660   0.371
37166W        W 5540   2.860  41.859  12.572
37167W        W 5541  40.329  10.384  13.833
37168W        W 5542  33.586  18.686   4.122
37169W        W 5543   1.467  22.232  10.633
37170W        W 5544  18.246   4.324  12.064
37171W        W 5545   4.354   7.189   3.349
37172W        W 5546  10.701   6.888  10.542
37173W        W 5547  41.332  34.103   2.871
37174W        W 5548   4.449  29.589  11.927
37175W        W 5549  37.507  43.272   3.814
37176W        W 5550  20.034  20.714   1.211
37177W        W 5551  42.311  41.297  11.458
37178W        W 5552  31.101   9.280   3.688
37179W        W 5553  40.833  28.545   3.316
37180W        W 5554   8.374  21.611   5.267
37181W        W 5555   5.331  38.424  10.923
37182W        W 5556  39.841  23.042  13.985
37183W        W 5557  25.519   5.307  14.865
37184W        W 5558  12.666  18.638  11.530
37185W        W 5559   6.796   7.907   2.715
37186W        W 5560  28.526  36.048  14.979
37187W        W 5561  13.341  20.607   0.747
37188W        W 5562   3.838  11.813  14.767
37189W        W 5563  13.812  13.131  12.356
37190W        W 5564  37.481  30.439   0.946
37191W        W 5565  14.121  32.475   0.858
37192W        W 5566  30.973  29.437  11.513
37193W        W 5567  30.145  21.592  10.890
37194W        W 5568   0.798  26.196   2.715
37195W        W 5569  42.859  18.269   4.812
37196W        W 5570  33.473  33.524   3.765
37197W        W 5571  22.718   5.312   0.880
37198W        W 5572   9.827   8.786  13.385
37199W        W 5573  14.183  38.346  13.901
37200W        W 5574   5.789  42.931   2.665
37201W        W 5575  30.494  28.576   4.281
37202W        W 5576  10.269  38.915   1.867
37203W        W 5577  32.405  20.634  14.780
37204W        W 5578  19.076  35.048  13.854
37205W        W 5579  29.536   2.799   0.444
37206W        W 5580  38.417  21.238  14.416
37207W        W 5581  18.146  25.639  12.362
37208W        W 5582  35.862  33.573  13.485
37209W        W 5583   7.342  32.099  11.577
37210W        W 5584   6.319  23.015   3.185
37211W        W 5585  20.574  20.078   0.358
37212W        W 5586  33.508   9.222  12.892
37213W        W 5587  32.970  10.373   0.843
37214W        W 5588  16.307  12.843   4.320
37215W        W 5589   1.328  19.612  10.454
37216W        W 5590  27.457  29.999   0.744
37217W        W 5591  15.736  17.714  11.057
37218W        W 5592  17.305  36.853   0.748
37219W        W 5593  33.962   7.370   2.272
37220W        W 5594  27.664  26.603   3.678
37221W        W 5595  40.985  25.035  11.031
37222W        W 5596  29.508  18.277  11.017
37223W        W 5597  10.798  11.698   3.735
37224W        W 5598   3.821  10.657  14.514
37225W        W 5599  25.006  19.195   3.273
37226W        W 5600  39.971  29.158   1.843
37227W        W 5601  26.592   6.818  13.517
37228W        W 5602  21.695  23.660   3.763
37229W        W 5603  19.252   0.459  11.106
37230W        W 5604   2.833   3.728  13.885
37231W        W 5605   0.855  38.401  12.986
37232W        W 5606  26.628  29.938   1.772
37233W        W 5607  19.656  20.247   3.653
37234W        W 5608  41.498  27.495  13.048
37235W        W 5609  37.051   5.767  11.910
37236W        W 5610  42.814  23.157   1.912
37237W        W 5611  35.466  42.455   2.189
37238W        W 5612  39.812  21.677   1.437
37239W        W 5613  19.551  40.982   0.434
37240W        W 5614  41.534  44.280  12.458
37241W        W 5615   1.924   5.889   0.299
37242W        W 5616  14.588   4.737  13.512
37243W        W 5617  34.928   0.360   1.268
37244W        W 5618  26.083   0.260   4.334
37245W        W 5619   6.921  44.422  11.075
37246W        W 5620  15.651  32.585   3.643
37247W        W 5621  41.521  18.626   4.774
37248W        W 5622  39.326  21.659   0.791
37249W        W 5623  15.722   6.755  12.936
37250W        W 5624  18.231  18.700   1.358
37251W        W 5625  22.506  22.690  10.514
37252W        W 5626  14.159  10.333  10.553
37253W        W 5627  29.931   8.838  10.956
37254W        W 5628  26.555  16.225   4.265
37255W        W 5629  32.463  25.998  12.368
37256W        W 5630  25.145  20.164  12.533
37257W        W 5631  36.938  22.627  12.900
37258W        W 5632  10.770  25.478  10.951
37259W        W 5633  25.509  38.957  14.774
37260W        W 5634  39.490  31.982  12.923
37261W        W 5635   4.822  40.470  12.544
37262W        W 5636  18.143   8.227  14.011
37263W        W 5637   7.906  25.596  13.357
37264W        W 5638  41.974  28.117   5.299
37265W        W 5639  17.764   4.389  10.589
37266W        W 5640   7.846  41.825  14.414
37267W        W 5641  22.245  20.252   4.800
37268W        W 5642  43.778  13.282  12.928
37269W        W 5643   9.264  32.919  12.983
37270W        W 5644   8.384   5.200   2.208
37271W        W 5645  35.561  28.997  10.613
37272W        W 5646  15.753  15.662   2.668
37273W        W 5647  40.849  36.408   2.218
37274W        W 5648  33.028   8.819   2.829
37275W        W 5649  32.928  33.029  12.447
37276W        W 5650   9.883  24.579  14.995
37277W        W 5651  23.706   1.281   0.945
37278W        W 5652   5.832  31.057  13.956
37279W        W 5653  36.425  26.543  10.595
37280W        W 5654  41.360  17.735  13.414
37281W        W 5655  13.145   8.704   4.126
37282W        W 5656  42.780   9.282  11.387
37283W        W 5657  35.054  30.575   0.252
37284W        W 5658  11.259  13.133   2.866
37285W        W 5659  44.842  30.964   2.313
37286W        W 5660   1.759  14.661  12.940
37287W        W 5661  43.356  22.517   2.191
37288W        W 5662  42.941  44.350   0.801
37289W        W 5663  11.249  13.143   3.674
37290W        W 5664   6.208  24.553  10.914
37291W        W 5665  31.472  34.062  11.881
37292W        W 5666  33.578  33.589   2.187
37293W        W 5667  11.627  35.922   0.346
37294W        W 5668  27.191  17.731   2.671
37295W        W 5669  31.123  26.668  10.116
37296W        W 5670  16.081  27.940   4.168
37297W        W 5671  19.272  31.037   3.793
37298W        W 5672   2.290  19.122   1.306
37299W        W 5673   0.460   1.479   4.674
37300W        W 5674  39.979  22.104   1.215
37301W        W 5675  26.479  23.524   0.744
37302W        W 5676  42.458  15.237  11.865
37303W        W 5677  34.601  12.159  13.873
37304W        W 5678  32.559   2.355   3.727
37305W        W 5679  34.014  10.734  13.992
37306W        W 5680  11.302   5.296  14.881
37307W        W 5681   6.402  10.694  12.830
37308W        W 5682  31.116  30.569   4.122
37309W        W 5683  16.297  37.577   0.412
37310W        W 5684   7.822  35.060   3.228
37311W        W 5685  36.996  28.441   4.283
37312W        W 5686  43.468  41.835  12.359
37313W        W 5687   2.228  40.449  11.096
37314W        W 5688   4.415  23.090   0.403
37315W        W 5689   0.835  16.304   3.364
37316W        W 5690  41.369   4.826  10.911
37317W        W 5691  30.113   8.754  11.558
37318W        W 5692  38.920   2.912  11.481
37319W        W 5693   4.407   0.922   2.240
37320W        W 5694  11.740  30.956  13.970
37321W        W 5695  29.598  22.691  11.607
37322W        W 5696  31.935   0.306  10.415
37323W        W 5697  22.587  27.993  14.780
37324W        W 5698  10.216  32.113  13.875
37325W        W 5699   1.961  32.620   1.376
37326W        W 5700  25.495  32.408   4.150
37327W        W 5701  25.563   5.729   2.771
37328W        W 5702  14.758   7.685   3.763
37329W        W 5703  26.558  29.057  14.503
37330W        W 5704   4.350  38.885  12.464
37331W        W 5705  43.935   8.327  14.289
37332W        W 5706  13.663  36.587  14.278
37333W        W 5707  23.724  28.579   2.279
37334W        W 5708  34.453  40.041   0.822
37335W        W 5709   2.827  11.308   4.709
37336W        W 5710  23.168  39.493   4.213
37337W        W 5711   5.309  37.052  11.087
37338W        W 5712  40.844  14.190   0.416
37339W        W 5713  26.066   9.720   0.924
37340W        W 5714  44.763  22.690   4.768
37341W        W 5715  10.818  38.411   0.414
37342W        W 5716  28.537  18.193  11.951
37343W        W 5717   7.343  11.862   0.753
37344W        W 5718   1.255  39.991  13.903
37345W        W 5719  44.422  21.562   0.786
37346W        W 5720  17.576  23.045  13.443
37347W        W 5721  39.324  32.887  12.506
37348W        W 5722   3.259   3.956   5.156
37349W        W 5723  29.459  40.005  10.943
37350W        W 5724  32.393   3.450  14.404
37351W        W 5725  35.949  15.136  12.832
37352W        W 5726  40.998  41.378   0.340
37353W        W 5727  44.825   7.216  13.480
37354W        W 5728   9.858  29.922  11.605
37355W        W 5729  21.139   2.836   4.764
37356W        W 5730  36.537  26.661  13.337
37357W        W 5731  10.211   8.726   4.610
37358W        W 5732  43.943  13.839  14.843
37359W        W 5733  15.783  26.182   3.309
37360W        W 5734  16.316  35.928   2.345
37361W        W 5735   7.236   2.431   2.705
37362W        W 5736   4.346  30.115  12.419
37363W        W 5737  25.997  35.993  14.959
37364W        W 5738  39.865  29.090   2.675
37365W        W 5739   9.275  25.111  11.471
37366W        W 5740  34.913  34.092  13.867
37367W        W 5741   1.911  13.830  13.952
37368W        W 5742  30.442  17.174   0.478
37369W        W 5743  28.665  38.540   4.308
37370W        W 5744  22.034  19.285  14.976
37371W        W 5745  22.603  36.071  10.536
37372W        W 5746  29.441  29.581   5.093
37373W        W 5747  32.455  35.497  12.373
37374W        W 5748  11.316   4.918   0.387
37375W        W 5749  26.627  43.330  14.472
37376W        W 5750  39.454  41.960   2.749
37377W        W 5751  43.018  35.998   2.248
37378W        W 5752   0.777  10.330  12.398
37379W        W 5753   8.698  36.357   4.760
37380W        W 5754  20.541   4.810  10.419
37381W        W 5755  34.390  30.930  14.458
37382W        W 5756  23.642  26.109   2.815
37383W        W 5757  33.969  27.460  14.886
37384W        W 5758  14.725  21.735   3.856
37385W        W 5759   8.233  33.094  11.506
37386W        W 5760  36.034  13.759   1.786
37387W        W 5761  22.085  29.554  10.631
37388W        W 5762  43.825  31.065  10.941
37389W        W 5763  19.194  19.169  14.903
37390W        W 5764  35.900  28.940   2.350
37391W        W 5765   3.316  34.884   2.747
37392W        W 5766  23.150  27.098   4.777
37393W        W 5767  43.327  36.905  12.568
37394W        W 5768   7.237   5.428  10.949
37395W        W 5769  41.443  40.357  14.363
37396W        W 5770  44.894   4.755   1.929
37397W        W 5771  30.544   2.830  12.413
37398W        W 5772   7.815  43.812   4.803
37399W        W 5773  44.348  15.264  13.378
37400W        W 5774  12.710  32.929   0.467
37401W        W 5775  12.842  34.094   2.408
37402W        W 5776   7.798   0.345   4.350
37403W        W 5777  43.833  27.592  10.524
37404W        W 5778  40.961  22.553  12.963
37405W        W 5779  36.555  13.224  12.556
37406W        W 5780  15.763  30.429   0.421
37407W        W 5781  41.431  24.682  14.840
37408W        W 5782  34.421  38.510  11.084
37409W        W 5783  15.196  37.915   3.318
37410W        W 5784   6.880  11.331   1.773
37411W        W 5785  42.446  16.708  14.398
37412W        W 5786  11.842   2.948   2.249
37413W        W 5787  21.237  16.305   2.716
37414W        W 5788  37.492  43.959  10.525
37415W        W 5789   7.230  18.135   1.414
37416W        W 5790  17.728   8.724  14.013
37417W        W 5791  40.390  18.711  12.483
37418W        W 5792  32.121  17.714  11.012
37419W        W 5793  42.404  28.090   4.171
37420W        W 5794   3.317  28.506  12.070
37421W        W 5795  27.969  10.187   4.290
37422W        W 5796  37.538   1.976  11.573
37423W        W 5797  13.639   6.899  14.925
37424W        W 5798  20.526  16.670  10.442
37425W        W 5799  41.921  28.990   1.832
37426W        W 5800  42.445  37.021  12.875
37427W        W 5801   1.254  38.902   1.798
37428W        W 5802  36.964  10.841   4.230
37429W        W 5803  28.472  21.674   0.867
37430W        W 5804  44.851  15.799  11.028
37431W        W 5805  34.589   9.164  14.861
37432W        W 5806  10.708  27.668   4.668
37433W        W 5807  17.644  25.699   1.305
37434W        W 5808  19.564  24.686  13.907
37435W        W 5809  19.217   0.332   2.332
37436W        W 5810   2.831   9.697   3.226
37437W        W 5811  39.477  21.204  14.828
37438W        W 5812  20.191  26.611   1.420
37439W        W 5813  16.094  43.886  11.866
37440W        W 5814  14.738   1.786   3.257
37441W        W 5815  36.850  20.546   3.173
37442W        W 5816  30.155  22.523   1.301
37443W        W 5817  35.026  40.854  12.569
37444W        W 5818  35.364  21.677   3.365
37445W        W 5819   9.845  16.318  11.091
37446W        W 5820  28.520  11.285  12.945
37447W        W 5821  43.001  15.804  10.597
37448W        W 5822  18.089  11.311   1.862
37449W        W 5823  30.546  15.651   3.801
37450W        W 5824  11.147  12.146   2.724
37451W        W 5825  41.379  33.130  12.879
37452W        W 5826  12.741  27.117   4.281
37453W        W 5827  12.245  29.136   1.774
37454W        W 5828  39.515  32.511   1.828
37455W        W 5829  11.244  38.066  14.958
37456W        W 5830   8.300  26.601  13.951
37457W        W 5831  17.208  37.840  14.852
37458W        W 5832  16.141  28.616  10.424
37459W        W 5833   9.778  39.336  10.996
37460W        W 5834   6.409  18.702  11.499
37461W        W 5835  35.910   6.867   3.349
37462W        W 5836  42.881  21.557  10.430
37463W        W 5837  39.946  31.901   1.410
37464W        W 5838  42.484  36.998   0.803
37465W        W 5839   8.367  26.148  10.011
37466W        W 5840  24.013   9.758   3.681
37467W        W 5841   7.675  41.508  12.445
37468W        W 5842  38.380  10.208   3.773
37469W        W 5843  39.475  22.646  14.958
37470W        W 5844  21.711  24.543   0.944
37471W        W 5845   7.870  11.715   4.116
37472W        W 5846   7.864  35.872  13.427
37473W        W 5847  30.528  35.478  14.421
37474W        W 5848  13.635  38.999  10.549
37475W        W 5849  24.593  15.126  11.125
37476W        W 5850  41.300  38.360  12.035
37477W        W 5851  22.638  35.360  13.899
37478W        W 5852  41.449  33.408   1.229
37479W        W 5853  12.692  44.876   1.748
37480W        W 5854   4.919  11.673  13.395
37481W        W 5855   2.397  37.483   3.349
37482W        W 5856  21.144   6.401   2.386
37483W        W 5857   6.322   0.367  13.513
37484W        W 5858  12.359  44.772   4.279
37485W        W 5859  11.224  27.597  12.538
37486W        W 5860  30.557   6.899  12.072
37487W        W 5861  23.531  42.491  11.935
37488W        W 5862  17.263   5.288   1.428
37489W        W 5863  29.654   1.833  13.504
37490W        W 5864  38.340  33.077   1.220
37491W        W 5865  18.701  18.258   2.893
37492W        W 5866  44.319   1.844   3.166
37493W        W 5867  17.736  37.844   2.299
37494W        W 5868   3.793  15.127  12.922
37495W        W 5869   7.216  44.391   0.273
37496W        W 5870   0.785   0.825   4.761
37497W        W 5871  31.941  41.519  11.028
37498W        W 5872   1.856  22.043  13.526
37499W        W 5873  36.912  12.734   2.200
37500W        W 5874  18.630  36.991  11.128
37501W        W 5875  36.583  30.914   3.845
37502W        W 5876  33.463  31.639   0.457
37503W        W 5877  37.974  36.020   0.819
37504W        W 5878  27.632  17.275   0.254
37505W        W 5879  36.357   8.735  13.518
37506W        W 5880  27.085  17.634   3.375
37507W        W 5881   4.698  14.756   2.264
37508W        W 5882  30.964   0.832  12.869
37509W        W 5883  28.964  26.485  10.908
37510W        W 5884  41.892   5.828  14.767
37511W        W 5885  16.604   8.216  11.021
37512W        W 5886  30.988  35.915  13.975
37513W        W 5887  41.842  19.554  13.475
37514W        W 5888  29.509   8.655  10.459
37515W        W 5889   5.298   4.315  10.501
37516W        W 5890  20.117  23.499  14.413
37517W        W 5891  38.565  26.024  11.991
37518W        W 5892   7.333   3.380   2.743
37519W        W 5893  29.453   9.235   1.222
37520W        W 5894  36.978  42.397   3.228
37521W        W 5895  18.180  43.903   2.229
37522W        W 5896  22.732   5.829  14.402
37523W        W 5897   0.321  44.846   1.855
37524W        W 5898   4.331  23.578  12.090
37525W        W 5899   0.786  24.499  12.950
37526W        W 5900  30.920  44.295  13.423
37527W        W 5901  18.266  33.886   2.674
37528W        W 5902  28.582  43.948   3.780
37529W        W 5903  42.399  24.585   3.665
37530W        W 5904   9.768   8.803   4.342
37531W        W 5905  33.531  35.056   3.331
37532W        W 5906   3.426   2.377   3.658
37533W        W 5907   4.887   9.709   1.224
37534W        W 5908   4.860  32.401   9.925
37535W        W 5909   2.415  42.912  12.534
37536W        W 5910  35.037   4.940   3.344
37537W        W 5911  20.107  17.656   2.341
37538W        W 5912  12.329   2.432   4.824
37539W        W 5913  17.226  26.631  14.880
37540W        W 5914  41.833  15.739   3.839
37541W        W 5915   2.747  34.915  14.511
37542W        W 5916  38.510  38.425  12.051
37543W        W 5917  11.281   2.353   0.744
37544W        W 5918  29.929  10.284  12.922
37545W        W 5919   7.806   7.768  10.635
37546W        W 5920  22.591   9.210  13.988
37547W        W 5921  19.190  37.352  11.089
37548W        W 5922  36.062  39.815   3.700
37549W        W 5923   2.231  19.574  12.957
37550W        W 5924  18.572  40.424   1.391
37551W        W 5925  28.141   8.315   1.735
37552W        W 5926  29.172  40.883   4.629
37553W        W 5927  31.569  44.993  12.864
37554W        W 5928   3.241  33.448   2.845
37555W        W 5929   7.817  25.701   2.286
37556W        W 5930  36.003   3.430   4.717
37557W        W 5931  12.239   1.778   3.322
37558W        W 5932   7.408  18.179   0.445
37559W        W 5933  15.118  42.383   3.185
37560W        W 5934  41.373  29.495   3.841
37561W        W 5935   8.753  34.053   4.725
37562W        W 5936  30.038  38.562  12.061
37563W        W 5937   7.878  44.372  11.001
37564W        W 5938  10.271  38.841  13.801
37565W        W 5939  36.514  12.645   3.200
37566W        W 5940  15.762   8.816  10.959
37567W        W 5941  14.104   5.303  10.581
37568W        W 5942   1.326  36.845   2.869
37569W        W 5943  42.482  30.458   2.773
37570W        W 5944   9.157  21.097  12.569
37571W        W 5945  17.159  20.710   3.219
37572W        W 5946  20.088  16.751   2.817
37573W        W 5947  35.442  27.492  11.886
37574W        W 5948  21.687  30.007  10.971
37575W        W 5949  14.632  37.865   2.418
37576W        W 5950   9.856  28.050  11.378
37577W        W 5951  35.055  42.398  12.907
37578W        W 5952  16.299   7.898   0.869
37579W        W 5953  20.713   7.407   0.837
37580W        W 5954  39.525   9.340   0.303
37581W        W 5955  31.958  21.177   3.375
37582W        W 5956   2.954  19.724   3.334
37583W        W 5957  32.605  11.141   1.390
37584W        W 5958  14.229  13.642  14.936
37585W        W 5959   8.349  38.036   0.258
37586W        W 5960  36.054   7.296  11.924
37587W        W 5961  14.310  19.667   3.146
37588W        W 5962   0.809  43.416  14.832
37589W        W 5963  38.393  31.116   3.324
37590W        W 5964  13.797  24.615   1.241
37591W        W 5965  22.510  21.618  14.979
37592W        W 5966  10.298  22.182  13.510
37593W        W 5967  40.016  15.714  10.577
37594W        W 5968  42.375  21.587   4.188
37595W        W 5969  18.761  39.339   1.812
37596W        W 5970  37.070   0.802   4.262
37597W        W 5971   0.939  18.115   3.715
37598W        W 5972  18.248  44.954  13.837
37599W        W 5973  16.085  33.122  14.938
37600W        W 5974  12.361  31.447   3.733
37601W        W 5975  22.061   8.181  10.918
37602W        W 5976  15.203   8.777   0.449
37603W        W 5977  15.684  14.679   4.705
37604W        W 5978  28.444  40.868  11.574
37605W        W 5979  24.015  40.982  13.794
37606W        W 5980   0.826  14.184   5.087
37607W        W 5981  41.378  31.929   4.796
37608W        W 5982  39.973  23.572   3.386
37609W        W 5983  38.511   7.786   4.245
37610W        W 5984   7.906  32.923  13.332
37611W        W 5985  35.381  16.650  14.409
37612W        W 5986  22.522  30.460   2.847
37613W        W 5987   7.706  35.905   1.345
37614W        W 5988  38.554  25.535  14.369
37615W        W 5989   3.320  18.264  13.884
37616W        W 5990  30.507   7.711  11.471
37617W        W 5991  33.451   8.228   3.782
37618W        W 5992  29.584  31.065   4.322
37619W        W 5993  37.004  14.336  12.086
37620W        W 5994  33.429   0.485   1.884
37621W        W 5995  30.952  26.663   5.260
37622W        W 5996  12.269  19.774  12.390
37623W        W 5997   1.480   4.359  12.897
37624W        W 5998  17.657  33.406  10.160
37625W        W 5999  24.219  44.328  14.458
37626W        W 6000  43.497  36.862  14.978
37627W        W 6001  28.024  24.192  10.418
37628W        W 6002  16.122   6.792   4.687
37629W        W 6003  22.717  20.765   1.836
37630W        W 6004   2.937  29.447  12.446
37631W        W 6005  42.988  39.048   0.785
37632W        W 6006  10.806  15.188  12.557
37633W        W 6007  29.553  27.992  12.415
37634W        W 6008  33.958  31.965   2.717
37635W        W 6009  33.520  13.169   0.730
37636W        W 6010  15.688   6.890  10.546
37637W        W 6011  33.029  26.662  11.467
37638W        W 6012  10.233  20.057   1.807
37639W        W 6013  29.463  10.347  14.510
37640W        W 6014  34.591  17.752  10.578
37641W        W 6015  35.408  27.059   0.341
37642W        W 6016  17.105  29.928   2.784
37643W        W 6017  36.950  37.001  11.927
37644W        W 6018  22.561   3.355  14.988
37645W        W 6019   5.716   3.820   2.254
37646W        W 6020   3.773  15.183   0.901
37647W        W 6021  15.168  41.006   2.826
37648W        W 6022  29.976  29.144  10.973
37649W        W 6023  13.665  29.573   2.367
37650W        W 6024   0.296  34.024  11.016
37651W        W 6025  41.839  44.913  13.392
37652W        W 6026  20.604   6.737   1.748
37653W        W 6027   6.885   5.263  14.339
37654W        W 6028  23.215  33.012  11.406
37655W        W 6029  13.133  10.826   3.217
37656W        W 6030  26.035   6.209   1.749
37657W        W 6031  19.189  36.963  14.425
37658W        W 6032  33.880   1.350   1.220
37659W        W 6033  25.634  22.659  12.497
37660W        W 6034  44.839  29.960  11.461
37661W        W 6035  23.120  15.270   1.709
37662W        W 6036  24.616  21.101  13.009
37663W        W 6037   0.791   3.319   1.394
37664W        W 6038   5.837  41.510  11.943
37665W        W 6039   0.874  34.491   1.287
37666W        W 6040  38.473  44.851   1.374
37667W        W 6041  41.304  12.693   0.273
37668W        W 6042   1.804  21.024   3.281
37669W        W 6043   3.885  12.245  11.105
37670W        W 6044  42.291  38.904   4.602
37671W        W 6045  15.686  37.475  13.911
37672W        W 6046  16.306  41.430  10.587
37673W        W 6047  30.594   0.389  10.452
37674W        W 6048  39.424  14.743   4.201
37675W        W 6049  42.937  32.435  11.069
37676W        W 6050  14.237  44.800  13.969
37677W        W 6051  38.428   1.738  10.640
37678W        W 6052  40.919   0.813   0.828
37679W        W 6053   1.448  38.506   1.291
37680W        W 6054   8.386  28.929  10.521
37681W        W 6055  12.122  10.225   3.353
37682W        W 6056   1.908  41.423  10.970
37683W        W 6057  28.546  27.604   0.316
37684W        W 6058   8.799  35.534   0.813
37685W        W 6059  12.177  25.472  11.009
37686W        W 6060  13.283   5.366  10.512
37687W        W 6061  26.084  22.199   0.311
37688W        W 6062  28.681  32.478   2.279
37689W        W 6063  34.062  33.601  10.572
37690W        W 6064  17.801  18.711  11.530
37691W        W 6065  37.423   0.276  10.941
37692W        W 6066   7.880  42.860  13.023
37693W        W 6067  24.604  16.255  11.533
37694W        W 6068   7.290   5.799   9.967
37695W        W 6069  19.129  30.142  11.025
37696W        W 6070  44.482   2.748   3.755
37697W        W 6071  16.119  32.055   0.294
37698W        W 6072   7.202   2.966   5.113
37699W        W 6073  32.426   6.750  14.956
37700W        W 6074  41.443  31.940  13.355
37701W        W 6075  41.475  35.420   0.925
37702W        W 6076  11.842  28.164   4.620
37703W        W 6077   1.879  22.682  12.880
37704W        W 6078  42.357  17.103   1.838
37705W        W 6079  28.046   9.698   3.752
37706W        W 6080  18.772  17.135   2.308
37707W        W 6081  29.001   8.775   4.290
37708W        W 6082  22.544  32.518   5.093
37709W        W 6083  11.795  15.153   4.232
37710W        W 6084  33.529  20.680  14.504
37711W        W 6085  24.552  41.348   1.711
37712W        W 6086  33.455  20.610   4.295
37713W        W 6087   1.934  17.277  13.442
37714W        W 6088  28.037  10.288   2.793
37715W        W 6089  20.673  33.082  12.933
37716W        W 6090  39.887  27.131  11.402
37717W        W 6091  24.657  17.143  12.007
37718W        W 6092  35.937  40.535  12.491
37719W        W 6093  21.646  27.167   3.713
37720W        W 6094  19.123  21.203  12.072
37721W        W 6095  11.363  12.162  12.508
37722W        W 6096   1.955   0.275   0.327
37723W        W 6097  42.975  34.524  14.804
37724W        W 6098  40.311  20.184   1.748
37725W        W 6099  35.858  43.275   4.711
37726W        W 6100  31.548   7.221   2.873
37727W        W 6101   1.734   7.852  10.922
37728W        W 6102   0.770  24.051   0.877
37729W        W 6103  31.418   2.845   0.843
37730W        W 6104  41.864   4.783   0.901
37731W        W 6105  23.990   2.965   1.918
37732W        W 6106  40.542  25.085   0.346
37733W        W 6107   7.838  43.513  14.916
37734W        W 6108  35.919  21.676   0.252
37735W        W 6109  40.012  28.145   4.126
37736W        W 6110   9.177  24.050  10.979
37737W        W 6111  12.293   1.899   3.783
37738W        W 6112  18.285  12.641   2.785
37739W        W 6113  15.819  23.130  14.877
37740W        W 6114   9.311  26.616   4.276
37741W        W 6115  28.112  43.971  11.435
37742W        W 6116  31.983  26.015  11.012
37743W        W 6117  16.661  21.100  14.760
37744W        W 6118   3.920  24.154   0.467
37745W        W 6119  25.554  30.592  14.282
37746W        W 6120  10.343  36.456   3.184
37747W        W 6121   0.840  34.036  12.932
37748W        W 6122  38.966  38.841  11.030
37749W        W 6123  30.444  20.556  14.894
37750W        W 6124  13.324  13.642   4.221
37751W        W 6125  25.010   9.791  14.895
37752W        W 6126  21.673  16.091   1.868
37753W        W 6127  18.236  30.494  12.076
37754W        W 6128  25.653  18.555   2.753
37755W        W 6129  13.307  16.275  10.616
37756W        W 6130  44.763  31.571   0.251
37757W        W 6131  26.167   4.302  14.777
37758W        W 6132  39.918  26.695   1.390
37759W        W 6133  37.891   1.976   3.798
37760W        W 6134  25.567  34.395  13.021
37761W        W 6135  38.922  35.506  11.475
37762W        W 6136  34.911  22.639   2.865
37763W        W 6137  17.796  16.760  14.392
37764W        W 6138  33.494   8.850   4.670
37765W        W 6139  15.118  43.786   3.851
37766W        W 6140   1.814  29.574  10.611
37767W        W 6141  14.302   1.479  11.926
37768W        W 6142  30.931  21.234   0.947
37769W        W 6143  10.162  40.491   5.141
37770W        W 6144  16.072  40.976  10.568
37771W        W 6145  28.486   5.318  10.602
37772W        W 6146  21.022  42.411  10.585
37773W        W 6147   4.247  36.864  14.886
37774W        W 6148   4.313  36.996  12.018
37775W        W 6149  13.228  20.675   4.670
37776W        W 6150  40.867  26.094   0.414
37777W        W 6151  12.812  16.777   0.856
37778W        W 6152  39.440   8.202   1.318
37779W        W 6153  41.829   0.422   3.303
37780W        W 6154  16.242   4.245   1.351
37781W        W 6155  38.942  14.795   1.838
37782W        W 6156   5.783  15.765   0.760
37783W        W 6157  19.080  24.536   2.411
37784W        W 6158  22.698   5.872   0.741
37785W        W 6159  12.847   2.338  14.915
37786W        W 6160  25.539  28.082  11.922
37787W        W 6161  42.407  33.121   2.771
37788W        W 6162  38.478   5.830  12.460
37789W        W 6163  21.647  19.169  12.907
37790W        W 6164  21.541  13.142   1.414
37791W        W 6165   9.341   6.317   1.910
37792W        W 6166  28.526  43.007   5.131
37793W        W 6167  28.572  11.795  14.425
37794W        W 6168   2.298  20.175  13.540
37795W        W 6169   5.734  30.162   4.645
37796W        W 6170   6.846   3.223  12.522
37797W        W 6171  10.165  24.503  12.935
37798W        W 6172  17.574  22.582  14.840
37799W        W 6173  26.048   5.835   0.477
37800W        W 6174  40.390  21.247   2.267
37801W        W 6175  27.006  30.658   0.919
37802W        W 6176  44.916  11.326   1.841
37803W        W 6177  38.541  38.054  14.420
37804W        W 6178   7.212  18.596   2.227
37805W        W 6179  37.401  24.151   0.334
37806W        W 6180  43.363  30.125   1.747
37807W        W 6181  22.219  15.603  11.561
37808W        W 6182  41.793  40.450   1.821
37809W        W 6183  32.105  26.558   4.246
37810W        W 6184  35.516  15.105  14.497
37811W        W 6185  17.664   9.756  14.298
37812W        W 6186  33.520   4.841   4.667
37813W        W 6187  15.707  21.053   5.272
37814W        W 6188  24.986  17.706   4.162
37815W        W 6189  32.950  35.553   3.172
37816W        W 6190  35.406  25.498  10.420
37817W        W 6191  35.969  20.198   3.783
37818W        W 6192  40.430  13.163   2.243
37819W        W 6193  41.317   6.305  13.835
37820W        W 6194   6.267  39.829  11.565
37821W        W 6195  29.529  26.987  12.491
37822W        W 6196  43.906  14.724  12.945
37823W        W 6197  36.095  26.088  10.966
37824W        W 6198  26.117  17.657   3.258
37825W        W 6199  44.787  18.268  14.911
37826W        W 6200  28.148  43.513  11.878
37827W        W 6201   3.333  34.966   0.468
37828W        W 6202  27.128  32.452   4.753
37829W        W 6203  44.890  40.319  10.465
37830W        W 6204  41.526  33.392   3.335
37831W        W 6205   5.864  20.088  14.889
37832W        W 6206  22.122   3.835  13.015
37833W        W 6207  26.188  42.325  12.858
37834W        W 6208  10.167  26.522  11.479
37835W        W 6209  23.029  26.069  11.954
37836W        W 6210   7.246  38.398  11.030
37837W        W 6211  37.962  25.474   1.243
37838W        W 6212  13.232  23.088  13.030
37839W        W 6213  22.196  42.897   4.754
37840W        W 6214  34.384  30.907  13.367
37841W        W 6215  21.608  35.929  13.965
37842W        W 6216  15.098  19.771   2.407
37843W        W 6217   1.926  28.515   3.682
37844W        W 6218  15.766  41.521   2.258
37845W        W 6219   5.820  36.895   1.778
37846W        W 6220  35.369  31.043   0.842
37847W        W 6221  11.367  32.411  13.834
37848W        W 6222  22.091   3.817   0.838
37849W        W 6223  34.109  22.584  12.078
37850W        W 6224  10.726  24.192  12.568
37851W        W 6225  44.936   5.244  14.792
37852W        W 6226   9.291  28.085   2.752
37853W        W 6227  42.424  18.254   3.837
37854W        W 6228  20.192   0.907   2.238
37855W        W 6229  30.146   2.376   2.821
37856W        W 6230  35.492  11.356  14.293
37857W        W 6231  39.941  11.631  11.979
37858W        W 6232  31.146  21.577   0.933
37859W        W 6233  42.284  25.123   2.883
37860W        W 6234  41.331  34.588  11.018
37861W        W 6235  25.179   0.876   0.465
37862W        W 6236  44.331  33.402  10.945
37863W        W 6237   9.747  30.143  12.897
37864W        W 6238  21.056   0.487  10.072
37865W        W 6239   7.244  15.127   3.207
37866W        W 6240  20.181  42.500  13.043
37867W        W 6241  37.460   5.731  12.979
37868W        W 6242  22.666   6.322  14.454
37869W        W 6243   2.733  44.366   2.831
37870W        W 6244  33.884  42.506   0.907
37871W        W 6245  14.599  38.467  12.023
37872W        W 6246  40.034   1.828  14.973
37873W        W 6247  30.586  39.910  11.963
37874W        W 6248   9.298  27.185  11.556
37875W        W 6249  21.671  37.425  14.949
37876W        W 6250  42.966   5.708  13.432
37877W        W 6251  25.072  25.572   3.177
37878W        W 6252  18.273  30.042   1.410
37879W        W 6253  17.565   0.450  12.869
37880W        W 6254   1.399  27.992   0.282
37881W        W 6255  15.702  20.581   1.446
37882W        W 6256  19.728  10.779  13.054
37883W        W 6257  34.905  37.411   5.292
37884W        W 6258  14.720  15.815  14.433
37885W        W 6259  29.023  43.329  10.912
37886W        W 6260  22.236  23.087   1.721
37887W        W 6261  12.273  28.100   4.805
37888W        W 6262  27.640  43.396  12.095
37889W        W 6263  25.063  36.533   2.296
37890W        W 6264  36.378  18.562  11.405
37891W        W 6265  31.521  32.408   1.212
37892W        W 6266  28.017  32.473  11.989
37893W        W 6267  42.466   4.240  10.463
37894W        W 6268  16.159  33.925  14.811
37895W        W 6269  35.904  29.556   0.412
37896W        W 6270  42.466  16.255  10.572
37897W        W 6271   1.896   5.741  13.481
37898W        W 6272  26.117  27.100  11.885
37899W        W 6273  26.506  30.581   4.633
37900W        W 6274  15.194   9.788  10.962
37901W        W 6275   1.296   5.741   2.232
37902W        W 6276   6.235  40.451  11.855
37903W        W 6277  12.796  30.092   2.873
37904W        W 6278   5.849   1.825  14.474
37905W        W 6279  41.420  17.791  12.567
37906W        W 6280  29.137  31.509  14.826
37907W        W 6281  22.054  36.043  13.859
37908W        W 6282   7.688  35.059  14.515
37909W        W 6283  25.617  29.001   4.816
37910W        W 6284  33.466  30.016   1.901
37911W        W 6285  35.586  32.928   3.181
37912W        W 6286  27.459   7.355   0.932
37913W        W 6287  16.148  21.043   2.341
37914W        W 6288   3.723  32.938   0.312
37915W        W 6289  32.517  42.333  13.364
37916W        W 6290  37.994  28.127   4.315
37917W        W 6291  37.529   7.689   4.320
37918W        W 6292  20.715  27.475   3.372
37919W        W 6293  42.347  29.563   4.232
37920W        W 6294  25.060  42.870   3.846
37921W        W 6295  22.023   6.728   1.724
37922W        W 6296  31.026  26.581   3.350
37923W        W 6297  20.655  37.940   0.394
37924W        W 6298   1.431  14.190   2.340
37925W        W 6299  23.143  25.534  10.626
37926W        W 6300  24.678  27.612  11.011
37927W        W 6301  39.370  11.286  11.013
37928W        W 6302  32.593  43.339   3.193
37929W        W 6303   0.248  28.539   2.194
37930W        W 6304  20.153  31.913   3.758
37931W        W 6305  25.636   5.784   0.790
37932W        W 6306  41.429  15.817  13.985
37933W        W 6307  12.824  15.272   1.781
37934W        W 6308  25.494   1.352   1.314
37935W        W 6309  10.735  17.753   4.253
37936W        W 6310  13.811  20.769  13.467
37937W        W 6311  41.336   0.839  11.397
37938W        W 6312  19.635  25.212  11.957
37939W        W 6313  17.184  15.099   3.339
37940W        W 6314   8.678  22.132  14.462
37941W        W 6315  32.637  20.266  12.526
37942W        W 6316   7.381  39.397  10.469
37943W        W 6317   2.854  10.210  14.998
37944W        W 6318  25.549   8.850  13.502
37945W        W 6319  43.885   3.930  11.562
37946W        W 6320  16.310  17.154  11.020
37947W        W 6321  13.785   8.354   5.601
37948W        W 6322  20.665  34.884   4.836
37949W        W 6323  44.348  36.052   2.288
37950W        W 6324   5.245  39.500   0.897
37951W        W 6325  26.194  11.785  13.455
37952W        W 6326   6.733  16.104   2.751
37953W        W 6327   0.828  36.850   2.725
37954W        W 6328  11.343   8.389  14.766
37955W        W 6329  35.531  23.541   0.965
37956W        W 6330   7.688  34.080  11.908
37957W        W 6331  25.533  18.173  11.375
37958W        W 6332   1.405  25.127   3.148
37959W        W 6333  12.732   1.738  12.518
37960W        W 6334   7.701  29.515   3.302
37961W        W 6335  12.671   7.377   2.888
37962W        W 6336  30.015  13.760  12.092
37963W        W 6337  18.674  32.888  14.028
37964W        W 6338  20.695  44.932   3.761
37965W        W 6339   8.763  37.072   3.355
37966W        W 6340  37.468   3.926   3.664
37967W        W 6341  35.366   9.281   1.211
37968W        W 6342  24.209  26.115   2.811
37969W        W 6343  36.956  33.908   1.810
37970W        W 6344  39.833   3.823  12.080
37971W        W 6345  29.075  43.958   2.286
37972W        W 6346  44.935  23.082  11.598
37973W        W 6347  31.993   9.728  10.510
37974W        W 6348   0.972  24.221   4.124
37975W        W 6349   1.905  32.912  13.520
37976W        W 6350   2.835  33.937  10.434
37977W        W 6351  33.903   1.876  11.942
37978W        W 6352   3.448  33.951   1.425
37979W        W 6353   0.253   0.269   4.647
37980W        W 6354  20.158  27.193  14.404
37981W        W 6355   1.761   0.882  14.023
37982W        W 6356  12.636  36.478   1.735
37983W        W 6357  27.992   5.765  14.295
37984W        W 6358  10.235   6.779  13.954
37985W        W 6359  16.236  35.535  13.392
37986W        W 6360  32.971  10.352  14.869
37987W        W 6361   4.239  40.037   3.634
37988W        W 6362  23.229  31.519   5.732
37989W        W 6363  19.753  11.190   1.870
37990W        W 6364  12.843  33.064   1.439
37991W        W 6365  42.458  20.646   3.321
37992W        W 6366  29.454  41.905   1.802
37993W        W 6367  32.920  19.253   0.774
37994W        W 6368  38.563  30.587   1.255
37995W        W 6369  40.530  23.512  14.839
37996W        W 6370   3.308  30.138  10.478
37997W        W 6371  34.043   2.272  12.355
37998W        W 6372  19.204   1.857   1.429
37999W        W 6373  19.170  16.669   3.646
38000W        W 6374  38.012  13.143  14.942
38001W        W 6375  41.505  19.696  14.844
38002W        W 6376  21.603  20.705  12.346
38003W        W 6377  19.101   2.413  13.062
38004W        W 6378  38.035  38.342  13.803
38005W        W 6379   1.882  43.315  11.052
38006W        W 6380  27.042  25.490  12.503
38007W        W 6381  31.053  44.500   0.781
38008W        W 6382   7.904  20.199   9.931
38009W        W 6383  18.765   9.783   1.225
38010W        W 6384  13.174  40.827   4.758
38011W        W 6385  26.487  11.368   9.949
38012W        W 6386  26.959  36.561  13.958
38013W        W 6387  15.785   5.901   2.689
38014W        W 6388  10.241  13.209   4.722
38015W        W 6389  42.452  20.166  13.970
38016W        W 6390  43.300  30.050  14.004
38017W        W 6391  44.965  39.464   0.289
38018W        W 6392  23.142  38.460   0.959
38019W        W 6393  10.247  37.411   3.349
38020W        W 6394  43.347   1.385  11.455
38021W        W 6395  37.426  31.054  11.453
38022W        W 6396  11.666   0.353  12.857
38023W        W 6397  27.664  17.756  10.583
38024W        W 6398  15.282  13.231   0.838
38025W        W 6399  24.189  27.624   1.307
38026W        W 6400   7.719  41.349  13.051
38027W        W 6401   3.931   2.458  13.407
38028W        W 6402  27.158   0.821  10.956
38029W        W 6403   8.712  32.058  13.836
38030W        W 6404   1.787  44.994   3.645
38031W        W 6405  42.527   9.180   3.668
38032W        W 6406  28.929  24.497   1.242
38033W        W 6407  32.026   1.891  10.967
38034W        W 6408  41.420  13.231  12.859
38035W        W 6409  36.363  42.942  12.913
38036W        W 6410  27.544  11.192   1.811
38037W        W 6411  17.753  14.622  11.458
38038W        W 6412  25.637  35.473  11.502
38039W        W 6413  10.200  16.084  13.526
38040W        W 6414  14.308  15.699   2.243
38041W        W 6415  10.284  43.434  14.928
38042W        W 6416  35.887  11.861  12.452
38043W        W 6417  14.677   8.721   2.829
38044W        W 6418  25.664  24.591  12.016
38045W        W 6419  34.501  25.629  13.499
38046W        W 6420  33.476  11.653   3.647
38047W        W 6421  15.690  17.641  10.596
38048W        W 6422  36.075   2.793   1.395
38049W        W 6423  34.960  27.554  11.467
38050W        W 6424  29.141  34.440  14.946
38051W        W 6425  33.577  31.544  13.947
38052W        W 6426  19.687  10.261   1.731
38053W        W 6427   3.754  29.155   2.846
38054W        W 6428  25.622  21.521  11.077
38055W        W 6429  26.534  16.164  13.000
38056W        W 6430   6.689  27.062  13.996
38057W        W 6431  25.494  39.955  13.969
38058W        W 6432  24.707   0.374  14.511
38059W        W 6433  11.793  31.141   1.269
38060W        W 6434  11.689  20.726  11.903
38061W        W 6435  28.530  35.507   4.246
38062W        W 6436  13.300  28.171   3.803
38063W        W 6437   1.919   4.229   3.779
38064W        W 6438   8.180  30.418   2.355
38065W        W 6439   7.342  42.520   1.760
38066W        W 6440  31.459   3.290  12.862
38067W        W 6441   1.428  10.265  13.935
38068W        W 6442  11.726  22.644   2.287
38069W        W 6443  10.364  26.027  12.052
38070W        W 6444  38.868  39.510  10.633
38071W        W 6445  44.794   3.454   1.746
38072W        W 6446  30.630   6.387  12.483
38073W        W 6447  29.630   6.714  12.414
38074W        W 6448   7.224  33.434  10.493
38075W        W 6449  33.443  18.681   4.810
38076W        W 6450   2.233  25.624   1.344
38077W        W 6451  36.398  20.067  10.571
38078W        W 6452  40.531  32.976   1.258
38079W        W 6453   3.761  36.002  11.991
38080W        W 6454  44.804   2.721  11.449
38081W        W 6455  38.907  22.624   4.137
38082W        W 6456  31.448   9.798   0.373
38083W        W 6457   9.210  34.482   2.886
38084W        W 6458  15.135  15.732   0.768
38085W        W 6459  21.054   3.400   2.834
38086W        W 6460  44.345  36.995   0.443
38087W        W 6461   8.368  13.293   3.824
38088W        W 6462  34.109  31.466   0.920
38089W        W 6463  43.964   5.861   0.397
38090W        W 6464   5.233   1.367  13.489
38091W        W 6465  15.179  44.770   1.761
38092W        W 6466  31.921  24.652   4.311
38093W        W 6467  29.996   6.416   3.665
38094W        W 6468  44.002  36.560   1.356
38095W        W 6469  14.613  35.108  12.530
38096W        W 6470  13.704   7.246  13.504
38097W        W 6471  18.128  19.223  12.864
38098W        W 6472  42.964  19.060  13.391
38099W        W 6473   6.218  30.462  11.028
38100W        W 6474  33.002  15.804   0.734
38101W        W 6475  29.972  17.731  13.485
38102W        W 6476  38.994  31.468   4.637
38103W        W 6477   3.750   0.433   1.908
38104W        W 6478  22.539  23.507   3.208
38105W        W 6479  14.151   9.301   0.934
38106W        W 6480  16.753  10.758   1.757
38107W        W 6481   8.328  12.646   1.231
38108W        W 6482  42.297  10.265   1.888
38109W        W 6483  26.491  12.709   1.231
38110W        W 6484  10.209  32.003  13.059
38111W        W 6485  19.686  42.889  14.887
38112W        W 6486  38.484  12.169   0.317
38113W        W 6487  36.579  32.058  13.900
38114W        W 6488  22.209  19.195  11.898
38115W        W 6489  14.094  29.605   5.314
38116W        W 6490  30.146  20.590  13.388
38117W        W 6491   9.844  14.144   0.938
38118W        W 6492  17.085  28.496  11.496
38119W        W 6493  36.852  16.124  12.531
38120W        W 6494  20.675  34.544   2.761
38121W        W 6495  43.809  28.092   0.917
38122W        W 6496  13.727   7.885   2.779
38123W        W 6497  33.560  24.118  14.788
38124W        W 6498  25.176  33.452   3.846
38125W        W 6499  37.033   4.716  11.398
38126W        W 6500  42.507   8.197  11.052
38127W        W 6501  11.635   9.363  13.327
38128W        W 6502  11.262  39.988  11.921
38129W        W 6503  18.193  30.006  13.848
38130W        W 6504   2.354  21.748  12.878
38131W        W 6505  18.279  16.618  10.988
38132W        W 6506  14.125  16.220  12.948
38133W        W 6507  20.151   1.766  13.009
38134W        W 6508  13.225   9.172   1.311
38135W        W 6509   4.279   5.862  12.071
38136W        W 6510  28.173  17.131   5.278
38137W        W 6511  43.863   3.311  14.767
38138W        W 6512   5.716  21.653  12.046
38139W        W 6513  23.691  22.571  12.450
38140W        W 6514   0.304  13.688   1.848
38141W        W 6515  37.445   4.352   4.690
38142W        W 6516   3.333  32.584   0.876
38143W        W 6517   8.760  22.616  14.513
38144W        W 6518  21.589   3.792   0.392
38145W        W 6519   9.734   7.781   4.716
38146W        W 6520  31.965  27.993  11.396
38147W        W 6521  39.417  33.057   1.880
38148W        W 6522  40.318  28.958   4.352
38149W        W 6523  39.347  29.083   0.247
38150W        W 6524  37.569  19.045  14.767
38151W        W 6525   4.299  12.847  13.353
38152W        W 6526   0.911  27.170  13.493
38153W        W 6527  32.559  27.997   0.854
38154W        W 6528   4.772  31.403  12.364
38155W        W 6529  26.206  29.108  13.901
38156W        W 6530  10.144   6.422   1.326
38157W        W 6531  23.156  26.203  14.907
38158W        W 6532  43.456   3.411   1.844
38159W        W 6533  35.358  37.575  11.593
38160W        W 6534  39.363  19.776  10.507
38161W        W 6535  17.678  42.993   0.304
38162W        W 6536  12.705  42.847   2.351
38163W        W 6537  40.437  21.756  11.398
38164W        W 6538  24.491  10.257   0.854
38165W        W 6539  29.577  11.818   1.879
38166W        W 6540  35.484  14.100   1.351
38167W        W 6541  36.095   7.265   4.114
38168W        W 6542  17.140  15.305  14.862
38169W        W 6543   0.314  38.051   4.335
38170W        W 6544  40.929  40.419  13.057
38171W        W 6545   6.214   2.747  14.462
38172W        W 6546  40.930  12.771  12.447
38173W        W 6547  11.741  30.135  14.006
38174W        W 6548  21.067  35.077  13.044
38175W        W 6549  37.011  16.785  12.516
38176W        W 6550   0.858  24.026   2.755
38177W        W 6551   7.717  37.927   2.879
38178W        W 6552  10.692   8.770  10.993
38179W        W 6553  34.439  31.004  11.031
38180W        W 6554  43.822  39.822  11.920
38181W        W 6555   7.874  21.652   3.329
38182W        W 6556  42.022  43.374   3.293
38183W        W 6557  33.407  30.529   1.235
38184W        W 6558  29.469  41.361  13.923
38185W        W 6559  27.135  20.596   1.383
38186W        W 6560  26.120  16.251  12.564
38187W        W 6561  36.569   0.413   1.726
38188W        W 6562  38.002   3.759   3.663
38189W        W 6563  20.665  41.847   0.758
38190W        W 6564  37.391  41.515   3.725
38191W        W 6565  10.645  17.087   2.321
38192W        W 6566   9.823  19.074   1.275
38193W        W 6567  25.192  17.588  11.416
38194W        W 6568  27.160  40.025   4.752
38195W        W 6569   7.845  34.058  10.407
38196W        W 6570   3.239  21.199   9.952
38197W        W 6571   0.342  26.494  10.908
38198W        W 6572   0.248  34.989  10.612
38199W        W 6573   1.473   9.726  13.410
38200W        W 6574   2.315  36.070  11.003
38201W        W 6575  33.057  41.296  14.392
38202W        W 6576  41.952  20.651   2.417
38203W        W 6577  16.737  14.696   1.842
38204W        W 6578   6.764  14.730  13.307
38205W        W 6579  27.941  13.785  10.978
38206W        W 6580  37.560  15.671   3.363
38207W        W 6581  13.743  24.044   2.418
38208W        W 6582   3.815  32.936  13.909
38209W        W 6583  16.638  20.611   0.745
38210W        W 6584  34.110  30.928  11.586
38211W        W 6585  38.424  35.469  13.375
38212W        W 6586  34.080  25.634  12.941
38213W        W 6587  43.394   9.277  11.942
38214W        W 6588  29.074  19.768  10.605
38215W        W 6589   6.328   9.687  10.534
38216W        W 6590  32.512  38.876   1.885
38217W        W 6591  33.403  25.068   0.292
38218W        W 6592  13.108  35.427  13.003
38219W        W 6593  13.779  11.294  14.817
38220W        W 6594   0.279  42.434  14.997
38221W        W 6595  31.941  38.913  11.046
38222W        W 6596  24.157   8.752   5.184
38223W        W 6597  32.001  17.133  14.345
38224W        W 6598   0.325  34.900   1.346
38225W        W 6599  21.642  19.221   1.227
38226W        W 6600  43.325  35.975  14.359
38227W        W 6601  27.535  29.467  13.399
38228W        W 6602  19.087  30.134   2.764
38229W        W 6603   1.302  27.020  12.391
38230W        W 6604  11.762  43.939   0.420
38231W        W 6605  37.344  12.621   0.822
38232W        W 6606  31.951   0.367  11.561
38233W        W 6607  10.736  35.067  13.814
38234W        W 6608  38.549  11.844  10.489
38235W        W 6609   8.720  14.186  10.575
38236W        W 6610  42.424  16.299  12.384
38237W        W 6611  30.650   2.304   0.454
38238W        W 6612  15.276  11.707  12.921
38239W        W 6613   0.307  14.761   1.877
38240W        W 6614  44.826   1.314   3.313
38241W        W 6615  36.561  30.122  10.446
38242W        W 6616   2.907  39.888  12.064
38243W        W 6617  24.063  19.693  12.855
38244W        W 6618   7.823  23.182   1.340
38245W        W 6619  16.181  27.567   4.181
38246W        W 6620  14.741   8.670  10.889
38247W        W 6621  29.163   7.861  10.572
38248W        W 6622  19.134  18.251   0.455
38249W        W 6623  42.491  32.558   3.346
38250W        W 6624  32.958  40.445  14.332
38251W        W 6625  32.952  20.244  13.943
38252W        W 6626  34.510  37.481   1.214
38253W        W 6627  37.962  14.242  14.855
38254W        W 6628   8.873  25.697   0.294
38255W        W 6629  11.745   1.829   9.941
38256W        W 6630  44.955  26.700  14.990
38257W        W 6631  41.983  34.436   0.357
38258W        W 6632  28.121  34.455   4.207
38259W        W 6633  37.380  16.219   2.845
38260W        W 6634  37.955   7.245  12.405
38261W        W 6635  43.777  25.116   4.824
38262W        W 6636  28.626  12.252   4.198
38263W        W 6637  18.189  32.481  12.391
38264W        W 6638  13.200   8.366   4.325
38265W        W 6639  18.729  29.922  10.495
38266W        W 6640  25.014  31.449  12.991
38267W        W 6641  11.208   9.735  12.452
38268W        W 6642  14.135  35.601  12.863
38269W        W 6643  27.139  17.661  14.395
38270W        W 6644  40.838  39.545  14.510
38271W        W 6645  25.028   4.280  10.933
38272W        W 6646  37.026  29.039  14.426
38273W        W 6647  13.799  38.459  13.975
38274W        W 6648  28.062  42.974   0.432
38275W        W 6649  32.543  39.555   1.734
38276W        W 6650   4.312  16.315   2.793
38277W        W 6651  26.653   4.315   2.713
38278W        W 6652  23.169   6.323  10.893
38279W        W 6653  38.503  17.155   0.953
38280W        W 6654  40.855  11.144  13.040
38281W        W 6655   6.350  21.026   1.352
38282W        W 6656  19.107  22.619  13.987
38283W        W 6657  24.163  31.118   3.687
38284W        W 6658  22.031  28.929   3.246
38285W        W 6659  22.713  31.131   2.894
38286W        W 6660  38.413   0.796   3.255
38287W        W 6661  32.396  26.655   0.393
38288W        W 6662  26.049  30.563  14.282
38289W        W 6663  16.252  18.248   4.243
38290W        W 6664  29.455  41.488   2.826
38291W        W 6665  35.060  23.063   0.932
38292W        W 6666  21.066  16.164   3.314
38293W        W 6667  24.144  14.112   4.277
38294W        W 6668  44.966   4.779   3.770
38295W        W 6669  24.657  20.234   4.268
38296W        W 6670  10.305  37.574   0.835
38297W        W 6671  30.579  20.239   1.734
38298W        W 6672  12.853   6.744  11.563
38299W        W 6673  33.618   3.923  10.585
38300W        W 6674  34.104   4.351   0.895
38301W        W 6675   7.903  20.625   1.371
38302W        W 6676  32.407  37.463  14.848
38303W        W 6677   0.394  30.013  11.059
38304W        W 6678  12.345  35.597  14.879
38305W        W 6679  34.391  29.623   2.386
38306W        W 6680  15.605   2.399   0.468
38307W        W 6681   2.379   9.320   0.443
38308W        W 6682  15.730   7.297  13.971
38309W        W 6683   9.753  22.650  10.904
38310W        W 6684  17.752   2.371   2.745
38311W        W 6685  11.235  13.680   3.216
38312W        W 6686   8.845   7.202   2.279
38313W        W 6687   0.279  44.273   3.225
38314W        W 6688  23.556   0.830   3.168
38315W        W 6689  27.986  29.626   1.269
38316W        W 6690  44.280   5.702  12.573
38317W        W 6691  21.539  40.891  12.029
38318W        W 6692  18.199   2.835   0.851
38319W        W 6693  11.311  18.678  11.120
38320W        W 6694  28.157  34.896  13.820
38321W        W 6695  25.071   0.813  14.994
38322W        W 6696  24.616  29.432   4.700
38323W        W 6697  29.942  20.589   4.306
38324W        W 6698  12.329  31.145   3.804
38325W        W 6699  22.717   7.208  13.358
38326W        W 6700  37.988  36.915  12.367
38327W        W 6701  15.122  27.520  13.026
38328W        W 6702  28.510   8.333   1.368
38329W        W 6703  38.943   1.863  14.003
38330W        W 6704  22.705  16.254  12.022
38331W        W 6705   5.437   9.867   2.403
38332W        W 6706  22.537  12.655  13.307
38333W        W 6707  42.929   8.222  14.383
38334W        W 6708  44.988  14.704  10.626
38335W        W 6709  20.582  17.087  11.417
38336W        W 6710  19.733  29.498  14.781
38337W        W 6711  14.115   1.452  10.937
38338W        W 6712  17.587   4.208  14.442
38339W        W 6713  32.540  18.709  10.948
38340W        W 6714  31.922  15.114   3.161
38341W        W 6715  20.125  18.239  10.530
38342W        W 6716  12.638  34.518  10.900
38343W        W 6717   2.250   3.384  12.022
38344W        W 6718  18.552  28.498  14.461
38345W        W 6719  26.084  22.566  11.536
38346W        W 6720   5.923   7.862   1.220
38347W        W 6721  10.147  37.850  11.510
38348W        W 6722  25.603  44.336   4.737
38349W        W 6723   0.885  31.585   2.315
38350W        W 6724   2.750  11.184   2.268
38351W        W 6725  25.478  19.732   2.665
38352W        W 6726  28.048  36.494  12.516
38353W        W 6727  42.828  16.173  10.981
38354W        W 6728  22.546  31.491  11.983
38355W        W 6729  10.679  41.318  13.044
38356W        W 6730  36.071  25.967   0.314
38357W        W 6731  16.724  14.200   3.638
38358W        W 6732  23.650  37.506  12.917
38359W        W 6733   5.901  44.264  11.577
38360W        W 6734  44.861  26.072   2.246
38361W        W 6735  20.130  26.654   4.184
38362W        W 6736  41.811  29.638   3.253
38363W        W 6737   0.753  33.034   2.662
38364W        W 6738   7.251   9.818  13.792
38365W        W 6739   8.815  17.670  10.004
38366W        W 6740  42.391  25.577  13.345
38367W        W 6741  35.395  27.639  10.587
38368W        W 6742   9.275  37.957  10.891
38369W        W 6743  32.571  34.579  13.338
38370W        W 6744  29.661  40.454   0.413
38371W        W 6745  11.821  24.516   2.697
38372W        W 6746  21.579  31.504  11.372
38373W        W 6747  26.568  41.982   2.416
38374W        W 6748  35.387  37.025  11.599
38375W        W 6749  11.235  23.498   0.256
38376W        W 6750  15.821  38.939   5.313
38377W        W 6751  13.636  39.971   3.713
38378W        W 6752  14.703  11.753   3.851
38379W        W 6753  41.042  10.310   0.466
38380W        W 6754  22.501  26.559   2.797
38381W        W 6755   7.841  23.002   4.768
38382W        W 6756   0.416  25.127   0.373
38383W        W 6757  19.256  16.741   4.724
38384W        W 6758  33.548  44.936   0.343
38385W        W 6759  27.557  35.391   3.264
38386W        W 6760  13.736  14.222   2.672
38387W        W 6761  20.617  27.625   0.372
38388W        W 6762  39.385  29.007  11.454
38389W        W 6763  44.312  10.180  13.003
38390W        W 6764  19.118   3.410   2.787
38391W        W 6765  36.467  40.460   4.235
38392W        W 6766  43.022  33.094   0.736
38393W        W 6767  18.181  44.943   0.873
38394W        W 6768  21.154  26.072  14.836
38395W        W 6769  16.655  42.445  11.416
38396W        W 6770  25.060  37.571   2.401
38397W        W 6771  33.514   6.243  13.399
38398W        W 6772  16.255  39.953  12.039
38399W        W 6773  33.541  40.524   3.303
38400W        W 6774   8.665  43.015   2.266
38401W        W 6775  35.901  20.705  11.594
38402W        W 6776  40.415  31.474  10.613
38403W        W 6777  38.023  11.283   3.659
38404W        W 6778  17.582  35.585  12.365
38405W        W 6779  37.017  12.665  13.908
38406W        W 6780  16.724  18.161  10.991
38407W        W 6781   9.229  24.638   1.823
38408W        W 6782  21.512  24.142   0.425
38409W        W 6783  15.199   7.813   1.740
38410W        W 6784  21.722  23.072  11.389
38411W        W 6785  28.528   0.901   2.680
38412W        W 6786  21.183  43.457  12.566
38413W        W 6787  37.867  26.122  12.514
38414W        W 6788   0.314  36.556   4.330
38415W        W 6789  27.019  41.306   3.672
38416W        W 6790  35.968   4.722   0.401
38417W        W 6791  23.150  35.456  13.457
38418W        W 6792   5.708  11.229  13.546
38419W        W 6793  40.490  33.089  13.319
38420W        W 6794   8.193  44.958  12.404
38421W        W 6795  26.669   4.374  14.781
38422W        W 6796   8.355  43.384   0.828
38423W        W 6797   8.327  36.391   1.303
38424W        W 6798  11.215   9.269  13.899
38425W        W 6799  30.490  27.609  11.937
38426W        W 6800  38.977  34.541  13.374
38427W        W 6801  13.150  16.149   2.804
38428W        W 6802  37.888   2.458   0.839
38429W        W 6803  23.002  37.888   4.669
38430W        W 6804  40.549   2.769  11.068
38431W        W 6805   4.924  42.843  10.528
38432W        W 6806  19.570  38.421  13.312
38433W        W 6807  38.895  15.810  10.928
38434W        W 6808  23.045   4.704  11.065
38435W        W 6809  14.731  10.818  12.889
38436W        W 6810   0.886  20.265   0.310
38437W        W 6811  13.627  32.525  10.942
38438W        W 6812  33.076  27.075  14.314
38439W        W 6813  26.172  37.042   3.300
38440W        W 6814  26.047  19.597   0.381
38441W        W 6815  13.624  10.212   2.406
38442W        W 6816  44.827   8.684  11.889
38443W        W 6817  17.149  44.797   4.789
38444W        W 6818   3.883  23.504   4.826
38445W        W 6819  41.521  32.400  13.916
38446W        W 6820  20.249   5.407  11.479
38447W        W 6821  10.269  13.623   2.296
38448W        W 6822  18.570   1.350  13.879
38449W        W 6823   0.454  38.938  12.037
38450W        W 6824  37.906  31.609   0.467
38451W        W 6825  39.814  43.764  12.850
38452W        W 6826  29.016  32.915  12.945
38453W        W 6827  13.253  18.089  11.582
38454W        W 6828  12.126   9.875   4.792
38455W        W 6829  26.140  35.952  12.038
38456W        W 6830  41.796  13.816   4.644
38457W        W 6831  38.933  32.607  14.358
38458W        W 6832  32.968  18.600  12.058
38459W        W 6833  22.584   2.385   4.307
38460W        W 6834   9.831  10.706   4.728
38461W        W 6835  44.308  10.172  10.529
38462W        W 6836  19.710  38.376  14.852
38463W        W 6837   3.721  10.250  10.464
38464W        W 6838  37.947   2.438  14.288
38465W        W 6839   4.797  35.401  13.806
38466W        W 6840  14.152  33.424  14.905
38467W        W 6841  11.691  26.180  14.009
38468W        W 6842   8.850   3.338   1.845
38469W        W 6843  19.187  32.013   4.219
38470W        W 6844  23.026  36.586  12.493
38471W        W 6845  30.989   9.785   1.892
38472W        W 6846  28.981  15.781  11.454
38473W        W 6847  36.398   2.252  10.444
38474W        W 6848  25.039  27.609  10.047
38475W        W 6849  43.974  15.779   3.653
38476W        W 6850  32.020  32.904   0.289
38477W        W 6851   8.159  22.085   3.191
38478W        W 6852  14.701  37.356  14.312
38479W        W 6853   0.985  28.041   1.775
38480W        W 6854   4.783  24.491  13.884
38481W        W 6855   2.928  31.491   4.114
38482W        W 6856  26.197  44.354  13.315
38483W        W 6857  36.462   1.968   0.784
38484W        W 6858  19.708  27.647   0.822
38485W        W 6859  21.710  30.560  14.495
38486W        W 6860  24.490  43.795   1.860
38487W        W 6861  18.272  13.602   2.217
38488W        W 6862  17.592  42.336   3.230
38489W        W 6863   6.897  18.697   5.183
38490W        W 6864  37.061  38.888  12.823
38491W        W 6865  43.879  16.166   0.471
38492W        W 6866  22.133   8.830  14.810
38493W        W 6867  15.287  32.004   3.635
38494W        W 6868   5.728  35.597  13.547
38495W        W 6869  38.328  36.012   0.270
38496W        W 6870  16.648   2.909   4.794
38497W        W 6871  21.522   4.720  11.907
38498W        W 6872  12.637  38.021  14.299
38499W        W 6873  33.606  39.398   1.724
38500W        W 6874  25.649  28.141  12.966
38501W        W 6875  20.669  11.322   2.762
38502W        W 6876  43.954  26.583   3.794
38503W        W 6877  39.334  32.006   2.181
38504W        W 6878   8.180   8.355   2.757
38505W        W 6879  37.479   3.236  10.098
38506W        W 6880  44.499   4.748  13.915
38507W        W 6881  40.982   4.230  12.415
38508W        W 6882   6.790  44.378   0.822
38509W        W 6883  33.462   8.290  14.811
38510W        W 6884  12.228  11.278  11.473
38511W        W 6885  30.565  42.296   2.822
38512W        W 6886  25.666   9.674   2.278
38513W        W 6887  29.486  39.557   3.274
38514W        W 6888  13.637  35.423   0.793
38515W        W 6889  26.487  31.078  13.473
38516W        W 6890  23.635  40.319   1.434
38517W        W 6891  19.707  17.585  14.308
38518W        W 6892  37.040   5.410   2.841
38519W        W 6893  29.114  34.435   1.268
38520W        W 6894  37.517  42.463   3.237
38521W        W 6895  39.468  39.863   3.860
38522W        W 6896  41.464  18.077  10.635
38523W        W 6897  23.526   9.860  12.473
38524W        W 6898  41.450  12.711  12.449
38525W        W 6899   3.326  42.846   0.836
38526W        W 6900  31.578  21.613   1.301
38527W        W 6901  10.782   6.871   1.872
38528W        W 6902   3.397  38.449  10.990
38529W        W 6903  16.748   1.247   1.243
38530W        W 6904   7.837  24.611   0.475
38531W        W 6905  37.937  26.197  13.829
38532W        W 6906  39.488  17.125   0.281
38533W        W 6907   1.242  44.494  14.885
38534W        W 6908   1.376  21.044  11.432
38535W        W 6909  40.851  44.439   3.755
38536W        W 6910  34.424  25.160   4.710
38537W        W 6911  36.461  26.668   3.688
38538W        W 6912  36.460  10.179  13.902
38539W        W 6913  35.398  44.427   0.762
38540W        W 6914  14.135  27.086   4.162
38541W        W 6915  16.767  44.982   4.645
38542W        W 6916  19.671  27.583  10.605
38543W        W 6917  23.568  26.562  13.460
38544W        W 6918   1.957  21.150   1.259
38545W        W 6919  35.401  39.434  11.068
38546W        W 6920  28.554  24.577  13.048
38547W        W 6921   9.830  21.134  11.589
38548W        W 6922  40.514  37.471   2.221
38549W        W 6923   9.379  26.560  11.442
38550W        W 6924  44.900  30.073  13.472
38551W        W 6925  34.989  28.676  10.970
38552W        W 6926   3.855  17.300   4.277
38553W        W 6927   4.312   5.818   0.796
38554W        W 6928  29.613  27.479   3.334
38555W        W 6929  29.952  15.140   1.922
38556W        W 6930  32.617   3.313   4.320
38557W        W 6931  40.976  37.950   1.246
38558W        W 6932  41.509  21.588  10.637
38559W        W 6933   2.733   8.275  12.343
38560W        W 6934  26.183  25.159  11.913
38561W        W 6935  17.577  15.171   2.279
38562W        W 6936  13.167  14.156   1.378
38563W        W 6937  21.227  36.472  10.914
38564W        W 6938  30.488   4.919   4.670
38565W        W 6939  38.858  11.764   0.323
38566W        W 6940   9.726  19.174  11.015
38567W        W 6941  42.369  39.551  12.943
38568W        W 6942  36.346  41.409   1.398
38569W        W 6943  23.992  41.394  13.007
38570W        W 6944  26.461  32.507   3.800
38571W        W 6945   4.255  13.228  14.351
38572W        W 6946  27.091  44.491   3.860
38573W        W 6947  43.981  18.141  10.606
38574W        W 6948   3.224  12.667   4.712
38575W        W 6949   4.371  32.494  14.788
38576W        W 6950  25.066   9.273   2.299
38577W        W 6951  22.642  24.992  13.883
38578W        W 6952   2.741   7.713  12.525
38579W        W 6953  42.403  16.604  13.419
38580W        W 6954  21.670  31.589  13.957
38581W        W 6955  24.660  17.087  14.437
38582W        W 6956  28.654  41.965   1.719
38583W        W 6957   8.196  10.324  12.091
38584W        W 6958  38.071  29.958  12.444
38585W        W 6959   4.411   7.342  14.420
38586W        W 6960  11.254  18.211  13.462
38587W        W 6961  14.143  11.315  13.875
38588W        W 6962  21.250  43.512   3.286
38589W        W 6963  10.731   4.414  11.986
38590W        W 6964  31.505  16.293  14.832
38591W        W 6965   5.850   7.391  13.997
38592W        W 6966  19.636  31.964   5.233
38593W        W 6967  16.798  44.964  11.987
38594W        W 6968  12.140  19.209  12.052
38595W        W 6969  38.930  40.911  11.482
38596W        W 6970  28.987  41.914  14.368
38597W        W 6971   9.785  23.508  13.038
38598W        W 6972  28.964  32.583  11.574
38599W        W 6973  26.576   0.384  13.849
38600W        W 6974   0.302  41.416  13.319
38601W        W 6975  33.937  35.392  10.524
38602W        W 6976   5.296  41.414   4.285
38603W        W 6977   4.827   4.416   3.803
38604W        W 6978  31.409   4.905   1.442
38605W        W 6979  41.475   1.844   1.260
38606W        W 6980  19.559  17.756   0.332
38607W        W 6981  32.029   6.739  13.045
38608W        W 6982  21.581  23.043  13.503
38609W        W 6983  21.673  29.569  11.462
38610W        W 6984  42.488  42.374   3.362
38611W        W 6985  11.234  29.028   1.858
38612W        W 6986  28.448  35.919  11.921
38613W        W 6987  11.147  24.014  14.461
38614W        W 6988  40.042  43.346   3.163
38615W        W 6989  27.536   6.814  10.995
38616W        W 6990  39.830  33.552  12.955
38617W        W 6991   7.859  29.077  13.400
38618W        W 6992  18.752  13.264  11.532
38619W        W 6993  10.784  42.827   1.735
38620W        W 6994   5.279  17.585   3.249
38621W        W 6995   1.480  36.489  11.525
38622W        W 6996   3.890   4.372  12.526
38623W        W 6997  19.579  11.763   0.249
38624W        W 6998   4.868  40.884   1.242
38625W        W 6999  43.499  25.610   0.839
38626W        W 7000  30.102   4.787  11.444
38627W        W 7001  17.215  26.112  14.466
38628W        W 7002  34.529   4.408   3.251
38629W        W 7003  16.638  41.907   2.849
38630W        W 7004   2.445  41.986   4.654
38631W        W 7005   6.281  29.942   5.264
38632W        W 7006  39.924  24.050   4.674
38633W        W 7007   4.730  21.253  12.578
38634W        W 7008  18.079  34.985   4.306
38635W        W 7009  23.064  40.406   0.808
38636W        W 7010  39.978   5.920   2.392
38637W        W 7011  28.525  30.158  10.530
38638W        W 7012  14.705  43.358   3.814
38639W        W 7013  38.350  38.898   0.447
38640W        W 7014  32.136  25.629   2.368
38641W        W 7015  19.737  29.067  13.406
38642W        W 7016   2.454  44.883  14.872
38643W        W 7017   7.725  26.572   0.301
38644W        W 7018  22.585  24.030  10.539
38645W        W 7019   1.369  13.199   1.240
38646W        W 7020  34.032   7.243  14.305
38647W        W 7021   8.357   0.366   4.631
38648W        W 7022  34.521  44.863   0.476
38649W        W 7023  35.038  21.073  10.142
38650W        W 7024  23.209  29.661  10.042
38651W        W 7025  31.100  18.638   3.264
38652W        W 7026  25.624  20.236  13.869
38653W        W 7027  31.419  22.716  10.452
38654W        W 7028  40.955  41.449   1.322
38655W        W 7029  42.794  32.578  11.459
38656W        W 7030  39.045  31.913   3.780
38657W        W 7031  44.298  11.265  11.085
38658W        W 7032  39.522  15.111  10.419
38659W        W 7033  21.591  17.570   3.822
38660W        W 7034  22.560  40.426  11.384
38661W        W 7035   7.350  14.782   1.255
38662W        W 7036  18.642  16.231  13.456
38663W        W 7037  16.595  26.511  14.915
38664W        W 7038  37.436   0.957  14.763
38665W        W 7039  18.280   8.203   2.782
38666W        W 7040  38.369   9.844  13.920
38667W        W 7041   3.738  13.825   0.731
38668W        W 7042   3.813  31.068  10.432
38669W        W 7043  43.942  37.928  12.580
38670W        W 7044  12.616  17.775   2.389
38671W        W 7045  43.364  26.188   1.294
38672W        W 7046  41.364  30.632   2.280
38673W        W 7047  21.186   4.731  11.496
38674W        W 7048  41.494  37.990  13.935
38675W        W 7049  22.518  17.085  12.898
38676W        W 7050  20.577   1.452   1.237
38677W        W 7051  12.356   5.707  13.028
38678W        W 7052  25.168  43.823   0.950
38679W        W 7053   0.846  21.172  10.119
38680W        W 7054   6.743  41.512   2.298
38681W        W 7055  31.505  32.457  13.817
38682W        W 7056  21.536  17.589   3.157
38683W        W 7057  29.489  19.190   4.218
38684W        W 7058  11.779  40.400   5.095
38685W        W 7059   4.355  12.701  12.377
38686W        W 7060   3.413  34.909  12.873
38687W        W 7061   4.275  17.694  11.496
38688W        W 7062  40.335  11.626  13.500
38689W        W 7063  40.926  38.988  10.627
38690W        W 7064  14.632   7.276   3.662
38691W        W 7065   6.750  33.596   2.267
38692W        W 7066  30.111  31.899   3.775
38693W        W 7067  33.949  28.586  14.400
38694W        W 7068   0.392  16.642  12.472
38695W        W 7069  20.079  14.719   1.740
38696W        W 7070  27.563  34.105  13.057
38697W        W 7071  27.615  17.586   1.437
38698W        W 7072   4.273   3.448   2.235
38699W        W 7073  24.507  29.480   5.140
38700W        W 7074  40.528  25.001  13.466
38701W        W 7075  11.140  40.839  14.384
38702W        W 7076  36.052  42.918   2.295
38703W        W 7077  11.775  43.430   3.152
38704W        W 7078  33.982   4.275  13.885
38705W        W 7079  22.009  32.888  12.075
38706W        W 7080  27.570  35.513  10.502
38707W        W 7081  38.367  35.979   2.320
38708W        W 7082  17.583  13.203   3.290
38709W        W 7083  20.730  24.513   4.334
38710W        W 7084  31.496   1.260   3.224
38711W        W 7085  44.325  24.018  13.341
38712W        W 7086  43.417  35.920  10.930
38713W        W 7087  32.124  36.008  14.497
38714W        W 7088  23.162  42.402  13.882
38715W        W 7089  33.927  20.715   3.326
38716W        W 7090   2.289  14.790  13.965
38717W        W 7091   0.273  16.669   2.210
38718W        W 7092  21.521  30.102  11.902
38719W        W 7093   4.858  23.207  14.906
38720W        W 7094   0.897  12.613   1.328
38721W        W 7095  23.157  12.319   4.289
38722W        W 7096  21.234  38.392  10.444
38723W        W 7097  31.096  30.122   0.478
38724W        W 7098  32.998   2.325  14.357
38725W        W 7099  19.235  18.107   3.167
38726W        W 7100   0.325  25.619   4.224
38727W        W 7101  32.394  14.613   1.750
38728W        W 7102   2.726  44.425  11.111
38729W        W 7103  20.239  13.263   4.629
38730W        W 7104  29.999   4.766   2.213
38731W        W 7105  33.906   5.813   0.254
38732W        W 7106  33.500   9.858  14.362
38733W        W 7107  28.674  14.634  10.510
38734W        W 7108  21.579  19.220  11.547
38735W        W 7109   2.955  32.088  13.956
38736W        W 7110  15.100  12.793   4.151
38737W        W 7111  43.406  30.108   3.867
38738W        W 7112  24.697  20.256  14.409
38739W        W 7113  33.623  35.473   0.297
38740W        W 7114  11.331  37.415  10.161
38741W        W 7115  31.097  43.276  14.839
38742W        W 7116   6.677   2.946  14.332
38743W        W 7117  44.812   8.698   3.811
38744W        W 7118  38.369   0.455  14.385
38745W        W 7119  27.013   0.420   3.272
38746W        W 7120  35.907  20.624  13.379
38747W        W 7121  42.492   0.897   2.414
38748W        W 7122   8.331  35.866   4.826
38749W        W 7123   9.794  36.035  10.414
38750W        W 7124  15.227  22.030  12.966
38751W        W 7125  11.838  13.165   2.825
38752W        W 7126  20.659  39.917   1.375
38753W        W 7127  42.937  43.463  13.414
38754W        W 7128  20.669  22.178   0.320
38755W        W 7129  31.574  21.693   2.389
38756W        W 7130  41.430  17.146   2.334
38757W        W 7131   5.434   3.363  14.762
38758W        W 7132  14.760  31.625  13.525
38759W        W 7133  41.438  23.013  13.998
38760W        W 7134  21.611  19.659   1.326
38761W        W 7135  21.645   4.758  13.516
38762W        W 7136  37.369  27.498  13.378
38763W        W 7137  12.144  41.537   1.894
38764W        W 7138  11.718  33.396  13.436
38765W        W 7139  17.157  30.456  11.123
38766W        W 7140  32.012   3.225  14.779
38767W        W 7141  31.594  27.009   3.639
38768W        W 7142  32.006  27.592   2.345
38769W        W 7143   7.314  18.202   1.856
38770W        W 7144  30.030  17.064   0.920
38771W        W 7145  33.381  18.250  12.358
38772W        W 7146  36.073  20.610  12.552
38773W        W 7147  27.999   1.919   2.767
38774W        W 7148  18.631  19.712  10.996
38775W        W 7149  28.530  12.648   2.193
38776W        W 7150  42.832  40.401   2.215
38777W        W 7151  12.778  39.352  11.870
38778W        W 7152  34.541  21.175  12.859
38779W        W 7153   1.417   3.825  11.916
38780W        W 7154  23.161  15.695   5.574
38781W        W 7155  39.874   9.178   5.292
38782W        W 7156  13.722   1.279   2.254
38783W        W 7157   9.360  27.016   0.270
38784W        W 7158  31.095  22.594   9.982
38785W        W 7159  38.068  35.602  11.504
38786W        W 7160  26.163  13.688   2.777
38787W        W 7161   6.846  29.035   5.130
38788W        W 7162  23.158   6.201  11.520
38789W        W 7163   7.387  18.158  13.508
38790W        W 7164   7.194  38.922  11.918
38791W        W 7165  40.324  26.139  12.859
38792W        W 7166  19.068   5.389   3.169
38793W        W 7167   3.837  31.531  12.386
38794W        W 7168   2.914  26.504  11.553
38795W        W 7169   0.427  35.001  11.371
38796W        W 7170  28.450  37.882   0.739
38797W        W 7171  24.107   0.943  11.592
38798W        W 7172  25.060   7.191  14.462
38799W        W 7173  39.062  34.430   3.363
38800W        W 7174  14.106  10.700  10.907
38801W        W 7175  17.094  37.042   1.319
38802W        W 7176   3.239  25.681  11.396
38803W        W 7177   5.803   6.815   4.157
38804W        W 7178  26.116   4.327   1.766
38805W        W 7179  21.251  24.696   2.786
38806W        W 7180  43.342  26.173  11.470
38807W        W 7181   4.261  16.617  14.960
38808W        W 7182  27.144  27.600   4.181
38809W        W 7183  28.464  44.973  14.796
38810W        W 7184  14.742  11.808   5.235
38811W        W 7185  23.728  33.508  13.921
38812W        W 7186   9.663  38.865  11.569
38813W        W 7187   7.821  24.085   4.719
38814W        W 7188  12.270  10.768  11.428
38815W        W 7189  20.061  43.836   4.835
38816W        W 7190  13.603   2.916   3.212
38817W        W 7191   4.422  19.594   2.844
38818W        W 7192  20.622  21.611   4.694
38819W        W 7193  28.072  38.893  12.875
38820W        W 7194  42.914  39.962  12.081
38821W        W 7195  31.152  24.119   2.248
38822W        W 7196  25.662  32.095  11.570
38823W        W 7197  32.437  19.599  14.955
38824W        W 7198  39.391  36.385  10.426
38825W        W 7199  13.797  34.593  10.526
38826W        W 7200  40.474   5.237   0.272
38827W        W 7201   1.780  40.480   0.365
38828W        W 7202  32.956  36.976   1.817
38829W        W 7203   5.827  42.806   4.179
38830W        W 7204  26.700   0.295   1.802
38831W        W 7205   3.790  32.029   1.874
38832W        W 7206  31.026  14.282  11.095
38833W        W 7207  16.651  17.233  12.095
38834W        W 7208  38.539  20.139  13.021
38835W        W 7209  14.823  24.004  12.080
38836W        W 7210  13.171   3.777  13.036
38837W        W 7211   4.916   2.955  13.963
38838W        W 7212   8.310  10.373   1.256
38839W        W 7213  35.909  16.097   0.917
38840W        W 7214  14.233  12.169  11.477
38841W        W 7215  36.584  39.463  13.409
38842W        W 7216  23.203  10.879   0.407
38843W        W 7217  28.505  23.719   0.877
38844W        W 7218  25.983  21.668   3.203
38845W        W 7219  22.997  34.045  13.414
38846W        W 7220  40.850   4.446  14.805
38847W        W 7221  31.994  29.511  12.055
38848W        W 7222  11.224  38.857  12.876
38849W        W 7223   4.349  41.429  14.970
38850W        W 7224  13.178   4.423   1.903
38851W        W 7225  41.502  29.477  11.036
38852W        W 7226  24.167  11.193   2.682
38853W        W 7227  25.608  19.160   4.227
38854W        W 7228  44.347  13.835   2.290
38855W        W 7229   4.905   9.690   2.856
38856W        W 7230  24.203  38.485   2.294
38857W        W 7231  43.407  21.712   3.344
38858W        W 7232  35.594  35.956  14.508
38859W        W 7233  35.410  11.136   4.822
38860W        W 7234  42.288  15.294   1.740
38861W        W 7235  35.042  22.668  11.499
38862W        W 7236   5.854  30.510  11.033
38863W        W 7237  40.538  33.531  11.973
38864W        W 7238  34.518   4.282   1.256
38865W        W 7239  10.798   9.284   4.711
38866W        W 7240   3.432  24.574   1.830
38867W        W 7241  40.852   7.694  14.953
38868W        W 7242  22.191  17.105  14.950
38869W        W 7243  14.287  25.508   1.726
38870W        W 7244  14.806  22.222   1.815
38871W        W 7245   7.876  34.478   1.752
38872W        W 7246  22.504  32.488   5.758
38873W        W 7247  15.617  24.574   3.847
38874W        W 7248  10.696  21.186   3.763
38875W        W 7249   4.863  31.598   1.238
38876W        W 7250   4.415  30.574  14.328
38877W        W 7251   3.896  30.648   0.936
38878W        W 7252  12.344  22.137   0.248
38879W        W 7253  25.132   8.326   0.352
38880W        W 7254   2.892   4.723   2.861
38881W        W 7255   5.405  11.708   1.243
38882W        W 7256  12.139  30.554   3.248
38883W        W 7257  14.780  14.659  14.302
38884W        W 7258  36.981  16.242   2.365
38885W        W 7259   8.387  26.134  14.824
38886W        W 7260  14.700  33.471   9.944
38887W        W 7261  31.903   5.695  12.354
38888W        W 7262   1.465  34.016   3.191
38889W        W 7263  21.044  41.439  14.979
38890W        W 7264  36.845   9.721   0.942
38891W        W 7265  24.042  29.023  10.055
38892W        W 7266   3.784  41.931  13.459
38893W        W 7267   7.805  27.087  12.447
38894W        W 7268   0.901  38.991   3.152
38895W        W 7269  30.606  12.205  11.087
38896W        W 7270  43.939  16.133  14.895
38897W        W 7271  12.700  25.633   0.466
38898W        W 7272   0.885  34.870   2.403
38899W        W 7273  33.441  13.825  14.317
38900W        W 7274  38.530  26.661   4.676
38901W        W 7275  26.666  42.392  11.966
38902W        W 7276   7.350  11.816   4.162
38903W        W 7277  37.336  28.599  13.453
38904W        W 7278   2.924  42.442  11.103
38905W        W 7279  43.872  24.224   3.344
38906W        W 7280   9.691  15.713   2.299
38907W        W 7281  43.321  14.265   0.958
38908W        W 7282  21.217   5.747   4.786
38909W        W 7283  12.720   7.391  12.558
38910W        W 7284   5.697   4.409   3.808
38911W        W 7285   1.879  44.279   2.388
38912W        W 7286  31.507  37.404   0.414
38913W        W 7287  30.156  11.299   2.698
38914W        W 7288  14.743   4.916  11.942
38915W        W 7289  15.608  10.137  11.996
38916W        W 7290  43.491   1.797   5.322
38917W        W 7291   2.914  37.062   3.735
38918W        W 7292  18.221  24.650  10.938
38919W        W 7293  38.924  37.349  13.493
38920W        W 7294  23.697  22.110   0.294
38921W        W 7295   4.859  40.308  13.827
38922W        W 7296  14.233  29.631  14.388
38923W        W 7297  14.334  21.546  14.012
38924W        W 7298  17.101  41.305  12.927
38925W        W 7299  29.541  16.146   2.870
38926W        W 7300  20.739   0.253   1.321
38927W        W 7301   0.872  41.031  10.042
38928W        W 7302  42.438  15.096  13.316
38929W        W 7303  38.398  17.658  13.871
38930W        W 7304   3.322  31.073   4.606
38931W        W 7305  31.903  28.658  12.468
38932W        W 7306  44.485  10.726  10.478
38933W        W 7307  39.947  36.399  14.029
38934W        W 7308  13.310   6.726  13.510
38935W        W 7309   3.762  33.488   1.401
38936W        W 7310  33.454  16.122  12.577
38937W        W 7311  17.085  39.917  14.795
38938W        W 7312  20.094   7.218  11.949
38939W        W 7313  22.110   9.677  10.465
38940W        W 7314  10.376   1.857   2.870
38941W        W 7315  26.695   9.701  10.059
38942W        W 7316  39.514  20.743  11.112
38943W        W 7317  36.051  11.204  11.919
38944W        W 7318  28.520   9.825   3.354
38945W        W 7319  22.522  42.325  12.339
38946W        W 7320  30.082   4.427   4.667
38947W        W 7321  25.521  31.140  14.836
38948W        W 7322   8.201  23.229   3.806
38949W        W 7323  13.211  17.064   0.736
38950W        W 7324   7.393  19.047   3.756
38951W        W 7325  38.057  26.528  10.409
38952W        W 7326  28.465  26.983   4.131
38953W        W 7327  32.928   3.732   2.354
38954W        W 7328  12.765  43.352  14.477
38955W        W 7329  40.988  16.698  14.841
38956W        W 7330  16.177   9.768   3.729
38957W        W 7331  10.666  38.925  13.956
38958W        W 7332  41.796  11.356  12.912
38959W        W 7333  36.091   8.773  10.075
38960W        W 7334  24.185  44.843   1.226
38961W        W 7335   3.254  40.327  14.379
38962W        W 7336   7.292   1.761  12.062
38963W        W 7337   7.339  33.607   4.290
38964W        W 7338  10.699  15.746  12.431
38965W        W 7339   8.720  31.615   0.745
38966W        W 7340   3.364  18.742  12.393
38967W        W 7341  14.624  26.554   3.358
38968W        W 7342  15.138  33.114   0.837
38969W        W 7343   8.766  20.272   4.633
38970W        W 7344  43.285  19.107   2.222
38971W        W 7345  10.182  15.767   3.317
38972W        W 7346   9.255   2.345   0.838
38973W        W 7347  30.532   2.949   1.354
38974W        W 7348  10.300  38.354   1.907
38975W        W 7349  16.282  16.639   0.803
38976W        W 7350  25.664  39.007   1.709
38977W        W 7351  34.557  23.048  12.510
38978W        W 7352  18.281  42.960  14.439
38979W        W 7353   2.386  23.168   2.761
38980W        W 7354  17.589  19.282   1.805
38981W        W 7355  15.256  19.592   3.246
38982W        W 7356   9.726  31.945   0.298
38983W        W 7357  34.894  10.694  13.850
38984W        W 7358   0.429  12.333   4.345
38985W        W 7359  36.509  37.056   1.707
38986W        W 7360   9.290   8.318  11.491
38987W        W 7361  14.797  36.020  10.554
38988W        W 7362  15.636  32.031   5.317
38989W        W 7363  16.810  11.245   1.836
38990W        W 7364  43.492  15.184  12.066
38991W        W 7365   4.855  28.065  13.827
38992W        W 7366   1.872  26.478   3.794
38993W        W 7367  34.487   3.724   0.403
38994W        W 7368   7.232  32.482  12.340
38995W        W 7369  19.241   5.864  13.890
38996W        W 7370  20.164  26.686   4.684
38997W        W 7371  30.957  10.666   3.669
38998W        W 7372  22.718  32.527  14.455
38999W        W 7373  18.695  12.829   5.273
39000W        W 7374   3.238  31.494  11.037
39001W        W 7375  11.192  16.752   1.422
39002W        W 7376   0.437  44.372  11.951
39003W        W 7377  17.621  31.013   0.431
39004W        W 7378  35.515  21.245  13.344
39005W        W 7379  21.239   0.397   3.339
39006W        W 7380  43.282  44.411   4.777
39007W        W 7381  10.178   3.746   3.268
39008W        W 7382  38.061  37.833  13.525
39009W        W 7383  15.133  40.454  14.849
39010W        W 7384   9.270  30.514   9.452
39011W        W 7385  38.565  22.555  12.383
39012W        W 7386  13.648  43.852   0.330
39013W        W 7387  16.601   1.972   3.160
39014W        W 7388   4.252  33.392  13.473
39015W        W 7389  43.012   7.750   0.475
39016W        W 7390   5.365   5.786  10.469
39017W        W 7391  27.657  43.430   9.645
39018W        W 7392  16.299  22.111  11.870
39019W        W 7393  40.016  17.657  13.927
39020W        W 7394  44.265  29.669  11.477
39021W        W 7395   7.343  18.076  14.507
39022W        W 7396  29.100   8.336  12.981
39023W        W 7397   5.866  35.569   1.448
39024W        W 7398  27.531  43.856   4.211
39025W        W 7399  11.201  15.744   1.753
39026W        W 7400  27.986  25.495  11.406
39027W        W 7401  29.446  18.642  13.313
39028W        W 7402  16.245   9.796  10.095
39029W        W 7403  40.880  17.256   2.389
39030W        W 7404  32.945  35.950  12.391
39031W        W 7405  41.530  40.382  14.851
39032W        W 7406  19.156   8.176  13.869
39033W        W 7407  10.226  43.901   1.239
39034W        W 7408   8.657   1.276  14.776
39035W        W 7409  32.901  34.496  10.628
39036W        W 7410  23.075  43.899   1.879
39037W        W 7411  23.003  21.523  10.984
39038W        W 7412  36.352  15.820   1.247
39039W        W 7413  10.309  18.786   5.569
39040W        W 7414  29.642  17.296  12.988
39041W        W 7415  15.230  38.908  13.033
39042W        W 7416  39.813  24.172   0.904
39043W        W 7417   4.749  19.193  14.760
39044W        W 7418  10.672  23.993   1.381
39045W        W 7419  36.043  36.459   1.287
39046W        W 7420  30.564  30.930   0.863
39047W        W 7421  17.174  37.960  12.389
39048W        W 7422  19.094  18.553  10.478
39049W        W 7423  24.003  18.085  13.932
39050W        W 7424   8.175  23.609  14.471
39051W        W 7425  40.838  15.089  11.024
39052W        W 7426  14.239  18.061   1.234
39053W        W 7427   7.736  35.511  14.343
39054W        W 7428  20.115   8.850  14.317
39055W        W 7429   5.379  41.300   0.741
39056W        W 7430  18.607  13.668  14.943
39057W        W 7431  22.171  19.656   0.324
39058W        W 7432  17.742   2.311  12.399
39059W        W 7433   8.783  10.657  11.067
39060W        W 7434  18.769  42.450  13.820
39061W        W 7435  29.483  24.173  14.482
39062W        W 7436   9.377  11.131   0.948
39063W        W 7437  30.030   3.902  11.422
39064W        W 7438  41.031  38.869   2.223
39065W        W 7439  21.177  38.334   0.410
39066W        W 7440   4.364  29.936   2.695
39067W        W 7441  37.403  14.307  14.921
39068W        W 7442  34.478  15.801   4.192
39069W        W 7443  16.799  37.846   3.257
39070W        W 7444  42.904  11.180  11.067
39071W        W 7445  34.023  34.089   0.361
39072W        W 7446   1.831  18.666   3.351
39073W        W 7447  38.874  41.876  10.922
39074W        W 7448   0.953  32.481  12.363
39075W        W 7449  35.035  13.178  11.976
39076W        W 7450  39.377  23.008  14.767
39077W        W 7451   7.343  44.859  14.963
39078W        W 7452  20.191  14.249  10.892
39079W        W 7453  36.511  11.173   1.812
39080W        W 7454   7.284  25.516   2.784
39081W        W 7455  15.317  42.904  12.079
39082W        W 7456   6.209   6.764   3.375
39083W        W 7457   8.799  21.705  10.581
39084W        W 7458  27.000   3.821  11.433
39085W        W 7459  16.810  44.824   3.172
39086W        W 7460   9.179   4.821  12.432
39087W        W 7461   1.828  22.714  13.367
39088W        W 7462   4.381  19.664   0.322
39089W        W 7463  14.628  21.250  10.899
39090W        W 7464   9.834  34.107  14.281
39091W        W 7465   3.387  23.985  12.361
39092W        W 7466  18.690  20.653  14.284
39093W        W 7467  37.414   1.910  12.575
39094W        W 7468  23.218  32.511   1.295
39095W        W 7469  44.463   2.397   4.196
39096W        W 7470  31.489  41.986   1.407
39097W        W 7471  40.517  30.032  13.861
39098W        W 7472  19.213  19.736   1.824
39099W        W 7473   4.412  25.000  13.993
39100W        W 7474  15.627  24.489   4.782
39101W        W 7475  42.343  40.832  11.870
39102W        W 7476  35.490   3.359   3.762
39103W        W 7477  12.801  12.320  10.430
39104W        W 7478  29.958  15.156   2.290
39105W        W 7479  37.400  23.698   0.385
39106W        W 7480  38.353  44.999  11.416
39107W        W 7481   3.379  31.588  13.918
39108W        W 7482   4.928  20.717  14.410
39109W        W 7483  39.948  22.159   4.131
39110W        W 7484  22.528  33.898  10.448
39111W        W 7485  33.925  18.287   4.706
39112W        W 7486   2.238   9.249  10.511
39113W        W 7487  18.053  24.513  14.931
39114W        W 7488   2.894  16.812   1.766
39115W        W 7489  22.650  39.842  11.549
39116W        W 7490  13.113  35.102  12.840
39117W        W 7491   3.905   7.730   3.840
39118W        W 7492  12.324  20.179   4.805
39119W        W 7493  31.107   8.870   4.142
39120W        W 7494   1.445  17.657  13.929
39121W        W 7495  21.603  41.477   2.832
39122W        W 7496  32.067   1.846  14.958
39123W        W 7497   4.426  43.929   1.425
39124W        W 7498  26.699   7.737   4.756
39125W        W 7499   4.413  41.013  12.556
39126W        W 7500  43.513   1.309   1.438
39127W        W 7501  44.360   2.728  14.918
39128W        W 7502  16.172  38.460   4.164
39129W        W 7503  31.018  10.249   2.743
39130W        W 7504  11.365  41.904  13.830
39131W        W 7505  20.747   5.735   3.745
39132W        W 7506  37.885  25.173  10.947
39133W        W 7507   7.341  29.430   1.269
39134W        W 7508  30.061   4.744   3.654
39135W        W 7509  24.563  39.880  12.954
39136W        W 7510   0.283   2.257  12.914
39137W        W 7511  24.199  41.895  13.901
39138W        W 7512  26.108  33.123   3.849
39139W        W 7513   1.923  27.109   2.331
39140W        W 7514  32.405  27.627  12.884
39141W        W 7515   0.857  29.539  13.456
39142W        W 7516  14.821  19.747   0.813
39143W        W 7517  42.033  10.867  13.443
39144W        W 7518   1.378  23.533  14.496
39145W        W 7519   8.293  33.119  11.064
39146W        W 7520  28.974  21.662  12.987
39147W        W 7521   1.910  22.744   1.870
39148W        W 7522  29.132  40.958  13.375
39149W        W 7523  43.965  18.766   3.855
39150W        W 7524  25.511  18.280   0.727
39151W        W 7525  16.683  27.581   2.244
39152W        W 7526  29.017  26.611  11.523
39153W        W 7527  22.653  41.005  14.318
39154W        W 7528  15.623   1.896   4.299
39155W        W 7529  27.449  20.613   4.824
39156W        W 7530  24.599  32.452  13.803
39157W        W 7531  14.290  18.291  11.097
39158W        W 7532  29.472   1.322  13.941
39159W        W 7533  32.113  44.360   4.711
39160W        W 7534  24.182  29.582   3.358
39161W        W 7535   0.887   6.351  12.021
39162W        W 7536   8.324  37.392   3.293
39163W        W 7537  11.847  39.480  14.768
39164W        W 7538  38.359  14.788   1.266
39165W        W 7539  11.831  24.148  12.838
39166W        W 7540  13.641  41.825  10.622
39167W        W 7541  12.128  13.639   1.341
39168W        W 7542   4.922   2.864  10.946
39169W        W 7543  35.568  24.026   2.387
39170W        W 7544  17.199  29.134  10.593
39171W        W 7545  24.674  23.714   1.250
39172W        W 7546  32.911  43.480   3.194
39173W        W 7547  29.548   7.295  13.841
39174W        W 7548  31.927  14.669   4.671
39175W        W 7549  31.628  41.331  14.473
39176W        W 7550  37.831  35.924  14.410
39177W        W 7551   7.339  10.155   4.814
39178W        W 7552   1.840  12.205   3.864
39179W        W 7553  14.261  27.638   2.396
39180W        W 7554  14.161  35.482   4.139
39181W        W 7555  22.184  21.210   4.690
39182W        W 7556   2.294  30.012  13.528
39183W        W 7557  40.430  22.560   0.933
39184W        W 7558  37.375  13.343  11.488
39185W        W 7559  12.173   7.761   1.854
39186W        W 7560  11.809  40.910   2.306
39187W        W 7561  42.398  25.092  11.602
39188W        W 7562  44.996  29.004  12.881
39189W        W 7563   2.891  35.415  12.488
39190W        W 7564  24.126  25.623  11.601
39191W        W 7565   5.736  34.528   4.140
39192W        W 7566  12.292   2.288  14.297
39193W        W 7567  40.362  21.595  13.847
39194W        W 7568   6.825   2.835   0.395
39195W        W 7569  35.861   4.230   3.839
39196W        W 7570  14.120  15.761   1.888
39197W        W 7571  30.482  39.953   1.862
39198W        W 7572  22.701   9.214   0.444
39199W        W 7573  25.135  41.037  11.528
39200W        W 7574  40.489  16.596   0.304
39201W        W 7575  35.059   1.903  12.865
39202W        W 7576  26.095  41.941  12.986
39203W        W 7577  13.840  22.046  12.885
39204W        W 7578  40.002  23.039   4.646
39205W        W 7579  33.947  42.917  13.969
39206W        W 7580  43.513   0.392   4.640
39207W        W 7581  30.491   9.747   2.823
39208W        W 7582  23.189  36.426   2.823
39209W        W 7583   4.920  26.651   1.893
39210W        W 7584  17.796  33.099   3.763
39211W        W 7585   7.733  15.592   3.153
39212W        W 7586  40.473   7.782   2.822
39213W        W 7587  29.971   0.433  11.033
39214W        W 7588  41.867  15.211  12.572
39215W        W 7589  34.544  24.714   1.909
39216W        W 7590  24.658  22.244  13.459
39217W        W 7591  41.504  19.618   4.704
39218W        W 7592  17.146   0.471  10.580
39219W        W 7593  24.034  20.677   2.791
39220W        W 7594  38.881  14.295  10.969
39221W        W 7595  19.060  18.076  13.004
39222W        W 7596  23.124   2.851   0.250
39223W        W 7597  34.911  43.011  12.831
39224W        W 7598  22.019   6.780  12.471
39225W        W 7599   2.374  41.883  12.388
39226W        W 7600  29.135  13.630   4.643
39227W        W 7601  29.585   0.478   2.711
39228W        W 7602   9.695  36.495   3.172
39229W        W 7603   9.246  41.523   3.214
39230W        W 7604   1.942   7.176  11.447
39231W        W 7605  15.744  44.357  14.995
39232W        W 7606  36.381  34.003   1.739
39233W        W 7607  41.889  14.106   2.243
39234W        W 7608  44.936  30.462  12.072
39235W        W 7609  38.856   4.905  14.487
39236W        W 7610  17.783  38.533   4.662
39237W        W 7611  12.227  41.340   2.869
39238W        W 7612  38.912  12.853  14.283
39239W        W 7613   2.325   7.723   0.473
39240W        W 7614  43.799  31.981  12.411
39241W        W 7615   7.856   0.963   1.751
39242W        W 7616   7.788  35.019  10.449
39243W        W 7617  36.434   4.784   1.850
39244W        W 7618  35.910  43.977   1.280
39245W        W 7619  16.798  20.562   3.852
39246W        W 7620  16.267  30.618   0.461
39247W        W 7621  22.061  11.812   2.891
39248W        W 7622  28.939  14.300  10.630
39249W        W 7623  11.677   8.273   4.661
39250W        W 7624  27.476  15.733  11.079
39251W        W 7625   9.778   6.863   1.909
39252W        W 7626  10.733  38.034  13.533
39253W        W 7627   3.404  43.329   1.387
39254W        W 7628  20.628  44.324   3.844
39255W        W 7629  19.719  41.855  12.900
39256W        W 7630  44.428  24.170  14.926
39257W        W 7631  33.960  37.951  13.441
39258W        W 7632  33.560   1.326   0.337
39259W        W 7633   0.340  32.629   0.819
39260W        W 7634  26.997  33.126  10.425
39261W        W 7635   3.731   8.769  10.406
39262W        W 7636   3.311   3.389  12.026
39263W        W 7637  43.873   7.370   0.771
39264W        W 7638  22.226  30.651   0.810
39265W        W 7639   0.331  44.407   2.303
39266W        W 7640  31.502   9.209   3.280
39267W        W 7641  34.995  38.376   2.179
39268W        W 7642  25.004   7.860   3.797
39269W        W 7643  41.962  25.075  11.909
39270W        W 7644  32.446  34.905  12.564
39271W        W 7645  34.920  31.573  10.898
39272W        W 7646  31.490  24.509  12.415
39273W        W 7647  19.077   9.311  14.813
39274W        W 7648  29.652  28.672   1.817
39275W        W 7649  44.337  44.935   4.151
39276W        W 7650   8.855  37.900   2.234
39277W        W 7651   4.319  38.948   1.721
39278W        W 7652  41.981  13.307  10.635
39279W        W 7653  14.823  37.867  14.508
39280W        W 7654  40.446  41.505  14.405
39281W        W 7655  15.746  23.669   3.298
39282W        W 7656  33.916  13.724   0.904
39283W        W 7657  40.473  13.182   0.910
39284W        W 7658  38.945  16.811   2.358
39285W        W 7659   5.335  35.993  11.418
39286W        W 7660  32.933   3.856   1.367
39287W        W 7661   5.888  12.808   4.135
39288W        W 7662  20.238  33.593   1.706
39289W        W 7663   1.865  29.475   0.945
39290W        W 7664   4.322  23.018   4.818
39291W        W 7665  25.477  44.332   3.696
39292W        W 7666  10.380  42.438   2.721
39293W        W 7667  34.524   1.783   2.877
39294W        W 7668  30.100   8.667  13.321
39295W        W 7669  17.296  30.613  14.366
39296W        W 7670  40.545   1.814  13.981
39297W        W 7671  25.555   1.241  12.360
39298W        W 7672  23.129  15.295   2.732
39299W        W 7673   2.898  28.520  12.925
39300W        W 7674  27.688   9.643  13.504
39301W        W 7675  37.053  39.981   2.901
39302W        W 7676  38.024   4.333   0.420
39303W        W 7677  23.215  14.764   0.482
39304W        W 7678  10.755   2.452  11.415
39305W        W 7679   8.368  17.168   3.667
39306W        W 7680  33.115  16.790  11.488
39307W        W 7681   9.320  16.713  11.388
39308W        W 7682  28.941  19.557   1.804
39309W        W 7683   4.291  23.513  13.919
39310W        W 7684  17.236  28.160  13.323
39311W        W 7685   9.826  35.417  10.514
39312W        W 7686  20.709  29.662   2.270
39313W        W 7687   0.420  20.740   4.822
39314W        W 7688  25.655  21.727   4.735
39315W        W 7689  32.417  18.578   4.703
39316W        W 7690  27.014  18.684   1.300
39317W        W 7691  28.156   6.402  11.470
39318W        W 7692   9.149   6.393  14.991
39319W        W 7693  37.383  14.786  14.286
39320W        W 7694  28.497   8.323   4.630
39321W        W 7695  21.067  14.099   3.167
39322W        W 7696   3.240  28.586  12.844
39323W        W 7697   9.195   8.402   1.890
39324W        W 7698  11.820  20.127  14.477
39325W        W 7699  29.157  15.268   3.177
39326W        W 7700  20.252  19.576   2.405
39327W        W 7701  42.424  19.654   0.340
39328W        W 7702   4.881  28.006  11.934
39329W        W 7703  30.597  17.788   2.762
39330W        W 7704   5.224  33.945   4.275
39331W        W 7705  11.682   7.181   4.336
39332W        W 7706  20.226  15.781   2.398
39333W        W 7707  39.889  25.501  11.880
39334W        W 7708   9.878  44.983   0.903
39335W        W 7709   5.265   6.227  12.082
39336W        W 7710  13.649  22.184  14.434
39337W        W 7711  41.996  19.078   4.326
39338W        W 7712  40.307  41.491  12.505
39339W        W 7713   4.788  39.536  13.527
39340W        W 7714  14.158  29.969  13.497
39341W        W 7715  13.719   8.749   1.241
39342W        W 7716   3.244   1.833   1.728
39343W        W 7717  29.587  22.077  11.444
39344W        W 7718   7.903   2.228  11.957
39345W        W 7719  13.348   8.267   5.233
39346W        W 7720  30.915  33.118  11.494
39347W        W 7721   5.798  44.795   2.316
39348W        W 7722  20.216  38.857  13.791
39349W        W 7723  41.970  22.136  10.915
39350W        W 7724   8.247   1.901  11.030
39351W        W 7725  44.359  37.361   0.365
39352W        W 7726  43.991  25.967  11.476
39353W        W 7727  24.557  19.221  11.049
39354W        W 7728  24.079  28.142  12.022
39355W        W 7729  38.937  42.929  13.484
39356W        W 7730  37.977  25.042  14.363
39357W        W 7731  17.276  15.660   2.868
39358W        W 7732  22.036   0.288   2.299
39359W        W 7733  29.057  32.946   4.637
39360W        W 7734  33.540  20.226   4.317
39361W        W 7735  22.050  23.226   2.868
39362W        W 7736  24.534   1.368   2.226
39363W        W 7737  42.846  34.511  13.912
39364W        W 7738  38.935  25.712   2.304
39365W        W 7739  36.032  41.904  10.564
39366W        W 7740  34.586   1.879   1.780
39367W        W 7741  41.421  44.772  14.339
39368W        W 7742  23.125  41.426  10.594
39369W        W 7743  31.415  25.491  13.922
39370W        W 7744  40.047   7.339   9.969
39371W        W 7745   1.933  21.232  14.394
39372W        W 7746  35.510  11.185   1.391
39373W        W 7747   5.210  37.908  10.907
39374W        W 7748  18.073   3.921  12.911
39375W        W 7749   2.722  26.463  14.476
39376W        W 7750  33.515   4.797   2.230
39377W        W 7751   1.771  26.499   4.833
39378W        W 7752  12.700   4.310   4.328
39379W        W 7753  38.348  44.292  13.532
39380W        W 7754  42.015  24.033  12.021
39381W        W 7755  41.965  39.914   0.354
39382W        W 7756   9.281  41.410  12.854
39383W        W 7757   1.469   5.930  14.890
39384W        W 7758  32.565  42.396  13.800
39385W        W 7759  13.266   8.184  10.954
39386W        W 7760  31.444  22.521   1.769
39387W        W 7761  22.740  24.627   1.343
39388W        W 7762  15.105   6.897  13.324
39389W        W 7763  21.638  32.560  12.469
39390W        W 7764  16.726  43.853  11.564
39391W        W 7765   5.919  44.825   3.766
39392W        W 7766  17.193  41.375  10.626
39393W        W 7767   5.770  12.147  14.889
39394W        W 7768  27.506   3.408  13.510
39395W        W 7769  44.270  18.629  12.360
39396W        W 7770  18.232  11.784  11.904
39397W        W 7771  32.951  34.384   1.771
39398W        W 7772  33.612  13.827  12.059
39399W        W 7773  34.046  30.501   1.765
39400W        W 7774  33.416  33.018   2.414
39401W        W 7775  36.095  34.956  12.023
39402W        W 7776  29.955  40.882   1.854
39403W        W 7777  25.699  42.843  10.577
39404W        W 7778   6.327  13.760   3.751
39405W        W 7779  34.010  12.128  12.363
39406W        W 7780  14.152  27.992   4.204
39407W        W 7781   5.410  12.269   1.335
39408W        W 7782   7.894  29.036  13.038
39409W        W 7783  41.862   4.923  11.098
39410W        W 7784  19.694  19.779   1.897
39411W        W 7785  21.150  39.555  11.918
39412W        W 7786  36.421  12.668  11.084
39413W        W 7787   7.411  42.928   0.382
39414W        W 7788   9.804  40.482   2.419
39415W        W 7789  39.533  28.459   1.720
39416W        W 7790  36.372  41.330   3.147
39417W        W 7791   5.293  22.534   3.355
39418W        W 7792  25.615  21.681   2.211
39419W        W 7793   4.297  22.227  10.437
39420W        W 7794   4.445  40.502   2.682
39421W        W 7795   4.282  35.856   0.366
39422W        W 7796  28.952  16.665   1.783
39423W        W 7797  33.994  21.708   2.887
39424W        W 7798  35.600  36.890   2.349
39425W        W 7799   3.776  12.849   1.215
39426W        W 7800  22.034  41.828   2.353
39427W        W 7801  20.603  24.183  14.766
39428W        W 7802  40.539  27.531   2.284
39429W        W 7803   9.332   0.415   1.731
39430W        W 7804  40.533  29.608  13.064
39431W        W 7805  15.745   6.419  11.963
39432W        W 7806   4.740  24.174   3.197
39433W        W 7807  16.086  30.980   0.351
39434W        W 7808  27.557  40.394   1.248
39435W        W 7809  11.721  38.062  10.404
39436W        W 7810  32.456   1.866   5.301
39437W        W 7811  12.632   1.249   0.343
39438W        W 7812   7.394  37.033   4.613
39439W        W 7813   6.340  15.093   2.891
39440W        W 7814   0.948   8.166   3.851
39441W        W 7815  22.211  38.901  14.291
39442W        W 7816  28.126   9.340  11.523
39443W        W 7817  16.250  31.047   4.624
39444W        W 7818  20.635  23.656  10.501
39445W        W 7819  18.135  15.086   1.800
39446W        W 7820  23.498  29.641   0.421
39447W        W 7821  26.539   5.254   3.843
39448W        W 7822  41.359  30.626  10.552
39449W        W 7823  42.975  33.961  12.908
39450W        W 7824  29.088  43.996   4.779
39451W        W 7825  25.214   2.455  11.453
39452W        W 7826   2.276  31.415   4.730
39453W        W 7827  36.035  23.075  14.889
39454W        W 7828  10.788   3.248  10.534
39455W        W 7829  19.265   7.825  13.378
39456W        W 7830   8.728  21.168  12.055
39457W        W 7831  29.552  24.154  13.351
39458W        W 7832  15.591   3.361  10.980
39459W        W 7833  27.529  16.612   2.401
39460W        W 7834  28.680  18.073   1.251
39461W        W 7835  26.160  42.494  11.465
39462W        W 7836  16.248  20.747  14.760
39463W        W 7837  43.974  40.372   0.249
39464W        W 7838  37.428  11.680   2.290
39465W        W 7839   8.201  24.218   5.685
39466W        W 7840   5.924  25.591   5.125
39467W        W 7841  22.077  29.549   4.714
39468W        W 7842  23.122  31.487  14.481
39469W        W 7843  24.151   4.918  10.549
39470W        W 7844  13.210  21.607   1.845
39471W        W 7845  44.450   0.448  14.498
39472W        W 7846  39.499  24.630  13.010
39473W        W 7847  23.094  38.487  10.892
39474W        W 7848  23.532   6.300  13.906
39475W        W 7849  34.524  23.713  10.508
39476W        W 7850  11.637   7.356   3.773
39477W        W 7851  36.455   6.287  14.973
39478W        W 7852  37.069  44.503  12.349
39479W        W 7853  17.586  17.719  10.422
39480W        W 7854  16.700  15.173  12.070
39481W        W 7855  36.076  14.125  10.593
39482W        W 7856   5.745  40.899  12.904
39483W        W 7857  17.197  44.388  13.323
39484W        W 7858  35.065  40.966   0.265
39485W        W 7859  18.245  22.577   0.786
39486W        W 7860  10.158  33.943  12.938
39487W        W 7861  39.332   1.271  13.393
39488W        W 7862  17.257  27.966  14.760
39489W        W 7863   3.261  34.401   4.254
39490W        W 7864  17.187   6.373  14.980
39491W        W 7865  31.436  39.481  14.838
39492W        W 7866  27.649  23.506  13.460
39493W        W 7867  21.171  21.660   3.738
39494W        W 7868  16.656  24.985  12.380
39495W        W 7869  20.123   0.449   9.982
39496W        W 7870   7.761  18.577  12.466
39497W        W 7871   8.814  25.537  11.942
39498W        W 7872  25.995   9.321   2.365
39499W        W 7873  32.445  24.026  11.066
39500W        W 7874  28.444  41.898   4.598
39501W        W 7875  29.500  26.958  10.558
39502W        W 7876   7.373  32.510   3.757
39503W        W 7877  43.427  21.218  11.521
39504W        W 7878  15.661  35.541  14.837
39505W        W 7879   8.210   4.896   4.670
39506W        W 7880   9.300  17.629  12.399
39507W        W 7881  39.345  13.232  13.497
39508W        W 7882  14.251   4.257  10.560
39509W        W 7883  17.769  17.135  14.356
39510W        W 7884  16.585  24.683   4.768
39511W        W 7885  39.370  17.719  13.316
39512W        W 7886  10.787   0.453   2.690
39513W        W 7887  41.950  15.315  14.393
39514W        W 7888  44.911  31.096  11.119
39515W        W 7889  15.754  12.846   2.296
39516W        W 7890  19.565  21.587  11.054
39517W        W 7891   9.815  27.031  12.886
39518W        W 7892  22.027   4.446   4.255
39519W        W 7893  21.207  30.492  11.000
39520W        W 7894  28.465  23.111  13.424
39521W        W 7895   7.896  22.591   2.800
39522W        W 7896   0.286  10.158   1.378
39523W        W 7897  22.181  32.441   4.343
39524W        W 7898  41.994  17.269  14.979
39525W        W 7899   4.726  37.879  10.520
39526W        W 7900  43.285  40.517   1.708
39527W        W 7901  35.382   7.911  11.513
39528W        W 7902  28.046  29.134   2.398
39529W        W 7903   3.252  37.868   2.731
39530W        W 7904  28.019  12.173   2.851
39531W        W 7905   0.804  44.967   3.296
39532W        W 7906  43.441  19.045  14.925
39533W        W 7907  22.698   2.874  13.499
39534W        W 7908  23.520  30.942  13.392
39535W        W 7909   5.687  36.999  12.082
39536W        W 7910  23.998   8.776   4.197
39537W        W 7911  24.600  20.565   0.785
39538W        W 7912  16.296   0.951   4.774
39539W        W 7913  25.053  13.798   0.816
39540W        W 7914  33.446  30.520   2.814
39541W        W 7915  19.158   3.885  12.447
39542W        W 7916  26.957   0.256  14.002
39543W        W 7917  39.984  35.422  13.537
39544W        W 7918  19.726   6.264   3.656
39545W        W 7919  30.991  42.451  12.831
39546W        W 7920  41.396  39.458  14.006
39547W        W 7921   8.752   2.390  14.986
39548W        W 7922  24.145  29.459   1.334
39549W        W 7923  20.182  28.986  11.479
39550W        W 7924  41.881   5.843   4.616
39551W        W 7925   6.405  12.195  11.912
39552W        W 7926   6.789   9.666   4.621
39553W        W 7927  10.708  35.075   3.691
39554W        W 7928  20.225  35.891   1.331
39555W        W 7929  43.009  37.436   4.128
39556W        W 7930  31.026   9.214  14.921
39557W        W 7931   8.686  18.755  10.502
39558W        W 7932  42.305   2.324   0.892
39559W        W 7933  12.137   7.280  12.994
39560W        W 7934  18.105  40.426  11.951
39561W        W 7935  33.963  29.999   2.217
39562W        W 7936  31.552   0.329  14.459
39563W        W 7937  10.284  40.943   0.358
39564W        W 7938   4.885  10.285  12.441
39565W        W 7939  38.059  16.794  12.979
39566W        W 7940  35.029  10.695  14.348
39567W        W 7941  12.725  34.106   4.781
39568W        W 7942  15.594   8.291   3.292
39569W        W 7943  28.566  33.560  13.527
39570W        W 7944  20.083  28.501  14.804
39571W        W 7945  23.567  14.112  10.922
39572W        W 7946  11.818  35.424  10.474
39573W        W 7947  38.517  35.021  12.418
39574W        W 7948  34.372  13.829  12.563
39575W        W 7949  17.713   3.789   4.602
39576W        W 7950  24.977   8.888   4.645
39577W        W 7951  12.315  20.266  12.066
39578W        W 7952  12.694   8.694  11.394
39579W        W 7953  25.483   0.840  13.544
39580W        W 7954  24.190   0.935  10.634
39581W        W 7955   7.816  30.463  10.115
39582W        W 7956  28.597  24.665   2.875
39583W        W 7957  25.661  23.670  11.119
39584W        W 7958  21.710  29.102  11.896
39585W        W 7959  44.315  11.294   3.184
39586W        W 7960  30.600  22.139   0.917
39587W        W 7961   7.695  38.351  13.825
39588W        W 7962   4.422  20.063   1.888
39589W        W 7963  37.364  22.616  11.482
39590W        W 7964  18.292  33.907  12.518
39591W        W 7965   3.267  38.496  12.548
39592W        W 7966  11.854   5.243   3.703
39593W        W 7967  13.294  39.556  11.889
39594W        W 7968  37.419  36.962  10.956
39595W        W 7969  22.193  24.652  14.338
39596W        W 7970  42.466  14.130  13.380
39597W        W 7971  44.329  20.248   1.400
39598W        W 7972  38.850  43.011   5.094
39599W        W 7973   9.747  42.348   3.670
39600W        W 7974  21.579  10.707   1.377
39601W        W 7975   7.373   9.765   2.252
39602W        W 7976  29.574  26.655  10.415
39603W        W 7977  23.002   0.912  10.491
39604W        W 7978  26.498   2.392   1.754
39605W        W 7979  35.460  22.715   4.648
39606W        W 7980  32.447  28.044   4.798
39607W        W 7981  26.004   1.448  11.030
39608W        W 7982   5.835  38.402  11.912
39609W        W 7983  27.044  43.374  14.485
39610W        W 7984  18.685   2.391  13.424
39611W        W 7985  44.918  39.554   1.280
39612W        W 7986   8.237  11.144  14.287
39613W        W 7987   8.165  30.439  12.842
39614W        W 7988   3.792  24.152  10.463
39615W        W 7989  33.018  37.963   4.831
39616W        W 7990   0.778   7.840   0.782
39617W        W 7991  29.445  31.983  10.018
39618W        W 7992  15.126  16.688   3.152
39619W        W 7993  44.402  21.654   2.323
39620W        W 7994  16.781   6.272   1.698
39621W        W 7995  24.540  41.450   4.769
39622W        W 7996  35.032  23.652  11.461
39623W        W 7997  17.762  12.775   2.813
39624W        W 7998  30.012   9.804  10.636
39625W        W 7999  16.691  26.189   2.195
39626W        W 8000  25.574  22.739  12.011
39627W        W 8001  43.334   6.389   1.359
39628W        W 8002  27.472  20.072   0.945
39629W        W 8003  36.482  19.597  13.841
39630W        W 8004   1.319  13.720   3.300
39631W        W 8005  33.944   3.954  13.848
39632W        W 8006  40.321  30.521  11.595
39633W        W 8007  17.654   4.274   2.272
39634W        W 8008  27.130  30.954   0.410
39635W        W 8009  34.536   9.215  13.364
39636W        W 8010  25.097  39.897   3.684
39637W        W 8011  17.214   9.719  10.558
39638W        W 8012  43.428  13.749  11.416
39639W        W 8013  39.336  29.443  11.459
39640W        W 8014  33.080  42.389   0.783
39641W        W 8015  18.278  28.088   1.797
39642W        W 8016  39.481  41.014  12.341
39643W        W 8017   3.410  28.180  11.455
39644W        W 8018  23.106  18.187  11.521
39645W        W 8019  38.908  18.072   4.643
39646W        W 8020  15.729  32.535  12.439
39647W        W 8021  12.165  13.190  11.560
39648W        W 8022  17.677  36.862  14.001
39649W        W 8023  18.777  29.015   1.333
39650W        W 8024  18.560  30.654  12.038
39651W        W 8025  30.581  40.052  13.937
39652W        W 8026  27.987   7.403   3.214
39653W        W 8027  17.780  35.403   0.731
39654W        W 8028  31.107  33.561   1.301
39655W        W 8029  23.029   8.744  14.359
39656W        W 8030  36.885   9.666  14.825
39657W        W 8031  10.323  42.836  13.333
39658W        W 8032   2.308  25.083   1.847
39659W        W 8033  41.447   0.945  10.999
39660W        W 8034  42.022  40.814   1.720
39661W        W 8035  14.643  24.610   2.722
39662W        W 8036  23.678  27.046  12.441
39663W        W 8037  14.599  21.056  11.569
39664W        W 8038  38.992   8.250   2.767
39665W        W 8039  36.092  23.662   0.314
39666W        W 8040   2.790  14.633   0.250
39667W        W 8041  10.823  38.557   3.179
39668W        W 8042  26.165   7.286  11.059
39669W        W 8043  24.681  27.068  12.040
39670W        W 8044  24.132  39.997  14.348
39671W        W 8045  20.190  28.048   4.794
39672W        W 8046  43.964  19.745  12.868
39673W        W 8047   0.745  17.146   1.373
39674W        W 8048  21.160  14.095   0.379
39675W        W 8049   8.745  44.360   1.873
39676W        W 8050  16.141  23.205  14.480
39677W        W 8051   2.443   7.355  10.990
39678W        W 8052   2.948  20.117   0.793
39679W        W 8053  22.644  27.663   1.763
39680W        W 8054  42.915   9.871   4.241
39681W        W 8055   8.388  39.500   0.777
39682W        W 8056  16.231  31.048  14.394
39683W        W 8057   6.265  36.397  11.009
39684W        W 8058  23.511  25.094   0.737
39685W        W 8059  19.130  32.139  12.064
39686W        W 8060  26.600  12.807   1.843
39687W        W 8061  42.929  34.470   0.843
39688W        W 8062  19.106  10.646   0.878
39689W        W 8063  11.703  11.321   0.891
39690W        W 8064  20.205  10.808   2.371
39691W        W 8065  18.193  27.038   1.747
39692W        W 8066  38.467   4.349  11.418
39693W        W 8067  28.948  40.455   2.401
39694W        W 8068  41.000  35.390   3.683
39695W        W 8069  10.369  39.951   0.403
39696W        W 8070  34.863  20.594  10.529
39697W        W 8071  29.551  26.646  14.860
39698W        W 8072  14.629  23.504   4.119
39699W        W 8073  25.552  21.262   3.191
39700W        W 8074  33.930   4.381  14.389
39701W        W 8075   1.977  29.046  12.376
39702W        W 8076   8.799  28.635  11.873
39703W        W 8077  21.686  12.140   4.318
39704W        W 8078  32.105  40.531   3.747
39705W        W 8079  44.978  15.816  13.939
39706W        W 8080  18.051  25.669  14.031
39707W        W 8081  12.635  37.444   1.381
39708W        W 8082   9.713  33.589  11.517
39709W        W 8083  35.516  38.474  12.970
39710W        W 8084   7.736  10.737  12.514
39711W        W 8085  31.512  24.165   4.134
39712W        W 8086   5.244  23.731  13.007
39713W        W 8087  37.463   3.832   1.418
39714W        W 8088  36.914  35.067  10.541
39715W        W 8089   2.820  31.941   1.329
39716W        W 8090   0.818  19.537   1.804
39717W        W 8091  22.035  25.503   0.429
39718W        W 8092  26.698  11.702   2.373
39719W        W 8093  21.747  38.489   0.444
39720W        W 8094  39.987   5.202   1.873
39721W        W 8095   6.778  31.439  14.981
39722W        W 8096  37.885  15.104   3.260
39723W        W 8097  26.492  39.830  12.553
39724W        W 8098  33.446  24.610  10.478
39725W        W 8099  43.856  14.196  10.998
39726W        W 8100  29.973  33.492  13.852
39727W        W 8101  31.907  19.046  14.459
39728W        W 8102  11.642   0.869  10.632
39729W        W 8103   7.827  42.480  11.879
39730W        W 8104  18.735  12.152   4.741
39731W        W 8105   7.838  31.458  13.994
39732W        W 8106  13.763  13.134  10.985
39733W        W 8107   3.316   0.409   3.736
39734W        W 8108   6.778  34.546  10.507
39735W        W 8109   9.297  22.747   1.770
39736W        W 8110   6.921  13.109   3.263
39737W        W 8111  44.276  18.106  10.485
39738W        W 8112  38.045  34.425   3.807
39739W        W 8113  25.563   1.900  12.973
39740W        W 8114  15.208  34.880   3.168
39741W        W 8115  31.507  36.042  11.020
39742W        W 8116   7.723  18.257   0.890
39743W        W 8117   8.710  29.064  12.923
39744W        W 8118   8.728  40.446  10.479
39745W        W 8119  31.982  19.149   4.736
39746W        W 8120  29.125  18.087  11.024
39747W        W 8121  22.016  14.101   4.609
39748W        W 8122  35.441  33.899   4.668
39749W        W 8123  11.247  17.720   1.735
39750W        W 8124  13.234  12.309   0.742
39751W        W 8125  15.637  13.812   0.780
39752W        W 8126  39.841  14.767  12.028
39753W        W 8127  17.620  15.742  11.454
39754W        W 8128  28.551  40.021  13.481
39755W        W 8129  13.751  16.790   1.812
39756W        W 8130   3.740  35.436  14.969
39757W        W 8131  38.406  17.145  13.034
39758W        W 8132  31.573  34.395  12.546
39759W        W 8133  40.449  25.008   2.742
39760W        W 8134   3.389  28.446  13.537
39761W        W 8135  39.538   4.738  12.529
39762W        W 8136  26.111  16.679   4.320
39763W        W 8137  27.965   8.721  14.382
39764W        W 8138  25.994  15.087   4.684
39765W        W 8139   4.254  19.153  13.059
39766W        W 8140  13.753   2.321  11.045
39767W        W 8141  38.450  22.058   4.271
39768W        W 8142  23.234  35.437  10.455
39769W        W 8143  40.375  41.371   4.316
39770W        W 8144  30.601  13.773   4.342
39771W        W 8145  30.425  21.229  12.370
39772W        W 8146  19.280  30.997  12.450
39773W        W 8147  26.154  42.966  13.032
39774W        W 8148  32.073  40.924   3.287
39775W        W 8149  10.782  12.819  14.960
39776W        W 8150  36.068  13.303  12.884
39777W        W 8151  39.962   8.233   9.972
39778W        W 8152  28.642  12.272  13.369
39779W        W 8153  33.885  14.106   4.818
39780W        W 8154  21.225  29.658  14.870
39781W        W 8155  15.328  40.377   1.237
39782W        W 8156   8.364  36.024  14.495
39783W        W 8157  35.452  43.958   1.426
39784W        W 8158  21.201  16.207  13.405
39785W        W 8159  17.584  14.141  10.631
39786W        W 8160  21.070  34.493  14.499
39787W        W 8161  12.768   2.451  10.490
39788W        W 8162  36.538  35.455  13.982
39789W        W 8163   2.745  28.486  10.949
39790W        W 8164  35.587  10.808   2.406
39791W        W 8165  14.686  29.175   3.337
39792W        W 8166  42.390   5.708   3.333
39793W        W 8167  18.054  22.572   3.344
39794W        W 8168   5.278  28.669  14.862
39795W        W 8169   4.333  22.701  11.910
39796W        W 8170  19.765   4.345  13.448
39797W        W 8171  16.604  24.527   1.847
39798W        W 8172  12.735  21.053   1.355
39799W        W 8173  22.715  25.469   2.281
39800W        W 8174  10.296   5.717   1.398
39801W        W 8175  26.672   2.939   1.348
39802W        W 8176  18.727  20.114   2.825
39803W        W 8177  25.689  41.806   3.720
39804W        W 8178  37.907  12.362   1.837
39805W        W 8179  30.473  30.924  10.591
39806W        W 8180   5.378  17.126   4.642
39807W        W 8181  42.389   7.786  12.570
39808W        W 8182  42.453  20.053   2.853
39809W        W 8183  43.418  17.187  14.328
39810W        W 8184  25.662  42.845   0.341
39811W        W 8185  17.094  31.970  11.503
39812W        W 8186  15.687  29.988   0.311
39813W        W 8187  21.130  43.813   2.664
39814W        W 8188  30.982  33.559   2.844
39815W        W 8189  11.192  44.958  11.896
39816W        W 8190  15.804  12.279  11.022
39817W        W 8191  25.638  18.285   9.936
39818W        W 8192  36.038  16.762   2.841
39819W        W 8193  18.072  31.615  14.009
39820W        W 8194  37.868  15.728   5.110
39821W        W 8195  31.926  13.145   2.887
39822W        W 8196   5.392  25.190   4.242
39823W        W 8197   9.880  24.977   4.163
39824W        W 8198  40.887  33.592   4.178
39825W        W 8199  30.943  40.006  13.024
39826W        W 8200  42.448   9.796   4.298
39827W        W 8201  19.751   6.795  11.033
39828W        W 8202  28.659  15.214  10.509
39829W        W 8203  37.984  12.615   3.198
39830W        W 8204  24.214  24.552   0.813
39831W        W 8205  28.966  43.466   9.602
39832W        W 8206  40.357  15.213   3.670
39833W        W 8207   4.900  24.662   2.743
39834W        W 8208  16.133  34.902   3.840
39835W        W 8209  17.653  29.107   4.158
39836W        W 8210  28.091  20.071  13.993
39837W        W 8211  13.174  25.185  10.056
39838W        W 8212  22.089  25.519  12.421
39839W        W 8213  31.489  41.292   3.637
39840W        W 8214  17.066  26.594   4.268
39841W        W 8215  10.759  17.244  12.525
39842W        W 8216  12.355  14.321  13.857
39843W        W 8217  36.856   0.422  10.557
39844W        W 8218  31.996  32.886   4.292
39845W        W 8219  27.141  17.709  10.420
39846W        W 8220  12.122  28.460   3.779
39847W        W 8221  20.121   4.240  13.052
39848W        W 8222  30.430   1.932   0.898
39849W        W 8223  37.538  16.110   4.792
39850W        W 8224  32.001  39.319  12.915
39851W        W 8225  32.438  40.531   1.698
39852W        W 8226  14.293   6.221   2.769
39853W        W 8227  12.231   5.374  14.961
39854W        W 8228  29.175  17.178   3.763
39855W        W 8229  21.041   0.318   4.351
39856W        W 8230   2.936  43.479  11.963
39857W        W 8231   9.324   3.240  13.331
39858W        W 8232  41.803  10.691   0.361
39859W        W 8233  29.124  44.463   0.887
39860W        W 8234  15.765  26.666   3.205
39861W        W 8235  14.743  13.327  12.565
39862W        W 8236   7.324  36.371   4.824
39863W        W 8237  17.209  42.389   2.733
39864W        W 8238  28.941  20.719   2.197
39865W        W 8239   9.691   2.895   3.734
39866W        W 8240  35.066   5.752   0.791
39867W        W 8241   7.305  33.100   2.671
39868W        W 8242   1.774  16.080   1.731
39869W        W 8243  14.609  10.850   4.135
39870W        W 8244   7.728  33.980   1.238
39871W        W 8245  36.409  36.864  10.436
39872W        W 8246   0.448  44.913  11.396
39873W        W 8247   8.288  30.432  10.410
39874W        W 8248   3.729  14.753  10.633
39875W        W 8249  41.792  27.586  14.963
39876W        W 8250  17.152  13.691   0.438
39877W        W 8251  24.716  23.999   2.743
39878W        W 8252  27.081  34.615  11.003
39879W        W 8253  39.843   1.849  10.960
39880W        W 8254  12.683  16.219   0.363
39881W        W 8255  22.213  36.484  14.283
39882W        W 8256  40.813  24.512  12.079
39883W        W 8257   0.848   6.381  12.367
39884W        W 8258  28.509  31.064   3.843
39885W        W 8259  23.612   2.415  12.434
39886W        W 8260  19.158  35.553  12.388
39887W        W 8261  30.004   0.254   1.881
39888W        W 8262  18.253  24.038  13.395
39889W        W 8263   6.842  40.471   0.364
39890W        W 8264   4.306   6.735   4.317
39891W        W 8265   6.899  25.121  13.952
39892W        W 8266  11.277  17.101  10.896
39893W        W 8267  39.961  11.360  11.414
39894W        W 8268   1.325  13.778  14.810
39895W        W 8269  37.465   9.771  14.781
39896W        W 8270  27.123   0.249   3.689
39897W        W 8271   6.278  43.399   2.314
39898W        W 8272  10.879   3.955   0.390
39899W        W 8273  41.811   9.666  14.900
39900W        W 8274  34.588   8.743   3.233
39901W        W 8275  31.959  10.842   2.719
39902W        W 8276  19.141  29.001   1.309
39903W        W 8277  19.180  37.016  12.883
39904W        W 8278  25.103  26.614  14.967
39905W        W 8279   1.237   0.493   1.235
39906W        W 8280  21.635  16.211   2.900
39907W        W 8281   5.343   4.931   0.455
39908W        W 8282  20.198  10.687   0.371
39909W        W 8283  23.720  41.912  14.786
39910W        W 8284  42.386   9.845  12.534
39911W        W 8285   8.697  28.476   2.235
39912W        W 8286  22.205  41.994  10.608
39913W        W 8287  13.286  14.133  10.906
39914W        W 8288  34.102  15.167   4.321
39915W        W 8289  37.874   0.457  14.019
39916W        W 8290  22.697  41.921   0.954
39917W        W 8291  11.208  16.679   2.840
39918W        W 8292   0.491   2.734  13.546
39919W        W 8293   2.355  38.967   1.716
39920W        W 8294   5.880  31.987   4.709
39921W        W 8295  25.164  14.120   1.799
39922W        W 8296  17.559  41.972   4.291
39923W        W 8297  13.602  28.651   4.321
39924W        W 8298   8.161  38.542   4.285
39925W        W 8299  44.928  34.983   1.919
39926W        W 8300  30.435  22.241   1.822
39927W        W 8301   8.832   9.794  11.922
39928W        W 8302  25.700   2.392  12.878
39929W        W 8303  30.048   8.720   3.711
39930W        W 8304  16.186   3.443   1.796
39931W        W 8305   3.432  38.991   0.475
39932W        W 8306   6.292  10.296   4.234
39933W        W 8307  19.162  44.754  12.522
39934W        W 8308  20.581  31.121   4.691
39935W        W 8309  32.573  34.016  13.419
39936W        W 8310  28.123   5.868   0.359
39937W        W 8311  18.219  15.745   0.768
39938W        W 8312   3.726  26.025   0.374
39939W        W 8313  12.281  15.283   2.707
39940W        W 8314   2.336   6.417   4.820
39941W        W 8315  43.323  24.047   4.279
39942W        W 8316  17.755   1.391  14.484
39943W        W 8317   6.722  19.098   0.482
39944W        W 8318  17.214  25.049   1.830
39945W        W 8319  36.592  13.757   3.161
39946W        W 8320  36.539  28.561   4.309
39947W        W 8321  31.010  25.200  10.503
39948W        W 8322   0.872   2.416  10.491
39949W        W 8323   0.950  44.382   2.353
39950W        W 8324  29.463  18.054  12.419
39951W        W 8325  32.032   5.271   3.197
39952W        W 8326  30.067   0.261  10.502
39953W        W 8327   1.481   4.266  14.409
39954W        W 8328   6.909  12.233  13.340
39955W        W 8329  28.443   3.876  13.819
39956W        W 8330   6.356  40.470  12.984
39957W        W 8331   0.818  14.655  14.951
39958W        W 8332  44.953   3.421   4.816
39959W        W 8333  43.970   8.260  13.313
39960W        W 8334  18.584  19.263  12.565
39961W        W 8335  39.042  23.998  14.891
39962W        W 8336  32.948   4.335   2.192
39963W        W 8337  24.135   0.795  12.930
39964W        W 8338   9.795  12.345  12.089
39965W        W 8339  20.670  37.358  13.448
39966W        W 8340  27.544  19.140   2.194
39967W        W 8341   4.943  26.037  13.950
39968W        W 8342  33.457  38.031   1.752
39969W        W 8343   3.914  31.624  14.920
39970W        W 8344   6.750   9.355  11.983
39971W        W 8345   4.734   4.292   0.416
39972W        W 8346   1.470  19.578   2.366
39973W        W 8347  18.254  43.403   0.890
39974W        W 8348  35.990   1.950  12.454
39975W        W 8349   8.821   2.759   2.848
39976W        W 8350  23.670  21.124  10.438
39977W        W 8351  43.830  15.098  13.523
39978W        W 8352  39.359  39.508   3.276
39979W        W 8353  13.602  19.167   0.791
39980W        W 8354  37.023  30.630   3.780
39981W        W 8355  25.208  11.235  13.975
39982W        W 8356  11.337  23.530  14.025
39983W        W 8357  19.542  44.804   0.893
39984W        W 8358  39.821  24.050  11.445
39985W        W 8359  14.630   6.865   1.901
39986W        W 8360  21.209   4.311   1.350
39987W        W 8361  21.550   6.803   4.121
39988W        W 8362  12.211  28.500  10.581
39989W        W 8363   9.153  14.640   0.263
39990W        W 8364   1.930  32.060  11.902
39991W        W 8365  41.817  41.520  12.034
39992W        W 8366  21.092   3.794  14.473
39993W        W 8367  44.969  22.251   4.203
39994W        W 8368  30.595  38.372  12.982
39995W        W 8369  26.017  21.250   2.360
39996W        W 8370   8.884  11.689  12.922
39997W        W 8371  23.174  10.236   4.640
39998W        W 8372  10.273  15.737   0.411
39999W        W 8373  21.114  13.197  12.942
40000W        W 8374  38.518  17.593  10.599
40001W        W 8375  23.732   4.204   4.339
40002W        W 8376  38.975  24.189   4.163
40003W        W 8377  41.300  33.051   0.361
40004W        W 8378  30.613  26.554   1.226
40005W        W 8379  35.465   5.242  11.423
40006W        W 8380  24.012  15.792   4.161
40007W        W 8381  26.139  33.388   3.753
40008W        W 8382   4.818  40.377  14.490
40009W        W 8383  32.115  40.801  10.493
40010W        W 8384  31.057  25.026   3.840
40011W        W 8385  36.522  43.387  11.541
40012W        W 8386  15.159  33.388   0.306
40013W        W 8387  40.539  24.075  10.592
40014W        W 8388   2.453  23.144   1.409
40015W        W 8389  13.281  22.680   4.659
40016W        W 8390   2.774   5.754   4.288
40017W        W 8391  17.262  27.991   1.896
40018W        W 8392  25.636  22.589  13.884
40019W        W 8393   0.984  14.203  14.953
40020W        W 8394  15.733   4.382   0.354
40021W        W 8395  37.500  10.797   4.800
40022W        W 8396  38.400  31.615  13.923
40023W        W 8397   3.812  44.901   0.774
40024W        W 8398  29.488  41.517   0.466
40025W        W 8399  40.799   9.698   0.930
40026W        W 8400  26.969   7.672   1.786
40027W        W 8401  24.479  17.696   5.679
40028W        W 8402  23.554  44.925   3.802
40029W        W 8403  17.098  16.796  10.439
40030W        W 8404  25.044   1.459  13.045
40031W        W 8405  20.126  43.282  14.314
40032W        W 8406   7.806  12.249   3.269
40033W        W 8407   5.339  17.608  14.396
40034W        W 8408   5.918   9.340  13.462
40035W        W 8409   7.240  11.655  13.506
40036W        W 8410  38.560  43.460  13.438
40037W        W 8411  39.880  43.883   0.254
40038W        W 8412  15.274  43.391  11.420
40039W        W 8413  11.744  30.470   4.325
40040W        W 8414  27.615  20.729   0.472
40041W        W 8415   0.771  26.567  11.598
40042W        W 8416  17.653   2.392   1.882
40043W        W 8417  22.625  40.479  13.036
40044W        W 8418  21.063  29.033  11.985
40045W        W 8419  42.986  36.451  12.086
40046W        W 8420   6.239  23.669   3.226
40047W        W 8421   3.247  36.850   0.451
40048W        W 8422  18.243  14.094   2.326
40049W        W 8423  33.005  18.576   3.301
40050W        W 8424  15.582  25.976   1.850
40051W        W 8425  36.856  32.058  11.916
40052W        W 8426   5.305  16.719  14.316
40053W        W 8427  38.948   6.795  11.033
40054W        W 8428   4.761  43.894  14.859
40055W        W 8429  40.407  31.499   0.367
40056W        W 8430   3.411   5.436   4.765
40057W        W 8431   0.319   2.858  11.444
40058W        W 8432   3.451   6.734   4.707
40059W        W 8433   3.285  24.604  14.807
40060W        W 8434   8.870  41.477  12.034
40061W        W 8435   0.311  26.696   3.661
40062W        W 8436  24.059  24.204   1.841
40063W        W 8437  15.318   2.936  10.534
40064W        W 8438  14.225  24.990  12.892
40065W        W 8439  17.609  37.976  12.486
40066W        W 8440  41.804   0.833  11.463
40067W        W 8441  11.345  17.679   4.638
40068W        W 8442   1.383  25.039  12.964
40069W        W 8443  14.302   6.306   3.789
40070W        W 8444  30.070   2.942   3.711
40071W        W 8445  16.701   7.354   0.277
40072W        W 8446   4.751  11.138   0.962
40073W        W 8447  23.715  13.710   0.291
40074W        W 8448   1.782   8.351  11.054
40075W        W 8449  10.878  18.144  12.375
40076W        W 8450   9.171  23.238   0.943
40077W        W 8451  17.149  39.993  11.504
40078W        W 8452  25.131  10.164   3.252
40079W        W 8453  29.497  10.264   3.347
40080W        W 8454  38.385  14.825   0.929
40081W        W 8455  16.704  42.451   1.401
40082W        W 8456   6.842  21.740  13.321
40083W        W 8457  32.124  29.014   3.240
40084W        W 8458  41.333  11.192   1.212
40085W        W 8459  36.919  24.538  12.364
40086W        W 8460   1.826  12.711  12.866
40087W        W 8461  40.935  34.013  11.047
40088W        W 8462  11.775   8.322  13.427
40089W        W 8463  20.098  24.101   2.334
40090W        W 8464   3.863   3.258   2.723
40091W        W 8465  30.079  20.762  14.982
40092W        W 8466  44.763  39.445   0.897
40093W        W 8467   4.743  19.213   1.312
40094W        W 8468  12.643  18.553  10.920
40095W        W 8469  40.912  38.015  12.892
40096W        W 8470   6.294  25.522   2.202
40097W        W 8471   4.833   2.887   0.768
40098W        W 8472  29.033  41.442   0.478
40099W        W 8473  32.632   7.263   0.887
40100W        W 8474  18.099  12.201  11.574
40101W        W 8475  26.688  44.888   3.730
40102W        W 8476  14.185  28.083  13.937
40103W        W 8477  23.598  25.509   0.746
40104W        W 8478  42.459   3.399   2.231
40105W        W 8479  40.530  21.757   3.683
40106W        W 8480  13.680  26.142   1.350
40107W        W 8481  36.079  16.202  10.624
40108W        W 8482   9.216  41.342   1.292
40109W        W 8483   6.889  23.183   1.399
40110W        W 8484   3.435  20.622  14.351
40111W        W 8485   6.778   7.246  11.605
40112W        W 8486  29.566  33.395  13.826
40113W        W 8487  21.246   5.299  12.532
40114W        W 8488  21.094  38.888  14.279
40115W        W 8489  25.041  18.602  12.394
40116W        W 8490  41.001  25.980  10.427
40117W        W 8491  40.536  40.307   5.190
40118W        W 8492  24.069  41.526  13.900
40119W        W 8493   1.813  27.515   3.819
40120W        W 8494  13.667  25.474   0.250
40121W        W 8495  17.629  27.020   0.849
40122W        W 8496  34.008  26.682  10.019
40123W        W 8497  27.084  13.714  11.104
40124W        W 8498  42.999   1.483   1.913
40125W        W 8499  43.371  15.131   2.740
40126W        W 8500  27.046  37.996  11.883
40127W        W 8501  31.994  34.908  12.577
40128W        W 8502  31.523  30.573   2.789
40129W        W 8503  38.492   8.292  10.900
40130W        W 8504  18.672  11.235  10.435
40131W        W 8505  24.152  21.577   0.247
40132W        W 8506  10.373   1.832  13.811
40133W        W 8507  31.491  23.050  12.497
40134W        W 8508  37.444  35.082  11.907
40135W        W 8509  39.449  36.937  12.940
40136W        W 8510  40.360  18.210  11.472
40137W        W 8511   4.737  35.577  10.416
40138W        W 8512  12.801  31.629   1.425
40139W        W 8513  19.094  35.096   4.279
40140W        W 8514  19.642  11.229  14.013
40141W        W 8515  20.236  43.011   9.939
40142W        W 8516   4.809  16.747   3.274
40143W        W 8517   3.864  34.041   2.775
40144W        W 8518  43.365  16.796   0.285
40145W        W 8519  28.942   6.245   4.280
40146W        W 8520  38.888  15.595   4.329
40147W        W 8521   0.408  15.680  13.007
40148W        W 8522  24.697  20.695  13.927
40149W        W 8523  28.498  36.521   1.301
40150W        W 8524  42.486  21.186  12.542
40151W        W 8525  33.481  42.501   1.765
40152W        W 8526  23.502  11.271   0.318
40153W        W 8527  37.364  36.451  14.364
40154W        W 8528  36.525  16.101  12.377
40155W        W 8529  42.862  26.501   1.265
40156W        W 8530  43.766   9.845  11.596
40157W        W 8531   8.878  38.489  13.986
40158W        W 8532  41.480  24.157   2.321
40159W        W 8533  44.423  16.178   5.218
40160W        W 8534   5.212  33.967   1.279
40161W        W 8535   3.321  40.945  11.499
40162W        W 8536   2.296   6.853   1.265
40163W        W 8537  31.514  13.272  12.036
40164W        W 8538  12.300  18.140  14.454
40165W        W 8539  43.429  28.114  10.992
40166W        W 8540  43.364   4.806  10.553
40167W        W 8541  13.217  11.728   1.821
40168W        W 8542  27.512  15.588  12.959
40169W        W 8543  26.207  44.403  10.450
40170W        W 8544  12.623  17.742  13.997
40171W        W 8545  38.341   3.940  14.471
40172W        W 8546  25.161  37.425  11.122
40173W        W 8547  42.020  43.922  12.876
40174W        W 8548  10.190  28.505  12.080
40175W        W 8549  35.470   5.243  10.574
40176W        W 8550   7.792   3.918   3.662
40177W        W 8551  28.975  26.124   4.761
40178W        W 8552  30.912  15.701   0.349
40179W        W 8553   2.229  25.112  10.990
40180W        W 8554   4.820   0.253   2.324
40181W        W 8555   0.882  38.036   0.900
40182W        W 8556   6.307  33.031   4.184
40183W        W 8557  33.380  13.346  12.968
40184W        W 8558  40.839  37.009   0.459
40185W        W 8559   0.273  32.635  11.446
40186W        W 8560  20.122  18.605  12.836
40187W        W 8561  30.564  39.823   2.728
40188W        W 8562  20.579  38.437   2.294
40189W        W 8563  37.842  35.953  13.884
40190W        W 8564  34.508  27.681  13.357
40191W        W 8565  38.464  15.153   0.816
40192W        W 8566   2.375  10.755  10.569
40193W        W 8567  33.121  34.120  10.979
40194W        W 8568  20.201  31.973   3.248
40195W        W 8569  44.955  36.501   4.732
40196W        W 8570  17.126  18.268   4.279
40197W        W 8571   8.832  25.123  14.455
40198W        W 8572  38.923  32.550  10.428
40199W        W 8573  33.960   8.396   1.874
40200W        W 8574   5.388   7.415   1.339
40201W        W 8575  15.266  26.183   0.343
40202W        W 8576   7.901  18.607   3.248
40203W        W 8577  20.080  30.908   1.888
40204W        W 8578  19.136  26.999   3.726
40205W        W 8579  29.975  17.161  14.976
40206W        W 8580  17.105  32.033  14.384
40207W        W 8581  23.616  15.614   4.321
40208W        W 8582   9.792  26.978   0.341
40209W        W 8583  27.583   0.433   4.598
40210W        W 8584   5.712  24.692   2.863
40211W        W 8585   4.263  44.385   4.771
40212W        W 8586   2.878   5.752  13.370
40213W        W 8587  15.233  37.458  11.474
40214W        W 8588   6.414  14.200   4.693
40215W        W 8589  44.818  14.666   2.318
40216W        W 8590  24.670  19.686  14.961
40217W        W 8591   1.745  14.748  11.551
40218W        W 8592   4.927  34.000  12.001
40219W        W 8593  44.288   2.273   1.892
40220W        W 8594  17.117  20.240   2.850
40221W        W 8595  32.565  34.460  12.048
40222W        W 8596   0.382  29.637  14.777
40223W        W 8597  29.948  35.559   0.738
40224W        W 8598  32.465   9.862  13.906
40225W        W 8599   8.754  38.442  10.957
40226W        W 8600   1.876  36.424  10.492
40227W        W 8601   1.308  18.681  14.943
40228W        W 8602  40.425  34.574  13.418
40229W        W 8603  17.649  11.130  13.009
40230W        W 8604  39.808  33.021  12.880
40231W        W 8605  11.173  39.403  13.791
40232W        W 8606  23.009  34.474  13.361
40233W        W 8607  18.688  21.187   0.440
40234W        W 8608   2.239  35.006  13.456
40235W        W 8609  14.138  39.050   1.837
40236W        W 8610  31.950  31.143   4.135
40237W        W 8611  40.360  24.663  14.284
40238W        W 8612  21.053   4.886  12.945
40239W        W 8613  44.288  36.916  14.789
40240W        W 8614  38.385  29.162  13.310
40241W        W 8615  39.420  16.236   2.245
40242W        W 8616  25.094  40.508  11.607
40243W        W 8617  29.520  14.833  14.275
40244W        W 8618  11.294  35.449  12.842
40245W        W 8619   6.895  43.806  12.003
40246W        W 8620  44.413  21.575   3.311
40247W        W 8621  38.528   7.703  13.373
40248W        W 8622  38.378  24.129   0.893
40249W        W 8623  12.255  29.039   2.724
40250W        W 8624  29.575  17.577   4.619
40251W        W 8625  32.564  36.402  13.344
40252W        W 8626   8.333  22.152  11.384
40253W        W 8627  35.892  37.563  11.123
40254W        W 8628  34.030   5.779  12.454
40255W        W 8629  43.508   9.749  12.049
40256W        W 8630   6.778  12.796  10.623
40257W        W 8631   4.437  44.435  12.491
40258W        W 8632  20.145  44.322  14.362
40259W        W 8633  32.955  42.492  10.945
40260W        W 8634  41.397  20.664   1.295
40261W        W 8635  15.601  44.850   0.353
40262W        W 8636  42.325  28.952  14.389
40263W        W 8637   1.743  22.066  12.361
40264W        W 8638  43.911  14.773   1.261
40265W        W 8639   7.723  23.083  12.339
40266W        W 8640  18.195  31.050  13.338
40267W        W 8641  30.974  29.165  12.511
40268W        W 8642  34.048  43.909   0.436
40269W        W 8643   4.870  22.738   3.367
40270W        W 8644  18.600   2.906   4.152
40271W        W 8645  40.388  35.517  12.341
40272W        W 8646  30.150  22.610  13.340
40273W        W 8647  33.512   1.451  13.475
40274W        W 8648   4.872  32.564  14.512
40275W        W 8649  31.992   7.684   2.670
40276W        W 8650  39.898  29.928   0.377
40277W        W 8651  19.153  12.696  10.425
40278W        W 8652  28.671  35.363  12.360
40279W        W 8653  27.969  16.671  11.498
40280W        W 8654   5.827  43.766   3.160
40281W        W 8655  29.126   2.288   2.838
40282W        W 8656  18.279  15.103   4.828
40283W        W 8657  32.598  14.180  11.551
40284W        W 8658  19.769  40.514   4.741
40285W        W 8659  27.536  37.003   2.813
40286W        W 8660  30.659  41.964  11.435
40287W        W 8661   7.340   4.896   4.117
40288W        W 8662   7.223  32.037  13.454
40289W        W 8663   9.162   6.691   1.912
40290W        W 8664  11.321  33.434   4.319
40291W        W 8665  22.221   7.357  14.919
40292W        W 8666  34.386  16.602   3.865
40293W        W 8667  20.696  43.964  11.445
40294W        W 8668  25.510  26.653   4.202
40295W        W 8669  11.746  14.323   4.803
40296W        W 8670   6.715  23.042  11.394
40297W        W 8671  42.344  15.216  10.554
40298W        W 8672  26.109  25.972  11.081
40299W        W 8673  31.551  21.700  13.847
40300W        W 8674  24.479  38.011  13.403
40301W        W 8675   8.314  25.994  11.026
40302W        W 8676  33.408   5.810  14.319
40303W        W 8677   6.788  16.177   4.762
40304W        W 8678  32.465  19.647   0.390
40305W        W 8679  33.485  24.190   1.346
40306W        W 8680  42.892  42.450   4.673
40307W        W 8681  36.869  12.664   2.860
40308W        W 8682  22.115  23.517   2.407
40309W        W 8683  42.335  35.365   2.897
40310W        W 8684  30.443  19.627  12.429
40311W        W 8685  14.326  34.423   2.372
40312W        W 8686  22.534  38.397   3.734
40313W        W 8687  22.161  26.994  11.919
40314W        W 8688  22.165   7.341   4.163
40315W        W 8689   8.322  27.620   4.180
40316W        W 8690  39.314  44.299   2.706
40317W        W 8691  27.952  20.043  10.452
40318W        W 8692  18.276  38.511   2.360
40319W        W 8693   8.327  31.958   2.895
40320W        W 8694  33.050  14.240   1.374
40321W        W 8695   8.217   8.706  13.937
40322W        W 8696  10.874  24.532   2.873
40323W        W 8697  35.528   3.276  12.078
40324W        W 8698  42.949   5.889  10.888
40325W        W 8699  14.635  18.141  12.448
40326W        W 8700   1.251   6.400  11.529
40327W        W 8701  37.058  41.986   1.861
40328W        W 8702   9.216  13.657  10.491
40329W        W 8703  32.027   5.879   5.093
40330W        W 8704  21.263  34.041   4.721
40331W        W 8705  31.645   7.331  14.274
40332W        W 8706  43.429  16.117  11.883
40333W        W 8707   9.873  24.639   2.310
40334W        W 8708   4.773  39.996  12.469
40335W        W 8709  32.887   8.680   4.638
40336W        W 8710   4.918  12.855   3.842
40337W        W 8711  22.041  27.516   4.798
40338W        W 8712  27.623  19.100   4.242
40339W        W 8713  38.427  37.034   4.617
40340W        W 8714  24.982  10.824  12.422
40341W        W 8715   2.373  28.122   0.813
40342W        W 8716  43.907  16.583   2.343
40343W        W 8717   7.880  33.003   1.337
40344W        W 8718   9.213  35.955   2.389
40345W        W 8719  30.080  26.130  13.388
40346W        W 8720  34.499  33.014  14.944
40347W        W 8721   1.412  30.018  13.423
40348W        W 8722  25.513  28.129   4.151
40349W        W 8723   1.742   9.669  10.595
40350W        W 8724  12.678  42.789  11.415
40351W        W 8725  28.947  34.417  13.908
40352W        W 8726  41.450  20.055   4.813
40353W        W 8727  12.259  10.220  14.977
40354W        W 8728  42.313  38.339   2.711
40355W        W 8729   0.351   2.896  12.988
40356W        W 8730  44.953  30.463   0.856
40357W        W 8731  38.067  39.409  13.895
40358W        W 8732   4.375  40.975   4.295
40359W        W 8733  40.318  37.393   2.666
40360W        W 8734  14.775   7.882   3.252
40361W        W 8735  39.558  30.643   4.325
40362W        W 8736  40.350   3.317  11.596
40363W        W 8737  19.550  17.238  12.365
40364W        W 8738  33.027   0.264  11.578
40365W        W 8739  37.881  29.167  10.642
40366W        W 8740  24.634  28.937   3.833
40367W        W 8741   9.332  25.630   0.405
40368W        W 8742  34.009   5.803  10.982
40369W        W 8743  43.288   0.907   4.799
40370W        W 8744  33.008  22.691  12.006
40371W        W 8745  18.749  26.538   4.168
40372W        W 8746  41.485  11.148  14.904
40373W        W 8747  40.044  20.535  11.977
40374W        W 8748  11.844  16.611   0.348
40375W        W 8749  22.220  33.393   2.681
40376W        W 8750   6.720   9.669  14.362
40377W        W 8751  42.912  33.029   1.791
40378W        W 8752  15.714  26.495  10.489
40379W        W 8753  30.438  19.680   1.311
40380W        W 8754  32.978   6.891   3.736
40381W        W 8755  40.837  19.631  14.936
40382W        W 8756   4.434  12.778  14.765
40383W        W 8757  35.079  33.976  12.553
40384W        W 8758  15.261   6.919   3.332
40385W        W 8759  18.700  42.841   9.951
40386W        W 8760  16.777  26.004   1.756
40387W        W 8761   4.442  21.254   2.273
40388W        W 8762  44.351  13.267  13.337
40389W        W 8763  23.688   0.873   2.262
40390W        W 8764  26.610  14.217   1.862
40391W        W 8765   2.764  25.536  10.916
40392W        W 8766   0.330  44.307   4.239
40393W        W 8767  29.115   3.724  11.859
40394W        W 8768  17.722  34.487  12.060
40395W        W 8769  32.126  14.636   0.756
40396W        W 8770  33.972  31.114  12.356
40397W        W 8771  12.831  22.661   4.707
40398W        W 8772  23.494  19.680  14.999
40399W        W 8773  43.328  40.421   2.335
40400W        W 8774  39.950  24.485  13.008
40401W        W 8775   8.279   2.861  12.575
40402W        W 8776  20.716  13.169   2.779
40403W        W 8777  10.670  31.105   1.336
40404W        W 8778   9.837   6.856   0.375
40405W        W 8779  19.550  25.485   2.361
40406W        W 8780  22.698   0.746   2.344
40407W        W 8781  44.445  14.098   5.284
40408W        W 8782  21.233   8.274   1.441
40409W        W 8783  42.032  38.437  13.868
40410W        W 8784  20.673  16.261  14.455
40411W        W 8785  14.196   5.361   3.644
40412W        W 8786   9.214  40.905   2.814
40413W        W 8787   7.887   2.905  11.472
40414W        W 8788  17.681  44.792  11.462
40415W        W 8789  19.606  11.643   2.230
40416W        W 8790  22.164  18.597  11.009
40417W        W 8791  38.395  11.274  10.559
40418W        W 8792  37.847  28.677  14.900
40419W        W 8793   8.203  27.121  14.909
40420W        W 8794  17.711  36.360  12.580
40421W        W 8795  42.363  34.967   1.705
40422W        W 8796  22.086  20.078   2.314
40423W        W 8797   4.778   5.349  13.046
40424W        W 8798  31.032  44.950  14.971
40425W        W 8799  44.882   7.755   4.734
40426W        W 8800  35.501  31.106   4.697
40427W        W 8801   4.217  26.571   1.237
40428W        W 8802  37.373  40.472   4.268
40429W        W 8803  21.055  40.370   4.136
40430W        W 8804  26.082  13.191   4.205
40431W        W 8805  17.624  27.117  10.441
40432W        W 8806  30.010  31.927  12.976
40433W        W 8807  43.015  13.178   2.824
40434W        W 8808  36.082  22.570   4.263
40435W        W 8809  27.080  12.348   0.895
40436W        W 8810  42.287  44.385  10.447
40437W        W 8811  18.773  37.947   1.286
40438W        W 8812  10.226  10.227   2.352
40439W        W 8813  30.561   5.291  14.877
40440W        W 8814  31.453   3.307  14.438
40441W        W 8815  37.471  13.344  13.845
40442W        W 8816   8.292  16.232  13.456
40443W        W 8817   3.224  18.242   3.661
40444W        W 8818  17.741  41.313  10.578
40445W        W 8819  11.315  25.597  12.975
40446W        W 8820   8.742   8.852  11.941
40447W        W 8821  24.548  25.069   1.241
40448W        W 8822  28.971  40.995   0.434
40449W        W 8823  21.616   1.448  14.765
40450W        W 8824  35.040   3.806  12.565
40451W        W 8825  24.502  11.645  14.324
40452W        W 8826  27.038  41.369  10.097
40453W        W 8827  34.583  12.785   4.174
40454W        W 8828   4.819  11.803   4.269
40455W        W 8829  15.260  37.396   3.677
40456W        W 8830   7.383  32.055  14.920
40457W        W 8831   0.949  34.435  11.055
40458W        W 8832  35.091  10.320   9.989
40459W        W 8833  40.518  23.655  14.449
40460W        W 8834  20.127   5.769  10.559
40461W        W 8835  35.072  43.499  14.276
40462W        W 8836   7.680   1.911   1.448
40463W        W 8837   4.827  14.770  13.886
40464W        W 8838   4.733  33.944  13.933
40465W        W 8839  14.148  36.842  12.494
40466W        W 8840  22.109  40.549  14.898
40467W        W 8841   0.481  35.959  14.284
40468W        W 8842   7.392  20.582  13.358
40469W        W 8843  44.465  41.792  10.443
40470W        W 8844  31.996  31.013  10.434
40471W        W 8845  38.420  16.775  14.885
40472W        W 8846  16.719  20.670  14.502
40473W        W 8847  20.069   5.247  14.484
40474W        W 8848   9.374  42.879   4.823
40475W        W 8849  26.647  31.584  14.897
40476W        W 8850  33.925   2.404  11.605
40477W        W 8851  16.249  29.103   1.711
40478W        W 8852  40.921  12.249  13.386
40479W        W 8853  15.599  41.925  10.959
40480W        W 8854  28.015  33.517  14.282
40481W        W 8855  16.591   4.392  12.439
40482W        W 8856  23.154  23.989  13.912
40483W        W 8857  37.474   9.735   9.937
40484W        W 8858  42.953  33.426   0.247
40485W        W 8859   0.492  39.022  10.985
40486W        W 8860  40.530  36.445  13.332
40487W        W 8861  11.181   2.364  12.477
40488W        W 8862  11.278  22.094  13.355
40489W        W 8863  22.560  24.223   1.374
40490W        W 8864  13.777  39.830   4.288
40491W        W 8865  37.053  27.140  11.607
40492W        W 8866  43.464  44.816  10.585
40493W        W 8867  42.423  23.112   2.758
40494W        W 8868  32.117  43.402  12.578
40495W        W 8869  12.240  31.003   0.244
40496W        W 8870  18.723  35.075  13.540
40497W        W 8871  18.184  41.795   0.250
40498W        W 8872   1.749  40.926   0.270
40499W        W 8873  26.592  17.273   3.308
40500W        W 8874  29.946  21.149   2.872
40501W        W 8875  38.481  19.737   2.252
40502W        W 8876  36.851  23.562   0.275
40503W        W 8877  43.928   3.726   3.213
40504W        W 8878  31.518  12.352   4.639
40505W        W 8879  38.427   9.191  12.401
40506W        W 8880  31.928   3.848  11.524
40507W        W 8881   4.898  14.604   4.753
40508W        W 8882   4.343  31.620  12.450
40509W        W 8883  28.580  23.630  12.043
40510W        W 8884  25.569  44.359  11.898
40511W        W 8885  37.548  21.243   1.736
40512W        W 8886   1.894  17.073  14.399
40513W        W 8887   7.216  18.128  11.596
40514W        W 8888  21.628  36.404  12.929
40515W        W 8889  36.535  18.762  13.048
40516W        W 8890  17.588  33.493   4.342
40517W        W 8891  11.207  15.597  10.541
40518W        W 8892  17.646  37.446  13.435
40519W        W 8893  25.485  25.648  12.887
40520W        W 8894   4.220  40.991  14.947
40521W        W 8895   2.809  26.009   0.292
40522W        W 8896  21.730  20.251   1.269
40523W        W 8897  43.389  29.642   4.306
40524W        W 8898  21.724   3.775  12.372
40525W        W 8899  20.074   8.699  10.930
40526W        W 8900  32.051  36.550   0.477
40527W        W 8901  41.509  23.009  12.410
40528W        W 8902  34.551  27.073  14.501
40529W        W 8903  13.223  23.239   0.881
40530W        W 8904  39.360  25.585  13.903
40531W        W 8905  33.505  36.027  12.867
40532W        W 8906  29.997  41.933   2.360
40533W        W 8907  18.667  13.613   3.386
40534W        W 8908  31.486   9.651   4.736
40535W        W 8909   0.760  10.309   5.167
40536W        W 8910  36.034   8.203  12.354
40537W        W 8911  38.864  42.842   3.715
40538W        W 8912   4.746   0.446   4.819
40539W        W 8913  10.351   9.665   4.120
40540W        W 8914  40.841  28.171  10.428
40541W        W 8915  31.007   3.782  12.558
40542W        W 8916   0.958   9.167  13.415
40543W        W 8917  38.899  41.021   4.796
40544W        W 8918  11.635  14.134   5.237
40545W        W 8919  36.545  13.776   0.341
40546W        W 8920  24.993  32.528   4.254
40547W        W 8921  15.114  36.899  13.926
40548W        W 8922  32.916  12.726  12.829
40549W        W 8923   6.760  33.386  14.276
40550W        W 8924  11.178  20.166  12.410
40551W        W 8925  13.606  35.008  13.992
40552W        W 8926  29.482  28.570  12.560
40553W        W 8927  21.548  42.327  11.407
40554W        W 8928  42.919  42.976   4.759
40555W        W 8929  38.348  42.901  12.843
40556W        W 8930  14.138  13.845  13.978
40557W        W 8931   1.902  11.763   2.376
40558W        W 8932  10.670  16.645  14.281
40559W        W 8933  21.149  28.667   1.244
40560W        W 8934  34.541  35.502  13.437
40561W        W 8935  26.615  14.717  10.409
40562W        W 8936   5.387  31.954  13.389
40563W        W 8937   3.793  14.713  14.316
40564W        W 8938  18.642   9.827   4.628
40565W        W 8939  24.676  37.895  12.078
40566W        W 8940  43.364  13.140   0.783
40567W        W 8941  24.626  13.719   1.796
40568W        W 8942  39.849   1.349   2.365
40569W        W 8943  20.724   7.864  14.842
40570W        W 8944  23.674  10.784  14.818
40571W        W 8945  10.194   5.832   0.757
40572W        W 8946  21.235  32.502   2.668
40573W        W 8947  12.779  13.703  12.980
40574W        W 8948  40.529  24.158  14.393
40575W        W 8949   0.948  21.208   2.276
40576W        W 8950  13.121  24.168  12.080
40577W        W 8951  29.609  11.280   3.811
40578W        W 8952  23.989  14.199  12.915
40579W        W 8953   4.304   3.340   2.727
40580W        W 8954  36.936   6.256   1.401
40581W        W 8955  44.315  39.425   0.748
40582W        W 8956  32.434  28.479  14.768
40583W        W 8957  38.500  20.136  12.067
40584W        W 8958  13.628   0.319   3.846
40585W        W 8959  39.045  30.606   3.212
40586W        W 8960  14.774  26.565  10.420
40587W        W 8961  44.975  11.666   3.636
40588W        W 8962  40.812   5.736   2.197
40589W        W 8963  36.078  23.636  12.574
40590W        W 8964   5.382  19.264  12.961
40591W        W 8965   5.433  27.149  11.378
40592W        W 8966  42.961  15.712  11.016
40593W        W 8967   5.784  35.570  14.815
40594W        W 8968  31.148  33.528  12.488
40595W        W 8969  22.588   7.780  11.075
40596W        W 8970  18.557  15.635  13.002
40597W        W 8971  11.190  25.679   1.347
40598W        W 8972  15.752   9.875  12.506
40599W        W 8973  26.550  39.043  12.504
40600W        W 8974  32.013  30.513   0.467
40601W        W 8975  22.240  14.764   4.314
40602W        W 8976  29.095  39.909   1.247
40603W        W 8977   9.776  15.186   2.851
40604W        W 8978  28.582  22.190   4.219
40605W        W 8979   1.340  23.994  13.395
40606W        W 8980   7.372  25.029   2.730
40607W        W 8981  43.944  17.216  14.301
40608W        W 8982  15.251  28.090  11.047
40609W        W 8983  30.033  39.548  11.027
40610W        W 8984  10.750   3.244   1.219
40611W        W 8985  31.507  42.798  10.930
40612W        W 8986  16.219  44.010  12.450
40613W        W 8987  41.952  38.344  10.569
40614W        W 8988   0.375  42.023   0.842
40615W        W 8989   8.811  33.484  12.943
40616W        W 8990  41.814   9.309  14.500
40617W        W 8991  13.655   6.258   2.315
40618W        W 8992  12.854   9.329  10.116
40619W        W 8993  30.452  34.376  10.629
40620W        W 8994  17.068  19.776   3.812
40621W        W 8995  40.050  30.056  13.952
40622W        W 8996   9.261  23.636   5.134
40623W        W 8997  24.650  12.799   1.396
40624W        W 8998  33.595  21.247  12.556
40625W        W 8999  40.968  41.877  13.815
40626W        W 9000   0.311  33.032   2.679
40627W        W 9001  15.785  11.766   4.262
40628W        W 9002  31.981  18.221   1.878
40629W        W 9003  22.120  33.507  14.494
40630W        W 9004  19.106  10.376   4.821
40631W        W 9005  14.794   5.258   1.231
40632W        W 9006  39.926  15.724   2.331
40633W        W 9007  43.816   2.837   2.833
40634W        W 9008  21.173  22.206  12.095
40635W        W 9009  25.129  31.132  11.070
40636W        W 9010  13.656   8.769  13.386
40637W        W 9011   1.290  26.670   1.285
40638W        W 9012  17.668  41.887  12.048
40639W        W 9013  20.077  36.935  11.433
40640W        W 9014  35.588  15.241   3.786
40641W        W 9015  15.223  41.987   4.795
40642W        W 9016  15.297  21.077  14.440
40643W        W 9017  36.853  39.500  12.424
40644W        W 9018  38.468  34.073  10.923
40645W        W 9019  35.496  36.546  13.364
40646W        W 9020  32.447  25.987  12.013
40647W        W 9021  34.611   3.932   3.706
40648W        W 9022  10.791   3.782  11.976
40649W        W 9023  29.564  38.389  12.553
40650W        W 9024  15.287   3.929  14.277
40651W        W 9025  37.529  25.134   3.225
40652W        W 9026  23.703  18.590   0.437
40653W        W 9027  31.954  29.463   2.807
40654W        W 9028  40.942  25.492  11.907
40655W        W 9029  12.667   4.888   0.928
40656W        W 9030  29.035  10.699  12.513
40657W        W 9031  14.144   2.841  11.449
40658W        W 9032  30.624   7.857   1.424
40659W        W 9033  18.608  11.688   5.167
40660W        W 9034  40.907  19.745  10.927
40661W        W 9035  36.931   4.924   2.297
40662W        W 9036   0.973  38.353  10.556
40663W        W 9037  28.486   4.400  13.791
40664W        W 9038   6.244  21.534  10.567
40665W        W 9039  16.624  34.086  14.893
40666W        W 9040  11.355  12.682   1.743
40667W        W 9041  10.665   3.907  14.460
40668W        W 9042   9.689  21.660  13.026
40669W        W 9043  14.783  40.871   4.316
40670W        W 9044  18.052  44.790  12.042
40671W        W 9045   7.782   6.302  14.287
40672W        W 9046  27.594  34.565  13.416
40673W        W 9047  19.692  27.041  10.950
40674W        W 9048  30.486   7.275  13.492
40675W        W 9049  35.978  25.507  13.395
40676W        W 9050   0.423  19.624   2.400
40677W        W 9051  21.728   4.826  10.606
40678W        W 9052  18.788  40.959  11.468
40679W        W 9053  33.540  11.652  12.891
40680W        W 9054  32.423   9.358  10.984
40681W        W 9055  29.074  24.594   3.794
40682W        W 9056  12.815  22.194  10.625
40683W        W 9057  44.830   9.696  14.923
40684W        W 9058  16.599  26.602  13.447
40685W        W 9059  42.387  35.416  12.524
40686W        W 9060  39.503  14.763  12.388
40687W        W 9061  22.723  19.056  12.531
40688W        W 9062  31.070  43.996  13.427
40689W        W 9063   1.469  14.745  13.837
40690W        W 9064  22.658  31.974  11.582
40691W        W 9065  10.161  30.600   2.874
40692W        W 9066  19.068  13.238  12.426
40693W        W 9067  24.068  39.495   3.150
40694W        W 9068  39.903  13.725   2.353
40695W        W 9069  26.959  14.810  10.956
40696W        W 9070  37.042  26.654  10.518
40697W        W 9071  17.098  13.130   3.317
40698W        W 9072  41.868  43.996   0.297
40699W        W 9073  22.544  38.452  11.492
40700W        W 9074  18.164  37.339  12.378
40701W        W 9075   4.435   8.168   1.828
40702W        W 9076  39.355   5.303  12.372
40703W        W 9077  37.542  15.764  14.032
40704W        W 9078  36.496  34.947   3.692
40705W        W 9079  23.005  20.235  14.887
40706W        W 9080  30.466  30.584   0.855
40707W        W 9081  27.053  15.618  14.897
40708W        W 9082  28.633  19.694   3.756
40709W        W 9083  27.547  36.448   0.254
40710W        W 9084   4.719  35.359   2.725
40711W        W 9085  31.462  27.613   2.320
40712W        W 9086  11.648  21.685   2.340
40713W        W 9087  39.835  41.999   4.825
40714W        W 9088  20.239   9.869   2.226
40715W        W 9089  21.096  36.090   3.647
40716W        W 9090  10.199  40.374   2.343
40717W        W 9091  13.298   0.303  11.084
40718W        W 9092  11.712  33.051  11.532
40719W        W 9093  32.986   9.884  14.003
40720W        W 9094  40.003  21.158   4.831
40721W        W 9095  13.739  39.039  12.364
40722W        W 9096   3.771  15.601   3.664
40723W        W 9097  35.538   6.812  10.536
40724W        W 9098  19.240  35.447   1.860
40725W        W 9099   5.296  11.758   2.706
40726W        W 9100  30.472  14.729  14.331
40727W        W 9101  23.679  31.416   5.680
40728W        W 9102  25.566  43.981   0.375
40729W        W 9103  28.453  35.933   4.802
40730W        W 9104  20.196  43.962   2.862
40731W        W 9105   2.348  10.643  13.882
40732W        W 9106   5.869  37.044   3.722
40733W        W 9107   0.358  35.399  14.951
40734W        W 9108  18.627  18.671   2.200
40735W        W 9109  23.730  21.756  11.485
40736W        W 9110   9.832  33.624  13.411
40737W        W 9111  43.427  11.660   2.355
40738W        W 9112  22.720  44.395  11.923
40739W        W 9113   6.200  40.401  13.896
40740W        W 9114  19.218  10.249   3.686
40741W        W 9115  13.640  14.243  13.823
40742W        W 9116  44.877  22.186   3.869
40743W        W 9117  34.386  29.440  11.094
40744W        W 9118  15.623  14.648  11.095
40745W        W 9119  30.965   3.439   0.299
40746W        W 9120  28.537  42.286  13.487
40747W        W 9121  22.659  36.564   2.379
40748W        W 9122  44.345  29.464  10.929
40749W        W 9123  41.484  23.599   3.721
40750W        W 9124  40.494  42.334  12.421
40751W        W 9125  33.931   1.257  12.464
40752W        W 9126  31.131  14.206  14.888
40753W        W 9127   4.380  31.639   1.927
40754W        W 9128  37.353  39.056  14.422
40755W        W 9129  18.724  38.391  14.459
40756W        W 9130  35.412  28.438   4.742
40757W        W 9131   2.296  33.571   0.815
40758W        W 9132   4.392   2.358   0.928
40759W        W 9133  12.782  33.029  14.854
40760W        W 9134   0.381   9.288  14.858
40761W        W 9135  33.976  43.332  10.986
40762W        W 9136  40.866   5.411   4.294
40763W        W 9137  42.941   5.798  13.912
40764W        W 9138  41.472   6.886   4.811
40765W        W 9139  44.850  16.241  14.848
40766W        W 9140  28.962  41.447   0.733
40767W        W 9141  27.036  38.350  13.806
40768W        W 9142  29.130  17.265  10.449
40769W        W 9143  34.904   6.792  14.778
40770W        W 9144  25.528  38.966  11.069
40771W        W 9145  42.010  26.096  13.043
40772W        W 9146   0.379  27.949  12.504
40773W        W 9147   7.211  24.068   3.257
40774W        W 9148  21.064  31.498   3.298
40775W        W 9149  10.369  39.431  13.334
40776W        W 9150  11.690  31.558   4.119
40777W        W 9151  31.460  44.851  10.581
40778W        W 9152   5.277  16.138  12.032
40779W        W 9153  18.191  35.961  11.510
40780W        W 9154   2.442   4.372  14.394
40781W        W 9155  28.501  23.241   0.792
40782W        W 9156  10.317  11.717  13.845
40783W        W 9157  11.827  20.583  13.041
40784W        W 9158   6.891   8.807   2.206
40785W        W 9159  37.969   0.769   2.813
40786W        W 9160   6.394  29.634  12.920
40787W        W 9161  26.170  16.230  12.830
40788W        W 9162   5.715  38.009   4.605
40789W        W 9163   3.868  24.028  14.875
40790W        W 9164  27.130  29.576  12.030
40791W        W 9165  43.772   5.412   2.889
40792W        W 9166  22.552  12.786   3.822
40793W        W 9167  19.644   8.297  10.578
40794W        W 9168   4.826  33.903  10.408
40795W        W 9169  31.430  19.260   2.230
40796W        W 9170  40.465  42.872  13.939
40797W        W 9171  44.460  23.542  10.416
40798W        W 9172  33.571  30.487   4.188
40799W        W 9173  24.515  43.983  11.921
40800W        W 9174  21.023  38.429   0.751
40801W        W 9175  14.216  26.163  10.971
40802W        W 9176  29.581   1.350  13.422
40803W        W 9177   7.321  11.369   4.738
40804W        W 9178   1.930   9.235   4.347
40805W        W 9179   8.358  15.195  14.897
40806W        W 9180  44.426  29.516   1.709
40807W        W 9181  34.948   5.918  14.861
40808W        W 9182   2.917  37.579   3.369
40809W        W 9183  33.521  13.203   4.127
40810W        W 9184  31.905  27.473  10.987
40811W        W 9185  25.126  10.759   3.193
40812W        W 9186   1.952   7.352   1.915
40813W        W 9187  38.518  14.632  11.377
40814W        W 9188  17.570  29.621  13.327
40815W        W 9189  20.637  15.313  13.325
40816W        W 9190  35.909  13.689  11.910
40817W        W 9191  21.025  34.006  14.842
40818W        W 9192  31.088   4.380   1.778
40819W        W 9193  15.273  42.877   1.778
40820W        W 9194  10.663  25.208  13.360
40821W        W 9195  44.859   0.780  10.627
40822W        W 9196  31.043   9.686  14.354
40823W        W 9197   9.311   9.645  10.520
40824W        W 9198  21.117   9.703   0.383
40825W        W 9199   6.223  44.763  13.827
40826W        W 9200  31.444  38.844   0.906
40827W        W 9201  13.111  17.280   0.476
40828W        W 9202  38.865  22.216   3.175
40829W        W 9203  28.601   1.242   3.822
40830W        W 9204  34.404  43.965  12.580
40831W        W 9205  14.156  26.111  14.896
40832W        W 9206  12.281  44.003   3.670
40833W        W 9207  11.146  28.637   2.850
40834W        W 9208  20.608  12.218   3.766
40835W        W 9209   4.360  42.460   2.862
40836W        W 9210  36.437  28.438   0.889
40837W        W 9211  22.654   3.815  14.833
40838W        W 9212  13.766  31.966   1.440
40839W        W 9213  41.828  29.952   4.347
40840W        W 9214  32.634  19.108   3.174
40841W        W 9215  39.524   6.400   0.295
40842W        W 9216  43.365  41.305  13.831
40843W        W 9217  26.602  31.537   2.233
40844W        W 9218   1.971  17.231   0.857
40845W        W 9219  42.859  12.643  12.387
40846W        W 9220   5.263  30.596   0.801
40847W        W 9221  10.305  32.631  10.979
40848W        W 9222  13.669  44.993  14.989
40849W        W 9223  30.468   4.289   0.953
40850W        W 9224   0.824   5.871  13.800
40851W        W 9225   0.838  19.050  13.858
40852W        W 9226  43.349  20.634  10.445
40853W        W 9227  33.547  22.672   2.216
40854W        W 9228  44.477   7.712  14.383
40855W        W 9229  20.689  21.726  13.945
40856W        W 9230  42.334  35.581  14.476
40857W        W 9231   2.451  31.122  12.975
40858W        W 9232  38.960   0.397   1.848
40859W        W 9233  13.133  17.066  11.066
40860W        W 9234  18.719  32.428   2.719
40861W        W 9235  16.790  34.114  11.028
40862W        W 9236  25.477  23.648   0.431
40863W        W 9237  26.650  15.731   3.352
40864W        W 9238   9.742  36.037   4.694
40865W        W 9239  44.383  27.689   2.417
40866W        W 9240  37.536  15.154  14.862
40867W        W 9241   9.661  43.480  11.419
40868W        W 9242  43.424  15.746  11.044
40869W        W 9243  33.487  16.811   1.707
40870W        W 9244  19.688  44.320  12.421
40871W        W 9245  40.864  37.067  10.521
40872W        W 9246  29.167  32.032  11.060
40873W        W 9247  17.163  21.712  10.460
40874W        W 9248  22.149  40.339   0.939
40875W        W 9249  40.009  28.519   2.813
40876W        W 9250  38.895  36.416   1.350
40877W        W 9251  43.401  44.863   2.335
40878W        W 9252  41.937  19.577   3.857
40879W        W 9253   0.485  10.795  11.547
40880W        W 9254  27.017   9.731  14.992
40881W        W 9255  16.275  35.006   1.219
40882W        W 9256  21.543  14.791  12.090
40883W        W 9257  34.420  24.718   1.347
40884W        W 9258   5.203   4.854  13.505
40885W        W 9259  14.284   8.382  10.499
40886W        W 9260  38.367  17.708   4.277
40887W        W 9261   0.389  16.693  13.873
40888W        W 9262   7.857  28.186   1.754
40889W        W 9263  12.802  29.551  13.864
40890W        W 9264  26.165  28.153  12.982
40891W        W 9265   4.282  13.767   3.739
40892W        W 9266   5.869  41.460  10.429
40893W        W 9267  36.056  11.139   2.759
40894W        W 9268   3.396   0.749   1.818
40895W        W 9269   9.206  20.117   2.253
40896W        W 9270  14.619  27.067  11.563
40897W        W 9271   7.896  17.204   3.640
40898W        W 9272  31.963  44.425   5.106
40899W        W 9273  42.002  37.338   0.323
40900W        W 9274  28.012   6.755   2.687
40901W        W 9275   7.244   7.858   3.293
40902W        W 9276  16.150   4.426  14.991
40903W        W 9277  16.811  33.102   3.302
40904W        W 9278   9.881  19.201  10.462
40905W        W 9279   6.183  17.209   1.223
40906W        W 9280  15.228  30.636  12.008
40907W        W 9281  20.077  10.216   3.193
40908W        W 9282  15.821  38.442   2.212
40909W        W 9283  31.511  29.621   0.747
40910W        W 9284  18.581   8.860   2.294
40911W        W 9285  18.140  33.491   3.798
40912W        W 9286  10.873   8.257   0.480
40913W        W 9287  31.025  27.514  13.545
40914W        W 9288   2.952  10.169  12.092
40915W        W 9289   2.790  28.976   3.163
40916W        W 9290  31.546   9.739  14.466
40917W        W 9291  27.562   8.802   2.883
40918W        W 9292  42.930  10.716  13.797
40919W        W 9293  25.635  17.562   3.760
40920W        W 9294  20.046  41.928  10.549
40921W        W 9295  35.934   6.191   3.828
40922W        W 9296   8.815  15.695   0.735
40923W        W 9297  24.977  41.887  13.863
40924W        W 9298   5.925  39.511  10.992
40925W        W 9299  38.998  14.340   4.830
40926W        W 9300   6.335  35.878   5.111
40927W        W 9301  31.992  39.428  11.907
40928W        W 9302  33.101  25.181   2.228
40929W        W 9303  14.659  39.903   2.703
40930W        W 9304  23.664   1.956  14.433
40931W        W 9305   7.785  27.621  10.591
40932W        W 9306  41.904  38.853  14.382
40933W        W 9307   7.704  10.847  11.528
40934W        W 9308  32.448  20.757   2.740
40935W        W 9309  10.751  22.704   0.460
40936W        W 9310  29.052   6.242  12.991
40937W        W 9311  42.316  12.313   2.687
40938W        W 9312  21.641  37.065   3.658
40939W        W 9313  38.503  27.185   4.237
40940W        W 9314  23.016   8.323  14.328
40941W        W 9315  30.910  31.950   0.869
40942W        W 9316  38.352  40.886   3.676
40943W        W 9317  37.939   7.259  13.900
40944W        W 9318  31.589  29.439  13.997
40945W        W 9319  32.016  39.418  14.807
40946W        W 9320  23.163  39.935   2.884
40947W        W 9321  11.632  26.478   0.293
40948W        W 9322  13.662  36.891  12.896
40949W        W 9323  18.715  21.242   4.143
40950W        W 9324  43.514   6.305   2.784
40951W        W 9325  25.539  26.536  12.896
40952W        W 9326  18.560  11.681   0.340
40953W        W 9327  13.340  17.698   2.246
40954W        W 9328  12.822  38.510   4.151
40955W        W 9329   5.769  24.698   1.332
40956W        W 9330  28.036   7.788   3.636
40957W        W 9331   8.330  30.125  11.008
40958W        W 9332  32.910  16.278   2.389
40959W        W 9333  35.419   8.812  10.481
40960W        W 9334  43.515  44.341   3.801
40961W        W 9335   6.345  17.253  14.418
40962W        W 9336  26.522  27.998   1.396
40963W        W 9337  40.036  15.776   4.218
40964W        W 9338   3.935   8.405  11.461
40965W        W 9339  43.816  13.204   1.444
40966W        W 9340  16.181  10.681  11.058
40967W        W 9341  24.515  41.834  10.462
40968W        W 9342  24.579   2.898  11.493
40969W        W 9343  12.668  21.579  10.514
40970W        W 9344  22.577  11.271   2.740
40971W        W 9345  38.486  42.486   1.837
40972W        W 9346   2.917  35.538   4.354
40973W        W 9347  12.147  43.804   2.695
40974W        W 9348  19.557  27.661  14.026
40975W        W 9349  29.965  41.018  14.928
40976W        W 9350  32.589  40.528   0.440
40977W        W 9351  15.691  38.356   9.990
40978W        W 9352  31.466  37.019  14.471
40979W        W 9353  43.410  21.061   3.805
40980W        W 9354   5.330  18.234   2.356
40981W        W 9355  31.568  24.704   0.251
40982W        W 9356  13.338  10.647   4.182
40983W        W 9357  35.472  27.690   0.804
40984W        W 9358   1.446  21.166  14.390
40985W        W 9359  11.766   6.333   0.367
40986W        W 9360  24.082  35.061  10.609
40987W        W 9361   3.239  18.660  11.374
40988W        W 9362  40.929   6.313  14.905
40989W        W 9363  17.623  41.933  11.477
40990W        W 9364  33.560  38.440  13.491
40991W        W 9365  24.008  25.636  12.505
40992W        W 9366  40.898  23.147  13.792
40993W        W 9367  24.644   2.859   4.289
40994W        W 9368  26.086  17.747  12.378
40995W        W 9369  26.193  13.119  14.442
40996W        W 9370  41.988  23.722   3.758
40997W        W 9371  13.155  40.927  12.340
40998W        W 9372  23.093  19.758   0.407
40999W        W 9373  10.214  27.567   1.331
41000W        W 9374  27.147  23.208   3.731
41001W        W 9375  17.717   2.799   4.162
41002W        W 9376  21.185  36.410  13.322
41003W        W 9377  44.321  41.936   3.719
41004W        W 9378  40.533   6.907   0.382
41005W        W 9379  13.272  14.260  12.995
41006W        W 9380  18.562  30.614  12.473
41007W        W 9381   5.278  13.244   4.688
41008W        W 9382  42.457  16.305   0.745
41009W        W 9383  38.541   7.698   1.898
41010W        W 9384  25.636  10.753   2.706
41011W        W 9385  22.240  10.382   3.869
41012W        W 9386  22.702  24.576   3.286
41013W        W 9387  27.129  35.523   4.293
41014W        W 9388  32.099  27.030  13.797
41015W        W 9389   4.782   6.376   3.177
41016W        W 9390  23.001  32.930   1.228
41017W        W 9391   7.354  37.572  12.935
41018W        W 9392   2.964  28.035   4.195
41019W        W 9393  11.690  11.739   1.740
41020W        W 9394   6.893  10.212  12.833
41021W        W 9395  27.626  16.087  11.984
41022W        W 9396  37.441  37.901   1.803
41023W        W 9397  26.952  37.064   3.233
41024W        W 9398   9.157  42.892  11.997
41025W        W 9399   9.386  18.063  10.050
41026W        W 9400  20.745  11.648  14.508
41027W        W 9401  44.780  20.044  13.874
41028W        W 9402   6.749  34.573   0.327
41029W        W 9403  36.478  29.945   2.300
41030W        W 9404  25.002  23.614  11.041
41031W        W 9405   8.218  32.431   0.415
41032W        W 9406  30.585   0.791   2.887
41033W        W 9407  10.840  40.800  14.925
41034W        W 9408  39.528  15.586  14.460
41035W        W 9409  29.171  27.156  12.445
41036W        W 9410  44.935  24.630   0.895
41037W        W 9411  25.145  30.055   5.768
41038W        W 9412  11.343   0.303   1.815
41039W        W 9413  10.670   2.817   0.259
41040W        W 9414   4.875   1.394  12.542
41041W        W 9415  24.176   6.853  12.963
41042W        W 9416  42.873  40.511  11.032
41043W        W 9417  34.428  11.823   3.259
41044W        W 9418  24.656  16.797  12.405
41045W        W 9419  23.541   8.734   0.357
41046W        W 9420   5.313  10.290   3.710
41047W        W 9421  36.047   7.346   5.150
41048W        W 9422  33.014  33.876  13.971
41049W        W 9423  17.801  21.156  14.898
41050W        W 9424  11.726  22.996  14.868
41051W        W 9425  28.510  25.610   0.318
41052W        W 9426  34.414  33.542   3.174
41053W        W 9427  31.428  31.481  14.887
41054W        W 9428  37.978  29.071   2.854
41055W        W 9429  31.911  28.102   0.466
41056W        W 9430  37.050  19.067   0.338
41057W        W 9431  37.541  26.494   5.101
41058W        W 9432  18.264  24.511  13.856
41059W        W 9433  25.054   0.775   2.280
41060W        W 9434  20.128  35.071  11.484
41061W        W 9435   8.194  18.166   2.194
41062W        W 9436  27.958   6.686   5.189
41063W        W 9437  14.211  33.918  13.435
41064W        W 9438  20.651  32.500  12.427
41065W        W 9439  11.366  31.581  14.759
41066W        W 9440  40.360  15.822   0.413
41067W        W 9441  42.844  19.705   1.405
41068W        W 9442   1.940  40.939  13.817
41069W        W 9443  26.573  12.734  13.925
41070W        W 9444  23.218  22.039  11.540
41071W        W 9445  21.597  18.296  14.499
41072W        W 9446  30.123   7.285  10.414
41073W        W 9447  42.906  31.078  13.886
41074W        W 9448  31.997  20.768  10.634
41075W        W 9449  16.196  41.997  13.946
41076W        W 9450  25.574  10.863   3.644
41077W        W 9451  27.637  18.083  10.948
41078W        W 9452  10.325  41.980   2.382
41079W        W 9453  28.554  11.647   3.863
41080W        W 9454  15.676  10.300  14.968
41081W        W 9455   4.256  30.995   3.180
41082W        W 9456  33.998  18.246  12.442
41083W        W 9457  10.219  20.033  12.359
41084W        W 9458  27.999  13.790  13.378
41085W        W 9459  32.955  39.065  12.969
41086W        W 9460   4.856  36.011  12.032
41087W        W 9461  18.253   8.335  10.614
41088W        W 9462  21.700  37.485  10.890
41089W        W 9463  33.527   5.216  10.425
41090W        W 9464  40.020  19.163  11.945
41091W        W 9465  20.745  36.419   3.660
41092W        W 9466  44.879  10.304   2.686
41093W        W 9467   3.714  20.523   3.636
41094W        W 9468  44.419  38.344   4.836
41095W        W 9469  24.600  29.089   5.106
41096W        W 9470  17.307  36.972  11.476
41097W        W 9471  43.286  21.143  11.977
41098W        W 9472  19.633  42.301   2.184
41099W        W 9473  17.099  17.211  10.039
41100W        W 9474   1.802  19.039   1.935
41101W        W 9475  13.259  16.141  12.079
41102W        W 9476  40.306   8.315   0.867
41103W        W 9477   5.198  16.178   4.343
41104W        W 9478   0.487  13.233   2.736
41105W        W 9479  20.703  14.687   0.879
41106W        W 9480  41.453  32.989   2.675
41107W        W 9481  23.986   9.868  14.328
41108W        W 9482  14.126  36.493  11.400
41109W        W 9483  32.567  32.937   4.805
41110W        W 9484   5.798  42.819  13.968
41111W        W 9485  16.231  13.122  13.514
41112W        W 9486  24.602  24.536   0.751
41113W        W 9487  15.667  40.880   1.252
41114W        W 9488   3.308  30.569   1.852
41115W        W 9489  24.612  23.076  11.021
41116W        W 9490  27.092  35.500  13.791
41117W        W 9491  14.097  11.776  11.944
41118W        W 9492  12.209  12.277   4.263
41119W        W 9493  43.502   3.944   4.725
41120W        W 9494  40.864  23.722  10.471
41121W        W 9495   3.789  44.859  12.031
41122W        W 9496   9.393  39.949   4.216
41123W        W 9497  19.631  28.663  11.004
41124W        W 9498  42.450  32.061  14.370
41125W        W 9499  32.537  31.416  11.599
41126W        W 9500   2.425  24.993   9.928
41127W        W 9501  43.793  42.810   4.198
41128W        W 9502  38.987  43.309   9.960
41129W        W 9503   6.390  13.119   3.665
41130W        W 9504   2.722  11.639  14.472
41131W        W 9505  12.323  18.056  12.501
41132W        W 9506   5.393  15.094  13.057
41133W        W 9507   3.300  44.972   0.739
41134W        W 9508  12.346  12.256  11.061
41135W        W 9509  41.968   4.923   3.312
41136W        W 9510  38.543  28.106  11.477
41137W        W 9511   6.366   7.178   2.770
41138W        W 9512   5.773  42.314   4.643
41139W        W 9513  28.162  39.966   0.338
41140W        W 9514  38.939  22.125  14.276
41141W        W 9515  27.471  32.403  11.473
41142W        W 9516  16.090  20.670  11.107
41143W        W 9517  26.979  22.184   2.790
41144W        W 9518   6.336   3.414   2.237
41145W        W 9519  17.274  44.862   2.235
41146W        W 9520  18.296   2.764   2.189
41147W        W 9521  29.063  26.671   0.440
41148W        W 9522   4.921  37.468   1.871
41149W        W 9523   5.757  44.324  13.416
41150W        W 9524  37.863   5.751  14.297
41151W        W 9525  21.628  15.218   0.400
41152W        W 9526  35.956  20.637  13.864
41153W        W 9527  30.909  40.932   4.342
41154W        W 9528  21.563  29.998   0.403
41155W        W 9529   7.286  26.605  10.919
41156W        W 9530  17.257  18.777  12.078
41157W        W 9531   2.288  40.002   2.765
41158W        W 9532   0.753  13.335   2.391
41159W        W 9533  11.214  26.150   0.843
41160W        W 9534  36.028  35.869   2.215
41161W        W 9535   8.390  25.176   9.597
41162W        W 9536  11.270  11.742   4.717
41163W        W 9537  28.616  24.218   4.770
41164W        W 9538  12.150  25.482   1.901
41165W        W 9539  16.686   0.400   4.226
41166W        W 9540  18.558  14.833  14.999
41167W        W 9541  44.989  16.759   2.815
41168W        W 9542  10.260  44.297  11.956
41169W        W 9543  21.030  33.508   5.312
41170W        W 9544   4.435  37.538  10.578
41171W        W 9545  30.581  10.338   1.404
41172W        W 9546  19.132  35.996  13.365
41173W        W 9547  25.641  25.538   0.751
41174W        W 9548   0.776  15.196  10.544
41175W        W 9549   3.438  36.958  14.968
41176W        W 9550  25.708   8.726   9.932
41177W        W 9551  34.072  43.501  14.928
41178W        W 9552  17.647  19.718   0.442
41179W        W 9553   6.805  29.145  11.992
41180W        W 9554  24.094  24.532  13.848
41181W        W 9555  21.027  32.906   1.451
41182W        W 9556  25.514  30.003   3.706
41183W        W 9557  30.591  38.540  10.478
41184W        W 9558   3.366  36.930   2.856
41185W        W 9559  22.688  13.228  14.493
41186W        W 9560  39.549  30.139   4.638
41187W        W 9561   9.238   2.313  12.899
41188W        W 9562   7.832  22.026  12.490
41189W        W 9563   4.300  24.020   2.282
41190W        W 9564  11.222  40.021  12.957
41191W        W 9565   7.790  20.681   5.103
41192W        W 9566   0.492   1.837  14.966
41193W        W 9567   1.434  35.061   3.741
41194W        W 9568  33.963  24.013  12.440
41195W        W 9569  17.646  23.013   3.686
41196W        W 9570   3.837  25.035   3.294
41197W        W 9571  27.144  21.557  14.281
41198W        W 9572  16.270  28.960  11.461
41199W        W 9573   3.821  24.698  12.470
41200W        W 9574  37.384  15.582   4.243
41201W        W 9575   3.280  15.132  11.929
41202W        W 9576  40.857   8.327   1.910
41203W        W 9577  18.646  22.642   4.639
41204W        W 9578  41.011  20.218   4.287
41205W        W 9579  31.444  21.638  10.514
41206W        W 9580   4.213  39.388  14.908
41207W        W 9581  34.112  30.435   3.338
41208W        W 9582  29.448  34.595   0.258
41209W        W 9583  31.546   8.316   3.715
41210W        W 9584   1.432  37.033   0.959
41211W        W 9585  22.688  12.121   2.836
41212W        W 9586  34.016  42.301  11.390
41213W        W 9587  36.506   8.277   2.903
41214W        W 9588   8.761  29.057  11.554
41215W        W 9589  27.950  15.693  12.912
41216W        W 9590   0.489  23.692   3.353
41217W        W 9591  12.644  41.522   1.270
41218W        W 9592  23.143  43.454  12.539
41219W        W 9593  30.922  44.763   2.780
41220W        W 9594  27.147  37.934   0.341
41221W        W 9595   7.846   5.212  11.551
41222W        W 9596   2.463  39.811   4.718
41223W        W 9597  30.082   3.748   3.260
41224W        W 9598  11.282  23.147  12.522
41225W        W 9599  29.038  32.030   2.712
41226W        W 9600  28.011   0.922  12.429
41227W        W 9601  16.162  15.719  10.967
41228W        W 9602   2.763  33.451   1.294
41229W        W 9603  14.227  36.035   0.321
41230W        W 9604  10.700  22.234   3.659
41231W        W 9605   4.742  33.496   1.879
41232W        W 9606  31.591   3.894   1.709
41233W        W 9607  28.974  31.516   3.187
41234W        W 9608  44.781   0.833   3.225
41235W        W 9609  32.400   9.370  14.995
41236W        W 9610  44.404  17.277   1.709
41237W        W 9611   5.747  33.526   2.211
41238W        W 9612  29.121  21.159   1.382
41239W        W 9613  44.405  17.720  14.399
41240W        W 9614   7.205  20.105  12.835
41241W        W 9615  19.608   4.814   1.885
41242W        W 9616  24.567  17.065   2.820
41243W        W 9617  12.128  21.162   4.772
41244W        W 9618  25.141  26.163  14.412
41245W        W 9619  17.073  38.474   3.350
41246W        W 9620  24.180  17.756  10.452
41247W        W 9621  34.002  18.640  12.900
41248W        W 9622  40.361  38.911  13.520
41249W        W 9623  42.877  24.649  14.360
41250W        W 9624  13.738  36.534  13.851
41251W        W 9625  19.691  11.363   2.279
41252W        W 9626  15.622  22.628  10.587
41253W        W 9627  10.743   5.750   3.857
41254W        W 9628  22.673  41.824   2.211
41255W        W 9629  31.925  11.354   2.744
41256W        W 9630  26.620  24.617  12.917
41257W        W 9631   0.483  20.638  10.608
41258W        W 9632  39.052  39.986  12.016
41259W        W 9633  16.685  10.189   1.405
41260W        W 9634  33.450  41.873  13.027
41261W        W 9635   1.890  36.409   3.349
41262W        W 9636  14.673   4.740   3.841
41263W        W 9637  10.214  12.682   4.672
41264W        W 9638  23.228  39.457   1.237
41265W        W 9639   8.400  10.161   3.702
41266W        W 9640  43.831  36.030   2.226
41267W        W 9641  20.633  12.290  11.021
41268W        W 9642  11.356   3.426   2.859
41269W        W 9643   3.322  14.100  13.904
41270W        W 9644  15.310   0.262  14.870
41271W        W 9645   9.382  32.127   2.726
41272W        W 9646  42.880  29.588  11.940
41273W        W 9647  40.008  40.036  11.888
41274W        W 9648  35.048  38.553  11.864
41275W        W 9649  12.684   5.293  14.999
41276W        W 9650  25.989   4.412  10.946
41277W        W 9651  30.956  36.432   0.940
41278W        W 9652  13.691  33.913   2.787
41279W        W 9653  29.661  36.546   2.362
41280W        W 9654  11.625  11.853  11.515
41281W        W 9655  37.403   9.664   2.237
41282W        W 9656  37.516  14.660  11.494
41283W        W 9657   8.394   5.220  13.515
41284W        W 9658  33.503  10.717  14.384
41285W        W 9659  27.988  44.987   3.639
41286W        W 9660  15.226  23.984  13.362
41287W        W 9661  11.345  31.101   4.675
41288W        W 9662  23.034  32.046  13.424
41289W        W 9663  18.693  28.486   0.811
41290W        W 9664  38.487   8.862   9.999
41291W        W 9665  44.454  32.986  13.978
41292W        W 9666  26.185   9.391  11.060
41293W        W 9667   4.406  43.326  13.049
41294W        W 9668   3.924  12.284  13.926
41295W        W 9669  14.115  31.005   0.760
41296W        W 9670  20.091  27.984   5.251
41297W        W 9671  18.767  25.977  14.309
41298W        W 9672  15.601  12.141   1.704
41299W        W 9673  43.788  35.975   0.831
41300W        W 9674  27.048  15.121  11.083
41301W        W 9675  28.165  19.044  10.092
41302W        W 9676  29.647  16.586  12.401
41303W        W 9677  40.922  19.139  13.419
41304W        W 9678  26.640  12.199  11.857
41305W        W 9679  11.822  18.204  12.488
41306W        W 9680  24.985  12.337  14.351
41307W        W 9681  18.605  14.108   2.813
41308W        W 9682  39.433  32.590  14.376
41309W        W 9683  30.045   4.339  10.406
41310W        W 9684  14.605  41.508  13.031
41311W        W 9685  44.860  36.528  14.318
41312W        W 9686  10.815  40.374  11.425
41313W        W 9687  20.616  16.601  13.976
41314W        W 9688  30.045  36.449  14.375
41315W        W 9689  43.493   7.768   2.404
41316W        W 9690  27.473   5.700  13.941
41317W        W 9691   5.382  32.636   1.728
41318W        W 9692  32.444   9.647  10.470
41319W        W 9693  27.627  40.519   2.337
41320W        W 9694  14.621   0.962   4.759
41321W        W 9695  39.980   8.657   0.776
41322W        W 9696  33.522  40.325   4.213
41323W        W 9697   8.674  22.060  12.938
41324W        W 9698  34.926  26.020  14.353
41325W        W 9699  30.965  14.688   0.778
41326W        W 9700   4.315  15.617   0.330
41327W        W 9701   2.328   8.877   4.265
41328W        W 9702  29.062  35.493   1.817
41329W        W 9703  44.941  17.282   2.876
41330W        W 9704   3.716  27.145   3.836
41331W        W 9705  31.992  32.446  10.936
41332W        W 9706   0.391  39.015   1.400
41333W        W 9707  11.301  33.591  11.015
41334W        W 9708  39.958  12.750  12.957
41335W        W 9709  18.164  35.409   4.204
41336W        W 9710  19.706  41.295   0.801
41337W        W 9711   4.291   7.752   4.713
41338W        W 9712  43.328  29.149  11.371
41339W        W 9713  10.171   5.832  12.831
41340W        W 9714   5.391  19.270  14.949
41341W        W 9715   4.241  16.274   0.781
41342W        W 9716  14.162  31.427  10.565
41343W        W 9717  18.664  25.988  14.921
41344W        W 9718  19.274  10.218  12.862
41345W        W 9719  43.328  39.847   1.905
41346W        W 9720  39.835  22.142  13.362
41347W        W 9721  29.662  33.532  13.460
41348W        W 9722  15.629  27.486  11.525
41349W        W 9723   0.753  11.304   4.189
41350W        W 9724  21.259  37.071   2.774
41351W        W 9725  31.610   1.913   3.158
41352W        W 9726   0.928  27.969   5.279
41353W        W 9727  29.584   8.302   1.786
41354W        W 9728   7.406   0.928   4.332
41355W        W 9729  13.819  10.726  11.546
41356W        W 9730  12.156  21.212   0.464
41357W        W 9731  22.575  18.080   1.735
41358W        W 9732  38.965  13.764   4.837
41359W        W 9733   6.830  37.572  13.356
41360W        W 9734  37.901   6.221  11.023
41361W        W 9735  34.519  27.619   2.253
41362W        W 9736  21.147  15.708   4.190
41363W        W 9737  25.103   2.728  12.942
41364W        W 9738   5.431  15.244   0.759
41365W        W 9739  10.178  25.206   3.372
41366W        W 9740   7.365  39.464  10.961
41367W        W 9741  13.785  11.305   3.245
41368W        W 9742  37.356  37.444   4.808
41369W        W 9743  27.596  11.722  10.557
41370W        W 9744  28.932  23.617   0.264
41371W        W 9745  16.296  23.607  12.406
41372W        W 9746  22.142  23.093   0.902
41373W        W 9747  27.031  19.552  13.829
41374W        W 9748  40.943   6.308  11.985
41375W        W 9749  16.178  18.769   3.237
41376W        W 9750  39.478  33.418   1.840
41377W        W 9751  40.447  27.607   0.243
41378W        W 9752  12.641  20.245   1.875
41379W        W 9753  21.044  15.115  14.485
41380W        W 9754  37.515  26.589   4.836
41381W        W 9755   5.751  18.105   2.851
41382W        W 9756  40.995  16.249   3.164
41383W        W 9757  26.525  21.547   5.294
41384W        W 9758  43.446  42.923   3.700
41385W        W 9759  19.746  38.552  14.023
41386W        W 9760   5.197   7.784  12.966
41387W        W 9761  16.782  32.471  13.410
41388W        W 9762  40.388  13.814  12.925
41389W        W 9763  22.057  10.772   2.351
41390W        W 9764  26.495  13.324  11.126
41391W        W 9765  42.975  13.713   4.691
41392W        W 9766  43.816  39.502  13.403
41393W        W 9767  14.731  34.563   0.814
41394W        W 9768  32.084  20.645  12.518
41395W        W 9769  19.040  25.492  14.894
41396W        W 9770  33.624  32.921   3.152
41397W        W 9771  28.528  42.356   4.223
41398W        W 9772   2.910  28.055  12.877
41399W        W 9773   6.311  20.114   2.256
41400W        W 9774   1.794  15.114  10.934
41401W        W 9775   4.728  16.140   0.822
41402W        W 9776  20.044  10.292  12.958
41403W        W 9777  10.836   1.480   0.474
41404W        W 9778  18.171  23.533  12.565
41405W        W 9779  44.765  43.952  14.360
41406W        W 9780  16.796  11.160  13.525
41407W        W 9781  36.441  44.322   4.311
41408W        W 9782  15.605  43.362  11.118
41409W        W 9783  18.194  18.549  13.368
41410W        W 9784  18.056  31.560   4.278
41411W        W 9785  29.545  21.128   2.780
41412W        W 9786  24.510  28.443  13.403
41413W        W 9787  24.996  30.548   5.692
41414W        W 9788  42.921  12.657  10.111
41415W        W 9789  16.284  37.337   1.733
41416W        W 9790   3.723   8.172   1.830
41417W        W 9791  44.862   0.474   0.922
41418W        W 9792  39.838   1.844   3.661
41419W        W 9793   2.834   0.409   4.337
41420W        W 9794   2.261  13.172   1.737
41421W        W 9795  42.448  32.412  11.027
41422W        W 9796   8.348   8.353   3.371
41423W        W 9797  26.979  30.561  11.057
41424W        W 9798  41.026  19.063   1.344
41425W        W 9799  43.772  34.496  11.078
41426W        W 9800  35.494   1.928  12.891
41427W        W 9801  23.596   9.867  12.878
41428W        W 9802  25.116  26.103   0.258
41429W        W 9803  43.452  16.278  13.494
41430W        W 9804  15.274  13.107  13.365
41431W        W 9805  43.365   4.909  11.026
41432W        W 9806  31.987  27.535   9.941
41433W        W 9807  20.236  37.529  14.790
41434W        W 9808  25.148  43.482  10.933
41435W        W 9809  22.101   5.926   4.173
41436W        W 9810  43.465  34.887   4.691
41437W        W 9811  30.940  39.822   1.793
41438W        W 9812   3.355   4.381   4.280
41439W        W 9813  32.421  39.928  11.993
41440W        W 9814  36.457   7.328  12.349
41441W        W 9815  32.509  25.973   3.210
41442W        W 9816  22.122   0.279   4.642
41443W        W 9817  38.819  15.812  10.002
41444W        W 9818  29.007   2.736   2.784
41445W        W 9819  11.257  39.007   4.158
41446W        W 9820  16.635  32.129   4.648
41447W        W 9821   9.202  44.796   4.746
41448W        W 9822   8.742  42.827   1.264
41449W        W 9823  34.093  15.294   2.776
41450W        W 9824  16.766  33.455   2.275
41451W        W 9825  10.154  41.337   0.917
41452W        W 9826  43.955  17.141  13.028
41453W        W 9827   6.914  20.111  14.456
41454W        W 9828  44.794  23.537   0.925
41455W        W 9829  38.353  23.179  10.506
41456W        W 9830  19.215  31.524  11.586
41457W        W 9831  10.812  34.015  12.056
41458W        W 9832   2.966  19.042  14.006
41459W        W 9833  44.366  21.253   3.366
41460W        W 9834  32.579  30.559  12.397
41461W        W 9835   9.857  37.952  14.845
41462W        W 9836   9.174  33.607  11.419
41463W        W 9837  29.019   5.205  12.057
41464W        W 9838  33.576   5.207  12.453
41465W        W 9839  38.534   3.278   4.245
41466W        W 9840   7.365  18.054  12.398
41467W        W 9841  14.693  20.272  13.346
41468W        W 9842   7.204   3.331   4.289
41469W        W 9843  34.374  17.663  13.808
41470W        W 9844  37.832  40.383  13.868
41471W        W 9845  36.592  27.999   2.755
41472W        W 9846  14.716  44.754  11.959
41473W        W 9847  43.392  22.015  13.464
41474W        W 9848  38.980   4.378  13.450
41475W        W 9849  31.114   4.274  14.804
41476W        W 9850  43.982  42.444  13.514
41477W        W 9851  30.416  40.877   2.400
41478W        W 9852  17.111   2.743   3.660
41479W        W 9853   0.404  17.645  14.355
41480W        W 9854  22.134  30.037   4.241
41481W        W 9855  12.225   3.279   4.162
41482W        W 9856  35.898  38.451  11.505
41483W        W 9857  44.882  18.558  13.035
41484W        W 9858  17.709   5.693   2.187
41485W        W 9859  25.623  27.652  12.898
41486W        W 9860  37.556  32.971   4.654
41487W        W 9861  15.650  33.564  10.470
41488W        W 9862  30.652  28.990   2.797
41489W        W 9863   7.730  35.908   0.290
41490W        W 9864   5.924  21.721   0.773
41491W        W 9865  42.501  32.076   3.317
41492W        W 9866  32.637   7.727   0.300
41493W        W 9867  41.793  12.817  12.420
41494W        W 9868   2.339  41.892  11.468
41495W        W 9869  29.956  15.315   0.892
41496W        W 9870  18.574   7.410   5.132
41497W        W 9871  14.737  33.592   1.372
41498W        W 9872  26.468   4.744   0.405
41499W        W 9873  11.629   5.792  11.375
41500W        W 9874  13.820  37.006  11.959
41501W        W 9875  10.274  25.985   2.834
41502W        W 9876   9.879  42.959   3.731
41503W        W 9877   5.344  30.487   0.293
41504W        W 9878  22.150  31.051  12.961
41505W        W 9879   6.857   0.923   2.216
41506W        W 9880  34.369  10.876  13.465
41507W        W 9881  27.639  43.007   4.625
41508W        W 9882   4.401  22.714   3.232
41509W        W 9883  37.840  26.977  14.332
41510W        W 9884  24.539  15.329  11.420
41511W        W 9885  42.876  35.423  10.528
41512W        W 9886   7.361  20.716   9.963
41513W        W 9887   4.788  17.290   0.757
41514W        W 9888   5.774  43.392   3.752
41515W        W 9889   6.855  27.598  14.425
41516W        W 9890  12.826  40.407  14.996
41517W        W 9891  20.532   6.775  11.126
41518W        W 9892   1.968   6.758   3.729
41519W        W 9893  12.144   0.305  14.464
41520W        W 9894  35.038  15.600  14.894
41521W        W 9895  39.918  40.874   0.431
41522W        W 9896  10.815  28.040   0.887
41523W        W 9897  35.108   9.240  12.432
41524W        W 9898  40.549  12.704   3.370
41525W        W 9899  21.654  31.573  12.920
41526W        W 9900   2.874  29.521  11.125
41527W        W 9901   3.936  19.633   1.349
41528W        W 9902  34.429  29.955   2.887
41529W        W 9903  42.801  35.417  12.380
41530W        W 9904  35.097  13.186  12.476
41531W        W 9905  20.719  40.014   2.289
41532W        W 9906   3.440  22.083  12.377
41533W        W 9907  28.435  35.563   4.671
41534W        W 9908  11.312  10.333   0.736
41535W        W 9909   5.193  18.187  13.498
41536W        W 9910  42.983  17.296   3.361
41537W        W 9911  36.961   5.766   0.731
41538W        W 9912  17.628  16.740  14.877
41539W        W 9913  23.106  38.459   5.756
41540W        W 9914   2.387  27.088  13.459
41541W        W 9915   0.444  34.583  13.444
41542W        W 9916  29.514   5.907   4.300
41543W        W 9917  38.421  31.548   0.759
41544W        W 9918   6.307  31.921  14.909
41545W        W 9919  25.710   1.966   0.900
41546W        W 9920  22.116  26.673   3.833
41547W        W 9921   9.660  42.511  12.573
41548W        W 9922  23.490  10.753  11.503
41549W        W 9923   6.198  42.423  11.566
41550W        W 9924   5.819  34.436   3.726
41551W        W 9925  38.062  12.791  13.868
41552W        W 9926  11.764  37.337  10.040
41553W        W 9927  39.560   7.702   3.651
41554W        W 9928  15.092   6.688   2.696
41555W        W 9929  31.915  21.202   0.404
41556W        W 9930   6.385  37.575  13.869
41557W        W 9931  31.445  10.293   0.767
41558W        W 9932   1.360  34.407  13.816
41559W        W 9933  38.473  34.048   2.741
41560W        W 9934  24.160  36.923  11.015
41561W        W 9935  28.541   2.365  14.856
41562W        W 9936   9.791  26.082   3.705
41563W        W 9937   9.762  21.545   3.223
41564W        W 9938   7.404  18.096   3.205
41565W        W 9939  22.519  34.608  12.093
41566W        W 9940  41.418  15.747   3.201
41567W        W 9941  34.065  17.562  11.612
41568W        W 9942  30.005  23.553   2.317
41569W        W 9943  33.966  13.717  12.517
41570W        W 9944  28.083  36.983   0.847
41571W        W 9945  31.578  19.126  13.488
41572W        W 9946  29.150  27.630  12.350
41573W        W 9947   3.387  39.347  12.830
41574W        W 9948  34.468  44.809   3.642
41575W        W 9949  12.737  31.943  10.492
41576W        W 9950  41.975  37.993  11.375
41577W        W 9951   6.766  40.016  12.881
41578W        W 9952   2.899  33.032   4.287
41579W        W 9953  21.041  17.077   2.662
41580W        W 9954  16.162  23.525   3.360
41581W        W 9955   9.234  20.764   0.741
41582W        W 9956   5.371  12.148   0.806
41583W        W 9957  27.602   3.737   2.343
41584W        W 9958  28.544  32.633   0.792
41585W        W 9959  31.433  26.612  14.810
41586W        W 9960  28.551  32.896   3.672
41587W        W 9961  39.506  18.576  14.809
41588W        W 9962  17.729  36.471   2.213
41589W        W 9963   5.359  28.516   2.716
41590W        W 9964  20.079  22.094   3.651
41591W        W 9965  34.080  12.123  14.802
41592W        W 9966  43.460  27.948  11.539
41593W        W 9967   1.940  24.675  10.546
41594W        W 9968  18.698  39.935   1.391
41595W        W 9969  19.658  39.554   5.156
41596W        W 9970  42.896  41.491  11.585
41597W        W 9971  22.635  23.600   2.265
41598W        W 9972  41.524  24.541  13.977
41599W        W 9973   8.866  32.902  10.943
41600W        W 9974  14.138  39.850   0.265
41601W        W 9975   8.251  22.202   1.221
41602W        W 9976  24.492   1.904   0.420
41603W        W 9977  12.624  18.114   3.206
41604W        W 9978  17.076   3.341   2.366
41605W        W 9979  40.860  41.501   2.238
41606W        W 9980  30.559  43.461  12.039
41607W        W 9981  20.713  31.083  14.464
41608W        W 9982  19.767   0.843   2.376
41609W        W 9983   8.851   2.347   1.437
41610W        W 9984  10.298  16.806   2.815
41611W        W 9985  26.049  37.419   3.380
41612W        W 9986  44.918   0.341  13.812
41613W        W 9987  29.063  15.648   3.301
41614W        W 9988  35.532  17.728  13.837
41615W        W 9989  41.935  41.534  10.974
41616W        W 9990   6.196  37.500  14.386
41617W        W 9991  43.318  42.786   2.373
41618W        W 9992  10.219  12.780   3.767
41619W        W 9993   2.252  38.019   3.241
41620W        W 9994  28.658  24.705  14.890
41621W        W 9995  23.184  21.044  11.964
41622W        W 9996  37.457  23.503  13.504
41623W        W 9997  31.995   1.450  10.446
41624W        W 9998   5.817  12.802   2.234
41625W        W 9999   7.234  14.110  11.417
41626W        W10000  11.680  27.958  10.414
41627W        W10001  37.414   1.386   2.397
41628W        W10002  25.548  22.674   3.301
41629W        W10003  25.574  36.049  12.477
41630W        W10004   9.272  42.487   0.462
41631W        W10005   6.899  28.023   0.399
41632W        W10006  12.726  36.447  11.956
41633W        W10007  31.413  32.424  10.591
41634W        W10008   8.351  37.838  12.502
41635W        W10009   9.721  43.335   4.230
41636W        W10010   6.854  19.201   3.642
41637W        W10011   6.828  42.440   3.281
41638W        W10012   5.292  22.730   0.739
41639W        W10013  39.026  16.781   1.814
41640W        W10014  32.915  31.944   0.904
41641W        W10015   6.334  12.315  13.912
41642W        W10016  26.675   6.388   3.240
41643W        W10017   2.959  40.821  12.518
41644W        W10018  34.595  16.244  14.844
41645W        W10019  35.957  30.046   1.822
41646W        W10020  33.086  30.120   1.887
41647W        W10021  30.971  37.338   4.766
41648W        W10022  18.585   9.163  14.783
41649W        W10023   5.930  24.481  13.484
41650W        W10024  44.465  26.560   1.819
41651W        W10025   7.205   7.311   4.334
41652W        W10026   7.385  24.989  13.456
41653W        W10027  28.534  11.198  11.968
41654W        W10028  17.171  40.836  11.598
41655W        W10029  40.440  29.448  14.990
41656W        W10030   4.760  31.638  13.532
41657W        W10031  24.554  16.150   4.326
41658W        W10032  17.602  43.380   3.637
41659W        W10033   9.395   0.486  14.997
41660W        W10034  41.420  16.262  13.870
41661W        W10035  25.214  10.796  13.503
41662W        W10036   2.254   5.847   1.829
41663W        W10037   3.297  20.761   0.939
41664W        W10038  20.567  20.154  11.066
41665W        W10039  41.458  21.573   0.429
41666W        W10040   3.851  15.655  13.029
41667W        W10041  40.394  18.191  13.413
41668W        W10042  18.592  34.986  10.972
41669W        W10043  24.093   2.949   0.930
41670W        W10044  28.481  31.002   2.700
41671W        W10045   8.764  15.191   0.430
41672W        W10046  43.815  18.661   1.908
41673W        W10047  30.935   4.846   1.231
41674W        W10048  34.444  17.708   1.427
41675W        W10049  37.051  20.637  13.534
41676W        W10050  12.787  20.582   4.804
41677W        W10051  15.276  40.923  13.437
41678W        W10052  42.358  21.017   4.147
41679W        W10053  28.521  16.319   0.253
41680W        W10054  32.393  21.172  13.369
41681W        W10055  17.762  13.780   3.750
41682W        W10056  11.262  28.979   2.872
41683W        W10057  41.848  11.182   0.793
41684W        W10058  10.266  20.190   5.246
41685W        W10059  34.555  34.441  14.805
41686W        W10060  40.883  26.677   3.764
41687W        W10061  18.204  19.113  14.783
41688W        W10062  17.191   1.308  14.474
41689W        W10063  29.119  38.558  14.335
41690W        W10064  44.792  16.731   1.378
41691W        W10065  23.000  25.481   2.788
41692W        W10066  15.607  41.900   0.741
41693W        W10067  36.377   9.272  12.989
41694W        W10068  30.652  29.556  13.972
41695W        W10069  10.205   6.904  11.476
41696W        W10070  22.654   6.295   0.907
41697W        W10071  25.190   1.278  14.279
41698W        W10072  29.935   8.270  13.014
41699W        W10073  26.156  35.394   3.773
41700W        W10074  26.099  22.514  14.935
41701W        W10075  39.488  15.104   3.813
41702W        W10076  10.358   7.391  14.378
41703W        W10077  10.874  23.141  12.498
41704W        W10078  32.618  14.337  11.066
41705W        W10079  10.789  37.081   3.315
41706W        W10080   2.366  40.853   2.722
41707W        W10081   4.317  27.548   4.723
41708W        W10082  38.042  43.938   4.655
41709W        W10083  21.514  36.016   4.692
41710W        W10084  39.934  33.484  12.053
41711W        W10085  26.607  43.842   3.205
41712W        W10086  31.000  22.189  12.428
41713W        W10087  36.915  10.678  13.487
41714W        W10088  19.755   4.228  14.994
41715W        W10089  43.501  25.546  12.826
41716W        W10090  30.947  12.821  13.955
41717W        W10091  26.546  15.660  14.343
41718W        W10092  16.186   2.404   3.633
41719W        W10093  22.600  40.503  12.014
41720W        W10094  38.519   9.664  11.438
41721W        W10095  27.516   3.761   0.829
41722W        W10096  25.038  17.284  12.064
41723W        W10097  34.397   3.277  11.948
41724W        W10098  41.531  11.687  13.959
41725W        W10099  18.249  40.041   2.372
41726W        W10100  36.052   1.440  10.472
41727W        W10101  44.380  39.044   5.220
41728W        W10102   7.376  26.184  12.402
41729W        W10103  20.551  24.567   1.737
41730W        W10104  39.908   8.744   1.338
41731W        W10105  36.543  36.976   3.195
41732W        W10106  25.049  19.673  12.912
41733W        W10107  34.455  38.931  10.572
41734W        W10108  19.652  10.222   0.359
41735W        W10109  41.490  37.397   4.295
41736W        W10110   5.299   9.316  11.073
41737W        W10111  19.211  34.407  11.403
41738W        W10112  27.096  21.598   4.203
41739W        W10113  39.536   2.326  11.116
41740W        W10114  11.666  31.422   4.685
41741W        W10115  40.473  14.096   3.724
41742W        W10116  26.623  32.610  13.854
41743W        W10117  42.421  15.119   4.130
41744W        W10118   0.342  38.511  14.465
41745W        W10119  22.578  26.629  11.066
41746W        W10120   2.943  10.315  13.963
41747W        W10121  20.096   6.823  13.329
41748W        W10122  44.373   5.782   4.320
41749W        W10123  34.388  18.618   1.238
41750W        W10124  24.478  16.585  10.159
41751W        W10125  23.494  36.091   4.188
41752W        W10126  22.722  43.349   0.343
41753W        W10127  10.658  41.945  12.079
41754W        W10128   0.856   9.228  12.896
41755W        W10129   7.804  17.680   4.801
41756W        W10130  30.071  21.590   1.331
41757W        W10131  37.915  11.269   1.767
41758W        W10132   9.758  19.137  10.038
41759W        W10133  36.888  16.281  14.427
41760W        W10134   7.227  32.011   2.348
41761W        W10135  31.042   6.704  12.873
41762W        W10136  20.135  26.030  10.926
41763W        W10137  26.622   2.385   3.755
41764W        W10138   6.187  23.536   5.092
41765W        W10139  11.270  11.729  14.874
41766W        W10140  16.105  24.221   2.853
41767W        W10141  39.469  33.531  11.584
41768W        W10142  40.392  39.971  11.026
41769W        W10143  15.123  10.244   0.915
41770W        W10144  26.955  40.325   4.677
41771W        W10145  43.902   4.363  11.381
41772W        W10146  10.366   1.431  12.485
41773W        W10147  11.203  16.687   4.333
41774W        W10148  12.713  29.507  11.103
41775W        W10149   8.344   2.756   2.318
41776W        W10150  25.543  12.740  11.077
41777W        W10151   8.209  22.661   3.732
41778W        W10152  16.132  10.258   4.808
41779W        W10153   2.819   3.726  14.817
41780W        W10154  33.546  26.627   3.171
41781W        W10155   2.789  38.486  10.467
41782W        W10156  29.944  22.519   3.201
41783W        W10157  35.047  18.770   3.346
41784W        W10158  19.141   7.894  12.877
41785W        W10159  19.099  42.897  13.451
41786W        W10160  32.504  11.702  12.483
41787W        W10161   5.843  27.455  14.931
41788W        W10162  30.511   3.252   0.911
41789W        W10163  36.903   4.387   3.698
41790W        W10164  12.818  41.857  11.098
41791W        W10165   2.883   9.384  11.511
41792W        W10166   4.928   6.770   4.769
41793W        W10167  19.572  14.120  13.396
41794W        W10168   1.756   1.294   3.673
41795W        W10169  21.640  38.832  11.892
41796W        W10170   2.777  15.259   1.810
41797W        W10171  21.522   4.315  14.331
41798W        W10172  30.602  24.121  14.298
41799W        W10173   2.942  37.340  12.436
41800W        W10174  30.924  11.635  12.925
41801W        W10175  36.533  38.895   5.319
41802W        W10176  13.198  22.250  12.413
41803W        W10177  26.056  30.659   4.698
41804W        W10178   4.290   8.829  10.060
41805W        W10179  41.955  22.698  13.868
41806W        W10180  11.707  13.162   1.902
41807W        W10181  26.198  21.150  11.414
41808W        W10182  25.116  33.913  12.853
41809W        W10183  28.039  38.481   0.406
41810W        W10184  41.397  37.455  12.413
41811W        W10185  32.475   5.346  12.985
41812W        W10186  11.134  17.703  12.564
41813W        W10187  36.495   6.792  13.004
41814W        W10188  24.074  20.688   3.721
41815W        W10189  34.063  15.296   1.261
41816W        W10190  20.739  26.577  10.507
41817W        W10191  39.501  27.513  11.052
41818W        W10192   4.795   2.227   0.885
41819W        W10193  29.065   7.896   2.276
41820W        W10194  24.545  25.620   4.303
41821W        W10195   1.963  44.349   3.858
41822W        W10196  13.626  40.350  13.865
41823W        W10197   7.296  32.578   4.247
41824W        W10198  16.301   1.323  11.450
41825W        W10199  17.764  13.649   1.867
41826W        W10200  28.090  25.673  14.924
41827W        W10201   5.412  34.000  13.428
41828W        W10202  16.644  17.682   4.210
41829W        W10203   9.721  28.639  11.588
41830W        W10204  38.937  32.422  11.443
41831W        W10205  37.539  22.606   0.329
41832W        W10206   2.822   0.325  11.026
41833W        W10207  38.942   0.465  14.863
41834W        W10208   0.340  18.752   1.278
41835W        W10209  22.044  31.599   4.240
41836W        W10210  19.634  31.639   3.681
41837W        W10211  25.609  30.572  13.547
41838W        W10212  14.317  15.166  11.612
41839W        W10213  39.461  38.889  14.831
41840W        W10214   5.316  25.577   0.270
41841W        W10215   4.309  12.305   3.753
41842W        W10216  14.710  17.559  13.978
41843W        W10217  32.988  37.983  13.327
41844W        W10218  23.720  35.091   1.765
41845W        W10219  32.397   0.843  11.471
41846W        W10220   7.693  37.428   3.219
41847W        W10221  43.944   6.824  12.408
41848W        W10222  25.714  25.599   4.779
41849W        W10223  25.976  21.102   0.310
41850W        W10224  25.663  39.042  10.621
41851W        W10225  20.664  29.464  13.393
41852W        W10226   5.703   4.815   5.605
41853W        W10227  35.878  17.206  10.561
41854W        W10228  31.037  40.012  10.991
41855W        W10229  32.599  37.052   4.724
41856W        W10230  13.838   4.719   1.846
41857W        W10231  35.953  34.386   1.379
41858W        W10232  38.961  10.869  10.089
41859W        W10233  44.876  27.624  11.398
41860W        W10234  28.155  32.614  14.325
41861W        W10235  37.454  16.604  14.275
41862W        W10236  30.630  36.444   3.244
41863W        W10237  15.659  30.164  11.053
41864W        W10238  28.664  30.566  11.077
41865W        W10239  38.331  19.573  13.041
41866W        W10240   6.876  17.685   2.856
41867W        W10241   4.893  15.217   2.248
41868W        W10242  43.865  28.555  10.921
41869W        W10243  37.878  18.201   0.386
41870W        W10244  18.213  43.306  11.605
41871W        W10245  38.332  43.861  13.875
41872W        W10246  33.943   8.226  11.566
41873W        W10247  44.753   7.896   0.904
41874W        W10248  15.733   4.903   0.750
41875W        W10249  37.549  11.661  12.915
41876W        W10250   1.978   8.661   1.875
41877W        W10251  29.111  35.102  12.825
41878W        W10252  31.571   9.153   1.313
41879W        W10253   8.249  26.673   5.244
41880W        W10254  21.043  32.973  11.435
41881W        W10255   1.753  25.482   1.791
41882W        W10256   0.367  21.094   1.424
41883W        W10257  29.030   1.825   0.435
41884W        W10258  15.164  28.090  11.890
41885W        W10259  29.652   7.704   1.759
41886W        W10260  17.251  22.560  13.846
41887W        W10261  19.677  30.599   2.777
41888W        W10262  43.511  37.470  11.872
41889W        W10263  11.270   6.380  10.492
41890W        W10264  21.256  30.476   4.611
41891W        W10265  39.062  37.405   2.320
41892W        W10266   6.849  18.167   1.333
41893W        W10267  10.311  21.584   0.415
41894W        W10268   5.699  21.738  10.545
41895W        W10269  38.936  18.550   4.306
41896W        W10270  38.026  10.305   1.917
41897W        W10271  13.114  28.121   0.473
41898W        W10272  30.996  33.553  10.956
41899W        W10273  21.723  37.902  11.474
41900W        W10274  31.572  27.941  12.342
41901W        W10275  29.974  40.414   0.961
41902W        W10276  24.566  38.447  11.941
41903W        W10277  22.185  42.477  11.959
41904W        W10278  38.326  38.392  13.410
41905W        W10279  44.803  37.987  14.779
41906W        W10280  31.061  27.057   0.425
41907W        W10281  12.776  13.165   4.313
41908W        W10282  37.571  40.023   4.117
41909W        W10283  41.030  30.576  12.856
41910W        W10284  37.364  36.408   2.716
41911W        W10285   7.335  26.656  14.808
41912W        W10286   1.436  15.682   4.683
41913W        W10287  20.080  14.663  11.509
41914W        W10288  44.857  17.289  10.438
41915W        W10289   0.928  22.552   1.896
41916W        W10290  11.718  17.615  10.438
41917W        W10291  29.445  26.670   2.664
41918W        W10292  18.225   0.793   1.877
41919W        W10293  35.479   0.285   3.788
41920W        W10294  16.279  12.688   3.650
41921W        W10295  11.234  29.980   3.731
41922W        W10296  24.542  18.074   5.687
41923W        W10297  19.704   4.407  14.030
41924W        W10298   3.785  30.473   4.603
41925W        W10299  25.176  11.190   3.811
41926W        W10300  11.729   3.407   4.205
41927W        W10301  22.152  19.107  14.376
41928W        W10302  32.999  37.852  14.310
41929W        W10303  32.994  33.520   2.729
41930W        W10304  17.766  40.894   1.257
41931W        W10305   1.933  44.901   4.136
41932W        W10306  29.151  43.850   1.271
41933W        W10307  31.446  13.319   1.334
41934W        W10308   8.842  25.592  13.439
41935W        W10309  19.590  30.430  13.039
41936W        W10310  30.441  35.966  14.913
41937W        W10311  31.022   4.245   0.480
41938W        W10312  38.466  39.021   4.756
41939W        W10313  17.172  21.214  11.411
41940W        W10314  18.733  35.896  12.384
41941W        W10315   8.255  18.279  10.409
41942W        W10316  30.918  31.943   1.886
41943W        W10317  41.304  32.393   4.178
41944W        W10318   2.277  13.311  11.099
41945W        W10319  10.842  41.472  13.929
41946W        W10320  32.102  26.469  14.899
41947W        W10321  42.843   6.419  13.526
41948W        W10322  28.658  25.176   2.374
41949W        W10323   9.655  19.715  10.586
41950W        W10324  39.487  18.581   4.173
41951W        W10325  42.784  27.478  13.531
41952W        W10326  17.171  38.526  11.388
41953W        W10327   7.289  35.568  12.937
41954W        W10328   0.932  12.278   2.841
41955W        W10329  41.933  29.944   4.836
41956W        W10330   9.324  35.476   2.361
41957W        W10331  38.399   4.770  12.387
41958W        W10332   9.260  26.663  13.468
41959W        W10333   8.794   8.258   1.697
41960W        W10334  44.908  29.160  13.986
41961W        W10335  20.185  15.157   3.767
41962W        W10336   3.714  29.106  12.383
41963W        W10337  10.264  31.459   1.319
41964W        W10338  19.126  19.749  13.049
41965W        W10339  31.424   0.315   2.750
41966W        W10340  44.501  25.993   0.900
41967W        W10341   3.326  18.102   4.647
41968W        W10342  21.566  22.151  13.353
41969W        W10343  39.057   1.915   3.207
41970W        W10344  43.972  12.204  14.828
41971W        W10345   0.425  23.022  11.504
41972W        W10346  26.171  28.544  13.997
41973W        W10347  25.213  40.050   1.810
41974W        W10348   7.245  43.453   3.321
41975W        W10349   5.413  31.499  10.979
41976W        W10350  24.628  33.001  13.514
41977W        W10351  19.160  35.442   4.801
41978W        W10352  16.188  25.145   0.330
41979W        W10353  16.767  10.705   4.189
41980W        W10354  21.204  34.077  10.416
41981W        W10355   6.270  40.523   1.398
41982W        W10356  11.129  23.006   0.396
41983W        W10357  41.942  13.317  12.519
41984W        W10358   5.778   5.223  14.969
41985W        W10359  11.366  32.436   3.757
41986W        W10360   7.780  24.068   3.158
41987W        W10361  21.203  14.793   4.694
41988W        W10362  34.550  14.653  10.990
41989W        W10363  28.959  30.654   4.625
41990W        W10364   6.244  39.427  13.840
41991W        W10365  20.545  24.196   2.768
41992W        W10366  26.101  18.122  13.008
41993W        W10367  34.611  43.397   0.930
41994W        W10368  39.813   9.739   3.183
41995W        W10369   0.267   3.746   2.753
41996W        W10370  22.711  17.642   0.794
41997W        W10371  30.029  43.407  13.860
41998W        W10372   4.401  21.703   4.141
41999W        W10373  29.981  40.962   3.708
42000W        W10374  27.093  13.325  11.127
42001W        W10375   6.183  35.422  12.450
42002W        W10376  17.295  16.637   3.673
42003W        W10377  19.043  35.590  14.017
42004W        W10378  15.738  14.310  13.405
42005W        W10379  41.905  19.687   5.124
42006W        W10380  37.011  17.594   0.382
42007W        W10381  13.190  27.088   0.934
42008W        W10382  42.377  29.105   0.823
42009W        W10383  19.595  31.002  12.874
42010W        W10384  21.088  42.516   0.864
42011W        W10385   3.364  13.691  10.600
42012W        W10386  36.563  17.749  14.774
42013W        W10387  38.913  40.907  12.894
42014W        W10388  31.974  14.258  11.860
42015W        W10389  33.410  28.662   1.881
42016W        W10390  22.653  17.589   9.992
42017W        W10391  15.247  30.581  10.527
42018W        W10392  39.028  19.285  14.493
42019W        W10393  18.625  23.703   4.270
42020W        W10394  29.585  41.484  10.001
42021W        W10395  38.379   3.388   2.288
42022W        W10396  14.765  38.959  11.991
42023W        W10397  28.002  10.734   4.251
42024W        W10398  30.618  15.138  11.125
42025W        W10399  21.223  15.635   0.741
42026W        W10400   7.897  35.021  11.475
42027W        W10401  20.152  28.971  12.876
42028W        W10402  39.333  29.546   4.182
42029W        W10403   7.884  22.186   4.641
42030W        W10404   6.686  16.669   1.706
42031W        W10405   4.339  43.944  14.278
42032W        W10406  24.075   8.210  12.867
42033W        W10407  17.061   3.871   0.285
42034W        W10408  31.413  33.037  10.599
42035W        W10409  10.178  12.234   1.783
42036W        W10410  27.156  11.694   3.328
42037W        W10411  38.034   6.768  10.037
42038W        W10412  24.660  21.622  13.335
42039W        W10413  25.022  42.286  12.082
42040W        W10414  15.774  24.187  11.594
42041W        W10415  20.689   9.756  14.772
42042W        W10416  44.919   3.762   3.271
42043W        W10417   6.727  12.328   4.125
42044W        W10418   4.747  16.776  11.404
42045W        W10419   6.739  39.471  14.810
42046W        W10420  13.342  33.030   3.377
42047W        W10421  25.514  25.176  12.428
42048W        W10422  30.018  40.997   1.375
42049W        W10423   3.266  27.556   0.371
42050W        W10424  13.637  20.717   4.638
42051W        W10425  44.965  33.906   3.775
42052W        W10426  20.707  43.326  14.369
42053W        W10427  44.442  30.479  12.959
42054W        W10428   2.362  23.591  11.880
42055W        W10429  19.699  27.959  10.511
42056W        W10430  43.768  16.749   4.758
42057W        W10431  21.234  42.471   1.731
42058W        W10432  31.556  43.474   1.215
42059W        W10433  42.291  32.454  12.346
42060W        W10434  19.689  19.134   4.605
42061W        W10435   1.478  12.807   3.351
42062W        W10436  23.233  33.096  13.061
42063W        W10437  19.615   4.711   3.694
42064W        W10438  40.525  19.157  13.344
42065W        W10439  12.249   7.286  13.802
42066W        W10440  11.187  28.003   4.230
42067W        W10441  40.434  36.065  10.922
42068W        W10442  22.593  11.346  13.050
42069W        W10443  20.200  12.671   0.360
42070W        W10444  41.819  11.813   1.836
42071W        W10445  30.014  14.602   3.265
42072W        W10446   8.345   7.370  13.039
42073W        W10447   3.423  32.512  12.474
42074W        W10448   7.299  17.723   4.810
42075W        W10449  40.959  18.673  11.126
42076W        W10450  28.952  10.359  12.500
42077W        W10451  12.263  20.590   2.242
42078W        W10452  15.740  40.867   3.715
42079W        W10453  15.661  27.953   4.817
42080W        W10454  36.959   0.282   2.885
42081W        W10455  32.603  38.888   4.171
42082W        W10456  40.804  13.178   1.329
42083W        W10457  29.451  20.664   0.955
42084W        W10458  30.519   4.884   1.298
42085W        W10459  33.959  26.666   0.782
42086W        W10460  13.783   9.870  10.035
42087W        W10461  24.707  11.854   1.736
42088W        W10462  42.821  10.312  12.992
42089W        W10463  17.276   2.358   3.166
42090W        W10464   5.921  29.611   0.338
42091W        W10465  23.180   0.790  13.923
42092W        W10466  17.224   4.204  12.443
42093W        W10467  33.037   8.187   0.917
42094W        W10468  38.566  23.543   4.308
42095W        W10469  31.419  14.746   4.260
42096W        W10470  43.006   7.797   5.145
42097W        W10471  15.140  12.184   2.704
42098W        W10472  41.024  18.188   1.418
42099W        W10473  36.957  10.189   3.724
42100W        W10474  34.064  38.359   4.239
42101W        W10475   5.798  25.476  13.953
42102W        W10476   7.787  41.399  14.772
42103W        W10477  25.701  14.094   4.288
42104W        W10478  15.272  32.935  14.304
42105W        W10479  19.215  36.920   2.897
42106W        W10480  14.307  18.603  13.436
42107W        W10481  36.460  35.472  13.398
42108W        W10482  38.477  29.125  10.433
42109W        W10483  15.774  11.706  12.955
42110W        W10484  27.613  17.130  14.406
42111W        W10485   0.287   7.820  12.914
42112W        W10486   9.753  41.890  10.554
42113W        W10487  24.615  39.856   1.412
42114W        W10488  21.113   2.880  14.779
42115W        W10489  26.206   0.876  11.008
42116W        W10490   7.188   7.667   0.448
42117W        W10491  12.754  32.439   1.276
42118W        W10492  20.098   6.346   0.475
42119W        W10493   6.206  25.980   3.762
42120W        W10494  16.690  31.426   4.304
42121W        W10495  15.667  11.777   3.286
42122W        W10496  44.477   5.881  10.496
42123W        W10497  16.085  21.539  13.373
42124W        W10498  20.061  38.945  10.434
42125W        W10499  42.376   0.414  12.836
42126W        W10500  11.817  42.849  12.909
42127W        W10501   0.986  43.307  12.367
42128W        W10502  13.602  12.289  14.324
42129W        W10503   1.434  32.097  12.575
42130W        W10504  22.718  12.197  10.414
42131W        W10505  26.022  41.904  12.017
42132W        W10506  27.169   1.428  14.338
42133W        W10507  42.451  28.969   1.767
42134W        W10508   9.163  16.812  12.542
42135W        W10509  19.564  33.942   2.780
42136W        W10510  34.090   2.291   0.455
42137W        W10511   5.200  33.550   3.758
42138W        W10512   0.488  16.078   1.244
42139W        W10513  33.598   0.823   3.823
42140W        W10514  28.546  23.096   1.853
42141W        W10515  29.990  39.523  13.026
42142W        W10516  33.603  29.597   0.370
42143W        W10517   4.761  19.671  10.956
42144W        W10518  31.076  15.258  12.957
42145W        W10519  32.567  44.313  12.512
42146W        W10520  44.478  15.799   2.280
42147W        W10521  33.074   3.221   1.705
42148W        W10522  11.143  34.581   1.415
42149W        W10523  42.784  11.199  12.994
42150W        W10524  32.137  44.862  11.533
42151W        W10525  26.200  29.110   4.348
42152W        W10526  34.962  35.931  11.488
42153W        W10527  22.577  36.921   1.352
42154W        W10528   4.254  16.267  11.055
42155W        W10529  30.067   1.774  11.549
42156W        W10530  25.966  19.279  13.970
42157W        W10531  15.104  37.033   1.735
42158W        W10532   4.745   1.402  11.528
42159W        W10533   4.254  25.691   3.777
42160W        W10534  14.618   6.362   2.367
42161W        W10535  40.335  13.211  10.614
42162W        W10536   7.395   2.413   9.650
42163W        W10537  35.459   6.724   1.227
42164W        W10538  11.279  27.656  13.908
42165W        W10539   9.800   6.256   2.776
42166W        W10540  31.931   0.435  12.398
42167W        W10541  21.756  10.658  10.506
42168W        W10542  22.526   6.367   2.217
42169W        W10543  42.923  44.914   2.778
42170W        W10544   8.763   9.685   2.363
42171W        W10545  41.848   0.810  14.350
42172W        W10546  27.504  11.205  14.771
42173W        W10547  38.028  38.067   1.367
42174W        W10548  30.989  19.619   4.350
42175W        W10549  17.758  31.936   2.840
42176W        W10550  29.576   6.426   4.169
42177W        W10551   1.440   1.945  13.338
42178W        W10552  27.556  31.976  12.481
42179W        W10553  37.557  21.578  14.818
42180W        W10554  36.026   0.816  14.347
42181W        W10555  36.882  31.018  11.611
42182W        W10556  22.548  12.310   4.817
42183W        W10557   6.398   3.734  13.347
42184W        W10558  39.858  39.053   4.228
42185W        W10559  28.499  16.698  12.376
42186W        W10560  30.439   4.438  11.594
42187W        W10561  24.045  37.947   0.275
42188W        W10562  17.611  33.420  12.877
42189W        W10563  24.611  15.168  12.453
42190W        W10564  28.955  30.093   0.921
42191W        W10565  43.837  34.884  13.818
42192W        W10566  29.098  28.472  10.962
42193W        W10567  22.512  20.264   2.384
42194W        W10568  16.256  31.468  12.913
42195W        W10569  31.136  18.053  13.940
42196W        W10570  22.654   1.821   0.298
42197W        W10571  40.470  38.518   3.293
42198W        W10572  11.811  10.634  13.401
42199W        W10573   6.920  17.695  12.079
42200W        W10574   8.749  17.734   4.318
42201W        W10575  42.424   6.829  12.520
42202W        W10576   3.255  25.556   3.333
42203W        W10577  44.948  37.938  14.300
42204W        W10578  11.697   3.931   3.824
42205W        W10579  18.609   7.176   9.986
42206W        W10580  18.649  12.211  10.468
42207W        W10581  28.519  11.793   4.279
42208W        W10582   4.777   9.243   2.211
42209W        W10583  41.848   7.851  12.485
42210W        W10584  19.284  26.031  13.478
42211W        W10585   6.914   7.336   1.912
42212W        W10586  14.116  43.971  10.128
42213W        W10587   2.290  24.206  12.993
42214W        W10588  20.198   1.400  11.947
42215W        W10589  12.156  42.990   4.808
42216W        W10590  24.496  24.590  14.470
42217W        W10591  30.649   4.788   0.785
42218W        W10592   8.249  23.626   4.676
42219W        W10593   1.760  34.095  12.944
42220W        W10594  19.253  26.205   0.768
42221W        W10595  11.786  39.961  14.842
42222W        W10596  11.660   0.975  11.890
42223W        W10597  36.418  16.752  11.907
42224W        W10598   5.246  12.275   4.646
42225W        W10599  24.209  30.502  14.023
42226W        W10600  44.494  36.393   1.423
42227W        W10601   6.883  18.206  12.472
42228W        W10602  24.724  39.318   2.242
42229W        W10603  31.906  23.634  10.001
42230W        W10604  16.249  39.341  14.765
42231W        W10605  22.144  10.833  14.347
42232W        W10606  42.505  23.704   3.249
42233W        W10607  29.429  44.945   0.442
42234W        W10608  22.580  19.079  13.493
42235W        W10609  29.928  34.402  13.972
42236W        W10610   8.349  40.805   2.720
42237W        W10611  13.692   6.822   2.866
42238W        W10612  32.599  41.861  11.522
42239W        W10613  30.571  32.622  14.883
42240W        W10614  10.798   6.397   9.945
42241W        W10615   9.823  28.472   0.330
42242W        W10616  22.221   0.356  10.997
42243W        W10617  10.204  30.930  10.495
42244W        W10618  33.571   9.801   5.122
42245W        W10619  14.611  40.022  14.498
42246W        W10620  30.009  26.617   2.344
42247W        W10621   2.964  27.685   2.417
42248W        W10622  18.649  33.970   1.285
42249W        W10623   1.338  19.643  14.880
42250W        W10624  41.305  39.410   1.433
42251W        W10625   6.685  21.218  14.010
42252W        W10626  26.991   8.281   4.766
42253W        W10627  29.015  36.484  11.387
42254W        W10628  11.733   1.909   3.669
42255W        W10629  44.948  11.307  13.394
42256W        W10630  12.853   2.383  11.397
42257W        W10631  36.444  28.113  12.534
42258W        W10632  40.470  41.292  14.952
42259W        W10633  22.622  25.086   2.751
42260W        W10634  33.524  35.933   2.684
42261W        W10635  41.478  25.534  13.878
42262W        W10636  24.720  11.850   4.286
42263W        W10637  21.186  27.020   4.216
42264W        W10638  12.227  31.901   1.839
42265W        W10639  19.709  38.554   2.851
42266W        W10640  36.563   4.210   0.320
42267W        W10641  27.661  42.870   3.217
42268W        W10642  34.458  19.095   4.271
42269W        W10643  35.454   5.224   2.669
42270W        W10644  10.846  30.030  12.972
42271W        W10645   7.904  37.402  10.957
42272W        W10646  44.336  25.693  13.009
42273W        W10647  11.868   9.295  12.834
42274W        W10648  23.616   0.860  12.911
42275W        W10649  39.899  25.547   3.737
42276W        W10650  13.228  22.205   0.262
42277W        W10651   1.776   0.876   1.391
42278W        W10652  42.415  32.108  12.408
42279W        W10653  36.954   6.307  13.058
42280W        W10654   3.348  32.954   3.152
42281W        W10655  44.345  19.086   3.647
42282W        W10656  23.670  36.448   1.799
42283W        W10657  10.246  32.128   2.405
42284W        W10658  43.934   7.825  12.438
42285W        W10659  19.664  19.143  14.953
42286W        W10660   2.414  12.632  12.428
42287W        W10661  41.962  36.093   4.336
42288W        W10662   2.381  38.510  13.944
42289W        W10663   2.785   7.881  13.326
42290W        W10664  22.126  22.508  12.977
42291W        W10665  38.066   4.811  13.857
42292W        W10666  34.022  12.323  14.343
42293W        W10667  39.552  19.568  12.015
42294W        W10668  36.358  30.045  11.450
42295W        W10669   1.400  38.546  14.333
42296W        W10670  12.764  32.922   2.418
42297W        W10671  34.008  16.298   2.272
42298W        W10672  22.096  13.315   1.845
42299W        W10673  15.134  21.257  12.943
42300W        W10674   0.448  40.490  12.503
42301W        W10675   8.846   6.302   2.413
42302W        W10676  24.552   6.699   1.731
42303W        W10677  23.684  27.649   3.365
42304W        W10678  42.381  16.200  13.525
42305W        W10679  20.658  32.587  13.805
42306W        W10680  19.624  14.726   2.672
42307W        W10681  28.529  14.785  11.042
42308W        W10682  31.963  29.042   2.663
42309W        W10683  34.586  40.437   4.195
42310W        W10684   3.315   2.345   2.384
42311W        W10685  42.915  41.813  11.415
42312W        W10686  11.303   1.255   1.356
42313W        W10687  42.524  13.114   1.315
42314W        W10688   2.745  42.826   0.285
42315W        W10689  20.542  38.919  12.391
42316W        W10690   3.787  18.195  14.426
42317W        W10691   4.450  28.165   0.379
42318W        W10692  39.436  15.822   2.362
42319W        W10693  38.903  31.483  11.102
42320W        W10694  17.681   7.755   4.674
42321W        W10695  17.647  14.818   0.814
42322W        W10696  25.048   1.473   2.797
42323W        W10697  39.318  37.874  13.850
42324W        W10698  20.663   3.366   5.214
42325W        W10699  21.701  23.157   3.678
42326W        W10700   9.373   4.417   4.726
42327W        W10701  12.698   0.290  11.110
42328W        W10702  14.777  34.026  10.897
42329W        W10703  41.434  22.583  11.610
42330W        W10704  32.114  43.471  11.477
42331W        W10705  26.020   4.428   1.379
42332W        W10706  41.937   1.242   2.210
42333W        W10707  40.464  15.169   1.350
42334W        W10708  12.147  10.259   2.809
42335W        W10709  16.306   1.251  14.957
42336W        W10710   4.257  18.072   3.805
42337W        W10711  19.139  14.154  10.606
42338W        W10712  37.928  37.928  10.630
42339W        W10713  41.473  24.542   4.826
42340W        W10714  14.643  39.046   3.296
42341W        W10715  34.521  28.450   1.286
42342W        W10716  23.721  42.300   2.348
42343W        W10717  36.356  16.111  11.374
42344W        W10718  12.144  31.039  12.343
42345W        W10719  17.294  14.337   2.732
42346W        W10720  22.100  40.829   2.870
42347W        W10721  13.274   5.407  14.957
42348W        W10722  24.978  10.750   1.441
42349W        W10723   6.682  39.394  10.523
42350W        W10724   1.732  18.154   0.845
42351W        W10725  22.715  39.498   9.966
42352W        W10726  39.845   8.739   1.884
42353W        W10727   5.925  20.072   0.776
42354W        W10728  18.157  32.450  13.328
42355W        W10729  10.208  38.049  10.905
42356W        W10730   5.871   2.463  12.340
42357W        W10731  12.793  15.223  14.464
42358W        W10732  21.252  35.051   1.396
42359W        W10733  21.742  14.623   1.342
42360W        W10734  35.578  34.924  11.393
42361W        W10735  39.442  35.379  11.906
42362W        W10736  14.322  30.097  12.057
42363W        W10737  43.334  26.086   1.933
42364W        W10738  25.531  17.135  14.399
42365W        W10739  17.208  34.099  11.575
42366W        W10740  30.414   9.344  13.995
42367W        W10741   5.725   0.479  10.603
42368W        W10742  26.525  39.395   2.395
42369W        W10743  26.108  31.106  14.443
42370W        W10744  30.004   7.704  13.459
42371W        W10745  13.702   2.921  14.472
42372W        W10746  11.699  38.398   1.898
42373W        W10747  31.978  27.523   2.814
42374W        W10748  35.969  17.693  11.456
42375W        W10749  42.407   2.448  13.935
42376W        W10750   0.927  21.023   0.842
42377W        W10751  12.171  22.121  13.899
42378W        W10752  39.970  37.407  13.416
42379W        W10753  44.809  40.445   3.211
42380W        W10754  30.053  38.407  10.909
42381W        W10755  32.414   4.347  14.773
42382W        W10756   9.327   7.754  14.779
42383W        W10757  25.144  35.105  13.492
42384W        W10758  26.978  31.957  13.383
42385W        W10759  19.191  33.101  13.529
42386W        W10760  27.059  11.814  12.851
42387W        W10761   6.825  24.064   1.804
42388W        W10762  33.113  42.287   2.365
42389W        W10763  22.624  11.854   2.417
42390W        W10764  25.090  12.796   1.746
42391W        W10765   2.371  41.402  12.558
42392W        W10766   3.430  17.220  13.045
42393W        W10767  24.666  17.084   3.751
42394W        W10768  19.597  30.052  11.399
42395W        W10769  22.535  27.453  10.636
42396W        W10770  34.018   0.882   0.450
42397W        W10771   7.871   0.391   4.779
42398W        W10772  12.788  32.577   1.730
42399W        W10773   8.886  26.626   5.092
42400W        W10774   0.891  12.746   4.604
42401W        W10775  11.673  27.056  14.832
42402W        W10776  37.833  10.871  13.486
42403W        W10777  14.304   4.727  11.090
42404W        W10778   1.775  16.650   4.791
42405W        W10779  39.482  41.358   3.835
42406W        W10780  26.201  39.827   2.227
42407W        W10781  16.274  15.815  12.847
42408W        W10782  41.917  34.870  14.318
42409W        W10783  30.474  41.318  13.028
42410W        W10784  42.825   4.225   2.774
42411W        W10785  18.599  17.582   1.902
42412W        W10786  23.173  22.016  14.276
42413W        W10787   5.219   6.916   2.697
42414W        W10788  27.058  16.284  14.383
42415W        W10789   3.790  28.089  11.085
42416W        W10790  31.570  31.509   0.871
42417W        W10791  38.359  38.991   3.147
42418W        W10792  39.409   2.963   0.435
42419W        W10793  16.620  21.569  12.854
42420W        W10794  23.716  29.091  11.983
42421W        W10795  36.871  41.954   2.702
42422W        W10796  33.543   8.205   0.473
42423W        W10797  13.206  29.140   3.201
42424W        W10798  25.202  39.322  13.859
42425W        W10799  20.642  26.975  12.505
42426W        W10800  33.530  12.202   3.852
42427W        W10801  25.147  18.135   5.663
42428W        W10802   4.367   9.258  12.013
42429W        W10803  22.527  40.360   0.402
42430W        W10804   8.779  29.163   4.341
42431W        W10805  22.048  37.497   5.297
42432W        W10806   2.383  24.595  14.334
42433W        W10807  28.157  36.446   3.265
42434W        W10808  16.802  37.539  13.498
42435W        W10809  17.701  38.464   3.188
42436W        W10810  22.134  10.369   1.733
42437W        W10811   7.403  32.956  14.942
42438W        W10812  28.031  14.103   2.378
42439W        W10813  21.557  15.253   2.822
42440W        W10814  37.451  23.112  13.827
42441W        W10815  23.018  24.723  14.500
42442W        W10816  10.197  36.996  11.598
42443W        W10817  20.577  42.524   4.665
42444W        W10818  11.162  28.576  13.462
42445W        W10819  19.700  25.191   1.256
42446W        W10820   9.291  25.548  13.847
42447W        W10821   6.332  28.960   3.356
42448W        W10822  36.559  33.997  14.897
42449W        W10823  36.403   3.301  14.926
42450W        W10824  21.212   3.293   5.238
42451W        W10825  43.882  30.593  13.470
42452W        W10826  32.588  31.408  11.100
42453W        W10827  34.075  21.705   4.727
42454W        W10828  35.090   8.211   3.333
42455W        W10829   3.433  36.487   3.728
42456W        W10830   7.809  17.641   2.859
42457W        W10831  19.638  34.436  11.397
42458W        W10832  32.050  13.123   4.134
42459W        W10833  24.702  17.073   5.274
42460W        W10834  38.048  39.497   1.818
42461W        W10835  42.915  42.415   1.280
42462W        W10836  41.902  10.253   1.236
42463W        W10837  37.507  36.845  13.321
42464W        W10838  43.787  16.275   1.916
42465W        W10839   3.931  19.701   0.910
42466W        W10840  35.447  14.157  12.433
42467W        W10841  26.163  25.476  10.606
42468W        W10842  11.771   9.783  12.389
42469W        W10843  35.859  13.664   2.249
42470W        W10844  23.525  40.539   1.735
42471W        W10845   9.221  44.826  12.532
42472W        W10846  37.869  24.173  10.513
42473W        W10847  26.966  14.153   3.758
42474W        W10848  20.231  20.725  12.828
42475W        W10849   0.337  23.041  11.901
42476W        W10850  39.358  34.420   3.385
42477W        W10851  26.654   7.682  11.079
42478W        W10852   5.220  31.497   2.233
42479W        W10853  18.165  21.687  12.379
42480W        W10854  21.727  26.042  14.280
42481W        W10855  13.756   7.701  13.480
42482W        W10856  41.471  29.958  12.426
42483W        W10857   1.733  26.688  14.417
42484W        W10858  19.616  31.988  13.033
42485W        W10859  14.802  10.240   2.233
42486W        W10860  15.718  35.881  14.320
42487W        W10861  43.846  29.617   2.365
42488W        W10862  37.986   4.326  14.999
42489W        W10863  42.377   5.830  13.508
42490W        W10864  15.659  35.416   4.682
42491W        W10865  30.421  14.733  14.771
42492W        W10866  39.924  35.105   1.921
42493W        W10867  12.227  23.729   2.757
42494W        W10868  13.721   2.912  13.890
42495W        W10869   5.322  43.838   2.842
42496W        W10870   3.241   3.902  14.773
42497W        W10871  33.028  29.625  12.393
42498W        W10872  33.059   6.377   3.294
42499W        W10873   6.216  10.160  12.003
42500W        W10874  16.699  26.068   4.139
42501W        W10875   0.389  26.007  14.303
42502W        W10876  21.224  34.920   4.329
42503W        W10877  12.162  40.823  10.636
42504W        W10878   3.788  40.978  10.594
42505W        W10879  28.078  41.996   3.756
42506W        W10880  43.406  13.158   4.714
42507W        W10881  39.519  40.850  11.449
42508W        W10882  26.964   6.805   1.861
42509W        W10883   9.185  39.360  12.392
42510W        W10884  37.852  25.066  11.912
42511W        W10885  43.346  38.948   2.717
42512W        W10886  30.157  43.922   3.373
42513W        W10887   6.741  34.114   4.348
42514W        W10888  42.366  41.413  10.918
42515W        W10889  35.360  24.016  12.483
42516W        W10890  13.670  23.624   0.929
42517W        W10891   5.199  10.726  12.880
42518W        W10892   0.923   8.803   0.808
42519W        W10893  41.915   6.421   4.746
42520W        W10894  19.129  32.568  11.069
42521W        W10895  21.742  42.335  13.799
42522W        W10896  18.255  26.499  13.010
42523W        W10897   2.237  33.515   0.386
42524W        W10898  10.228  40.867  14.962
42525W        W10899  24.083  36.399  12.418
42526W        W10900  26.491  29.939   5.307
42527W        W10901   3.460  35.542  14.873
42528W        W10902  30.100  33.514  10.590
42529W        W10903  14.588  31.465   1.859
42530W        W10904  25.586  13.611  10.443
42531W        W10905   8.202   7.885   0.739
42532W        W10906  43.870  43.861   3.787
42533W        W10907   7.746  37.460   4.734
42534W        W10908  13.725  32.422   1.811
42535W        W10909  40.977  40.977   1.918
42536W        W10910  42.791  39.029  14.857
42537W        W10911  11.821   5.407   1.708
42538W        W10912  36.029  38.456   4.672
42539W        W10913   3.921  23.023   0.949
42540W        W10914  15.280   2.345  14.771
42541W        W10915  15.811  15.227   3.244
42542W        W10916  37.847   2.316  12.544
42543W        W10917  21.249  30.918  10.130
42544W        W10918  20.261  33.507  10.553
42545W        W10919   2.432  17.163  10.438
42546W        W10920  19.578  20.056   4.755
42547W        W10921  28.937   5.735  11.909
42548W        W10922  24.648   2.395   2.193
42549W        W10923  19.185  15.706  12.831
42550W        W10924  37.429  24.655  10.556
42551W        W10925  13.601   1.775   2.351
42552W        W10926  17.774   1.788  13.934
42553W        W10927  32.562  41.315   3.779
42554W        W10928  11.775  34.446   0.285
42555W        W10929   5.758   4.857   1.817
42556W        W10930   9.201  44.791   1.298
42557W        W10931  29.130  36.365  10.605
42558W        W10932  23.172  20.129  12.061
42559W        W10933  31.485  36.918   0.822
42560W        W10934  18.080  25.473   0.305
42561W        W10935  43.400   2.469  11.417
42562W        W10936  24.139  43.381   3.163
42563W        W10937  14.149  13.789   1.911
42564W        W10938   1.260  39.316   3.870
42565W        W10939   5.400  18.656  12.887
42566W        W10940  13.205  31.970   2.256
42567W        W10941  29.443  28.186   0.298
42568W        W10942  20.648  43.276  11.552
42569W        W10943  21.646  20.195   0.890
42570W        W10944  42.914  43.349  12.945
42571W        W10945   6.385  15.631   2.679
42572W        W10946   9.326  40.387   1.803
42573W        W10947  14.600  32.418   2.320
42574W        W10948  12.625   6.249   4.268
42575W        W10949  30.148  32.440  13.032
42576W        W10950  36.547  27.616   2.857
42577W        W10951  34.935  31.485   4.791
42578W        W10952  20.552  42.931   0.374
42579W        W10953  32.495  31.953   1.789
42580W        W10954  22.006  40.521   5.571
42581W        W10955   6.915  23.669  14.810
42582W        W10956  39.973  41.417  11.561
42583W        W10957  38.559  17.258  14.828
42584W        W10958  41.867  15.212  13.841
42585W        W10959  17.280  35.473  14.358
42586W        W10960  37.510  20.595  13.011
42587W        W10961  42.406  37.352  10.593
42588W        W10962   4.906  15.798   1.745
42589W        W10963   1.421  33.008   2.844
42590W        W10964  23.152   9.862  10.443
42591W        W10965   0.286  35.534  10.917
42592W        W10966  30.913  32.631   3.731
42593W        W10967  34.405  43.769   2.413
42594W        W10968  32.111  13.706   4.728
42595W        W10969  44.392  14.617  12.856
42596W        W10970   6.376  15.232   1.227
42597W        W10971  25.217   3.422  11.951
42598W        W10972  24.121   7.271  10.573
42599W        W10973  10.732  28.989   1.387
42600W        W10974  44.261  43.951  12.479
42601W        W10975  29.427  10.853   0.473
42602W        W10976  11.631  17.185   0.484
42603W        W10977  13.254  15.807  13.850
42604W        W10978  13.300   4.774  14.393
42605W        W10979  15.292   0.807  14.836
42606W        W10980  25.696   0.974  10.493
42607W        W10981  13.725  44.967  11.107
42608W        W10982   3.828  15.661  10.420
42609W        W10983  41.818  14.824  11.483
42610W        W10984  30.629  28.511   0.441
42611W        W10985   0.817  11.708  11.521
42612W        W10986  17.123  17.093   2.224
42613W        W10987  11.256  32.047  14.483
42614W        W10988  16.756  16.765  11.874
42615W        W10989  10.739  30.028   1.708
42616W        W10990  24.545   2.342  11.039
42617W        W10991  19.277  39.003   4.224
42618W        W10992  19.081  22.213   4.191
42619W        W10993  26.610  34.529  11.524
42620W        W10994  21.678  29.442   2.770
42621W        W10995  37.079   3.324   4.801
42622W        W10996   5.758  14.672  14.974
42623W        W10997   0.937  30.977  11.997
42624W        W10998  20.269  27.580   2.769
42625W        W10999  18.671  16.154  11.578
42626W        W11000  10.292  23.079   1.823
42627W        W11001  17.261  39.499   3.263
42628W        W11002  32.425  30.652  11.029
42629W        W11003  17.215  33.545  12.508
42630W        W11004  19.712  38.340   0.434
42631W        W11005  27.522   2.723   3.753
42632W        W11006  27.547  29.612   3.211
42633W        W11007  43.353  30.579  11.863
42634W        W11008   1.732  34.460   2.790
42635W        W11009   5.302  30.911  11.101
42636W        W11010  35.085  32.049   2.203
42637W        W11011  39.819   7.879  11.003
42638W        W11012  21.149  27.137   4.638
42639W        W11013  43.442   1.341   0.889
42640W        W11014  11.259  37.878   4.335
42641W        W11015  15.601   8.404   0.440
42642W        W11016  33.980  24.003  14.275
42643W        W11017  37.949  24.085  14.004
42644W        W11018  17.733  14.721   4.703
42645W        W11019  12.159  24.204   1.882
42646W        W11020  38.880  29.154  13.428
42647W        W11021   2.318   3.454  11.095
42648W        W11022  29.580  15.726   1.221
42649W        W11023  25.626  12.692   0.759
42650W        W11024  28.998  30.973   3.335
42651W        W11025  35.377  41.410  11.079
42652W        W11026   1.865  12.300   4.613
42653W        W11027   7.750  12.237   3.797
42654W        W11028  29.655  38.890   0.884
42655W        W11029  30.989  39.037   3.832
42656W        W11030   1.386  30.569  12.567
42657W        W11031  19.692  33.596   2.897
42658W        W11032  18.665  38.407  12.062
42659W        W11033  32.583   1.872   4.790
42660W        W11034   7.678  22.620  10.591
42661W        W11035  34.022  41.803  13.953
42662W        W11036   5.195   8.190  14.459
42663W        W11037  31.442  41.873  12.476
42664W        W11038   5.335  28.935  14.937
42665W        W11039  15.265  15.603  10.112
42666W        W11040  32.133  40.428  14.006
42667W        W11041  20.127  20.274  13.516
42668W        W11042  30.536   7.382   2.727
42669W        W11043  22.147  20.621  10.560
42670W        W11044   7.241  21.055   4.681
42671W        W11045  16.656  23.702   2.416
42672W        W11046   3.421  27.634   2.215
42673W        W11047   3.913  13.753  12.419
42674W        W11048  18.676  22.581   3.350
42675W        W11049  32.455   8.692   0.726
42676W        W11050  30.915  31.904  10.099
42677W        W11051  29.145  36.414   3.303
42678W        W11052  36.923   8.677  10.014
42679W        W11053  24.019  10.233  14.440
42680W        W11054   8.874  10.326   4.288
42681W        W11055  10.344  35.517  11.399
42682W        W11056   5.862  23.038  13.807
42683W        W11057  25.522   4.329   3.276
42684W        W11058  27.948  24.486  12.522
42685W        W11059   3.811  35.579  13.953
42686W        W11060  22.154  23.558   2.798
42687W        W11061  25.174   3.803  11.512
42688W        W11062  15.643  43.921   0.438
42689W        W11063  15.244  34.607  14.330
42690W        W11064   4.252   1.849   1.745
42691W        W11065  27.608  30.116   0.368
42692W        W11066  41.942   2.758  14.835
42693W        W11067  14.636  31.133  10.639
42694W        W11068  42.024  17.211   2.855
42695W        W11069   3.372   6.731   1.759
42696W        W11070  29.460   9.825  14.361
42697W        W11071  44.364  18.763  14.293
42698W        W11072   0.479  44.439  10.425
42699W        W11073  31.915   2.763  11.577
42700W        W11074   1.908  14.196  14.367
42701W        W11075  23.622  26.114   0.276
42702W        W11076  44.967  33.914  10.956
42703W        W11077  20.056  27.146   1.728
42704W        W11078   2.953  37.924  12.530
42705W        W11079  28.958  33.603  12.528
42706W        W11080   9.277  16.792   0.822
42707W        W11081  22.577  18.621  11.984
42708W        W11082  14.611  39.453   3.378
42709W        W11083  42.465  28.445   4.288
42710W        W11084   3.359  18.548  13.984
42711W        W11085  40.383  32.480  10.533
42712W        W11086  41.792  25.683   4.819
42713W        W11087  30.588  37.979   3.681
42714W        W11088  14.318  12.165  13.490
42715W        W11089  34.417  41.506  10.574
42716W        W11090   5.724  15.128  11.547
42717W        W11091  14.645  32.583  14.416
42718W        W11092   3.790  19.626  10.474
42719W        W11093  26.083   7.324   4.663
42720W        W11094  38.434  35.896  11.035
42721W        W11095  16.708  21.018   1.892
42722W        W11096   8.237  28.083   0.911
42723W        W11097  19.084  39.031  12.034
42724W        W11098  10.321   8.377  14.988
42725W        W11099   2.782  23.536   1.252
42726W        W11100  11.140  32.069   3.745
42727W        W11101   5.399  19.722   2.305
42728W        W11102   8.659  39.412   3.329
42729W        W11103  43.353  37.958   4.222
42730W        W11104  23.520  14.699  10.054
42731W        W11105  32.550  20.666   0.378
42732W        W11106  34.060  15.283  13.880
42733W        W11107  17.683  44.912   4.696
42734W        W11108  21.227  27.110   5.246
42735W        W11109   6.872  27.075  11.470
42736W        W11110  11.294   4.380   0.833
42737W        W11111  24.679   8.295   3.314
42738W        W11112  21.192  41.807  14.935
42739W        W11113  43.275  15.193   1.251
42740W        W11114  42.786  14.170   1.792
42741W        W11115  16.631   9.799   0.792
42742W        W11116  35.513  27.087   2.353
42743W        W11117  42.496  26.651   4.182
42744W        W11118  39.412  25.989  14.836
42745W        W11119  29.055  10.345   0.953
42746W        W11120  36.445   3.890   0.457
42747W        W11121  32.114  31.137   0.364
42748W        W11122  25.065  30.147   4.133
42749W        W11123  12.141  38.958   3.159
42750W        W11124  35.010  17.699   3.283
42751W        W11125   0.457  17.120  11.445
42752W        W11126  39.399  29.963   1.213
42753W        W11127  29.981  35.464   1.912
42754W        W11128   7.870  17.156  12.865
42755W        W11129   9.887  20.760  10.450
42756W        W11130   3.288  15.670   9.954
42757W        W11131  43.348   8.321   0.379
42758W        W11132  15.773  35.366  10.597
42759W        W11133  18.237   3.219   2.260
42760W        W11134  36.454  43.339   0.846
42761W        W11135  25.568  20.137   1.437
42762W        W11136  18.227  11.144   4.797
42763W        W11137  24.061   2.909  13.893
42764W        W11138   7.895   5.201   0.286
42765W        W11139   7.878   4.703  10.645
42766W        W11140  38.936   1.940   4.708
42767W        W11141  25.098  40.416   4.175
42768W        W11142   2.909  28.086   4.600
42769W        W11143  19.559  24.597   2.880
42770W        W11144  15.707   6.420   1.820
42771W        W11145  12.663  19.663   1.374
42772W        W11146  27.605   6.397  13.503
42773W        W11147  18.226   0.966  10.552
42774W        W11148   7.767  16.621  14.416
42775W        W11149   9.887  35.598   0.852
42776W        W11150  43.339  12.811  12.504
42777W        W11151  38.988  43.501   3.157
42778W        W11152  41.905  11.138   1.234
42779W        W11153   6.345  41.925   1.391
42780W        W11154  31.617  17.194  11.036
42781W        W11155  20.066  35.551   1.905
42782W        W11156  15.315  27.612   3.826
42783W        W11157  42.962  30.008   0.287
42784W        W11158  22.210  33.971  12.071
42785W        W11159  38.338   9.673   1.398
42786W        W11160   0.435  10.703   3.768
42787W        W11161  35.029  15.214  14.894
42788W        W11162  19.748  38.963  10.581
42789W        W11163  41.919  15.314   4.757
42790W        W11164  14.120  11.856   0.473
42791W        W11165  28.449   5.793  10.938
42792W        W11166  40.327  21.653  12.878
42793W        W11167  14.125   2.727   2.742
42794W        W11168   8.746  13.323   3.784
42795W        W11169  28.123   7.777  12.403
42796W        W11170  23.730   5.292   0.467
42797W        W11171  44.770  21.043  11.559
42798W        W11172  44.754  28.128   0.402
42799W        W11173  12.135  37.570  12.339
42800W        W11174  20.711  28.134  13.524
42801W        W11175  30.983   8.270   4.597
42802W        W11176  39.429   0.387  13.428
42803W        W11177   9.313  19.084  12.472
42804W        W11178  38.860  13.798  14.969
42805W        W11179  24.069  20.130   0.376
42806W        W11180  26.616  18.683   0.434
42807W        W11181   3.943  16.289   4.641
42808W        W11182  17.251  27.646   2.386
42809W        W11183  44.900  42.782   1.880
42810W        W11184  32.518  34.045  11.520
42811W        W11185  17.737  14.694  12.493
42812W        W11186  27.085  38.542   4.742
42813W        W11187  31.959  25.670  11.862
42814W        W11188  18.148  32.099   0.770
42815W        W11189  42.811  42.456   0.428
42816W        W11190   4.426  29.175  12.068
42817W        W11191  26.597  30.056  14.029
42818W        W11192  28.000   7.359  13.402
42819W        W11193  19.180  24.701  10.604
42820W        W11194   6.345  17.257   2.783
42821W        W11195  17.174  29.506  14.494
42822W        W11196  34.979   1.304   1.700
42823W        W11197  34.978  10.216  12.036
42824W        W11198  42.314   7.298   3.764
42825W        W11199  25.618  28.116   2.682
42826W        W11200  17.715  31.906   1.805
42827W        W11201  25.608  16.310   3.315
42828W        W11202  40.885  35.013  13.002
42829W        W11203  22.662   8.740  12.841
42830W        W11204  29.552  17.668   2.845
42831W        W11205   8.169  44.375  13.918
42832W        W11206  33.078  29.465   1.724
42833W        W11207  40.435   2.412   2.896
42834W        W11208  38.542  29.004   3.663
42835W        W11209  18.173  23.564  14.815
42836W        W11210  21.146   0.967   1.749
42837W        W11211  25.586  26.468   5.087
42838W        W11212  33.971  14.322   2.317
42839W        W11213  35.014   1.887  14.365
42840W        W11214  13.732   2.870   2.765
42841W        W11215  14.702  26.972  11.897
42842W        W11216  32.502  32.459   2.696
42843W        W11217  41.944   5.198  14.473
42844W        W11218   9.788  12.804   2.337
42845W        W11219  24.064   8.793   0.922
42846W        W11220  26.478  21.148  11.066
42847W        W11221   6.284  32.558  12.384
42848W        W11222   8.250  40.980  11.435
42849W        W11223  19.586  28.006   1.212
42850W        W11224   3.850  14.226   1.408
42851W        W11225  42.517  20.241   2.230
42852W        W11226  24.148   5.873  10.505
42853W        W11227  35.086  16.736   2.738
42854W        W11228  18.217   1.265   2.289
42855W        W11229  29.023  28.648   4.172
42856W        W11230  37.475  43.823  12.089
42857W        W11231  29.130  20.660   2.736
42858W        W11232  35.051   6.889   0.920
42859W        W11233  34.454  14.206  11.041
42860W        W11234  22.589  34.998   0.390
42861W        W11235  22.117  38.393   3.292
42862W        W11236  30.565  29.442  11.861
42863W        W11237   0.779   6.734  14.002
42864W        W11238   6.245  19.760   3.710
42865W        W11239  25.974  20.233  14.423
42866W        W11240  10.710  18.176  10.060
42867W        W11241  25.621   6.321  14.421
42868W        W11242  11.843  31.992  12.991
42869W        W11243  10.718  37.867  13.945
42870W        W11244   5.768  34.382  13.402
42871W        W11245  41.823  25.617   2.327
42872W        W11246  17.614  15.322  13.971
42873W        W11247  26.200  34.974   1.904
42874W        W11248  14.158  12.324   2.847
42875W        W11249  34.422  35.517  12.375
42876W        W11250  39.966  36.417   2.340
42877W        W11251  29.621  19.274   3.209
42878W        W11252  16.317  18.285   3.761
42879W        W11253   1.944  43.842  13.910
42880W        W11254  11.667   6.892   1.327
42881W        W11255   5.437  25.476   5.141
42882W        W11256  26.200  37.995   2.236
42883W        W11257  35.510   7.217   2.852
42884W        W11258   4.869  33.128  12.984
42885W        W11259  24.660  16.127  13.947
42886W        W11260  33.469  14.747  12.575
42887W        W11261  34.488  16.155  10.928
42888W        W11262   6.292  17.227  14.790
42889W        W11263  13.688   2.252   3.752
42890W        W11264   5.296  33.617  14.893
42891W        W11265  14.765  36.478  10.612
42892W        W11266   3.320  11.146   1.378
42893W        W11267  16.209  17.110  10.472
42894W        W11268  11.708  21.162   0.332
42895W        W11269  41.490  12.213  11.442
42896W        W11270  30.015   7.366   0.277
42897W        W11271  33.937  23.585  12.963
42898W        W11272  23.038  11.650  12.408
42899W        W11273  30.495  15.696   1.922
42900W        W11274  28.009   0.269  13.425
42901W        W11275  22.734   5.696   0.292
42902W        W11276   8.837  21.033  11.410
42903W        W11277  44.387  20.567  12.578
42904W        W11278  37.423  21.154  10.416
42905W        W11279  20.148  43.920   0.775
42906W        W11280   4.804   5.303   1.794
42907W        W11281  39.916  43.868  13.439
42908W        W11282  20.115  29.076  13.838
42909W        W11283  38.059  29.643  13.993
42910W        W11284  36.917  32.563  12.508
42911W        W11285  16.219  34.378   4.838
42912W        W11286  29.048  34.050  14.461
42913W        W11287  30.657  11.339  13.058
42914W        W11288   7.822  27.951   4.827
42915W        W11289  38.857  34.898  10.641
42916W        W11290  31.931  22.206  10.459
42917W        W11291  20.030   8.681  13.419
42918W        W11292  18.637  24.574   2.699
42919W        W11293  29.146  38.024  12.928
42920W        W11294  22.026  31.595  12.985
42921W        W11295  24.153  25.006   2.388
42922W        W11296  10.800  37.419   4.737
42923W        W11297  31.513   3.412  14.825
42924W        W11298  36.422  14.607  14.972
42925W        W11299  24.009  24.635   1.269
42926W        W11300  33.027  35.992  13.889
42927W        W11301  29.622  34.428  10.486
42928W        W11302  20.620  16.292   1.724
42929W        W11303  32.893  22.586   0.340
42930W        W11304  42.447   7.722  11.908
42931W        W11305   3.383  43.283   3.717
42932W        W11306  13.244  43.447  13.039
42933W        W11307   5.289  14.300  14.869
42934W        W11308   2.724  17.628  11.924
42935W        W11309  31.146  17.796   2.687
42936W        W11310  11.770   8.899   9.984
42937W        W11311  35.571   4.310  12.057
42938W        W11312   5.839   3.925   3.353
42939W        W11313  14.698  40.950  13.931
42940W        W11314  32.596  19.202   4.115
42941W        W11315  32.517   9.668   3.320
42942W        W11316   8.347  34.415   0.296
42943W        W11317   8.722   5.717   0.881
42944W        W11318   8.301  31.404   3.187
42945W        W11319  25.596  41.520   0.815
42946W        W11320  26.502  43.387   3.755
42947W        W11321   0.259   5.902  14.376
42948W        W11322  42.480  38.073  11.578
42949W        W11323  23.658  30.039   3.198
42950W        W11324  26.662   3.451   2.202
42951W        W11325   9.269  20.105  12.880
42952W        W11326   2.385  35.391   0.393
42953W        W11327  33.392  25.561  11.473
42954W        W11328   2.764  36.052   3.180
42955W        W11329   7.816  24.187   5.204
42956W        W11330  43.500  20.653  11.475
42957W        W11331  15.154   9.306   4.722
42958W        W11332  29.494  31.620  12.347
42959W        W11333  37.367   9.684  12.044
42960W        W11334  31.485  37.925   3.780
42961W        W11335   0.291  23.592   0.393
42962W        W11336   5.326  11.203  14.483
42963W        W11337  39.370   5.385  10.639
42964W        W11338  25.668  32.012  13.505
42965W        W11339  22.126  42.409  12.438
42966W        W11340   1.240  20.708  13.477
42967W        W11341  31.577   6.347   3.837
42968W        W11342  30.995  38.528  14.810
42969W        W11343   1.479  16.080  11.126
42970W        W11344  26.160  22.530  12.959
42971W        W11345   1.966  34.612   2.357
42972W        W11346  36.874   8.401  10.033
42973W        W11347  43.511  42.789  14.823
42974W        W11348  25.573  10.211   1.854
42975W        W11349   7.787  22.033   2.273
42976W        W11350  43.440   6.805   0.400
42977W        W11351  22.145  10.333   0.779
42978W        W11352  27.674   9.774   1.826
42979W        W11353   4.723  39.948   3.856
42980W        W11354  42.524   7.820  13.038
42981W        W11355  17.254  13.714  14.853
42982W        W11356   4.245  10.640  10.594
42983W        W11357  22.042  22.548   1.331
42984W        W11358  42.813  33.534   3.253
42985W        W11359  28.082  34.941   0.816
42986W        W11360  37.486  10.794   0.268
42987W        W11361  15.189  32.933   2.901
42988W        W11362  17.567  17.178  12.548
42989W        W11363  24.569   0.388  13.821
42990W        W11364  37.979  39.829  11.975
42991W        W11365   5.414  44.340   4.647
42992W        W11366   0.765  27.106  11.079
42993W        W11367  25.163  16.799  11.893
42994W        W11368  34.865  29.475  11.011
42995W        W11369  34.569  11.315  11.070
42996W        W11370  10.649  27.546  12.886
42997W        W11371  17.797   1.940   3.698
42998W        W11372  37.441  26.146  11.385
42999W        W11373   6.284  19.163   3.270
43000W        W11374  13.121  13.273  13.942
43001W        W11375  13.130  28.083  11.020
43002W        W11376  19.275  11.826  11.903
43003W        W11377  37.502   3.434  11.436
43004W        W11378  26.102  16.303   2.881
43005W        W11379  38.048  22.221  14.465
43006W        W11380  34.433  32.004  13.807
43007W        W11381  39.950   3.215  13.007
43008W        W11382  10.379   1.949  13.531
43009W        W11383  44.768  12.624   3.161
43010W        W11384  43.466  40.959   3.210
43011W        W11385  33.426  43.388  12.961
43012W        W11386  15.687  26.691  11.373
43013W        W11387  44.406   1.842  12.869
43014W        W11388  29.174  30.562   2.397
43015W        W11389   8.313  23.677   3.647
43016W        W11390  38.834  29.928   3.251
43017W        W11391  41.791  17.150  11.087
43018W        W11392  34.966  18.090   3.173
43019W        W11393  31.526  32.943  13.873
43020W        W11394  23.071   9.691   2.759
43021W        W11395  16.578  23.678  14.895
43022W        W11396  36.064   3.458  11.046
43023W        W11397   2.832  32.622   4.774
43024W        W11398   7.248   5.340   9.525
43025W        W11399  15.235   2.277  10.464
43026W        W11400  29.149  19.076   2.251
43027W        W11401  10.341   2.382  13.962
43028W        W11402  29.146   3.771   0.448
43029W        W11403  20.667  11.304  11.459
43030W        W11404  33.091  29.971   4.804
43031W        W11405  41.041  29.118   4.651
43032W        W11406  32.032  17.724   0.873
43033W        W11407  38.413  10.245  12.955
43034W        W11408   5.800  18.745   2.301
43035W        W11409  38.971  36.013  13.890
43036W        W11410   9.179  39.024   3.825
43037W        W11411   8.765  35.915  10.982
43038W        W11412  12.847   9.242   2.386
43039W        W11413  16.793   6.811   4.655
43040W        W11414  12.174   8.162  12.902
43041W        W11415  10.853  38.058  14.367
43042W        W11416  32.094  42.965   3.695
43043W        W11417  16.685  26.138   4.662
43044W        W11418  13.705   0.298   0.930
43045W        W11419  34.496  21.045   5.194
43046W        W11420  23.081  19.599  11.978
43047W        W11421  10.648  22.081   2.677
43048W        W11422  31.438  42.904   1.405
43049W        W11423  27.948  37.959  14.930
43050W        W11424  23.990   3.275  13.520
43051W        W11425  36.542   6.772  12.555
43052W        W11426  10.348  27.668  14.961
43053W        W11427  41.489  20.729  12.943
43054W        W11428  29.939  29.631  12.029
43055W        W11429  12.235  32.952  12.841
43056W        W11430   0.327  24.105   2.845
43057W        W11431  33.051  32.623   0.317
43058W        W11432   7.882  27.617   0.889
43059W        W11433  31.476   5.330   0.265
43060W        W11434   9.853  33.608  13.923
43061W        W11435  11.319  17.082   1.841
43062W        W11436  24.074  11.814   0.282
43063W        W11437  39.992  24.088  11.119
43064W        W11438   8.366  33.529  10.466
43065W        W11439  39.416  35.447  10.529
43066W        W11440  28.498  19.137   3.838
43067W        W11441  14.588   5.391  11.510
43068W        W11442  28.595  30.536   3.646
43069W        W11443   4.907  16.202   1.267
43070W        W11444   5.394   7.208  11.490
43071W        W11445  32.925  25.150   2.703
43072W        W11446   2.283  14.818  12.456
43073W        W11447  37.834  27.089  13.944
43074W        W11448  34.508  37.012   3.648
43075W        W11449  27.597   1.379   1.274
43076W        W11450   5.222  21.084   4.170
43077W        W11451  16.624  40.973  11.402
43078W        W11452  24.569  13.336   3.189
43079W        W11453  37.933  17.650  14.022
43080W        W11454  43.829  27.056  14.848
43081W        W11455  26.036  41.876  14.815
43082W        W11456  44.297  21.100   1.893
43083W        W11457   1.752  25.107  11.062
43084W        W11458   4.393   6.220   4.125
43085W        W11459  40.317  20.127   4.719
43086W        W11460  33.466  21.571   2.893
43087W        W11461  15.601  33.100  10.985
43088W        W11462   2.824  23.026   1.371
43089W        W11463  44.779   2.422   2.372
43090W        W11464  37.074  19.658   1.837
43091W        W11465  29.646  33.944   4.280
43092W        W11466  22.026  21.608   1.428
43093W        W11467  31.550  42.008   0.283
43094W        W11468  40.985  30.456  10.600
43095W        W11469  41.332   3.242   3.763
43096W        W11470  11.741  30.477  12.532
43097W        W11471   0.894  38.820  11.478
43098W        W11472  36.952  27.990   0.296
43099W        W11473  36.875   7.817  13.063
43100W        W11474  34.551  38.404   4.114
43101W        W11475   9.878   7.895   0.440
43102W        W11476  34.008  15.730  13.997
43103W        W11477  26.141  42.354   3.368
43104W        W11478  32.926  17.709  13.362
43105W        W11479  15.132  31.530   1.253
43106W        W11480  18.173  15.590  13.999
43107W        W11481  10.349   4.872   4.262
43108W        W11482  36.926   9.648  14.485
43109W        W11483   6.771  26.702  11.376
43110W        W11484   9.334  29.166   4.597
43111W        W11485  39.933  11.253   4.788
43112W        W11486  35.998  31.437   0.309
43113W        W11487  43.976  19.060  11.395
43114W        W11488  44.952  30.004  11.857
43115W        W11489   9.364   5.290   3.166
43116W        W11490  21.152   6.920  14.819
43117W        W11491   3.306  18.252  14.805
43118W        W11492  35.480  37.894  12.840
43119W        W11493   9.260   1.975   1.227
43120W        W11494   9.647  23.157  11.038
43121W        W11495  24.212  28.073   5.089
43122W        W11496   4.833  33.405  13.545
43123W        W11497  30.421  13.756   0.818
43124W        W11498  27.584  34.969  12.978
43125W        W11499  23.579  40.804   1.216
43126W        W11500  44.772   2.733   4.224
43127W        W11501  32.126  22.561   5.082
43128W        W11502  37.526   7.721  11.387
43129W        W11503  36.505  31.066  14.830
43130W        W11504  12.647  27.530  12.974
43131W        W11505  36.559   8.703  12.572
43132W        W11506   3.328  27.179  11.504
43133W        W11507   2.444  10.333  10.141
43134W        W11508  44.982   1.911  11.068
43135W        W11509  31.408  14.328   2.240
43136W        W11510  17.207  43.917   1.419
43137W        W11511   4.748  11.639   5.127
43138W        W11512  12.255   1.925  12.460
43139W        W11513  14.271  34.106  12.533
43140W        W11514   4.908  14.794  10.979
43141W        W11515  35.383   6.751   3.792
43142W        W11516   5.196  10.147   0.468
43143W        W11517  23.230  41.992  13.397
43144W        W11518  37.432  33.578  14.836
43145W        W11519  28.537  33.438   1.222
43146W        W11520  42.828   1.459  11.926
43147W        W11521  40.008   4.828  12.084
43148W        W11522  40.467  34.455  10.519
43149W        W11523  43.475  28.173  14.413
43150W        W11524   9.179   7.338   0.886
43151W        W11525  16.720  24.164  14.342
43152W        W11526   3.755  26.105   2.854
43153W        W11527  33.441   2.766   0.869
43154W        W11528  21.019  28.176   1.725
43155W        W11529  36.024  41.020   3.350
43156W        W11530   6.188  11.631   2.698
43157W        W11531  20.649  36.097  11.003
43158W        W11532  16.801  44.401  12.030
43159W        W11533   9.274  39.007  13.021
43160W        W11534  42.355  31.619  13.470
43161W        W11535  16.595  14.590  12.351
43162W        W11536  14.133  39.553  13.814
43163W        W11537  27.988  25.016  10.957
43164W        W11538  20.203  21.700  13.930
43165W        W11539   8.178  11.256   0.259
43166W        W11540  11.674  12.134   3.265
43167W        W11541  28.039   3.459   4.649
43168W        W11542  31.609  13.190   2.758
43169W        W11543  31.643  20.655   2.211
43170W        W11544  41.855  41.937  14.413
43171W        W11545  10.141  31.491   4.183
43172W        W11546  25.170  44.447  11.875
43173W        W11547  33.563   2.421  13.528
43174W        W11548  35.048  14.240   3.850
43175W        W11549  38.490   5.767   2.328
43176W        W11550  21.210   8.197   2.788
43177W        W11551  35.430  12.250   3.749
43178W        W11552  14.324  29.657  11.040
43179W        W11553  40.474  40.948   4.771
43180W        W11554   1.831  40.537  10.984
43181W        W11555  18.171  18.291  13.944
43182W        W11556  12.320  14.211   1.905
43183W        W11557  44.807  31.084  13.433
43184W        W11558  10.847   7.362  13.970
43185W        W11559  39.885  27.194   4.349
43186W        W11560  14.788  34.935   1.818
43187W        W11561  22.136   9.234  14.904
43188W        W11562  10.213  23.504  11.886
43189W        W11563  39.858  35.924  10.591
43190W        W11564  11.688  25.651   0.354
43191W        W11565  40.946   3.777   3.161
43192W        W11566  21.237  36.512   5.083
43193W        W11567  44.984   9.681  13.387
43194W        W11568  16.149  26.049  11.084
43195W        W11569  14.681   3.336  14.307
43196W        W11570  25.525   5.914   3.722
43197W        W11571  21.028  29.059   1.450
43198W        W11572  19.064  39.503  13.899
43199W        W11573  35.369   8.834   4.766
43200W        W11574  34.881  28.622  10.620
43201W        W11575  13.632  37.487  12.490
43202W        W11576  22.705  27.543   1.345
43203W        W11577  44.956  27.613  10.493
43204W        W11578  29.548   9.722  14.851
43205W        W11579  13.173  10.682  12.352
43206W        W11580   3.414  43.432   2.298
43207W        W11581   2.942  13.105  11.031
43208W        W11582  23.612  30.498  10.117
43209W        W11583   8.780   5.202   3.665
43210W        W11584  22.722  28.958   0.257
43211W        W11585  20.743  43.391   3.701
43212W        W11586   6.233   8.329  13.461
43213W        W11587  18.655  20.688  11.904
43214W        W11588  21.166  44.950   4.767
43215W        W11589   3.215   7.693  10.439
43216W        W11590  10.258  43.509  13.546
43217W        W11591  30.526  41.928  13.427
43218W        W11592   4.859   1.791  13.507
43219W        W11593  44.264   2.242  13.926
43220W        W11594  18.779   6.307   4.643
43221W        W11595  29.073   4.795  12.897
43222W        W11596  18.550  44.965  13.026
43223W        W11597  13.633   0.776   4.323
43224W        W11598  22.686  33.950   3.749
43225W        W11599   4.900  44.872   3.652
43226W        W11600  18.220  21.073  13.988
43227W        W11601  37.060  36.482  10.601
43228W        W11602  23.189   2.406  14.974
43229W        W11603   0.413   1.386  14.864
43230W        W11604  13.733  17.703   2.364
43231W        W11605  21.239  19.763   0.889
43232W        W11606  40.892  20.627   3.798
43233W        W11607   5.378  40.374   4.315
43234W        W11608  42.526   5.386  13.860
43235W        W11609   3.278  12.340  10.475
43236W        W11610  36.544  21.202   2.246
43237W        W11611  39.969   7.882   3.688
43238W        W11612  28.652   0.338   1.808
43239W        W11613   0.401   8.680  11.012
43240W        W11614  15.256  17.618  10.574
43241W        W11615  21.746  19.549   0.885
43242W        W11616  40.920  25.137   2.869
43243W        W11617  17.791   5.768  11.540
43244W        W11618  27.648   7.253   3.844
43245W        W11619  26.605  29.590   1.333
43246W        W11620  28.457  30.580   0.251
43247W        W11621  42.488   4.932  14.915
43248W        W11622   7.180   5.295   3.250
43249W        W11623  14.225  30.942  10.575
43250W        W11624   3.904   0.866   0.449
43251W        W11625  22.166  28.082  13.476
43252W        W11626  15.738  13.685   4.286
43253W        W11627   6.246  33.401   0.316
43254W        W11628  18.560   9.873  10.458
43255W        W11629  29.986  25.692  11.371
43256W        W11630  20.552  27.684   1.717
43257W        W11631  42.787  21.056   2.746
43258W        W11632  44.283  14.757  12.037
43259W        W11633  26.166  37.438  10.585
43260W        W11634  38.926  32.442  10.889
43261W        W11635  38.918  19.568   5.255
43262W        W11636  39.970  29.642  14.855
43263W        W11637   5.864  18.277   4.294
43264W        W11638  11.732   6.707   3.690
43265W        W11639  23.008   1.828   1.389
43266W        W11640  13.157  20.677   1.868
43267W        W11641  42.879  44.397   4.209
43268W        W11642  17.597  30.447   0.837
43269W        W11643  29.530   9.737   3.202
43270W        W11644  22.557  42.887   0.451
43271W        W11645  19.776   0.387   0.455
43272W        W11646  29.493  40.390   1.351
43273W        W11647  38.475  27.984  13.963
43274W        W11648  12.280  42.286   4.250
43275W        W11649  32.505  23.561  14.936
43276W        W11650   7.829  24.210  14.286
43277W        W11651  37.901  40.893  11.866
43278W        W11652  18.093  14.732  11.100
43279W        W11653  38.391  42.886   2.211
43280W        W11654  35.880   4.378   1.789
43281W        W11655  37.518  15.195   2.250
43282W        W11656  43.433  26.953   0.449
43283W        W11657   8.700  32.521  13.405
43284W        W11658  19.088  22.090  14.967
43285W        W11659  34.017  25.015  10.936
43286W        W11660  37.528  16.568   3.374
43287W        W11661  33.384  24.659  12.839
43288W        W11662  20.240  28.444  10.522
43289W        W11663  23.025  17.625  11.949
43290W        W11664  16.081  10.789  12.979
43291W        W11665  24.085  32.546   5.176
43292W        W11666  29.956   0.758  11.922
43293W        W11667  35.448  37.084  14.979
43294W        W11668   6.855  11.637  12.890
43295W        W11669   4.404  41.452   4.173
43296W        W11670  33.069   1.931   3.848
43297W        W11671  26.671  35.922   0.840
43298W        W11672  40.372  24.549   1.907
43299W        W11673   7.349  30.076   4.318
43300W        W11674   7.177  23.167   0.389
43301W        W11675  17.701  35.367   1.266
43302W        W11676  18.694   1.322   1.285
43303W        W11677   5.837   0.890   1.369
43304W        W11678  22.192   4.839  11.491
43305W        W11679  27.145   6.855   3.651
43306W        W11680   4.863  21.708   3.696
43307W        W11681  43.328  10.650  12.351
43308W        W11682  11.866  14.327  14.759
43309W        W11683   3.900  34.903  14.822
43310W        W11684  27.562  33.614  12.339
43311W        W11685  32.056  29.485   5.088
43312W        W11686  39.354  10.272  12.561
43313W        W11687  30.126  16.773   4.810
43314W        W11688  16.091  21.207   1.253
43315W        W11689  27.522  36.571  13.308
43316W        W11690  23.011  40.494   4.337
43317W        W11691  40.855  33.970   0.886
43318W        W11692   4.756  14.318   4.831
43319W        W11693  40.918  27.169   1.300
43320W        W11694  33.082   7.781  14.515
43321W        W11695  14.187  18.073  14.790
43322W        W11696   1.363  43.488  12.494
43323W        W11697  14.326   4.897   4.674
43324W        W11698  24.055   1.931  10.487
43325W        W11699  15.788  20.179  13.897
43326W        W11700  13.255  25.637   2.237
43327W        W11701  10.261  44.363   4.762
43328W        W11702  35.010  34.085  10.585
43329W        W11703   5.902  38.871   2.327
43330W        W11704  15.617  35.948  11.911
43331W        W11705  32.452  10.795  13.907
43332W        W11706  33.957   9.683   0.867
43333W        W11707  35.597  16.719  10.599
43334W        W11708  37.830  28.677   0.378
43335W        W11709  32.940  38.327  11.043
43336W        W11710  11.627  13.650   4.818
43337W        W11711  36.945  40.803  14.286
43338W        W11712   1.386  15.122   1.706
43339W        W11713  43.797  32.396   0.326
43340W        W11714  19.642  22.680  12.485
43341W        W11715   3.863  41.438   2.239
43342W        W11716  26.593  34.984  11.903
43343W        W11717  20.582   7.906   4.678
43344W        W11718  26.186  17.152   3.336
43345W        W11719  32.632  31.507   4.769
43346W        W11720  35.593  39.418  14.851
43347W        W11721  24.094  41.484   1.818
43348W        W11722   7.755   5.838  11.434
43349W        W11723  16.813   8.865  13.476
43350W        W11724   9.240  35.993  13.351
43351W        W11725  31.963  26.628   0.800
43352W        W11726  41.961  36.976  13.969
43353W        W11727  36.001  23.033  10.549
43354W        W11728  12.712  27.495  11.409
43355W        W11729  39.959   1.813   1.309
43356W        W11730  17.273  31.612   4.735
43357W        W11731  44.330  41.491   5.207
43358W        W11732  28.522   1.755  14.765
43359W        W11733  38.369   8.871  12.009
43360W        W11734  24.204  24.478   0.459
43361W        W11735  23.065  38.520  13.804
43362W        W11736   8.713  38.507   3.237
43363W        W11737  41.388  29.645   3.205
43364W        W11738  16.649  18.684  13.432
43365W        W11739  28.056  10.666  13.537
43366W        W11740  39.999  34.491   1.767
43367W        W11741  19.763  31.505  12.877
43368W        W11742  21.574  29.635   0.761
43369W        W11743  41.900  18.161   1.284
43370W        W11744   1.825  18.265   4.291
43371W        W11745  15.235  17.602  11.422
43372W        W11746  27.986   5.276   4.733
43373W        W11747   7.404   6.389   4.172
43374W        W11748  23.645   4.396  13.421
43375W        W11749   3.753   3.848  14.363
43376W        W11750  12.173  25.132   2.777
43377W        W11751   8.689  10.164  11.959
43378W        W11752  38.520  40.480  14.028
43379W        W11753  33.503  33.521  11.558
43380W        W11754  29.160  30.087  10.968
43381W        W11755   6.416  25.653   3.804
43382W        W11756   7.319  32.437   0.273
43383W        W11757  26.509  36.992  12.356
43384W        W11758  38.042   7.249  12.975
43385W        W11759  30.092  20.549  12.526
43386W        W11760  32.492   6.786  10.516
43387W        W11761  31.148   8.795   5.148
43388W        W11762  15.183  38.353  14.955
43389W        W11763  28.031  15.169  14.785
43390W        W11764  44.865  20.077   0.418
43391W        W11765   0.970  10.799  10.891
43392W        W11766   6.313  16.222  12.862
43393W        W11767  15.664  42.854   4.718
43394W        W11768  26.024  28.473  12.407
43395W        W11769  12.814   5.424   2.299
43396W        W11770  23.044  28.474  11.487
43397W        W11771  10.728   1.397  13.333
43398W        W11772  36.982  27.981   4.798
43399W        W11773  39.835  44.918   1.788
43400W        W11774  31.419  15.585  11.900
43401W        W11775  16.282  40.825  11.399
43402W        W11776  16.314   0.748   3.227
43403W        W11777  35.557  27.498   2.252
43404W        W11778  11.752  36.004  14.908
43405W        W11779   2.743  26.099  10.465
43406W        W11780   7.299   7.410   2.409
43407W        W11781  29.953   2.403  14.769
43408W        W11782   0.370   7.670   2.328
43409W        W11783  44.366  29.627  13.926
43410W        W11784   1.308  35.493  11.396
43411W        W11785  13.708   9.354  14.276
43412W        W11786  38.409   1.258  11.962
43413W        W11787   5.931  44.802   0.316
43414W        W11788  10.290  37.449   1.403
43415W        W11789  31.067  21.704   0.363
43416W        W11790  19.071  15.636   1.243
43417W        W11791  30.454  20.256  10.597
43418W        W11792  37.888   2.948  12.006
43419W        W11793  30.491  25.124  11.998
43420W        W11794  36.997  39.048   2.247
43421W        W11795   7.217  30.574   2.352
43422W        W11796   3.813  32.477   3.231
43423W        W11797  39.483  24.552   4.210
43424W        W11798  24.616   1.348  14.831
43425W        W11799  32.448   8.282  10.898
43426W        W11800  33.982   3.865  12.876
43427W        W11801  20.136  35.557  11.041
43428W        W11802  10.285  44.396   2.348
43429W        W11803   9.735  24.182  12.558
43430W        W11804  28.442  20.635   2.369
43431W        W11805  26.043  42.386   1.762
43432W        W11806  35.410  40.024  14.498
43433W        W11807   9.681  33.892  14.845
43434W        W11808  33.131  30.417   4.187
43435W        W11809  26.533   0.457  13.453
43436W        W11810   0.832  37.033   1.738
43437W        W11811  17.181  26.022  11.522
43438W        W11812  22.532  31.429   2.679
43439W        W11813   4.851  20.252  13.958
43440W        W11814   1.404  32.432   1.448
43441W        W11815  39.853   1.864  11.912
43442W        W11816   1.258  31.987   2.240
43443W        W11817  36.912  28.985  12.359
43444W        W11818   9.775  31.639  11.571
43445W        W11819  39.049   4.722  12.866
43446W        W11820  24.002  11.294   1.300
43447W        W11821  17.690  41.450   2.720
43448W        W11822  25.656  17.241   0.403
43449W        W11823  28.931  35.577  12.869
43450W        W11824  26.540   4.219  13.982
43451W        W11825   4.282  17.201  12.999
43452W        W11826  23.654  35.379  12.397
43453W        W11827  32.623  20.272  12.992
43454W        W11828  33.927   5.216  11.602
43455W        W11829   2.936   8.220   3.160
43456W        W11830  32.516  34.874   9.964
43457W        W11831  27.002  39.884  13.321
43458W        W11832   8.716   9.728  12.894
43459W        W11833  18.223   1.750   0.265
43460W        W11834  44.331  19.726  10.588
43461W        W11835  15.633  11.201   2.845
43462W        W11836  44.363   4.906   4.213
43463W        W11837  13.237   1.471  13.830
43464W        W11838  36.355  28.582  13.371
43465W        W11839  41.496  17.070  12.040
43466W        W11840   3.440  14.739   1.876
43467W        W11841  21.643   2.372  10.913
43468W        W11842  15.775   9.336  11.026
43469W        W11843  24.616  30.495  11.929
43470W        W11844   3.313  22.557  10.996
43471W        W11845  10.146  21.201  11.399
43472W        W11846  12.124  30.482  14.381
43473W        W11847   1.377  21.066  14.963
43474W        W11848  44.783   4.346   4.728
43475W        W11849  22.082  15.708   0.751
43476W        W11850   2.779  10.336   2.251
43477W        W11851   6.903  44.383   3.195
43478W        W11852  42.860  33.025   3.654
43479W        W11853  11.806   8.345  12.374
43480W        W11854  20.603  12.184  12.065
43481W        W11855  11.343  44.943  14.883
43482W        W11856   4.872  10.733  12.528
43483W        W11857  10.333  25.981   4.146
43484W        W11858  28.988  40.004   0.265
43485W        W11859  17.097  38.437   3.731
43486W        W11860   6.330   2.850  10.592
43487W        W11861  38.461  39.029  10.942
43488W        W11862  32.462  12.799   3.634
43489W        W11863  40.877  11.186   3.303
43490W        W11864  44.429  38.563   1.237
43491W        W11865   2.285   7.384   0.257
43492W        W11866  22.581  16.754   0.732
43493W        W11867  32.960  18.599   0.363
43494W        W11868  10.193  24.997  14.908
43495W        W11869  16.218  22.672  14.409
43496W        W11870   7.855  37.923   1.333
43497W        W11871  28.658   2.282   0.925
43498W        W11872  34.451  31.488   1.392
43499W        W11873  15.293  20.755  13.973
43500W        W11874   6.740   7.227   0.728
43501W        W11875   5.419  14.701   0.851
43502W        W11876   2.400  39.903   3.843
43503W        W11877  27.969  39.825  11.911
43504W        W11878  20.628  34.582  11.468
43505W        W11879  40.532  31.104   1.313
43506W        W11880   2.963   6.186   1.412
43507W        W11881   3.949  41.330   4.805
43508W        W11882  14.684  20.180   4.722
43509W        W11883  36.030  28.154  12.404
43510W        W11884  25.598  19.084  10.925
43511W        W11885  38.870  17.634   3.251
43512W        W11886  35.600  12.228  10.597
43513W        W11887   2.229  35.443   0.844
43514W        W11888   7.828  14.135   1.316
43515W        W11889  13.128  41.409   1.904
43516W        W11890  23.696  26.613   0.939
43517W        W11891  12.146  37.004  13.525
43518W        W11892  29.093  18.297   1.431
43519W        W11893  11.275  21.637  12.352
43520W        W11894   8.285   6.318   2.730
43521W        W11895  19.156  11.213  13.853
43522W        W11896  38.868  12.725   1.771
43523W        W11897   0.253   3.745   1.422
43524W        W11898  39.447  22.584   0.322
43525W        W11899  37.907  39.415  10.526
43526W        W11900  20.581  41.346   1.797
43527W        W11901  37.456   5.220   3.845
43528W        W11902  43.972   0.982   3.196
43529W        W11903  35.100  22.084  13.874
43530W        W11904  12.246  27.450  14.906
43531W        W11905  42.508  31.149  10.418
43532W        W11906  34.966  30.483  11.437
43533W        W11907  13.809  16.131   4.155
43534W        W11908  40.901  34.532   4.192
43535W        W11909  43.485   1.745  10.582
43536W        W11910  35.384   6.837   1.926
43537W        W11911  36.498  43.014  10.996
43538W        W11912  19.560   2.411  13.995
43539W        W11913   5.710  42.014   1.322
43540W        W11914   5.806  23.537   1.739
43541W        W11915  39.852  19.164   0.411
43542W        W11916  24.992  36.460   1.725
43543W        W11917  35.603  39.037   1.249
43544W        W11918  43.827   2.325   2.295
43545W        W11919  14.771   3.938  11.026
43546W        W11920  12.794  11.716   0.481
43547W        W11921  24.996  12.706  12.522
43548W        W11922  42.776  37.571   1.246
43549W        W11923   2.807   5.802   1.921
43550W        W11924  19.283  11.210  13.489
43551W        W11925  15.263  39.004  14.971
43552W        W11926  24.642   0.896   3.337
43553W        W11927  20.044  16.223   4.746
43554W        W11928  31.595  39.377  12.887
43555W        W11929  13.835  26.175  12.449
43556W        W11930  12.154  22.033  11.009
43557W        W11931  38.534  23.712  11.053
43558W        W11932  14.157   8.359  11.374
43559W        W11933   3.854  25.001   9.971
43560W        W11934  24.057  30.503  14.418
43561W        W11935  22.525  35.935  11.921
43562W        W11936   5.845  28.052   1.339
43563W        W11937  32.942   5.326  11.420
43564W        W11938   6.363   3.781   2.716
43565W        W11939  24.118  26.968   2.664
43566W        W11940  30.972  32.026  12.077
43567W        W11941  28.442   6.748  11.919
43568W        W11942  31.508   2.461   1.811
43569W        W11943  20.133  13.118  11.104
43570W        W11944  41.969  25.533   2.732
43571W        W11945   6.775   8.818  12.073
43572W        W11946  38.507  38.067   3.187
43573W        W11947   6.842  18.278   4.653
43574W        W11948  20.528  41.459  11.882
43575W        W11949  42.780   7.676  14.873
43576W        W11950  20.125  35.965   4.323
43577W        W11951  33.096  27.172  13.995
43578W        W11952  31.017   6.869   2.281
43579W        W11953  10.684  19.238   2.818
43580W        W11954   5.897   3.767   1.820
43581W        W11955  16.800  31.976  12.396
43582W        W11956  35.895  14.119  11.990
43583W        W11957   7.215  17.781  14.797
43584W        W11958  33.128  34.527   2.903
43585W        W11959  42.448   5.698  14.817
43586W        W11960  40.052  26.572   3.634
43587W        W11961  32.112  43.843   0.904
43588W        W11962  31.112  12.614   0.955
43589W        W11963  43.359  37.511  13.387
43590W        W11964  33.435   0.836   5.247
43591W        W11965  17.225  24.212   3.333
43592W        W11966  37.864   0.837   1.753
43593W        W11967   7.773  35.482   1.697
43594W        W11968  38.873   2.821   4.269
43595W        W11969   6.868  30.141   5.113
43596W        W11970  23.617  33.526  12.926
43597W        W11971  21.598   7.414   5.210
43598W        W11972  42.932  15.307  12.471
43599W        W11973  18.598  26.495   3.273
43600W        W11974  39.998  18.645  14.994
43601W        W11975  36.366  24.031  11.607
43602W        W11976  23.537  10.287   4.816
43603W        W11977  10.350   1.853   2.334
43604W        W11978   3.387  44.854   4.771
43605W        W11979   5.913  26.517   1.374
43606W        W11980  29.495   0.263  10.042
43607W        W11981  25.043  29.603  13.990
43608W        W11982  11.193   4.884   3.784
43609W        W11983  27.990  33.990  11.491
43610W        W11984  23.099  37.494   1.903
43611W        W11985  14.697  42.030   0.479
43612W        W11986  22.686  21.635   2.184
43613W        W11987  29.635   4.369   0.323
43614W        W11988  43.321  10.355  10.549
43615W        W11989  21.570  41.351   2.342
43616W        W11990  16.219  38.402  10.510
43617W        W11991  37.836  36.965  11.092
43618W        W11992  14.269  10.669  12.061
43619W        W11993  13.671  21.116   2.662
43620W        W11994  26.062  22.727   0.373
43621W        W11995  17.304  14.610   3.253
43622W        W11996  26.155  33.436  14.832
43623W        W11997  38.834  20.066  10.446
43624W        W11998  44.395   5.322  13.431
43625W        W11999  14.605  10.373   2.788
43626W        W12000   0.355   0.440   1.424
43627W        W12001   4.289  16.664   2.325
43628W        W12002   1.965  16.111  13.369
43629W        W12003  22.036  40.526  10.067
43630W        W12004   6.814   7.209  12.992
43631W        W12005  41.314  25.974   1.747
43632W        W12006   6.751   2.426   1.286
43633W        W12007   5.336   2.308   0.361
43634W        W12008  14.104  12.776  14.871
43635W        W12009  29.014  34.400  10.529
43636W        W12010  41.446   6.786  13.896
43637W        W12011  11.768  12.303   4.217
43638W        W12012   4.419  10.266   2.854
43639W        W12013   9.258   6.202   3.799
43640W        W12014  44.854   3.925  10.899
43641W        W12015  28.490   9.865   1.417
43642W        W12016  14.591  42.399   1.870
43643W        W12017  12.756  41.863  14.761
43644W        W12018  36.965  18.253  14.884
43645W        W12019  24.136  15.600  14.353
43646W        W12020   0.471  16.762  12.949
43647W        W12021  21.582  39.415   1.233
43648W        W12022  33.530   3.276  14.834
43649W        W12023  36.437  41.440   1.930
43650W        W12024  20.158  17.663   4.126
43651W        W12025  22.635  17.081  14.017
43652W        W12026  25.167  36.557  13.317
43653W        W12027   6.691  35.934  14.979
43654W        W12028  33.126  31.588   0.372
43655W        W12029  40.834   7.750  13.875
43656W        W12030   7.733  16.673  10.512
43657W        W12031  13.723   3.237   2.866
43658W        W12032  23.522  38.551   9.530
43659W        W12033  29.574  41.534  11.981
43660W        W12034   4.448  16.116   3.848
43661W        W12035  24.497  32.570  14.902
43662W        W12036   3.748  22.645  13.890
43663W        W12037  35.367  19.275   2.818
43664W        W12038  10.347  40.810  10.956
43665W        W12039  12.275  26.966   0.321
43666W        W12040  26.052   1.300  13.881
43667W        W12041  40.026  36.569   2.800
43668W        W12042  41.014  12.730  13.830
43669W        W12043  15.124   0.812   3.806
43670W        W12044   6.820  22.191   0.377
43671W        W12045  11.736   4.361  14.329
43672W        W12046  35.024  23.144   3.721
43673W        W12047  33.492   6.322  12.043
43674W        W12048  30.484  24.534  12.545
43675W        W12049  22.185   9.197  13.044
43676W        W12050  41.510  41.352  12.539
43677W        W12051  13.709  11.203  12.001
43678W        W12052  30.156  23.060  14.445
43679W        W12053  41.953   0.482  10.514
43680W        W12054  24.569  42.024  12.073
43681W        W12055   5.350   6.762  13.359
43682W        W12056   3.861  27.062  10.499
43683W        W12057   3.932  26.186   3.240
43684W        W12058  14.166  11.220   4.699
43685W        W12059  36.863   5.838   1.934
43686W        W12060  19.563  37.014  13.461
43687W        W12061   7.403   5.727  13.440
43688W        W12062  36.457   4.309  11.059
43689W        W12063  20.658  39.901   1.815
43690W        W12064  34.085   1.278  11.447
43691W        W12065  37.897   3.327   2.274
43692W        W12066  40.454  44.435   5.253
43693W        W12067  30.028  14.658   0.732
43694W        W12068  35.388  34.921  13.503
43695W        W12069  16.599  34.914  14.861
43696W        W12070  40.474  10.190   5.128
43697W        W12071  44.483  40.396   0.828
43698W        W12072   1.349  29.456   0.432
43699W        W12073  31.953  16.655  14.024
43700W        W12074  30.437  25.596  12.490
43701W        W12075  37.928  25.218   1.867
43702W        W12076   3.849  21.025  10.409
43703W        W12077  15.680  34.964   4.659
43704W        W12078   0.400  12.656   4.738
43705W        W12079  43.874   3.915   4.758
43706W        W12080  11.191   1.754  11.865
43707W        W12081  44.456  21.549   1.849
43708W        W12082  21.565  19.755   3.320
43709W        W12083  37.029   3.332   0.775
43710W        W12084  33.936   1.742   0.849
43711W        W12085   3.320  20.220  11.591
43712W        W12086  32.998  27.188   3.232
43713W        W12087  12.781  43.845  12.832
43714W        W12088   5.850  22.020  11.114
43715W        W12089  11.289   9.883   1.232
43716W        W12090  17.595   7.174   1.406
43717W        W12091  34.869  35.505  11.068
43718W        W12092  36.879  21.119   3.244
43719W        W12093  16.622  13.277   0.872
43720W        W12094  35.096  18.174  12.512
43721W        W12095  26.562  23.677  12.519
43722W        W12096   6.399   6.195  13.931
43723W        W12097  22.104   4.280   4.672
43724W        W12098  41.991  35.520  14.394
43725W        W12099  31.128  32.540  11.900
43726W        W12100   0.456  39.931   4.681
43727W        W12101  26.682  34.897  14.304
43728W        W12102  16.658   3.253  14.320
43729W        W12103  22.592  29.582   4.617
43730W        W12104  19.157  29.554   2.805
43731W        W12105  40.356  20.087  13.880
43732W        W12106  25.680   6.852  10.439
43733W        W12107  39.889  42.442  13.351
43734W        W12108  11.624   9.379  12.416
43735W        W12109  29.043  44.847  10.135
43736W        W12110  27.012   4.442   1.305
43737W        W12111   9.719  22.037  13.503
43738W        W12112  12.694  21.194   4.150
43739W        W12113  33.023  12.803  12.515
43740W        W12114  20.206  27.538  14.989
43741W        W12115  13.350  16.711  14.335
43742W        W12116  10.713   2.775   1.342
43743W        W12117   6.322  10.289  14.970
43744W        W12118  34.037  28.533   0.347
43745W        W12119   1.854  25.169  10.414
43746W        W12120  38.029  33.482   2.221
43747W        W12121  34.437  11.656  10.553
43748W        W12122  20.709  39.540   1.256
43749W        W12123  31.082  36.411   0.331
43750W        W12124  10.282  11.669   1.885
43751W        W12125  35.436  12.247  14.783
43752W        W12126  40.506   0.323  12.928
43753W        W12127  21.661  28.593  11.534
43754W        W12128   2.879  26.959  10.948
43755W        W12129  37.904  32.968  11.520
43756W        W12130  29.964  30.104  13.317
43757W        W12131  36.956  15.822   1.222
43758W        W12132   8.673   6.712   4.703
43759W        W12133  28.933  24.181  11.992
43760W        W12134  41.013   4.209   3.824
43761W        W12135  10.378   2.266   4.628
43762W        W12136  42.826   3.236  12.030
43763W        W12137  40.952  33.990   1.932
43764W        W12138  22.544   7.675   3.824
43765W        W12139   9.300  39.929   1.431
43766W        W12140  17.234  39.348   4.661
43767W        W12141   6.723  30.492  12.052
43768W        W12142   6.234  18.725   4.812
43769W        W12143  34.930  35.062  11.111
43770W        W12144  17.586  32.949  12.854
43771W        W12145  18.176  12.758   2.362
43772W        W12146   4.901  42.345   4.336
43773W        W12147  16.744  29.545  14.017
43774W        W12148  44.345   9.171  10.635
43775W        W12149  18.154   9.787  14.349
43776W        W12150  27.949  20.744   4.656
43777W        W12151   2.303  20.119   3.162
43778W        W12152   3.286  17.791   2.846
43779W        W12153  42.890  37.945  11.447
43780W        W12154  38.853  17.269   5.279
43781W        W12155  23.216  27.633  10.586
43782W        W12156  23.053  17.104   4.715
43783W        W12157  24.624  26.974   1.893
43784W        W12158   8.230  12.664  13.315
43785W        W12159   0.822  41.360   3.374
43786W        W12160  27.012  29.623  10.967
43787W        W12161  10.259  41.314   2.902
43788W        W12162  43.348   1.915  14.993
43789W        W12163  17.723  12.352   4.223
43790W        W12164  38.415   4.937  10.459
43791W        W12165  40.372  26.144  11.022
43792W        W12166  16.191  44.916   1.715
43793W        W12167  43.290  41.820  11.973
43794W        W12168   9.857   3.314   2.821
43795W        W12169   1.346   9.370   1.225
43796W        W12170   1.446  37.839  14.294
43797W        W12171  23.649  25.610   4.764
43798W        W12172  24.984  36.957  10.937
43799W        W12173  32.902  34.951  12.574
43800W        W12174   4.706  38.358  14.892
43801W        W12175  13.622  22.197  10.991
43802W        W12176  34.588  36.874  14.767
43803W        W12177  14.314  41.914   2.344
43804W        W12178  32.074  16.594   4.711
43805W        W12179  25.561  26.980   0.433
43806W        W12180  23.610  29.970  14.852
43807W        W12181  18.176  31.492  10.552
43808W        W12182  38.071   6.744  13.423
43809W        W12183  14.768  28.178   3.694
43810W        W12184  38.431  38.434  14.887
43811W        W12185  11.765  26.632  10.926
43812W        W12186  29.512  42.316   4.274
43813W        W12187   5.385  24.624   5.210
43814W        W12188  27.042   1.947  14.494
43815W        W12189  13.196  42.814   4.291
43816W        W12190  24.094  28.053   0.851
43817W        W12191  12.243  16.147   3.850
43818W        W12192   5.747  37.006  11.057
43819W        W12193   3.919  25.636   4.314
43820W        W12194   8.327  21.640  10.565
43821W        W12195  43.331  40.852   3.857
43822W        W12196  36.438  24.200  13.001
43823W        W12197  27.487  39.378   3.741
43824W        W12198   4.225  36.927  12.948
43825W        W12199  26.038  29.625  11.895
43826W        W12200  28.099   6.736   2.368
43827W        W12201  32.938  24.489  14.366
43828W        W12202  44.495   7.385  10.629
43829W        W12203  19.105  28.099  10.917
43830W        W12204  33.094   1.909  14.841
43831W        W12205  42.896  33.125   0.244
43832W        W12206  18.589  19.599  13.378
43833W        W12207  39.014   9.183   3.264
43834W        W12208  18.595  15.179   0.282
43835W        W12209  12.621   8.404   2.888
43836W        W12210  44.393   3.938  14.420
43837W        W12211   3.880   1.354   4.816
43838W        W12212  34.107  21.127   4.698
43839W        W12213   7.857  43.492   2.854
43840W        W12214  39.547   0.435   4.128
43841W        W12215  19.102   8.693  10.918
43842W        W12216  17.704  15.279  14.793
43843W        W12217  41.532  13.643  13.439
43844W        W12218  25.570  23.147   3.372
43845W        W12219  13.839  21.722  14.960
43846W        W12220  29.615  18.721   4.159
43847W        W12221   8.715  43.283  13.445
43848W        W12222  35.436  31.618  14.769
43849W        W12223   0.833  22.144   0.767
43850W        W12224  21.177   4.776   2.768
43851W        W12225  19.098  41.307  13.308
43852W        W12226  44.382   7.189  14.919
43853W        W12227  41.382  30.986   4.634
43854W        W12228  44.926   0.766  13.837
43855W        W12229  34.038  40.817  11.596
43856W        W12230  16.667  43.423  14.376
43857W        W12231   9.789  18.149  13.499
43858W        W12232  43.282  13.675  10.506
43859W        W12233  12.675  12.333   4.818
43860W        W12234  30.563  24.207   1.760
43861W        W12235  16.641  22.679  12.996
43862W        W12236  32.066  41.331   0.887
43863W        W12237  35.595  31.410   1.701
43864W        W12238  24.013  30.541  11.388
43865W        W12239  29.002   9.309   4.637
43866W        W12240  16.610  27.515  11.611
43867W        W12241  14.635   1.425   3.296
43868W        W12242   8.678  16.808  11.545
43869W        W12243   1.845  29.981  12.955
43870W        W12244  15.230  33.939  11.466
43871W        W12245  14.665   4.254  10.957
43872W        W12246  41.038  41.515  14.993
43873W        W12247   0.833   4.436  12.024
43874W        W12248  22.214  34.946   0.474
43875W        W12249  39.817  14.657  11.518
43876W        W12250  31.440  42.467  10.426
43877W        W12251  30.049  22.235  11.955
43878W        W12252  18.265  21.250   2.718
43879W        W12253   7.289  42.382  11.497
43880W        W12254   9.835  34.408   3.742
43881W        W12255  41.038  12.611   4.268
43882W        W12256  33.042  28.960  13.475
43883W        W12257  31.111  10.373  12.956
43884W        W12258  11.337   2.342   3.218
43885W        W12259  14.791   6.334  10.108
43886W        W12260  37.053   1.867  11.383
43887W        W12261  18.663  19.286   1.747
43888W        W12262  27.471  12.224   0.932
43889W        W12263  17.598   3.300  12.490
43890W        W12264  12.732  20.197   2.791
43891W        W12265   1.409  11.212   0.736
43892W        W12266  11.312  26.635   2.365
43893W        W12267  43.385  36.467  10.432
43894W        W12268  39.954  10.208  10.608
43895W        W12269  30.965  11.645  14.347
43896W        W12270  17.216  22.997  11.988
43897W        W12271  24.484  18.205   9.922
43898W        W12272  20.555  18.631  10.536
43899W        W12273  20.179  41.928   3.634
43900W        W12274  13.626   7.712  11.382
43901W        W12275   6.803  44.968   2.833
43902W        W12276   8.794  33.460  12.070
43903W        W12277  36.510  42.011  12.073
43904W        W12278  25.593  32.628  13.452
43905W        W12279  30.084  21.568  11.885
43906W        W12280  33.401  37.482   0.804
43907W        W12281  13.134  44.858   4.629
43908W        W12282   7.171  25.969  10.609
43909W        W12283  44.986   5.814  11.871
43910W        W12284  33.033  11.846   1.332
43911W        W12285  13.182  32.507  12.571
43912W        W12286  29.932  35.035   2.902
43913W        W12287  32.033  34.087   3.639
43914W        W12288  13.119   6.339   1.856
43915W        W12289  23.554  32.630   5.623
43916W        W12290  36.386  31.574   4.189
43917W        W12291  24.187   4.812   1.443
43918W        W12292  33.422   9.767   2.665
43919W        W12293  12.123   2.302  10.913
43920W        W12294  32.392  36.864   1.867
43921W        W12295  12.144  44.983  14.910
43922W        W12296  43.813  12.141  12.028
43923W        W12297  18.594  26.081   2.288
43924W        W12298  34.902  15.766   3.827
43925W        W12299  22.016  24.656  14.881
43926W        W12300  25.617  17.077  13.871
43927W        W12301   1.734   1.972  12.937
43928W        W12302  44.447  27.633  13.500
43929W        W12303  17.100  30.126  11.017
43930W        W12304  21.736   8.861  12.888
43931W        W12305  40.498  40.441   4.163
43932W        W12306  34.435   7.415   4.353
43933W        W12307   2.445   3.882   1.423
43934W        W12308  31.410  20.572  11.483
43935W        W12309  12.288  22.645   2.417
43936W        W12310  38.494  16.675  12.935
43937W        W12311  20.637  42.968  11.913
43938W        W12312  35.071  17.621  13.529
43939W        W12313  30.982  27.074  12.556
43940W        W12314   4.256   1.407  12.053
43941W        W12315  39.023  32.077   2.809
43942W        W12316  21.753  30.954  12.085
43943W        W12317  33.617  31.506  10.074
43944W        W12318  10.235  28.586   3.800
43945W        W12319  33.473   2.364   0.462
43946W        W12320  33.543  23.736  12.430
43947W        W12321   8.892  33.533  13.504
43948W        W12322  23.181  31.483   2.839
43949W        W12323  40.897  38.945   2.760
43950W        W12324  33.079  34.508  14.825
43951W        W12325   1.263  23.045  13.947
43952W        W12326   9.222   1.943   2.864
43953W        W12327  15.202  36.087  11.938
43954W        W12328  37.509  21.172  14.300
43955W        W12329  39.929  27.585  14.370
43956W        W12330  13.293   3.360   1.380
43957W        W12331  18.115  39.426  13.036
43958W        W12332   8.781   0.281  13.474
43959W        W12333   9.151  15.816   4.621
43960W        W12334  20.533  27.041  14.439
43961W        W12335  42.490  35.861  14.930
43962W        W12336  10.770  27.566  11.913
43963W        W12337  33.056  27.556  12.423
43964W        W12338  29.545  33.411   3.832
43965W        W12339  43.953  14.786  14.464
43966W        W12340   5.878  20.071  14.453
43967W        W12341  33.411  41.835   0.851
43968W        W12342  36.361   5.297   1.447
43969W        W12343  40.422  23.546   0.445
43970W        W12344  21.221  36.945   0.766
43971W        W12345   6.244  29.043   1.325
43972W        W12346  32.948   0.771  14.409
43973W        W12347  11.268   2.907  14.396
43974W        W12348   4.216   5.792  14.909
43975W        W12349   8.343   6.689  14.413
43976W        W12350   2.790  29.452   4.601
43977W        W12351  12.145  29.669   0.335
43978W        W12352  31.910  32.443   2.232
43979W        W12353   3.232   8.361   2.856
43980W        W12354  42.429  42.775  12.413
43981W        W12355   4.884  27.951  11.036
43982W        W12356  14.288  24.711   1.292
43983W        W12357  19.042  30.152   3.270
43984W        W12358  36.062  12.761   1.809
43985W        W12359   9.743  36.441   4.715
43986W        W12360   8.897  20.643  11.495
43987W        W12361  22.525  18.565  14.493
43988W        W12362  36.942   5.282   3.194
43989W        W12363  14.678  41.475   5.192
43990W        W12364  44.953  22.651   3.758
43991W        W12365   4.209   1.913  14.905
43992W        W12366   0.845  39.514  12.937
43993W        W12367  27.644  42.355  14.478
43994W        W12368  27.029  13.709  13.528
43995W        W12369  41.885  36.947   4.181
43996W        W12370   4.760  41.810  10.526
43997W        W12371  37.560  42.280  12.401
43998W        W12372  10.255   5.301  10.631
43999W        W12373  30.538  38.957   4.177
44000W        W12374  22.999  21.673   4.745
44001W        W12375  21.574   0.479   2.761
44002W        W12376  21.520  11.234  12.895
44003W        W12377  24.519  13.814   0.760
44004W        W12378   8.316  28.123  11.046
44005W        W12379  38.036   6.768   0.454
44006W        W12380  34.912   2.377   3.301
44007W        W12381  35.508  24.601  13.508
44008W        W12382  27.654  23.645  12.965
44009W        W12383  19.557   4.864   2.270
44010W        W12384  39.996  41.946   0.827
44011W        W12385   8.788   4.407   1.218
44012W        W12386   3.720   7.225   1.816
44013W        W12387  39.532   7.850   4.678
44014W        W12388  39.457   9.722   1.808
44015W        W12389  41.819  27.172   4.256
44016W        W12390  14.201  31.146   2.799
44017W        W12391  24.528  44.284   1.829
44018W        W12392  10.161  34.876   3.661
44019W        W12393  30.125  13.818   4.185
44020W        W12394  10.302  44.496   0.841
44021W        W12395  29.952  29.635  11.084
44022W        W12396  13.203  25.652  11.039
44023W        W12397  12.247   9.702  14.758
44024W        W12398  24.508  24.154   1.241
44025W        W12399  36.593  32.016  14.969
44026W        W12400  26.071  10.245  12.024
44027W        W12401  27.157   2.815  11.551
44028W        W12402  33.538  17.169   5.295
44029W        W12403   3.852  27.948  12.021
44030W        W12404  20.618  33.386   3.191
44031W        W12405  33.556  23.626  13.862
44032W        W12406  37.071  26.602  12.908
44033W        W12407   1.410  25.632   4.838
44034W        W12408  37.963  21.028  11.572
44035W        W12409   0.787  12.857   2.244
44036W        W12410  38.936  30.081  11.909
44037W        W12411  26.639  42.888   4.760
44038W        W12412  16.721  17.257  14.306
44039W        W12413  24.160  15.152   1.281
44040W        W12414   4.293   3.723  14.873
44041W        W12415   9.274  36.451   3.863
44042W        W12416  43.271  39.014  13.452
44043W        W12417  35.394  24.198  10.644
44044W        W12418  22.162  31.466  10.452
44045W        W12419  10.303  43.511  10.995
44046W        W12420  32.131  13.277  13.404
44047W        W12421  17.675  11.371  11.535
44048W        W12422   5.403  18.660   2.385
44049W        W12423  12.665  36.559   4.642
44050W        W12424   1.315  33.500   2.676
44051W        W12425  10.876  29.135   4.160
44052W        W12426  28.995  32.128  14.476
44053W        W12427  44.313  15.727   0.356
44054W        W12428  10.153  29.531  11.468
44055W        W12429  10.178  28.438  12.564
44056W        W12430  17.742  41.369   0.266
44057W        W12431   4.764  24.691  14.783
44058W        W12432  21.612  20.621  10.527
44059W        W12433   1.950  31.605  10.969
44060W        W12434  26.667  20.528   2.187
44061W        W12435  30.646  31.432  13.992
44062W        W12436  39.422  14.779   0.419
44063W        W12437  35.598  21.533  11.890
44064W        W12438   5.689  35.873  12.917
44065W        W12439  36.898  40.857  13.002
44066W        W12440  13.622  44.278   1.810
44067W        W12441  39.525   9.351   0.885
44068W        W12442   4.778   1.878   1.266
44069W        W12443  13.116   6.838  10.454
44070W        W12444  18.571  41.926  10.951
44071W        W12445  44.316   2.757  10.633
44072W        W12446   1.360  33.952   0.752
44073W        W12447   9.209  26.607  10.983
44074W        W12448  38.040   6.320   2.299
44075W        W12449  13.701   7.223  13.942
44076W        W12450  38.838   2.885  12.910
44077W        W12451  26.045  39.375  12.844
44078W        W12452  39.472  25.205   1.382
44079W        W12453  15.677  26.963  12.375
44080W        W12454  27.455  16.583   2.843
44081W        W12455   1.891  13.829  14.305
44082W        W12456  13.631   8.700   0.753
44083W        W12457  11.788  43.358   2.284
44084W        W12458   0.805  13.171  12.560
44085W        W12459  27.949  18.729   4.607
44086W        W12460  15.681   9.367  11.900
44087W        W12461  33.445  29.032   2.684
44088W        W12462  22.654  39.862  14.338
44089W        W12463  12.327   8.896  12.425
44090W        W12464   0.805  25.218   3.782
44091W        W12465  15.265  11.269   0.785
44092W        W12466  30.059  19.654   2.245
44093W        W12467  36.871  28.444   1.880
44094W        W12468  43.862  25.483   4.755
44095W        W12469  38.485  38.508  14.021
44096W        W12470   3.717  23.165   4.262
44097W        W12471   0.983  41.296   0.849
44098W        W12472   7.265  32.587  11.560
44099W        W12473   2.892  34.060   4.642
44100W        W12474  17.766  44.379   4.808
44101W        W12475  44.944  35.945   0.316
44102W        W12476  35.947  30.071   2.234
44103W        W12477  12.652  15.140   3.286
44104W        W12478  35.864  20.113  13.371
44105W        W12479  24.134  33.959   2.860
44106W        W12480  11.701  41.920  13.000
44107W        W12481   5.933  28.522   3.360
44108W        W12482   6.888  37.045  11.996
44109W        W12483  20.156  31.471   0.386
44110W        W12484  12.323  15.238  14.844
44111W        W12485  17.111  21.621   0.920
44112W        W12486  26.206   3.945   4.675
44113W        W12487  24.079  44.344   3.293
44114W        W12488  11.184  14.606   2.276
44115W        W12489  26.027  33.621   4.291
44116W        W12490   5.347   2.935  11.463
44117W        W12491  37.025   1.878   2.197
44118W        W12492  34.484  42.808   2.707
44119W        W12493  28.654  27.449   1.769
44120W        W12494  17.128  23.006  13.510
44121W        W12495  14.161   6.719  12.489
44122W        W12496  44.006  41.797  11.503
44123W        W12497   2.450  28.074  12.468
44124W        W12498  24.010   5.735  11.895
44125W        W12499  19.570  23.622   1.760
44126W        W12500  35.911  17.693  14.930
44127W        W12501  11.158  34.564   0.268
44128W        W12502  39.952  13.617   0.413
44129W        W12503  43.839  17.283  14.006
44130W        W12504  32.050  34.370   0.250
44131W        W12505  29.120   0.248   0.847
44132W        W12506  12.200  14.222   2.309
44133W        W12507  22.220  24.690   2.247
44134W        W12508   3.218  10.810  13.004
44135W        W12509  12.293  19.658   2.187
44136W        W12510   7.845   3.817   5.280
44137W        W12511  15.207  30.640   0.801
44138W        W12512  43.956  20.167  13.973
44139W        W12513  27.196  44.996  12.550
44140W        W12514  16.782   6.884   1.266
44141W        W12515   1.847   0.796   3.651
44142W        W12516  37.950   0.493  10.538
44143W        W12517  29.555  19.073   3.865
44144W        W12518   9.225  24.140  14.981
44145W        W12519   0.263  41.996   2.185
44146W        W12520  17.744  18.656  13.396
44147W        W12521   5.428  30.436  14.984
44148W        W12522  39.335  28.501   2.872
44149W        W12523  34.379   9.817   2.873
44150W        W12524   7.336  10.353   0.392
44151W        W12525  20.067  30.438  12.552
44152W        W12526   8.399   5.933   1.322
44153W        W12527  26.516  41.815  11.384
44154W        W12528  29.642  39.909  11.565
44155W        W12529  27.502  16.206  12.434
44156W        W12530   1.775   9.354   4.612
44157W        W12531  34.551  39.409   3.779
44158W        W12532  34.612  30.007  11.035
44159W        W12533   3.226  40.459   2.894
44160W        W12534   2.952  26.570  10.018
44161W        W12535  25.167  44.334   2.679
44162W        W12536   9.834  33.925  12.991
44163W        W12537  35.509  27.075  14.368
44164W        W12538  25.670  11.189   0.316
44165W        W12539  13.310   4.289  11.111
44166W        W12540  38.532  21.099  14.886
44167W        W12541  19.727  19.591   0.771
44168W        W12542  17.696   5.865   2.764
44169W        W12543  28.106  40.396   0.743
44170W        W12544  26.972  12.222   3.261
44171W        W12545  43.516  36.875   0.803
44172W        W12546  27.165  33.478  13.419
44173W        W12547  11.274  11.371   2.223
44174W        W12548  33.040  20.609  14.348
44175W        W12549   1.291  31.140   1.827
44176W        W12550  16.744  16.590   2.777
44177W        W12551  26.110  30.044   2.190
44178W        W12552  33.044  22.683  14.827
44179W        W12553  18.213  22.071  11.123
44180W        W12554  11.852  42.902  11.926
44181W        W12555  14.814  16.103   0.910
44182W        W12556  41.975  24.716  12.084
44183W        W12557  21.117   8.319  12.522
44184W        W12558  39.032  39.400   0.460
44185W        W12559  32.527  39.829  13.993
44186W        W12560   4.920  28.999   2.366
44187W        W12561   9.887  34.452  13.318
44188W        W12562  31.964  36.041   1.873
44189W        W12563  23.117   0.281   4.139
44190W        W12564   9.792  14.630  12.406
44191W        W12565  16.138  35.580   0.739
44192W        W12566  10.799  36.895   3.633
44193W        W12567  14.158  35.063   4.764
44194W        W12568   4.738  22.098   1.263
44195W        W12569  34.961  21.256  14.914
44196W        W12570  18.740   7.813  12.036
44197W        W12571  25.001  18.200   1.439
44198W        W12572  39.879  44.364   3.202
44199W        W12573  30.555  19.717  14.954
44200W        W12574  19.704   5.241  13.468
44201W        W12575  18.557  31.953   4.728
44202W        W12576  11.303  11.346  10.589
44203W        W12577  29.918  39.884  10.938
44204W        W12578  42.429  11.650  12.893
44205W        W12579  41.016  10.726   4.305
44206W        W12580  42.962  42.793  13.866
44207W        W12581  30.471   0.950  14.935
44208W        W12582  20.117  22.650   0.470
44209W        W12583   9.339  25.039   5.144
44210W        W12584  31.058   0.390  10.948
44211W        W12585  36.516  39.411   3.320
44212W        W12586  28.157  31.483   3.806
44213W        W12587  30.151  31.498   4.218
44214W        W12588  36.586   1.942  13.008
44215W        W12589  23.716  31.516  13.925
44216W        W12590  11.347  24.574   1.800
44217W        W12591  20.688  15.757   0.282
44218W        W12592   5.796  18.126   1.438
44219W        W12593  34.880  40.372   1.276
44220W        W12594  34.438  14.244  14.490
44221W        W12595   6.196  27.584  13.385
44222W        W12596  35.067  10.163   1.927
44223W        W12597  31.537  10.335  12.889
44224W        W12598   2.361  41.497   3.307
44225W        W12599  30.035  25.008   1.382
44226W        W12600  43.416  11.284  13.970
44227W        W12601  21.107  31.095   4.238
44228W        W12602  25.107  35.976  13.442
44229W        W12603   0.914  33.569   3.640
44230W        W12604  37.464  42.017  12.422
44231W        W12605  35.568  13.697   3.247
44232W        W12606  17.635  44.304  12.871
44233W        W12607  35.435  21.100   3.218
44234W        W12608  32.080  38.436  10.643
44235W        W12609  14.283  31.512  13.367
44236W        W12610  35.433  41.303  13.012
44237W        W12611   0.857  17.757   1.822
44238W        W12612   1.253  35.105   2.775
44239W        W12613   1.456  13.222   3.833
44240W        W12614  22.632   0.884   1.710
44241W        W12615  19.152  24.596   0.466
44242W        W12616  14.593  43.830   3.847
44243W        W12617  29.000  36.054   2.676
44244W        W12618  30.017   0.375  14.774
44245W        W12619  29.667   9.743   2.367
44246W        W12620   6.285  32.450  11.549
44247W        W12621  27.562   6.713  12.893
44248W        W12622  22.513   2.432  14.900
44249W        W12623  32.944   4.864  13.791
44250W        W12624   8.291  25.995   0.457
44251W        W12625  14.760  38.350   4.134
44252W        W12626  38.413  25.618  13.327
44253W        W12627  41.371  23.493   3.289
44254W        W12628  40.356  25.105   5.119
44255W        W12629  32.916  11.752   2.398
44256W        W12630  23.147  43.859  13.487
44257W        W12631  42.330   7.889  13.522
44258W        W12632  22.611  18.243   0.267
44259W        W12633  32.042  18.561   4.779
44260W        W12634   2.950  19.120  12.478
44261W        W12635  32.445  18.779  12.580
44262W        W12636  42.359  31.617   1.430
44263W        W12637  11.832   9.853   4.181
44264W        W12638  27.466  44.338   5.082
44265W        W12639  41.788  13.250   0.843
44266W        W12640  22.057  14.830  11.085
44267W        W12641  38.064  38.351   3.807
44268W        W12642  14.272   9.767  12.083
44269W        W12643  19.757  37.403  12.503
44270W        W12644   2.778  32.543   1.373
44271W        W12645   7.305   2.906   1.726
44272W        W12646  27.536  12.245   1.895
44273W        W12647  37.384  31.407  13.453
44274W        W12648  38.494  18.667  13.836
44275W        W12649  21.040  30.630  14.826
44276W        W12650   8.744  29.004   0.932
44277W        W12651  33.090  40.396   3.667
44278W        W12652  32.532  27.557  11.387
44279W        W12653  18.603  31.090  12.453
44280W        W12654  43.306   3.385  11.373
44281W        W12655  33.942  13.197   3.328
44282W        W12656  14.808  34.919   4.299
44283W        W12657   4.216  40.038   1.438
44284W        W12658   8.388  24.055  14.921
44285W        W12659  16.616  11.201   4.283
44286W        W12660  23.171  39.045   5.104
44287W        W12661  23.616   4.352   2.337
44288W        W12662  14.696  15.732  12.860
44289W        W12663  30.480  34.937   1.406
44290W        W12664  11.345   1.415  14.313
44291W        W12665  10.634  19.568   4.774
44292W        W12666   3.287  31.997  13.857
44293W        W12667  42.014  39.897   3.722
44294W        W12668   2.851  16.188  11.486
44295W        W12669   6.233  36.457   0.296
44296W        W12670  33.105  15.782   1.218
44297W        W12671  31.481  18.700  14.997
44298W        W12672   0.356  37.404  12.064
44299W        W12673  32.536   2.233  12.428
44300W        W12674  34.926   2.736  14.815
44301W        W12675  14.250  15.585  12.843
44302W        W12676  43.341   7.381   5.188
44303W        W12677  20.249  30.103   2.238
44304W        W12678  43.875  12.701  13.816
44305W        W12679  37.884  23.178  11.952
44306W        W12680  31.944   8.174  10.894
44307W        W12681  12.784  41.958  10.496
44308W        W12682  30.028  12.826  13.510
44309W        W12683   4.748  25.964  12.483
44310W        W12684   8.789  26.662  13.041
44311W        W12685   5.295  35.515  14.988
44312W        W12686  23.544   7.270   1.727
44313W        W12687  18.614  39.387   1.338
44314W        W12688  33.399  30.074  13.488
44315W        W12689  30.455  38.342   2.701
44316W        W12690   3.450  10.805   2.676
44317W        W12691   6.708  15.126   4.126
44318W        W12692  29.112  32.616  10.613
44319W        W12693  14.682   3.710  14.348
44320W        W12694   0.780  39.484   1.445
44321W        W12695  24.639  33.584  13.844
44322W        W12696  15.206  23.041   1.415
44323W        W12697  24.085  11.317  13.318
44324W        W12698   7.358  32.127  14.323
44325W        W12699  22.629  35.592  12.545
44326W        W12700  11.694  27.639   0.260
44327W        W12701  33.883   8.333   2.186
44328W        W12702  36.482  43.477   2.782
44329W        W12703   0.766   0.461  14.422
44330W        W12704  33.434  10.140  10.128
44331W        W12705  28.619  10.369  14.771
44332W        W12706  15.142  39.481  10.616
44333W        W12707  34.041  17.188  13.338
44334W        W12708  13.340  15.788  10.424
44335W        W12709  27.083  39.911  10.997
44336W        W12710  26.135  20.635   4.343
44337W        W12711  16.084  37.878   0.422
44338W        W12712   6.191  39.969   0.345
44339W        W12713  14.703  29.111  14.368
44340W        W12714  19.642  39.844  13.526
44341W        W12715  18.696  22.676   2.359
44342W        W12716   3.365  14.776  12.052
44343W        W12717  19.133   5.785   4.827
44344W        W12718  24.535   0.481  12.356
44345W        W12719  11.796  27.195  10.952
44346W        W12720  12.250  31.058  14.999
44347W        W12721  28.997  10.717   2.284
44348W        W12722   0.985  40.327  12.564
44349W        W12723  42.322  20.665  11.119
44350W        W12724  12.622  44.939   3.819
44351W        W12725   2.442   9.876   4.658
44352W        W12726  14.218  20.146   4.736
44353W        W12727  19.560  43.942   3.345
44354W        W12728   5.226  41.859  14.407
44355W        W12729  42.876  13.800   3.218
44356W        W12730  34.891  14.727  12.486
44357W        W12731  33.931   7.846   2.321
44358W        W12732  23.146  31.992   0.783
44359W        W12733  38.871  39.841  13.001
44360W        W12734  37.561  33.030  11.005
44361W        W12735  16.189  13.780  12.945
44362W        W12736  10.688   6.687  11.975
44363W        W12737  26.620  16.255  10.961
44364W        W12738  24.162  30.572  13.548
44365W        W12739   5.388  10.799  12.496
44366W        W12740  29.118  41.358   2.372
44367W        W12741  19.109  30.101   3.692
44368W        W12742  32.044  37.944   0.884
44369W        W12743  38.979  32.888  14.317
44370W        W12744   0.469  37.935   3.822
44371W        W12745  34.912  21.649   1.835
44372W        W12746  37.532  16.096  14.990
44373W        W12747  35.442  10.206  14.342
44374W        W12748  12.797  35.917   3.290
44375W        W12749  20.115  33.121  11.494
44376W        W12750  42.354  29.584  10.960
44377W        W12751  16.210  13.347   2.897
44378W        W12752  38.018   2.268  10.892
44379W        W12753  27.606  41.851  11.034
44380W        W12754  43.829  20.720  11.514
44381W        W12755  33.573  27.001   3.299
44382W        W12756   4.701  42.350   1.292
44383W        W12757  15.309   1.311   2.739
44384W        W12758  42.455   0.773  13.968
44385W        W12759  14.651   2.960  12.971
44386W        W12760  35.921  35.937  14.366
44387W        W12761  14.238   7.797   5.200
44388W        W12762  28.650  28.062  14.934
44389W        W12763   1.855  21.221   2.356
44390W        W12764  11.129  31.056   1.282
44391W        W12765  25.020  32.445   2.187
44392W        W12766  38.036  32.082  14.468
44393W        W12767  17.693  42.935   3.272
44394W        W12768  43.891   4.888   0.401
44395W        W12769  41.298  26.679   4.648
44396W        W12770   1.779  15.275  14.449
44397W        W12771  30.053   7.181  11.505
44398W        W12772   3.770  12.150   1.875
44399W        W12773   0.333  34.888   2.740
44400W        W12774   2.376   5.409  12.023
44401W        W12775  42.296  16.638   0.313
44402W        W12776  24.008  35.868   4.184
44403W        W12777  13.156  16.208  14.889
44404W        W12778   8.278  19.110   1.280
44405W        W12779  20.056   4.807   2.764
44406W        W12780  16.316  27.979  12.346
44407W        W12781  16.224   0.423   3.275
44408W        W12782   7.197  19.225  12.061
44409W        W12783  34.463  17.748  11.434
44410W        W12784  17.220  38.958   3.230
44411W        W12785  38.058  13.143   4.286
44412W        W12786  10.751  42.405  13.802
44413W        W12787  35.033  18.163   4.687
44414W        W12788  24.163  32.453   2.841
44415W        W12789  19.544  13.156   0.905
44416W        W12790  13.339  16.260   4.237
44417W        W12791  36.553  44.364  13.969
44418W        W12792   4.768  26.546  12.873
44419W        W12793  18.735  11.843   9.958
44420W        W12794  33.612   4.439  14.466
44421W        W12795  34.407  14.203   3.788
44422W        W12796  35.055  37.552  12.558
44423W        W12797   5.255   5.245  12.952
44424W        W12798   5.422  10.770   1.398
44425W        W12799  42.371  20.738  13.986
44426W        W12800  35.067  42.789   2.868
44427W        W12801  13.843  16.310  11.588
44428W        W12802  18.695  10.360  13.048
44429W        W12803  44.813  21.259   4.319
44430W        W12804  14.181   1.451  12.389
44431W        W12805  10.282  24.526  14.798
44432W        W12806   5.751  23.002  12.875
44433W        W12807  22.532   7.852   4.240
44434W        W12808  38.557  37.019   2.305
44435W        W12809   7.690  22.082  11.423
44436W        W12810  32.127  30.524   3.680
44437W        W12811  32.085  36.469   3.160
44438W        W12812   6.340  17.728  11.419
44439W        W12813   4.807   7.869  12.941
44440W        W12814  26.077   4.378   4.274
44441W        W12815   9.214   4.408   3.729
44442W        W12816  16.223  33.913   4.616
44443W        W12817  33.975  20.719   4.153
44444W        W12818   2.905  31.900  10.502
44445W        W12819  39.396  23.545  13.370
44446W        W12820   4.238  34.055   4.667
44447W        W12821  25.622  16.079  11.421
44448W        W12822  13.205   7.689  11.388
44449W        W12823  21.098   1.468  11.960
44450W        W12824  15.755  29.053  14.337
44451W        W12825  25.984  22.219   3.281
44452W        W12826  39.811  18.650   1.755
44453W        W12827   0.969  24.102   1.875
44454W        W12828   9.763  27.662   2.885
44455W        W12829  27.970  26.133  10.898
44456W        W12830  24.149  37.983   2.209
44457W        W12831  35.503  20.083  13.427
44458W        W12832   5.296  29.598  14.825
44459W        W12833  24.662   4.895   3.273
44460W        W12834  39.430  22.207   0.922
44461W        W12835  32.511  36.586   4.353
44462W        W12836  40.931  14.211  12.512
44463W        W12837   4.943  40.914  11.442
44464W        W12838   2.457  29.080   4.145
44465W        W12839  37.535  44.442  11.039
44466W        W12840  26.474   5.235   1.697
44467W        W12841  23.540  19.655   2.301
44468W        W12842  17.079  16.722  11.053
44469W        W12843  18.675  26.044  13.054
44470W        W12844  23.097  15.273   5.198
44471W        W12845  44.763  32.417   4.823
44472W        W12846   3.911  39.444   4.826
44473W        W12847  41.789   3.890   2.806
44474W        W12848  42.835  27.486  14.766
44475W        W12849  39.498   0.477  14.479
44476W        W12850  36.525  42.404  10.588
44477W        W12851  37.375  27.111  10.918
44478W        W12852   2.907  35.947  10.924
44479W        W12853  17.215  37.877   4.707
44480W        W12854  26.620  39.987  11.919
44481W        W12855  17.786  28.046   4.292
44482W        W12856  16.215  11.780  14.306
44483W        W12857  21.261  12.311   0.907
44484W        W12858  44.986  20.177  14.290
44485W        W12859   5.905  24.194  12.075
44486W        W12860  36.047  32.956   0.344
44487W        W12861  12.761  25.170   2.417
44488W        W12862  22.605  13.133   2.267
44489W        W12863  34.396   9.776   2.208
44490W        W12864  31.073  44.892   3.253
44491W        W12865  39.029   7.209  11.051
44492W        W12866  40.989  43.847   4.663
44493W        W12867  35.013   8.270   0.267
44494W        W12868  14.147  39.937   3.786
44495W        W12869  13.616   8.745  12.568
44496W        W12870   9.355  33.595   0.362
44497W        W12871  41.985  19.214  13.353
44498W        W12872   7.767  12.777  13.339
44499W        W12873  11.257  31.002   0.456
44500W        W12874  10.382  19.090   4.760
44501W        W12875  23.085   0.886   2.402
44502W        W12876  39.387  35.861   2.884
44503W        W12877  12.655  23.587   1.796
44504W        W12878  25.513  12.701   4.261
44505W        W12879  33.491  13.692   2.864
44506W        W12880  31.080  42.380   4.150
44507W        W12881  37.930  14.669  14.010
44508W        W12882  25.571  38.509  11.443
44509W        W12883   8.208  41.932  13.538
44510W        W12884  17.741  12.808  11.017
44511W        W12885  15.723  23.519   9.924
44512W        W12886  31.585  23.241   3.297
44513W        W12887   6.377  26.008  10.461
44514W        W12888  16.252  22.608  11.128
44515W        W12889  13.728  42.512  11.125
44516W        W12890  32.633  35.005  13.835
44517W        W12891  17.231   4.931   5.177
44518W        W12892  17.131  22.625  14.968
44519W        W12893  40.017   0.963  11.587
44520W        W12894   8.369  16.249  12.967
44521W        W12895  36.903  30.113  12.951
44522W        W12896   3.293  25.483  14.987
44523W        W12897  43.780  31.609  10.940
44524W        W12898  33.981  31.601   2.782
44525W        W12899   6.898  36.046   2.877
44526W        W12900   7.869  19.769  11.566
44527W        W12901  28.647  10.291   2.204
44528W        W12902  26.594   0.429   4.264
44529W        W12903  16.119  26.696   2.693
44530W        W12904  10.636   7.390   4.140
44531W        W12905   2.916   3.235   0.362
44532W        W12906  44.800  10.343   3.701
44533W        W12907  11.826  29.985   1.223
44534W        W12908  39.906   1.361   0.322
44535W        W12909   1.393  10.148   2.795
44536W        W12910   9.812  13.296   4.209
44537W        W12911  17.262   6.405   3.834
44538W        W12912  13.739  39.971  11.586
44539W        W12913  39.820  28.495  14.400
44540W        W12914  33.551  34.050   4.625
44541W        W12915  41.936   2.346  14.384
44542W        W12916   7.870  17.234   2.679
44543W        W12917  28.613  25.101  11.865
44544W        W12918  36.969  38.026  11.517
44545W        W12919   7.321   9.698  12.937
44546W        W12920  34.535  34.890   4.715
44547W        W12921  31.152   8.743  10.064
44548W        W12922   9.833  42.790   0.259
44549W        W12923  42.471  29.469  13.818
44550W        W12924  18.155  39.004  14.949
44551W        W12925  38.958  37.520  11.989
44552W        W12926  23.187  11.249  10.521
44553W        W12927  37.991  39.383  11.424
44554W        W12928  36.945  27.457  10.967
44555W        W12929  10.360  23.027  12.031
44556W        W12930  13.720  12.668  12.384
44557W        W12931  29.573  24.048  11.483
44558W        W12932  10.269  32.400  12.999
44559W        W12933  25.714  25.198  14.913
44560W        W12934  40.477  40.815  13.336
44561W        W12935  24.228  43.349  11.020
44562W        W12936   5.879  35.359   3.697
44563W        W12937  35.496  32.941   1.897
44564W        W12938  37.576  33.962  14.476
44565W        W12939  21.627  37.546  11.895
44566W        W12940  10.328  11.314  13.792
44567W        W12941  30.468  15.598   4.186
44568W        W12942  41.412  18.749  14.982
44569W        W12943   5.882  20.582   1.270
44570W        W12944   6.388   9.723   3.761
44571W        W12945  23.623  36.566  12.936
44572W        W12946   0.934   5.819   3.641
44573W        W12947  44.438  44.423  12.863
44574W        W12948   3.798  32.407   0.290
44575W        W12949   2.853  40.375   3.855
44576W        W12950   6.749  15.181  12.439
44577W        W12951  27.157  11.628  13.435
44578W        W12952  12.702  44.326   4.773
44579W        W12953   8.763  28.487  14.938
44580W        W12954  42.942  21.557   3.652
44581W        W12955  31.125  42.346  10.641
44582W        W12956  35.932  33.443   1.859
44583W        W12957  30.024  16.568  10.404
44584W        W12958   4.699  42.500   0.896
44585W        W12959  10.221  33.497  12.351
44586W        W12960  34.400  19.093  13.003
44587W        W12961  40.455  30.101  13.489
44588W        W12962  29.062   2.873   0.256
44589W        W12963  12.153  10.380   2.362
44590W        W12964  27.530  17.668   2.809
44591W        W12965  27.686  39.412  14.903
44592W        W12966  34.886  25.507   0.939
44593W        W12967  19.628  13.315   2.375
44594W        W12968   1.349  42.831   0.952
44595W        W12969  28.627   2.945   0.408
44596W        W12970  35.917  25.197   0.426
44597W        W12971  37.941   1.816  13.315
44598W        W12972  16.656  17.157  14.886
44599W        W12973  41.969  32.613   0.880
44600W        W12974   6.378   9.389   1.425
44601W        W12975  44.501  11.262  10.495
44602W        W12976  28.554  30.153  12.433
44603W        W12977  42.343   4.287  14.442
44604W        W12978   3.953  29.104   1.876
44605W        W12979  32.108   9.220   4.170
44606W        W12980  13.805  36.552   0.363
44607W        W12981  28.616  38.995   1.285
44608W        W12982  13.129  26.027   0.799
44609W        W12983  21.676  11.172   2.723
44610W        W12984   4.387  19.090  14.812
44611W        W12985  42.513   0.882  13.515
44612W        W12986  39.462  39.497   2.663
44613W        W12987  39.832   1.797  13.831
44614W        W12988  38.561  22.200   2.297
44615W        W12989  15.629  18.705  14.454
44616W        W12990  24.127  40.840   1.335
44617W        W12991  15.189   3.815  11.408
44618W        W12992   9.864  20.087   5.635
44619W        W12993  27.955  36.532   2.260
44620W        W12994  31.593  44.381   2.251
44621W        W12995  21.666  11.827  12.914
44622W        W12996  37.006  32.525  11.910
44623W        W12997  39.864  33.952   4.604
44624W        W12998   1.396  13.807  10.986
44625W        W12999  11.318  39.018  13.847
44626W        W13000  40.804  39.409  12.010
44627W        W13001   6.788  34.107  13.524
44628W        W13002  42.922  26.019  10.996
44629W        W13003  24.208  40.365  14.769
44630W        W13004   4.916  32.482  12.879
44631W        W13005  39.055  33.436   4.143
44632W        W13006   6.232   0.329   9.922
44633W        W13007  10.644  40.535  11.085
44634W        W13008  25.568  35.587   4.335
44635W        W13009  21.717  19.123   1.794
44636W        W13010  26.010   1.898   4.725
44637W        W13011  43.929   7.859   4.623
44638W        W13012  42.405  19.537  10.599
44639W        W13013  41.512  10.878   1.932
44640W        W13014   5.289  29.565  11.126
44641W        W13015   3.435  30.055  13.349
44642W        W13016  39.015   3.317  10.437
44643W        W13017  35.022  17.200   9.982
44644W        W13018  24.149  35.945  12.902
44645W        W13019  14.337  24.213   3.359
44646W        W13020  27.157  27.982  14.918
44647W        W13021   2.840   6.802  12.889
44648W        W13022  14.285  36.920   0.304
44649W        W13023  14.683  38.530   1.353
44650W        W13024   3.764  21.103   1.823
44651W        W13025  44.401  35.993  11.546
44652W        W13026  24.620  40.335  12.946
44653W        W13027   4.433  42.868  14.821
44654W        W13028   3.855  26.059  14.850
44655W        W13029  34.407  10.285  12.041
44656W        W13030  27.651  39.869   4.344
44657W        W13031  44.874  40.425   4.678
44658W        W13032   1.800  44.831   0.824
44659W        W13033   8.174   8.325   3.693
44660W        W13034   9.721  30.474  11.995
44661W        W13035  44.981  38.386  14.321
44662W        W13036  17.723  12.281  12.401
44663W        W13037  10.193  19.780   0.333
44664W        W13038   7.395   5.712   0.422
44665W        W13039  13.765  25.100  13.891
44666W        W13040  30.153  30.421   2.312
44667W        W13041  11.846  18.089   0.475
44668W        W13042  30.595   4.770  10.628
44669W        W13043  12.305  39.935   0.747
44670W        W13044   5.816   3.797  11.564
44671W        W13045  24.068  40.030  14.903
44672W        W13046  34.510   1.316   0.739
44673W        W13047  15.809  11.231   3.696
44674W        W13048  44.801  38.984   0.387
44675W        W13049  40.318  27.172   3.635
44676W        W13050  43.859  19.259  12.481
44677W        W13051  42.391   0.369   0.332
44678W        W13052  33.446  23.127  11.078
44679W        W13053   0.964  41.313   4.772
44680W        W13054   0.420   0.376  14.983
44681W        W13055   2.345  42.016   0.762
44682W        W13056  27.164  20.534  11.912
44683W        W13057   9.153  42.522  11.500
44684W        W13058  29.166  28.598  14.954
44685W        W13059  34.405  21.685  11.089
44686W        W13060  43.471  10.749  10.925
44687W        W13061  42.891   6.682   0.951
44688W        W13062  43.011  18.779  10.956
44689W        W13063  30.929  29.490   2.281
44690W        W13064  22.197  15.800   3.839
44691W        W13065  42.921  37.545  13.037
44692W        W13066  11.731  36.418   2.294
44693W        W13067   7.273  39.922   2.334
44694W        W13068  19.736  31.019   1.884
44695W        W13069  20.741  11.624  11.472
44696W        W13070  17.079   6.744  11.051
44697W        W13071   9.689  39.375   0.327
44698W        W13072  18.072  21.190  12.962
44699W        W13073  34.050  40.893  12.466
44700W        W13074  26.008  29.655   3.343
44701W        W13075  38.907  22.031  12.886
44702W        W13076  19.606   0.365  13.319
44703W        W13077  40.940   9.325  10.908
44704W        W13078  42.434  13.106   3.852
44705W        W13079  12.272  12.191   2.362
44706W        W13080  40.303  43.286   2.859
44707W        W13081  22.226   6.319   2.382
44708W        W13082   4.390  33.874   0.830
44709W        W13083  17.666  10.743   4.715
44710W        W13084  33.905   2.866   2.399
44711W        W13085  36.938  30.447  10.577
44712W        W13086  38.985   2.463  14.362
44713W        W13087  39.332   0.475   3.161
44714W        W13088  24.174   4.699   4.727
44715W        W13089  31.036  11.728   2.864
44716W        W13090  38.400  43.392  10.908
44717W        W13091  31.903  36.347  12.395
44718W        W13092  33.074  28.113   4.341
44719W        W13093  39.469  17.280  10.986
44720W        W13094   0.824  31.516   0.313
44721W        W13095  22.599  43.479   3.158
44722W        W13096   7.888  16.192  11.445
44723W        W13097  23.587  25.503   1.429
44724W        W13098  17.125  41.434   3.757
44725W        W13099  18.686   2.899   2.335
44726W        W13100  28.484  23.045  12.579
44727W        W13101  29.113   8.726   0.244
44728W        W13102  14.166  10.274   2.893
44729W        W13103  13.775  21.157   2.207
44730W        W13104  25.508  30.559  13.850
44731W        W13105  32.891  36.873  14.884
44732W        W13106  30.118  40.323   0.427
44733W        W13107  32.474   0.985   2.721
44734W        W13108  37.361  31.589   9.992
44735W        W13109  25.014  21.638   2.720
44736W        W13110  21.197  43.917  11.124
44737W        W13111  39.878   2.937  14.808
44738W        W13112  20.676   8.732   0.802
44739W        W13113  43.859  36.461  13.848
44740W        W13114   6.834  11.217   3.735
44741W        W13115  23.207  15.738  10.939
44742W        W13116  43.966  16.291   2.834
44743W        W13117   3.807  22.206  11.517
44744W        W13118   5.402  37.062  13.809
44745W        W13119   1.785  23.025  11.495
44746W        W13120   9.760  42.372   3.270
44747W        W13121  34.117  31.417   4.658
44748W        W13122  12.121  39.824  14.990
44749W        W13123   1.760  41.409  12.340
44750W        W13124   5.932  34.573  10.625
44751W        W13125  43.377  17.142  14.856
44752W        W13126  18.579   8.387  11.581
44753W        W13127  30.516  33.500   0.869
44754W        W13128  13.808  25.053  10.534
44755W        W13129  37.464  27.657   3.715
44756W        W13130  27.063   7.888  14.449
44757W        W13131  31.133  23.065   2.893
44758W        W13132  14.683  20.615   2.858
44759W        W13133  39.361  27.623   4.667
44760W        W13134  34.484  34.427  10.596
44761W        W13135  44.760  14.760  11.108
44762W        W13136   5.908   4.270   3.152
44763W        W13137  40.883  32.106  11.396
44764W        W13138   2.416  24.508  13.426
44765W        W13139   5.236  37.474   0.300
44766W        W13140   8.826  39.411  14.840
44767W        W13141  22.634  11.816  14.422
44768W        W13142  44.293  43.776   4.784
44769W        W13143  41.040  28.439   3.824
44770W        W13144  36.491  40.334   3.308
44771W        W13145  11.304   3.783   3.850
44772W        W13146  32.586  16.218  11.449
44773W        W13147   3.226   8.778  11.070
44774W        W13148  43.350  16.594   3.311
44775W        W13149  31.072  36.064  10.411
44776W        W13150  36.055  38.017  12.407
44777W        W13151   9.687  26.148  12.899
44778W        W13152  19.204  43.904   0.784
44779W        W13153  18.057  22.158  10.587
44780W        W13154  25.146  34.100   1.703
44781W        W13155   8.701  17.705  12.433
44782W        W13156  32.134  22.732   0.319
44783W        W13157  19.605   1.849  10.529
44784W        W13158  27.158   6.207   4.157
44785W        W13159  35.063  26.095   1.284
44786W        W13160  32.110   2.728   3.823
44787W        W13161  17.213  40.429   4.134
44788W        W13162  19.741  35.454  10.903
44789W        W13163  29.971  25.188   4.647
44790W        W13164  43.977  35.416  13.403
44791W        W13165   7.359  14.665   2.687
44792W        W13166  20.669  30.044   0.784
44793W        W13167  26.025  26.550  14.960
44794W        W13168  44.497  25.506   4.662
44795W        W13169  35.934  44.966   3.724
44796W        W13170  28.983  27.652   3.739
44797W        W13171   0.959  31.900   3.762
44798W        W13172  32.030   2.280   2.357
44799W        W13173   5.233  42.494  14.984
44800W        W13174  44.404  43.882   0.830
44801W        W13175  44.921  35.486   1.341
44802W        W13176  32.061  31.992  13.405
44803W        W13177  34.997  27.195  12.426
44804W        W13178  26.500  10.143  12.459
44805W        W13179  34.876   8.311   1.757
44806W        W13180  37.477  40.547  12.941
44807W        W13181  35.882  25.615   2.740
44808W        W13182  23.218  26.015   2.398
44809W        W13183  28.549  37.912  14.336
44810W        W13184  15.216  26.640  13.393
44811W        W13185   4.371  35.919  10.921
44812W        W13186  24.705  27.582   3.694
44813W        W13187  40.835  15.740   2.358
44814W        W13188  34.426  37.043   2.283
44815W        W13189  12.809   9.345  14.796
44816W        W13190  25.116  34.584  11.911
44817W        W13191  40.490  26.567  11.873
44818W        W13192  32.055  23.222   0.927
44819W        W13193   4.233  23.543   0.754
44820W        W13194  41.499  33.609   5.205
44821W        W13195  12.644  41.446   2.851
44822W        W13196  20.254   1.880  13.391
44823W        W13197  27.600  36.547   1.216
44824W        W13198  43.965  39.339   4.800
44825W        W13199   2.462   3.796  14.433
44826W        W13200   3.753  21.043   0.250
44827W        W13201   6.359  44.925   2.787
44828W        W13202  10.234  44.490  12.884
44829W        W13203  21.746  18.554  14.028
44830W        W13204  20.171   2.373  12.930
44831W        W13205  34.378  14.779  13.424
44832W        W13206  29.949  32.613  11.884
44833W        W13207  34.580  16.811   2.857
44834W        W13208   5.710   7.676  11.968
44835W        W13209  19.540  41.825  12.363
44836W        W13210  24.986   5.326  14.426
44837W        W13211   7.219  40.851  14.943
44838W        W13212  33.441   5.403  14.325
44839W        W13213  20.558  23.131   0.736
44840W        W13214  20.622  44.420  13.394
44841W        W13215  12.741  21.582  13.521
44842W        W13216  42.423  41.027   4.293
44843W        W13217  37.005  17.628  13.542
44844W        W13218   1.274   7.841  13.979
44845W        W13219  29.983  20.225   1.855
44846W        W13220  15.807  43.895   0.764
44847W        W13221   2.237  36.465  14.792
44848W        W13222  17.575  13.271  12.078
44849W        W13223  43.775  43.467  11.875
44850W        W13224  11.791  15.724  10.102
44851W        W13225  15.650   6.195  14.763
44852W        W13226  41.943   2.239   1.309
44853W        W13227   7.841   9.872  14.379
44854W        W13228  23.220  23.735  12.352
44855W        W13229  19.742  39.815  10.506
44856W        W13230  43.324   8.763  11.453
44857W        W13231   1.255  31.604  14.816
44858W        W13232  20.090  10.249  13.820
44859W        W13233   8.875   3.297  12.050
44860W        W13234  35.916  19.123   2.356
44861W        W13235  38.334  34.373   1.436
44862W        W13236  10.182  37.516  14.290
44863W        W13237  42.844  17.176  14.332
44864W        W13238  12.294  17.592   2.732
44865W        W13239   6.285  44.794   0.812
44866W        W13240  26.695   2.911  10.594
44867W        W13241  42.018  31.448  11.441
44868W        W13242  23.990  15.112  10.891
44869W        W13243  34.880  43.801   1.415
44870W        W13244  24.102  42.926  12.439
44871W        W13245  43.468  22.685  13.838
44872W        W13246   7.868  13.841  13.987
44873W        W13247  38.849  38.047  13.054
44874W        W13248   5.804  15.612  13.978
44875W        W13249   0.373   8.214   1.389
44876W        W13250  39.432  22.638  11.116
44877W        W13251   0.988  38.340   2.672
44878W        W13252  32.470  23.703  10.506
44879W        W13253  21.159  34.588  14.928
44880W        W13254   6.915   4.906  11.921
44881W        W13255  29.083  26.083  14.295
44882W        W13256  17.288  14.640  11.594
44883W        W13257  26.037  13.749  11.888
44884W        W13258  35.049  11.631  13.955
44885W        W13259  30.013  14.257   3.343
44886W        W13260  36.917  34.893  13.391
44887W        W13261  40.370   4.347   3.289
44888W        W13262   4.914   4.870   0.923
44889W        W13263   9.389  26.548   2.243
44890W        W13264  21.735  44.792  10.584
44891W        W13265   3.290   4.263  12.553
44892W        W13266  19.061  39.488   4.301
44893W        W13267   1.304  16.699   2.860
44894W        W13268  34.370  42.903   3.709
44895W        W13269  33.090  21.728  12.487
44896W        W13270  24.218  34.467   0.861
44897W        W13271  18.133   6.277   3.354
44898W        W13272  31.967  27.508  12.033
44899W        W13273  23.548  23.147   4.833
44900W        W13274  20.184  43.959  12.407
44901W        W13275  10.830  43.494   4.319
44902W        W13276  38.983  37.483   1.888
44903W        W13277   7.843  29.132   1.330
44904W        W13278  44.379   9.790   3.635
44905W        W13279  30.908  42.437   0.398
44906W        W13280   3.722   6.288   2.205
44907W        W13281  42.455   1.828   0.266
44908W        W13282  22.629  27.169   1.739
44909W        W13283   4.402   2.733  12.829
44910W        W13284  35.540  12.176   2.790
44911W        W13285  29.963  38.962  12.418
44912W        W13286  26.185  43.278  12.494
44913W        W13287   2.780  21.212   1.848
44914W        W13288  39.909  33.926   1.368
44915W        W13289  40.311  18.602  13.365
44916W        W13290  14.208  42.957   3.687
44917W        W13291   7.721  34.539  11.034
44918W        W13292  44.363   5.752   1.917
44919W        W13293  28.175   0.428  11.540
44920W        W13294  12.777  27.034  13.996
44921W        W13295  15.617  25.996  10.428
44922W        W13296  33.875  25.587  11.377
44923W        W13297  30.636   2.903   4.814
44924W        W13298  41.790   9.323   2.800
44925W        W13299  27.500  42.321   3.831
44926W        W13300  30.574   8.166  12.902
44927W        W13301  27.674  12.659   4.215
44928W        W13302  21.741  44.824  13.846
44929W        W13303  14.185  41.361  10.475
44930W        W13304  38.358   3.281   3.149
44931W        W13305  38.486  39.403   2.201
44932W        W13306  43.885  11.794  10.954
44933W        W13307   0.931   2.253  11.916
44934W        W13308  12.171  17.671   4.324
44935W        W13309  21.136  38.049  12.353
44936W        W13310  20.269  33.906  13.898
44937W        W13311   4.296  26.013  10.997
44938W        W13312   3.430  28.179  11.881
44939W        W13313   1.766  11.294  14.954
44940W        W13314  39.853   6.280  14.934
44941W        W13315   5.437   2.898  13.807
44942W        W13316   0.842   5.799   4.830
44943W        W13317  16.678  22.156   4.603
44944W        W13318  25.564  35.440   2.751
44945W        W13319  10.798  10.800  14.302
44946W        W13320  25.656  40.421   2.719
44947W        W13321  22.544   6.770  11.870
44948W        W13322  20.253  36.035  11.936
44949W        W13323  36.041   1.844   2.387
44950W        W13324  35.932   9.846   2.387
44951W        W13325   7.899  44.933   0.261
44952W        W13326   7.683   8.363   1.258
44953W        W13327  37.545  31.496  10.546
44954W        W13328   5.197  37.997   0.250
44955W        W13329  44.266   3.274   2.318
44956W        W13330  18.544  20.211   2.327
44957W        W13331   5.699  18.050  12.550
44958W        W13332   4.929   2.750  12.526
44959W        W13333  10.270   5.915   4.175
44960W        W13334   6.193  20.095  13.933
44961W        W13335  42.028  19.594  12.842
44962W        W13336   2.838  20.695   0.327
44963W        W13337  30.910  32.516  11.417
44964W        W13338  15.701  37.883   4.790
44965W        W13339   5.417  14.277  10.486
44966W        W13340  22.180  41.825  13.889
44967W        W13341  40.383  41.491   0.479
44968W        W13342   9.865  41.375  14.804
44969W        W13343  24.101  38.401   3.744
44970W        W13344  44.386  41.015  11.882
44971W        W13345   5.438  17.782  10.455
44972W        W13346   4.908  18.767  13.003
44973W        W13347  32.565  10.302   2.232
44974W        W13348  28.103  32.113   1.397
44975W        W13349  13.754   8.806   3.202
44976W        W13350  37.860  28.648  14.024
44977W        W13351  29.476  29.442   0.833
44978W        W13352  42.785  38.488   1.783
44979W        W13353  27.445  25.968   2.666
44980W        W13354  40.398  37.990  11.069
44981W        W13355   1.481   7.765   2.319
44982W        W13356  29.982  18.791  10.636
44983W        W13357  23.076  34.920   4.156
44984W        W13358  21.757  30.455   2.797
44985W        W13359  17.225  24.556   1.765
44986W        W13360  34.468  33.903   4.697
44987W        W13361  26.030  15.619  11.417
44988W        W13362   9.166   7.718  10.489
44989W        W13363  10.250  26.141  13.996
44990W        W13364   4.372  25.612  10.405
44991W        W13365  43.317  13.792   4.189
44992W        W13366  41.384  22.617  12.945
44993W        W13367  29.025   9.819  11.566
44994W        W13368  35.909  22.608   1.369
44995W        W13369  14.748  10.227  11.376
44996W        W13370   4.933  16.197  14.340
44997W        W13371  24.153  31.046   0.865
44998W        W13372  30.933  35.096  12.943
44999W        W13373   5.309   5.797  12.469
45000W        W13374  44.898   1.847   0.794
45001W        W13375  12.131   2.301  11.577
45002W        W13376  20.686  34.485   3.196
45003W        W13377  20.654   0.395  13.458
45004W        W13378   3.843  43.379   3.227
45005W        W13379  38.338  44.331  14.848
45006W        W13380   8.356  36.545  10.495
45007W        W13381  31.462   3.369  11.923
45008W        W13382  20.239  26.525  13.017
45009W        W13383  31.425  10.793   3.252
45010W        W13384  29.145  15.197  11.958
45011W        W13385  30.427  43.766   1.301
45012W        W13386   1.885  33.462  11.872
45013W        W13387  33.951   6.236   2.763
45014W        W13388  43.457  37.949  14.933
45015W        W13389  11.310  24.591  13.015
45016W        W13390  44.272   9.719  12.361
45017W        W13391  23.994   4.827  12.095
45018W        W13392  38.508   5.377   3.197
45019W        W13393  13.709  27.946   3.782
45020W        W13394  17.585  13.767   0.951
45021W        W13395  25.092  21.550  10.966
45022W        W13396   3.337  16.772   4.787
45023W        W13397  31.632  28.520   4.282
45024W        W13398  23.716   7.893  11.034
45025W        W13399  22.244   7.689  14.850
45026W        W13400  26.530  35.975   1.438
45027W        W13401  32.429  10.242  14.926
45028W        W13402  32.983  43.950  12.559
45029W        W13403  30.075  38.865  12.938
45030W        W13404  29.561  44.783   5.715
45031W        W13405  23.652  30.620  11.560
45032W        W13406  22.619  36.484  12.909
45033W        W13407   3.284  32.952  12.899
45034W        W13408   4.763  11.136  12.497
45035W        W13409  44.995   1.809  12.019
45036W        W13410  12.263   8.767  13.866
45037W        W13411  33.478   1.826  10.480
45038W        W13412   4.799  30.150   1.253
45039W        W13413  40.305  23.995   4.276
45040W        W13414  31.014  38.850   4.640
45041W        W13415  44.480  27.449  10.926
45042W        W13416   3.362   8.288   3.368
45043W        W13417  22.604  23.657  13.800
45044W        W13418   0.842  23.604  13.438
45045W        W13419   4.932   8.173   0.847
45046W        W13420  41.380  34.524  12.487
45047W        W13421  23.673   2.964  11.097
45048W        W13422  40.497  43.021  14.845
45049W        W13423  10.322  36.050  11.409
45050W        W13424  15.708  44.955   4.261
45051W        W13425  37.515  43.404  11.569
45052W        W13426  29.454  31.626   2.378
45053W        W13427  22.704  16.741  13.877
45054W        W13428  19.167  30.960  13.006
45055W        W13429  11.849  44.431  11.550
45056W        W13430   1.841  19.598   2.704
45057W        W13431  23.157  10.211   3.795
45058W        W13432  15.207  18.582   2.271
45059W        W13433   6.237  13.729  11.963
45060W        W13434  43.005  13.658   0.950
45061W        W13435  24.994  12.801  10.966
45062W        W13436   0.297   9.379  12.947
45063W        W13437  15.785  40.818  11.940
45064W        W13438  40.031  42.522  12.466
45065W        W13439  28.983  13.804  13.049
45066W        W13440  29.485   4.945  12.574
45067W        W13441  20.201  23.085  10.408
45068W        W13442   4.813  24.656   9.454
45069W        W13443  37.503  29.066  10.611
45070W        W13444  28.530  37.521  13.977
45071W        W13445   7.312  12.360  10.586
45072W        W13446  27.980  40.844  13.456
45073W        W13447  34.472  42.364  11.466
45074W        W13448  34.464  32.537  14.431
45075W        W13449  20.125  40.418   1.767
45076W        W13450   5.209   8.179  14.836
45077W        W13451   2.842  20.037  13.845
45078W        W13452   0.455  34.553  12.387
45079W        W13453  15.722  28.130  13.459
45080W        W13454  31.448  20.102   3.659
45081W        W13455   3.810  16.208   4.337
45082W        W13456  42.473  19.053  14.859
45083W        W13457  16.691  15.109  10.436
45084W        W13458  20.075  31.083  14.839
45085W        W13459  40.894   5.342   2.740
45086W        W13460  44.838   1.263   1.387
45087W        W13461  31.071  35.012   3.803
45088W        W13462  21.514  43.454  14.372
45089W        W13463  38.531  34.549  14.813
45090W        W13464  14.830  29.951  13.513
45091W        W13465  31.147  34.073  14.013
45092W        W13466  16.638   2.410  12.859
45093W        W13467  20.072  21.569  12.911
45094W        W13468  25.675  41.898   4.603
45095W        W13469  36.997  41.522   0.349
45096W        W13470  41.533   5.819   1.318
45097W        W13471  11.842   0.267  14.313
45098W        W13472  10.340  10.223   2.808
45099W        W13473  39.851  14.101  10.988
45100W        W13474   4.864   7.692  11.972
45101W        W13475  40.420  17.624  13.892
45102W        W13476   2.732  15.747  11.527
45103W        W13477  21.143  10.254  14.349
45104W        W13478   1.759  37.069   3.154
45105W        W13479  36.056  38.046   2.400
45106W        W13480  35.966  37.062   3.744
45107W        W13481  31.451  13.138   3.238
45108W        W13482  32.506  36.358  13.813
45109W        W13483  25.562   7.171   4.744
45110W        W13484   7.403  40.549   1.272
45111W        W13485  18.653  24.037  14.354
45112W        W13486  24.225   6.321   2.305
45113W        W13487  14.715  39.377   1.375
45114W        W13488  39.862  18.056   4.152
45115W        W13489  31.604   1.400  13.520
45116W        W13490  32.950  24.209   2.749
45117W        W13491  26.511  44.274   0.324
45118W        W13492  42.028   5.326   0.872
45119W        W13493  23.123   4.898  10.601
45120W        W13494  11.340  36.465  13.954
45121W        W13495  14.133  35.983   4.826
45122W        W13496  29.951   1.860   0.435
45123W        W13497   8.368  15.766   4.302
45124W        W13498  31.634  31.512   2.265
45125W        W13499  17.150  29.059   0.335
45126W        W13500  35.404  22.103   2.291
45127W        W13501  15.805   1.438  14.785
45128W        W13502  37.908  40.863  13.918
45129W        W13503  39.860   8.880   5.788
45130W        W13504  16.670  19.683   1.211
45131W        W13505  30.034   0.931   1.813
45132W        W13506  10.726  23.093  11.090
45133W        W13507  30.454  34.561   3.811
45134W        W13508   0.345   8.817  10.521
45135W        W13509  35.964   2.325  13.316
45136W        W13510  25.148  26.537   3.364
45137W        W13511   4.902   0.415  13.387
45138W        W13512  30.053  13.815  10.911
45139W        W13513  23.083   9.717  10.943
45140W        W13514  11.162  37.054  10.984
45141W        W13515   1.962   6.713   3.329
45142W        W13516  41.018  23.147   4.792
45143W        W13517   7.368  24.005  10.901
45144W        W13518  16.170  36.586   2.324
45145W        W13519  15.823  26.077  14.889
45146W        W13520  21.051  26.557  13.035
45147W        W13521   5.234  26.152   0.843
45148W        W13522  41.023  37.443   4.804
45149W        W13523   2.253  15.673   1.295
45150W        W13524   7.274  13.257   2.804
45151W        W13525  37.014  25.121  11.397
45152W        W13526  28.668  38.337   3.168
45153W        W13527  26.547   7.831   1.320
45154W        W13528  33.980  34.103   3.318
45155W        W13529  37.870   0.467   2.392
45156W        W13530  41.917  20.643   0.925
45157W        W13531  43.369  32.008   9.969
45158W        W13532   7.375   4.379  11.413
45159W        W13533  16.566  25.143   4.625
45160W        W13534  11.357  33.557   3.343
45161W        W13535  18.758  39.417   3.361
45162W        W13536  40.364  33.451  11.109
45163W        W13537  41.943  28.955   3.345
45164W        W13538  38.482  21.189   1.247
45165W        W13539  36.996   6.797  11.105
45166W        W13540   8.763  18.740   0.890
45167W        W13541  20.054  26.629   1.738
45168W        W13542  22.170   3.221   3.700
45169W        W13543   6.678   6.297  13.389
45170W        W13544  27.670  42.471   1.253
45171W        W13545  24.038  19.193  10.898
45172W        W13546  13.669  30.457  13.505
45173W        W13547  31.122  44.869   3.679
45174W        W13548  21.583  40.335   1.876
45175W        W13549  43.429  18.551   1.888
45176W        W13550  23.063  13.276  14.301
45177W        W13551   0.286  21.163  10.567
45178W        W13552   1.384  36.430   0.284
45179W        W13553  41.389  21.526   1.210
45180W        W13554  21.704   8.789  12.082
45181W        W13555  25.522   4.236   1.255
45182W        W13556  15.587   9.869   2.213
45183W        W13557  44.896  34.870  11.605
45184W        W13558   5.351   5.299   2.713
45185W        W13559  22.668  25.157  10.099
45186W        W13560  38.374  40.827  11.059
45187W        W13561  42.809  14.169  14.306
45188W        W13562  40.416   7.743   1.716
45189W        W13563  36.362   5.799  11.402
45190W        W13564  38.864   9.149   0.785
45191W        W13565   1.243  25.196   3.748
45192W        W13566  40.425  32.966   4.230
45193W        W13567  32.392  23.558   0.729
45194W        W13568  22.155   0.254  11.452
45195W        W13569   8.398  36.019  11.539
45196W        W13570  19.755  43.870  10.498
45197W        W13571  23.512  31.504   5.278
45198W        W13572  22.742  44.332  11.376
45199W        W13573  29.984  38.431  14.781
45200W        W13574  12.696   6.840  13.334
45201W        W13575  21.689  40.484  12.986
45202W        W13576  22.617   0.300  12.847
45203W        W13577  23.137  44.784   3.816
45204W        W13578  25.613   9.829  14.876
45205W        W13579  10.243  11.780  14.463
45206W        W13580  21.253   6.199   2.685
45207W        W13581  35.493  28.602  12.498
45208W        W13582  43.987  28.520   4.749
45209W        W13583   5.351  31.905   2.851
45210W        W13584   4.844   0.493  14.876
45211W        W13585  25.497  25.597  10.629
45212W        W13586  18.634  12.263   1.759
45213W        W13587  27.630   7.327  10.976
45214W        W13588  41.884  32.936   4.123
45215W        W13589   4.414  40.505   4.262
45216W        W13590   6.258  40.837   1.857
45217W        W13591  30.093  19.594   1.402
45218W        W13592  27.181  41.819   2.798
45219W        W13593   6.337  44.990  12.365
45220W        W13594  39.503  18.664   0.477
45221W        W13595  35.105  25.511   2.270
45222W        W13596  34.425  29.110   2.836
45223W        W13597  32.523  36.077  14.888
45224W        W13598  23.131  25.217  14.916
45225W        W13599  19.261  10.182  12.089
45226W        W13600  44.388  36.402   3.747
45227W        W13601  41.908  34.906  12.914
45228W        W13602  36.378  32.911   4.298
45229W        W13603  14.677  29.012  11.560
45230W        W13604  33.011  43.902   0.754
45231W        W13605  33.061  29.471   2.883
45232W        W13606  14.277   1.478   4.672
45233W        W13607  34.899  41.842   4.166
45234W        W13608  26.196  43.283   5.632
45235W        W13609  12.146   0.897  10.536
45236W        W13610  32.521  32.115   3.843
45237W        W13611   6.268  26.627  14.803
45238W        W13612  32.029  40.854   2.280
45239W        W13613  42.845   5.715  11.514
45240W        W13614  17.658   7.413  12.454
45241W        W13615  44.958  16.173   0.362
45242W        W13616   6.334  14.754  14.370
45243W        W13617  21.198   5.806  14.514
45244W        W13618  12.242  39.462  13.469
45245W        W13619  13.746   6.310   3.197
45246W        W13620  11.802  21.736  11.456
45247W        W13621  19.589   1.767  13.932
45248W        W13622  35.572  41.425   3.849
45249W        W13623   7.766  28.940   0.363
45250W        W13624   8.239   9.773  11.467
45251W        W13625  23.669  28.003  13.949
45252W        W13626   2.876  14.600  14.016
45253W        W13627   8.206  11.178   4.832
45254W        W13628  30.432  10.357   3.339
45255W        W13629  27.019  29.979   1.879
45256W        W13630  24.975  26.185   3.765
45257W        W13631  28.462   4.738   3.671
45258W        W13632   2.789  28.661   1.362
45259W        W13633   5.217   6.909  14.372
45260W        W13634  18.567  13.725   2.206
45261W        W13635  37.901  25.557  14.476
45262W        W13636  12.724  14.833  13.917
45263W        W13637  35.068  14.305   4.755
45264W        W13638  19.179   6.834  14.885
45265W        W13639  22.655  26.499  13.499
45266W        W13640  38.402  35.543  13.972
45267W        W13641  37.369   7.898   2.868
45268W        W13642   0.896  20.709  14.954
45269W        W13643   1.822  23.593   2.753
45270W        W13644  33.480  10.701   1.418
45271W        W13645  13.111  31.501  11.074
45272W        W13646  10.681  15.303  13.045
45273W        W13647   9.383  26.115   4.189
45274W        W13648  42.995  17.089   0.477
45275W        W13649   1.949  41.911  14.775
45276W        W13650  29.047  12.763  13.909
45277W        W13651   7.885  21.556   0.349
45278W        W13652  15.659   7.837  12.008
45279W        W13653  32.582  25.108  14.964
45280W        W13654   8.785  39.390   2.365
45281W        W13655  37.440  35.584  11.896
45282W        W13656  40.998  27.493  14.945
45283W        W13657  28.993  29.463  13.360
45284W        W13658  22.537  14.615  12.403
45285W        W13659   3.728  10.844   4.726
45286W        W13660  39.495   1.241  12.944
45287W        W13661  28.638  16.609   3.220
45288W        W13662  18.240  36.391   3.267
45289W        W13663  37.046  28.457   0.884
45290W        W13664  34.950   7.218   4.601
45291W        W13665  33.622  38.883  10.523
45292W        W13666  19.275   7.337  11.982
45293W        W13667  10.865  34.910   4.774
45294W        W13668  30.150   8.272   4.751
45295W        W13669  14.726  26.658  14.836
45296W        W13670  19.645  32.559   2.360
45297W        W13671  13.646   2.439   4.803
45298W        W13672  11.666  11.222   2.806
45299W        W13673  28.933  11.822   0.848
45300W        W13674  29.450  13.143  13.310
45301W        W13675  15.236  23.533   4.780
45302W        W13676  25.473  10.144  13.532
45303W        W13677  35.025  16.262   0.442
45304W        W13678  14.647  39.052  14.816
45305W        W13679  38.530  24.665   0.398
45306W        W13680  30.981  20.035  14.979
45307W        W13681   7.762  31.003  13.320
45308W        W13682  31.030  44.845  10.489
45309W        W13683  16.308  32.906   0.355
45310W        W13684  27.185   4.845   1.245
45311W        W13685  29.935  30.466  14.971
45312W        W13686  14.775  25.569   1.336
45313W        W13687  34.384  29.933   0.438
45314W        W13688  34.002   4.798  11.897
45315W        W13689   6.344  16.276  10.587
45316W        W13690  25.470  23.169   0.344
45317W        W13691  12.678  14.298  12.062
45318W        W13692  26.022  37.354   5.261
45319W        W13693  39.445   4.931   3.353
45320W        W13694  38.542  26.073  11.003
45321W        W13695   2.357  35.458   3.349
45322W        W13696  14.202   0.436  13.467
45323W        W13697  32.446   6.323   4.179
45324W        W13698  37.840  20.553  13.486
45325W        W13699  39.041  35.967   4.616
45326W        W13700  34.379   1.802   4.757
45327W        W13701  42.828   8.351   0.390
45328W        W13702  30.940  20.689  14.820
45329W        W13703  40.010  24.517  14.407
45330W        W13704  30.554  19.284  11.577
45331W        W13705  14.189  24.592   2.301
45332W        W13706  33.906  39.382   2.241
45333W        W13707  38.903  17.227  13.523
45334W        W13708  26.077   6.742  14.434
45335W        W13709  22.644   4.440  12.385
45336W        W13710   1.878   3.932   2.335
45337W        W13711  14.236   7.327   2.763
45338W        W13712  38.910  39.883   1.352
45339W        W13713   4.925  12.775   9.965
45340W        W13714   2.394   5.899   2.821
45341W        W13715  35.401  19.764  12.372
45342W        W13716   2.371  38.542  12.826
45343W        W13717  12.191  34.887   0.362
45344W        W13718  14.163   2.371  11.934
45345W        W13719  15.641  30.562   1.401
45346W        W13720  21.125  31.959   2.876
45347W        W13721  30.077   1.879  10.900
45348W        W13722  26.575  39.996   3.845
45349W        W13723  44.450  18.075   4.630
45350W        W13724  18.607  35.441   2.738
45351W        W13725   4.348   8.713  10.956
45352W        W13726  42.834   3.951   0.920
45353W        W13727  41.800  18.690   1.830
45354W        W13728  35.008   0.409   4.334
45355W        W13729  33.454  26.473  14.934
45356W        W13730  39.537  36.454   0.346
45357W        W13731  37.949  44.811   3.364
45358W        W13732  40.883  35.886   0.404
45359W        W13733  16.723   9.781   1.276
45360W        W13734   2.749  10.827  12.505
45361W        W13735  33.602  26.082   3.804
45362W        W13736   1.763  21.655   2.739
45363W        W13737  44.467   9.647   4.619
45364W        W13738  30.454  30.593  14.865
45365W        W13739  24.508  37.433  11.084
45366W        W13740  34.376  27.944  11.937
45367W        W13741  10.656  44.279   2.747
45368W        W13742  44.279  39.979  12.489
45369W        W13743  12.135  25.184   3.752
45370W        W13744  42.891  28.979   4.637
45371W        W13745  34.514  26.022  11.103
45372W        W13746  25.576  38.463  14.286
45373W        W13747  41.917  39.360  12.577
45374W        W13748  12.746   4.796   1.805
45375W        W13749   5.737  37.915  11.028
45376W        W13750  26.101  16.740   1.842
45377W        W13751  10.675  12.152  12.092
45378W        W13752   9.331  35.044  11.395
45379W        W13753  29.132  26.011  14.981
45380W        W13754  29.567  39.335  14.799
45381W        W13755  14.226  19.542  14.799
45382W        W13756  23.151   5.789   3.163
45383W        W13757  24.589   5.705   3.245
45384W        W13758   7.714  27.188   1.871
45385W        W13759  15.719  13.303   2.230
45386W        W13760  33.040  19.779   0.733
45387W        W13761   0.486  15.815   3.345
45388W        W13762  29.600  25.470  12.574
45389W        W13763  11.654   2.809   1.820
45390W        W13764  25.666  40.408  10.486
45391W        W13765   2.801  18.233  14.000
45392W        W13766   9.303  10.351   4.743
45393W        W13767  15.624  20.190  10.469
45394W        W13768  10.250   6.750   1.367
45395W        W13769  42.333  44.769   4.305
45396W        W13770  18.765  24.710   3.672
45397W        W13771  32.602   1.379  12.861
45398W        W13772  31.100  15.277  11.029
45399W        W13773  16.772   6.215  12.365
45400W        W13774  34.474   7.207  10.941
45401W        W13775   7.277   5.319   4.829
45402W        W13776  41.491  22.587   3.704
45403W        W13777  16.569  39.920  14.993
45404W        W13778  40.800  44.344   0.887
45405W        W13779  27.685   1.784   4.261
45406W        W13780  40.503  27.638   1.430
45407W        W13781   2.284  15.148  12.872
45408W        W13782  13.826  41.041  11.877
45409W        W13783  37.553   3.910   2.758
45410W        W13784  26.515  21.022   4.286
45411W        W13785  35.855  12.334   0.777
45412W        W13786  33.600  34.395   3.299
45413W        W13787  30.449  18.071   0.929
45414W        W13788  13.806  35.099   4.208
45415W        W13789  27.564  29.001  11.518
45416W        W13790  15.270  33.973   3.816
45417W        W13791  33.512  14.802   0.897
45418W        W13792  34.897   8.788   1.844
45419W        W13793  30.951  20.034   2.329
45420W        W13794  43.923   2.745   3.192
45421W        W13795  20.114  41.007  14.783
45422W        W13796  29.961  43.919  11.606
45423W        W13797   0.399  27.678   2.277
45424W        W13798   2.321   8.749   2.410
45425W        W13799  15.126  39.004   3.215
45426W        W13800   7.873  16.605  11.956
45427W        W13801  22.010   7.864  11.025
45428W        W13802  44.861  35.570  10.944
45429W        W13803   7.888  23.499   4.668
45430W        W13804  28.084   0.973  12.927
45431W        W13805  21.757   5.724  11.999
45432W        W13806   2.409   4.342  12.491
45433W        W13807  23.566  32.055   0.799
45434W        W13808  44.755  10.790  11.380
45435W        W13809  33.915   1.972  12.927
45436W        W13810   3.245  11.781  10.898
45437W        W13811  13.196  12.691  10.626
45438W        W13812  40.469  35.408   2.774
45439W        W13813  17.064  22.672  13.485
45440W        W13814  29.645   7.335   3.291
45441W        W13815  24.227   4.808  14.472
45442W        W13816   0.392  28.154  14.423
45443W        W13817  11.664  27.616  14.510
45444W        W13818   2.367  23.703   1.246
45445W        W13819   3.449  36.456  10.485
45446W        W13820   5.721  40.347   0.948
45447W        W13821  27.177  24.043  12.859
45448W        W13822   1.763  44.482   1.332
45449W        W13823  19.130  13.315  11.582
45450W        W13824  35.391  36.549  12.992
45451W        W13825  44.283  22.069  14.783
45452W        W13826   4.312  25.682  14.375
45453W        W13827  34.946  32.021   4.179
45454W        W13828  16.264  35.581   2.720
45455W        W13829  11.190  17.217   2.698
45456W        W13830  31.494  28.549   1.420
45457W        W13831  42.834  41.024   4.186
45458W        W13832  33.504  35.381  14.446
45459W        W13833  22.609  18.572   4.241
45460W        W13834  20.692  34.957   4.168
45461W        W13835  21.636  29.662  14.012
45462W        W13836   2.946  12.735  12.046
45463W        W13837  37.046  27.607   4.323
45464W        W13838   0.782  31.105  13.839
45465W        W13839  40.946  28.055   2.284
45466W        W13840  30.151  21.088   4.764
45467W        W13841  21.630  16.099  13.950
45468W        W13842  43.305  42.465   3.718
45469W        W13843  42.382  22.160  11.412
45470W        W13844  19.159  37.348  14.345
45471W        W13845  22.235  44.810   2.318
45472W        W13846  28.019  17.261   4.716
45473W        W13847   0.316   9.727   2.686
45474W        W13848  13.624  27.014   1.727
45475W        W13849  43.885   1.448   4.670
45476W        W13850  43.862  43.415   2.323
45477W        W13851  30.143   9.361   0.250
45478W        W13852  24.552  15.607  12.937
45479W        W13853  25.504  19.270  11.967
45480W        W13854  18.091  21.539   2.336
45481W        W13855   3.348   3.887   2.404
45482W        W13856  10.655   6.701  11.502
45483W        W13857  21.220   7.337  11.562
45484W        W13858  27.174   6.420   0.367
45485W        W13859   8.294  14.693  10.607
45486W        W13860  29.068  25.063  12.555
45487W        W13861   1.747  38.916  13.049
45488W        W13862  19.557  19.714   4.266
45489W        W13863  23.008   6.714  11.878
45490W        W13864  20.699  41.496  12.574
45491W        W13865  37.537  43.513  13.449
45492W        W13866   8.317  15.310   4.218
45493W        W13867  36.979  30.164  10.608
45494W        W13868  35.874  11.143  12.911
45495W        W13869  12.659  43.914  10.531
45496W        W13870  15.693  29.165   0.850
45497W        W13871   0.774  20.658  10.930
45498W        W13872  15.216  20.263   0.778
45499W        W13873  10.833   7.888  12.571
45500W        W13874  43.918  15.200  14.987
45501W        W13875  41.394  10.171  14.862
45502W        W13876  35.872  31.536   3.637
45503W        W13877  29.162  24.058  14.287
45504W        W13878  19.744  29.089   2.817
45505W        W13879   6.427  41.973  14.490
45506W        W13880  17.747  20.188  13.405
45507W        W13881   0.743  33.512   5.105
45508W        W13882  27.668  41.340   4.746
45509W        W13883   6.779  25.689   4.138
45510W        W13884   7.910  42.281  12.866
45511W        W13885   6.221  15.103  10.550
45512W        W13886  42.951  40.954  10.943
45513W        W13887  32.598  22.582  12.558
45514W        W13888  29.472  27.003   1.370
45515W        W13889   1.782  24.154  10.577
45516W        W13890  11.190  41.325  12.399
45517W        W13891  42.399  19.712   4.599
45518W        W13892  33.004  38.522  13.476
45519W        W13893   6.240  21.523  12.938
45520W        W13894   3.955  35.880  11.382
45521W        W13895  30.980  35.067  10.531
45522W        W13896  29.137   9.328  12.931
45523W        W13897  25.511  27.686  10.999
45524W        W13898  15.715  28.550  12.852
45525W        W13899  10.763  35.959  14.477
45526W        W13900  30.023  19.120   4.793
45527W        W13901  17.747  34.433   3.337
45528W        W13902  13.724  34.069  11.043
45529W        W13903  11.825  42.995  10.141
45530W        W13904   7.764  27.038  14.779
45531W        W13905  24.518  11.862   0.961
45532W        W13906  16.758  24.002  13.456
45533W        W13907  23.534  14.592  10.571
45534W        W13908  10.714  16.643  12.443
45535W        W13909  13.710  40.327  10.427
45536W        W13910  34.484  37.581   4.232
45537W        W13911  12.197  44.004  11.495
45538W        W13912  14.174  17.662  10.592
45539W        W13913  15.627  25.174  10.037
45540W        W13914  13.741  41.492   2.741
45541W        W13915  42.820  16.731   4.301
45542W        W13916  35.589  33.410   2.809
45543W        W13917   4.842   5.821  10.430
45544W        W13918  41.868   6.295   0.764
45545W        W13919  11.305  44.272   3.705
45546W        W13920   0.429   9.188   0.919
45547W        W13921  41.941  44.338   0.422
45548W        W13922  28.994  11.353  14.492
45549W        W13923  44.964  24.138   3.638
45550W        W13924  41.005  42.818  11.920
45551W        W13925  34.600  35.918  14.970
45552W        W13926  18.769   4.936   4.821
45553W        W13927  19.640   3.824  12.553
45554W        W13928  29.051  10.765   4.207
45555W        W13929  15.777  29.619   3.189
45556W        W13930   5.721   5.778  13.062
45557W        W13931   5.257  14.173  13.433
45558W        W13932  44.966  30.917   0.410
45559W        W13933  19.721  11.726  14.884
45560W        W13934  17.768   7.259  10.601
45561W        W13935  30.585   4.438  13.931
45562W        W13936  10.803  36.018   1.849
45563W        W13937  41.811   8.271  11.375
45564W        W13938  28.578  30.521  14.362
45565W        W13939  10.313  36.543  12.496
45566W        W13940  25.179  26.098   2.888
45567W        W13941  25.090  42.957  13.495
45568W        W13942   0.915  43.813  13.352
45569W        W13943   6.806  20.059  12.997
45570W        W13944  39.343  23.608   2.826
45571W        W13945  21.098  15.313   0.355
45572W        W13946  34.953  25.713   3.258
45573W        W13947  23.495  44.461   0.806
45574W        W13948  37.406   2.417   3.173
45575W        W13949  24.633   3.363  12.390
45576W        W13950   9.369  42.369  14.407
45577W        W13951  35.853   4.228  13.997
45578W        W13952  30.550  29.163  12.447
45579W        W13953  36.843  25.010  14.386
45580W        W13954  43.506  16.583  11.479
45581W        W13955   9.226  15.103   1.741
45582W        W13956  25.584  11.799   2.213
45583W        W13957  34.111  14.131  14.017
45584W        W13958   0.934  40.546   0.945
45585W        W13959  32.632  30.956  11.994
45586W        W13960  39.906  12.164   2.229
45587W        W13961  28.631  36.911  12.830
45588W        W13962  31.908  15.760  12.999
45589W        W13963  24.707   2.287  14.954
45590W        W13964  27.474  42.873   0.909
45591W        W13965  23.009  39.028  10.557
45592W        W13966  27.582   7.287  12.012
45593W        W13967  22.735  37.066  10.905
45594W        W13968   4.711   7.905  14.983
45595W        W13969  44.402  22.126  11.940
45596W        W13970  25.975  27.178  12.355
45597W        W13971  36.931  22.158  13.863
45598W        W13972   4.350   9.679  13.911
45599W        W13973  35.107  16.192  13.543
45600W        W13974  13.617   0.978   3.153
45601W        W13975  10.776  27.156   3.694
45602W        W13976  23.636  24.204  13.894
45603W        W13977   9.770  35.097  14.514
45604W        W13978  17.079  39.455   0.848
45605W        W13979  13.117  26.126   4.333
45606W        W13980   7.701   7.310   1.421
45607W        W13981  27.987  33.414   1.396
45608W        W13982  40.543  13.632  11.910
45609W        W13983  16.672  17.608  10.558
45610W        W13984  16.742  21.035  10.988
45611W        W13985  33.396   4.278  13.467
45612W        W13986   9.780   0.756   1.263
45613W        W13987  34.903  18.147  14.771
45614W        W13988  27.141  22.131   0.822
45615W        W13989  12.205  41.810   2.677
45616W        W13990   1.458  13.115  14.016
45617W        W13991  19.778  38.530   3.352
45618W        W13992  29.000  12.803   1.309
45619W        W13993   3.897  10.806  11.502
45620W        W13994   4.359  42.825   1.358
45621W        W13995  30.608   4.335  14.461
45622W        W13996  37.484  16.572  11.989
45623W        W13997   2.337  14.223   1.317
45624W        W13998  40.545  32.577  12.980
45625W        W13999  19.610   9.702   1.373
45626W        W14000  36.382   9.368   5.789
45627W        W14001  30.035   7.676  11.607
45628W        W14002   5.314  25.129  14.969
45629W        W14003  32.001  12.845   4.819
45630W        W14004  32.110   2.388  13.379
45631W        W14005  21.683  10.658  14.852
45632W        W14006  43.863   2.842   4.706
45633W        W14007  33.041  36.899   4.620
45634W        W14008   0.945   9.826   3.204
45635W        W14009   5.741  13.689   2.668
45636W        W14010  14.729  12.175  12.508
45637W        W14011   9.767  22.169   4.129
45638W        W14012  38.913  30.598  10.103
45639W        W14013  19.607   7.828   0.768
45640W        W14014  23.057  18.146   2.357
45641W        W14015  20.536   3.846  14.921
45642W        W14016  43.804   1.817  12.874
45643W        W14017   3.416  29.627  11.480
45644W        W14018  19.183   7.303   4.329
45645W        W14019  29.445  35.908  14.957
45646W        W14020  30.987  30.495   4.613
45647W        W14021  40.371  44.993  11.438
45648W        W14022  20.104  37.908   2.882
45649W        W14023  31.940  16.180   1.805
45650W        W14024   6.920  32.122  14.319
45651W        W14025  20.609  22.138  13.326
45652W        W14026  40.355  24.156  14.929
45653W        W14027   5.242   2.845   0.889
45654W        W14028  28.600  37.474   1.332
45655W        W14029  12.685  12.808  12.564
45656W        W14030  38.877  26.126  14.951
45657W        W14031  12.220  13.782   4.626
45658W        W14032   9.885  37.336   1.315
45659W        W14033   9.782  18.789  14.798
45660W        W14034   3.760  20.740  13.026
45661W        W14035  20.177  35.867   0.465
45662W        W14036   1.467  21.089  12.086
45663W        W14037  39.462   3.715  14.490
45664W        W14038  10.155  12.758  12.918
45665W        W14039  40.006  37.940  13.469
45666W        W14040  38.548  33.900  11.869
45667W        W14041  40.853  17.717   4.312
45668W        W14042   1.792  25.485  13.921
45669W        W14043   3.248  16.582  14.378
45670W        W14044  20.124   2.408  10.422
45671W        W14045  10.281  15.199   1.252
45672W        W14046   0.303  19.670   0.242
45673W        W14047  32.423   1.844  12.359
45674W        W14048  11.865  14.742   2.719
45675W        W14049   9.278  11.762   0.371
45676W        W14050   3.301  41.845   0.277
45677W        W14051  22.583   2.303   2.304
45678W        W14052   5.894  22.038  13.431
45679W        W14053  38.944  18.752   5.283
45680W        W14054  39.045  37.965  13.992
45681W        W14055  25.633  41.328  12.569
45682W        W14056  14.744  22.245  11.465
45683W        W14057  27.652  23.492  12.423
45684W        W14058  24.582  29.534   3.752
45685W        W14059   4.267   0.744  13.995
45686W        W14060  26.695  39.483   3.775
45687W        W14061  22.592  32.015   4.743
45688W        W14062   1.259  20.540   4.209
45689W        W14063  38.963  34.556   4.619
45690W        W14064   8.804  24.573  13.942
45691W        W14065   4.760  31.085   3.700
45692W        W14066  21.145  28.957   1.864
45693W        W14067   4.728  19.136   1.820
45694W        W14068  22.595  11.808  12.352
45695W        W14069  37.831  32.111  10.603
45696W        W14070  39.425   7.833   2.391
45697W        W14071  27.105  12.833  12.055
45698W        W14072   6.390  11.669  14.430
45699W        W14073  20.684  10.205  14.374
45700W        W14074  17.130  38.849   4.826
45701W        W14075  37.053  10.637   1.317
45702W        W14076  18.558  42.780  11.451
45703W        W14077   5.704  18.097  14.957
45704W        W14078  14.693   7.200   4.775
45705W        W14079  12.213  37.908  13.498
45706W        W14080  32.019  33.012   2.763
45707W        W14081  36.085  40.899  12.489
45708W        W14082  22.627  22.116   0.354
45709W        W14083  39.354  26.988  10.934
45710W        W14084   2.426  34.946  14.426
45711W        W14085  30.645  40.483   3.647
45712W        W14086  26.952  42.794   0.854
45713W        W14087  33.498  17.271  14.382
45714W        W14088  26.527  18.076  10.408
45715W        W14089  26.567  42.939   5.199
45716W        W14090  35.482  16.760   0.965
45717W        W14091  38.555   8.228  11.872
45718W        W14092  38.439  30.517  12.466
45719W        W14093  17.286  25.709  13.803
45720W        W14094  35.400  39.427  13.000
45721W        W14095  15.705  43.504  11.448
45722W        W14096  15.753  33.527   3.150
45723W        W14097  42.863  27.964  14.857
45724W        W14098  17.227  36.473  10.538
45725W        W14099  24.506  19.196   0.880
45726W        W14100  15.679  44.838   4.797
45727W        W14101  29.119  18.609  10.509
45728W        W14102   7.835  15.819  11.513
45729W        W14103  12.780  13.619  11.948
45730W        W14104  44.453   6.255   3.373
45731W        W14105  22.023   9.302  12.427
45732W        W14106   3.347  35.861   3.747
45733W        W14107   9.269  36.522   2.780
45734W        W14108  15.314   3.337  11.565
45735W        W14109  25.500  43.965  12.366
45736W        W14110  11.234   5.370  14.015
45737W        W14111  16.581  24.186   3.192
45738W        W14112  15.744  14.163  13.980
45739W        W14113  33.912  39.837   4.146
45740W        W14114   2.383  41.474  11.890
45741W        W14115   7.266   7.335  11.003
45742W        W14116  26.611   3.834  11.522
45743W        W14117  31.051  17.556  11.955
45744W        W14118  40.845  38.501   3.165
45745W        W14119  19.636  10.265  14.372
45746W        W14120  31.579   1.370   2.869
45747W        W14121  41.514  34.892  11.408
45748W        W14122  29.937  42.340   0.821
45749W        W14123   3.952   7.320  14.343
45750W        W14124  23.072  29.029   9.552
45751W        W14125  23.147   3.219  14.779
45752W        W14126  31.611  10.364   3.299
45753W        W14127  22.095  23.142   1.449
45754W        W14128   9.760   8.710  14.450
45755W        W14129   9.683  17.297   3.205
45756W        W14130  42.961  35.050  13.471
45757W        W14131  25.202  42.977   2.268
45758W        W14132  35.564   8.196   2.790
45759W        W14133  14.205  39.896   2.200
45760W        W14134  15.604  19.104   4.818
45761W        W14135  15.589  17.746  13.831
45762W        W14136   2.775  11.268  11.602
45763W        W14137   4.777   2.740   4.183
45764W        W14138   3.336  41.819  11.891
45765W        W14139   9.718  18.763  14.484
45766W        W14140  11.808  29.596  14.927
45767W        W14141  19.071   1.445   2.409
45768W        W14142  38.566   9.672   3.688
45769W        W14143  36.857  41.516  10.496
45770W        W14144  27.108   2.226   3.305
45771W        W14145  18.082  20.664  14.383
45772W        W14146   2.404  22.123   2.273
45773W        W14147   7.308  31.584   0.822
45774W        W14148   5.227  26.138  14.896
45775W        W14149   8.863   1.319   1.276
45776W        W14150  44.275  10.635   0.328
45777W        W14151  43.281  38.442  13.418
45778W        W14152  25.999  22.052  13.523
45779W        W14153  25.132  25.560  12.960
45780W        W14154  42.484   1.749  12.436
45781W        W14155  17.738  37.881  11.978
45782W        W14156  17.568  35.541   3.184
45783W        W14157   7.839  29.493   4.202
45784W        W14158  44.406  23.514  14.487
45785W        W14159  27.593  20.720  10.431
45786W        W14160  34.057   0.375   0.462
45787W        W14161  19.592  40.539  11.551
45788W        W14162  29.079  38.459   4.772
45789W        W14163   2.953  10.680  10.555
45790W        W14164  25.004  20.534  11.415
45791W        W14165  29.003   7.844  12.497
45792W        W14166  27.008  35.598  11.930
45793W        W14167  22.575   0.450   4.129
45794W        W14168   1.816  31.544   3.752
45795W        W14169  43.397  37.356   1.779
45796W        W14170  21.202  32.051   3.168
45797W        W14171  21.731  26.100   2.300
45798W        W14172  12.168   4.934   2.702
45799W        W14173   0.272   7.812  13.809
45800W        W14174  41.018  16.268  14.944
45801W        W14175  15.681  31.435   3.636
45802W        W14176  31.940  15.237  14.389
45803W        W14177   6.357  30.964   3.357
45804W        W14178  37.376  32.105   4.835
45805W        W14179  15.304  12.640  11.511
45806W        W14180  10.804  26.558   0.400
45807W        W14181  20.148  38.892   1.796
45808W        W14182  23.066   1.308  11.441
45809W        W14183   7.908  40.402   0.339
45810W        W14184  14.661  29.961   1.448
45811W        W14185   7.305   9.329  10.909
45812W        W14186  11.829  33.457   9.928
45813W        W14187  22.010   4.762   3.830
45814W        W14188   5.390  16.659  13.980
45815W        W14189  36.024  33.884  12.436
45816W        W14190  38.893  20.738  14.982
45817W        W14191  18.602  44.773   2.305
45818W        W14192  19.268  28.644  11.451
45819W        W14193  33.405  11.835   0.821
45820W        W14194  10.348  34.882  11.573
45821W        W14195   4.238   8.254  13.409
45822W        W14196   0.265  22.219  12.060
45823W        W14197  34.456  12.207  11.397
45824W        W14198  11.250  25.622   0.852
45825W        W14199  16.160   9.379   0.269
45826W        W14200  29.941  23.001  11.584
45827W        W14201   5.873  26.527   0.316
45828W        W14202  21.570  40.838   3.708
45829W        W14203  30.996  18.655   2.808
45830W        W14204  33.026  14.161  13.793
45831W        W14205  26.129  17.130  12.952
45832W        W14206  36.956  19.150   1.930
45833W        W14207  25.110   0.406  13.041
45834W        W14208  32.137  22.056   3.307
45835W        W14209  27.635  34.091  11.490
45836W        W14210   9.794  10.181   0.831
45837W        W14211   9.813  27.984  13.506
45838W        W14212   6.680  18.209   3.797
45839W        W14213  38.950   4.351   0.320
45840W        W14214  20.729  30.993   4.152
45841W        W14215  37.369  22.645  12.083
45842W        W14216  12.204  13.603  14.948
45843W        W14217  31.603  34.967   2.807
45844W        W14218  21.066  40.517   3.248
45845W        W14219  18.268   0.362  12.959
45846W        W14220  14.288  25.641  11.106
45847W        W14221  21.236  18.757   1.908
45848W        W14222  19.145  17.650   4.350
45849W        W14223  33.003   8.781   5.215
45850W        W14224   1.277  13.307  12.429
45851W        W14225  37.955  28.583  12.391
45852W        W14226  15.824  39.455   2.395
45853W        W14227  22.515   6.401  10.467
45854W        W14228  10.249   8.750   0.346
45855W        W14229  21.684   2.406   2.899
45856W        W14230  40.939  13.150   3.749
45857W        W14231  30.590  17.660   4.323
45858W        W14232  25.202  43.018   4.136
45859W        W14233   8.205  37.937  13.032
45860W        W14234   9.767  22.146   2.761
45861W        W14235  36.538  35.447   0.333
45862W        W14236   0.264  18.142   1.922
45863W        W14237  10.225  38.991   4.300
45864W        W14238  39.010  28.044   2.851
45865W        W14239  38.522  22.603   3.267
45866W        W14240   4.229  22.711   1.855
45867W        W14241   3.822  17.773   2.746
45868W        W14242  23.682  26.085  14.833
45869W        W14243  24.501  44.306   0.768
45870W        W14244  26.572  35.051   3.665
45871W        W14245  32.439  34.447   1.338
45872W        W14246  24.574  18.155   9.470
45873W        W14247  38.952  39.983   2.788
45874W        W14248  25.590  36.587   4.170
45875W        W14249  15.117  30.140  10.535
45876W        W14250  11.334   5.730   0.392
45877W        W14251  15.284  34.534  12.998
45878W        W14252  27.977   1.380   4.784
45879W        W14253  43.902   2.356   2.788
45880W        W14254   9.220  18.068  13.473
45881W        W14255  40.891  14.797  14.827
45882W        W14256   5.861   1.282  12.845
45883W        W14257  23.153   4.757   4.158
45884W        W14258   3.911  42.869   4.756
45885W        W14259  16.725  42.025  12.475
45886W        W14260  26.495   8.245  13.866
45887W        W14261  22.621   6.857  10.431
45888W        W14262  12.335   3.411   3.730
45889W        W14263  21.534   8.365  12.064
45890W        W14264   2.882  11.815  12.385
45891W        W14265  44.916  17.689   4.138
45892W        W14266   1.794   1.283   0.852
45893W        W14267  33.967  19.196   0.953
45894W        W14268  24.167  34.422   0.426
45895W        W14269  27.456  21.561  11.445
45896W        W14270  10.723   3.336   4.722
45897W        W14271   6.361  35.023  13.938
45898W        W14272  12.247  16.261   1.851
45899W        W14273  23.122  20.154   1.785
45900W        W14274  34.011   7.844   1.784
45901W        W14275  21.737  27.960   0.286
45902W        W14276  26.488  22.561  11.958
45903W        W14277   6.344  25.141  14.941
45904W        W14278  24.598  25.039   0.921
45905W        W14279  29.101  14.811   2.882
45906W        W14280  33.099  16.714   4.174
45907W        W14281  10.198  15.697  12.521
45908W        W14282   4.207  19.256  14.380
45909W        W14283  40.421  35.029  12.971
45910W        W14284  29.432  32.946   0.312
45911W        W14285  15.639  21.259  11.586
45912W        W14286  10.743  22.712   3.202
45913W        W14287  17.122  22.090  11.972
45914W        W14288  10.230  15.775  14.918
45915W        W14289  32.452   7.855   3.174
45916W        W14290  19.548  15.254   3.855
45917W        W14291   9.673  33.529   0.431
45918W        W14292   9.740  15.184  11.101
45919W        W14293   7.757   3.269  13.320
45920W        W14294   7.705   4.837   3.286
45921W        W14295  17.793  19.160   2.231
45922W        W14296  18.157   6.233   4.793
45923W        W14297  39.895   2.383   1.214
45924W        W14298  30.012  28.628  12.901
45925W        W14299   2.752   8.254  13.820
45926W        W14300  21.170  42.447  11.437
45927W        W14301  18.690   5.733   4.288
45928W        W14302  18.708   1.432  11.401
45929W        W14303   6.804  12.188  14.933
45930W        W14304   5.725   4.417   2.361
45931W        W14305  10.710   1.825  12.975
45932W        W14306  15.727   9.235   3.696
45933W        W14307  15.105  34.966  11.870
45934W        W14308  22.551  40.485   5.094
45935W        W14309  22.211  27.674  12.542
45936W        W14310  35.100  24.635  13.437
45937W        W14311  41.384  37.540   0.348
45938W        W14312   4.846  31.936  12.471
45939W        W14313   5.399  28.986   3.768
45940W        W14314   7.901   2.313  12.482
45941W        W14315   0.894  34.407  11.933
45942W        W14316   3.927  41.955   4.311
45943W        W14317  13.227  34.945  11.935
45944W        W14318  12.654   4.255  10.515
45945W        W14319  17.286  38.952  13.026
45946W        W14320  37.359  28.975  10.913
45947W        W14321  28.184  16.085   0.912
45948W        W14322  41.468  29.083   4.191
45949W        W14323  33.545   1.740  11.889
45950W        W14324  36.539  39.407   0.794
45951W        W14325  10.277  11.183  11.010
45952W        W14326   2.255  28.009   0.284
45953W        W14327  30.641  23.719  13.903
45954W        W14328  10.724  26.080   3.856
45955W        W14329  22.138   8.287   0.940
45956W        W14330  30.019  21.688   0.904
45957W        W14331  17.733  28.539   4.279
45958W        W14332  16.135   1.483  13.320
45959W        W14333  10.870  40.900   4.616
45960W        W14334  35.365  18.591   2.199
45961W        W14335  11.865  31.408  11.065
45962W        W14336  36.373  16.156   3.798
45963W        W14337   8.229  32.508  12.506
45964W        W14338  20.032   6.184  14.487
45965W        W14339  25.551  12.787  14.288
45966W        W14340  36.849  35.440   1.262
45967W        W14341  36.525   1.390  10.506
45968W        W14342  17.634  14.205  13.420
45969W        W14343  20.217  13.110  14.423
45970W        W14344  27.013  31.089   4.736
45971W        W14345  20.567  20.114   4.205
45972W        W14346   1.806  36.979   2.772
45973W        W14347  40.985  31.525  10.558
45974W        W14348  13.786   0.899   1.226
45975W        W14349  26.019   3.434  10.526
45976W        W14350  16.090  28.055   1.901
45977W        W14351  28.513  26.605   4.792
45978W        W14352  21.538   1.853  10.560
45979W        W14353  26.608  27.553   0.743
45980W        W14354  44.760   8.675  12.996
45981W        W14355  14.141  36.586   2.310
45982W        W14356  32.968  18.198   1.893
45983W        W14357  43.926  39.058  11.895
45984W        W14358  32.034  31.602   3.687
45985W        W14359   7.781  21.156   9.963
45986W        W14360  26.018  37.851  14.376
45987W        W14361  31.072  35.971  12.493
45988W        W14362   0.454  43.451   3.811
45989W        W14363  21.219   1.425   2.705
45990W        W14364  38.840  11.186   0.262
45991W        W14365  40.869   8.701  14.908
45992W        W14366  26.604  32.038  14.334
45993W        W14367  31.536  41.306   3.272
45994W        W14368  25.214  43.801   4.180
45995W        W14369   9.239   0.294  14.016
45996W        W14370  11.669   0.893  12.884
45997W        W14371  20.552  16.128  10.470
45998W        W14372  13.721  42.812  12.826
45999W        W14373  15.215  40.031   3.174
46000W        W14374   7.781   3.318  12.559
46001W        W14375  33.415  38.820  10.939
46002W        W14376  19.584  37.934  10.433
46003W        W14377  22.197  14.273  13.872
46004W        W14378  15.809  31.052   0.951
46005W        W14379  43.796  20.546  10.891
46006W        W14380  35.993  12.317  14.837
46007W        W14381  43.999  28.046   0.441
46008W        W14382  13.183   4.868   3.291
46009W        W14383  17.270   9.676   2.691
46010W        W14384  37.352  33.099  13.899
46011W        W14385   6.742  27.559  14.851
46012W        W14386  35.069   8.900   3.824
46013W        W14387  10.839  21.601   1.216
46014W        W14388  19.165   7.837  13.855
46015W        W14389  36.940  18.546  10.515
46016W        W14390  40.399  19.193   0.889
46017W        W14391   3.445  39.829  14.392
46018W        W14392  34.064  10.735   1.238
46019W        W14393  12.358  32.126  13.049
46020W        W14394  40.461  15.100   0.316
46021W        W14395  37.871  39.843   4.693
46022W        W14396  15.734   0.822   1.925
46023W        W14397  19.602  20.560   0.876
46024W        W14398  24.051  41.365  10.456
46025W        W14399  30.017  44.819   3.734
46026W        W14400  44.354  20.581   4.221
46027W        W14401  44.496  20.183  14.794
46028W        W14402  24.215  26.093  14.512
46029W        W14403  37.925  44.290   1.336
46030W        W14404  40.045   1.423   4.314
46031W        W14405  21.742   8.172   4.260
46032W        W14406  16.810  32.614   4.813
46033W        W14407   2.382  23.166  11.059
46034W        W14408  44.913   9.156   3.364
46035W        W14409  39.975  41.018   2.415
46036W        W14410   7.329  12.333  13.378
46037W        W14411   9.812   5.282   3.322
46038W        W14412  25.599   3.793   0.253
46039W        W14413  23.610   2.866  13.425
46040W        W14414  34.091   7.279  13.387
46041W        W14415  16.634  10.829   3.365
46042W        W14416  20.591  18.251  14.000
46043W        W14417  20.616  39.033  13.350
46044W        W14418  38.851  18.108  14.864
46045W        W14419  26.596  15.671   9.992
46046W        W14420  27.550   5.305   1.211
46047W        W14421  18.616   0.370   0.460
46048W        W14422   1.917  29.962   3.281
46049W        W14423  21.172  33.576   2.246
46050W        W14424  37.565   3.835  12.511
46051W        W14425  24.605  14.590   2.393
46052W        W14426  36.986   5.891   2.859
46053W        W14427  11.183  17.596   4.265
46054W        W14428  22.174  39.455  11.120
46055W        W14429  18.657   4.449   4.140
46056W        W14430  17.632  31.133   4.777
46057W        W14431  39.982  40.367   3.146
46058W        W14432   5.846  41.956  13.490
46059W        W14433  31.423  27.955   0.737
46060W        W14434  33.099  11.310   3.178
46061W        W14435  30.499  32.514  10.996
46062W        W14436  14.822  32.892  12.509
46063W        W14437  13.795  17.224  13.850
46064W        W14438  19.153  40.836  12.844
46065W        W14439   7.832  37.366  13.844
46066W        W14440  34.081  27.672  13.905
46067W        W14441   2.348  14.661   3.219
46068W        W14442  33.951  29.064   3.857
46069W        W14443  22.225  12.781   4.822
46070W        W14444  17.134  44.432   0.784
46071W        W14445  27.571  39.937  14.843
46072W        W14446  44.348  23.186  12.014
46073W        W14447  14.787  36.566  14.304
46074W        W14448  16.718  34.610   3.703
46075W        W14449  22.232  34.458  14.330
46076W        W14450  16.186   0.418   0.916
46077W        W14451  24.514  41.798   3.331
46078W        W14452  13.224   2.802  14.479
46079W        W14453  35.498  37.858   2.836
46080W        W14454  18.740   4.888   3.326
46081W        W14455   7.394   4.408  13.412
46082W        W14456   9.754  18.550   4.200
46083W        W14457  30.966  11.306   0.878
46084W        W14458  44.840  23.039   1.235
46085W        W14459  25.506   7.265   4.305
46086W        W14460  37.424  23.574  14.795
46087W        W14461  26.500  19.697  14.372
46088W        W14462   9.167   5.410   9.937
46089W        W14463   0.936  44.880   3.714
46090W        W14464  16.660   2.855  13.050
46091W        W14465  23.221  37.359  13.845
46092W        W14466  29.577  43.357  14.298
46093W        W14467  18.130  11.352   0.416
46094W        W14468  14.717   6.203  10.457
46095W        W14469  33.593  34.443  12.476
46096W        W14470   0.784  39.034   5.313
46097W        W14471  42.496  39.449   3.778
46098W        W14472  44.279  15.823   2.848
46099W        W14473  19.774  20.707  10.471
46100W        W14474  28.112  31.566   2.291
46101W        W14475  22.220  27.459   2.269
46102W        W14476  44.840   9.726  12.964
46103W        W14477   3.306  10.872  10.913
46104W        W14478   4.915  21.227   3.319
46105W        W14479  36.083  40.310  13.876
46106W        W14480   8.878   1.397   4.150
46107W        W14481  27.633  26.697   0.915
46108W        W14482  11.235   9.790   1.698
46109W        W14483   6.262  43.016  13.847
46110W        W14484  16.637  11.226  10.629
46111W        W14485  24.224  32.528  13.010
46112W        W14486  10.826  13.753   0.861
46113W        W14487  42.484   8.294   4.825
46114W        W14488  27.121   3.366  10.529
46115W        W14489  25.979  31.039   1.746
46116W        W14490  41.952  42.438   3.861
46117W        W14491  40.858  20.662  13.945
46118W        W14492  14.309  43.306  14.970
46119W        W14493  38.498  43.310   3.687
46120W        W14494   5.917  28.057  14.866
46121W        W14495  43.270  40.959   1.777
46122W        W14496   1.387   9.161  12.943
46123W        W14497  28.439   8.894   1.933
46124W        W14498  29.541   5.825   1.418
46125W        W14499   1.425  40.380  12.835
46126W        W14500  39.063  20.249  13.948
46127W        W14501   6.879  35.923   1.733
46128W        W14502  43.918   7.691   1.223
46129W        W14503  36.873   3.245  10.436
46130W        W14504  36.079  25.126   2.379
46131W        W14505  27.170  28.074   4.296
46132W        W14506  33.091  37.051   3.366
46133W        W14507  20.234   4.791  12.086
46134W        W14508  44.772  38.061  12.911
46135W        W14509  23.617  23.023  13.456
46136W        W14510  10.212  36.431   0.355
46137W        W14511  27.689  39.824   3.742
46138W        W14512  22.124  38.853   3.729
46139W        W14513  41.793  29.971   3.313
46140W        W14514  38.022   5.915   2.677
46141W        W14515  25.095  33.980  13.512
46142W        W14516  25.514  40.882   2.787
46143W        W14517  41.956   1.760  12.004
46144W        W14518  17.258   2.361   0.308
46145W        W14519  44.877   2.406   3.375
46146W        W14520  39.349  11.351  12.346
46147W        W14521  33.384   8.794   1.217
46148W        W14522  19.639  39.412   9.998
46149W        W14523  26.616  40.456   3.829
46150W        W14524  40.548  39.365   2.756
46151W        W14525   7.699  35.421   4.774
46152W        W14526  15.643  32.045  10.122
46153W        W14527  27.681  18.063   2.793
46154W        W14528  24.723   3.244   5.268
46155W        W14529  25.614  26.465   1.885
46156W        W14530  40.503  11.228  10.540
46157W        W14531  24.552  27.090  12.490
46158W        W14532   0.745  36.433  12.897
46159W        W14533  30.926  22.634  11.948
46160W        W14534  38.923  24.724  12.040
46161W        W14535  14.668  37.563   4.273
46162W        W14536   0.375  15.284   0.833
46163W        W14537  23.045  39.022  13.964
46164W        W14538   3.870  21.686  14.005
46165W        W14539   5.280  10.271   0.769
46166W        W14540  37.972  30.951   0.292
46167W        W14541  24.722  33.939  12.090
46168W        W14542  37.991   0.464  13.541
46169W        W14543   6.903   9.244   4.154
46170W        W14544  20.032  20.564   4.727
46171W        W14545  12.296  37.990  14.001
46172W        W14546  41.002  13.331  12.359
46173W        W14547  19.244  39.904  12.088
46174W        W14548  15.796  26.563  12.095
46175W        W14549  18.061   0.929   3.275
46176W        W14550   6.396  29.580  10.498
46177W        W14551  27.126  14.291   5.262
46178W        W14552  12.277  26.075  11.002
46179W        W14553  26.158  37.071   0.313
46180W        W14554  16.155  29.426   0.421
46181W        W14555   8.397  24.668   1.778
46182W        W14556  27.162  25.022  11.869
46183W        W14557  20.081  38.495   5.576
46184W        W14558  29.567  39.399  11.479
46185W        W14559  37.030   6.737   0.393
46186W        W14560   1.301   3.829   0.445
46187W        W14561  18.771   1.876  11.521
46188W        W14562   2.278  12.712   3.183
46189W        W14563   4.223  23.035   2.400
46190W        W14564  10.839  19.743  10.006
46191W        W14565   5.886  15.326  12.385
46192W        W14566  10.323   8.752  12.406
46193W        W14567   3.770  15.189  14.349
46194W        W14568   2.941  31.422   4.682
46195W        W14569  20.041  24.989  14.785
46196W        W14570  11.657   0.320   0.882
46197W        W14571  17.772  22.504   0.412
46198W        W14572  10.288  11.332  13.384
46199W        W14573  29.069  11.660  11.974
46200W        W14574  26.564  12.140  13.990
46201W        W14575  32.579   6.412   1.912
46202W        W14576  29.514  19.563   0.254
46203W        W14577   3.934  28.657  11.000
46204W        W14578  33.438  22.077   3.727
46205W        W14579  42.443   8.705   3.823
46206W        W14580  20.695  14.293   1.768
46207W        W14581  29.500  21.610  10.643
46208W        W14582   0.390  20.706  14.805
46209W        W14583  14.314  13.757   2.787
46210W        W14584  23.006  18.588  11.938
46211W        W14585  10.170   0.966   3.710
46212W        W14586   4.840  22.636   0.268
46213W        W14587  29.613  22.222   3.335
46214W        W14588  32.483   3.902   2.245
46215W        W14589  34.397   4.790  13.031
46216W        W14590  17.188  23.709   0.950
46217W        W14591  44.429  39.999   2.409
46218W        W14592   2.256  34.535   4.257
46219W        W14593   5.306  23.174   4.162
46220W        W14594  35.404  37.508   1.438
46221W        W14595  16.757   8.352   4.159
46222W        W14596  21.734  26.689   1.395
46223W        W14597  35.412   4.877  11.882
46224W        W14598  18.580  26.173  13.377
46225W        W14599   0.338  29.138  12.424
46226W        W14600  14.703  14.224  10.916
46227W        W14601   7.669  38.841  12.551
46228W        W14602   4.831  34.121  12.834
46229W        W14603  29.925  44.836   0.916
46230W        W14604  11.239  12.192   3.633
46231W        W14605  38.338  36.955   3.753
46232W        W14606  13.179  12.169  13.444
46233W        W14607  20.570  11.839  10.490
46234W        W14608  13.831  28.667  11.530
46235W        W14609  38.882  22.176  13.422
46236W        W14610  13.833  17.783  12.878
46237W        W14611   7.238  19.575   4.232
46238W        W14612   5.193   2.723  12.506
46239W        W14613  18.669  22.207   4.706
46240W        W14614   9.215  31.096   4.230
46241W        W14615  19.114   5.880   1.258
46242W        W14616  12.351  13.744   2.240
46243W        W14617  29.069  16.275   0.729
46244W        W14618  31.579   2.738  12.825
46245W        W14619  15.794  26.093  13.974
46246W        W14620  10.318  25.199   3.700
46247W        W14621   0.980  43.388   2.854
46248W        W14622  15.308  23.083   0.277
46249W        W14623  21.690  33.002   1.776
46250W        W14624  41.816  26.008  14.442
46251W        W14625  13.122  42.945   1.721
46252W        W14626  16.683   8.317  10.481
46253W        W14627   5.248  39.323  14.426
46254W        W14628  40.877  44.946   4.157
46255W        W14629  18.668  25.128   4.166
46256W        W14630   4.927  24.181   0.298
46257W        W14631  40.493  14.662  14.880
46258W        W14632  30.576  29.127   1.228
46259W        W14633  19.629  30.548   3.672
46260W        W14634  28.579  42.360   9.575
46261W        W14635  11.207   9.232   0.840
46262W        W14636  21.729  40.493   1.444
46263W        W14637   1.859   9.206  11.929
46264W        W14638  38.947  12.128   1.917
46265W        W14639   5.774   1.290   2.370
46266W        W14640  10.832  19.713  13.420
46267W        W14641   2.953  15.687   3.795
46268W        W14642  13.229  36.893  13.513
46269W        W14643   7.670  12.325   1.868
46270W        W14644   0.809   8.335  13.986
46271W        W14645   9.662  29.485   1.873
46272W        W14646  10.307  13.183  14.827
46273W        W14647  11.703   3.928  12.053
46274W        W14648  30.652  44.314  14.275
46275W        W14649  34.084  22.610  13.029
46276W        W14650  29.601  16.635   1.929
46277W        W14651   7.766   2.842  13.431
46278W        W14652  17.706   8.347  13.975
46279W        W14653  22.223  30.102  10.628
46280W        W14654  15.248  28.518   1.221
46281W        W14655  30.647   4.276  10.938
46282W        W14656  22.538  28.115   4.302
46283W        W14657  29.452  29.637   0.375
46284W        W14658  43.920  10.334   0.322
46285W        W14659  16.304   9.779   0.844
46286W        W14660  40.347  35.969  12.372
46287W        W14661   5.898  16.688  13.541
46288W        W14662   3.223  10.639  11.923
46289W        W14663  17.617  19.058  14.300
46290W        W14664   0.769  24.981   1.391
46291W        W14665  39.343  25.560   2.278
46292W        W14666   1.826   3.257  12.965
46293W        W14667  11.668   1.344   1.299
46294W        W14668   8.272   2.735   1.797
46295W        W14669  32.558  12.305   3.713
46296W        W14670  31.628  10.195   1.903
46297W        W14671  42.777   5.836   3.658
46298W        W14672  13.151  31.467   0.936
46299W        W14673  17.669  18.734   1.389
46300W        W14674  38.914  12.684   3.865
46301W        W14675   1.245  37.908   2.722
46302W        W14676  28.973  14.324  13.047
46303W        W14677  42.397  40.840   2.204
46304W        W14678  16.767   2.390   0.345
46305W        W14679  41.374  15.808  10.636
46306W        W14680  16.672  26.084  14.845
46307W        W14681   9.722  44.794  10.444
46308W        W14682  37.504  43.381   2.416
46309W        W14683   2.396   1.878  10.911
46310W        W14684  33.436  37.419   1.736
46311W        W14685  39.465  36.971  11.604
46312W        W14686  10.822  18.614  14.822
46313W        W14687  12.231  23.520  12.421
46314W        W14688   8.777  11.720   0.311
46315W        W14689   3.718  43.346   2.300
46316W        W14690  11.140  26.556  14.469
46317W        W14691   1.931  28.952   4.233
46318W        W14692   3.883  39.546  14.775
46319W        W14693  19.758   4.707  10.993
46320W        W14694   0.442   5.332  10.568
46321W        W14695  33.390  13.177  12.009
46322W        W14696  24.014  42.932  13.919
46323W        W14697  29.956   7.857   4.303
46324W        W14698  25.002  37.951   4.655
46325W        W14699  39.534   6.343  10.524
46326W        W14700  41.427  24.216   5.093
46327W        W14701  39.387  42.312  12.377
46328W        W14702  37.529   2.815   3.850
46329W        W14703   5.355  10.669  10.589
46330W        W14704  30.153  25.209   3.688
46331W        W14705  28.525  34.901   3.332
46332W        W14706   4.343  11.322   0.387
46333W        W14707  10.293  37.574  11.884
46334W        W14708  44.269  30.529  13.799
46335W        W14709  33.502  17.136   0.244
46336W        W14710  26.991  28.165   3.295
46337W        W14711  40.486  33.411  14.012
46338W        W14712  11.658  22.528  12.983
46339W        W14713  40.516  43.802  11.066
46340W        W14714  35.365  31.497  13.998
46341W        W14715  11.866  16.793  13.885
46342W        W14716  20.629   4.444   4.118
46343W        W14717  36.539   4.767   3.636
46344W        W14718  36.439  18.599  14.872
46345W        W14719  22.618  28.435   3.694
46346W        W14720   6.787  39.947  14.458
46347W        W14721  19.597  29.560  10.556
46348W        W14722  36.373  21.674  12.983
46349W        W14723   9.878  20.136   4.289
46350W        W14724  12.803  31.035  13.816
46351W        W14725   1.801  11.689   1.321
46352W        W14726  16.256  40.917  12.831
46353W        W14727   3.799  23.231  14.839
46354W        W14728  25.994   7.288   1.351
46355W        W14729  13.735  13.249   3.331
46356W        W14730   9.382  11.214   2.259
46357W        W14731   6.218   1.264   2.254
46358W        W14732  36.854  20.630   0.313
46359W        W14733  19.120  36.410   0.408
46360W        W14734  15.791  25.594  11.481
46361W        W14735  18.282  31.532  11.952
46362W        W14736  33.496  13.794  13.500
46363W        W14737  16.129  35.426   4.149
46364W        W14738   9.672   9.758   4.140
46365W        W14739  37.838   5.832   0.396
46366W        W14740  30.984  17.702  13.338
46367W        W14741  26.010  16.290  10.438
46368W        W14742  29.020  13.707  11.494
46369W        W14743   1.246   8.289   1.825
46370W        W14744  19.651  38.921  12.474
46371W        W14745   3.848  19.545   3.640
46372W        W14746  37.853  23.217   0.765
46373W        W14747  13.803  26.090  14.457
46374W        W14748  20.138  15.774   1.326
46375W        W14749  21.204  44.331   3.754
46376W        W14750   3.761  18.687   1.858
46377W        W14751  33.381  39.945  10.110
46378W        W14752  25.566  17.255  12.468
46379W        W14753  31.962  32.118   1.898
46380W        W14754  29.542  14.634  11.059
46381W        W14755  10.287  17.631   0.285
46382W        W14756   5.881  28.144  12.579
46383W        W14757  28.062  14.204   2.722
46384W        W14758  43.926  11.647   1.306
46385W        W14759   1.956  11.847   0.243
46386W        W14760  11.184  18.186   3.199
46387W        W14761  15.646  23.192  14.317
46388W        W14762  35.425  26.153   1.837
46389W        W14763   8.190  27.115   2.679
46390W        W14764   1.461  37.037   4.220
46391W        W14765   5.915  28.482   1.394
46392W        W14766  38.971  10.685  12.401
46393W        W14767   0.332   7.298   1.266
46394W        W14768  19.176  32.995  12.408
46395W        W14769   9.246  23.193  11.990
46396W        W14770  35.095  44.481  13.457
46397W        W14771  36.382  36.502  13.522
46398W        W14772   8.370   9.160   2.686
46399W        W14773  14.145  17.167   3.774
46400W        W14774  16.265   7.696  10.553
46401W        W14775  40.432  38.370  11.455
46402W        W14776  38.484  25.546  12.038
46403W        W14777  20.672   1.360  14.407
46404W        W14778  17.629  19.113  14.919
46405W        W14779  10.297  38.344   3.205
46406W        W14780  30.987  12.269   4.164
46407W        W14781  44.812   2.846   4.657
46408W        W14782   3.742  14.685   3.354
46409W        W14783  16.754   7.377   4.178
46410W        W14784  30.485   2.356  10.935
46411W        W14785  22.163   6.881   2.231
46412W        W14786  43.823  41.861   3.237
46413W        W14787  27.037  19.734   3.795
46414W        W14788  24.621   0.339  11.885
46415W        W14789   9.313  35.073  14.304
46416W        W14790  14.774   5.819  11.473
46417W        W14791  14.787   2.288  13.369
46418W        W14792  20.742   8.164   1.763
46419W        W14793  29.445  38.530   3.773
46420W        W14794  31.074  23.661  10.434
46421W        W14795  43.808  36.077  13.337
46422W        W14796  41.811  34.466   2.313
46423W        W14797  28.631  13.637  13.802
46424W        W14798  22.721  11.169  14.931
46425W        W14799   5.286   8.868   0.899
46426W        W14800  22.607   5.743   3.182
46427W        W14801   1.941  41.420   4.344
46428W        W14802  31.643  27.064  11.420
46429W        W14803  28.567   5.701  12.954
46430W        W14804  10.666   1.350   4.668
46431W        W14805  24.716  40.997  11.550
46432W        W14806   4.443  34.541   1.741
46433W        W14807  30.618   3.263  12.007
46434W        W14808   8.348  10.710   1.448
46435W        W14809  17.579   5.310   1.800
46436W        W14810  23.605  37.883   0.249
46437W        W14811  18.194  24.487  11.877
46438W        W14812   7.820  20.672   9.590
46439W        W14813  24.551   0.395   3.337
46440W        W14814  44.998  30.611  11.023
46441W        W14815  43.798  13.668  10.475
46442W        W14816  11.184   3.245  11.391
46443W        W14817   3.779  30.958  11.385
46444W        W14818  40.965  28.554   2.810
46445W        W14819  32.396  44.774  10.553
46446W        W14820   0.274  14.815   4.117
46447W        W14821  20.157  24.148   2.686
46448W        W14822  37.992   2.403   4.246
46449W        W14823   0.919   7.720   3.237
46450W        W14824  34.965  19.679   2.734
46451W        W14825  41.351  39.844  14.478
46452W        W14826  13.689  42.030   2.322
46453W        W14827  14.743  26.080  12.085
46454W        W14828  28.464  11.767  11.604
46455W        W14829  38.428  29.977  13.884
46456W        W14830  42.357   9.376   4.779
46457W        W14831  18.121  22.153   4.319
46458W        W14832  30.982  30.518  10.126
46459W        W14833  22.053  16.081  11.940
46460W        W14834  35.013   1.370   0.429
46461W        W14835   4.304  21.162  13.371
46462W        W14836  26.548  40.449   2.763
46463W        W14837  12.762  23.512  13.847
46464W        W14838  30.921   1.390  11.025
46465W        W14839  38.475  17.640  12.981
46466W        W14840  42.457  14.753  13.855
46467W        W14841  16.723  17.061  13.938
46468W        W14842   1.888  31.596  10.537
46469W        W14843  40.863  38.539   3.648
46470W        W14844   3.263  20.743   4.190
46471W        W14845  19.624  36.922   2.276
46472W        W14846   0.988  10.711   3.753
46473W        W14847   8.406  19.064  12.068
46474W        W14848   3.804  25.596   3.854
46475W        W14849   4.731   4.779  12.437
46476W        W14850  19.101  11.315   1.449
46477W        W14851  11.334   1.863  13.886
46478W        W14852  24.174  22.186  13.031
46479W        W14853  11.368  27.483   4.221
46480W        W14854  14.769  23.111  11.900
46481W        W14855  30.928  24.708  12.062
46482W        W14856  26.585   3.420  11.465
46483W        W14857  38.888  14.751  14.476
46484W        W14858   1.743  14.677  13.882
46485W        W14859  41.390  39.936   3.331
46486W        W14860  38.368   8.294   1.409
46487W        W14861  36.045  29.150  13.831
46488W        W14862  23.163  34.408   3.278
46489W        W14863  32.087  24.554   3.666
46490W        W14864  29.446  17.254  14.817
46491W        W14865  42.521  38.924   2.745
46492W        W14866  26.655  29.636   3.149
46493W        W14867   6.197  38.900   3.345
46494W        W14868  14.333  23.648  13.508
46495W        W14869  39.400  38.493  12.037
46496W        W14870  12.723  39.442  10.413
46497W        W14871  21.161  43.013  11.882
46498W        W14872  25.043   9.748   2.341
46499W        W14873  12.122   5.382  11.440
46500W        W14874  26.539   5.427  11.990
46501W        W14875  16.587  43.878   2.205
46502W        W14876  22.195  25.533   3.255
46503W        W14877  21.653  12.681  14.427
46504W        W14878  22.040  13.225   4.129
46505W        W14879   7.825  27.446  10.935
46506W        W14880  22.241  42.873   1.773
46507W        W14881  21.129  42.412   2.708
46508W        W14882  35.078  32.433  11.099
46509W        W14883  25.541  31.605   1.797
46510W        W14884  43.516  12.797   4.208
46511W        W14885   4.417  11.757   3.305
46512W        W14886  16.617  40.970  10.542
46513W        W14887  19.240   6.332  12.009
46514W        W14888   8.779   1.321   3.734
46515W        W14889   8.861   4.857  11.903
46516W        W14890  25.027  28.587  13.871
46517W        W14891   3.444  38.520  11.879
46518W        W14892   1.373  44.418  11.017
46519W        W14893  20.608  15.681   4.648
46520W        W14894  24.047  25.705   2.788
46521W        W14895  21.617  44.332   4.118
46522W        W14896  15.310  25.152   3.364
46523W        W14897  19.622   3.807  11.989
46524W        W14898  23.639  20.028  14.372
46525W        W14899  34.507  26.687  12.066
46526W        W14900   3.324  10.173   1.210
46527W        W14901  35.945  40.523  10.926
46528W        W14902  28.595  43.429   3.665
46529W        W14903  40.922  32.042   2.206
46530W        W14904  37.957  16.113  10.564
46531W        W14905  14.592  19.262   3.843
46532W        W14906   7.252  18.652  12.912
46533W        W14907  31.926  43.352   0.824
46534W        W14908  35.602  42.879  12.466
46535W        W14909   0.424  43.970   0.323
46536W        W14910  26.137   1.925   2.253
46537W        W14911  33.588  41.446   2.810
46538W        W14912  43.280  42.350   0.877
46539W        W14913  23.152  31.078   3.319
46540W        W14914   9.371  17.071  13.035
46541W        W14915  10.254  26.034   3.759
46542W        W14916  33.051  44.979   2.207
46543W        W14917  44.282  16.787   3.680
46544W        W14918  23.066  30.423   9.995
46545W        W14919  23.661  35.549  10.530
46546W        W14920  37.498  27.977  12.497
46547W        W14921  31.004   7.743   3.311
46548W        W14922  28.559   0.280  11.429
46549W        W14923   7.273  11.752  14.507
46550W        W14924   4.831  27.517  11.593
46551W        W14925   6.234  17.594   0.268
46552W        W14926  44.960   6.725   2.702
46553W        W14927   6.902   4.831   5.103
46554W        W14928   4.216  37.929  12.087
46555W        W14929  28.148   5.215   0.864
46556W        W14930  41.870   1.808   1.835
46557W        W14931  33.919  12.663  14.847
46558W        W14932   3.738  18.092  11.955
46559W        W14933  43.902  13.333  11.112
46560W        W14934  17.259  16.266   4.233
46561W        W14935  40.422   2.966   4.176
46562W        W14936   7.251  42.418  10.539
46563W        W14937  23.621   3.386   3.262
46564W        W14938  21.555   1.969   3.636
46565W        W14939  41.406  44.824   3.653
46566W        W14940   8.401  37.001   3.309
46567W        W14941  14.741   2.881  12.494
46568W        W14942   1.815  37.980  10.957
46569W        W14943  34.580  31.008  14.970
46570W        W14944  40.928  13.683  12.962
46571W        W14945  12.143  38.525   2.896
46572W        W14946  40.936  30.141  10.418
46573W        W14947  21.102  23.240   3.309
46574W        W14948  15.151  15.792   2.213
46575W        W14949  19.779  18.593  13.352
46576W        W14950  32.459  22.660  11.986
46577W        W14951  12.199  18.058   2.868
46578W        W14952   7.678  27.629  12.446
46579W        W14953  15.226  17.148   3.358
46580W        W14954  14.174  11.746   2.308
46581W        W14955   2.340  32.596   3.686
46582W        W14956  39.915  23.722   1.258
46583W        W14957  34.041  36.085   2.814
46584W        W14958  10.293  27.525   3.732
46585W        W14959  38.992  39.474  12.961
46586W        W14960  31.053  43.274   1.285
46587W        W14961  13.648  19.201  11.588
46588W        W14962  11.215   8.743  14.383
46589W        W14963  42.913   3.735  10.600
46590W        W14964   8.840  20.643  10.100
46591W        W14965  13.181  37.900  11.390
46592W        W14966  25.117  16.588   2.690
46593W        W14967  25.073  38.826  10.425
46594W        W14968  42.454  10.705   1.248
46595W        W14969  10.812  19.732   1.783
46596W        W14970  20.735   3.338   0.740
46597W        W14971  42.327  37.897  10.893
46598W        W14972   9.839  44.442   1.922
46599W        W14973  42.806  31.112   0.926
46600W        W14974  13.630  29.029   1.216
46601W        W14975  21.133  43.325   3.750
46602W        W14976  33.960  40.817   4.146
46603W        W14977  34.043  32.599   2.311
46604W        W14978  41.943   8.730  10.408
46605W        W14979   8.355  19.549  13.496
46606W        W14980  23.723   8.211   1.790
46607W        W14981  22.616  29.025   2.892
46608W        W14982   4.324  16.631   4.315
46609W        W14983   8.384  10.705   1.773
46610W        W14984  30.651  42.280  14.995
46611W        W14985  40.370  28.468  11.437
46612W        W14986  17.746  20.272  14.417
46613W        W14987  38.055  31.077  14.335
46614W        W14988  19.040  27.552   3.296
46615W        W14989  10.161  42.312  14.856
46616W        W14990  26.663  19.710  12.888
46617W        W14991  29.149  21.042   0.941
46618W        W14992  30.916  13.125  13.388
46619W        W14993  26.075   8.313   4.709
46620W        W14994  14.716  23.506   0.750
46621W        W14995  11.276  12.671  11.387
46622W        W14996  11.172  34.417  13.972
46623W        W14997  10.234   8.170   1.766
46624W        W14998  43.302  16.142   2.807
46625W        W14999   2.379   7.752  12.091
46626W        W15000  16.604  42.418  11.886
46627W        W15001  20.137   7.234   0.263
46628W        W15002  37.525  22.251   4.640
46629W        W15003  13.686  27.627  10.434
46630W        W15004  25.057  14.176  14.863
46631W        W15005  38.045   7.413   2.753
46632W        W15006   1.282  13.730   4.132
46633W        W15007  40.458   8.666   0.378
46634W        W15008  25.534  36.911  10.404
46635W        W15009  25.082   9.284   4.223
46636W        W15010  36.497  17.195  14.316
46637W        W15011  11.304   5.209  11.977
46638W        W15012  27.610   6.819  11.895
46639W        W15013  31.444  29.452  13.354
46640W        W15014  20.178  38.033  10.004
46641W        W15015   3.774  38.038   1.869
46642W        W15016  42.334   4.276   1.357
46643W        W15017  43.440   0.289  12.400
46644W        W15018  29.645  21.736  11.496
46645W        W15019  37.481  37.955   4.185
46646W        W15020  15.270  35.390  12.449
46647W        W15021  33.407  13.161  11.445
46648W        W15022  44.885  43.973   3.777
46649W        W15023  23.548  12.353   1.890
46650W        W15024  30.571   0.492   1.274
46651W        W15025   5.892  16.716   3.650
46652W        W15026  23.179  24.700  11.468
46653W        W15027  40.437  20.102   3.231
46654W        W15028  12.715  29.019  11.933
46655W        W15029  22.071   9.745   1.743
46656W        W15030  30.490  10.268  11.026
46657W        W15031  25.091  42.367  12.386
46658W        W15032  16.293   6.417  14.850
46659W        W15033   2.927  27.995   3.729
46660W        W15034  32.547   8.380  12.408
46661W        W15035   4.926  31.556   4.690
46662W        W15036  12.358   3.820   2.798
46663W        W15037  34.876  34.615   3.236
46664W        W15038  34.528  42.416   2.206
46665W        W15039   2.420  35.429  13.488
46666W        W15040  39.977  30.129  11.521
46667W        W15041   7.175  13.232  12.939
46668W        W15042   6.903  32.009  13.985
46669W        W15043  38.422  12.714   0.853
46670W        W15044  16.177  16.298   1.271
46671W        W15045   5.349   9.651  10.542
46672W        W15046   8.196   4.383  12.524
46673W        W15047  40.865  36.423   3.658
46674W        W15048  13.665   4.386  13.520
46675W        W15049   1.795   5.729  13.014
46676W        W15050  14.209  24.669   0.756
46677W        W15051  20.195  20.547   0.243
46678W        W15052  21.755  37.056   3.263
46679W        W15053  43.933   1.779   0.460
46680W        W15054  19.589   7.390  12.918
46681W        W15055  21.047  24.129  14.515
46682W        W15056   8.724  22.996  10.620
46683W        W15057   8.238  31.534  12.370
46684W        W15058   3.354  13.759  12.465
46685W        W15059  28.609  10.331   4.831
46686W        W15060  18.241   3.227   1.846
46687W        W15061  11.309  41.852  12.084
46688W        W15062  23.631  24.171  10.596
46689W        W15063  25.192  40.373   2.806
46690W        W15064  38.371  27.586  14.440
46691W        W15065   8.355  33.571  12.427
46692W        W15066   0.888  44.442  11.104
46693W        W15067  13.615  11.174  14.375
46694W        W15068   7.675  35.047   0.919
46695W        W15069  38.509  12.216   3.864
46696W        W15070  34.930   9.293  10.965
46697W        W15071  26.150   5.316   3.696
46698W        W15072   4.420  32.459  11.494
46699W        W15073  14.624  19.579   0.422
46700W        W15074  17.201  11.365  12.875
46701W        W15075  34.457  24.517  10.990
46702W        W15076  17.155  14.696  14.787
46703W        W15077  42.387  12.294  11.049
46704W        W15078  25.711  34.536  14.295
46705W        W15079  44.803  27.522  10.929
46706W        W15080   9.390  30.148   3.347
46707W        W15081  33.028  43.336   4.206
46708W        W15082   8.837  42.903  11.923
46709W        W15083   9.703  29.946   2.833
46710W        W15084  27.185  25.496  11.512
46711W        W15085  25.470  30.094  10.002
46712W        W15086  43.475  37.351  13.030
46713W        W15087  36.878  24.002  14.478
46714W        W15088  42.321  11.297  10.444
46715W        W15089  39.846  25.190  14.400
46716W        W15090  26.188  43.846  13.373
46717W        W15091  12.675  28.619   2.397
46718W        W15092  27.187  29.650   1.903
46719W        W15093  25.160  36.093   0.931
46720W        W15094  35.395  19.556  12.044
46721W        W15095  17.739  28.470  13.823
46722W        W15096  27.691   8.735   4.283
46723W        W15097  12.648  37.067  12.410
46724W        W15098  31.412  23.045   1.288
46725W        W15099   0.331  40.444   3.712
46726W        W15100   8.822  27.029  10.470
46727W        W15101  44.817  34.036   2.327
46728W        W15102  41.457  11.197  13.361
46729W        W15103   0.813  37.037  10.617
46730W        W15104  34.890  19.560   0.481
46731W        W15105   1.278  21.538   4.131
46732W        W15106  24.101  18.116   4.160
46733W        W15107  37.366  27.951  14.491
46734W        W15108  18.575   8.177  13.850
46735W        W15109   5.930  35.079  10.570
46736W        W15110  10.857   0.754  14.331
46737W        W15111  26.635  42.922  10.497
46738W        W15112  41.302  40.905  10.922
46739W        W15113  27.041   2.295   1.320
46740W        W15114  43.863  20.763   4.298
46741W        W15115  12.164  33.449  12.343
46742W        W15116  30.973   2.445   5.192
46743W        W15117  40.971  43.427  11.125
46744W        W15118  18.084  41.352   1.415
46745W        W15119  25.678  18.189   3.333
46746W        W15120  26.130  36.397   2.829
46747W        W15121  18.571   9.192   4.620
46748W        W15122   5.314  22.088   0.740
46749W        W15123   2.938   6.800   1.355
46750W        W15124   8.707  44.304  14.851
46751W        W15125  18.761   8.368  13.315
46752W        W15126  10.180  29.529  10.475
46753W        W15127  34.372  26.536  13.797
46754W        W15128   1.872  22.228  10.970
46755W        W15129  24.717   9.730  14.915
46756W        W15130  27.599  22.066   3.158
46757W        W15131  44.894  18.612   0.429
46758W        W15132  39.835  37.034   0.329
46759W        W15133  15.722  13.195  10.143
46760W        W15134  28.552   5.329   3.269
46761W        W15135  35.988  14.710  14.900
46762W        W15136  38.934   2.893   1.694
46763W        W15137   9.781  23.578   2.276
46764W        W15138  39.979  12.342  12.550
46765W        W15139   6.311  27.020  13.398
46766W        W15140  14.289  37.529  11.434
46767W        W15141  25.186  31.496   3.686
46768W        W15142  20.565   2.405  14.933
46769W        W15143  42.477  40.015  12.912
46770W        W15144   1.864   8.685   4.139
46771W        W15145  13.179  43.317  12.055
46772W        W15146  42.023   2.382   3.869
46773W        W15147   3.356  26.010  11.893
46774W        W15148  16.180  41.431   4.281
46775W        W15149  13.231  26.165   0.389
46776W        W15150  40.030   9.703  14.994
46777W        W15151  29.152  29.449  14.875
46778W        W15152  29.446   4.857   0.307
46779W        W15153  37.409  41.369  14.407
46780W        W15154  18.159  17.777  12.884
46781W        W15155  24.539  24.651   1.809
46782W        W15156  16.121  27.990  12.939
46783W        W15157  16.669  36.896   3.186
46784W        W15158  12.635  16.095   0.967
46785W        W15159   3.373  30.020   0.377
46786W        W15160  34.374  33.124  10.893
46787W        W15161  40.845  41.883  14.359
46788W        W15162  26.583   4.368  11.914
46789W        W15163  30.570  23.499   4.326
46790W        W15164   4.835   9.210  14.513
46791W        W15165   8.735   1.921  11.972
46792W        W15166  23.084  34.373   3.732
46793W        W15167   2.843   8.226   0.761
46794W        W15168  24.541  20.134  11.995
46795W        W15169  38.939   9.195  12.421
46796W        W15170  44.290  21.102   1.378
46797W        W15171  12.319  38.070   1.754
46798W        W15172   5.759   2.400   3.193
46799W        W15173   6.916  42.460  11.377
46800W        W15174  20.244   4.726  13.468
46801W        W15175  35.555   6.259  14.372
46802W        W15176  41.814  23.490   4.125
46803W        W15177   8.226  34.046  11.543
46804W        W15178  25.609  23.679  13.354
46805W        W15179  41.354  37.388  13.895
46806W        W15180  19.218  42.948   1.400
46807W        W15181  26.636  25.580  12.040
46808W        W15182  12.664  19.683   3.268
46809W        W15183  11.134  20.686  14.966
46810W        W15184  13.199  44.278  13.545
46811W        W15185  23.166  16.808   2.796
46812W        W15186  21.194  22.682   0.423
46813W        W15187  23.057  40.000  10.149
46814W        W15188  29.971  41.387  12.510
46815W        W15189  26.961  18.062   2.746
46816W        W15190  14.654  33.571  13.467
46817W        W15191  14.317   4.333   2.266
46818W        W15192  17.775  42.490  10.543
46819W        W15193  37.555  11.803   3.334
46820W        W15194   2.923  42.849  13.035
46821W        W15195  25.973  15.179  10.511
46822W        W15196   2.942   9.342   1.343
46823W        W15197  25.474  38.021  10.892
46824W        W15198  33.116  37.955   2.193
46825W        W15199  29.636  29.030   3.817
46826W        W15200  28.128  16.752   0.844
46827W        W15201  41.030  23.080   3.212
46828W        W15202  19.741  38.490   1.909
46829W        W15203  42.398  38.041   1.377
46830W        W15204  25.195  32.042  14.892
46831W        W15205  24.029   4.881   3.172
46832W        W15206  11.273  42.477  13.985
46833W        W15207  15.100   2.941   1.784
46834W        W15208  34.000  12.203   1.880
46835W        W15209  44.884   1.784   3.373
46836W        W15210  11.723  37.967  13.474
46837W        W15211  14.795   9.728   4.817
46838W        W15212   2.234  19.109  14.342
46839W        W15213  44.838  13.142   0.332
46840W        W15214  12.654  29.013  12.838
46841W        W15215  33.395  38.037  14.930
46842W        W15216   1.780   0.484  12.492
46843W        W15217   9.746  39.357   1.357
46844W        W15218  14.816  41.801   4.700
46845W        W15219  13.326  17.676  11.997
46846W        W15220  30.035  25.100   2.725
46847W        W15221  20.744   8.389  10.891
46848W        W15222  26.165   0.402   5.097
46849W        W15223  25.484  26.578  12.425
46850W        W15224   6.188  35.036  11.121
46851W        W15225  43.287  25.066   4.750
46852W        W15226  31.632   0.943   3.724
46853W        W15227   9.707   8.279   1.365
46854W        W15228  41.897  25.071  12.398
46855W        W15229  37.560   5.335   3.236
46856W        W15230  18.286  40.542  10.448
46857W        W15231   6.240  35.054   1.878
46858W        W15232  29.051  25.121   1.895
46859W        W15233   3.931   1.750  12.558
46860W        W15234   9.209   4.731  11.858
46861W        W15235   7.690   0.419  13.875
46862W        W15236   5.426  38.054   4.717
46863W        W15237   0.491  33.033   4.608
46864W        W15238   2.791  39.432   1.249
46865W        W15239  35.973  22.728   2.795
46866W        W15240  37.957  12.122  10.928
46867W        W15241  41.794  30.578   4.664
46868W        W15242  39.497   6.337   0.898
46869W        W15243  36.890  24.136   0.778
46870W        W15244  43.432  32.934   3.151
46871W        W15245   7.360  41.911   5.151
46872W        W15246   8.362   2.765   5.734
46873W        W15247  38.835  15.695  13.366
46874W        W15248  16.692   8.794  11.592
46875W        W15249   2.784  38.909   3.799
46876W        W15250  19.649  30.466  13.915
46877W        W15251  41.810  42.388   0.477
46878W        W15252  42.824   4.335  14.923
46879W        W15253  40.469  12.842  12.471
46880W        W15254  24.496  30.637   4.327
46881W        W15255  33.893  34.497  11.508
46882W        W15256  32.981   7.344  12.374
46883W        W15257   1.886  21.064  13.024
46884W        W15258   7.194  36.849  10.891
46885W        W15259  40.862  27.990  12.504
46886W        W15260   9.867  43.379   2.336
46887W        W15261  16.769   1.858   2.382
46888W        W15262  43.800  42.326  11.867
46889W        W15263  42.926  25.711  11.001
46890W        W15264  39.413  19.149  11.443
46891W        W15265  39.849  30.927   1.268
46892W        W15266  16.301  20.546   2.273
46893W        W15267  21.646  20.616  14.416
46894W        W15268   7.837   9.328   1.864
46895W        W15269  37.846  11.784   3.847
46896W        W15270  18.164  24.521   3.781
46897W        W15271  14.104  10.255  12.074
46898W        W15272   0.413  13.225   3.217
46899W        W15273  21.213  34.897   1.918
46900W        W15274  39.989  41.367  13.985
46901W        W15275  31.960  24.047  12.489
46902W        W15276  42.919  29.652  12.971
46903W        W15277  20.597   4.306  14.810
46904W        W15278  26.146  23.699   3.829
46905W        W15279  12.185  21.250   2.665
46906W        W15280   5.719  11.368  11.115
46907W        W15281  26.077  43.934  14.449
46908W        W15282  42.834  44.998  13.863
46909W        W15283  17.568  21.216   1.762
46910W        W15284  19.127  29.168  11.023
46911W        W15285   0.354   8.255  11.018
46912W        W15286   2.261  20.093  14.313
46913W        W15287  16.216  13.206  14.499
46914W        W15288  22.074  26.508   2.313
46915W        W15289  15.629  41.487  12.898
46916W        W15290  39.325   5.705   1.910
46917W        W15291   0.404  14.736  11.086
46918W        W15292   1.410  18.205   4.126
46919W        W15293   6.202  30.601  14.372
46920W        W15294  36.362  43.471  14.365
46921W        W15295  34.381   1.872   3.369
46922W        W15296  19.716   7.184   3.676
46923W        W15297  27.972  27.964  11.521
46924W        W15298  28.101   5.414  12.505
46925W        W15299  42.438  21.033   3.798
46926W        W15300   7.262   8.770  11.550
46927W        W15301  24.566   8.183   4.743
46928W        W15302  28.445  42.435  14.425
46929W        W15303  26.681  10.811   3.251
46930W        W15304  43.341  41.037  10.499
46931W        W15305   3.779  22.708  13.542
46932W        W15306  27.960  22.678   3.843
46933W        W15307   1.922  19.185  11.098
46934W        W15308   6.188   6.703   0.269
46935W        W15309   9.342  14.700   4.606
46936W        W15310   1.466  37.527  14.912
46937W        W15311  43.791  12.626  11.938
46938W        W15312  19.739  23.113   1.306
46939W        W15313   1.972   8.796   3.754
46940W        W15314  43.436  25.053   9.941
46941W        W15315  30.059  35.946  11.117
46942W        W15316  43.821   1.465   1.797
46943W        W15317  38.571  16.089  11.861
46944W        W15318  12.245  36.362   4.243
46945W        W15319   5.415  19.126   0.382
46946W        W15320   3.362   0.814   0.939
46947W        W15321  17.179   4.782  14.955
46948W        W15322  25.117  15.589   2.299
46949W        W15323  26.568  39.968  13.870
46950W        W15324  34.541  15.700   4.813
46951W        W15325   7.676   1.387  14.334
46952W        W15326   1.879  29.120  14.789
46953W        W15327  16.802  41.384  11.471
46954W        W15328  35.021   7.800  13.433
46955W        W15329  24.525  19.651   2.342
46956W        W15330  15.822  22.536   0.831
46957W        W15331  11.720  14.635   4.662
46958W        W15332  11.182   9.261  12.381
46959W        W15333   8.811  34.401   0.778
46960W        W15334  38.344  15.728  13.953
46961W        W15335  31.965  20.601   4.712
46962W        W15336  13.720  31.453   4.829
46963W        W15337   4.706  43.905   4.127
46964W        W15338  35.956  32.418   0.967
46965W        W15339  40.541   1.338  13.867
46966W        W15340  38.054  44.366   4.113
46967W        W15341  31.521   8.731  13.947
46968W        W15342  36.925  18.577   4.671
46969W        W15343  43.379  10.715  11.872
46970W        W15344  20.611  31.032   0.839
46971W        W15345  35.867  40.464  11.541
46972W        W15346  38.887  34.595   0.314
46973W        W15347  42.886  23.995   5.171
46974W        W15348  27.077  20.610   3.664
46975W        W15349  16.643  43.971   3.321
46976W        W15350  12.300  29.548  14.461
46977W        W15351  10.327  11.765  12.488
46978W        W15352  34.010  18.110  11.108
46979W        W15353  24.091  18.651   2.340
46980W        W15354  41.818  32.904   3.272
46981W        W15355   5.810  20.733  10.550
46982W        W15356  17.273   4.401   3.642
46983W        W15357  42.851  41.316   1.930
46984W        W15358  39.524  12.360  10.931
46985W        W15359  21.675  35.455  12.022
46986W        W15360  42.867  16.138   1.812
46987W        W15361  27.673  18.132   2.343
46988W        W15362  41.462  35.053  10.551
46989W        W15363  12.796  26.511  11.972
46990W        W15364   1.380  13.257   0.775
46991W        W15365  27.095  18.109   5.262
46992W        W15366  11.184   2.929   2.366
46993W        W15367  14.182  42.963   3.147
46994W        W15368  14.275  23.729   4.644
46995W        W15369  37.986  44.474  14.764
46996W        W15370  28.967  25.019  14.355
46997W        W15371  14.806  11.153  12.473
46998W        W15372  15.170  17.775   0.446
46999W        W15373  28.093  22.089  12.345
47000W        W15374  17.255  29.509  10.918
47001W        W15375  21.202  27.010   1.903
47002W        W15376  38.484  26.465   9.934
47003W        W15377  24.538  40.852   4.728
47004W        W15378   4.718   9.381  12.829
47005W        W15379  10.184   1.916   4.666
47006W        W15380  22.074  37.385   3.269
47007W        W15381  25.997  21.703  13.793
47008W        W15382  35.493  33.435  12.920
47009W        W15383   4.797  16.263  12.534
47010W        W15384  44.792  11.200  10.614
47011W        W15385  16.768   7.396  12.029
47012W        W15386  15.216   2.805  11.423
47013W        W15387  29.107  44.504   1.450
47014W        W15388   1.856  29.624  12.027
47015W        W15389  38.962  15.763   1.867
47016W        W15390  36.094  18.697  12.851
47017W        W15391  17.798   2.950   1.822
47018W        W15392  43.012  36.428  10.516
47019W        W15393  15.322  26.534  10.891
47020W        W15394  14.653  19.716  10.527
47021W        W15395   9.158  23.166  14.503
47022W        W15396  28.547  24.725   1.923
47023W        W15397  29.546  37.460   2.810
47024W        W15398  12.127  40.395  10.897
47025W        W15399  21.642  30.005   0.873
47026W        W15400   4.781   9.311   1.744
47027W        W15401  16.127  32.107  12.454
47028W        W15402   0.431  30.497  14.358
47029W        W15403   2.398  12.791   2.893
47030W        W15404   3.400  27.134  10.912
47031W        W15405  37.440  40.917   1.835
47032W        W15406  28.125   4.786   2.830
47033W        W15407  28.491  13.808   2.752
47034W        W15408  40.892  41.318  13.393
47035W        W15409  27.995   3.339   0.942
47036W        W15410   8.730  25.520  10.417
47037W        W15411  18.630  30.500   4.321
47038W        W15412   3.933  14.662   4.598
47039W        W15413  12.623  32.073   0.301
47040W        W15414  20.610  16.702   4.170
47041W        W15415  21.040  14.112   2.901
47042W        W15416   0.296  13.700   1.413
47043W        W15417  42.418   7.740   3.738
47044W        W15418   4.780  29.171   1.701
47045W        W15419   5.902   8.362  12.021
47046W        W15420   5.797  43.796  11.549
47047W        W15421  42.417  24.532   4.259
47048W        W15422  16.747  36.521  10.974
47049W        W15423   4.804  41.841   1.328
47050W        W15424  15.628  31.960  11.032
47051W        W15425  10.846   5.854  12.908
47052W        W15426  39.481  40.951  13.887
47053W        W15427  27.017  20.185   0.855
47054W        W15428  10.258  42.847  11.956
47055W        W15429  19.647  25.195   4.334
47056W        W15430  39.390   1.773   3.244
47057W        W15431  12.700  19.734  14.880
47058W        W15432  31.513  25.024   1.270
47059W        W15433  34.947  43.367   3.242
47060W        W15434  31.075  16.202   3.713
47061W        W15435  39.358   7.373   3.336
47062W        W15436  44.956  37.418   4.724
47063W        W15437  39.518  43.275   4.732
47064W        W15438  44.419  19.694  12.947
47065W        W15439  41.809  14.716  13.355
47066W        W15440  18.126  23.546  11.612
47067W        W15441  17.721  37.056   2.299
47068W        W15442  41.839  19.662  10.891
47069W        W15443   1.379  13.694   0.819
47070W        W15444  20.201  16.661  12.969
47071W        W15445  13.299   4.308   3.841
47072W        W15446  22.150  30.976  14.456
47073W        W15447  18.120  33.589   1.441
47074W        W15448   6.868  27.672  11.031
47075W        W15449  18.254  31.123   0.948
47076W        W15450  25.597  18.243   4.796
47077W        W15451  12.788  18.569   4.697
47078W        W15452  40.805   0.930  12.872
47079W        W15453  42.336  10.366   3.796
47080W        W15454  31.111  41.373  14.802
47081W        W15455  44.011  21.134  12.864
47082W        W15456   1.448  42.903   4.241
47083W        W15457  33.977  15.139  11.461
47084W        W15458  17.643  40.902  14.000
47085W        W15459  24.115   6.358   4.745
47086W        W15460  14.666  25.710   2.323
47087W        W15461   9.266  44.835   4.353
47088W        W15462  35.915  18.154   4.632
47089W        W15463  21.017  39.057   1.762
47090W        W15464  24.718   3.817  11.105
47091W        W15465   4.826   6.877  11.086
47092W        W15466  38.828  42.890  12.917
47093W        W15467  25.499  35.942  13.311
47094W        W15468  31.645  41.951  11.968
47095W        W15469  28.122  14.734  10.600
47096W        W15470  12.769  42.868   0.853
47097W        W15471   9.178  19.713  10.558
47098W        W15472  33.439   9.816   9.957
47099W        W15473  21.599  40.362   0.819
47100W        W15474  18.253  14.273   3.685
47101W        W15475   2.297  25.207   0.360
47102W        W15476  37.543  15.600   1.349
47103W        W15477  29.460  41.007  11.918
47104W        W15478  42.524  29.082  10.549
47105W        W15479  16.612  22.595   4.227
47106W        W15480  30.142  26.675  12.491
47107W        W15481  12.326  44.420   2.792
47108W        W15482   8.769  38.334  12.351
47109W        W15483   4.729   3.948  14.426
47110W        W15484  16.699   2.405   3.174
47111W        W15485  27.024  29.049  12.532
47112W        W15486  42.806   3.935   2.725
47113W        W15487  44.837  25.517   3.792
47114W        W15488  13.134  21.541   0.950
47115W        W15489  44.835  20.268   2.764
47116W        W15490  32.636   8.173   4.145
47117W        W15491   4.818  43.778  11.864
47118W        W15492  18.741  31.519   4.261
47119W        W15493  14.650  11.761  13.386
47120W        W15494  23.602  42.994   1.744
47121W        W15495  12.653  10.704   0.316
47122W        W15496  34.468  14.145   1.753
47123W        W15497  11.736  39.415   3.707
47124W        W15498  41.847  34.441   3.860
47125W        W15499  19.541  44.274   1.922
47126W        W15500  26.468  20.655   3.219
47127W        W15501   0.823  38.533  11.980
47128W        W15502  32.432  22.701  10.089
47129W        W15503  38.013   7.909   2.334
47130W        W15504  22.202  26.085  12.365
47131W        W15505  43.482  19.687   2.811
47132W        W15506  39.984  28.022   3.852
47133W        W15507  22.064  16.254  13.419
47134W        W15508  27.456  13.721   3.184
47135W        W15509  11.750  42.029  12.072
47136W        W15510   1.824  28.186   1.733
47137W        W15511  35.421  32.575   4.636
47138W        W15512  14.200  30.509  11.029
47139W        W15513  15.162   0.819   4.615
47140W        W15514  35.579  12.664  12.060
47141W        W15515  26.492  18.576   3.698
47142W        W15516  27.654  19.110   4.759
47143W        W15517  29.551  23.114   1.712
47144W        W15518  20.650  28.548   3.378
47145W        W15519  33.081  18.094  10.514
47146W        W15520  41.358  39.538   0.872
47147W        W15521   2.855  13.243   4.347
47148W        W15522  10.731  10.307  14.915
47149W        W15523  29.008  16.227   0.432
47150W        W15524  28.442  33.944   4.246
47151W        W15525  39.935  12.655   4.634
47152W        W15526  19.557  21.230   2.826
47153W        W15527  10.345   9.196  11.979
47154W        W15528  30.136  22.127  13.429
47155W        W15529  37.506  24.502  11.114
47156W        W15530   2.851   6.204   4.736
47157W        W15531  17.722  44.319  10.906
47158W        W15532   1.427   7.771  11.567
47159W        W15533  25.007  32.978   0.281
47160W        W15534  41.404  35.567  12.425
47161W        W15535  43.455   2.298  11.867
47162W        W15536   4.741  17.625  13.368
47163W        W15537  24.592  20.691   1.764
47164W        W15538   6.332  42.874   1.251
47165W        W15539   8.365   2.444   3.814
47166W        W15540  44.483   7.398  11.387
47167W        W15541   5.904  43.986  12.028
47168W        W15542  43.337  26.669  11.897
47169W        W15543  35.491  26.460   2.308
47170W        W15544  38.067  41.943   4.128
47171W        W15545  16.644  19.247  12.884
47172W        W15546  10.332  16.285   1.736
47173W        W15547  43.814  41.444   2.772
47174W        W15548  43.280  43.006   0.898
47175W        W15549   7.193  15.212   0.800
47176W        W15550  11.268  43.351  11.405
47177W        W15551   8.862  31.591  13.475
47178W        W15552  36.847  16.169  11.389
47179W        W15553  22.674  24.037  14.004
47180W        W15554  15.655  43.865   3.700
47181W        W15555  26.145  12.703  14.483
47182W        W15556  20.249  25.209   5.153
47183W        W15557   5.439  20.635  12.401
47184W        W15558   8.352  24.119   4.666
47185W        W15559   4.282  28.959   1.303
47186W        W15560  17.132   7.233   3.779
47187W        W15561  28.677  20.078  12.854
47188W        W15562  38.951   1.250   0.256
47189W        W15563  25.992  33.024  14.509
47190W        W15564  41.801   0.861  12.458
47191W        W15565  42.327  21.058   2.672
47192W        W15566  10.701  30.490  13.945
47193W        W15567   8.655  42.438  11.121
47194W        W15568   7.759  34.903  13.995
47195W        W15569  15.701   7.307   2.684
47196W        W15570  13.316  24.054   2.668
47197W        W15571  27.019  32.559   4.202
47198W        W15572  11.691  14.710   0.462
47199W        W15573  11.776  21.121   3.758
47200W        W15574  28.681  19.642  12.919
47201W        W15575  27.476  11.809   1.433
47202W        W15576  39.912  43.363  11.547
47203W        W15577  36.381  17.279  12.830
47204W        W15578  40.339  14.629   2.389
47205W        W15579  28.476   0.965   2.304
47206W        W15580  24.025   0.349  11.522
47207W        W15581  18.696  17.184   5.165
47208W        W15582  23.203  13.706  10.589
47209W        W15583   1.882  34.500   1.812
47210W        W15584  22.566   9.363  14.430
47211W        W15585   5.766   7.291  11.999
47212W        W15586  35.982   3.381  14.972
47213W        W15587  16.574   1.386   0.377
47214W        W15588  40.997  25.155   0.818
47215W        W15589  30.515  40.001  14.479
47216W        W15590  36.362  28.072   1.933
47217W        W15591  12.141  33.507   1.366
47218W        W15592  12.331  26.180  14.834
47219W        W15593   8.235  22.999   4.122
47220W        W15594  25.491  38.848  13.469
47221W        W15595  41.937  26.584  12.510
47222W        W15596  32.410  29.530   2.243
47223W        W15597  12.789   5.891  12.494
47224W        W15598  10.795  30.926  11.112
47225W        W15599  23.667  37.036  11.425
47226W        W15600  26.109  42.899  13.452
47227W        W15601  30.965   1.764   2.254
47228W        W15602  12.192  33.599  13.982
47229W        W15603  11.832  16.091  13.040
47230W        W15604  25.677  36.928  11.539
47231W        W15605  40.044  18.173  13.377
47232W        W15606   8.755  31.130  10.447
47233W        W15607  22.696  31.033   3.300
47234W        W15608  30.043   4.406  13.347
47235W        W15609  28.457  15.266  13.891
47236W        W15610  40.309   0.493  13.482
47237W        W15611  27.689  13.327   1.849
47238W        W15612  11.363   3.291  10.525
47239W        W15613  18.790   1.239   0.393
47240W        W15614  22.113   9.739  11.514
47241W        W15615  39.040  11.844   5.283
47242W        W15616  21.674  12.781  10.620
47243W        W15617  16.728  10.263   4.267
47244W        W15618   4.863  35.506  13.467
47245W        W15619  37.498  42.286  12.948
47246W        W15620  33.462  18.092  11.407
47247W        W15621  19.609  14.736   4.299
47248W        W15622  13.201  33.032   0.813
47249W        W15623   2.815   6.215  12.363
47250W        W15624  37.052  24.684  12.834
47251W        W15625   8.872   2.825   2.343
47252W        W15626  28.139  12.214  11.455
47253W        W15627   5.926  36.579   4.338
47254W        W15628   4.779  25.474  11.605
47255W        W15629  30.032  33.403   1.825
47256W        W15630  39.821  29.984   0.773
47257W        W15631  27.182  13.820  10.467
47258W        W15632  33.031  22.536   1.409
47259W        W15633  11.325  10.856   3.250
47260W        W15634  22.694  21.196  13.522
47261W        W15635  18.156  32.598  10.546
47262W        W15636  16.734  18.208  13.990
47263W        W15637  11.698  29.073   0.952
47264W        W15638   1.377   9.777   1.367
47265W        W15639  13.838  14.119  14.332
47266W        W15640   2.800   7.208  13.455
47267W        W15641  14.188  34.880  10.542
47268W        W15642  20.101  17.709  14.939
47269W        W15643  35.514  32.099   3.154
47270W        W15644   2.768   5.305   4.244
47271W        W15645  33.931  35.601   1.886
47272W        W15646  22.061  24.072  13.521
47273W        W15647  33.901   6.869   0.902
47274W        W15648  38.386  39.549  12.449
47275W        W15649  29.985   8.699   4.236
47276W        W15650   0.905  30.116   1.787
47277W        W15651   0.883  37.484  13.875
47278W        W15652  40.820  10.790   1.275
47279W        W15653  23.602   2.729   1.824
47280W        W15654   4.779   0.914   1.339
47281W        W15655  27.649  15.315  11.468
47282W        W15656  36.547  28.565  12.359
47283W        W15657  29.155  12.634  12.999
47284W        W15658   7.891  21.524  13.043
47285W        W15659  34.052  32.958  14.511
47286W        W15660  36.081  29.591   2.830
47287W        W15661  14.728  37.516   2.388
47288W        W15662   1.298  41.317   0.270
47289W        W15663  42.017  30.440   1.375
47290W        W15664   5.832  23.225  11.407
47291W        W15665  14.741  44.949  13.032
47292W        W15666  21.261  24.999   1.701
47293W        W15667  34.459  20.575  13.823
47294W        W15668  37.465  10.633  12.529
47295W        W15669  14.590  34.485  10.946
47296W        W15670  23.708   9.285   1.254
47297W        W15671   9.150  40.830   2.408
47298W        W15672   0.431   3.711  11.476
47299W        W15673  44.315   4.793   2.361
47300W        W15674  34.447  19.672  12.981
47301W        W15675  23.030   7.763  12.396
47302W        W15676  17.205   7.820   2.677
47303W        W15677   3.328  19.712   1.792
47304W        W15678  19.767   3.350   3.244
47305W        W15679   5.204  24.004   9.613
47306W        W15680  34.945   4.278  12.830
47307W        W15681  28.447  25.216  13.817
47308W        W15682  39.895  13.199   0.954
47309W        W15683  29.474  21.082  11.010
47310W        W15684  10.345   2.374  12.555
47311W        W15685  36.458  29.127  10.955
47312W        W15686   4.793  20.587   2.417
47313W        W15687  42.786   6.418   1.818
47314W        W15688  26.039  44.267   1.327
47315W        W15689  36.852  25.536  12.066
47316W        W15690  11.332  32.012   3.258
47317W        W15691  10.349   4.810  13.917
47318W        W15692  28.048   1.420   0.282
47319W        W15693   8.307  10.743  13.440
47320W        W15694   9.869  34.107  11.393
47321W        W15695  16.177  29.641  13.048
47322W        W15696  32.048  42.335  13.324
47323W        W15697   7.381  35.460   0.817
47324W        W15698  13.788  14.119   1.738
47325W        W15699  11.147  13.146   0.295
47326W        W15700   3.920  10.831   1.824
47327W        W15701  11.252  19.106   0.894
47328W        W15702  16.149  32.624   2.728
47329W        W15703  15.592  13.651  14.469
47330W        W15704  32.903  14.169  13.050
47331W        W15705   7.415  24.114  14.424
47332W        W15706   8.382  14.783   1.920
47333W        W15707  36.355  40.465   1.818
47334W        W15708  38.900  31.588  11.579
47335W        W15709  41.957  23.104   1.792
47336W        W15710  32.090  41.861  13.915
47337W        W15711  39.961  24.554  13.336
47338W        W15712  28.479  43.359   1.334
47339W        W15713  18.726  15.115   1.795
47340W        W15714  27.489  42.494  13.423
47341W        W15715  18.679   7.411   3.857
47342W        W15716  20.732  36.455   4.338
47343W        W15717   6.397  44.827  14.970
47344W        W15718  11.356  32.951  14.291
47345W        W15719   6.286  12.139   0.881
47346W        W15720  15.703  19.682   1.387
47347W        W15721  18.061  28.573  12.978
47348W        W15722  44.865  21.258  10.483
47349W        W15723   2.731   1.380  10.532
47350W        W15724  20.111  37.968  13.995
47351W        W15725   5.805   0.806   4.154
47352W        W15726   7.378  14.711  14.011
47353W        W15727   1.770   5.755   3.699
47354W        W15728  10.318  38.448  14.344
47355W        W15729  20.671  43.786  13.934
47356W        W15730   0.411  14.798   0.748
47357W        W15731  17.607   4.736   0.282
47358W        W15732  12.833  13.311   3.753
47359W        W15733  17.241  29.605  13.332
47360W        W15734  21.537  26.533  12.359
47361W        W15735  35.011  15.752  13.318
47362W        W15736  37.899  30.449   5.197
47363W        W15737  33.391  30.531  13.330
47364W        W15738  26.033  34.872   2.296
47365W        W15739  31.017  37.395  14.474
47366W        W15740  39.888  44.438  12.901
47367W        W15741  42.448  41.320  12.547
47368W        W15742  24.495   2.386  10.562
47369W        W15743   3.765  25.575  11.011
47370W        W15744  35.592   9.302  13.454
47371W        W15745  42.447   2.835  12.936
47372W        W15746  32.075   9.754  14.430
47373W        W15747  14.594  17.687   4.642
47374W        W15748  38.037  29.157  14.911
47375W        W15749  41.334  35.580  14.944
47376W        W15750  29.582  23.571   2.307
47377W        W15751   0.277  22.648  11.023
47378W        W15752  16.171  31.040  10.979
47379W        W15753   8.385  38.408  13.377
47380W        W15754  44.267   7.874  13.345
47381W        W15755   8.189  32.047  13.464
47382W        W15756  14.247  29.131   2.216
47383W        W15757  34.551  43.295   3.730
47384W        W15758   5.813  14.599  13.899
47385W        W15759  43.315   6.813   0.778
47386W        W15760   8.386  23.013  14.802
47387W        W15761  24.679  39.046  12.021
47388W        W15762  31.570  34.051   0.802
47389W        W15763   0.308   7.902  10.605
47390W        W15764  10.354  31.594  14.837
47391W        W15765  21.682  21.662  13.980
47392W        W15766   1.889  15.598   4.640
47393W        W15767  10.156  19.585   2.707
47394W        W15768  36.959  44.958  12.091
47395W        W15769  37.085  35.094   2.282
47396W        W15770  11.796  34.477  14.328
47397W        W15771  19.195   7.721   1.441
47398W        W15772  27.178   3.294   1.875
47399W        W15773  39.535  10.384   1.868
47400W        W15774  20.102  33.995  12.403
47401W        W15775  22.693  20.713  14.387
47402W        W15776   8.729   9.783  10.078
47403W        W15777  30.011   4.939   0.810
47404W        W15778  38.058  22.554  14.770
47405W        W15779  14.666  41.506   4.818
47406W        W15780  25.078  15.651  10.436
47407W        W15781  12.643  14.762   1.246
47408W        W15782  16.741  11.841   1.345
47409W        W15783  31.122  33.060   1.292
47410W        W15784  21.250   7.751   0.461
47411W        W15785  18.607   8.776  11.922
47412W        W15786  11.295  18.078  10.506
47413W        W15787   4.434  28.007  11.549
47414W        W15788  42.512  11.187   1.415
47415W        W15789  40.836  37.907  11.927
47416W        W15790   0.849   4.793  11.979
47417W        W15791  23.236  32.140  10.129
47418W        W15792  19.652   4.246  10.943
47419W        W15793  43.481   5.878   2.807
47420W        W15794  33.999  37.988  11.858
47421W        W15795  30.444  44.808  13.477
47422W        W15796  19.109  25.091   3.175
47423W        W15797  30.164  28.106   0.965
47424W        W15798  14.120  10.809   0.334
47425W        W15799  23.169  21.566   2.771
47426W        W15800  16.644  39.872   0.790
47427W        W15801   7.310  24.035  13.447
47428W        W15802  40.840  23.674   3.790
47429W        W15803  19.083  37.542   0.871
47430W        W15804   8.820   1.367  11.943
47431W        W15805  15.137  26.035   1.700
47432W        W15806  31.935  37.577  10.098
47433W        W15807   7.251  17.789   3.182
47434W        W15808  27.621  22.153   1.772
47435W        W15809  36.434  39.500  11.504
47436W        W15810  36.000  32.580  13.319
47437W        W15811  14.122  23.516  11.101
47438W        W15812  28.128  25.523   3.814
47439W        W15813   6.303   7.281  14.446
47440W        W15814  35.362   8.232  10.583
47441W        W15815  17.187  33.032   1.286
47442W        W15816  37.976  11.144  14.946
47443W        W15817   7.240  43.852  11.109
47444W        W15818   5.904  42.966  11.989
47445W        W15819  34.474  38.416  12.471
47446W        W15820   0.959  23.171  14.397
47447W        W15821  11.219  33.573   1.695
47448W        W15822  27.107  37.367  14.349
47449W        W15823   2.958  40.008   3.864
47450W        W15824  15.316  39.011  11.566
47451W        W15825   6.337  36.074   2.795
47452W        W15826  31.643  18.696   1.302
47453W        W15827  16.120  15.263   4.820
47454W        W15828  26.605   4.857  12.917
47455W        W15829  41.999   5.301   0.308
47456W        W15830  13.701  25.635  11.424
47457W        W15831  28.566   3.776   1.916
47458W        W15832  36.875  38.400   1.422
47459W        W15833  23.167  27.657  13.365
47460W        W15834  26.544  29.638   0.424
47461W        W15835  33.381   3.436   3.239
47462W        W15836  19.225   0.832  13.328
47463W        W15837  13.752  37.894  12.398
47464W        W15838  42.958  41.825   1.801
47465W        W15839  42.485   6.348   0.789
47466W        W15840  18.295  15.160   3.702
47467W        W15841  25.085  18.189  10.572
47468W        W15842   9.320  22.167  10.554
47469W        W15843  12.817  25.082   0.381
47470W        W15844   8.665  18.078  13.444
47471W        W15845  41.987  10.826   0.947
47472W        W15846   3.416  40.921   4.760
47473W        W15847  15.138  14.691   4.752
47474W        W15848  18.074   6.377  14.993
47475W        W15849  23.001  34.001   3.375
47476W        W15850  22.530  11.316  11.605
47477W        W15851  11.624  23.071   2.725
47478W        W15852  39.546  42.336  13.315
47479W        W15853  19.594  22.627   3.383
47480W        W15854  24.225   4.334  13.361
47481W        W15855  25.054  16.608  13.037
47482W        W15856  38.553  35.930   1.715
47483W        W15857  22.711  26.510  14.474
47484W        W15858  40.039  19.157  10.961
47485W        W15859  35.369  28.093  12.504
47486W        W15860  40.545  18.271  14.795
47487W        W15861   7.389  25.604   2.206
47488W        W15862   3.748  34.592  12.344
47489W        W15863   5.790  11.747  12.021
47490W        W15864  21.241  40.314  13.929
47491W        W15865  41.343  23.013  11.438
47492W        W15866  19.700  38.981   3.297
47493W        W15867  17.181  12.216  12.962
47494W        W15868  29.454  43.281  14.800
47495W        W15869  22.554   3.800   2.186
47496W        W15870  40.988  17.248  11.522
47497W        W15871   1.255  25.091   4.650
47498W        W15872  15.317   7.900   5.636
47499W        W15873   9.284  21.206  13.967
47500W        W15874   7.303  25.652  13.895
47501W        W15875  14.687  30.589  12.838
47502W        W15876   7.250   3.301   9.948
47503W        W15877  26.564   4.418  10.947
47504W        W15878  23.086  29.046  13.008
47505W        W15879  21.672  40.922  14.886
47506W        W15880   1.857  23.512   4.233
47507W        W15881  19.641   0.931  13.889
47508W        W15882  12.660  40.974  12.854
47509W        W15883  34.526   5.354  10.628
47510W        W15884  12.648  16.586  14.027
47511W        W15885   5.865  16.151   1.848
47512W        W15886  24.565  15.589   2.297
47513W        W15887  30.075  41.509   1.766
47514W        W15888   6.857  16.207   2.289
47515W        W15889  14.710  27.632  10.567
47516W        W15890  34.106  24.633   4.278
47517W        W15891  26.526  29.501  14.290
47518W        W15892  22.678  44.398   2.662
47519W        W15893  38.546   9.852   2.207
47520W        W15894  31.949  32.548   5.225
47521W        W15895  21.735  38.886   0.433
47522W        W15896  22.065   7.892  10.587
47523W        W15897  44.307  30.052  13.952
47524W        W15898  21.627  24.113   2.216
47525W        W15899  35.421  44.483  14.417
47526W        W15900  23.237  41.441   0.943
47527W        W15901   3.837  43.426  12.876
47528W        W15902  38.328   5.905  14.913
47529W        W15903   0.927  33.488   2.808
47530W        W15904   4.226   3.237  12.349
47531W        W15905  35.526  32.132  11.550
47532W        W15906   3.410  31.432  14.850
47533W        W15907  23.122   7.220   2.838
47534W        W15908   4.304  41.976  13.467
47535W        W15909  24.724  43.903   0.292
47536W        W15910   0.362  19.586  12.357
47537W        W15911  35.077  14.256   0.268
47538W        W15912  19.719   5.768   4.350
47539W        W15913  11.749   6.328   2.393
47540W        W15914  11.805   5.230   4.143
47541W        W15915   2.403  35.882   3.704
47542W        W15916   1.829  27.491   2.260
47543W        W15917  42.315  33.070   3.867
47544W        W15918  42.455  10.784   0.360
47545W        W15919  38.884  30.488   4.839
47546W        W15920  34.460   2.840  11.986
47547W        W15921   4.409  33.479   2.188
47548W        W15922  28.463  38.972  14.348
47549W        W15923  16.781  26.166   1.288
47550W        W15924  40.836  17.588  14.027
47551W        W15925  16.308  27.676  13.463
47552W        W15926  37.469   3.720   2.325
47553W        W15927  25.185   1.782   4.269
47554W        W15928  20.670  29.550   4.823
47555W        W15929  16.166  43.901  14.408
47556W        W15930  29.936  22.996  10.917
47557W        W15931   2.803  24.626   0.749
47558W        W15932   4.313  21.059  12.341
47559W        W15933  41.966  15.212   2.691
47560W        W15934  42.951   4.341  13.905
47561W        W15935  19.652  43.396   1.354
47562W        W15936  10.234  18.280  10.430
47563W        W15937  18.680  13.786   2.747
47564W        W15938  33.381  31.946   1.252
47565W        W15939  15.746  15.321  14.845
47566W        W15940  15.312   6.847   3.845
47567W        W15941  18.691  14.137   3.638
47568W        W15942  40.423  38.063  11.912
47569W        W15943  29.138  26.968   4.649
47570W        W15944  28.142  20.066   1.389
47571W        W15945  14.808  13.145  13.939
47572W        W15946  30.012  39.451   0.466
47573W        W15947   6.913   2.858   1.768
47574W        W15948  26.530   3.391   1.715
47575W        W15949  44.378   2.850   2.704
47576W        W15950  31.111  30.500  14.011
47577W        W15951  26.188  13.291  10.492
47578W        W15952  14.289  28.642   0.770
47579W        W15953   0.438  13.217  12.919
47580W        W15954  35.410  18.772  11.126
47581W        W15955  36.391  32.598  12.838
47582W        W15956  22.212  31.104  12.421
47583W        W15957  30.068  11.271  12.445
47584W        W15958  28.067  31.455  12.436
47585W        W15959   1.740  24.149   2.899
47586W        W15960  26.087  42.899   1.851
47587W        W15961  32.108  17.187   5.152
47588W        W15962  31.621  10.144  11.122
47589W        W15963  44.481  42.929   0.474
47590W        W15964  37.892  35.365   1.905
47591W        W15965  41.426  39.945  12.089
47592W        W15966  41.525   8.292  13.870
47593W        W15967  20.112  40.525  13.794
47594W        W15968   5.234  12.685  11.877
47595W        W15969  43.481  11.857   4.667
47596W        W15970  42.996  44.374   5.198
47597W        W15971  33.942  12.696   1.717
47598W        W15972   1.753  28.134  11.927
47599W        W15973  22.155  15.174  14.508
47600W        W15974  22.633   1.287   2.802
47601W        W15975  27.159  43.310  13.861
47602W        W15976  25.468  34.416   4.225
47603W        W15977  17.721  26.076  13.804
47604W        W15978  25.540  30.011  14.763
47605W        W15979   8.881  20.153  11.876
47606W        W15980  22.144  16.150   0.379
47607W        W15981   7.745  18.608  13.402
47608W        W15982  17.250  17.284   2.903
47609W        W15983  15.152  40.539  14.403
47610W        W15984   9.307  12.253  14.933
47611W        W15985  29.954  14.223  13.811
47612W        W15986  37.898  29.622   1.876
47613W        W15987  17.095  19.115   2.414
47614W        W15988   8.704  41.880  13.878
47615W        W15989  37.427   4.785  13.320
47616W        W15990  42.937  16.612  12.908
47617W        W15991  21.619   7.886  12.356
47618W        W15992  34.610  27.609   2.759
47619W        W15993   9.710  34.060   3.740
47620W        W15994  19.763  27.049   1.783
47621W        W15995   5.196   0.849   1.372
47622W        W15996  26.674  15.272   0.782
47623W        W15997  14.126  14.163  14.941
47624W        W15998  36.915  34.580   1.733
47625W        W15999   9.753   3.711   0.273
47626W        W16000  34.043  21.236   2.367
47627W        W16001  16.165  21.528  14.962
47628W        W16002  11.694  35.922   2.724
47629W        W16003  43.439  24.699   3.849
47630W        W16004   6.686  42.291   2.201
47631W        W16005   4.375  28.445  13.528
47632W        W16006  37.395  27.485   0.257
47633W        W16007  19.680  20.074   4.172
47634W        W16008  31.596   5.888  10.551
47635W        W16009  35.996  11.832   2.795
47636W        W16010  33.489  40.918  11.060
47637W        W16011  40.814  26.565  14.025
47638W        W16012   5.404  42.507  13.494
47639W        W16013  17.593  29.550   3.262
47640W        W16014  40.936  40.304  10.903
47641W        W16015  38.466   3.942   2.307
47642W        W16016  17.257  21.229  10.916
47643W        W16017  33.075  22.502   4.754
47644W        W16018  40.876  44.486  14.960
47645W        W16019  27.567  12.149  14.352
47646W        W16020  36.539  15.752  12.923
47647W        W16021   4.404  38.348   0.414
47648W        W16022  23.001  37.387   0.421
47649W        W16023  25.709  41.865  14.903
47650W        W16024   5.286   1.958  14.991
47651W        W16025  37.551  28.494  11.535
47652W        W16026  10.207  18.090   0.287
47653W        W16027  19.623  40.389  10.937
47654W        W16028   6.322  31.541  10.629
47655W        W16029  34.965  20.579  11.381
47656W        W16030  18.182   3.900  12.566
47657W        W16031   7.328  30.150  12.898
47658W        W16032  39.370   3.721   4.610
47659W        W16033  35.989  24.096  10.457
47660W        W16034   0.421  25.046   2.188
47661W        W16035  22.722   7.284  10.939
47662W        W16036  25.180  20.270  11.441
47663W        W16037  31.964  23.731   2.766
47664W        W16038  18.101  14.783  13.401
47665W        W16039  13.227  31.457   2.346
47666W        W16040  36.982  39.931  10.432
47667W        W16041  30.500  38.026  13.893
47668W        W16042  35.011  27.495  14.344
47669W        W16043  22.190  31.957   4.657
47670W        W16044  40.545  11.675  13.968
47671W        W16045   1.422  16.266  12.423
47672W        W16046  29.948  38.370   2.689
47673W        W16047  19.079   0.926  14.862
47674W        W16048  34.866  41.403  10.014
47675W        W16049  18.076  25.663   3.283
47676W        W16050  19.548   5.363   0.300
47677W        W16051   3.725   4.706  10.540
47678W        W16052  20.603  44.777  11.033
47679W        W16053   0.418  31.490   3.672
47680W        W16054  16.139  23.190  12.349
47681W        W16055   4.863   7.368   3.666
47682W        W16056  44.974   9.844   0.311
47683W        W16057  32.593   7.870  13.812
47684W        W16058  31.573   4.277   4.349
47685W        W16059  41.887  23.720  14.493
47686W        W16060  22.027  25.579  10.444
47687W        W16061  10.860  27.617  13.381
47688W        W16062  40.874  19.677  14.320
47689W        W16063   7.211  41.934  10.561
47690W        W16064  36.368  27.640  10.956
47691W        W16065  15.602   3.883   3.213
47692W        W16066  24.986  25.567   2.742
47693W        W16067   2.348   5.792  14.816
47694W        W16068  34.876  18.733  13.350
47695W        W16069  31.143   7.333  14.478
47696W        W16070  35.517  13.332   4.207
47697W        W16071   3.922  30.052   1.719
47698W        W16072  31.615   2.872   0.390
47699W        W16073  31.535  16.664   2.339
47700W        W16074  26.067   2.299  13.460
47701W        W16075  41.423  12.760   1.318
47702W        W16076  31.134  25.611  11.949
47703W        W16077   3.290  42.981  12.557
47704W        W16078   6.893   8.174  10.532
47705W        W16079  24.078  40.928   2.865
47706W        W16080  18.633   6.418   9.955
47707W        W16081  15.633  27.634   3.150
47708W        W16082  35.542  10.780   1.281
47709W        W16083  25.029  14.812  13.912
47710W        W16084  29.668  11.137   4.797
47711W        W16085  12.756  36.460   3.263
47712W        W16086  11.824  26.008  10.473
47713W        W16087  38.850  23.050  12.955
47714W        W16088  14.809   8.169   5.785
47715W        W16089  41.959   7.826   1.353
47716W        W16090   2.437  15.210  11.032
47717W        W16091  27.554  28.578   1.379
47718W        W16092  31.415  12.159  12.521
47719W        W16093  44.314  29.424   3.162
47720W        W16094  17.271   5.423  11.600
47721W        W16095  39.428   6.243  14.310
47722W        W16096   6.733   6.254   4.687
47723W        W16097   5.899   2.731  10.638
47724W        W16098  24.075  12.820  11.009
47725W        W16099   3.909  19.180  10.905
47726W        W16100  37.506  20.670  12.525
47727W        W16101  11.857  23.235  12.417
47728W        W16102   6.315  38.421   4.306
47729W        W16103  27.086  34.442   4.172
47730W        W16104   8.857  32.435   4.729
47731W        W16105  10.336   7.238   5.271
47732W        W16106  14.276   8.192   1.241
47733W        W16107  43.431  35.987  11.977
47734W        W16108  29.920  25.103  10.637
47735W        W16109  13.635   1.924   0.314
47736W        W16110   9.318   1.899   2.328
47737W        W16111  17.702   9.766   0.370
47738W        W16112  27.596  32.009  14.403
47739W        W16113  36.420  12.295  12.862
47740W        W16114  44.836  15.732   3.766
47741W        W16115  11.250  34.961  14.416
47742W        W16116  26.096  10.791  11.974
47743W        W16117  17.558  24.992   2.230
47744W        W16118  14.614  20.526  11.485
47745W        W16119  22.566  37.468   0.943
47746W        W16120  42.372  26.034  14.988
47747W        W16121  28.649   7.217  13.985
47748W        W16122  10.822  42.479   4.710
47749W        W16123  32.897  32.120  14.368
47750W        W16124  28.533  18.564  12.348
47751W        W16125   6.876  10.654   3.149
47752W        W16126  12.279   2.459   3.185
47753W        W16127  20.145   9.357  14.993
47754W        W16128  12.229   1.462   0.377
47755W        W16129  17.153  38.989   1.305
47756W        W16130  26.164  21.517  11.452
47757W        W16131   5.417  19.215  14.399
47758W        W16132   6.301  20.684   4.635
47759W        W16133  15.230  35.002   1.709
47760W        W16134  14.167   2.333   1.319
47761W        W16135  42.360  25.100  12.878
47762W        W16136  41.438  10.279   4.145
47763W        W16137  25.088   3.896   0.735
47764W        W16138  15.756  35.572   2.849
47765W        W16139  22.054  15.120  14.923
47766W        W16140  33.037  37.491   3.734
47767W        W16141   5.381   3.370  10.486
47768W        W16142  31.949  30.612  12.926
47769W        W16143  33.523  19.681  12.830
47770W        W16144  44.997  23.672   2.282
47771W        W16145  36.062   1.474   1.736
47772W        W16146  17.108  23.089  14.766
47773W        W16147  29.958  36.389   3.847
47774W        W16148  35.559  14.095   3.733
47775W        W16149  40.825  36.859  11.485
47776W        W16150  42.298  26.104  12.837
47777W        W16151  32.049  35.483   0.415
47778W        W16152  11.741  17.284   3.331
47779W        W16153   0.745  33.998  10.524
47780W        W16154  33.387  41.000   1.369
47781W        W16155  18.258  26.013  14.400
47782W        W16156  14.788  11.783   0.470
47783W        W16157   0.937  25.566   1.365
47784W        W16158   0.769  26.700   3.809
47785W        W16159  17.645  37.494  13.992
47786W        W16160  33.468  40.400  14.816
47787W        W16161  11.710  31.910   4.828
47788W        W16162   0.366  35.545   1.933
47789W        W16163  31.607   7.879  13.547
47790W        W16164  44.359  37.467  14.448
47791W        W16165  14.762  24.151  13.518
47792W        W16166  41.518   5.783  14.408
47793W        W16167   4.352  36.964   0.400
47794W        W16168  21.570  24.088   3.768
47795W        W16169  29.049  33.045  14.367
47796W        W16170   4.226  14.188   2.756
47797W        W16171   9.810  28.964  13.824
47798W        W16172  18.724   1.299   2.776
47799W        W16173   0.489  25.966  12.433
47800W        W16174  39.906  42.873   1.260
47801W        W16175  30.530  35.379  14.788
47802W        W16176   0.480   0.986  11.056
47803W        W16177  42.498  24.154  12.525
47804W        W16178  13.198   1.477   2.353
47805W        W16179  15.636  39.350   3.290
47806W        W16180   1.890  28.963   2.397
47807W        W16181  31.042  33.447   2.265
47808W        W16182   7.264  20.525  10.995
47809W        W16183  17.239   2.296  12.975
47810W        W16184  15.196  13.822   3.641
47811W        W16185  41.299  19.099   0.822
47812W        W16186   2.472  29.665   4.748
47813W        W16187  38.417  39.381  10.492
47814W        W16188  12.304  11.819  14.454
47815W        W16189  10.160  33.468  10.506
47816W        W16190  31.444  15.269   1.746
47817W        W16191  29.574  20.134   0.900
47818W        W16192  18.276  39.990   0.805
47819W        W16193  37.003  37.412   4.771
47820W        W16194  12.260  41.970  13.386
47821W        W16195  37.578   4.322   3.275
47822W        W16196  41.476   4.910  13.854
47823W        W16197  14.271   8.677  14.375
47824W        W16198  42.875  23.093  11.944
47825W        W16199  31.625  31.061   3.737
47826W        W16200  14.665  20.060   3.171
47827W        W16201  28.004  40.938   2.407
47828W        W16202  23.631  42.798   1.441
47829W        W16203  17.636  22.032   0.251
47830W        W16204  42.007  31.932   0.340
47831W        W16205   8.740  43.834  14.985
47832W        W16206   3.439  13.757   0.262
47833W        W16207  17.747   3.298   4.250
47834W        W16208  43.452  44.833  11.897
47835W        W16209   3.810  22.132   2.417
47836W        W16210  29.149   2.233   0.419
47837W        W16211  14.333   3.271   0.966
47838W        W16212  21.262   8.268   3.791
47839W        W16213  23.655  28.549   0.847
47840W        W16214  33.435   5.849   0.872
47841W        W16215  30.426  39.848  13.500
47842W        W16216  28.154  21.641  12.374
47843W        W16217   9.660  24.003   4.186
47844W        W16218  22.689  27.620  12.838
47845W        W16219  37.581  36.078   9.927
47846W        W16220  41.838  22.629   3.343
47847W        W16221  44.793  24.009  10.970
47848W        W16222  19.658   3.245   0.292
47849W        W16223  11.207   2.736  11.007
47850W        W16224  17.560  24.676   0.416
47851W        W16225  40.807   1.873  13.317
47852W        W16226  27.082  35.546   1.889
47853W        W16227   6.201  14.263   0.932
47854W        W16228   3.408  40.915  10.988
47855W        W16229   8.248  14.713   0.731
47856W        W16230  42.806   6.218  11.043
47857W        W16231  31.548   9.826   4.317
47858W        W16232  33.539   2.408  12.830
47859W        W16233  40.839  32.110   4.345
47860W        W16234  44.287  40.412  14.862
47861W        W16235   7.403  25.047   1.820
47862W        W16236  19.692  22.537  12.946
47863W        W16237  26.953  37.365   2.332
47864W        W16238  33.623  17.196   2.878
47865W        W16239  43.507  20.073  11.038
47866W        W16240  18.067  38.824   4.254
47867W        W16241  10.249  20.575   2.835
47868W        W16242  16.285   5.775   2.885
47869W        W16243  25.617  11.152   1.884
47870W        W16244  27.106  23.650  11.534
47871W        W16245  30.009  24.663   0.916
47872W        W16246   3.364  32.964  12.416
47873W        W16247  10.337   7.666  13.383
47874W        W16248   2.781  27.096   4.256
47875W        W16249  22.528  35.382   4.157
47876W        W16250  23.612   1.382  13.307
47877W        W16251   0.263  11.750  11.037
47878W        W16252  23.612  43.944   2.846
47879W        W16253   1.898  20.748   2.227
47880W        W16254  15.221  36.059   4.116
47881W        W16255  19.604   9.185  12.567
47882W        W16256  39.469  14.789   2.394
47883W        W16257  37.969  32.627   2.253
47884W        W16258  15.204  40.488  13.414
47885W        W16259  19.060   2.731  11.517
47886W        W16260  42.412   4.449   0.427
47887W        W16261  18.193  32.985  11.434
47888W        W16262   0.815  43.393   4.158
47889W        W16263  29.640  11.800  11.070
47890W        W16264  29.102  40.816  13.989
47891W        W16265   0.401  26.168  10.912
47892W        W16266  39.019  11.335   1.707
47893W        W16267  41.859  43.993  11.541
47894W        W16268   8.308  25.501   2.847
47895W        W16269  38.523  44.922  13.058
47896W        W16270  17.568  14.143   4.665
47897W        W16271  11.772  23.722  10.018
47898W        W16272   0.948  15.115  12.085
47899W        W16273   4.283   8.870  13.811
47900W        W16274  41.912  21.697   1.278
47901W        W16275   3.258  27.692  13.003
47902W        W16276  16.643  41.790  13.909
47903W        W16277  21.231   1.881  10.465
47904W        W16278   0.303   7.399  11.560
47905W        W16279   9.744  33.511  14.805
47906W        W16280  14.336  41.521   4.728
47907W        W16281  27.054  19.203   1.437
47908W        W16282  35.534  30.150   1.230
47909W        W16283  38.564   8.866   4.134
47910W        W16284  25.527  17.751  12.490
47911W        W16285  21.161  20.697   4.281
47912W        W16286  25.545  13.208  10.626
47913W        W16287   9.756  34.870  12.914
47914W        W16288   1.838  33.083  14.961
47915W        W16289   9.817  30.531   2.704
47916W        W16290  30.133  32.481  13.362
47917W        W16291   4.397   7.823  13.040
47918W        W16292  41.451  31.050  10.947
47919W        W16293   0.255  16.675   0.412
47920W        W16294  42.397  31.445  12.837
47921W        W16295  29.480  43.933   3.702
47922W        W16296  13.609  18.266  11.912
47923W        W16297  31.484  34.528  14.479
47924W        W16298  21.042  39.348   0.851
47925W        W16299  16.173  41.876  12.345
47926W        W16300   2.307  42.481  13.523
47927W        W16301  12.134  39.970   3.730
47928W        W16302  13.239   9.166   0.465
47929W        W16303  38.550  20.693   2.358
47930W        W16304  23.028  16.121   0.366
47931W        W16305   2.757  14.179  14.281
47932W        W16306  44.908  25.654   1.763
47933W        W16307   6.338  42.009   1.926
47934W        W16308  38.404  27.629   3.843
47935W        W16309  26.649  38.418   1.864
47936W        W16310  43.464  13.112  13.330
47937W        W16311  17.691  34.496  11.423
47938W        W16312  15.640  22.597   3.777
47939W        W16313  16.303  40.441  10.133
47940W        W16314  27.691   3.404   0.898
47941W        W16315  28.158  41.359  12.899
47942W        W16316  33.900  39.551   2.682
47943W        W16317  25.485  39.831  13.336
47944W        W16318   4.261   1.350  13.946
47945W        W16319  16.641  22.621  10.946
47946W        W16320   5.210  43.808  13.989
47947W        W16321  42.510  10.869   2.677
47948W        W16322  44.352  22.524  11.594
47949W        W16323   3.270  11.206   4.662
47950W        W16324  36.519  33.884  13.458
47951W        W16325   0.412  14.143   3.807
47952W        W16326  29.984  29.478  11.423
47953W        W16327  30.044  35.046   2.235
47954W        W16328  19.060  32.569   2.218
47955W        W16329  39.963  25.006   2.771
47956W        W16330   9.724   1.416   0.292
47957W        W16331   9.725  13.674  14.949
47958W        W16332  24.096  41.007   3.239
47959W        W16333   4.369  37.016   2.755
47960W        W16334  44.501  18.164   0.907
47961W        W16335   2.923  33.014  12.406
47962W        W16336  31.111   0.354  13.333
47963W        W16337   8.240   0.477  10.417
47964W        W16338  12.830   6.908  14.472
47965W        W16339  42.019  14.648  11.075
47966W        W16340  39.451  41.889  10.417
47967W        W16341  14.121  24.070  12.897
47968W        W16342  43.437  18.064  13.851
47969W        W16343  41.485  25.658   2.307
47970W        W16344  44.420  28.670   1.710
47971W        W16345  41.901  40.933   3.676
47972W        W16346  27.958   8.342   1.292
47973W        W16347  32.536  14.673   2.352
47974W        W16348   3.356  43.793   4.139
47975W        W16349   0.367  24.121   4.317
47976W        W16350  33.997  10.246   1.335
47977W        W16351  40.919  24.043   2.335
47978W        W16352  15.316  22.710   4.266
47979W        W16353  30.614  27.030  11.600
47980W        W16354  10.261  19.648  11.909
47981W        W16355  19.617  37.865  13.879
47982W        W16356  41.829  14.104   4.114
47983W        W16357  43.947   3.416  11.489
47984W        W16358  21.134   7.224  14.949
47985W        W16359  29.077   0.464  11.893
47986W        W16360   7.221  36.847  12.453
47987W        W16361   4.734  32.095   0.317
47988W        W16362   4.849  26.155   4.692
47989W        W16363  20.617  18.733  13.406
47990W        W16364  19.593  25.137   0.273
47991W        W16365  12.149  28.964  11.476
47992W        W16366  39.855   7.775   5.225
47993W        W16367  19.730   6.689  10.582
47994W        W16368  31.963   1.471   4.231
47995W        W16369  32.909  10.702  12.467
47996W        W16370  32.450  13.117  10.616
47997W        W16371   1.977  32.548  12.901
47998W        W16372  30.953  38.052   2.196
47999W        W16373   2.271  20.525   4.809
48000W        W16374  11.670  13.600  12.029
48001W        W16375   8.833   2.841  11.078
48002W        W16376  39.418  28.084   0.743
48003W        W16377   7.395  17.645  14.349
48004W        W16378   4.705  30.066   4.681
48005W        W16379  30.925  24.650  13.842
48006W        W16380  40.897   8.261   4.816
48007W        W16381   6.388   6.405  12.509
48008W        W16382   1.914  30.035  13.398
48009W        W16383  15.311  37.564   0.445
48010W        W16384  31.581  19.588  10.512
48011W        W16385  23.989  32.566   0.740
48012W        W16386  36.549  18.225  14.430
48013W        W16387  24.678  32.123  12.948
48014W        W16388  26.048  23.125   1.368
48015W        W16389   9.673  27.950   0.321
48016W        W16390   4.326  22.226   4.259
48017W        W16391  12.338  19.700  14.289
48018W        W16392  25.567  33.075   3.842
48019W        W16393   5.902   9.347  11.938
48020W        W16394   7.734  21.066  13.949
48021W        W16395  34.978  14.633  10.452
48022W        W16396  22.568  27.951   0.734
48023W        W16397  41.974  24.613  10.889
48024W        W16398  31.090   8.337  11.482
48025W        W16399  11.748  32.434  14.785
48026W        W16400   6.318   0.297  14.347
48027W        W16401  36.935  30.510  14.863
48028W        W16402   6.722  12.783  13.515
48029W        W16403   7.309  13.641   4.242
48030W        W16404   3.303  23.148  12.066
48031W        W16405   6.764  12.772   3.301
48032W        W16406   0.953  27.677  11.405
48033W        W16407  35.548  36.555   1.740
48034W        W16408   6.201   6.768   4.315
48035W        W16409  29.608  43.439  10.159
48036W        W16410   5.292  30.122  12.067
48037W        W16411  40.913  44.815   0.477
48038W        W16412  42.032  10.857   4.164
48039W        W16413  25.135  20.158   0.751
48040W        W16414   7.791  11.312   2.339
48041W        W16415  44.318  13.644   1.395
48042W        W16416  25.172  17.292   2.697
48043W        W16417  38.031  10.279  12.833
48044W        W16418  23.712  18.108  14.932
48045W        W16419  34.910  26.114  11.541
48046W        W16420  44.966  35.038  14.470
48047W        W16421  31.113  30.479   0.456
48048W        W16422  23.157   7.259  12.016
48049W        W16423   3.769  16.671   2.319
48050W        W16424   4.395  40.532  13.373
48051W        W16425  38.886  24.039   0.354
48052W        W16426  35.061  21.145  12.999
48053W        W16427  34.472  13.333  12.340
48054W        W16428  39.350  35.517   4.265
48055W        W16429   6.276   5.242   5.213
48056W        W16430  44.833  33.593  10.596
48057W        W16431  20.734  42.971   3.639
48058W        W16432  32.420  37.455   2.796
48059W        W16433  44.370   5.281   0.858
48060W        W16434  26.562  39.360  11.926
48061W        W16435  12.247   0.357   2.844
48062W        W16436   8.239   5.842  10.456
48063W        W16437  13.280   6.236  10.112
48064W        W16438   2.805  29.037  12.450
48065W        W16439  20.680   3.270  13.053
48066W        W16440  12.682  40.517  13.800
48067W        W16441  38.952  32.020   4.742
48068W        W16442  28.542  37.545  14.278
48069W        W16443  36.493   2.255   2.886
48070W        W16444  41.369  35.964   4.178
48071W        W16445  10.343  19.779  11.071
48072W        W16446  23.195  17.126  12.478
48073W        W16447   3.242  24.173  10.460
48074W        W16448  18.574  22.629   1.760
48075W        W16449   7.779  31.093   0.307
48076W        W16450  41.423  13.759   4.751
48077W        W16451   1.332  18.639  10.920
48078W        W16452  22.701  19.701  13.797
48079W        W16453  28.998  32.004   1.771
48080W        W16454  20.085  44.845   3.284
48081W        W16455  23.160  34.030  14.966
48082W        W16456  36.495   5.382  13.447
48083W        W16457  19.639  24.202  12.091
48084W        W16458  37.005   0.819   0.791
48085W        W16459  33.439  16.143   4.814
48086W        W16460   2.868  40.510   3.316
48087W        W16461  34.930  23.234  11.984
48088W        W16462   4.307  43.877   4.204
48089W        W16463   7.742   8.775   3.350
48090W        W16464  28.081   0.265   2.756
48091W        W16465  12.854  18.608   3.702
48092W        W16466  35.880   8.253   2.316
48093W        W16467  39.442   0.917   4.722
48094W        W16468  27.978  41.987  10.131
48095W        W16469  33.114  10.866   2.685
48096W        W16470   4.252  12.246   0.291
48097W        W16471  29.551   8.692   0.748
48098W        W16472  21.684  34.449   1.725
48099W        W16473  17.741  12.355  11.559
48100W        W16474  20.640  16.213  11.544
48101W        W16475  41.989  35.497  12.861
48102W        W16476  14.830  12.634   4.741
48103W        W16477   5.691  14.700   2.881
48104W        W16478  23.012   2.950  10.932
48105W        W16479  39.414  32.476   0.732
48106W        W16480  23.618  15.286  10.039
48107W        W16481  10.271  36.849   4.127
48108W        W16482  19.270  42.808   4.662
48109W        W16483   8.887  19.231   2.195
48110W        W16484  38.985  35.419  12.838
48111W        W16485  34.420  33.463  12.060
48112W        W16486   9.651  23.672   0.369
48113W        W16487  32.130  13.256  15.000
48114W        W16488  14.219  31.118   4.275
48115W        W16489  25.531  24.015   3.214
48116W        W16490  29.487  38.893  11.938
48117W        W16491   9.219  28.069   0.862
48118W        W16492  24.143  24.098   2.814
48119W        W16493  10.278  23.570  13.882
48120W        W16494  32.955  30.050  13.978
48121W        W16495   5.900   1.260   3.768
48122W        W16496  31.919  26.584   2.746
48123W        W16497  35.514  43.427   2.391
48124W        W16498  34.473  34.912   3.824
48125W        W16499  25.188  25.572  14.282
48126W        W16500  38.066  39.000   0.478
48127W        W16501   4.251  43.919   2.232
48128W        W16502  35.934  33.104   3.215
48129W        W16503  28.436  16.141  14.810
48130W        W16504  24.135  38.510   4.199
48131W        W16505  21.044  23.157   1.756
48132W        W16506  25.561  28.934  11.582
48133W        W16507  10.797  16.275  13.439
48134W        W16508  34.422  23.040  13.412
48135W        W16509   2.468  39.506  11.374
48136W        W16510  41.797  29.631  13.940
48137W        W16511  12.626   3.334   5.310
48138W        W16512   4.925   3.780   3.168
48139W        W16513  24.546   4.812   0.901
48140W        W16514  15.321  43.958  14.845
48141W        W16515  29.153  11.220   3.273
48142W        W16516  24.217  20.668   4.603
48143W        W16517   2.440  13.698  10.938
48144W        W16518  28.940  32.141   2.369
48145W        W16519  21.096  18.582   4.790
48146W        W16520  33.614  11.730  12.040
48147W        W16521   9.179  20.221  13.329
48148W        W16522   9.150   3.234  11.121
48149W        W16523  24.191  14.730   0.761
48150W        W16524  44.354  25.595   0.823
48151W        W16525  22.576   7.195  11.421
48152W        W16526  40.353   3.754  10.479
48153W        W16527   8.727  16.627   4.156
48154W        W16528  14.265  30.494   1.916
48155W        W16529  42.932  33.404  14.512
48156W        W16530   6.215  40.469   4.353
48157W        W16531  28.179  40.352   5.099
48158W        W16532   9.766  10.332  10.465
48159W        W16533  30.159  20.036   0.278
48160W        W16534  17.276   3.292   4.125
48161W        W16535  30.968  19.647   0.253
48162W        W16536  34.474   2.274   2.232
48163W        W16537  33.114  42.462  11.528
48164W        W16538  32.896   4.911  11.541
48165W        W16539   9.188   9.807  10.922
48166W        W16540  12.216   4.883  11.422
48167W        W16541  15.700  37.575  12.014
48168W        W16542  28.984   3.363   2.300
48169W        W16543  33.444  22.117   4.800
48170W        W16544  17.733   5.388  13.501
48171W        W16545  19.102  42.833   0.859
48172W        W16546  43.821  23.238  12.049
48173W        W16547   6.376  16.681   3.650
48174W        W16548  17.794  35.533  12.044
48175W        W16549   0.458   8.212  10.624
48176W        W16550  38.074   8.310  14.440
48177W        W16551  21.644  37.012  12.018
48178W        W16552  31.124   4.709   2.211
48179W        W16553  40.816  38.930   4.679
48180W        W16554  12.801   6.912   0.368
48181W        W16555  29.596  29.074  13.387
48182W        W16556  28.548   7.806  12.351
48183W        W16557  40.494  34.546  11.013
48184W        W16558  41.322  27.599   0.846
48185W        W16559  17.579  24.038  14.981
48186W        W16560  41.301  16.277  13.402
48187W        W16561   7.737  25.135  11.071
48188W        W16562   6.348  28.495  11.383
48189W        W16563  27.643  41.407   2.215
48190W        W16564  19.706  11.171  14.433
48191W        W16565   7.763  21.633   4.116
48192W        W16566  37.948  25.984   2.860
48193W        W16567  21.191  41.399  14.493
48194W        W16568  32.538   8.700  13.806
48195W        W16569  24.064  33.013  11.470
48196W        W16570  32.084  39.859  13.797
48197W        W16571  15.305  27.167  10.903
48198W        W16572  11.369  35.600  10.629
48199W        W16573   2.237  43.826   0.947
48200W        W16574  25.079  18.292   4.764
48201W        W16575  35.591  28.623  11.377
48202W        W16576  38.068  32.140   3.818
48203W        W16577  42.493  41.338   3.232
48204W        W16578  28.583  32.561   4.274
48205W        W16579   9.321   6.914  13.426
48206W        W16580  24.977  33.119   1.829
48207W        W16581  11.163  12.654   2.742
48208W        W16582  35.472  15.203   0.428
48209W        W16583   1.868  12.706  14.801
48210W        W16584  35.936  27.146  13.410
48211W        W16585   8.395  37.074   1.255
48212W        W16586  36.440  38.417   2.806
48213W        W16587  38.399  20.573  12.382
48214W        W16588  16.210  17.688   0.855
48215W        W16589   7.248  11.801  11.122
48216W        W16590   1.256   7.362   4.284
48217W        W16591   0.267  18.690  12.341
48218W        W16592  27.176  22.099   4.245
48219W        W16593  10.152  23.524   1.373
48220W        W16594  28.172  37.398   2.760
48221W        W16595   2.382  26.110  10.523
48222W        W16596   9.755  30.028  14.483
48223W        W16597  30.936  43.848  13.913
48224W        W16598  19.628  26.668   4.194
48225W        W16599  20.722  44.970   4.166
48226W        W16600  40.039  35.524   3.724
48227W        W16601  43.847  24.133   2.820
48228W        W16602  33.078  33.452   3.859
48229W        W16603  17.662  39.368   2.753
48230W        W16604  12.708  36.011   1.764
48231W        W16605   3.768  24.480   0.309
48232W        W16606  23.582  10.665  11.924
48233W        W16607  36.551   5.295  13.916
48234W        W16608  15.275  40.375   3.686
48235W        W16609  41.470   0.328  11.474
48236W        W16610  33.923  37.000   2.331
48237W        W16611  38.862  44.766  14.981
48238W        W16612  14.305  36.086  10.513
48239W        W16613  39.818  35.914   3.255
48240W        W16614  26.010  22.634   1.446
48241W        W16615  40.363  28.648   1.301
48242W        W16616  38.540  42.020  14.497
48243W        W16617  14.665   8.184   9.628
48244W        W16618  38.039  12.180  12.990
48245W        W16619   9.718   4.941  12.427
48246W        W16620   8.773   0.978  12.420
48247W        W16621  15.766  13.820   2.233
48248W        W16622  29.517   0.752   2.878
48249W        W16623  16.192  40.387   4.597
48250W        W16624  16.723   2.389  13.926
48251W        W16625   6.826  29.095  11.429
48252W        W16626  28.113  15.205   1.239
48253W        W16627  22.151   3.251   2.200
48254W        W16628  20.243  39.037   4.299
48255W        W16629  18.225  30.521  10.989
48256W        W16630  41.812  19.243   3.670
48257W        W16631  22.231  32.500  14.300
48258W        W16632  23.495  41.985   2.200
48259W        W16633  19.557  36.454  14.309
48260W        W16634   5.225  41.002  13.934
48261W        W16635   9.270  34.060  12.915
48262W        W16636  31.104   2.242   1.771
48263W        W16637   8.301  14.241   4.744
48264W        W16638   3.268  29.494   4.600
48265W        W16639  43.419   8.266   0.782
48266W        W16640   6.861   9.361  11.396
48267W        W16641   7.204   0.492   0.868
48268W        W16642  43.891  21.707   1.431
48269W        W16643  22.527   9.643   4.660
48270W        W16644  36.063  28.954   2.805
48271W        W16645  21.076  22.183   3.714
48272W        W16646  35.891  37.435  13.915
48273W        W16647  34.070  40.956   3.286
48274W        W16648   8.198  31.630  14.772
48275W        W16649  11.136  21.071   0.752
48276W        W16650   4.809   0.767   3.306
48277W        W16651  31.948  36.381  14.027
48278W        W16652  17.677  39.535  13.006
48279W        W16653  40.893  43.304  12.034
48280W        W16654  24.598  39.964   4.634
48281W        W16655   6.212  17.188  10.995
48282W        W16656  41.509  21.710   0.919
48283W        W16657  30.949  15.716   1.903
48284W        W16658  14.250  34.528   4.204
48285W        W16659  27.566   8.892   1.384
48286W        W16660  37.988   9.690  13.006
48287W        W16661  42.008   4.288   4.245
48288W        W16662  33.025  33.410   4.741
48289W        W16663  17.625  16.645  13.392
48290W        W16664  21.521  38.018  12.846
48291W        W16665   0.963  38.369   1.397
48292W        W16666  38.939  31.069   1.839
48293W        W16667   5.762  21.586  12.973
48294W        W16668  20.217   7.327  11.124
48295W        W16669  44.906  20.627  14.966
48296W        W16670  22.175  16.081  14.859
48297W        W16671  13.764  12.828   1.871
48298W        W16672   2.761  31.071   2.837
48299W        W16673  13.153  29.562  13.402
48300W        W16674   3.946  40.330  14.465
48301W        W16675  35.034  22.608  13.040
48302W        W16676  23.516  42.525  12.395
48303W        W16677  16.263  22.138  13.943
48304W        W16678  33.592  42.371   4.127
48305W        W16679  44.832  32.510  13.025
48306W        W16680  11.223  40.471  12.345
48307W        W16681   0.373  43.909  13.332
48308W        W16682  28.944  13.253  12.921
48309W        W16683  24.510  42.299   3.282
48310W        W16684  20.056  31.469   4.221
48311W        W16685  20.238  25.023   2.414
48312W        W16686  43.865  40.886  10.902
48313W        W16687   6.265  25.169   0.279
48314W        W16688  29.525  21.540   0.396
48315W        W16689  29.127  18.212  12.434
48316W        W16690   7.311  32.503   1.270
48317W        W16691  19.714  22.641  14.306
48318W        W16692  34.408  10.315   2.267
48319W        W16693  16.671  15.174   4.299
48320W        W16694  33.899  31.152   3.194
48321W        W16695   5.742   6.798  14.469
48322W        W16696   0.827  42.330  14.926
48323W        W16697  22.037  26.990   4.309
48324W        W16698  27.164  20.236  13.332
48325W        W16699   9.158  17.700  13.421
48326W        W16700   4.395  42.477   3.306
48327W        W16701  28.597   5.328   2.417
48328W        W16702   7.847  37.467   5.283
48329W        W16703   3.876  28.171   3.175
48330W        W16704  33.997   9.293   2.376
48331W        W16705  11.354   8.729   3.278
48332W        W16706  39.498   8.781   1.358
48333W        W16707  21.218  36.347   4.234
48334W        W16708  28.149  37.531   0.313
48335W        W16709  14.192  22.138   2.369
48336W        W16710  31.402   2.303   2.743
48337W        W16711  20.715  19.238  11.377
48338W        W16712  28.475  37.893   0.411
48339W        W16713   2.937  44.802  12.846
48340W        W16714  35.473  22.642  11.577
48341W        W16715  20.088  11.326  11.463
48342W        W16716  33.473  24.038  12.894
48343W        W16717  31.621  25.016  13.463
48344W        W16718  35.109  20.551  14.915
48345W        W16719  20.651  24.666   1.265
48346W        W16720  18.782  36.374  13.041
48347W        W16721  34.541  42.358   0.881
48348W        W16722  38.964  35.943  13.385
48349W        W16723  12.627  23.609  13.368
48350W        W16724  21.028  17.605   3.158
48351W        W16725  15.299  21.186   4.247
48352W        W16726  42.330  35.437   1.268
48353W        W16727  11.738   3.440   2.300
48354W        W16728   4.257  18.725  10.587
48355W        W16729   5.227  25.483   5.717
48356W        W16730  44.921  11.795  12.052
48357W        W16731  14.749  13.780  12.957
48358W        W16732  34.031  38.477  14.313
48359W        W16733  13.682  21.562   0.798
48360W        W16734  36.912  19.278  12.970
48361W        W16735  17.771  41.919  13.860
48362W        W16736  11.132   2.248  13.960
48363W        W16737  11.366  23.687  10.599
48364W        W16738  21.128  15.595   3.242
48365W        W16739  26.959  14.813  12.950
48366W        W16740  12.834   7.387  13.793
48367W        W16741  30.634  14.305  14.946
48368W        W16742  44.870   1.873   0.434
48369W        W16743  29.600  39.913   4.805
48370W        W16744  13.249   7.188   0.327
48371W        W16745  25.586  11.238  13.356
48372W        W16746  28.466  28.178  10.028
48373W        W16747  33.403  37.990  14.395
48374W        W16748  11.724  23.735   2.310
48375W        W16749  26.644  12.713  11.446
48376W        W16750  33.981  44.360  11.492
48377W        W16751  22.508   4.218   0.797
48378W        W16752   2.242   7.174   5.308
48379W        W16753  27.093  24.004   4.664
48380W        W16754  44.883   3.262  14.981
48381W        W16755  35.018  19.192   1.400
48382W        W16756  34.108   5.826   2.297
48383W        W16757   7.402  10.834   4.334
48384W        W16758  18.566   5.831  12.085
48385W        W16759   0.912  23.198  11.444
48386W        W16760   7.343  31.007  12.093
48387W        W16761  38.512  43.934  12.000
48388W        W16762  44.972  41.857  10.958
48389W        W16763  26.500  20.255  13.366
48390W        W16764  15.585   2.861   3.705
48391W        W16765  21.226   4.890  14.934
48392W        W16766  44.476  23.706  11.121
48393W        W16767   5.388   7.878   1.408
48394W        W16768  40.911  13.796   3.786
48395W        W16769   8.683   3.291   2.871
48396W        W16770  28.131  29.941  11.935
48397W        W16771  17.100  39.501  11.546
48398W        W16772  14.191  20.174   2.690
48399W        W16773   4.402   2.408   3.649
48400W        W16774  34.956  15.260   2.307
48401W        W16775   5.909  12.717  14.291
48402W        W16776   6.402  24.605   5.140
48403W        W16777  22.039  40.023  12.926
48404W        W16778   8.260  34.022   0.350
48405W        W16779  33.962  42.413  13.963
48406W        W16780   3.390  27.156   2.770
48407W        W16781  11.273   3.295  13.519
48408W        W16782  44.983  24.623   2.722
48409W        W16783  22.084  40.869  11.021
48410W        W16784  43.853  27.518  10.930
48411W        W16785  31.038  24.117  10.979
48412W        W16786  21.208  25.505   2.220
48413W        W16787  29.544  40.320  10.521
48414W        W16788   0.783  41.801   1.799
48415W        W16789  32.932  15.753   3.352
48416W        W16790  22.621  41.894   5.194
48417W        W16791  32.117   3.885  10.939
48418W        W16792   5.345  20.035  12.578
48419W        W16793  23.235  17.188  14.354
48420W        W16794   1.250  26.002  13.367
48421W        W16795  26.678  14.687  12.454
48422W        W16796  19.170  15.311  11.948
48423W        W16797  29.527  20.241  11.394
48424W        W16798  43.017  17.707  10.954
48425W        W16799  38.334  12.243  10.970
48426W        W16800  16.244  34.091  12.482
48427W        W16801  23.708  33.542  14.334
48428W        W16802  22.704  27.691   0.358
48429W        W16803  32.088  42.337   4.654
48430W        W16804  42.022  43.380  13.339
48431W        W16805  37.409  10.846  13.515
48432W        W16806  40.324  33.459   2.283
48433W        W16807  31.001  36.935  10.558
48434W        W16808  34.905  19.140  13.353
48435W        W16809  17.633  30.068   2.815
48436W        W16810  39.478  24.994   0.765
48437W        W16811  32.008  41.906  11.451
48438W        W16812  30.152  35.481   4.179
48439W        W16813   9.318   8.674   4.764
48440W        W16814  13.316  44.830   0.265
48441W        W16815  13.747  17.681  14.884
48442W        W16816  36.540  25.170  14.849
48443W        W16817  37.377  35.413   1.814
48444W        W16818  29.641   0.412  13.834
48445W        W16819  18.685   0.405   4.703
48446W        W16820  39.453  29.495  13.879
48447W        W16821  15.307  41.909   3.288
48448W        W16822  11.736   4.334  11.988
48449W        W16823  29.131   5.769  11.006
48450W        W16824   5.894  27.193   3.674
48451W        W16825  39.420  23.561   3.155
48452W        W16826   2.468   7.255  10.043
48453W        W16827  35.947  32.485   4.146
48454W        W16828  21.106  42.397   0.467
48455W        W16829  12.158  41.445  14.443
48456W        W16830  25.167  32.020  11.922
48457W        W16831  40.855   2.272  11.920
48458W        W16832   9.199  18.208   2.674
48459W        W16833  38.035  40.964  14.391
48460W        W16834  32.513  27.007  12.832
48461W        W16835  31.619   7.709  14.367
48462W        W16836  27.116  13.773  14.878
48463W        W16837  36.993  30.003   0.865
48464W        W16838  26.511   8.754  12.889
48465W        W16839  36.583  44.263   5.124
48466W        W16840  43.798  24.041   4.660
48467W        W16841  22.722   4.900   0.407
48468W        W16842  18.755  25.008  10.142
48469W        W16843  39.896  18.578  12.348
48470W        W16844  16.264  40.484  14.490
48471W        W16845  10.643  35.590  13.400
48472W        W16846  40.466  12.242   1.825
48473W        W16847  25.099  35.497   4.765
48474W        W16848  18.107   3.270   0.781
48475W        W16849  27.516   6.222  13.837
48476W        W16850  25.197   8.723   5.175
48477W        W16851  41.362   0.248   3.263
48478W        W16852   5.210  44.840  14.495
48479W        W16853  30.618   6.238   0.891
48480W        W16854   3.824  22.635   3.819
48481W        W16855  29.919  29.489  13.519
48482W        W16856  35.013  24.544   4.227
48483W        W16857   2.288  44.812  14.461
48484W        W16858  40.382  23.182   4.636
48485W        W16859   2.416  18.757   2.418
48486W        W16860  17.795  14.752   3.724
48487W        W16861  24.213  15.180   3.276
48488W        W16862  36.012   3.285   3.732
48489W        W16863   8.798  27.063   4.830
48490W        W16864   1.764  15.203   1.234
48491W        W16865  25.013  24.639  11.909
48492W        W16866  30.907  21.080   1.344
48493W        W16867  38.935  23.576  11.880
48494W        W16868  33.524  25.684   0.363
48495W        W16869   0.336  17.129   4.786
48496W        W16870  24.981   4.395   4.669
48497W        W16871  22.521  25.683   0.276
48498W        W16872  43.368  41.428   3.787
48499W        W16873  16.306  39.829   2.835
48500W        W16874   9.187  18.743  11.063
48501W        W16875   6.712   2.370  14.822
48502W        W16876   1.925  40.858   1.930
48503W        W16877   7.276  33.608  13.870
48504W        W16878  28.953  34.975   0.377
48505W        W16879   3.930  15.103   1.448
48506W        W16880  34.579   8.884  12.023
48507W        W16881  33.925   6.313   2.262
48508W        W16882  12.759  30.043   4.195
48509W        W16883   5.926  11.312  14.854
48510W        W16884  42.312  24.601  13.981
48511W        W16885  30.642   8.767   2.869
48512W        W16886   7.242  17.647   0.886
48513W        W16887  41.832  15.718  14.422
48514W        W16888  30.044  30.909  11.860
48515W        W16889   0.958  10.241   4.692
48516W        W16890   4.902  30.529  11.544
48517W        W16891   1.948  40.986   2.763
48518W        W16892  30.120  21.206  12.533
48519W        W16893  21.573  10.707   3.797
48520W        W16894  32.994  41.384   0.477
48521W        W16895  20.066  39.840   5.707
48522W        W16896  36.358  12.790   2.713
48523W        W16897   1.916  24.486  12.440
48524W        W16898  15.714  26.477   1.441
48525W        W16899  22.551  12.802   3.295
48526W        W16900  21.061  39.847   2.717
48527W        W16901  30.635  40.817  14.848
48528W        W16902   4.260  22.113  14.884
48529W        W16903  25.699   8.392  11.981
48530W        W16904  10.378  24.104  12.833
48531W        W16905   3.823  17.587   1.818
48532W        W16906  14.121  20.167  10.937
48533W        W16907  17.680   7.301   2.210
48534W        W16908   3.932  41.970   0.848
48535W        W16909  19.560   4.749  10.422
48536W        W16910  42.357  26.992  14.294
48537W        W16911  43.997  37.390   0.480
48538W        W16912  43.918  24.718  13.386
48539W        W16913  25.176  32.593   0.364
48540W        W16914  36.463   2.411  12.022
48541W        W16915  29.474   1.416  14.310
48542W        W16916   8.198   1.365   2.805
48543W        W16917   2.895   7.272  11.510
48544W        W16918  22.629  26.555   1.236
48545W        W16919   4.902  21.136   9.963
48546W        W16920  42.361  37.477   2.718
48547W        W16921  23.713  39.367   5.302
48548W        W16922   3.825  35.013  11.088
48549W        W16923  11.664  33.477  14.871
48550W        W16924   8.354  40.333  12.845
48551W        W16925  42.343   9.665  14.500
48552W        W16926  13.678  33.615   3.214
48553W        W16927   1.781   6.893  11.088
48554W        W16928  17.787   9.792  13.345
48555W        W16929  21.598  25.654   2.397
48556W        W16930  38.470  31.038  14.932
48557W        W16931  29.583  43.899  11.956
48558W        W16932  14.628  12.613   2.372
48559W        W16933  19.176  19.641   1.238
48560W        W16934   9.202  41.537  10.510
48561W        W16935   6.754  35.997  14.443
48562W        W16936  39.825  19.701  12.540
48563W        W16937  32.496  12.854   0.247
48564W        W16938  24.546  39.419  12.447
48565W        W16939   0.490  31.062   4.808
48566W        W16940  44.982  10.342  10.969
48567W        W16941  18.747  18.687   5.183
48568W        W16942   8.280  20.678   1.893
48569W        W16943  24.699  38.865   0.331
48570W        W16944  32.987  31.945   3.842
48571W        W16945   2.915   2.260  13.974
48572W        W16946  21.726   9.370  12.521
48573W        W16947  23.615  28.950  10.408
48574W        W16948  15.771  19.058  13.845
48575W        W16949  27.144  44.756   4.330
48576W        W16950   2.444   5.844   0.282
48577W        W16951  34.465  31.975  14.325
48578W        W16952  28.607  15.812   1.923
48579W        W16953   0.856  43.793  13.860
48580W        W16954  16.189  12.745  11.436
48581W        W16955   8.732  15.103  10.947
48582W        W16956  39.049  32.940   3.715
48583W        W16957  33.988  23.991   2.208
48584W        W16958  20.667   7.795   4.186
48585W        W16959  24.683  40.462  14.022
48586W        W16960  27.998  44.435  12.041
48587W        W16961  12.812  19.127  10.982
48588W        W16962  41.505  41.786  11.404
48589W        W16963  16.216   4.351   3.205
48590W        W16964  14.318   4.360   0.481
48591W        W16965   6.283   8.760  11.376
48592W        W16966   0.774  23.592  12.399
48593W        W16967  34.113   8.170   2.701
48594W        W16968  41.444   6.255   0.287
48595W        W16969  39.315   5.314  14.508
48596W        W16970   0.820   1.830   4.182
48597W        W16971  32.538  30.085   4.731
48598W        W16972  36.521  20.181   4.625
48599W        W16973  20.041  42.026  13.519
48600W        W16974   7.742  22.744  14.503
48601W        W16975  34.413  26.153  11.921
48602W        W16976  34.043  29.928   1.736
48603W        W16977  16.619  31.568   0.321
48604W        W16978  26.026  25.157   4.643
48605W        W16979  36.953   7.685   1.375
48606W        W16980   4.737   5.848  14.312
48607W        W16981   3.335  41.884   3.808
48608W        W16982   5.431  30.945   4.839
48609W        W16983   1.479  26.688   9.949
48610W        W16984  18.755  23.519  12.008
48611W        W16985   6.866  13.815  12.397
48612W        W16986  34.498  12.699   2.836
48613W        W16987  22.212  23.506  10.481
48614W        W16988  13.305  21.072  14.809
48615W        W16989  23.181  43.510   3.281
48616W        W16990  13.835   5.724  12.357
48617W        W16991  15.164  41.945  10.464
48618W        W16992   3.452  13.783  12.092
48619W        W16993  12.353  21.530   1.719
48620W        W16994  22.524  29.167  10.917
48621W        W16995  44.284  19.630  12.435
48622W        W16996  10.796  44.803   2.324
48623W        W16997  34.952   4.363   0.741
48624W        W16998  14.235  24.227   0.755
48625W        W16999   7.909  24.072  10.465
48626W        W17000  44.472  19.049   0.252
48627W        W17001  26.040  13.114  12.465
48628W        W17002  37.959  24.225  13.327
48629W        W17003  20.187   9.657  14.317
48630W        W17004  43.971  36.568   4.125
48631W        W17005  27.044   3.413   3.727
48632W        W17006   6.841  27.581   4.607
48633W        W17007  27.094   3.371  12.068
48634W        W17008  31.614  11.284   4.140
48635W        W17009   6.370   3.422   0.304
48636W        W17010  39.432  11.260   2.713
48637W        W17011  15.247  17.616   3.315
48638W        W17012  31.549  20.539   3.355
48639W        W17013   8.400  25.684  14.514
48640W        W17014  16.627   4.779  10.030
48641W        W17015  38.969  22.013  11.409
48642W        W17016  36.050  12.644   2.857
48643W        W17017  17.215  21.634  11.018
48644W        W17018  10.189   5.702  11.110
48645W        W17019   5.905  31.528  10.601
48646W        W17020  33.123   9.646   1.277
48647W        W17021  44.843   2.239  14.942
48648W        W17022  14.281  42.831  10.466
48649W        W17023  26.590   9.722   3.653
48650W        W17024  29.112  19.759  14.419
48651W        W17025  12.141  23.620   4.150
48652W        W17026  36.953  34.090   4.719
48653W        W17027  32.486   1.319   0.859
48654W        W17028  30.421   3.292   4.251
48655W        W17029  36.394   3.845  11.372
48656W        W17030  38.853  28.632  13.870
48657W        W17031  13.787   4.849  11.992
48658W        W17032  13.663  37.837   3.235
48659W        W17033  10.148   9.771   0.477
48660W        W17034  27.521  23.039  14.000
48661W        W17035  42.785  21.144  14.462
48662W        W17036   5.370   2.298  11.118
48663W        W17037   2.391  31.582  14.434
48664W        W17038   1.858  30.947  13.333
48665W        W17039  37.547  11.836   2.683
48666W        W17040   8.894  30.635   0.356
48667W        W17041  25.519  29.555   2.808
48668W        W17042  44.826   1.732  14.937
48669W        W17043  27.158   0.809   5.207
48670W        W17044   8.363  16.665   3.145
48671W        W17045  26.148  17.641  14.999
48672W        W17046  41.385   8.324   2.675
48673W        W17047  20.609   1.443  12.520
48674W        W17048   7.398   7.908  13.884
48675W        W17049   9.660   3.927   1.217
48676W        W17050  29.478  37.075  12.959
48677W        W17051  23.720  28.472   2.848
48678W        W17052  21.695  28.557  13.442
48679W        W17053  35.382  14.729  14.932
48680W        W17054  43.323   5.896  13.806
48681W        W17055   4.876  37.503   2.665
48682W        W17056  37.951  38.348  12.451
48683W        W17057  26.117  24.018  12.369
48684W        W17058  30.005  35.999   1.315
48685W        W17059  12.817  23.036   4.302
48686W        W17060  13.614  26.018  13.015
48687W        W17061  37.895  35.962   0.437
48688W        W17062  19.754  42.970  14.410
48689W        W17063  13.749   0.866   0.760
48690W        W17064  17.659   7.667   2.336
48691W        W17065   2.919  34.923  11.559
48692W        W17066  42.493  27.539  14.387
48693W        W17067  26.973  36.554  14.817
48694W        W17068   3.344  17.786  14.419
48695W        W17069   3.412  38.977   9.950
48696W        W17070   8.226  27.486   0.945
48697W        W17071  19.767  43.336  12.068
48698W        W17072  36.417  34.572  12.925
48699W        W17073  11.352  40.964   3.321
48700W        W17074  10.259  21.731   2.197
48701W        W17075  13.268  30.002  12.062
48702W        W17076  29.482   8.301  13.965
48703W        W17077  18.729  26.693  14.396
48704W        W17078  43.783  38.979   3.174
48705W        W17079  33.877  42.864  11.889
48706W        W17080  36.379   9.303   1.310
48707W        W17081  14.636  42.798  14.391
48708W        W17082   3.288  41.463  12.523
48709W        W17083   1.745  39.818  11.999
48710W        W17084  10.376   5.397   2.344
48711W        W17085  28.178   7.665   4.220
48712W        W17086   6.348  39.816   4.184
48713W        W17087  43.985  44.381   4.663
48714W        W17088  43.861   5.291   3.853
48715W        W17089   7.281  23.147  11.396
48716W        W17090   2.452  13.785   3.845
48717W        W17091  13.211  15.131  10.453
48718W        W17092  15.227  28.532   2.853
48719W        W17093  19.687  18.157   3.245
48720W        W17094   2.946  38.986   1.761
48721W        W17095  36.528   9.876  11.417
48722W        W17096  14.610  29.468  12.047
48723W        W17097  36.895  40.971   3.234
48724W        W17098  34.887  34.376   2.694
48725W        W17099   7.683  26.048  10.087
48726W        W17100  30.935  20.051  10.973
48727W        W17101  22.627   7.677   3.356
48728W        W17102   2.271   2.727   0.888
48729W        W17103  36.097  12.855  11.103
48730W        W17104  44.443  18.206  14.483
48731W        W17105  29.975  13.672  11.462
48732W        W17106  38.849   9.171  10.123
48733W        W17107  35.867  18.134  14.283
48734W        W17108  26.125   5.425  13.506
48735W        W17109  40.335  44.776  13.992
48736W        W17110  21.653  25.084   1.340
48737W        W17111   4.354  20.588   4.152
48738W        W17112  31.063  29.024   2.876
48739W        W17113  23.641  14.790   3.792
48740W        W17114   1.808  11.661  12.913
48741W        W17115  24.712  28.052   1.848
48742W        W17116   6.346  14.658   3.815
48743W        W17117  34.075  13.663  10.890
48744W        W17118  26.674  27.952  14.027
48745W        W17119  19.660   6.311   1.922
48746W        W17120   4.377   7.754  13.943
48747W        W17121  23.060  39.962  12.406
48748W        W17122  25.610  19.240  12.566
48749W        W17123  14.597  36.046   5.088
48750W        W17124   9.842  25.578  11.045
48751W        W17125  24.116  29.938  14.957
48752W        W17126  12.340  28.502  13.320
48753W        W17127   6.391  33.615   3.774
48754W        W17128  43.992  22.741   2.714
48755W        W17129  21.205   2.353  10.586
48756W        W17130   1.250   9.789  10.494
48757W        W17131  20.244   0.288   3.863
48758W        W17132   8.202  27.018  12.893
48759W        W17133  25.528  42.517  12.575
48760W        W17134  37.501  36.563   0.759
48761W        W17135  17.236   7.272  14.500
48762W        W17136   6.899  18.217   5.167
48763W        W17137  32.124   0.467  13.018
48764W        W17138  31.095  42.828   1.752
48765W        W17139  31.441  39.399  13.461
48766W        W17140  18.566  35.880   2.756
48767W        W17141  41.900  13.715  14.837
48768W        W17142  21.686  21.056  10.996
48769W        W17143  37.871  31.627   2.814
48770W        W17144  27.598  44.392   4.638
48771W        W17145   6.322  21.733  13.507
48772W        W17146  12.693  41.842  14.363
48773W        W17147  41.971  38.077   0.463
48774W        W17148  23.655   7.871   0.356
48775W        W17149  29.580  20.626   3.381
48776W        W17150  44.457  39.483  14.878
48777W        W17151  17.176  19.066  10.533
48778W        W17152   8.856   6.315  12.386
48779W        W17153   8.833  23.678  13.461
48780W        W17154  36.950  12.239   4.142
48781W        W17155  38.062  30.074   4.650
48782W        W17156  33.906   9.808  11.876
48783W        W17157  43.346  32.077   1.850
48784W        W17158  13.680  37.522  10.492
48785W        W17159  10.850  37.836   2.851
48786W        W17160  12.652  36.889  11.985
48787W        W17161  12.152  39.022   4.691
48788W        W17162   1.319  36.989   3.192
48789W        W17163  17.116   9.300   2.769
48790W        W17164  39.023   6.360   3.167
48791W        W17165  36.521  39.945  14.890
48792W        W17166  42.413  30.071  11.944
48793W        W17167  42.390  10.704  12.884
48794W        W17168  18.256   0.355   4.713
48795W        W17169  20.522  34.112  11.068
48796W        W17170  30.009  44.333  10.934
48797W        W17171   4.722  15.670   0.369
48798W        W17172  43.464  29.120   3.213
48799W        W17173  18.667  21.719   1.283
48800W        W17174  31.972  16.265   3.317
48801W        W17175   4.899  11.276   3.243
48802W        W17176  39.511  16.151  13.889
48803W        W17177  19.113  41.809  13.931
48804W        W17178  35.088  37.045   2.359
48805W        W17179  42.438  39.838   0.289
48806W        W17180  33.054   3.834  11.478
48807W        W17181  42.336  22.039   3.354
48808W        W17182   8.689   3.731  12.928
48809W        W17183  30.535  25.619   1.438
48810W        W17184  35.379   5.747  11.451
48811W        W17185  18.574  17.575  11.985
48812W        W17186  29.492  44.284   5.565
48813W        W17187  21.743  25.972   2.821
48814W        W17188  28.638   3.301   4.812
48815W        W17189  39.363   3.799  12.997
48816W        W17190  17.175   1.472  13.898
48817W        W17191  35.367  10.876  13.037
48818W        W17192   1.454  22.226   4.650
48819W        W17193  26.634  29.468   2.684
48820W        W17194  17.200  10.223  11.582
48821W        W17195   0.253  27.032   4.189
48822W        W17196  24.019  10.815   0.372
48823W        W17197  31.110   8.813   3.662
48824W        W17198  42.991   6.357   3.813
48825W        W17199  37.417  11.156   0.861
48826W        W17200   3.890  35.049  14.451
48827W        W17201  18.738  43.883  10.458
48828W        W17202  36.071  39.822   1.250
48829W        W17203  43.925  40.013   4.810
48830W        W17204  37.441  26.642  13.857
48831W        W17205   1.855  25.167  13.852
48832W        W17206  39.929  24.001  13.528
48833W        W17207   1.855   0.487  12.964
48834W        W17208  33.994  37.085   0.303
48835W        W17209   6.810  31.936  14.921
48836W        W17210   1.962  42.894   1.873
48837W        W17211  43.294  35.019  12.960
48838W        W17212  10.829   7.354  11.893
48839W        W17213  28.160  30.122  12.397
48840W        W17214  16.805  37.963   2.767
48841W        W17215   3.866  36.405   1.908
48842W        W17216  39.545  27.123  12.972
48843W        W17217  19.137   2.871   1.316
48844W        W17218  29.116  18.052  12.004
48845W        W17219  30.412  20.612  13.911
48846W        W17220  40.996  37.514  11.534
48847W        W17221  25.671   5.755  13.055
48848W        W17222  27.129  15.714   0.405
48849W        W17223  28.513  27.037  10.621
48850W        W17224   7.261  23.204   4.302
48851W        W17225  20.706  27.952  11.592
48852W        W17226  13.655   7.299   0.934
48853W        W17227  40.931  26.978  10.929
48854W        W17228  34.943   1.349   4.233
48855W        W17229  32.998   1.443   3.796
48856W        W17230  38.938   5.252  11.991
48857W        W17231   3.724   6.736  11.396
48858W        W17232  38.415   4.812   0.785
48859W        W17233  16.131  15.127  13.034
48860W        W17234   8.286  23.520  10.936
48861W        W17235  15.167  29.160  11.532
48862W        W17236  25.120   4.720   1.278
48863W        W17237  38.066  29.074   0.372
48864W        W17238  40.991  27.461  11.563
48865W        W17239  39.988   2.847  13.997
48866W        W17240  41.797  42.501  12.889
48867W        W17241   8.404   5.283   2.757
48868W        W17242  17.634   4.836   2.362
48869W        W17243  33.891  12.224   4.638
48870W        W17244  16.746  12.327   3.221
48871W        W17245  27.960  35.082  14.952
48872W        W17246   0.885  42.809  12.035
48873W        W17247  27.041  25.103   3.280
48874W        W17248  16.131   2.273  14.974
48875W        W17249  28.169  28.564   1.274
48876W        W17250  12.273  18.137   0.863
48877W        W17251  44.346   5.293  14.004
48878W        W17252  21.632  19.176   0.771
48879W        W17253   3.927  15.236   1.840
48880W        W17254  12.778   1.320   1.699
48881W        W17255  25.479  25.161  13.809
48882W        W17256   3.391  19.261  12.501
48883W        W17257   1.777  19.075  11.954
48884W        W17258  27.471  29.601   3.693
48885W        W17259  44.780  15.766   2.370
48886W        W17260  34.873   1.825   5.292
48887W        W17261  22.083  38.354   4.314
48888W        W17262  36.460  21.618   3.756
48889W        W17263  30.139  34.495   1.218
48890W        W17264  38.975  40.857  12.379
48891W        W17265  44.944  17.667  11.952
48892W        W17266  16.655  37.384  13.038
48893W        W17267  38.462  27.690   0.271
48894W        W17268  17.674  40.357   4.185
48895W        W17269   9.292   4.441   0.948
48896W        W17270  42.907   1.470  14.979
48897W        W17271  27.180   8.238  12.958
48898W        W17272  17.156   1.376   3.158
48899W        W17273  40.005  44.970  13.425
48900W        W17274  13.271  21.065  11.987
48901W        W17275  38.458  11.697   4.239
48902W        W17276  12.618  28.621   0.317
48903W        W17277  27.985  29.125  13.983
48904W        W17278  29.944   3.402   3.199
48905W        W17279  12.288  25.688   2.236
48906W        W17280   7.327   7.875  12.460
48907W        W17281  19.281   2.355  14.958
48908W        W17282   7.833  11.736   2.821
48909W        W17283   4.748   8.741  10.156
48910W        W17284  12.172   4.894   1.220
48911W        W17285  11.363  26.967  12.464
48912W        W17286  22.174  21.703  11.394
48913W        W17287  29.655   3.796   2.191
48914W        W17288  18.733  16.805   4.178
48915W        W17289   4.802  17.778  14.964
48916W        W17290  31.525   2.327  13.962
48917W        W17291  18.287   7.766  11.007
48918W        W17292  30.618  15.144   0.793
48919W        W17293  21.026  27.500  11.433
48920W        W17294  37.901   1.247  12.940
48921W        W17295  12.753  14.316   0.251
48922W        W17296   9.277  28.555  14.762
48923W        W17297  20.728  42.789  14.871
48924W        W17298  33.419  19.639  11.445
48925W        W17299  40.413  17.160   5.187
48926W        W17300  10.780   8.200   2.314
48927W        W17301   6.354  16.811   0.368
48928W        W17302  42.370   6.698   4.267
48929W        W17303  43.514  32.023  11.046
48930W        W17304   7.674  42.852  10.150
48931W        W17305   5.436   1.934   0.803
48932W        W17306  34.495   7.353  13.985
48933W        W17307   5.287  43.986   3.155
48934W        W17308  15.127   7.197   1.252
48935W        W17309  35.365  43.005  10.907
48936W        W17310  36.568  21.032  12.512
48937W        W17311   6.266   8.814  10.000
48938W        W17312  21.091  41.999   4.186
48939W        W17313  44.403  27.181   0.954
48940W        W17314   4.863  21.656  14.842
48941W        W17315  29.624   6.266  14.312
48942W        W17316   7.744   4.764   1.285
48943W        W17317  36.560  42.465  14.935
48944W        W17318   1.821  19.706   3.151
48945W        W17319  28.557  10.664   0.912
48946W        W17320  13.731  37.557   0.955
48947W        W17321  34.519  32.911   2.675
48948W        W17322  34.494   5.922   1.328
48949W        W17323  24.486  42.787  12.950
48950W        W17324  43.898   9.884  11.986
48951W        W17325  37.579  25.037  10.503
48952W        W17326  13.810  35.872   4.183
48953W        W17327  20.063   6.273   4.263
48954W        W17328  20.555  38.060   9.476
48955W        W17329  33.474   7.680   0.394
48956W        W17330  43.929  30.008  14.981
48957W        W17331   6.920  22.725  11.975
48958W        W17332  27.588  35.448   3.776
48959W        W17333  38.953  42.291   3.386
48960W        W17334  19.574   4.394  11.947
48961W        W17335   7.842  40.025   0.410
48962W        W17336  25.578  41.897  12.366
48963W        W17337  13.641  30.047   1.729
48964W        W17338   1.886  36.428  13.994
48965W        W17339  32.977  20.572  12.825
48966W        W17340  23.227  24.989   1.226
48967W        W17341   3.726  31.021  13.048
48968W        W17342  38.898  40.050   4.801
48969W        W17343   8.301  12.834   3.244
48970W        W17344  27.591   6.834  10.619
48971W        W17345  23.607  36.577   0.348
48972W        W17346  31.421   3.776  12.024
48973W        W17347  39.060  34.913  11.453
48974W        W17348  40.954   2.835  12.847
48975W        W17349  13.273  35.880   3.789
48976W        W17350  43.770  41.312  13.993
48977W        W17351  21.684  26.580  11.031
48978W        W17352  15.734  28.098  11.006
48979W        W17353  32.600  18.566   2.895
48980W        W17354  37.446  24.005  12.908
48981W        W17355  39.916  15.818  13.848
48982W        W17356  34.880  34.016  12.015
48983W        W17357  16.635  31.974   2.749
48984W        W17358   5.853  31.624  10.990
48985W        W17359   7.175  36.996  10.567
48986W        W17360  21.175  26.063   1.825
48987W        W17361  18.288  15.760   4.173
48988W        W17362  13.657   5.358   3.367
48989W        W17363  39.351   2.912  11.044
48990W        W17364  44.863  22.665  13.808
48991W        W17365  17.267  39.343   4.286
48992W        W17366   2.819  33.917  14.765
48993W        W17367  42.948   5.834  14.344
48994W        W17368  27.161  27.053  11.966
48995W        W17369  37.061  39.361  12.899
48996W        W17370  25.053  13.749   4.287
48997W        W17371  44.893  26.629  13.987
48998W        W17372  39.433  25.188  12.857
48999W        W17373  40.330  33.569  11.442
49000W        W17374  38.482  28.578   3.630
49001W        W17375  44.330  24.613  12.823
49002W        W17376  37.029  44.788   3.192
49003W        W17377  36.580   7.807   4.152
49004W        W17378  42.919  26.627  10.985
49005W        W17379  27.588  20.597   2.672
49006W        W17380  36.930  18.134   2.718
49007W        W17381  21.206  16.236  10.604
49008W        W17382  17.260   8.298   5.278
49009W        W17383  44.867  36.488   2.872
49010W        W17384   3.793  30.529   2.244
49011W        W17385  26.110  26.954  14.886
49012W        W17386  37.473  14.643   4.316
49013W        W17387   2.266  15.175   2.268
49014W        W17388   3.803  32.499   0.785
49015W        W17389  19.144   6.857  13.832
49016W        W17390  34.932   2.239   2.703
49017W        W17391  22.056   6.223   1.318
49018W        W17392  15.724  34.603   0.869
49019W        W17393  32.636  26.175  13.874
49020W        W17394   3.899   6.858  13.858
49021W        W17395   4.851  18.280  10.022
49022W        W17396  23.150  21.169   2.894
49023W        W17397  27.566  41.854  10.474
49024W        W17398  41.307  27.505  13.320
49025W        W17399  19.263  16.090   4.249
49026W        W17400  27.984  36.944  12.570
49027W        W17401  42.026   6.801   3.667
49028W        W17402  34.441  37.037  11.051
49029W        W17403  30.952  19.703   0.966
49030W        W17404  35.419  14.644  14.348
49031W        W17405  20.662  43.401   4.187
49032W        W17406  42.993  25.470  14.820
49033W        W17407  31.938  25.554  12.838
49034W        W17408  35.502  16.694   3.240
49035W        W17409  16.642   7.200  13.915
49036W        W17410  33.883  36.911  11.509
49037W        W17411  22.155  24.525  12.031
49038W        W17412  15.624  29.120   4.813
49039W        W17413  29.600  13.707   4.234
49040W        W17414  28.664  19.088   3.264
49041W        W17415  39.977  11.296   0.780
49042W        W17416  30.568  24.560   4.762
49043W        W17417  10.159  39.975  14.284
49044W        W17418  24.650  31.467  14.933
49045W        W17419   0.331   8.890   3.783
49046W        W17420   7.344   9.277   2.333
49047W        W17421  31.146  30.084   4.328
49048W        W17422  15.112  27.979  12.469
49049W        W17423   9.282  32.603   4.270
49050W        W17424  44.479  27.999   1.917
49051W        W17425   5.224  11.268  11.560
49052W        W17426  21.093  18.084   2.364
49053W        W17427  10.740  11.354   3.785
49054W        W17428  33.029  22.047   0.308
49055W        W17429  28.119  11.351  14.391
49056W        W17430  21.183   5.704   2.322
49057W        W17431  28.166  21.089  12.930
49058W        W17432  27.670  32.521  12.836
49059W        W17433  15.688  26.479  12.465
49060W        W17434   5.702  17.146   4.295
49061W        W17435  27.477  12.835   4.686
49062W        W17436  11.156  42.810   2.321
49063W        W17437  26.151   1.371  12.005
49064W        W17438  25.676  16.125  14.897
49065W        W17439  36.381  16.158   4.806
49066W        W17440  41.438   8.400  14.469
49067W        W17441  38.988  31.482   1.762
49068W        W17442   4.736   3.814  14.875
49069W        W17443  21.700  21.512   2.705
49070W        W17444  21.517  16.078  12.524
49071W        W17445  29.657  33.932   2.878
49072W        W17446  23.135  34.615   0.805
49073W        W17447  42.018   7.806   2.815
49074W        W17448   8.768   9.663  12.471
49075W        W17449  23.061  22.162  10.488
49076W        W17450  22.076  36.900  11.899
49077W        W17451  12.707  26.513   0.375
49078W        W17452  44.774  30.602   2.314
49079W        W17453   3.750  17.701  11.391
49080W        W17454   8.345  29.595  10.523
49081W        W17455   4.311  33.456   1.230
49082W        W17456  18.129  40.799  11.871
49083W        W17457  19.583   1.937   3.717
49084W        W17458   1.330  43.465  14.774
49085W        W17459  25.552  19.696   1.832
49086W        W17460  23.499  39.404   9.671
49087W        W17461  25.489  42.289  13.008
49088W        W17462  42.428  40.914   1.772
49089W        W17463  44.794   8.358   4.249
49090W        W17464  24.725  29.526   1.923
49091W        W17465  28.027  21.231   3.310
49092W        W17466   1.829  10.784  14.821
49093W        W17467   6.353  16.311   3.630
49094W        W17468  39.360   6.717   2.689
49095W        W17469  42.413  26.465   2.308
49096W        W17470  32.902  41.375  13.488
49097W        W17471  28.469  20.575   3.813
49098W        W17472  16.127   8.883   5.769
49099W        W17473  43.422  40.930  14.878
49100W        W17474  11.140  23.999  12.522
49101W        W17475  42.890  38.946  12.029
49102W        W17476  29.145  16.224  11.571
49103W        W17477   6.832   9.327  10.607
49104W        W17478  18.206   6.846  12.422
49105W        W17479  28.953  16.162  10.427
49106W        W17480  23.117  19.221  13.831
49107W        W17481  22.511   8.852   3.865
49108W        W17482   7.898  41.506   4.207
49109W        W17483  17.610   2.827  14.768
49110W        W17484  36.062  34.901  12.865
49111W        W17485  30.439   4.824   4.173
49112W        W17486  25.170  13.695  12.886
49113W        W17487  42.289  20.068   0.339
49114W        W17488  28.440  11.849   2.351
49115W        W17489   5.397   7.291   2.344
49116W        W17490  26.703  22.618   4.664
49117W        W17491  27.480  25.121   4.246
49118W        W17492  21.555   6.836  14.506
49119W        W17493  43.333  12.640  12.924
49120W        W17494  40.011  33.921   2.177
49121W        W17495   6.287  33.995   1.803
49122W        W17496  22.080  14.805   3.710
49123W        W17497  10.161  11.649   3.319
49124W        W17498  41.034  37.917   2.195
49125W        W17499  36.886  10.256  10.554
49126W        W17500  12.637  39.845   1.720
49127W        W17501  14.667  35.955   4.833
49128W        W17502   2.390  19.554  10.635
49129W        W17503  36.478  31.148   2.270
49130W        W17504  28.029  11.774  10.933
49131W        W17505  37.982  25.651   4.722
49132W        W17506  29.530  33.092   1.762
49133W        W17507  27.988   3.263   4.126
49134W        W17508  26.700  24.090   4.733
49135W        W17509  24.011  28.576  13.813
49136W        W17510  38.540  28.529   0.390
49137W        W17511  12.743  44.775   4.798
49138W        W17512  28.577  44.483   5.170
49139W        W17513  17.727  32.546   0.276
49140W        W17514   7.890  12.241   1.287
49141W        W17515  29.428   2.435  14.307
49142W        W17516  13.676  39.321   3.382
49143W        W17517  20.586   7.792   2.418
49144W        W17518  19.743  37.539  14.444
49145W        W17519  28.008   3.393  10.081
49146W        W17520  14.811  26.071  10.551
49147W        W17521  28.550  40.870  14.370
49148W        W17522  15.700  33.110   2.415
49149W        W17523  34.900  31.959   1.741
49150W        W17524  28.984  36.361   0.299
49151W        W17525  29.098  26.998   0.420
49152W        W17526  41.005  19.231   2.205
49153W        W17527  31.921  39.940  14.353
49154W        W17528  27.955  17.603   3.637
49155W        W17529  17.672   5.847   4.699
49156W        W17530  35.422  21.240  13.973
49157W        W17531   4.726  44.491   1.852
49158W        W17532  13.198  40.913   0.414
49159W        W17533  10.743  43.968   2.766
49160W        W17534  41.838   7.196   3.856
49161W        W17535  33.039  29.583  10.430
49162W        W17536  35.391  22.730  12.533
49163W        W17537  19.106  39.941  14.514
49164W        W17538  19.184  14.200   0.465
49165W        W17539  14.218  21.668   3.189
49166W        W17540  14.206  30.513   2.700
49167W        W17541  39.436  25.477  11.406
49168W        W17542  22.722  42.025   1.774
49169W        W17543  24.974  17.774  14.427
49170W        W17544   2.745  21.240  11.402
49171W        W17545  37.842  20.617  14.404
49172W        W17546   8.302   6.229   0.800
49173W        W17547   5.762  38.562  13.867
49174W        W17548  23.156  13.605   4.798
49175W        W17549  12.756  33.540  10.930
49176W        W17550  35.988   8.256  13.404
49177W        W17551  26.463  10.704   4.712
49178W        W17552  17.792  40.385  11.089
49179W        W17553  18.100  32.918   1.711
49180W        W17554  35.064  30.628  10.417
49181W        W17555   7.744  13.756   2.286
49182W        W17556  11.205   2.917   1.341
49183W        W17557  37.888  22.563   0.934
49184W        W17558   5.749   4.348  12.351
49185W        W17559  29.054  30.085  14.321
49186W        W17560  30.629  32.018  12.047
49187W        W17561  26.120  32.587  11.110
49188W        W17562  33.014  25.076  14.009
49189W        W17563  39.996   5.355  12.015
49190W        W17564  27.625  30.157  13.319
49191W        W17565  33.498  33.515  13.962
49192W        W17566   9.271  36.468   2.248
49193W        W17567  39.034  21.071  10.549
49194W        W17568  44.456   0.487  11.057
49195W        W17569  29.059   1.804   4.316
49196W        W17570  23.528  10.282  14.895
49197W        W17571   2.911  27.191   1.283
49198W        W17572  34.594  14.629   4.324
49199W        W17573  23.164  23.160  13.527
49200W        W17574  17.242  10.697   2.863
49201W        W17575  25.681  43.840   4.725
49202W        W17576  43.505  41.996   3.834
49203W        W17577  28.164  26.649   1.871
49204W        W17578  29.129  15.642  13.530
49205W        W17579  40.827  33.544   0.300
49206W        W17580  30.472  42.301  10.567
49207W        W17581  22.185  29.469  11.044
49208W        W17582  35.075  39.030  12.045
49209W        W17583  40.356   2.963  11.931
49210W        W17584   6.208  44.476   3.303
49211W        W17585   6.323  14.164  14.808
49212W        W17586  26.516  44.384   3.211
49213W        W17587  35.911  22.127   1.292
49214W        W17588  11.815  29.115  14.420
49215W        W17589   3.412  35.869  12.474
49216W        W17590  28.649  33.029   1.260
49217W        W17591   2.880  24.712  14.868
49218W        W17592   3.432  16.799  10.888
49219W        W17593  20.751  17.566  11.434
49220W        W17594  16.609   4.403   1.439
49221W        W17595  33.626  22.137  10.519
49222W        W17596  24.069  34.083   3.778
49223W        W17597  18.201  41.033   2.369
49224W        W17598  42.804  19.045  12.383
49225W        W17599  14.830   1.437   2.249
49226W        W17600  37.477  27.493   1.753
49227W        W17601   7.239   3.239  11.453
49228W        W17602  34.551  19.632   0.373
49229W        W17603   2.419  44.303  11.449
49230W        W17604  18.151  10.231  11.475
49231W        W17605  40.358  16.170   2.847
49232W        W17606  31.079  26.689  14.511
49233W        W17607   1.822  22.089   0.474
49234W        W17608   8.778   6.812   3.689
49235W        W17609  29.160  38.398   1.248
49236W        W17610  32.941  37.474   2.310
49237W        W17611   4.264  41.017   3.786
49238W        W17612  13.650  44.469  13.356
49239W        W17613  35.928  25.606  12.569
49240W        W17614   9.198  19.077   1.287
49241W        W17615   0.851  41.388  14.965
49242W        W17616   6.899  31.149   1.234
49243W        W17617   3.906  12.668   0.249
49244W        W17618  32.434   2.948  13.463
49245W        W17619  13.281   6.909   1.907
49246W        W17620   2.388  10.272   0.769
49247W        W17621  22.193  40.319  11.058
49248W        W17622  17.605  31.485   1.241
49249W        W17623   4.311   4.800  12.045
49250W        W17624  36.461  38.927   1.754
49251W        W17625  33.059   8.845  12.873
49252W        W17626  37.849  41.350   0.400
49253W        W17627  25.132  35.867   3.692
49254W        W17628  10.783   3.723   3.791
49255W        W17629  27.510   3.227   4.189
49256W        W17630  27.034  15.227   3.631
49257W        W17631  13.775  25.669  12.063
49258W        W17632  11.178  19.679   2.878
49259W        W17633  24.585  19.066  12.914
49260W        W17634  26.518   2.313  14.826
49261W        W17635  41.804   3.772  12.060
49262W        W17636  31.409  44.390   4.230
49263W        W17637  38.330  44.796   3.158
49264W        W17638  35.052  11.813   3.301
49265W        W17639  34.602   1.848  11.864
49266W        W17640  20.707  41.913  14.512
49267W        W17641  11.696  14.335  11.568
49268W        W17642  36.472  40.411  11.921
49269W        W17643  18.215  24.644   0.308
49270W        W17644  18.666  44.914  10.500
49271W        W17645  25.476  17.786   5.184
49272W        W17646  14.611   5.268   0.803
49273W        W17647   3.913  25.614   2.793
49274W        W17648  25.480   5.708   3.262
49275W        W17649  26.474  16.782   0.257
49276W        W17650  33.955   8.854  12.965
49277W        W17651  22.741  12.236   1.865
49278W        W17652  44.848  23.029  11.883
49279W        W17653  10.299  41.906   5.312
49280W        W17654  29.024   7.395   0.727
49281W        W17655   3.374  19.175   0.421
49282W        W17656  29.015  29.131   2.255
49283W        W17657  36.516  16.804   1.320
49284W        W17658  44.379  43.392   2.665
49285W        W17659   7.332   3.310  13.861
49286W        W17660  26.513   0.756   2.198
49287W        W17661  14.818  30.539   5.099
49288W        W17662  12.633  25.119  12.955
49289W        W17663  35.068   4.350   1.291
49290W        W17664  22.663   4.763   1.367
49291W        W17665  13.684  14.187  12.421
49292W        W17666  10.268   7.736  11.944
49293W        W17667  20.241  39.923   1.847
49294W        W17668   2.831  20.537   3.175
49295W        W17669  16.256  32.579  13.914
49296W        W17670  26.968   9.700  11.861
49297W        W17671  36.961  43.966   3.364
49298W        W17672  38.421  32.450  10.545
49299W        W17673  18.233  39.024   1.783
49300W        W17674  37.511   1.894   1.364
49301W        W17675  32.415  12.245  12.018
49302W        W17676   8.264  10.695  11.965
49303W        W17677  22.115  37.974  13.907
49304W        W17678  16.625   1.868  12.997
49305W        W17679   1.855  43.775  10.894
49306W        W17680  32.454  14.270  13.452
49307W        W17681  37.041  10.633   4.610
49308W        W17682  12.706  25.111   3.306
49309W        W17683  23.667   6.245  12.463
49310W        W17684  23.002  34.376  14.928
49311W        W17685  43.421  22.744   4.673
49312W        W17686  30.567  33.909   2.364
49313W        W17687   2.429  40.468   3.284
49314W        W17688  29.944  43.338   1.880
49315W        W17689  13.763  13.630  10.956
49316W        W17690   5.753  13.335   3.832
49317W        W17691   2.772  33.065   1.402
49318W        W17692  42.994  21.750  10.928
49319W        W17693  27.029  22.700  14.289
49320W        W17694  31.608   6.871   1.297
49321W        W17695  44.826  25.066  13.367
49322W        W17696  14.796  44.805  12.419
49323W        W17697  21.140  25.634   4.308
49324W        W17698   5.715   2.312  10.448
49325W        W17699  20.706  21.041   2.825
49326W        W17700  39.824  37.913  14.771
49327W        W17701   4.924   5.902   1.797
49328W        W17702  26.555  22.539  10.551
49329W        W17703   8.863  29.066   1.923
49330W        W17704  19.057   0.756  13.826
49331W        W17705  19.693  32.547   0.798
49332W        W17706  28.942  14.095   4.712
49333W        W17707  36.923  43.297  13.905
49334W        W17708  33.085  22.736  11.450
49335W        W17709  42.308  29.450   2.243
49336W        W17710   5.913   7.202  12.856
49337W        W17711  38.868  31.054  14.486
49338W        W17712  43.301  30.539  12.569
49339W        W17713   4.844   1.403  14.315
49340W        W17714  31.949  21.655   1.389
49341W        W17715  11.812  39.479  10.935
49342W        W17716   1.431  19.757  11.106
49343W        W17717   5.901  31.133  11.018
49344W        W17718  34.430  33.484   0.908
49345W        W17719  44.979  19.743   4.777
49346W        W17720  21.132  14.129   4.814
49347W        W17721   5.891  10.152  11.107
49348W        W17722   9.838  39.863  11.548
49349W        W17723  10.835  43.335   3.708
49350W        W17724  39.986  38.383  11.916
49351W        W17725  25.642  42.510   3.667
49352W        W17726  12.659  36.085   3.685
49353W        W17727   3.732  27.187   2.414
49354W        W17728   2.864   7.342   1.767
49355W        W17729   7.805  43.399  13.396
49356W        W17730  42.453  15.296   0.904
49357W        W17731   3.398  28.454  13.797
49358W        W17732  30.140  21.618  13.428
49359W        W17733  16.728   9.388  11.522
49360W        W17734   5.715  10.744  14.287
49361W        W17735  40.819  16.809   1.831
49362W        W17736  32.919  17.085   4.779
49363W        W17737  41.976   9.771   3.794
49364W        W17738   8.885  30.426  14.308
49365W        W17739   3.767  37.470  13.435
49366W        W17740  34.021  21.216  14.339
49367W        W17741  34.114   7.909  13.805
49368W        W17742  33.622  41.865  11.890
49369W        W17743  14.799  37.535  12.942
49370W        W17744  34.541  17.754  14.997
49371W        W17745  43.992  31.033   1.291
49372W        W17746  22.648  42.354   4.228
49373W        W17747  19.236   3.947  11.051
49374W        W17748   1.805  32.103   0.967
49375W        W17749  27.613  12.168  13.353
49376W        W17750  21.167  13.776   0.256
49377W        W17751  15.302  27.612   4.337
49378W        W17752  36.028  33.483  13.954
49379W        W17753   2.434  32.032   3.764
49380W        W17754  32.604   9.304  14.331
49381W        W17755  20.064  39.050  14.307
49382W        W17756  42.880  36.434   3.239
49383W        W17757  42.782  42.915   3.298
49384W        W17758  40.496  36.460  11.964
49385W        W17759  12.330  23.666  13.037
49386W        W17760  34.558  32.442  11.410
49387W        W17761  38.852   9.678  12.011
49388W        W17762   1.347  29.113  14.290
49389W        W17763  35.854  12.756  11.405
49390W        W17764   2.827  30.923   3.299
49391W        W17765  30.000  43.316   3.829
49392W        W17766  26.131  25.984   4.796
49393W        W17767   9.376  37.397   3.833
49394W        W17768   0.382  13.625   0.457
49395W        W17769  43.803  30.423   0.854
49396W        W17770  16.784  13.124   3.272
49397W        W17771  39.393   4.229   1.708
49398W        W17772   8.318  23.130   0.352
49399W        W17773  13.218  18.703  12.545
49400W        W17774  24.188  18.655  14.490
49401W        W17775  38.858  43.342   1.843
49402W        W17776   8.385  14.637  12.928
49403W        W17777  36.025   7.243  14.939
49404W        W17778   8.791  29.613   0.257
49405W        W17779  36.993  40.314   1.756
49406W        W17780  17.574  15.225   3.195
49407W        W17781  36.447  20.586  14.927
49408W        W17782   4.815   6.820   0.801
49409W        W17783   3.325  43.349   4.718
49410W        W17784  38.561  16.584  12.054
49411W        W17785  17.174   1.328  11.477
49412W        W17786  42.320  41.944  12.470
49413W        W17787  37.999  23.005   0.404
49414W        W17788  26.546   8.863  14.857
49415W        W17789   4.819   0.271   1.853
49416W        W17790  14.127   1.285   0.784
49417W        W17791   8.369  15.224  10.548
49418W        W17792  10.231  22.729   3.840
49419W        W17793  16.099  37.532  13.046
49420W        W17794   7.238   1.928   4.223
49421W        W17795   6.218   8.197  11.520
49422W        W17796  27.581   4.876   1.302
49423W        W17797  32.452  38.505  12.059
49424W        W17798   9.323   8.808   2.398
49425W        W17799  36.071  42.302  10.443
49426W        W17800   2.402  12.164  13.387
49427W        W17801  28.528  34.516   4.777
49428W        W17802  39.977  27.081  14.478
49429W        W17803  29.618  29.481  11.503
49430W        W17804  44.906  22.186  12.075
49431W        W17805   1.253   5.331  11.585
49432W        W17806  22.087   9.283   0.453
49433W        W17807  33.408   0.286   4.651
49434W        W17808  25.989  19.198  12.963
49435W        W17809  29.162  27.023  12.905
49436W        W17810  44.831  44.839  14.391
49437W        W17811  29.134  22.544  10.625
49438W        W17812  34.569  39.825  14.983
49439W        W17813   3.385  29.154  13.337
49440W        W17814  39.354  40.497   1.426
49441W        W17815  14.634  30.582  13.333
49442W        W17816  32.576  43.886  14.285
49443W        W17817  40.936  15.608  13.324
49444W        W17818  38.411   0.847   3.731
49445W        W17819  35.893  40.887  11.418
49446W        W17820  40.004  39.969   0.268
49447W        W17821  20.708  14.242  10.450
49448W        W17822  12.729  37.436   4.117
49449W        W17823  29.669  26.988   4.652
49450W        W17824  22.621  43.982   1.422
49451W        W17825  40.963   3.339   2.361
49452W        W17826  21.177  21.530  14.973
49453W        W17827  27.471   7.232   4.123
49454W        W17828   7.390  30.092  13.979
49455W        W17829   4.729  19.568  13.462
49456W        W17830  11.807  13.633  12.484
49457W        W17831  17.296  23.142   3.212
49458W        W17832   8.780  30.959  14.025
49459W        W17833  16.781  22.224  11.383
49460W        W17834  14.142  12.701  14.442
49461W        W17835   9.735  25.490   0.358
49462W        W17836  10.282   9.674   2.412
49463W        W17837   1.753  19.739  11.899
49464W        W17838  36.382  41.026  11.966
49465W        W17839   5.879  41.031  14.477
49466W        W17840   6.245   6.722  13.359
49467W        W17841  40.043  43.498  10.962
49468W        W17842  38.359  29.941  11.864
49469W        W17843  44.832  36.965   2.728
49470W        W17844  33.939  42.519  13.366
49471W        W17845  33.387   0.309  13.326
49472W        W17846   7.404  26.044   4.834
49473W        W17847  31.456  24.206  12.459
49474W        W17848  27.126  17.271  13.848
49475W        W17849  34.068  15.771  11.998
49476W        W17850  44.332  27.089  13.383
49477W        W17851  24.066  35.445   4.223
49478W        W17852   1.422  12.281  10.471
49479W        W17853  37.453  24.177  13.922
49480W        W17854   1.257  33.474  12.874
49481W        W17855  17.191  34.008  11.894
49482W        W17856  32.423  28.070  13.003
49483W        W17857  22.101  25.172   3.356
49484W        W17858  44.457  28.442  10.983
49485W        W17859  23.149   8.190   0.886
49486W        W17860  12.695   9.704   2.355
49487W        W17861  35.438  18.745  11.900
49488W        W17862   4.328  16.272   2.263
49489W        W17863  19.240   1.475  13.913
49490W        W17864  19.197  11.659   2.857
49491W        W17865  34.935   3.835  14.845
49492W        W17866  39.417  28.053   3.632
49493W        W17867  18.748   8.707   9.944
49494W        W17868  42.987  13.179  13.345
49495W        W17869  15.199  32.041  14.293
49496W        W17870  28.945  12.766  14.873
49497W        W17871   3.310  27.964   1.881
49498W        W17872  12.275  23.235   0.958
49499W        W17873  30.523  12.796   4.698
49500W        W17874   0.250  12.213   0.274
49501W        W17875   4.236  22.006   0.435
49502W        W17876  21.073   2.818  12.449
49503W        W17877  42.302   5.393  12.534
49504W        W17878  31.591  22.512  14.008
49505W        W17879   0.442  17.085  11.948
49506W        W17880  28.157  23.555  13.021
49507W        W17881  44.915  14.336  13.451
49508W        W17882  12.189  27.117  13.929
49509W        W17883  13.205   9.766  12.933
49510W        W17884  39.463  35.984   4.332
49511W        W17885  39.879   9.733   1.291
49512W        W17886  22.010  38.380   1.748
49513W        W17887   2.383  26.510   3.353
49514W        W17888  28.587   4.284   3.639
49515W        W17889  43.497   0.964   2.253
49516W        W17890  11.706   4.385  12.859
49517W        W17891   0.453  20.620  11.923
49518W        W17892  22.228   6.679  13.815
49519W        W17893   8.264   5.260   5.219
49520W        W17894  18.090  22.242   3.784
49521W        W17895   9.833  43.858  14.780
49522W        W17896  25.979   5.926  10.491
49523W        W17897  16.612  24.983   3.279
49524W        W17898  24.990   6.391  10.896
49525W        W17899  30.987  23.604  12.495
49526W        W17900  10.834  10.666  12.033
49527W        W17901   2.946   2.358   4.739
49528W        W17902  34.878  24.561   1.319
49529W        W17903   0.926  12.844  12.030
49530W        W17904  37.989   4.234  12.902
49531W        W17905  27.635  35.393   0.860
49532W        W17906  13.679   9.204  11.859
49533W        W17907  35.433   8.365  12.834
49534W        W17908  12.179  17.627  13.871
49535W        W17909   1.290   2.805   2.761
49536W        W17910  14.136   1.399  12.862
49537W        W17911  30.487  37.505  11.915
49538W        W17912  33.106  26.008  11.127
49539W        W17913  35.002  17.772   1.439
49540W        W17914  44.425   6.189  11.984
49541W        W17915  32.951  27.036   2.814
49542W        W17916  10.803  41.989  10.608
49543W        W17917   1.383   4.226   0.300
49544W        W17918  30.454  21.200  12.000
49545W        W17919   3.762  29.998  13.943
49546W        W17920  36.913  21.154   2.206
49547W        W17921  22.616  37.931   2.186
49548W        W17922  15.636  34.966   3.240
49549W        W17923  44.764  30.067  10.615
49550W        W17924  34.884  30.434   2.722
49551W        W17925  16.679  28.080   1.703
49552W        W17926   1.931  13.681  11.470
49553W        W17927  28.994  30.999   1.385
49554W        W17928  26.120   3.435   2.707
49555W        W17929  44.354   2.434  10.481
49556W        W17930  39.536  32.061   3.650
49557W        W17931   1.826  24.611  13.936
49558W        W17932  11.138   9.231  11.428
49559W        W17933  28.936  20.162   1.287
49560W        W17934   7.372   3.449  12.486
49561W        W17935  22.141  17.635  14.847
49562W        W17936  13.254  38.900   0.751
49563W        W17937  24.996   0.340   4.160
49564W        W17938  10.643  29.045   2.180
49565W        W17939  28.511  19.279  11.460
49566W        W17940  20.669  14.733  14.937
49567W        W17941   3.844  10.212  14.885
49568W        W17942   8.265   3.814  13.536
49569W        W17943  16.617  22.660  10.428
49570W        W17944   4.327  37.965   0.474
49571W        W17945   1.262  12.650   1.928
49572W        W17946  38.856  28.026   4.692
49573W        W17947  21.536  14.781   2.841
49574W        W17948  17.687  27.604  13.493
49575W        W17949  17.795  28.944   4.702
49576W        W17950  44.884   4.272   1.719
49577W        W17951  44.953  24.017  11.560
49578W        W17952   3.271  31.557   3.337
49579W        W17953   0.270  42.006  11.024
49580W        W17954   1.837  22.023  14.412
49581W        W17955   0.845  37.038  13.420
49582W        W17956  40.801  44.884  11.560
49583W        W17957  14.220  10.709  13.460
49584W        W17958  41.409  13.124  13.353
49585W        W17959  22.578  38.034   1.799
49586W        W17960  27.019  38.550  14.293
49587W        W17961  21.634  41.819   2.230
49588W        W17962  36.508   0.931  14.326
49589W        W17963  21.679  38.350  13.444
49590W        W17964   0.789   7.853   1.842
49591W        W17965  17.203  23.584   1.766
49592W        W17966  13.107  12.218  11.116
49593W        W17967  21.659  25.573   1.771
49594W        W17968  29.635  43.418   0.750
49595W        W17969   2.273  10.276   5.157
49596W        W17970   6.259  44.965   0.433
49597W        W17971   3.810   4.283  14.842
49598W        W17972  34.523   5.368   2.398
49599W        W17973  40.024   9.384  14.874
49600W        W17974  10.738  16.287  13.836
49601W        W17975  16.572  44.341  13.037
49602W        W17976  26.567  33.528   3.384
49603W        W17977  27.949  24.112  10.970
49604W        W17978  28.503  25.530  11.385
49605W        W17979   6.290  31.418  14.786
49606W        W17980  16.102  11.304  12.492
49607W        W17981  10.802  36.014   0.907
49608W        W17982  41.009  42.318  14.893
49609W        W17983  24.519  28.983  14.507
49610W        W17984  26.082  35.953   0.264
49611W        W17985  13.223  32.010  14.438
49612W        W17986  39.868   3.377  10.464
49613W        W17987  42.907  30.999   4.176
49614W        W17988  17.612  30.568  13.026
49615W        W17989  33.618  25.491   9.937
49616W        W17990  10.877  13.328  10.483
49617W        W17991   9.222  44.826  13.826
49618W        W17992  33.505  41.978  10.565
49619W        W17993   8.735  14.110   0.810
49620W        W17994  44.889  40.309  14.483
49621W        W17995  23.547  42.898   3.367
49622W        W17996   5.411   4.912   2.357
49623W        W17997  33.440  18.605  10.916
49624W        W17998  34.926   8.383   4.309
49625W        W17999  15.205  29.993  14.924
49626W        W18000  39.459  14.769   3.868
49627W        W18001  23.992   9.677   3.172
49628W        W18002   9.799  20.550  14.976
49629W        W18003  43.350  21.595  12.360
49630W        W18004  31.014  24.598  11.564
49631W        W18005  17.673  21.145  14.362
49632W        W18006  29.512  12.839  13.460
49633W        W18007  23.054   5.418   3.263
49634W        W18008  17.267  43.383   1.698
49635W        W18009   2.741  12.252  11.892
49636W        W18010   2.928  42.975  10.597
49637W        W18011  37.397  13.752   1.245
49638W        W18012  44.447  14.308  13.458
49639W        W18013  36.436  25.562   4.834
49640W        W18014  20.629   0.324   3.272
49641W        W18015   5.404  18.654   3.683
49642W        W18016  18.114   6.315  11.876
49643W        W18017  18.713  33.959   0.781
49644W        W18018  10.374  23.195   3.357
49645W        W18019   7.332  19.103   1.885
49646W        W18020  17.214  28.144  12.976
49647W        W18021  44.919   4.756  11.535
49648W        W18022  34.391   5.784   2.726
49649W        W18023  25.188   7.309   2.685
49650W        W18024   5.688  40.329  11.022
49651W        W18025  20.272  30.591   0.892
49652W        W18026  32.979  34.045  13.030
49653W        W18027  13.727   3.807   3.713
49654W        W18028  33.501  20.631   3.697
49655W        W18029   8.744  23.986   2.281
49656W        W18030  13.656  28.528   2.790
49657W        W18031  15.603   0.890   0.858
49658W        W18032  39.888  21.027  14.848
49659W        W18033  25.065   8.774  11.593
49660W        W18034  36.056  35.852  11.002
49661W        W18035  25.030  12.339   3.326
49662W        W18036  30.992  21.069  14.516
49663W        W18037  19.279   8.162   4.810
49664W        W18038  17.771  44.767   2.754
49665W        W18039  23.551  17.686   3.315
49666W        W18040  37.446  25.581   0.770
49667W        W18041  32.023  28.005  13.929
49668W        W18042   2.235  19.251  11.373
49669W        W18043   9.756  40.840  13.978
49670W        W18044  18.659  24.087   4.640
49671W        W18045  16.765   7.801   1.846
49672W        W18046  42.413  41.817   3.772
49673W        W18047   1.239  17.173  12.009
49674W        W18048   1.935  34.077  14.856
49675W        W18049  25.968   5.251  11.109
49676W        W18050  19.173  40.912  12.542
49677W        W18051  20.547   7.253   3.316
49678W        W18052  42.864  39.929  13.042
49679W        W18053  21.022  30.431  13.804
49680W        W18054  29.101  40.541  12.826
49681W        W18055  30.148   7.699  14.971
49682W        W18056  36.931   9.861  11.461
49683W        W18057  36.455  13.698   4.677
49684W        W18058  27.679  15.676   3.664
49685W        W18059  19.663  29.619   3.708
49686W        W18060  41.495   5.375   3.361
49687W        W18061  38.347  27.134   2.183
49688W        W18062  27.115  44.405   1.427
49689W        W18063  38.338  42.781   3.215
49690W        W18064  38.494  15.689  11.020
49691W        W18065  28.958   2.737  12.061
49692W        W18066  15.679  21.249  14.400
49693W        W18067  40.381  22.182  13.332
49694W        W18068  38.845  27.128   0.257
49695W        W18069   0.954  28.949   3.355
49696W        W18070  11.745  33.449  11.555
49697W        W18071  38.068  37.377   2.391
49698W        W18072  15.327  41.935   1.736
49699W        W18073  28.524   3.371   2.745
49700W        W18074  16.149  29.606  10.025
49701W        W18075  43.302  38.509  12.980
49702W        W18076  39.544  21.662   2.273
49703W        W18077  40.325  35.524   0.966
49704W        W18078  20.767  19.049  14.858
49705W        W18079  24.539  35.421  14.415
49706W        W18080  19.138  20.648   3.644
49707W        W18081  29.451   9.814  12.046
49708W        W18082  22.583  40.472  13.903
49709W        W18083   8.242  25.190   2.345
49710W        W18084  35.484   5.816  11.864
49711W        W18085  12.192  40.849   4.133
49712W        W18086  15.662  11.327   3.233
49713W        W18087  11.182   8.252  11.077
49714W        W18088  33.477  22.599   3.260
49715W        W18089  32.069  42.936  10.918
49716W        W18090  39.973   1.340   1.274
49717W        W18091  21.612  17.242  13.337
49718W        W18092  26.009  30.531  11.057
49719W        W18093  27.945   0.374   1.709
49720W        W18094   1.829   3.954  10.438
49721W        W18095  22.610  23.054   3.215
49722W        W18096  16.132   6.330  11.447
49723W        W18097  41.023  21.144  10.448
49724W        W18098  27.994  28.148   5.185
49725W        W18099  21.159  38.005   4.691
49726W        W18100  23.139  11.148  14.786
49727W        W18101  28.107  25.634  11.957
49728W        W18102   6.341  43.905  14.279
49729W        W18103  13.170  39.909  13.873
49730W        W18104  15.678  11.709   0.925
49731W        W18105  25.180  37.513  13.948
49732W        W18106  44.904  32.957   2.751
49733W        W18107   0.813  16.631  12.003
49734W        W18108  40.381   1.392   4.210
49735W        W18109  11.714  19.700   4.351
49736W        W18110  35.038  34.066   2.377
49737W        W18111  22.649  36.098   2.341
49738W        W18112  12.322  22.173   3.664
49739W        W18113  33.073   6.749   0.802
49740W        W18114   1.340  37.859  12.541
49741W        W18115  20.064  36.369   4.811
49742W        W18116  15.625  15.797  14.879
49743W        W18117  38.495  29.597  10.927
49744W        W18118  22.597  21.732   0.465
49745W        W18119   2.875  25.697  11.446
49746W        W18120  33.386  17.278   4.646
49747W        W18121  28.993  27.946   0.359
49748W        W18122  31.148  14.749   3.313
49749W        W18123  17.217  36.449  11.051
49750W        W18124  14.796  37.037  13.351
49751W        W18125   8.823   2.840  11.456
49752W        W18126  29.054  40.980  11.030
49753W        W18127  18.606   4.706  11.899
49754W        W18128   9.810  25.497   1.891
49755W        W18129  26.054  28.011  13.824
49756W        W18130  40.900  13.308  10.588
49757W        W18131  26.017   5.927  14.411
49758W        W18132  41.799  44.266   4.737
49759W        W18133  29.074  39.021  10.637
49760W        W18134  32.910  19.566  12.356
49761W        W18135  21.093  34.508  11.909
49762W        W18136   3.399  27.491  14.452
49763W        W18137  14.168   7.780   3.681
49764W        W18138  10.149  33.422  12.084
49765W        W18139  31.033  34.874  11.935
49766W        W18140  32.050  34.395  12.077
49767W        W18141  33.581  38.027  11.025
49768W        W18142  34.923  31.050  14.772
49769W        W18143  20.151  24.064  12.980
49770W        W18144  41.845  16.569   2.409
49771W        W18145  30.072  27.499   1.323
49772W        W18146  39.426   8.355  10.097
49773W        W18147  26.002  41.321  14.834
49774W        W18148   6.211   4.415   2.314
49775W        W18149  25.083  42.521   4.297
49776W        W18150   1.470  14.220   5.275
49777W        W18151  30.111  22.676   4.720
49778W        W18152  18.582  42.975  11.917
49779W        W18153  30.428  35.412   4.838
49780W        W18154   3.738  21.687  14.477
49781W        W18155  23.164  38.883   0.965
49782W        W18156  16.777   5.760  11.386
49783W        W18157  11.781  24.622   4.722
49784W        W18158  29.670  42.406  14.384
49785W        W18159  10.284  13.246   5.101
49786W        W18160  31.599   4.275  11.122
49787W        W18161  17.078  24.530   1.434
49788W        W18162  33.595  11.360  14.972
49789W        W18163  42.826  35.094   5.108
49790W        W18164  42.904  38.354   3.238
49791W        W18165  21.203  21.119  14.941
49792W        W18166  29.159  27.148   2.283
49793W        W18167   9.273  34.565  11.919
49794W        W18168  37.427  13.224  10.572
49795W        W18169  10.870  29.033   1.798
49796W        W18170  14.173  42.500  14.768
49797W        W18171  41.493  38.944   1.742
49798W        W18172  31.133  40.858  11.386
49799W        W18173  43.397  23.696  11.963
49800W        W18174  21.244  30.526  12.053
49801W        W18175  38.426  16.318   2.311
49802W        W18176   3.902  30.428   1.820
49803W        W18177  19.152  11.175  10.520
49804W        W18178  34.385  23.563  11.925
49805W        W18179  43.777  14.324   0.812
49806W        W18180  16.129  11.356   0.766
49807W        W18181  11.309  19.699   4.198
49808W        W18182  13.726  12.683   0.249
49809W        W18183   9.230  33.875  10.946
49810W        W18184  31.052  28.992   0.343
49811W        W18185   8.894  32.580   2.348
49812W        W18186  17.285  33.918  11.060
49813W        W18187   5.193  15.311  12.446
49814W        W18188  42.802  38.335  13.326
49815W        W18189  42.855  22.634  11.481
49816W        W18190  43.834  18.550   3.290
49817W        W18191  15.664  10.719  12.825
49818W        W18192  30.038  36.409   4.226
49819W        W18193  18.678   9.174   0.280
49820W        W18194   5.316   8.810   4.657
49821W        W18195  22.629  39.536   2.848
49822W        W18196  11.736  40.330  13.865
49823W        W18197  40.028  17.567  14.477
49824W        W18198  30.634  23.493  11.380
49825W        W18199  28.087  30.449   1.896
49826W        W18200   9.797  17.306   0.346
49827W        W18201  22.599  11.742  13.929
49828W        W18202  41.506  30.642   3.311
49829W        W18203  23.544   0.871   4.268
49830W        W18204   7.321  35.483   2.882
49831W        W18205  16.232   0.897   3.869
49832W        W18206  35.889  20.659  14.993
49833W        W18207  20.735  13.254   4.697
49834W        W18208   7.204  20.526  11.924
49835W        W18209   9.819  43.418   3.251
49836W        W18210  19.770  24.008   0.258
49837W        W18211  36.469  18.555  11.924
49838W        W18212   4.926   4.430  12.387
49839W        W18213  20.161  22.744   1.872
49840W        W18214  35.574  34.500   1.261
49841W        W18215  18.591  17.710   2.378
49842W        W18216  21.565  18.272   0.856
49843W        W18217  38.374  11.668  10.911
49844W        W18218  14.725  12.341  13.535
49845W        W18219  20.768  38.348   1.232
49846W        W18220  19.624  35.887  12.044
49847W        W18221   0.253  35.473  11.434
49848W        W18222  37.373  10.200  14.976
49849W        W18223  12.638  10.375   2.355
49850W        W18224  22.629  21.745  11.953
49851W        W18225  22.205  21.533   0.783
49852W        W18226  28.024  17.092  10.549
49853W        W18227  26.470  42.365  14.447
49854W        W18228  40.929  29.112  13.362
49855W        W18229   1.409  22.143   3.866
49856W        W18230   5.350  20.543  13.363
49857W        W18231  41.527   5.728  11.576
49858W        W18232   3.289  38.543   1.897
49859W        W18233   0.424  33.070  11.443
49860W        W18234  33.391   4.741   3.705
49861W        W18235  39.373  22.529   1.355
49862W        W18236  14.727   8.270   2.730
49863W        W18237  11.306  34.089  13.816
49864W        W18238  33.061  20.558  14.773
49865W        W18239  18.253  15.179   2.809
49866W        W18240  16.124   5.295   0.832
49867W        W18241  18.742  13.181   4.781
49868W        W18242  39.952  17.596  12.097
49869W        W18243   7.880   3.421  10.501
49870W        W18244  36.083  28.569   1.366
49871W        W18245  23.708  43.811  13.833
49872W        W18246  26.654  31.573  12.468
49873W        W18247   5.727  30.977  14.322
49874W        W18248  44.488  17.627   3.774
49875W        W18249  21.547  23.638   0.782
49876W        W18250  11.324  44.318  14.296
49877W        W18251   4.278  12.335  11.857
49878W        W18252   7.352   8.374  13.336
49879W        W18253  42.486  19.231   4.830
49880W        W18254  22.650  33.909   3.262
49881W        W18255  32.936   7.890  11.883
49882W        W18256   9.188  10.149  13.331
49883W        W18257   9.660  27.689   3.336
49884W        W18258  40.815  21.184   1.292
49885W        W18259  42.453  31.098  13.816
49886W        W18260   1.966  30.026   0.246
49887W        W18261  40.878  43.277  13.821
49888W        W18262  15.091  22.241   1.821
49889W        W18263  13.780   2.336   3.312
49890W        W18264   7.727  36.510   0.281
49891W        W18265  16.266  12.829   3.150
49892W        W18266  24.634  24.153  14.021
49893W        W18267   3.221  37.405  11.080
49894W        W18268  29.100  34.951   3.270
49895W        W18269  11.218  31.139   3.337
49896W        W18270   0.840   0.885   5.147
49897W        W18271  12.834   8.184   0.415
49898W        W18272  22.232  39.440   4.698
49899W        W18273   0.916  24.702  10.472
49900W        W18274  28.589  22.103  11.955
49901W        W18275  18.140  32.015   3.263
49902W        W18276  13.195  20.090  13.943
49903W        W18277   8.711  23.679   4.156
49904W        W18278  16.179  13.333   4.673
49905W        W18279  10.704  26.153   4.749
49906W        W18280  26.622  21.165  11.997
49907W        W18281  11.186  31.606  10.627
49908W        W18282  32.892  24.203   4.622
49909W        W18283  14.249  35.412  14.027
49910W        W18284  16.694  34.085  13.012
49911W        W18285  37.363  29.032   4.179
49912W        W18286   4.324  39.452  10.644
49913W        W18287  43.842  32.574   0.870
49914W        W18288   5.336  23.502  13.335
49915W        W18289  18.780  28.598  12.420
49916W        W18290  10.319  38.925  11.089
49917W        W18291  29.152  24.499  12.478
49918W        W18292  11.277  24.220   4.835
49919W        W18293   0.408  23.013  13.958
49920W        W18294  25.677  11.191  12.006
49921W        W18295  37.510  30.087   4.264
49922W        W18296   1.919  12.173  14.397
49923W        W18297   3.795  25.963  14.326
49924W        W18298  39.885  26.602  12.901
49925W        W18299  31.110  12.822   4.177
49926W        W18300  35.868  25.687  14.999
49927W        W18301  13.742   7.835  14.284
49928W        W18302  33.889  38.356   1.398
49929W        W18303  18.582  44.835   2.872
49930W        W18304  21.592  18.673   3.385
49931W        W18305  36.561   2.412  13.542
49932W        W18306  32.544  19.757  10.971
49933W        W18307  35.032   6.396   3.304
49934W        W18308  20.719   6.814  11.465
49935W        W18309   7.358   6.680  14.414
49936W        W18310  19.626  16.811   3.270
49937W        W18311  37.917  12.303   0.778
49938W        W18312  36.977  43.396   3.352
49939W        W18313  24.015  19.695   1.933
49940W        W18314  25.646  38.551  12.032
49941W        W18315  37.421  28.947  14.907
49942W        W18316   6.386  28.677   1.218
49943W        W18317  17.637  36.093   0.743
49944W        W18318  32.448  18.674   4.285
49945W        W18319  37.038   3.800  11.009
49946W        W18320  40.835  14.718   3.784
49947W        W18321  23.100  14.604   1.244
49948W        W18322  14.821  29.166   0.395
49949W        W18323  25.065  31.004   1.709
49950W        W18324  11.249  11.265  11.575
49951W        W18325  43.448   1.834  11.081
49952W        W18326   4.340  44.333  10.637
49953W        W18327  39.319  41.893  12.995
49954W        W18328   0.358  38.046   2.821
49955W        W18329  27.057  19.224  13.954
49956W        W18330  31.464  10.850   4.713
49957W        W18331  11.174  38.373  10.522
49958W        W18332   0.764   1.747  14.942
49959W        W18333   8.865  12.303   3.805
49960W        W18334  44.490  29.993  12.375
49961W        W18335  35.054  18.248   9.934
49962W        W18336  42.483  13.286  13.886
49963W        W18337  30.909  44.486  14.452
49964W        W18338  38.479  40.932   1.884
49965W        W18339  41.317  16.305   2.896
49966W        W18340   6.717   2.827   4.641
49967W        W18341  44.264  24.566   4.721
49968W        W18342   0.922  35.924  14.389
49969W        W18343  33.588  32.624  12.853
49970W        W18344  17.272  35.478   3.216
49971W        W18345  18.142  23.195  12.351
49972W        W18346  35.855  43.344   1.405
49973W        W18347  25.201  38.364   2.888
49974W        W18348  28.050  14.796   0.275
49975W        W18349  40.954  40.864   0.812
49976W        W18350   5.389  29.052  12.910
49977W        W18351  36.978   9.792   1.925
49978W        W18352  12.134  38.405   3.680
49979W        W18353  27.475   4.441   1.420
49980W        W18354  43.343  21.570   2.700
49981W        W18355  14.265  22.056   0.814
49982W        W18356  28.084  36.588   1.380
49983W        W18357  38.332  12.689  12.955
49984W        W18358  22.657  10.225   1.371
49985W        W18359  43.785  11.148  12.962
49986W        W18360  39.917  36.066  12.528
49987W        W18361  39.317  10.632   1.227
49988W        W18362  15.284  36.491   2.388
49989W        W18363  37.577  14.279  13.952
49990W        W18364  33.625  30.097   3.263
49991W        W18365  35.906   3.261  12.440
49992W        W18366   5.272   4.238  13.395
49993W        W18367  14.652  32.515  11.381
49994W        W18368  27.990  25.470   2.189
49995W        W18369   8.343  38.470   3.289
49996W        W18370  12.626   5.407  12.496
49997W        W18371   0.981   3.371  13.446
49998W        W18372  21.702  32.958   3.716
49999W        W18373  30.534  12.217   0.412
50000W        W18374  23.572  43.940  12.834
50001W        W18375   3.374  17.712  13.966
50002W        W18376  22.151  24.529  12.919
50003W        W18377  40.928  15.721  10.504
50004W        W18378  12.202  34.058   3.254
50005W        W18379   2.335  27.592   3.683
50006W        W18380   0.809  11.326   3.794
50007W        W18381  40.989  32.088  10.124
50008W        W18382   6.396   6.710   0.956
50009W        W18383   5.361  14.132  11.511
50010W        W18384  25.701   5.313   1.425
50011W        W18385  16.649  16.710   1.431
50012W        W18386  30.529  25.608   3.693
50013W        W18387   2.322  24.985  14.484
50014W        W18388  31.904  10.757   2.357
50015W        W18389  34.520  24.621   2.816
50016W        W18390  34.990  23.706   3.187
50017W        W18391   8.206   9.663   0.737
50018W        W18392  40.363  15.590   1.708
50019W        W18393  39.014  31.432   2.290
50020W        W18394   6.921  32.989   4.607
50021W        W18395  36.536  14.282  13.019
50022W        W18396  36.911  39.452  14.369
50023W        W18397   6.711  43.957   4.249
50024W        W18398  38.880   6.893  13.818
50025W        W18399  30.466  27.469   1.934
50026W        W18400  11.235  33.889   0.795
50027W        W18401  39.542   4.731  11.495
50028W        W18402  27.505  30.923  14.320
50029W        W18403   3.776   5.226  11.987
50030W        W18404  32.933   7.896  13.414
50031W        W18405  10.237   2.727  12.980
50032W        W18406  40.382  27.118   0.348
50033W        W18407  41.981  16.101   0.869
50034W        W18408  37.066  31.985  13.005
50035W        W18409   2.339  34.396   4.613
50036W        W18410  15.801  31.630   1.748
50037W        W18411  30.415  14.610   1.717
50038W        W18412  25.619   9.865  10.472
50039W        W18413   0.357  15.584  11.412
50040W        W18414  24.578  27.184   0.366
50041W        W18415  10.795  14.115   3.828
50042W        W18416  13.240  18.081   4.346
50043W        W18417  22.085  10.770  14.902
50044W        W18418  15.244  37.575  13.368
50045W        W18419  28.058  21.025   5.296
50046W        W18420  31.482  16.666  13.328
50047W        W18421   4.387   1.786  12.456
50048W        W18422   5.389  42.463   0.330
50049W        W18423  17.229  43.331   1.266
50050W        W18424  37.881  28.160  11.967
50051W        W18425   9.318  32.393   0.253
50052W        W18426  26.150  41.517  12.919
50053W        W18427  16.702   5.240   0.812
50054W        W18428  18.720  34.883  10.409
50055W        W18429  41.849  37.442  13.807
50056W        W18430   6.909  22.033  11.082
50057W        W18431  30.004  26.608   4.237
50058W        W18432  44.833   8.854  13.371
50059W        W18433  41.460   6.889   2.270
50060W        W18434  15.285  21.070  12.517
50061W        W18435   2.417  26.677  12.838
50062W        W18436  24.019  42.959  13.476
50063W        W18437  33.048  41.391   3.234
50064W        W18438   1.472   2.884  12.400
50065W        W18439  40.966  35.978  13.804
50066W        W18440  44.378  24.658   0.944
50067W        W18441  26.568  27.094  14.319
50068W        W18442  36.425  20.204  14.912
50069W        W18443  40.923  42.400   4.653
50070W        W18444   5.209  11.638  13.008
50071W        W18445   1.281  39.549  12.579
50072W        W18446   7.697  34.428   2.828
50073W        W18447  40.981  15.645  14.901
50074W        W18448  36.440  31.491  14.996
50075W        W18449  26.183  35.939  13.898
50076W        W18450  42.031  39.868   3.285
50077W        W18451  29.472  19.758  10.903
50078W        W18452  19.272  22.677  11.957
50079W        W18453  32.498  39.447  10.611
50080W        W18454  18.593  37.879   0.473
50081W        W18455  25.577  32.516  13.852
50082W        W18456  36.035  23.512   3.174
50083W        W18457   7.365  22.068  11.911
50084W        W18458  13.837  10.666  14.994
50085W        W18459  22.682  20.249  14.362
50086W        W18460   0.774  37.956   4.760
50087W        W18461   0.381  13.178   1.804
50088W        W18462  12.216  25.495  11.873
50089W        W18463  41.987  23.093   3.313
50090W        W18464  26.142  35.572  13.529
50091W        W18465   4.305  26.600   3.698
50092W        W18466  22.558  30.956   2.279
50093W        W18467  32.614   0.480  13.471
50094W        W18468   4.351  35.383  11.009
50095W        W18469  23.209  16.790   0.393
50096W        W18470  32.923  39.036   4.602
50097W        W18471  11.259  28.491  14.357
50098W        W18472   6.241   9.700  13.007
50099W        W18473  41.469  26.663  11.034
50100W        W18474  34.912  14.317  12.054
50101W        W18475  16.811  23.600   2.697
50102W        W18476  37.479  22.645   3.207
50103W        W18477  36.368  34.399   3.382
50104W        W18478   3.795  37.862   3.163
50105W        W18479  12.151  23.115  13.358
50106W        W18480  19.208  11.815  14.508
50107W        W18481  24.051  25.652  13.509
50108W        W18482   5.779  10.784   2.712
50109W        W18483  24.117  24.660   4.222
50110W        W18484  23.049  13.292  12.499
50111W        W18485  32.008  31.984   4.329
50112W        W18486  22.030  27.606   1.377
50113W        W18487   3.233   9.879  12.565
50114W        W18488  17.255   6.190  12.026
50115W        W18489  37.451  15.217  12.959
50116W        W18490   0.357  37.397   1.720
50117W        W18491  15.175  31.077  12.368
50118W        W18492  22.075  35.959   1.383
50119W        W18493  14.218  38.332  13.310
50120W        W18494  19.581   2.232  13.360
50121W        W18495   1.404  15.666  10.568
50122W        W18496  15.231  25.146   2.736
50123W        W18497   4.830   0.279  11.929
50124W        W18498   7.290  36.944   1.873
50125W        W18499   6.698  14.254   3.241
50126W        W18500  11.817  40.465   4.217
50127W        W18501   1.970   5.318  12.030
50128W        W18502  42.452  24.047   0.305
50129W        W18503   4.932  33.575   3.821
50130W        W18504  35.887  39.480  10.639
50131W        W18505  43.428  39.840   2.413
50132W        W18506  13.663  13.648  12.851
50133W        W18507   6.336  43.985   4.341
50134W        W18508  33.464   4.801  14.919
50135W        W18509  42.863  24.550  11.609
50136W        W18510  35.412  44.485   0.456
50137W        W18511  43.476  29.001   0.873
50138W        W18512  21.263  42.880  12.926
50139W        W18513  37.410  40.910   1.246
50140W        W18514  26.962  17.602  12.950
50141W        W18515  36.461  17.220  12.396
50142W        W18516  37.882  19.071   3.830
50143W        W18517  36.451  40.797   3.758
50144W        W18518   7.379  31.605  10.471
50145W        W18519   4.706  18.573  12.569
50146W        W18520  12.194   8.401   1.260
50147W        W18521  44.356  19.130  14.027
50148W        W18522  23.013  15.654  12.051
50149W        W18523  36.415  34.906  14.758
50150W        W18524  21.058   4.299   2.689
50151W        W18525  28.973  14.185   3.250
50152W        W18526  39.877   4.729  10.956
50153W        W18527  37.508   7.303   0.424
50154W        W18528  12.832  26.122   4.137
50155W        W18529  28.999  14.764   4.165
50156W        W18530  44.880  44.975   1.254
50157W        W18531  22.209  24.163   0.941
50158W        W18532  38.360  28.516   2.286
50159W        W18533  26.971   7.173  10.576
50160W        W18534  30.645  41.402   0.385
50161W        W18535  11.685  44.857   3.761
50162W        W18536   5.269  44.962  13.996
50163W        W18537  44.775  43.767   1.233
50164W        W18538  35.874  13.198  14.777
50165W        W18539  29.634  21.733   1.811
50166W        W18540  16.270  38.881   1.845
50167W        W18541  11.182  28.058   0.884
50168W        W18542  18.169  11.261  12.910
50169W        W18543   7.257  11.254  13.343
50170W        W18544  31.956  10.754  13.825
50171W        W18545  26.605  34.095  12.549
50172W        W18546  34.583  36.544  12.066
50173W        W18547  22.007  19.108   2.411
50174W        W18548  34.419  18.578   4.333
50175W        W18549  29.029   6.865  11.862
50176W        W18550  18.257  29.056  13.437
50177W        W18551  37.551  16.589   1.346
50178W        W18552   8.760  24.543   0.919
50179W        W18553  13.635  24.056  14.337
50180W        W18554  13.106   2.439  13.352
50181W        W18555  25.992  40.431   2.723
50182W        W18556  27.039   1.772  11.415
50183W        W18557   1.937  12.836   3.871
50184W        W18558   8.235   6.759   1.236
50185W        W18559  30.485  18.214   1.908
50186W        W18560  18.266  44.815   3.267
50187W        W18561   0.456  43.345  13.848
50188W        W18562  14.222  33.576   2.395
50189W        W18563  39.449  24.600  12.536
50190W        W18564  40.472  41.961   4.832
50191W        W18565   0.406   1.757   3.824
50192W        W18566  29.014  17.210  11.408
50193W        W18567   8.660  35.454   3.192
50194W        W18568  16.296  25.099  14.909
50195W        W18569  10.364  41.310   4.660
50196W        W18570   6.423  15.810   1.881
50197W        W18571  30.551  43.919   0.463
50198W        W18572  40.313  21.242   1.322
50199W        W18573  35.436  41.002  10.431
50200W        W18574  31.403   7.400   0.257
50201W        W18575  15.755  37.502   3.330
50202W        W18576  29.155  31.425   1.324
50203W        W18577  28.540   3.330  14.866
50204W        W18578  44.272  42.328  11.060
50205W        W18579  23.198  35.498   1.442
50206W        W18580  40.488   1.311   0.764
50207W        W18581  32.050  44.452  10.951
50208W        W18582  35.082  43.350   0.920
50209W        W18583  19.539  36.066  14.474
50210W        W18584  18.763  38.988   2.377
50211W        W18585  23.614  38.032   4.289
50212W        W18586  40.847  32.959   1.914
50213W        W18587  42.973  30.529   2.845
50214W        W18588  30.475  17.219  12.072
50215W        W18589  21.249  43.954   4.677
50216W        W18590  19.770   3.269   1.904
50217W        W18591   0.280  19.087   4.728
50218W        W18592   3.853  22.701  11.445
50219W        W18593  10.756  34.474  12.054
50220W        W18594   7.196  19.225  12.408
50221W        W18595  31.113  20.056  10.608
50222W        W18596  18.196  32.479   4.795
50223W        W18597  30.981  22.243   3.195
50224W        W18598   3.808  10.750   0.325
50225W        W18599  30.650  20.641  13.445
50226W        W18600   2.337  31.585  13.468
50227W        W18601  26.464  33.509   0.784
50228W        W18602  35.389  12.137  14.513
50229W        W18603  18.242  31.978   4.675
50230W        W18604   9.735  12.643  14.325
50231W        W18605  12.345   9.801  11.099
50232W        W18606   5.772   2.227  12.087
50233W        W18607  18.269  14.831  11.560
50234W        W18608  33.938  33.581   0.394
50235W        W18609  10.326  22.521   2.809
50236W        W18610  19.749   6.767  12.459
50237W        W18611  10.747  25.069   2.274
50238W        W18612  29.638  28.093   2.381
50239W        W18613  27.166  24.035  12.085
50240W        W18614  42.342   9.677  11.611
50241W        W18615  35.416  42.303   0.270
50242W        W18616  30.130   1.880  14.874
50243W        W18617   3.421  29.488  12.931
50244W        W18618   1.390  30.512   4.720
50245W        W18619   5.823  17.082  14.486
50246W        W18620  18.188   7.819  11.911
50247W        W18621  35.366   8.225   1.385
50248W        W18622  34.019  23.566   2.418
50249W        W18623  43.800   8.334   0.806
50250W        W18624   5.764  12.645  13.450
50251W        W18625  35.888   3.414  14.395
50252W        W18626  23.082  37.884   5.676
50253W        W18627  40.502  12.350  11.086
50254W        W18628   8.678  40.341  13.922
50255W        W18629  13.688  27.959  11.073
50256W        W18630  11.711  24.545   0.278
50257W        W18631  23.162   3.299  10.013
50258W        W18632  44.329  14.808   2.842
50259W        W18633   1.751   3.760   0.773
50260W        W18634   2.233   3.803  12.874
50261W        W18635  18.231   4.388  12.533
50262W        W18636  19.719  39.976   2.896
50263W        W18637  39.004  10.260   4.610
50264W        W18638  21.623  33.593   0.476
50265W        W18639  35.071  24.509  14.807
50266W        W18640  21.192   2.724   0.348
50267W        W18641  20.202  16.262  12.012
50268W        W18642  18.610   1.859  13.931
50269W        W18643   9.786   6.848  13.397
50270W        W18644  11.320   0.914   2.272
50271W        W18645  10.768  38.843   1.404
50272W        W18646  27.183  44.318   2.338
50273W        W18647  26.693  33.452   0.352
50274W        W18648  10.165  14.639   0.869
50275W        W18649  16.134  42.908   1.757
50276W        W18650   1.748  16.233  12.381
50277W        W18651   8.321  21.211   3.180
50278W        W18652  36.498  29.070  12.481
50279W        W18653  40.375  17.306  14.821
50280W        W18654  30.601  29.974  10.454
50281W        W18655  26.458  41.970  12.579
50282W        W18656   6.222  22.234  11.930
50283W        W18657  25.671  14.779   0.436
50284W        W18658  35.021  33.575   1.396
50285W        W18659  24.511  25.567  14.789
50286W        W18660   7.345  17.629  12.442
50287W        W18661  29.982  35.974  13.510
50288W        W18662  36.858  18.091  11.460
50289W        W18663   3.409  37.922   0.278
50290W        W18664  20.146  11.835   2.700
50291W        W18665  23.551  26.519  12.360
50292W        W18666  20.522   6.826   3.807
50293W        W18667  41.315  40.413   2.813
50294W        W18668  37.861  42.390  14.838
50295W        W18669  28.549   9.764   2.360
50296W        W18670  33.007  17.099   1.705
50297W        W18671  10.339   8.725  13.883
50298W        W18672  18.766  26.171   0.386
50299W        W18673   6.905  21.051   4.342
50300W        W18674  20.171  11.737  12.341
50301W        W18675  24.018  29.454  14.768
50302W        W18676  43.945  43.856   2.789
50303W        W18677  37.541  15.144  11.520
50304W        W18678  23.634  13.178   2.721
50305W        W18679  27.592   0.268  11.981
50306W        W18680  28.654  44.871  10.904
50307W        W18681  13.305  41.877  12.910
50308W        W18682  22.053  37.916   2.885
50309W        W18683   6.865  44.472  12.906
50310W        W18684  11.332   4.906  13.352
50311W        W18685  34.415  44.008  14.981
50312W        W18686  44.485   0.915   2.736
50313W        W18687  27.104   1.857   1.323
50314W        W18688  10.156  38.002  14.375
50315W        W18689  44.928  43.298   2.663
50316W        W18690  28.029   9.201  14.343
50317W        W18691  44.902  17.294  12.486
50318W        W18692  25.971  15.607   5.174
50319W        W18693   1.408  35.915   4.272
50320W        W18694  23.500  31.427   2.783
50321W        W18695  26.533  27.027   4.742
50322W        W18696  40.314  34.492   4.736
50323W        W18697   1.441  14.698   0.294
50324W        W18698   9.673  20.615   3.340
50325W        W18699   0.931   1.463   0.745
50326W        W18700  41.345  31.423  14.350
50327W        W18701  31.927  22.570  13.502
50328W        W18702  31.568  32.500  13.377
50329W        W18703  17.154   8.888  12.554
50330W        W18704  11.183  18.249   3.824
50331W        W18705  40.960   4.288   0.332
50332W        W18706  43.414   5.406   4.177
50333W        W18707  15.772  16.288  14.429
50334W        W18708  12.352   8.227   0.800
50335W        W18709  44.341   1.269   3.852
50336W        W18710  20.600   0.774  12.357
50337W        W18711  36.916  33.887   4.116
50338W        W18712   8.374  34.466  14.831
50339W        W18713  17.784  13.768   1.281
50340W        W18714  12.658   0.380   1.860
50341W        W18715  36.389  22.234   0.362
50342W        W18716  12.237   8.357   2.744
50343W        W18717   4.384  28.532   2.819
50344W        W18718  31.538  39.407  11.488
50345W        W18719  43.469  19.590   0.247
50346W        W18720   5.698  43.791   2.417
50347W        W18721  20.262  36.972  13.395
50348W        W18722  32.462   5.846  12.974
50349W        W18723  10.149  39.401  12.025
50350W        W18724  43.865  41.512   3.829
50351W        W18725  21.587  35.047   3.684
50352W        W18726  12.793   1.783  13.344
50353W        W18727  37.986   0.782  13.471
50354W        W18728  32.579  37.541  11.571
50355W        W18729  34.600  42.002  14.462
50356W        W18730  18.731  23.687   2.211
50357W        W18731  30.908   2.964   2.313
50358W        W18732  16.798  44.005  13.380
50359W        W18733   6.799   8.165  12.505
50360W        W18734  34.960  26.047  12.402
50361W        W18735  43.832   9.679   3.235
50362W        W18736  17.665  18.662   4.236
50363W        W18737   6.732  19.233  11.533
50364W        W18738  29.503   6.871   1.858
50365W        W18739  43.361  37.572   4.197
50366W        W18740  43.018  21.564   0.438
50367W        W18741  21.133  20.200  11.918
50368W        W18742  11.689  21.188  14.776
50369W        W18743   3.260  36.452  14.446
50370W        W18744  44.495   4.390   4.249
50371W        W18745   7.236  34.951   0.750
50372W        W18746  15.124   3.952  13.497
50373W        W18747  33.456  27.494   2.348
50374W        W18748  33.935  40.918  12.828
50375W        W18749  35.011   0.893  10.538
50376W        W18750  24.619  24.143   3.297
50377W        W18751   4.261   7.759   1.869
50378W        W18752  28.664  24.493  11.552
50379W        W18753  18.209  39.319   1.224
50380W        W18754  35.989   4.803   1.326
50381W        W18755  10.746  33.489  13.834
50382W        W18756  36.554   4.860  11.977
50383W        W18757  10.769  10.830  14.937
50384W        W18758  15.689  34.445  14.945
50385W        W18759   0.429  13.691  12.839
50386W        W18760  28.099  27.952  12.902
50387W        W18761  42.325   9.835   2.733
50388W        W18762  35.070  13.762  11.547
50389W        W18763  20.099  37.424   0.458
50390W        W18764  32.143  19.657  13.539
50391W        W18765  12.715  29.119  13.993
50392W        W18766   7.716  29.507  13.857
50393W        W18767   4.700  35.569   3.237
50394W        W18768  40.012  24.553   3.829
50395W        W18769   3.273  10.635   4.147
50396W        W18770   7.736  28.018  10.429
50397W        W18771  29.992   7.263   4.177
50398W        W18772   3.367  22.182  14.353
50399W        W18773  34.377  34.476   3.636
50400W        W18774  16.723  28.048   2.229
50401W        W18775   8.370  44.459  13.453
50402W        W18776  34.502  37.889  14.309
50403W        W18777  24.660  43.836   4.170
50404W        W18778  32.949  24.979  11.522
50405W        W18779  33.034  11.199   0.433
50406W        W18780   5.763  25.165  13.307
50407W        W18781  16.599  33.585   4.114
50408W        W18782  19.179  44.460   3.327
50409W        W18783  15.118  12.181  12.915
50410W        W18784  15.745   2.743  12.942
50411W        W18785  42.338  43.798  14.986
50412W        W18786   6.362  23.570   4.260
50413W        W18787  23.178  13.651  11.603
50414W        W18788   9.713  23.630  13.454
50415W        W18789  28.069  42.439   3.818
50416W        W18790  33.878  22.649   0.398
50417W        W18791   2.359   5.869  14.327
50418W        W18792  43.325  12.330  13.431
50419W        W18793  23.053  14.213  10.984
50420W        W18794  21.715  22.688   4.152
50421W        W18795  16.663  11.849  12.826
50422W        W18796  19.759   3.955   2.713
50423W        W18797  35.944  10.280  11.597
50424W        W18798  18.231  36.917  10.985
50425W        W18799  33.888  32.970   1.302
50426W        W18800  21.658  36.067   1.408
50427W        W18801  32.103   9.804  11.060
50428W        W18802  42.405   4.225  11.122
50429W        W18803  37.389  11.810   0.332
50430W        W18804  16.160  11.242   1.220
50431W        W18805  10.178   2.813   0.366
50432W        W18806  10.829  24.624   0.849
50433W        W18807  15.124   0.907   2.803
50434W        W18808  29.076  19.192  12.958
50435W        W18809  21.718  37.861  13.960
50436W        W18810  26.653  33.881  11.411
50437W        W18811  35.373   4.888   0.814
50438W        W18812  34.991  43.939  11.603
50439W        W18813  35.442   9.669   0.261
50440W        W18814  41.032  39.357  10.948
50441W        W18815   5.240   1.278   3.739
50442W        W18816   5.405   4.380   5.270
50443W        W18817  39.817  41.992   2.401
50444W        W18818   6.922  30.459  11.422
50445W        W18819  15.236  14.221  11.944
50446W        W18820   2.921  31.411  12.357
50447W        W18821   6.365  43.513   2.686
50448W        W18822  42.380  34.108   2.369
50449W        W18823  30.046  17.089   3.214
50450W        W18824  34.510   0.988   4.114
50451W        W18825   1.752   3.731  12.358
50452W        W18826  15.633  10.356  13.038
50453W        W18827  36.911   0.752  10.986
50454W        W18828  24.987  28.030  14.812
50455W        W18829  15.600  42.402  10.988
50456W        W18830  25.171  40.497   2.281
50457W        W18831  23.118  22.026  12.448
50458W        W18832  44.329   8.262  10.917
50459W        W18833  24.709  34.973  14.406
50460W        W18834  38.479  19.181   0.910
50461W        W18835  17.255  44.799  14.961
50462W        W18836   4.334  43.436  13.547
50463W        W18837  16.674  21.098   4.202
50464W        W18838  44.780  20.623   1.773
50465W        W18839  28.115  17.101  12.015
50466W        W18840  24.189  25.657   0.457
50467W        W18841  14.740  20.626  11.063
50468W        W18842  32.114  22.240  10.119
50469W        W18843   7.685  14.771  14.329
50470W        W18844  32.055  22.123   1.914
50471W        W18845  31.900  35.370   1.885
50472W        W18846  20.036  34.004   4.746
50473W        W18847  38.939  10.821   4.720
50474W        W18848  27.575  20.084   3.378
50475W        W18849  30.635  29.151   4.146
50476W        W18850  22.188   2.274  12.471
50477W        W18851   8.290   2.733   3.770
50478W        W18852  32.444  33.123  11.540
50479W        W18853  27.577  24.558   3.835
50480W        W18854  43.359  28.119   4.810
50481W        W18855  34.045  36.496  13.349
50482W        W18856  12.718  22.175   2.754
50483W        W18857  11.780  11.858  13.059
50484W        W18858  16.601   6.921   2.309
50485W        W18859  41.375  31.608   0.933
50486W        W18860  13.825  17.243   1.847
50487W        W18861  40.843  16.195  10.487
50488W        W18862  24.654  12.217  10.966
50489W        W18863   7.759  14.136   0.732
50490W        W18864   6.228  20.226   0.844
50491W        W18865  39.405  16.300   1.352
50492W        W18866  17.208   5.361  10.426
50493W        W18867  21.249  37.875   3.349
50494W        W18868  13.619  38.863  11.964
50495W        W18869  33.983  37.830  11.548
50496W        W18870  10.166  21.119   1.383
50497W        W18871   2.231   4.294  11.969
50498W        W18872  25.068   8.299  12.440
50499W        W18873  35.854  30.610  12.085
50500W        W18874  41.356  18.218   2.773
50501W        W18875  14.675  25.666   0.359
50502W        W18876  22.584  27.664   0.760
50503W        W18877  26.170  44.915  14.440
50504W        W18878   0.877  20.132   0.891
50505W        W18879   4.294  21.044  11.056
50506W        W18880  15.747   5.850  14.451
50507W        W18881  28.102  39.025   2.694
50508W        W18882  22.122   8.879   4.183
50509W        W18883   7.713  27.981  14.419
50510W        W18884   0.329  33.493  11.881
50511W        W18885  10.312   9.801   1.389
50512W        W18886   9.388  20.224  11.397
50513W        W18887  11.278  19.175   0.390
50514W        W18888  44.500  13.194  13.027
50515W        W18889   4.417  10.338   3.781
50516W        W18890  39.826  12.339  14.455
50517W        W18891  44.409  20.122  12.477
50518W        W18892  14.831  36.520  13.943
50519W        W18893   9.252  32.008  11.595
50520W        W18894  13.684  42.950   0.480
50521W        W18895   9.644  13.224   0.321
50522W        W18896   5.283  44.420  14.977
50523W        W18897  14.237  11.812   4.803
50524W        W18898  42.368  32.902   1.923
50525W        W18899  11.225  12.853   4.733
50526W        W18900  25.575  38.378   0.412
50527W        W18901  10.207  15.800  14.413
50528W        W18902  17.637   0.743   4.201
50529W        W18903  19.736  26.051   1.837
50530W        W18904  41.518  19.158   4.184
50531W        W18905  42.941  34.969  14.416
50532W        W18906  17.723  26.962  12.851
50533W        W18907  18.228   9.723   3.193
50534W        W18908  30.506  32.582   1.870
50535W        W18909  17.172  27.566   4.598
50536W        W18910  24.105  26.184  13.806
50537W        W18911  18.749  38.915   3.238
50538W        W18912  33.943   5.277   0.375
50539W        W18913  24.610   0.426   2.742
50540W        W18914  20.116  15.108   1.884
50541W        W18915  18.101  30.116  14.957
50542W        W18916   6.287   7.322   2.216
50543W        W18917  39.322  35.531  14.362
50544W        W18918   9.299   8.357   1.315
50545W        W18919  13.301   9.314   4.186
50546W        W18920  39.339  21.651   3.791
50547W        W18921   3.848  20.035   4.696
50548W        W18922  34.408   7.747   3.364
50549W        W18923   9.255  13.813   3.346
50550W        W18924  34.067  11.139   2.234
50551W        W18925  39.903   5.316  10.584
50552W        W18926  25.193  32.480  14.892
50553W        W18927   8.295  32.467   4.281
50554W        W18928  30.004  11.642   4.766
50555W        W18929  22.125  26.069  13.002
50556W        W18930  21.522   8.345  10.568
50557W        W18931  41.477  38.481   2.681
50558W        W18932  27.447  23.145  14.511
50559W        W18933   9.203  27.644  11.095
50560W        W18934  13.816   8.252   1.263
50561W        W18935   0.446  13.132  10.469
50562W        W18936  13.113   7.780  13.862
50563W        W18937  31.037  22.649   0.780
50564W        W18938  30.455   3.954  12.567
50565W        W18939   6.332  32.422  14.316
50566W        W18940  44.004  44.781   3.279
50567W        W18941  29.010  41.342   1.804
50568W        W18942  39.509  26.184   0.819
50569W        W18943   9.724  34.567  11.074
50570W        W18944  44.271  18.076   4.126
50571W        W18945   6.317  21.527   0.283
50572W        W18946   0.806   1.280  12.044
50573W        W18947   4.386  23.160   4.222
50574W        W18948   4.337   0.315  11.990
50575W        W18949   8.751  22.690  12.947
50576W        W18950  31.476   4.443   3.851
50577W        W18951  25.055   5.722  14.777
50578W        W18952  29.614   2.354  11.925
50579W        W18953  34.450  17.094   4.749
50580W        W18954   0.389  23.186  14.815
50581W        W18955  40.324  17.133   1.370
50582W        W18956  27.682  17.691  11.970
50583W        W18957  44.313  33.424   3.704
50584W        W18958  26.580  32.133   3.354
50585W        W18959  17.107  36.458  11.515
50586W        W18960  42.837  29.963   4.205
50587W        W18961  29.092  33.949  14.909
50588W        W18962   7.905  42.017  14.858
50589W        W18963  40.840   9.768   4.781
50590W        W18964  44.417  17.700  13.469
50591W        W18965  44.841   0.808  14.347
50592W        W18966  19.142  20.647  13.833
50593W        W18967  14.789  30.544  14.805
50594W        W18968  23.608  36.443  13.960
50595W        W18969  24.112  39.014  14.284
50596W        W18970   7.879  20.659  13.354
50597W        W18971  10.635  35.933  10.615
50598W        W18972  44.003  21.235   0.264
50599W        W18973  25.694   9.678  12.423
50600W        W18974   3.879   8.196  14.298
50601W        W18975  43.837   8.256  13.894
50602W        W18976   2.318  33.088   0.342
50603W        W18977  10.175  30.563   1.700
50604W        W18978  43.805   3.361   2.276
50605W        W18979  35.477  41.392  14.857
50606W        W18980   5.823   5.219  11.035
50607W        W18981  30.145  10.769  10.916
50608W        W18982  12.750   3.452   1.907
50609W        W18983  38.047   5.762   1.256
50610W        W18984  14.296   8.398  14.885
50611W        W18985  17.209  40.012   3.692
50612W        W18986  32.927  11.749  13.387
50613W        W18987  18.087  13.346  13.873
50614W        W18988  11.741  44.857   0.293
50615W        W18989   8.245   2.282   0.871
50616W        W18990  17.261   3.418   3.651
50617W        W18991   5.421  23.035   0.423
50618W        W18992  13.303  29.634   0.303
50619W        W18993  21.542  36.528  10.989
50620W        W18994  13.158  16.740   1.715
50621W        W18995  28.658  40.834   1.422
50622W        W18996  16.266  35.365   3.180
50623W        W18997   1.312  30.597   1.336
50624W        W18998  25.091  23.105  12.571
50625W        W18999  12.736  27.011  11.947
50626W        W19000  15.665  40.318  13.504
50627W        W19001  36.435  44.884  11.898
50628W        W19002  29.432   3.810  14.307
50629W        W19003  42.981  23.613  11.028
50630W        W19004  14.766  14.631   2.210
50631W        W19005   4.712  28.475  11.385
50632W        W19006  42.441  42.361  13.797
50633W        W19007  38.902  34.944   4.226
50634W        W19008   6.407  36.074   0.935
50635W        W19009  25.532  20.081  14.774
50636W        W19010  42.799  32.424  14.476
50637W        W19011  20.572  34.489   1.387
50638W        W19012  24.625  35.078  10.888
50639W        W19013  18.067   5.784  12.042
50640W        W19014  32.003  18.760   2.203
50641W        W19015   9.362  23.061  13.406
50642W        W19016  35.901  38.933  11.093
50643W        W19017  42.320  18.614   1.928
50644W        W19018   6.204   7.763  14.463
50645W        W19019   6.313  19.146   0.737
50646W        W19020  39.324  25.489   3.748
50647W        W19021  26.641  24.044  14.887
50648W        W19022  28.676  12.640   0.346
50649W        W19023  32.142  22.026  11.098
50650W        W19024  40.887   2.828   1.392
50651W        W19025  33.125  18.775  14.298
50652W        W19026  24.618  35.027  13.918
50653W        W19027  13.157  10.142  13.348
50654W        W19028   0.984   6.289   5.166
50655W        W19029  28.944  11.165   1.400
50656W        W19030  32.007  19.165  12.083
50657W        W19031  10.326   2.782  12.530
50658W        W19032   3.817  42.437   0.460
50659W        W19033  21.515  40.467  10.956
50660W        W19034   0.277  27.560  11.599
50661W        W19035   8.171  30.922  11.936
50662W        W19036   6.240  12.659  12.994
50663W        W19037  35.951  26.644   2.283
50664W        W19038  11.242  25.972  12.452
50665W        W19039  15.160  37.997   4.825
50666W        W19040  44.368  19.596   5.316
50667W        W19041  25.218   5.876   2.204
50668W        W19042  40.468  39.540  14.419
50669W        W19043  43.812   4.804  13.504
50670W        W19044  27.047  38.493   2.345
50671W        W19045  24.715  18.254   1.259
50672W        W19046  14.266  36.976   2.404
50673W        W19047  34.094  11.717  11.126
50674W        W19048  25.527  12.621   3.639
50675W        W19049  39.837  41.840  12.093
50676W        W19050  43.863  40.458  12.978
50677W        W19051   0.344   4.834  14.777
50678W        W19052  37.942   4.916  14.289
50679W        W19053   6.246  24.052  11.077
50680W        W19054   4.795  12.746  10.440
50681W        W19055  30.089   6.186   4.634
50682W        W19056   7.259  15.762   0.860
50683W        W19057   1.855  25.962  12.027
50684W        W19058  39.406   9.182   4.354
50685W        W19059   2.362   8.388   2.687
50686W        W19060   7.203  34.483  10.554
50687W        W19061   2.811  11.710   0.430
50688W        W19062  26.052   7.849   0.770
50689W        W19063  33.951  24.004  11.459
50690W        W19064  18.175   3.234  14.924
50691W        W19065  31.409  40.954   0.331
50692W        W19066  13.660   8.218   0.336
50693W        W19067   0.411   8.321  14.430
50694W        W19068  11.622  42.300  14.810
50695W        W19069  13.630  42.870  14.874
50696W        W19070   5.340  35.378   3.353
50697W        W19071  23.132  14.721   2.183
50698W        W19072  38.050  23.157   1.286
50699W        W19073  35.444   2.851   1.237
50700W        W19074   2.747   6.753  11.382
50701W        W19075  40.879  27.642  12.991
50702W        W19076   6.825  19.102   9.462
50703W        W19077   2.864  17.799  11.498
50704W        W19078  29.961  21.029   1.725
50705W        W19079  25.176  30.424   3.746
50706W        W19080  15.673  26.515  13.321
50707W        W19081  20.573   4.758  14.987
50708W        W19082  36.047  17.667  12.899
50709W        W19083  30.125   0.814  14.504
50710W        W19084  26.631  12.220   0.885
50711W        W19085  43.915  13.155   2.706
50712W        W19086  43.444  35.070  10.502
50713W        W19087  21.068   7.274   3.785
50714W        W19088  18.682  27.484   2.692
50715W        W19089  34.018  32.921   4.314
50716W        W19090   2.263  36.363   4.298
50717W        W19091  24.021   8.317  13.477
50718W        W19092  10.651   0.824   1.867
50719W        W19093  39.865   7.255   0.762
50720W        W19094  41.974  21.180  11.899
50721W        W19095  39.471  41.479   1.920
50722W        W19096   1.842  25.209  14.824
50723W        W19097  40.033   7.823  11.589
50724W        W19098   7.221  19.760  12.949
50725W        W19099  18.629  24.204   2.236
50726W        W19100  34.066  17.126  11.105
50727W        W19101   1.377  25.177   0.787
50728W        W19102  23.052  19.650   4.285
50729W        W19103  37.465  34.001   2.685
50730W        W19104  19.259  21.556  11.907
50731W        W19105   5.247  10.277  12.054
50732W        W19106  28.542  31.045   0.832
50733W        W19107   9.357  33.946   1.925
50734W        W19108   1.818  43.901   3.791
50735W        W19109  22.732   9.684  11.048
50736W        W19110   2.307  11.345   2.793
50737W        W19111   3.317   3.237   0.801
50738W        W19112   8.353  21.564   9.660
50739W        W19113  21.726   2.954  10.494
50740W        W19114   1.953   2.892  12.501
50741W        W19115   6.885  26.106  10.895
50742W        W19116   0.251  41.311   3.145
50743W        W19117  16.786  27.161  10.916
50744W        W19118  30.044  15.651   2.667
50745W        W19119  28.537  37.986   4.798
50746W        W19120  33.463  39.895  11.969
50747W        W19121   3.898  11.739  12.873
50748W        W19122  40.050   2.428  14.515
50749W        W19123  37.360  32.030  10.452
50750W        W19124  19.070  27.994   4.711
50751W        W19125  18.633   3.811  14.792
50752W        W19126  20.752   5.424  12.886
50753W        W19127  25.165  16.735  14.472
50754W        W19128  41.512  10.670  14.030
50755W        W19129  32.002  26.561   0.328
50756W        W19130   7.324  19.151  11.013
50757W        W19131  13.136  37.878   4.167
50758W        W19132   6.858   0.905   3.743
50759W        W19133  30.953  39.047  13.797
50760W        W19134  25.713  16.804  12.961
50761W        W19135  23.179   5.724   0.789
50762W        W19136  43.012  31.520   3.647
50763W        W19137  10.319  10.717  12.963
50764W        W19138   9.752  31.076  10.448
50765W        W19139  34.408  23.674  12.404
50766W        W19140   5.896  15.240  14.494
50767W        W19141   1.349   6.360  11.932
50768W        W19142  43.269  17.166  10.966
50769W        W19143   4.407  31.028   4.205
50770W        W19144  40.420  10.172  10.941
50771W        W19145   3.874  17.119  10.063
50772W        W19146  43.319  39.895   4.235
50773W        W19147  34.012  18.783   3.857
50774W        W19148   0.899  30.509  11.553
50775W        W19149  19.731  30.154  14.345
50776W        W19150   3.456  33.411  11.515
50777W        W19151  40.347   2.779   3.754
50778W        W19152  14.182  20.683   2.225
50779W        W19153  15.242  43.444   3.751
50780W        W19154  11.694  44.793  14.510
50781W        W19155  39.852   4.784  12.967
50782W        W19156  21.035  23.703  12.456
50783W        W19157  36.450   9.297  10.548
50784W        W19158  35.087   0.865   2.329
50785W        W19159  18.668  15.789  13.879
50786W        W19160   2.964   9.308  11.093
50787W        W19161  26.534  20.568  14.508
50788W        W19162  41.787   5.417   4.656
50789W        W19163  41.428   8.749   0.280
50790W        W19164  16.767  15.179  13.896
50791W        W19165  23.009   4.358   2.762
50792W        W19166  30.418  32.618   4.810
50793W        W19167  14.687  37.023   2.873
50794W        W19168   6.186  39.376  11.552
50795W        W19169   3.423   0.387   2.799
50796W        W19170  25.544  41.027   0.466
50797W        W19171  38.004  39.810   1.267
50798W        W19172  13.828   1.797  13.500
50799W        W19173  44.780  16.700  10.889
50800W        W19174  24.974  25.488   4.270
50801W        W19175  39.918  28.957  10.412
50802W        W19176  15.805  17.284   2.748
50803W        W19177   7.360   6.748   3.364
50804W        W19178   9.846  18.193   9.921
50805W        W19179  26.535  32.473  12.496
50806W        W19180  19.537   1.747  14.512
50807W        W19181  12.680  19.165  14.780
50808W        W19182  25.117  25.964  10.506
50809W        W19183  24.106  16.683   4.171
50810W        W19184   6.251  28.998   3.822
50811W        W19185   0.425  34.083  14.956
50812W        W19186  11.267  21.679  13.494
50813W        W19187  11.165  32.997  13.003
50814W        W19188  10.729   3.407  14.027
50815W        W19189  34.434  38.396  12.048
50816W        W19190  38.947  14.201   3.765
50817W        W19191   5.351  26.169  11.428
50818W        W19192  26.990  14.762  11.981
50819W        W19193  27.046  33.981   4.667
50820W        W19194  27.107  10.299   0.942
50821W        W19195  26.101   1.345  13.012
50822W        W19196   7.333  24.109   4.635
50823W        W19197  18.107  30.035  10.493
50824W        W19198  39.391  18.173  14.481
50825W        W19199  33.384  19.780   4.189
50826W        W19200  18.636   5.354  11.389
50827W        W19201  23.132  32.021  14.466
50828W        W19202  13.265  32.477  12.920
50829W        W19203  17.254  12.816   0.300
50830W        W19204  44.993   9.253  14.896
50831W        W19205  21.045  15.587   2.336
50832W        W19206  36.860  23.585  12.869
50833W        W19207  44.903  34.555  14.886
50834W        W19208  21.145  14.706  12.072
50835W        W19209  23.622   3.460  14.477
50836W        W19210  22.650  43.800   4.745
50837W        W19211  40.832  14.619   1.872
50838W        W19212  31.554  38.396   2.733
50839W        W19213  42.845  17.282   5.104
50840W        W19214  24.511  36.582  14.827
50841W        W19215  13.155  32.118  11.091
50842W        W19216   9.287  23.064   1.917
50843W        W19217  14.153  25.540  12.492
50844W        W19218  43.294  23.638   1.309
50845W        W19219  11.130  30.045  13.444
50846W        W19220  22.647  32.079  13.404
50847W        W19221   2.949  10.818   4.647
50848W        W19222  36.015  20.274  12.354
50849W        W19223   9.202  12.242   2.352
50850W        W19224  20.540  12.281   2.851
50851W        W19225  27.982   0.447  12.510
50852W        W19226  41.942  11.678   4.152
50853W        W19227  38.429  13.153   3.814
50854W        W19228  41.533   7.869  10.577
50855W        W19229   7.397  18.172  12.857
50856W        W19230   9.316  27.640  13.342
50857W        W19231  15.273  12.244   0.965
50858W        W19232  27.605  40.333  12.003
50859W        W19233  12.244  13.269   4.666
50860W        W19234   4.848  28.102   4.339
50861W        W19235  20.557  28.457   0.878
50862W        W19236  22.716  24.980  12.461
50863W        W19237  12.788  13.627   1.280
50864W        W19238  32.127  39.870  10.015
50865W        W19239  31.951   0.392   1.696
50866W        W19240   6.776  28.525  10.403
50867W        W19241  28.624  17.788  13.874
50868W        W19242   5.249  44.373  11.002
50869W        W19243  41.976   8.897  13.889
50870W        W19244  31.148   3.299  14.015
50871W        W19245  15.160  22.189   0.363
50872W        W19246  38.556  33.982  12.841
50873W        W19247  26.530   1.346   2.269
50874W        W19248  11.290  21.546  12.825
50875W        W19249  44.843   3.890  12.088
50876W        W19250  44.949  22.154  14.326
50877W        W19251  40.804   0.984  14.419
50878W        W19252  40.427  16.146   3.807
50879W        W19253  31.474  24.690   1.722
50880W        W19254   2.926  24.215   0.306
50881W        W19255   8.296   9.874  10.593
50882W        W19256  24.151  23.581  11.030
50883W        W19257  22.236  28.628  10.481
50884W        W19258   2.723  43.469  11.093
50885W        W19259  28.036  40.999   4.704
50886W        W19260  24.143   3.928   1.792
50887W        W19261  44.946  43.412   3.817
50888W        W19262  26.557  36.059   2.351
50889W        W19263  43.347  38.513   2.250
50890W        W19264  27.496  20.237  14.322
50891W        W19265  12.660  44.378   0.940
50892W        W19266  19.106   6.776  10.958
50893W        W19267   3.912   4.808   0.429
50894W        W19268  16.632   1.910  13.813
50895W        W19269  17.792  38.903   1.871
50896W        W19270  38.043  18.601   3.165
50897W        W19271  24.096  11.821   4.727
50898W        W19272  19.537  24.688  13.056
50899W        W19273  11.368  15.327  14.327
50900W        W19274  29.463  36.883  12.536
50901W        W19275  38.961  28.126   1.406
50902W        W19276  44.809  10.250   0.918
50903W        W19277  27.149  36.893  14.308
50904W        W19278   8.664  31.478   4.768
50905W        W19279  36.074  23.715   3.794
50906W        W19280  21.569  24.082   3.373
50907W        W19281   8.848  10.354   0.898
50908W        W19282  44.945   8.160  12.935
50909W        W19283  11.713  36.988   2.736
50910W        W19284  14.687  17.128  14.351
50911W        W19285  42.429  11.281  11.910
50912W        W19286  12.828  37.384  11.458
50913W        W19287   7.685  13.274  11.910
50914W        W19288  12.360  19.767  13.332
50915W        W19289  16.809  18.164  13.314
50916W        W19290  10.740  16.099  10.965
50917W        W19291   7.738   2.316   2.811
50918W        W19292  18.166  19.559   3.748
50919W        W19293   9.711  40.330   0.957
50920W        W19294  43.879  38.867  12.504
50921W        W19295  25.062  24.622   4.168
50922W        W19296  39.062  32.002  13.846
50923W        W19297   3.242  44.274  12.059
50924W        W19298  19.232  33.522  11.105
50925W        W19299   1.403  38.571  11.512
50926W        W19300  17.260  39.484   0.443
50927W        W19301  36.450  18.073   1.893
50928W        W19302   1.294  44.479  13.016
50929W        W19303   6.790  12.655   4.737
50930W        W19304  26.601  43.891   4.266
50931W        W19305  31.515  33.462  14.293
50932W        W19306  17.760  27.973  13.044
50933W        W19307   2.361  26.627   1.708
50934W        W19308   2.231  23.696   0.781
50935W        W19309  39.908   6.303   1.767
50936W        W19310  23.609  37.397  13.399
50937W        W19311   0.253  39.007   2.758
50938W        W19312  38.906  28.574  11.471
50939W        W19313  14.655  15.700  10.045
50940W        W19314  10.264  27.968  12.424
50941W        W19315   8.739  19.709   5.169
50942W        W19316  16.603   3.928  13.391
50943W        W19317  26.516  28.061   3.284
50944W        W19318  39.322  20.061  14.866
50945W        W19319  44.848  40.018  12.398
50946W        W19320  12.627  23.088   3.768
50947W        W19321  17.281  43.281   0.252
50948W        W19322  44.380   2.340   2.416
50949W        W19323  21.733  12.641  13.940
50950W        W19324   8.268   9.341  14.823
50951W        W19325   1.838  10.245  13.919
50952W        W19326   5.693  33.555  14.332
50953W        W19327  20.639  33.979   1.779
50954W        W19328  39.886  23.659  11.426
50955W        W19329  12.625   9.657  12.445
50956W        W19330   7.355   3.940   0.865
50957W        W19331  23.700   0.433   4.201
50958W        W19332  44.760  11.632  10.976
50959W        W19333   0.871  31.640  14.851
50960W        W19334  33.504  15.727  10.615
50961W        W19335  30.048   6.830   3.264
50962W        W19336   3.322  44.456  11.010
50963W        W19337  43.464   6.353   3.157
50964W        W19338  30.551  42.282   0.773
50965W        W19339   2.263  44.452   4.219
50966W        W19340  10.638  20.065   3.269
50967W        W19341  29.988  43.016   3.742
50968W        W19342  12.205  12.802   3.288
50969W        W19343  35.912  25.966   4.778
50970W        W19344  36.443  28.561  10.541
50971W        W19345  32.616  17.119  11.577
50972W        W19346  43.831   1.903   4.623
50973W        W19347  44.286  42.446  14.895
50974W        W19348  32.529   7.214  11.072
50975W        W19349  23.138  35.062  14.924
50976W        W19350  22.077  44.372  10.987
50977W        W19351  12.775  26.488   1.315
50978W        W19352  31.127  26.682  14.840
50979W        W19353  27.523  19.238   3.655
50980W        W19354  32.002   3.905  10.553
50981W        W19355  10.871  14.336   2.784
50982W        W19356  26.649  23.101  11.542
50983W        W19357   1.876  14.646   2.205
50984W        W19358   2.947  28.950  11.578
50985W        W19359  21.112  37.486   2.878
50986W        W19360  37.566  16.605  10.628
50987W        W19361  11.676  28.166   2.200
50988W        W19362  24.052  36.443   0.884
50989W        W19363  18.202  27.530   1.754
50990W        W19364  19.083  10.284  14.359
50991W        W19365  14.289  23.074  11.587
50992W        W19366  39.885  23.685   0.881
50993W        W19367  30.598  31.956   3.673
50994W        W19368  14.645  29.666  14.364
50995W        W19369  12.767   5.751   4.800
50996W        W19370  35.514  30.584   0.849
50997W        W19371  22.158  38.508   0.295
50998W        W19372  13.272   4.298  11.952
50999W        W19373  12.329  34.515   0.858
51000W        W19374  29.550   6.359  14.844
51001W        W19375  19.211  26.677   3.329
51002W        W19376  17.713  20.716  11.384
51003W        W19377  10.667   9.153  14.417
51004W        W19378  35.403  13.305  14.784
51005W        W19379  31.574   7.238   0.748
51006W        W19380  42.410   8.657   0.897
51007W        W19381  22.229  34.046  14.854
51008W        W19382  32.054   7.367  10.427
51009W        W19383  37.087  30.597  12.945
51010W        W19384   4.450  15.141  13.009
51011W        W19385  29.543   7.673  10.490
51012W        W19386  21.102  21.047   0.449
51013W        W19387  25.511  14.685   4.308
51014W        W19388  10.862  12.616   3.274
51015W        W19389  43.851  33.573  10.428
51016W        W19390  19.109   8.359  12.922
51017W        W19391  44.292  26.117  10.921
51018W        W19392  22.667   6.272   1.426
51019W        W19393  26.567   9.189  12.364
51020W        W19394  25.594  41.039   4.152
51021W        W19395   6.416  19.044   1.213
51022W        W19396  10.362  10.727   5.099
51023W        W19397  43.811  33.442  13.415
51024W        W19398  11.215  35.071   3.845
51025W        W19399  22.243  18.711   1.860
51026W        W19400  22.593   2.751  10.938
51027W        W19401  24.561   9.787   1.696
51028W        W19402  16.288  11.653   1.752
51029W        W19403  34.539  41.973   1.279
51030W        W19404  34.942  13.767  14.020
51031W        W19405  15.636  28.654   3.288
51032W        W19406   4.304  19.067   4.830
51033W        W19407  32.528  44.910  12.430
51034W        W19408  16.315  36.363  14.814
51035W        W19409  13.114   1.451   2.711
51036W        W19410  25.687  30.957  13.003
51037W        W19411  41.493  39.460  11.975
51038W        W19412  20.266  37.905  11.440
51039W        W19413  22.501  25.691   1.381
51040W        W19414   4.740   3.440  11.921
51041W        W19415  36.882  29.665   1.870
51042W        W19416  30.508  35.065  12.974
51043W        W19417  21.262   0.942   3.149
51044W        W19418   8.305  25.032   0.359
51045W        W19419  24.606  12.207  13.008
51046W        W19420  34.904   3.872  11.978
51047W        W19421  17.295  19.713   3.379
51048W        W19422  29.959  16.585  13.311
51049W        W19423  28.998  42.521   4.709
51050W        W19424  19.155  25.015   4.700
51051W        W19425   5.402  23.665   0.909
51052W        W19426   4.885  27.176   3.368
51053W        W19427  11.198  14.685  11.579
51054W        W19428  31.507  42.811   2.197
51055W        W19429  14.782   5.747   4.749
51056W        W19430  32.630  20.711   3.158
51057W        W19431  32.128  39.900   1.281
51058W        W19432  23.114  37.580  14.417
51059W        W19433  22.019  31.073   0.277
51060W        W19434   7.411  17.609   0.271
51061W        W19435  33.042  17.615  12.357
51062W        W19436   8.164  40.915  12.423
51063W        W19437  15.121  21.222   1.774
51064W        W19438  25.486  40.461   4.223
51065W        W19439  22.671   3.954  11.064
51066W        W19440  44.817  42.944  13.029
51067W        W19441   2.302  34.106   2.830
51068W        W19442   5.814  32.514   0.332
51069W        W19443   4.242  34.512   1.250
51070W        W19444   2.350  25.681   0.948
51071W        W19445  13.604  24.060   3.647
51072W        W19446  14.261  23.716  12.091
51073W        W19447  26.493  26.205  14.330
51074W        W19448  21.027  22.519  13.045
51075W        W19449   0.930   5.207  11.031
51076W        W19450   2.873  22.121  10.601
51077W        W19451   4.700  13.784   4.287
51078W        W19452  17.118   3.341   1.825
51079W        W19453  42.419  31.041   1.844
51080W        W19454  42.371  19.599   3.801
51081W        W19455  21.639   0.778   4.782
51082W        W19456  14.768  19.639   3.242
51083W        W19457   7.695  24.224   9.644
51084W        W19458  36.007  22.054  12.913
51085W        W19459  43.000  20.070   0.772
51086W        W19460  19.649  37.542  11.119
51087W        W19461  23.065  33.923   1.897
51088W        W19462  36.523  42.328   1.217
51089W        W19463  39.467  39.989  10.590
51090W        W19464  44.940   3.833   2.343
51091W        W19465  43.944  36.449   3.681
51092W        W19466  41.807   5.901  11.040
51093W        W19467  42.331  37.552   4.683
51094W        W19468  26.026  26.545  13.935
51095W        W19469  24.662   6.746  10.626
51096W        W19470   9.192   4.774  12.902
51097W        W19471  38.880  35.035  13.335
51098W        W19472  14.801  40.858   3.155
51099W        W19473  12.236   2.793  12.484
51100W        W19474  39.879  10.859   3.675
51101W        W19475  29.110  22.071   4.291
51102W        W19476  11.766  41.966   4.174
51103W        W19477  31.007  19.275   1.785
51104W        W19478  13.764  32.941  11.973
51105W        W19479   9.283  44.420   3.849
51106W        W19480   8.811   7.370   4.601
51107W        W19481  39.540  25.667   1.314
51108W        W19482   3.872   8.394   3.285
51109W        W19483  19.606  30.416  12.393
51110W        W19484  34.389  39.475  13.011
51111W        W19485  16.164  24.000  13.353
51112W        W19486  22.109  12.620  10.445
51113W        W19487  26.194   7.897  12.421
51114W        W19488  38.044  38.976   4.260
51115W        W19489  32.954  42.844   3.237
51116W        W19490  40.419  15.815  11.908
51117W        W19491  42.478  32.093   1.443
51118W        W19492  22.995   3.759  13.848
51119W        W19493  20.633  41.825   4.692
51120W        W19494  31.069  14.724  14.774
51121W        W19495  43.492   6.828   3.326
51122W        W19496  30.444  31.938  10.461
51123W        W19497   5.197  20.120  12.023
51124W        W19498   4.326  25.996   3.167
51125W        W19499  23.639  28.100   3.277
51126W        W19500   6.743  29.615   2.731
51127W        W19501   6.820   2.868  12.487
51128W        W19502  11.330  22.747   1.351
51129W        W19503   6.276  41.349   5.280
51130W        W19504  41.332  13.317   2.807
51131W        W19505  26.087   2.964  10.965
51132W        W19506   1.855  40.544   5.256
51133W        W19507  44.808  27.101   2.664
51134W        W19508  10.764  38.356  14.499
51135W        W19509  11.278  23.620  14.854
51136W        W19510  40.879   7.787  14.345
51137W        W19511   7.855  10.769  12.965
51138W        W19512   1.428  21.075   5.178
51139W        W19513  33.114  25.552  11.044
51140W        W19514  42.376  40.800  12.578
51141W        W19515  16.663  24.200  11.076
51142W        W19516   4.258  20.683  13.351
51143W        W19517  43.356   3.229  12.500
51144W        W19518  19.673  22.582   0.424
51145W        W19519  31.443  34.512  14.802
51146W        W19520  12.235  26.133  11.547
51147W        W19521   7.282  23.723   5.669
51148W        W19522   5.306  37.062  10.406
51149W        W19523  35.035  21.217  14.307
51150W        W19524  24.091  26.173   3.173
51151W        W19525  19.638   1.950   0.261
51152W        W19526  43.974  27.041  12.374
51153W        W19527  29.582  37.459   4.621
51154W        W19528  24.219  25.483  12.983
51155W        W19529  12.292   5.293   0.374
51156W        W19530  32.621  18.053   9.983
51157W        W19531  15.651  25.990  14.431
51158W        W19532  22.615  30.106   1.328
51159W        W19533  36.552  33.402  12.980
51160W        W19534  15.088  42.960   0.807
51161W        W19535  15.798  17.108   4.344
51162W        W19536  25.000  36.013  12.532
51163W        W19537  31.426  14.108   1.791
51164W        W19538  44.820  39.054   2.724
51165W        W19539  16.640  39.814   2.211
51166W        W19540   0.419  26.671  12.025
51167W        W19541   2.876  10.204   4.655
51168W        W19542   1.840  21.667   1.219
51169W        W19543  16.728  36.936   4.117
51170W        W19544  11.661   3.734  12.377
51171W        W19545  11.356  39.869   4.624
51172W        W19546  40.366  17.778   2.846
51173W        W19547  22.528  29.162   4.188
51174W        W19548  31.590  21.516  14.307
51175W        W19549  30.968  30.585  14.978
51176W        W19550   5.716  32.518  14.508
51177W        W19551  21.241  33.881   2.799
51178W        W19552  20.182  43.360  12.039
51179W        W19553   1.470  34.098   1.372
51180W        W19554  25.613   0.486   4.613
51181W        W19555  18.082  31.456   1.788
51182W        W19556   9.769  25.968   4.342
51183W        W19557  44.392   7.905   4.212
51184W        W19558  34.954  41.954  14.302
51185W        W19559  38.848   9.773  14.471
51186W        W19560  41.397   1.765  11.555
51187W        W19561  35.396   7.193   2.239
51188W        W19562  27.486   5.300   4.638
51189W        W19563  22.735   7.230  14.973
51190W        W19564  22.233   5.718   0.737
51191W        W19565  27.500  39.361  12.889
51192W        W19566  32.419   4.242  13.309
51193W        W19567  40.478  32.441  10.963
51194W        W19568  24.988   3.830   1.739
51195W        W19569  27.452  27.182   2.753
51196W        W19570  13.200  27.188   3.631
51197W        W19571  32.557  37.390   1.701
51198W        W19572  25.097  32.015   3.226
51199W        W19573   8.191  10.738  10.640
51200W        W19574   8.406  25.531  10.522
51201W        W19575  31.481  19.586   2.799
51202W        W19576   3.865  34.941   4.332
51203W        W19577  18.167  12.257  14.364
51204W        W19578  12.825  39.962   4.738
51205W        W19579  15.581  14.775  10.562
51206W        W19580   0.251  20.131   2.274
51207W        W19581   2.959  38.968  14.432
51208W        W19582  13.258  25.477  11.908
51209W        W19583  31.995  29.640  13.346
51210W        W19584   7.694  18.275  12.033
51211W        W19585  22.190  33.419   3.718
51212W        W19586  30.520  37.351  12.409
51213W        W19587  31.459   8.757   3.662
51214W        W19588  21.238   3.808   1.404
51215W        W19589  26.183  36.854   0.737
51216W        W19590  39.512  12.854   0.385
51217W        W19591   6.681  25.657  11.499
51218W        W19592  16.086  10.774   4.169
51219W        W19593   2.378  30.556   1.812
51220W        W19594  13.775  34.905   0.815
51221W        W19595   6.817  33.060  10.611
51222W        W19596  37.957  22.110  12.057
51223W        W19597  33.935   7.388   4.188
51224W        W19598  29.605  33.523  14.952
51225W        W19599  13.236  24.561  13.895
51226W        W19600  31.617  18.182   3.770
51227W        W19601  35.590  31.131  10.444
51228W        W19602  27.491  41.485  12.554
51229W        W19603   0.957  35.425   4.789
51230W        W19604  34.961  23.545  14.941
51231W        W19605   6.776  13.270   2.687
51232W        W19606   0.354  25.170   0.878
51233W        W19607  24.557  20.735   4.204
51234W        W19608  40.449   6.232  13.001
51235W        W19609  30.916  28.526  14.979
51236W        W19610  20.576   5.333   4.134
51237W        W19611   5.849  24.027   1.865
51238W        W19612   1.312  28.445  11.422
51239W        W19613  37.472   9.350   1.324
51240W        W19614  21.138   6.887   4.191
51241W        W19615  11.777   6.860  12.476
51242W        W19616   1.910  35.413   3.370
51243W        W19617   5.386  25.592  10.976
51244W        W19618  32.576  19.150  12.091
51245W        W19619  37.934  43.391  14.952
51246W        W19620   4.755  21.219  11.557
51247W        W19621   2.463  43.352   0.318
51248W        W19622  31.426  25.133  12.531
51249W        W19623  11.667  41.850   1.871
51250W        W19624   9.656  22.998  11.449
51251W        W19625  30.656   4.849   0.262
51252W        W19626  26.058  29.160  12.552
51253W        W19627   4.809  35.459   1.375
51254W        W19628   3.808  33.929   3.214
51255W        W19629   0.777  33.986   3.333
51256W        W19630  20.267  21.108  13.377
51257W        W19631  11.822  16.303   2.300
51258W        W19632  26.116   7.794  10.499
51259W        W19633  11.657   7.341   5.290
51260W        W19634  12.263   0.285   3.240
51261W        W19635   7.867  31.009  12.914
51262W        W19636   6.845  10.669  13.359
51263W        W19637  23.081  39.528   4.834
51264W        W19638  23.549  30.154   2.811
51265W        W19639   1.789  36.884   2.189
51266W        W19640   3.281  40.444  11.072
51267W        W19641  44.872  29.575   4.171
51268W        W19642  15.623  31.529   4.338
51269W        W19643  25.078  40.437   4.818
51270W        W19644  29.952  17.150  10.430
51271W        W19645   4.926  17.800   4.730
51272W        W19646  14.706  36.350   4.263
51273W        W19647  32.395  21.101  14.416
51274W        W19648  22.192  30.013  14.368
51275W        W19649  22.695  13.611  14.323
51276W        W19650  20.700   6.192  13.509
51277W        W19651  44.762  11.185  12.421
51278W        W19652   7.225  14.773  12.882
51279W        W19653   7.358   0.971  13.974
51280W        W19654  14.308  40.397  12.911
51281W        W19655  27.041  25.211   2.751
51282W        W19656  28.495   0.347  14.508
51283W        W19657  13.843  38.328   2.709
51284W        W19658   5.241   5.710  12.918
51285W        W19659  27.613   7.889  12.051
51286W        W19660  14.296  35.540   0.351
51287W        W19661  10.700  13.815   2.752
51288W        W19662   7.410  19.588   3.727
51289W        W19663  36.481  26.097  13.009
51290W        W19664   0.957   9.742  14.506
51291W        W19665  19.134  43.404  11.460
51292W        W19666  41.384  33.516   3.753
51293W        W19667   6.200   9.231   2.721
51294W        W19668  26.001  12.341  10.975
51295W        W19669   3.367  37.394  12.067
51296W        W19670   7.205  31.937   3.808
51297W        W19671  17.237  27.161  12.500
51298W        W19672  13.742   5.806   0.466
51299W        W19673  33.964  38.513  13.359
51300W        W19674  12.333   0.262  14.879
51301W        W19675  29.113   9.327  13.818
51302W        W19676  17.762   5.297   2.411
51303W        W19677  41.838  33.097  10.603
51304W        W19678  15.264  13.693   4.284
51305W        W19679   5.421  28.610  11.978
51306W        W19680  25.101  18.665  10.479
51307W        W19681  30.645  34.121  10.462
51308W        W19682   2.418   8.302   2.408
51309W        W19683   7.795   3.253  13.980
51310W        W19684  41.832  37.025   2.313
51311W        W19685  39.437  42.870  11.472
51312W        W19686  44.310  30.988  13.864
51313W        W19687   2.807  18.683   0.892
51314W        W19688   7.387  33.447   3.797
51315W        W19689  29.580   9.754  12.904
51316W        W19690  35.868   9.342   4.322
51317W        W19691  18.701  44.781  13.356
51318W        W19692  12.360  13.261  11.991
51319W        W19693  25.031  33.919   1.403
51320W        W19694  43.380  37.992   0.753
51321W        W19695  23.022  32.129   4.779
51322W        W19696  41.003  21.217  11.483
51323W        W19697   9.217  29.106  12.568
51324W        W19698  36.358  24.170  11.065
51325W        W19699  36.461  35.985  12.426
51326W        W19700  33.441   0.255   2.762
51327W        W19701  38.908  32.576   1.419
51328W        W19702  15.271   8.742   2.200
51329W        W19703   2.899  40.052   3.194
51330W        W19704   5.829  25.677   3.644
51331W        W19705  34.406  11.285   3.303
51332W        W19706  33.519  41.439   2.227
51333W        W19707  11.703  43.964  12.071
51334W        W19708  11.313  35.410   3.660
51335W        W19709  12.232  31.403  13.497
51336W        W19710  31.930  36.008   4.695
51337W        W19711  33.403  29.932  12.505
51338W        W19712  20.753  25.555  13.329
51339W        W19713  35.589  23.707   2.741
51340W        W19714  23.499  11.261  12.898
51341W        W19715  27.968   7.236   3.691
51342W        W19716  42.405  16.657   4.619
51343W        W19717  37.498  18.677  14.293
51344W        W19718   9.770  41.404   2.736
51345W        W19719  24.615  25.199   0.484
51346W        W19720  20.184   8.295  14.992
51347W        W19721   6.853  36.898   0.825
51348W        W19722  35.088  14.823  14.351
51349W        W19723   7.729  15.700  12.407
51350W        W19724  41.041  40.530  11.514
51351W        W19725   4.348   3.815   0.432
51352W        W19726  42.836  29.920   2.184
51353W        W19727  36.098   6.766   1.340
51354W        W19728   6.399  43.338  14.991
51355W        W19729  34.914   7.746   3.201
51356W        W19730  42.292  10.814  13.311
51357W        W19731  25.523  11.326  11.579
51358W        W19732  39.544  18.725  12.433
51359W        W19733  36.887  39.949   2.285
51360W        W19734  19.542  35.986  12.383
51361W        W19735  30.416   0.927   0.274
51362W        W19736  28.111  17.120   3.213
51363W        W19737  38.884  42.944   3.286
51364W        W19738  30.969   8.706  13.857
51365W        W19739  21.610  30.135  13.374
51366W        W19740  19.052  15.765  11.566
51367W        W19741   3.248   2.230   2.791
51368W        W19742   6.301  10.742   3.172
51369W        W19743  13.182  34.482   0.368
51370W        W19744  28.479  25.991   4.288
51371W        W19745  42.874  41.383  12.466
51372W        W19746  38.540   5.805   3.786
51373W        W19747  25.700  29.087  13.883
51374W        W19748  32.433  20.574  11.539
51375W        W19749   5.240  31.114   2.666
51376W        W19750   8.310  40.429   2.224
51377W        W19751   2.916   3.711  13.479
51378W        W19752   2.877  43.939  13.913
51379W        W19753  16.713  34.940  12.878
51380W        W19754   5.770  26.551   2.339
51381W        W19755  11.836  29.488   2.876
51382W        W19756  16.312   4.852  13.839
51383W        W19757  40.922  25.157  12.471
51384W        W19758   1.415  10.743   4.636
51385W        W19759  30.586   4.319  12.831
51386W        W19760  13.794  17.303   2.675
51387W        W19761  25.118  18.239  13.321
51388W        W19762   7.188  24.523   1.785
51389W        W19763  18.684  32.397  14.925
51390W        W19764  25.688  17.299  14.820
51391W        W19765  27.007  19.581   0.294
51392W        W19766  24.499  43.282   2.235
51393W        W19767  30.057   6.701  13.975
51394W        W19768   6.747   1.435  13.416
51395W        W19769  13.221  41.481   3.355
51396W        W19770   9.260  32.960   4.283
51397W        W19771   0.446   8.295   3.859
51398W        W19772   1.835  27.633  12.964
51399W        W19773  40.923  35.455   3.201
51400W        W19774  36.520  33.535   2.732
51401W        W19775  41.373  43.294   1.330
51402W        W19776  38.422  25.088  12.043
51403W        W19777  32.527  20.172  13.929
51404W        W19778   0.368   2.470  11.402
51405W        W19779   1.245  12.814  13.889
51406W        W19780   6.301  43.000  10.946
51407W        W19781   9.149  42.828   1.370
51408W        W19782  11.661   2.226  12.991
51409W        W19783  41.330  41.935  13.476
51410W        W19784  25.679  41.343  11.531
51411W        W19785  37.875  41.001   2.263
51412W        W19786  24.670  31.016  12.906
51413W        W19787  24.027  15.108  10.139
51414W        W19788  36.566  10.869  14.407
51415W        W19789  35.463  43.866  14.857
51416W        W19790  36.852  41.991  11.484
51417W        W19791  16.269   1.930   2.845
51418W        W19792  32.482  41.914  13.398
51419W        W19793  20.652  20.609  13.501
51420W        W19794  16.659  31.949   1.228
51421W        W19795  34.981  26.161  10.962
51422W        W19796   4.753  30.575   4.140
51423W        W19797  11.634  18.676   3.307
51424W        W19798  10.640  23.089   0.334
51425W        W19799   9.702  15.709  14.990
51426W        W19800  23.608  33.604   0.833
51427W        W19801  18.051  17.283  12.375
51428W        W19802  34.075  43.425   4.597
51429W        W19803  44.413  21.531   1.251
51430W        W19804  21.119  37.050   3.660
51431W        W19805  30.427  26.642   0.862
51432W        W19806  24.088  18.656  11.547
51433W        W19807  21.531  23.599   0.342
51434W        W19808  10.315  11.783   4.131
51435W        W19809  34.074  21.672  11.905
51436W        W19810   2.722  36.366  10.540
51437W        W19811  34.956  43.917  14.433
51438W        W19812  15.241   9.372  14.322
51439W        W19813  26.625  26.691   0.349
51440W        W19814  21.200   3.447  11.589
51441W        W19815  42.831   8.760   1.423
51442W        W19816   4.369  36.083   3.251
51443W        W19817   1.889  15.319  11.991
51444W        W19818  33.414  32.065   4.674
51445W        W19819  10.718  30.594   4.667
51446W        W19820  22.154   4.345  12.975
51447W        W19821  15.247  23.691   3.715
51448W        W19822  34.463  19.256   1.718
51449W        W19823  25.501  21.523  12.942
51450W        W19824   7.361  18.703   5.088
51451W        W19825  17.618  13.330   1.390
51452W        W19826  37.058  34.041  11.439
51453W        W19827  39.869   4.870  13.802
51454W        W19828  15.215   3.258   2.262
51455W        W19829  44.374  20.272   3.809
51456W        W19830  14.266  38.027  12.897
51457W        W19831  37.400  16.733   2.242
51458W        W19832  44.792  42.289   4.230
51459W        W19833  10.238   1.822  10.494
51460W        W19834  33.948   5.295  12.553
51461W        W19835  25.214  19.606   1.365
51462W        W19836  25.051  20.724   4.655
51463W        W19837  25.217   6.711  14.957
51464W        W19838  40.459   3.407   2.348
51465W        W19839  30.996  42.810   2.256
51466W        W19840  39.012  18.780  10.421
51467W        W19841  21.202   6.699  12.959
51468W        W19842  34.965   6.330  14.947
51469W        W19843   0.434  29.997  12.047
51470W        W19844  42.512   9.189   2.741
51471W        W19845  41.516  41.938  12.973
51472W        W19846  35.378   6.701  13.817
51473W        W19847  43.511  27.019  11.878
51474W        W19848  27.175  21.523   0.280
51475W        W19849  25.157  15.743   0.437
51476W        W19850  28.055  39.507  13.427
51477W        W19851  37.017  17.193  13.455
51478W        W19852  36.996  39.000  11.388
51479W        W19853  16.293  26.613   4.284
51480W        W19854   2.360  41.823   4.126
51481W        W19855  37.552  17.594   0.848
51482W        W19856  38.944  18.597   2.836
51483W        W19857  42.340  38.905  13.476
51484W        W19858   0.893  33.966   2.219
51485W        W19859  29.607  34.062  11.429
51486W        W19860  43.919  36.951  12.511
51487W        W19861  31.412  29.170   2.323
51488W        W19862  14.721  42.383  12.341
51489W        W19863   5.928  10.290  10.620
51490W        W19864  26.971  24.078  10.932
51491W        W19865  13.197  43.378   3.682
51492W        W19866  39.860  42.398   1.875
51493W        W19867  38.489  32.118   4.695
51494W        W19868  39.376  22.122   2.232
51495W        W19869  40.502  18.568   3.326
51496W        W19870  36.867  22.564  10.433
51497W        W19871  24.221  16.781   2.329
51498W        W19872  28.037   9.685  12.552
51499W        W19873  18.548  43.817   1.776
51500W        W19874   5.220  17.751   0.933
51501W        W19875   9.386  22.705   3.328
51502W        W19876  31.458  39.039   0.322
51503W        W19877   1.274   1.748   2.873
51504W        W19878  35.452  21.603  14.905
51505W        W19879  36.065   8.658   3.660
51506W        W19880  26.561  26.007  12.455
51507W        W19881   8.296  20.737   3.313
51508W        W19882   2.777  38.838   0.751
51509W        W19883  14.604   3.763   2.859
51510W        W19884   6.850  23.240  14.439
51511W        W19885   3.710  28.547   1.416
51512W        W19886  16.235  26.647  12.576
51513W        W19887  39.431  43.476   0.323
51514W        W19888   4.436  40.006   2.753
51515W        W19889   6.687  18.055  13.534
51516W        W19890  37.077  19.096  13.888
51517W        W19891  37.847  39.060  13.045
51518W        W19892   9.181  24.653  13.005
51519W        W19893  19.689  14.802   1.875
51520W        W19894   9.851  29.067   3.777
51521W        W19895  44.455  31.413   1.722
51522W        W19896  18.576  24.168  11.418
51523W        W19897  37.427  19.627  10.624
51524W        W19898  43.391  41.899  13.485
51525W        W19899  10.308  10.333  12.530
51526W        W19900  13.601   2.280   2.213
51527W        W19901  35.106  29.126   4.335
51528W        W19902  18.678  23.066  14.006
51529W        W19903  17.657  10.260  11.004
51530W        W19904  20.102  22.726   4.805
51531W        W19905  23.113   6.820  11.390
51532W        W19906   0.332  26.619   4.810
51533W        W19907  38.395  14.769   4.761
51534W        W19908  35.405  36.926  10.575
51535W        W19909  16.724   5.919   3.869
51536W        W19910  35.019  14.203  13.980
51537W        W19911   6.771  22.027   2.382
51538W        W19912  43.370   7.221  10.945
51539W        W19913  24.551   1.828  13.859
51540W        W19914  25.648   9.149  12.826
51541W        W19915  33.031   2.935   1.332
51542W        W19916   4.212  40.842   3.332
51543W        W19917  41.411  31.554   1.249
51544W        W19918  13.750  29.521   3.279
51545W        W19919  39.464  20.724   3.655
51546W        W19920  28.169  21.197  11.522
51547W        W19921  44.782  23.561  14.393
51548W        W19922   4.433  33.405  11.042
51549W        W19923  21.171  35.603   3.654
51550W        W19924  42.368  32.917  13.370
51551W        W19925   0.911  36.532  11.557
51552W        W19926   9.743  33.976  10.593
51553W        W19927  18.598  37.383   1.775
51554W        W19928  37.566   7.402  11.034
51555W        W19929   0.279  12.756   3.637
51556W        W19930   8.237  13.754   4.201
51557W        W19931  35.012  18.566  10.468
51558W        W19932  33.930  22.996  12.536
51559W        W19933  24.199  21.121  12.522
51560W        W19934  28.681  31.932   1.711
51561W        W19935  41.293  19.609   4.315
51562W        W19936   9.762   7.203   4.118
51563W        W19937  23.987  30.628   1.284
51564W        W19938  16.652  18.190  10.624
51565W        W19939  23.219  34.380  11.594
51566W        W19940  13.605  25.183  11.056
51567W        W19941   6.335  33.519   2.262
51568W        W19942  33.130  42.948  11.023
51569W        W19943  44.969  29.599   0.762
51570W        W19944  41.478  13.217  13.847
51571W        W19945  30.585  38.462   3.766
51572W        W19946  44.304  31.135   0.848
51573W        W19947  12.696  43.297  12.900
51574W        W19948   7.230  31.433   5.581
51575W        W19949  19.563   9.719  11.514
51576W        W19950  39.549  24.006  10.039
51577W        W19951  40.342  23.561  11.442
51578W        W19952   5.204  21.708   0.849
51579W        W19953  19.108   9.719  12.975
51580W        W19954   0.277  22.663  12.927
51581W        W19955   0.349  16.716   2.818
51582W        W19956  26.058  42.473   0.315
51583W        W19957  32.536  11.205   3.634
51584W        W19958  11.286  37.995   0.275
51585W        W19959  42.029   8.727  11.023
51586W        W19960  34.922  40.821  14.986
51587W        W19961  41.473  33.094   3.210
51588W        W19962  35.399  29.956   2.759
51589W        W19963  39.443  14.291   4.326
51590W        W19964   5.831  20.640   2.826
51591W        W19965  30.601  14.631   3.177
51592W        W19966   4.706  18.788   0.879
51593W        W19967   3.855  38.448   1.738
51594W        W19968   3.952  40.944   2.205
51595W        W19969   9.723   9.262   3.787
51596W        W19970   0.962   3.372  10.896
51597W        W19971   9.392  43.853  12.072
51598W        W19972  11.134  20.736   4.655
51599W        W19973  12.174  42.006  10.638
51600W        W19974  21.098   9.152   2.359
51601W        W19975  41.296  15.091   0.766
51602W        W19976  16.579   1.785  13.312
51603W        W19977  29.575  15.773   4.702
51604W        W19978  23.140  29.632   2.414
51605W        W19979  19.166  16.743   0.752
51606W        W19980  40.963  37.881   4.260
51607W        W19981  33.557  21.545  13.063
51608W        W19982  13.184  27.084  12.439
51609W        W19983  15.100  37.534  12.962
51610W        W19984  34.423   6.722  14.417
51611W        W19985  44.955  28.077  13.903
51612W        W19986  15.183  43.452  11.073
51613W        W19987  26.953  32.531  11.595
51614W        W19988   5.276  35.597  10.404
51615W        W19989  20.608   5.230   4.608
51616W        W19990  23.559  39.918  12.431
51617W        W19991  25.647  29.011  10.948
51618W        W19992  36.962  35.940   0.390
51619W        W19993  36.845  13.601  11.580
51620W        W19994  12.719  11.831  10.501
51621W        W19995  17.703  31.453  14.405
51622W        W19996  15.151  41.364   0.357
51623W        W19997  15.706  40.479  11.479
51624W        W19998  42.998  21.600   1.780
51625W        W19999  13.297  20.656  13.433
51626W        W20000  16.266  24.054   1.375
51627W        W20001  38.062  43.302   0.736
51628W        W20002  24.057  41.489  14.293
51629W        W20003  35.423  16.778   0.453
51630W        W20004  17.710  17.618   3.867
51631W        W20005  10.239  33.380   3.840
51632W        W20006  10.342  33.483   4.772
51633W        W20007  17.720  19.632   3.682
51634W        W20008  13.270  23.665  14.327
51635W        W20009  36.393  19.168   4.814
51636W        W20010  25.636  23.102   4.684
51637W        W20011  38.535  44.803   2.411
51638W        W20012  40.927  20.607  14.782
51639W        W20013  41.000  33.417   0.906
51640W        W20014  39.356  18.778   2.361
51641W        W20015  17.158  38.047   1.714
51642W        W20016  25.111   1.416  11.857
51643W        W20017   1.330   9.845   0.840
51644W        W20018  28.478   7.214   1.755
51645W        W20019  28.994  28.129   1.805
51646W        W20020  19.246  42.897   3.217
51647W        W20021  31.461  41.863   3.147
51648W        W20022  36.577  38.825   9.927
51649W        W20023  37.997  28.148  10.641
51650W        W20024  20.536   2.750  11.085
51651W        W20025  32.633   3.895  10.516
51652W        W20026  21.625   2.442  10.589
51653W        W20027  40.910  18.671  12.529
51654W        W20028  22.551  10.184   0.967
51655W        W20029  12.719  31.408  10.622
51656W        W20030   4.779   1.391   4.732
51657W        W20031  10.293   0.356   3.635
51658W        W20032  34.909  25.565  11.017
51659W        W20033  40.440  23.706  11.126
51660W        W20034  20.549  17.266  14.989
51661W        W20035  44.812  42.521   3.146
51662W        W20036  34.003  30.640  12.572
51663W        W20037  19.575  35.507   1.293
51664W        W20038  23.235  22.033   2.394
51665W        W20039   4.433  29.967   0.744
51666W        W20040  24.666   7.301  10.555
51667W        W20041   0.276  24.562   1.274
51668W        W20042   8.313  35.579   3.823
51669W        W20043   3.903   4.420   2.306
51670W        W20044  21.754  10.821   2.728
51671W        W20045  25.036  24.526  10.641
51672W        W20046  16.708   2.412   4.799
51673W        W20047  11.814  34.989  13.035
51674W        W20048  30.447   8.751  11.956
51675W        W20049  27.683  22.680   3.856
51676W        W20050  10.308  10.276  10.561
51677W        W20051   8.818   5.690  11.005
51678W        W20052  18.119  13.635   0.307
51679W        W20053  18.615  18.784   3.181
51680W        W20054  14.765  25.470   1.740
51681W        W20055  24.176  25.993  13.026
51682W        W20056  26.092  15.723   9.505
51683W        W20057   7.709  23.067   4.153
51684W        W20058  27.548  29.538  11.550
51685W        W20059   1.280  40.013   2.839
51686W        W20060  18.110  25.622   1.919
51687W        W20061  40.993  39.000  11.493
51688W        W20062  16.571  32.961  13.383
51689W        W20063  31.081  23.489  10.129
51690W        W20064  14.722  11.829  12.348
51691W        W20065   3.364  16.590   0.316
51692W        W20066  24.632  27.989   2.790
51693W        W20067  36.383   2.307  13.821
51694W        W20068  44.429   0.252  13.412
51695W        W20069   2.439   2.435  12.577
51696W        W20070  22.578  41.359  11.382
51697W        W20071   3.879  19.722  13.325
51698W        W20072  28.541  23.209  14.764
51699W        W20073  24.110  22.015   2.373
51700W        W20074  38.375  19.137  13.811
51701W        W20075  31.587  26.207  11.967
51702W        W20076  26.560   6.853   0.828
51703W        W20077  25.500   3.411  10.008
51704W        W20078  20.599  14.101  12.925
51705W        W20079  43.325   7.736   0.798
51706W        W20080  19.261  43.939   4.186
51707W        W20081  27.959  40.797  11.534
51708W        W20082   8.709  33.496   3.742
51709W        W20083  36.012   5.830  14.459
51710W        W20084  42.026  24.078   4.312
51711W        W20085   2.803  36.398   3.797
51712W        W20086  39.976  38.861  12.904
51713W        W20087  13.253  23.049  13.850
51714W        W20088  14.599  15.787   4.282
51715W        W20089  14.834  31.130  11.082
51716W        W20090  22.200  27.657   1.919
51717W        W20091   8.683  40.419  11.107
51718W        W20092  11.622  39.328  13.519
51719W        W20093  22.036   8.725   4.656
51720W        W20094  15.232  14.105   1.724
51721W        W20095   2.367  10.852   1.702
51722W        W20096   3.832  37.834   0.787
51723W        W20097  14.114  23.575   0.449
51724W        W20098  30.104   9.731   4.766
51725W        W20099   0.945   0.396   3.640
51726W        W20100  15.209  17.577   2.239
51727W        W20101  12.779  17.172   2.796
51728W        W20102  13.808  40.857  14.024
51729W        W20103  16.661  35.557   0.768
51730W        W20104  20.728  31.620   0.393
51731W        W20105  29.555   0.904   4.725
51732W        W20106   3.219  28.056   1.318
51733W        W20107   4.884  23.082   3.759
51734W        W20108  37.476   1.303   0.839
51735W        W20109  29.509   8.850  14.873
51736W        W20110  43.450   1.800   0.930
51737W        W20111  23.723  10.286  10.508
51738W        W20112  12.725  36.006   2.365
51739W        W20113  24.154  12.198  12.052
51740W        W20114  43.837  30.582  12.565
51741W        W20115  36.008  30.129  10.514
51742W        W20116  10.324  20.087  14.404
51743W        W20117   7.862   6.865  12.423
51744W        W20118  35.972  18.260   3.799
51745W        W20119   6.400  36.077  13.395
51746W        W20120  44.369  41.352  13.460
51747W        W20121  31.590  42.468  14.998
51748W        W20122  14.197  18.165   4.250
51749W        W20123   3.954  25.564  11.407
51750W        W20124  18.221  30.944   0.333
51751W        W20125   7.790  36.480  14.339
51752W        W20126  31.897  12.148  13.310
51753W        W20127  19.704   6.276   0.772
51754W        W20128  37.983  22.142  10.953
51755W        W20129   9.317  28.679   3.713
51756W        W20130  35.379  35.369  12.921
51757W        W20131   3.919  22.513  11.913
51758W        W20132  10.364  37.854  10.633
51759W        W20133  27.487  40.399   3.184
51760W        W20134  39.945   3.906   3.692
51761W        W20135  23.993  38.073   1.403
51762W        W20136  21.169  16.211   0.955
51763W        W20137  22.188  12.825   3.358
51764W        W20138  18.076  37.964  14.278
51765W        W20139  28.510  32.456   1.721
51766W        W20140  43.478   2.869  11.508
51767W        W20141  43.373  24.068  14.778
51768W        W20142  16.604  13.665   4.744
51769W        W20143  44.979  21.599  10.478
51770W        W20144   7.870  41.471  11.096
51771W        W20145  25.971   7.338  12.036
51772W        W20146  38.542  43.383   3.304
51773W        W20147   2.412   7.281   4.648
51774W        W20148   3.898   4.786  11.559
51775W        W20149  28.604   4.805  14.483
51776W        W20150   1.467   3.825   3.254
51777W        W20151  12.281  29.165   4.325
51778W        W20152   0.280   2.404   0.727
51779W        W20153   3.333  22.168  12.921
51780W        W20154  37.854  25.974   1.334
51781W        W20155  32.550   5.397  14.507
51782W        W20156  10.219  26.637   0.254
51783W        W20157  28.582  13.322   3.328
51784W        W20158  31.003   3.319  11.095
51785W        W20159  33.080  11.772   0.380
51786W        W20160  11.137  35.403   0.390
51787W        W20161  19.066  16.192   3.725
51788W        W20162  41.927  22.081   1.414
51789W        W20163  26.638  17.557  12.861
51790W        W20164  36.071  23.718   1.328
51791W        W20165  20.686  11.248  12.493
51792W        W20166  43.993  10.647  12.901
51793W        W20167  35.045  13.627   1.233
51794W        W20168  29.935  11.735   2.408
51795W        W20169  21.119  17.118  10.899
51796W        W20170  36.453  22.625   4.620
51797W        W20171  17.618  40.996   0.942
51798W        W20172  23.178   6.821   3.799
51799W        W20173  36.519  22.526   2.376
51800W        W20174  38.889  34.524   1.402
51801W        W20175  32.541  42.459   2.866
51802W        W20176   5.847   5.285   5.648
51803W        W20177  18.668   8.708   0.330
51804W        W20178  10.312  36.408  14.420
51805W        W20179  30.514  32.969   2.837
51806W        W20180  25.091  20.543   2.183
51807W        W20181  19.128   9.152  14.299
51808W        W20182  25.524  20.658  14.393
51809W        W20183   1.279  35.971  10.539
51810W        W20184  36.986   9.823  13.051
51811W        W20185  19.554  36.515  13.820
51812W        W20186  41.514  23.724  11.571
51813W        W20187  29.952  25.162  11.997
51814W        W20188  29.632  21.588   4.289
51815W        W20189  18.151  21.084  14.512
51816W        W20190  19.244  11.171  12.075
51817W        W20191  36.844   9.219   9.948
51818W        W20192  18.239  10.839  12.909
51819W        W20193  32.975   8.870  13.521
51820W        W20194   3.364  12.624  11.484
51821W        W20195  32.472  19.564   2.318
51822W        W20196  20.744  38.375   2.858
51823W        W20197   7.177  40.328  14.881
51824W        W20198  24.180  34.872   0.949
51825W        W20199  14.655  24.532  10.945
51826W        W20200  20.640  31.998  14.479
51827W        W20201  31.900  31.107  11.490
51828W        W20202   6.734  32.470   3.848
51829W        W20203  37.958   5.859  12.925
51830W        W20204   1.966   3.318   4.325
51831W        W20205  35.585   2.389  13.322
51832W        W20206  30.616   2.367  12.893
51833W        W20207  14.099  10.358  14.897
51834W        W20208  17.766  30.542  12.480
51835W        W20209   7.812   0.323  10.414
51836W        W20210   4.245   9.380   4.115
51837W        W20211  13.766  29.553   4.159
51838W        W20212   0.447  13.643  10.576
51839W        W20213  21.197  35.549  12.353
51840W        W20214  11.853  24.539  13.056
51841W        W20215  40.805  13.118  14.908
51842W        W20216  37.414  15.148  11.882
51843W        W20217  24.698  28.603   3.637
51844W        W20218  14.138  41.920   4.322
51845W        W20219   7.361   6.207   4.836
51846W        W20220  13.771  19.768  12.578
51847W        W20221  44.302   7.705   3.220
51848W        W20222  44.504   9.649   2.314
51849W        W20223  29.028  31.596   0.471
51850W        W20224  31.971  24.545   1.889
51851W        W20225  42.779  29.650   0.921
51852W        W20226  34.969  44.824   3.667
51853W        W20227   6.758   0.800  11.436
51854W        W20228  14.682   3.859  13.392
51855W        W20229  10.737  27.141  13.062
51856W        W20230  22.017   4.386   0.825
51857W        W20231  39.023  21.134  12.006
51858W        W20232  31.645  23.501   1.302
51859W        W20233   1.925  28.120   4.295
51860W        W20234   6.424  17.757  12.924
51861W        W20235  18.624  31.630   0.915
51862W        W20236  28.077  27.143  13.320
51863W        W20237  15.605  41.027  14.455
51864W        W20238  18.705  29.068   3.732
51865W        W20239  14.627  26.619   0.762
51866W        W20240  42.356  18.775  12.878
51867W        W20241  36.085  15.207   1.882
51868W        W20242   8.252  32.029  14.830
51869W        W20243  30.968   3.251   0.739
51870W        W20244   8.203  36.528   0.309
51871W        W20245  21.180  24.044  12.471
51872W        W20246  23.214  34.030  14.390
51873W        W20247   0.311  26.547  13.375
51874W        W20248   9.827  20.562   2.372
51875W        W20249  23.632  23.573   2.358
51876W        W20250  44.830   4.794   9.925
51877W        W20251  26.592  19.597  13.933
51878W        W20252  32.023  19.572   4.601
51879W        W20253  30.011  10.225   0.367
51880W        W20254  34.580  37.540  14.337
51881W        W20255  24.094  16.728  14.939
51882W        W20256  41.500   4.439  12.037
51883W        W20257  13.177   0.782   3.758
51884W        W20258  11.800  27.606  10.981
51885W        W20259   2.324  38.460   1.907
51886W        W20260  26.495  33.075   4.337
51887W        W20261  36.489  13.722  11.931
51888W        W20262  37.504  38.371  12.532
51889W        W20263  31.904  43.014  11.976
51890W        W20264   7.213  21.574   1.313
51891W        W20265   2.410   0.889   9.961
51892W        W20266  44.455  32.615  14.927
51893W        W20267  39.456  14.337  13.821
51894W        W20268   5.862  34.898  12.505
51895W        W20269  30.070   0.485  14.446
51896W        W20270  27.138  16.298  13.824
51897W        W20271   4.825  14.822  11.426
51898W        W20272  13.729   4.374   0.314
51899W        W20273  20.684  31.927  11.910
51900W        W20274  30.483  31.488   3.863
51901W        W20275  36.364  18.153   2.400
51902W        W20276  30.054  40.919  13.974
51903W        W20277  43.996   6.890   4.712
51904W        W20278  33.904  29.616  13.486
51905W        W20279  34.468   3.856   1.752
51906W        W20280  20.615  16.185   3.671
51907W        W20281  19.672  37.943   3.350
51908W        W20282  42.507  20.240   3.257
51909W        W20283  40.476   8.714   0.905
51910W        W20284  20.633  21.704  13.376
51911W        W20285  12.846  41.011   0.902
51912W        W20286  10.328  23.122   9.944
51913W        W20287  23.150  33.941  12.991
51914W        W20288  13.697  23.669  11.402
51915W        W20289  21.723  40.417  13.979
51916W        W20290   3.275  20.678   3.244
51917W        W20291   2.903  40.454   2.769
51918W        W20292  29.451  12.619  10.037
51919W        W20293   4.303  35.528   1.769
51920W        W20294  43.986  43.495   1.417
51921W        W20295  36.965  25.038  12.472
51922W        W20296  30.431  31.938  13.928
51923W        W20297  24.656  35.448   1.925
51924W        W20298  36.464   5.434   2.320
51925W        W20299  13.732  43.298   3.650
51926W        W20300  22.597  10.246   0.469
51927W        W20301  25.653  24.136   1.843
51928W        W20302  43.805  13.225  13.535
51929W        W20303  35.398  22.097  11.532
51930W        W20304   8.403   3.382  11.413
51931W        W20305  15.601  28.520   4.658
51932W        W20306  13.710  33.556  11.422
51933W        W20307  10.183   9.260  10.545
51934W        W20308  37.430  24.218  13.342
51935W        W20309  41.310  29.111   0.729
51936W        W20310  30.058  35.066   0.444
51937W        W20311  24.210  30.988   4.673
51938W        W20312  27.965  42.383   5.241
51939W        W20313  37.975  35.587   2.756
51940W        W20314   0.364  31.460   2.390
51941W        W20315   7.254  25.190  14.475
51942W        W20316  25.198  32.907   3.716
51943W        W20317  44.313   6.763   4.699
51944W        W20318   9.362  20.637  13.824
51945W        W20319  37.041  14.128   1.761
51946W        W20320  11.183  42.812   0.826
51947W        W20321   2.395  28.549   1.242
51948W        W20322  41.897  27.143  11.084
51949W        W20323  33.076  26.965   1.846
51950W        W20324  34.603  11.780   1.345
51951W        W20325  22.619   5.406   1.373
51952W        W20326  22.070  16.256  13.056
51953W        W20327   7.724  32.562  12.483
51954W        W20328   8.200  38.403   2.346
51955W        W20329  35.542  37.051   3.870
51956W        W20330   3.338   3.786  11.927
51957W        W20331  22.574  12.641  10.619
51958W        W20332  10.753   4.936  11.882
51959W        W20333  15.128   3.404   0.785
51960W        W20334   8.803  39.410  12.573
51961W        W20335  21.524  22.584  10.642
51962W        W20336  41.313   3.755  11.580
51963W        W20337  23.032   7.846  14.962
51964W        W20338  39.049  15.666   0.308
51965W        W20339  30.623  32.940   0.462
51966W        W20340  29.039   4.811  11.526
51967W        W20341  38.493   1.834   4.228
51968W        W20342  18.101   2.938  13.856
51969W        W20343  23.573  38.517   2.322
51970W        W20344  41.362   8.374   0.392
51971W        W20345   1.819  34.900  11.604
51972W        W20346   5.247   9.279  13.544
51973W        W20347   9.321  37.517  11.969
51974W        W20348  32.100  10.769  10.559
51975W        W20349  28.483  34.867   2.775
51976W        W20350   4.779  27.082  13.004
51977W        W20351   4.325  34.477  11.430
51978W        W20352  42.837  38.022  13.354
51979W        W20353  43.442  19.239  12.035
51980W        W20354  24.101   1.428   0.281
51981W        W20355  29.067  12.237   4.755
51982W        W20356   9.808  27.577   1.300
51983W        W20357   9.668  29.042  11.393
51984W        W20358   2.729  13.806  13.435
51985W        W20359  31.042  23.055  11.501
51986W        W20360   7.722  40.309   2.747
51987W        W20361  38.509  12.164  12.524
51988W        W20362  36.482   7.846  14.343
51989W        W20363  36.999  31.408  14.788
51990W        W20364   6.692  38.890   0.436
51991W        W20365  18.079  39.045  11.582
51992W        W20366  35.016  13.657  11.898
51993W        W20367   6.877  37.354   2.680
51994W        W20368   8.716   0.437  10.447
51995W        W20369  17.281   3.257  10.597
51996W        W20370   6.388   3.280   4.829
51997W        W20371   9.285   6.806  13.853
51998W        W20372  44.949  29.923  11.102
51999W        W20373  14.277   7.246   0.946
52000W        W20374  36.003  37.058  14.017
52001W        W20375  25.612  26.192   1.907
52002W        W20376   8.773  27.109   4.255
52003W        W20377  40.351  12.120   4.636
52004W        W20378  12.308  27.027   2.234
52005W        W20379  24.177   9.814   0.813
52006W        W20380  22.589  20.092   3.793
52007W        W20381  27.037  22.595   4.287
52008W        W20382  38.005  40.852   3.657
52009W        W20383   1.879  17.134  12.379
52010W        W20384   4.894  41.521  12.898
52011W        W20385  17.586  35.429  12.835
52012W        W20386  34.918   9.387  13.870
52013W        W20387  13.702   8.305  11.460
52014W        W20388   4.765  26.168   0.849
52015W        W20389  34.898  33.528   2.363
52016W        W20390  21.730  30.956  12.830
52017W        W20391  44.399  16.208  11.065
52018W        W20392  13.844   4.315   0.800
52019W        W20393  34.905  22.086   2.330
52020W        W20394  17.755  21.238  12.071
52021W        W20395  30.161   4.341   3.306
52022W        W20396  40.442  42.977   0.297
52023W        W20397   3.779  31.596   3.164
52024W        W20398  32.978  10.255   3.153
52025W        W20399  20.105  15.739   2.882
52026W        W20400  24.577   9.796  12.913
52027W        W20401   2.722   0.284  14.375
52028W        W20402  16.189  15.785  12.407
52029W        W20403  33.492  27.028  14.944
52030W        W20404  39.486   1.808  14.761
52031W        W20405   5.364  28.099   3.712
52032W        W20406  39.936   2.449  10.931
52033W        W20407  29.471  22.640  14.498
52034W        W20408  16.184  44.324   1.864
52035W        W20409   7.285  32.128  12.011
52036W        W20410  44.869  20.630   3.243
52037W        W20411  42.948  11.289   1.397
52038W        W20412  23.496  11.840  11.084
52039W        W20413  19.774  37.025   1.820
52040W        W20414  30.938  38.994  10.465
52041W        W20415   4.918  41.501   4.300
52042W        W20416  24.020  30.456   3.164
52043W        W20417  12.691  34.393   1.764
52044W        W20418  11.738  37.905  10.146
52045W        W20419  32.621  42.016   4.744
52046W        W20420  32.137  24.031  11.930
52047W        W20421  13.216  31.966   0.908
52048W        W20422   7.749  21.634   3.725
52049W        W20423  12.792  38.977  12.489
52050W        W20424  20.149  32.544  10.609
52051W        W20425  19.150  12.333   0.875
52052W        W20426   7.253  43.299   4.777
52053W        W20427  24.646  10.320  13.513
52054W        W20428  21.028  20.072   1.822
52055W        W20429  28.465  43.823   3.186
52056W        W20430  17.729  41.329   3.340
52057W        W20431  23.525   4.726  12.070
52058W        W20432  12.300  33.948  11.530
52059W        W20433   5.288  13.762   1.381
52060W        W20434   4.810  17.299  10.898
52061W        W20435  21.568  33.923   2.293
52062W        W20436   7.886  17.718   5.742
52063W        W20437   2.334  40.319   1.406
52064W        W20438  11.295   4.701  12.964
52065W        W20439  33.413  11.765   4.631
52066W        W20440  10.727  39.828   3.199
52067W        W20441  13.639  10.144  14.927
52068W        W20442  30.049  14.116  12.830
52069W        W20443  23.075   5.300  11.876
52070W        W20444   1.764  14.835   3.700
52071W        W20445  28.565  28.560   0.310
52072W        W20446  18.765  12.312   4.158
52073W        W20447   1.344  40.833  14.945
52074W        W20448   1.332  30.650   2.899
52075W        W20449  32.916  30.428   2.880
52076W        W20450   9.242  37.855   0.400
52077W        W20451  14.830  40.345  10.417
52078W        W20452  44.794   4.799  12.037
52079W        W20453  15.173   4.245   4.235
52080W        W20454  29.971   0.774   1.342
52081W        W20455  31.903   2.943  12.541
52082W        W20456  43.307  37.010   1.376
52083W        W20457  32.609   9.387  10.591
52084W        W20458  10.271   2.964   0.928
52085W        W20459  30.967  25.191   3.300
52086W        W20460  27.544  37.981  13.354
52087W        W20461  29.050  25.572  10.993
52088W        W20462  19.104  22.055   4.666
52089W        W20463  14.620  16.569   1.248
52090W        W20464  16.725  37.545   5.181
52091W        W20465  39.004  11.667  14.993
52092W        W20466  15.198  19.227  11.905
52093W        W20467  17.290   8.339   0.383
52094W        W20468  31.418  16.644   1.232
52095W        W20469  23.547  16.664   3.723
52096W        W20470  17.122  32.901  10.010
52097W        W20471   4.744   4.427   3.201
52098W        W20472   3.802  19.739   3.229
52099W        W20473  39.010  22.710  14.871
52100W        W20474   7.748  15.807   0.781
52101W        W20475  39.013  43.354   2.191
52102W        W20476  24.109  23.047  13.827
52103W        W20477  34.530  28.537  11.027
52104W        W20478  27.501  43.836   0.381
52105W        W20479  12.164  29.624   2.323
52106W        W20480   6.748  27.160   5.209
52107W        W20481  44.941   3.908  11.598
52108W        W20482  43.944   1.842  12.547
52109W        W20483  13.303   6.419  14.869
52110W        W20484   7.802  15.606   3.686
52111W        W20485  22.690  14.592  14.480
52112W        W20486  36.572  32.992   1.409
52113W        W20487  34.043   4.831  13.524
52114W        W20488  24.223  16.608  12.467
52115W        W20489   2.864  26.137   1.363
52116W        W20490  10.868  39.371   0.961
52117W        W20491  22.119  15.142  12.370
52118W        W20492  22.116  33.462  10.622
52119W        W20493  42.847   6.373   5.161
52120W        W20494   4.388  14.802   0.756
52121W        W20495   0.755  23.536  14.807
52122W        W20496  27.076   7.876   4.624
52123W        W20497  33.593  26.178  10.509
52124W        W20498  21.173  33.972  14.379
52125W        W20499   5.819  22.550  13.347
52126W        W20500  12.133  19.613  12.879
52127W        W20501   5.438  12.729  10.583
52128W        W20502  13.620  33.014  10.587
52129W        W20503  22.506  41.474   2.367
52130W        W20504  14.828   5.223   3.869
52131W        W20505  13.727  16.158   3.274
52132W        W20506   8.243  26.691  11.530
52133W        W20507  25.478  29.459  13.432
52134W        W20508  27.172  22.590  10.533
52135W        W20509  40.448  12.783   2.295
52136W        W20510  15.197  16.115  12.019
52137W        W20511  31.511  17.619  10.426
52138W        W20512  39.519  11.250   1.747
52139W        W20513   1.316  27.117  13.843
52140W        W20514  27.571  15.795  12.035
52141W        W20515  28.051  42.303  12.369
52142W        W20516  27.557   6.242   0.472
52143W        W20517  17.300   2.455  10.990
52144W        W20518  22.531  31.977   2.783
52145W        W20519  31.540  26.058   4.653
52146W        W20520  13.621   2.785  10.889
52147W        W20521  19.267  18.150  11.564
52148W        W20522  32.411  20.217   0.900
52149W        W20523  19.577  32.424   0.389
52150W        W20524  38.920   7.679   2.675
52151W        W20525   8.771   8.270  14.984
52152W        W20526  29.620   3.903  12.474
52153W        W20527  29.587  42.518   3.386
52154W        W20528  25.632  10.279   3.693
52155W        W20529  10.813  26.085  12.555
52156W        W20530  20.094  42.415   2.847
52157W        W20531   0.752  33.459  12.937
52158W        W20532  15.614  17.591   0.730
52159W        W20533  11.338  14.822  13.834
52160W        W20534  34.481  36.357   1.365
52161W        W20535   2.375  33.878  13.044
52162W        W20536  30.517  31.085  14.029
52163W        W20537  33.589  27.001  13.377
52164W        W20538  36.855  28.084  11.404
52165W        W20539  35.591  44.451   2.876
52166W        W20540   3.729  30.118   3.870
52167W        W20541  29.479  26.456   0.896
52168W        W20542  20.146  38.890  14.928
52169W        W20543  14.333   6.754   0.774
52170W        W20544   7.895  30.423   3.694
52171W        W20545  35.389  25.022   2.896
52172W        W20546  44.474   3.845   4.169
52173W        W20547  18.153  27.615  11.896
52174W        W20548  41.889   0.897  13.492
52175W        W20549  33.005  33.946   3.164
52176W        W20550  31.535  34.460  11.905
52177W        W20551  25.519  21.165   4.297
52178W        W20552  35.023  42.907  11.568
52179W        W20553  43.774  30.540   2.322
52180W        W20554  26.506  15.753  13.508
52181W        W20555  15.314   5.818  14.811
52182W        W20556   7.270   7.273  13.308
52183W        W20557  42.398   7.295  14.016
52184W        W20558   4.369  34.557   3.819
52185W        W20559  43.794  23.622  13.792
52186W        W20560  22.062   6.768   0.453
52187W        W20561  11.757  14.673  15.000
52188W        W20562  30.041  33.080   2.352
52189W        W20563  21.755  22.203   1.423
52190W        W20564  30.993   3.311  13.403
52191W        W20565  15.153  12.698   0.332
52192W        W20566  19.760  11.650  11.016
52193W        W20567  26.703  11.166   0.801
52194W        W20568   5.891  36.506   1.280
52195W        W20569  41.311   1.884   4.230
52196W        W20570  41.819   5.321  13.043
52197W        W20571  13.120   6.897  12.564
52198W        W20572  21.254  36.523   3.637
52199W        W20573  15.661  42.850   5.223
52200W        W20574  16.207   5.704  13.863
52201W        W20575  39.931  12.615   3.289
52202W        W20576  37.027  19.723  12.466
52203W        W20577  34.961  38.896   3.294
52204W        W20578  29.938   6.361  13.040
52205W        W20579   9.214  37.535   0.794
52206W        W20580   9.374  42.011  14.284
52207W        W20581  36.382  32.584   1.279
52208W        W20582  32.991  24.555   4.731
52209W        W20583  38.971  40.942  14.377
52210W        W20584  42.294  34.530   2.901
52211W        W20585  10.684   4.869  14.763
52212W        W20586  12.801  10.370   0.736
52213W        W20587   2.401   5.305   2.386
52214W        W20588  32.003   5.690  14.372
52215W        W20589  13.808  15.744  11.488
52216W        W20590  14.195  27.466   3.156
52217W        W20591  21.199  44.952  14.929
52218W        W20592  35.035  16.207   4.217
52219W        W20593  14.618  22.601   1.352
52220W        W20594   4.717  20.768   1.274
52221W        W20595  29.135   0.301   1.306
52222W        W20596   9.671  33.539   4.741
52223W        W20597   2.368   8.165  14.966
52224W        W20598   5.772  17.275   3.168
52225W        W20599  17.228  31.041   4.256
52226W        W20600  35.855   8.205   3.309
52227W        W20601  42.999  44.876  14.804
52228W        W20602  28.100   6.752  12.525
52229W        W20603   5.247  33.494  12.994
52230W        W20604  42.342  41.978  11.108
52231W        W20605  16.715  24.716  11.501
52232W        W20606  11.171  40.945  11.379
52233W        W20607  13.129  30.066  12.566
52234W        W20608  12.694  41.914   2.903
52235W        W20609  17.741  15.620  13.989
52236W        W20610  14.705  42.802   1.248
52237W        W20611  13.123   8.669  10.159
52238W        W20612  42.840  39.477   2.876
52239W        W20613   9.807  27.076  14.765
52240W        W20614  40.372  14.593   1.264
52241W        W20615  30.947  30.059  14.988
52242W        W20616   3.363  34.389   2.768
52243W        W20617  18.582  26.998   2.896
52244W        W20618   9.773  28.987   0.328
52245W        W20619  14.227  30.438   4.236
52246W        W20620  44.830   2.921  11.886
52247W        W20621  17.095  25.143  11.099
52248W        W20622  20.761  24.102  10.904
52249W        W20623  32.620  18.214   3.714
52250W        W20624   0.385   1.917   3.219
52251W        W20625  18.662  18.262   3.372
52252W        W20626  15.802  34.540  12.436
52253W        W20627  21.263  15.134   4.761
52254W        W20628   7.799  40.939   4.665
52255W        W20629  37.528  15.300   2.867
52256W        W20630  34.538  25.032   3.230
52257W        W20631  36.077   0.289  14.412
52258W        W20632  13.146   8.889   5.599
52259W        W20633  24.493  43.872  14.966
52260W        W20634  21.211  31.095   2.220
52261W        W20635  33.032  12.209  11.992
52262W        W20636   6.759   4.756  13.903
52263W        W20637  11.274  16.201  14.820
52264W        W20638   7.219  26.013   1.800
52265W        W20639  26.195  31.938  12.527
52266W        W20640   4.821  27.650   0.875
52267W        W20641  19.559  44.918  11.993
52268W        W20642  29.474  19.262  13.957
52269W        W20643  17.189  18.767  14.963
52270W        W20644   4.917   8.212   0.378
52271W        W20645  12.697  15.822   1.928
52272W        W20646  24.695  10.646  13.540
52273W        W20647  33.122  35.914  11.430
52274W        W20648  18.669  14.296   1.286
52275W        W20649  16.284  10.702   2.796
52276W        W20650  20.097  18.159   0.926
52277W        W20651  37.901   8.784  11.577
52278W        W20652  40.801  25.503   1.287
52279W        W20653   7.365  31.425   0.267
52280W        W20654  26.050  14.163  11.858
52281W        W20655   8.741  16.780  13.037
52282W        W20656   7.362   1.912  10.889
52283W        W20657  44.936   2.720   3.332
52284W        W20658   0.413  34.058   3.343
52285W        W20659  22.634  28.557   2.337
52286W        W20660  17.649  39.366   4.833
52287W        W20661  17.098  36.524  13.826
52288W        W20662  26.987  39.506  10.917
52289W        W20663  43.908  25.609   3.274
52290W        W20664  16.631  32.128   1.935
52291W        W20665  19.650   1.258   3.871
52292W        W20666  15.654  28.121   3.840
52293W        W20667  21.201  36.986  12.547
52294W        W20668  40.045  13.146   4.724
52295W        W20669  24.103  25.581  12.037
52296W        W20670  44.975  21.704   4.134
52297W        W20671  10.668  12.351  12.886
52298W        W20672   0.901  42.364   0.394
52299W        W20673  15.670  26.660   4.601
52300W        W20674  29.101   9.153  14.853
52301W        W20675  25.594  27.003  13.449
52302W        W20676  32.998  11.165  11.109
52303W        W20677  22.723   9.736  13.393
52304W        W20678  43.502  20.610  13.505
52305W        W20679  18.578  43.373  12.392
52306W        W20680  26.958  34.540   3.288
52307W        W20681  37.397  24.716   4.168
52308W        W20682  36.390  10.155  14.444
52309W        W20683  10.153  11.323  14.868
52310W        W20684  24.609  32.928   3.790
52311W        W20685  22.042  40.420  14.485
52312W        W20686  13.646  29.030   3.704
52313W        W20687  22.035  10.350  12.393
52314W        W20688  18.698  28.146  10.545
52315W        W20689  41.431   4.818  13.487
52316W        W20690  41.006  27.971  14.290
52317W        W20691  16.650   0.428   3.255
52318W        W20692  26.070  36.499  14.839
52319W        W20693  13.781   9.190  11.515
52320W        W20694  36.031  12.685  14.894
52321W        W20695  35.019  43.801   0.332
52322W        W20696  20.571  30.967   3.251
52323W        W20697  33.515  39.519   0.339
52324W        W20698  42.968  37.993  14.383
52325W        W20699  40.346  16.300   2.248
52326W        W20700  24.121  28.037   4.120
52327W        W20701  26.661  40.032  10.570
52328W        W20702  44.496  24.197  10.494
52329W        W20703   8.718  28.528   9.452
52330W        W20704  24.086  20.644  14.296
52331W        W20705   6.335  13.288  10.628
52332W        W20706   8.326   4.904   2.311
52333W        W20707  37.868  42.984   4.750
52334W        W20708  25.683  44.954  11.089
52335W        W20709  37.408  21.075   4.602
52336W        W20710  28.458  33.050   4.332
52337W        W20711  33.389  38.016  12.908
52338W        W20712  34.965  20.126   4.197
52339W        W20713   0.385   4.704   2.214
52340W        W20714  15.599  19.226   4.171
52341W        W20715  17.586   4.393   3.322
52342W        W20716  12.120  32.634   1.932
52343W        W20717  23.172  31.966   4.327
52344W        W20718  44.921  16.299   2.286
52345W        W20719  35.062  10.718  12.394
52346W        W20720   0.273  39.496  14.007
52347W        W20721  29.145   5.922   0.308
52348W        W20722   9.356  31.034  14.807
52349W        W20723  26.589  23.588   1.387
52350W        W20724   0.336   4.340   1.791
52351W        W20725  27.510  31.525  11.904
52352W        W20726  37.987  38.822   2.317
52353W        W20727  25.182  11.209   0.911
52354W        W20728  13.144  27.055   0.374
52355W        W20729   7.799  16.767   1.761
52356W        W20730   5.876  22.547  10.990
52357W        W20731   2.888  17.237   0.368
52358W        W20732  42.427   8.211   2.860
52359W        W20733  38.931  30.088  10.414
52360W        W20734   1.946  37.854  13.953
52361W        W20735   5.230  24.219  12.961
52362W        W20736  29.500  27.944  13.923
52363W        W20737  14.673  16.747   4.210
52364W        W20738   9.217  31.089  13.381
52365W        W20739  32.937   7.218  12.838
52366W        W20740  42.785   2.407  12.965
52367W        W20741  32.528  31.148  13.315
52368W        W20742  12.638   5.207  10.457
52369W        W20743  11.793  31.555   1.881
52370W        W20744  27.480  40.936   1.801
52371W        W20745   4.880  33.400  12.537
52372W        W20746  21.131  33.048   3.264
52373W        W20747  31.462  34.436   3.786
52374W        W20748  44.329  27.007   3.382
52375W        W20749  17.075  28.069   2.213
52376W        W20750  31.607  29.524   1.287
52377W        W20751  44.823  41.465   3.181
52378W        W20752  23.108  19.127  14.414
52379W        W20753   8.844  43.451   3.384
52380W        W20754  41.891  29.970  12.351
52381W        W20755  14.733  34.607   1.915
52382W        W20756  30.635  10.330   4.205
52383W        W20757  38.553  31.959   0.410
52384W        W20758  38.075  10.863   1.399
52385W        W20759   1.928  20.109   3.288
52386W        W20760  41.443   0.758   4.764
52387W        W20761   9.721   3.340   3.681
52388W        W20762  15.185  37.394   0.776
52389W        W20763   8.209  27.568   3.748
52390W        W20764   3.730   7.822  11.597
52391W        W20765  36.943  18.225   3.737
52392W        W20766  16.614  12.282  11.888
52393W        W20767   3.373  25.113  10.918
52394W        W20768  11.187  35.493   2.247
52395W        W20769  23.546  27.671  14.514
52396W        W20770  42.336  42.943   5.227
52397W        W20771   6.723  36.041  10.974
52398W        W20772   6.420  23.032  14.894
52399W        W20773  21.528  41.966   0.894
52400W        W20774  37.495  41.478  14.976
52401W        W20775  14.237  44.454  13.462
52402W        W20776   8.396  12.669  10.638
52403W        W20777  24.062  10.175   3.736
52404W        W20778  22.742  28.472  14.990
52405W        W20779   6.221  31.032   4.187
52406W        W20780   5.259   1.410   1.306
52407W        W20781  19.693  39.009  13.384
52408W        W20782  28.041  34.117   2.266
52409W        W20783  17.637   3.837  14.020
52410W        W20784   9.161  19.635  10.978
52411W        W20785  21.694  16.605  11.062
52412W        W20786  34.507   5.346   3.281
52413W        W20787  18.737   5.745  13.451
52414W        W20788  16.627   6.392   3.219
52415W        W20789  18.114  21.145  11.976
52416W        W20790  22.660  43.791   4.273
52417W        W20791  37.893  19.594   1.298
52418W        W20792  24.096  28.154   0.323
52419W        W20793  15.725   2.773  12.474
52420W        W20794   0.465   5.850   2.401
52421W        W20795  15.229   4.715   4.326
52422W        W20796   7.702   5.879   3.665
52423W        W20797  18.764  34.595   2.794
52424W        W20798  26.459  41.437  12.468
52425W        W20799   0.911  10.198   3.150
52426W        W20800  44.423  39.522  14.291
52427W        W20801  22.065  25.701  13.466
52428W        W20802  23.102  33.043   4.803
52429W        W20803   6.421  35.980  12.827
52430W        W20804  18.080  17.592   4.233
52431W        W20805  36.949  19.735  11.055
52432W        W20806  40.384  10.646   0.937
52433W        W20807  28.617  13.771  13.468
52434W        W20808  25.011   2.317   0.904
52435W        W20809  32.973   1.868   0.270
52436W        W20810  24.555  12.831   3.232
52437W        W20811  26.086  24.978  13.421
52438W        W20812  31.429   5.699   0.839
52439W        W20813  26.082   4.441  11.598
52440W        W20814  24.516  10.646   1.924
52441W        W20815   1.326  17.799   1.908
52442W        W20816  31.610  37.902  12.089
52443W        W20817   9.875  36.019   4.279
52444W        W20818  28.935  20.614  10.972
52445W        W20819  30.483  36.933   1.241
52446W        W20820  32.550  13.251  11.489
52447W        W20821   5.193  12.156   3.842
52448W        W20822  19.257  20.245  12.376
52449W        W20823  15.143  22.237  10.981
52450W        W20824  17.122  23.524  11.420
52451W        W20825  22.199   1.793  11.863
52452W        W20826  32.429   8.811   3.848
52453W        W20827  11.790   8.893  12.981
52454W        W20828  14.597  31.500   4.307
52455W        W20829  35.480  13.800   2.312
52456W        W20830   5.814  26.646  12.548
52457W        W20831  32.518   6.896   2.783
52458W        W20832  34.035   6.251   3.265
52459W        W20833  17.112  27.527   0.727
52460W        W20834  38.452   4.209   0.741
52461W        W20835  35.949  29.960  13.863
52462W        W20836  13.172  30.988  13.802
52463W        W20837   8.658  21.690   3.651
52464W        W20838  43.815  27.067   3.781
52465W        W20839  13.275  31.118   0.464
52466W        W20840  30.443  44.410   2.382
52467W        W20841  39.400  19.612  12.378
52468W        W20842  34.447  15.199  10.938
52469W        W20843  44.851  34.873   3.709
52470W        W20844  30.956   5.714  11.018
52471W        W20845  32.940   2.373   3.362
52472W        W20846  30.417  19.709   1.743
52473W        W20847  25.045  38.820  12.425
52474W        W20848   0.406  13.194  11.121
52475W        W20849   9.809   5.263   1.867
52476W        W20850  33.551   1.794  10.991
52477W        W20851  27.687  25.051   3.712
52478W        W20852   3.356  22.685  12.543
52479W        W20853  19.631  12.339  11.927
52480W        W20854  27.446  20.722  14.446
52481W        W20855  21.054  43.307   1.227
52482W        W20856  26.083  12.345   3.192
52483W        W20857  37.534  44.829  12.424
52484W        W20858  22.709  24.547  14.467
52485W        W20859  17.138  20.562  13.059
52486W        W20860  22.995   4.806  14.434
52487W        W20861  22.109  32.895  14.279
52488W        W20862  29.999  12.189  13.481
52489W        W20863  23.103  36.085   2.363
52490W        W20864  42.506  31.448  12.576
52491W        W20865  19.687  35.526  14.286
52492W        W20866  43.909  29.129  12.580
52493W        W20867  13.309  23.614  13.822
52494W        W20868  29.516   5.316   3.360
52495W        W20869  35.370  32.537  13.330
52496W        W20870  14.197   8.292  10.149
52497W        W20871   1.947  16.258  10.943
52498W        W20872   9.807   6.253   2.180
52499W        W20873  22.617  20.269   0.274
52500W        W20874   4.861   5.827  11.455
52501W        W20875  14.818  12.203   4.607
52502W        W20876  39.317  43.002   0.436
52503W        W20877   5.282  35.963   3.740
52504W        W20878   8.239  29.512   2.293
52505W        W20879  18.130  38.012   0.468
52506W        W20880  22.237  29.525  14.894
52507W        W20881   1.943  18.290  12.434
52508W        W20882  19.617  34.099   0.258
52509W        W20883  44.910  34.602  14.365
52510W        W20884  29.038  18.747  13.797
52511W        W20885  13.734   5.815  13.833
52512W        W20886   1.811  26.552  13.834
52513W        W20887  12.129  39.819   4.147
52514W        W20888  12.653  37.936   2.242
52515W        W20889  21.721  22.661   0.918
52516W        W20890  34.025   7.788  12.909
52517W        W20891  28.967  40.360  10.457
52518W        W20892  10.770  14.751   1.352
52519W        W20893   0.266   1.865   2.855
52520W        W20894  25.142  40.953  13.419
52521W        W20895  16.580  23.653  11.960
52522W        W20896  38.828  16.144   5.266
52523W        W20897  33.468  33.972   1.935
52524W        W20898   5.314  21.521  12.458
52525W        W20899  22.072  14.265  12.919
52526W        W20900   7.791  32.471  11.526
52527W        W20901  10.319  39.812  13.333
52528W        W20902  27.584  19.599   1.782
52529W        W20903  38.377  34.090  14.013
52530W        W20904  44.455  41.829   0.274
52531W        W20905  26.037  41.021   4.677
52532W        W20906  14.597  20.699   4.785
52533W        W20907  32.107  27.127  10.543
52534W        W20908   7.274  39.346  13.922
52535W        W20909  39.040   6.393  11.534
52536W        W20910  41.018  20.697   2.870
52537W        W20911   0.781  22.080   3.346
52538W        W20912  29.985  12.239   3.705
52539W        W20913  42.297   0.268  14.358
52540W        W20914  34.093  13.647  11.856
52541W        W20915  29.002   6.307  10.542
52542W        W20916   3.735  12.116  14.483
52543W        W20917  33.929  10.216  12.050
52544W        W20918   0.874   3.408   3.239
52545W        W20919  30.502   8.357   3.305
52546W        W20920  22.165  21.229   2.216
52547W        W20921  20.585  35.987  14.977
52548W        W20922  37.355  22.235  13.992
52549W        W20923  42.976  19.114   4.269
52550W        W20924  22.636  40.937   1.927
52551W        W20925  24.064  20.234   2.807
52552W        W20926  18.668  40.040   3.197
52553W        W20927  35.855   5.409  13.896
52554W        W20928   5.423  43.816  14.963
52555W        W20929  21.541  29.613  13.423
52556W        W20930  18.580   9.856   0.472
52557W        W20931  12.780  11.293   3.681
52558W        W20932   7.239  37.413   0.875
52559W        W20933  13.678  31.626   2.758
52560W        W20934  30.646   6.820  10.941
52561W        W20935  22.724  18.598   2.278
52562W        W20936  17.583  19.262   3.336
52563W        W20937  25.712  10.879  12.887
52564W        W20938  22.034  34.569   4.290
52565W        W20939   8.166  39.812  12.411
52566W        W20940  25.974  36.885   1.226
52567W        W20941   5.773   0.772   2.810
52568W        W20942  24.123  29.174  14.381
52569W        W20943  37.426  36.063   2.691
52570W        W20944  21.753  35.031  13.412
52571W        W20945  39.013  16.273  10.617
52572W        W20946  39.344  15.255  11.111
52573W        W20947  37.476  26.109   2.738
52574W        W20948   7.760   1.789   0.324
52575W        W20949  31.899  10.813   1.278
52576W        W20950   7.754   0.265   1.320
52577W        W20951  22.661  30.611  13.467
52578W        W20952  17.194  35.471  12.948
52579W        W20953   4.296  26.183  11.927
52580W        W20954  29.926  31.020   4.705
52581W        W20955  13.237  24.599   4.339
52582W        W20956   1.304   8.739   0.811
52583W        W20957  12.277  33.438  10.941
52584W        W20958   3.932  19.055  13.510
52585W        W20959  18.185  41.840   3.835
52586W        W20960   3.807  27.652  14.894
52587W        W20961  43.934  28.937  11.521
52588W        W20962  38.888  41.366  14.473
52589W        W20963  31.982  29.121  14.912
52590W        W20964  23.080  17.084   3.208
52591W        W20965  21.037  28.017   0.397
52592W        W20966  12.362  37.035   4.732
52593W        W20967  11.338  16.626  10.596
52594W        W20968   5.919  27.569  11.599
52595W        W20969  29.584  36.395   0.948
52596W        W20970   3.815  37.003  11.398
52597W        W20971  43.348  33.417  13.046
52598W        W20972   9.785  44.915  14.317
52599W        W20973  19.676  28.030  12.509
52600W        W20974   5.240  15.636  14.493
52601W        W20975  22.603   1.943   1.398
52602W        W20976  27.535  16.291  13.334
52603W        W20977  14.797  13.337  10.430
52604W        W20978  20.179   7.195  10.614
52605W        W20979  42.777  13.168   2.236
52606W        W20980  12.734  13.330  13.025
52607W        W20981  22.046  44.441   0.469
52608W        W20982  17.673  36.432  10.431
52609W        W20983  26.691  17.083   0.823
52610W        W20984  41.872  21.145  10.001
52611W        W20985  36.430  28.031   0.945
52612W        W20986   9.846  16.125  14.488
52613W        W20987  35.870  17.206   3.806
52614W        W20988  43.489  21.593  14.939
52615W        W20989  25.490   7.876  13.815
52616W        W20990   7.210  35.936  11.857
52617W        W20991   9.226  30.455   1.261
52618W        W20992  12.136  10.150   4.193
52619W        W20993   8.849  16.097   2.663
52620W        W20994  20.691  29.553  14.994
52621W        W20995   0.884  36.987  12.905
52622W        W20996  29.466  25.494  13.984
52623W        W20997   1.942  27.995   5.167
52624W        W20998   8.258   2.307   1.838
52625W        W20999   5.863  24.206  12.372
52626W        W21000  12.636  25.474  11.120
52627W        W21001  37.047  31.103   1.390
52628W        W21002  32.440  19.124   3.856
52629W        W21003  35.460  35.002   3.180
52630W        W21004  20.540  34.572   4.717
52631W        W21005  35.468  44.997   2.779
52632W        W21006  18.153  31.465   4.789
52633W        W21007   1.916  43.365  14.291
52634W        W21008   8.209  32.992   4.312
52635W        W21009  15.783  28.577  12.449
52636W        W21010   6.774  11.182   1.283
52637W        W21011  26.506  28.447  11.977
52638W        W21012  43.913  23.154   1.727
52639W        W21013  13.129  40.822  10.480
52640W        W21014  23.231  15.165  12.002
52641W        W21015   2.787  19.690  11.899
52642W        W21016   5.735   8.708   3.814
52643W        W21017  42.991  22.181   3.347
52644W        W21018  43.362  13.277   3.356
52645W        W21019  38.021  27.014   2.301
52646W        W21020  20.534  38.825  10.896
52647W        W21021  39.867  18.123  10.934
52648W        W21022  27.007  24.182   3.686
52649W        W21023  10.732  16.625   3.787
52650W        W21024  33.002  27.579   2.308
52651W        W21025  14.103   8.764  10.500
52652W        W21026  35.519   2.449   2.262
52653W        W21027  24.540  23.167   1.766
52654W        W21028  26.610  14.659  14.926
52655W        W21029  20.528  30.538   2.241
52656W        W21030  39.965  38.420   1.411
52657W        W21031   4.345  31.497   2.179
52658W        W21032  43.785  26.464  14.029
52659W        W21033  14.254  25.671   2.402
52660W        W21034  34.437  28.934   1.356
52661W        W21035   6.813   8.179   0.267
52662W        W21036   8.709  35.086  12.878
52663W        W21037  40.947  36.435  13.365
52664W        W21038  21.657   8.884   1.709
52665W        W21039   8.201  44.890  11.429
52666W        W21040  17.691  21.749   4.267
52667W        W21041  39.849  31.613  11.923
52668W        W21042  38.564  31.055   1.896
52669W        W21043  27.181  38.833   4.266
52670W        W21044  24.480   5.808   0.736
52671W        W21045  35.365  37.987  10.638
52672W        W21046  14.190  40.023   1.838
52673W        W21047  25.468  44.347   2.662
52674W        W21048  31.128  31.973   2.830
52675W        W21049  43.384  41.369  12.025
52676W        W21050   1.280  34.369   0.821
52677W        W21051  33.883  39.427   4.309
52678W        W21052  44.445  39.394  10.567
52679W        W21053  17.680   2.887  13.522
52680W        W21054  21.717  24.058   1.830
52681W        W21055  35.040  20.655   1.922
52682W        W21056  21.604  28.648   0.399
52683W        W21057   8.392  36.979  10.643
52684W        W21058  43.769  44.264   2.306
52685W        W21059  25.065  27.475  12.093
52686W        W21060  36.577  26.989  12.010
52687W        W21061  26.595  38.948   0.747
52688W        W21062  12.204  28.680  14.789
52689W        W21063  30.501  31.488  10.517
52690W        W21064  24.224  21.591  13.818
52691W        W21065  10.253  29.601   1.863
52692W        W21066  22.652  40.539  13.343
52693W        W21067  12.123  34.510  14.004
52694W        W21068  30.951  25.482   3.376
52695W        W21069  12.346  10.187   0.472
52696W        W21070   6.766   5.851  13.336
52697W        W21071   9.215   6.318   2.698
52698W        W21072  39.373   5.269   2.203
52699W        W21073  26.630   5.904   1.449
52700W        W21074  18.606  44.450   3.789
52701W        W21075  19.607  21.181  11.970
52702W        W21076  19.115  40.332   2.688
52703W        W21077  28.578  12.679   4.343
52704W        W21078  30.070  31.638  13.999
52705W        W21079  26.608  24.007   0.919
52706W        W21080  16.249  32.426  11.967
52707W        W21081  21.564  20.641   2.675
52708W        W21082   5.379   9.749   4.676
52709W        W21083   7.383  23.639  10.555
52710W        W21084  20.635  19.699   3.321
52711W        W21085  37.374  19.622  12.833
52712W        W21086  18.594  39.899  11.049
52713W        W21087  22.521  37.440  11.951
52714W        W21088  32.492  23.204  11.951
52715W        W21089  21.242  31.151  13.020
52716W        W21090  37.074  20.730  11.437
52717W        W21091   7.849  17.708  11.603
52718W        W21092  36.418  41.845  13.317
52719W        W21093  12.673  30.636   0.398
52720W        W21094  15.135  22.607  12.951
52721W        W21095  44.932  32.436   2.341
52722W        W21096  13.667  38.349  10.472
52723W        W21097   9.758  43.889   0.879
52724W        W21098  30.487  34.518  12.848
52725W        W21099  16.294   6.284  12.374
52726W        W21100  26.134  44.386  11.487
52727W        W21101  43.496  35.366  13.853
52728W        W21102  21.251  29.036  10.010
52729W        W21103  30.659  36.499  14.390
52730W        W21104  14.329  14.191   2.399
52731W        W21105  23.634  23.678  14.890
52732W        W21106  35.970  14.116  13.929
52733W        W21107  37.412   3.783   4.347
52734W        W21108  34.979  38.929  12.348
52735W        W21109  27.097  27.598   0.342
52736W        W21110  29.477  37.399   1.343
52737W        W21111  26.160  23.611  13.021
52738W        W21112  29.656  39.473  14.010
52739W        W21113   0.804  28.079  14.365
52740W        W21114   8.226  31.030   2.223
52741W        W21115   6.884  13.742   4.250
52742W        W21116  27.637  30.915   2.178
52743W        W21117   1.845  33.000  11.579
52744W        W21118  14.277  27.186   1.274
52745W        W21119  13.654  13.776   1.917
52746W        W21120  13.277  27.034   3.273
52747W        W21121   2.809  29.131  13.966
52748W        W21122  34.055  12.738  13.410
52749W        W21123  21.058  27.992   4.140
52750W        W21124   8.697  37.956   4.236
52751W        W21125   4.850   9.872  11.885
52752W        W21126  44.940  44.303   4.157
52753W        W21127  22.208  44.814   3.200
52754W        W21128  17.122   1.746   1.903
52755W        W21129   8.215  38.989  12.847
52756W        W21130  15.722   6.826   1.434
52757W        W21131  34.064  39.046   0.423
52758W        W21132  37.833  42.895  10.026
52759W        W21133  44.494  23.546   2.708
52760W        W21134  15.231  40.798   1.770
52761W        W21135  10.258  17.145  14.463
52762W        W21136  19.236  14.294  11.959
52763W        W21137   9.160  43.503  12.980
52764W        W21138  26.603  25.615  11.572
52765W        W21139  11.201  10.320  11.877
52766W        W21140   8.684  21.640  13.985
52767W        W21141  34.533  42.497   4.800
52768W        W21142   5.356  22.047  13.865
52769W        W21143   0.868  31.457  13.489
52770W        W21144  38.518   2.927   0.274
52771W        W21145   7.364  20.246   5.724
52772W        W21146   5.287   5.213   1.823
52773W        W21147   1.375  40.815  13.791
52774W        W21148   1.901   3.807  13.018
52775W        W21149   7.365  18.634   4.339
52776W        W21150  43.839  23.176   3.219
52777W        W21151  19.744   5.785  14.479
52778W        W21152   2.323  11.164   0.820
52779W        W21153   2.267  24.074  13.360
52780W        W21154  25.018  12.335   1.275
52781W        W21155  20.638  37.832  10.610
52782W        W21156   3.411  30.427  13.840
52783W        W21157  14.300  17.214  11.412
52784W        W21158  23.985  41.295  11.009
52785W        W21159  29.494  34.559  11.988
52786W        W21160   1.452   3.423   5.084
52787W        W21161  29.660  37.337  14.951
52788W        W21162  28.185  26.612  10.407
52789W        W21163  39.940  33.121   1.853
52790W        W21164  30.565   4.863   3.359
52791W        W21165   7.319   2.795  11.484
52792W        W21166  19.733   4.348  10.493
52793W        W21167   4.420   9.795  14.487
52794W        W21168  23.603   5.392  12.903
52795W        W21169  37.013  26.164  14.784
52796W        W21170   0.408  33.625   3.313
52797W        W21171  31.607  32.107   2.723
52798W        W21172  16.081  44.421   3.236
52799W        W21173  36.360  21.233   3.379
52800W        W21174  38.385  26.487  10.425
52801W        W21175  22.158  17.235   4.820
52802W        W21176  30.957   9.241  14.457
52803W        W21177  44.383  42.811  10.125
52804W        W21178  33.604  28.178   3.373
52805W        W21179  17.679  14.809  13.318
52806W        W21180  15.206  23.583  10.409
52807W        W21181  18.563  41.872  12.577
52808W        W21182  18.183  38.396   4.764
52809W        W21183  33.944   5.329   3.229
52810W        W21184  28.037   8.861   0.859
52811W        W21185  19.058   7.182  14.796
52812W        W21186  20.725  26.541  11.104
52813W        W21187  33.503  27.476   3.370
52814W        W21188  17.801   3.746   0.841
52815W        W21189  42.452  11.668  11.381
52816W        W21190   8.261   1.793   3.192
52817W        W21191  34.952  40.342  14.458
52818W        W21192   1.308  41.813   4.354
52819W        W21193   5.924   8.752  14.416
52820W        W21194   1.907   9.659  14.278
52821W        W21195  35.444  22.196  14.453
52822W        W21196  10.714  19.768  11.469
52823W        W21197  26.523  25.086   0.767
52824W        W21198  26.580  20.232  13.981
52825W        W21199  25.632  32.410  12.070
52826W        W21200  13.748  11.812   3.683
52827W        W21201  14.777  22.169  11.013
52828W        W21202  20.577   5.808  14.358
52829W        W21203  12.690  40.846  12.375
52830W        W21204  10.727  13.310  11.120
52831W        W21205  39.490  19.728   0.945
52832W        W21206  14.211  34.487   0.868
52833W        W21207  14.139  17.103   3.157
52834W        W21208  17.685  11.165   4.129
52835W        W21209  35.927  39.995   1.924
52836W        W21210  12.805  35.417  12.895
52837W        W21211   9.254  42.294  13.453
52838W        W21212  36.073  15.302   3.338
52839W        W21213   2.370  28.576  11.957
52840W        W21214   2.313   0.908   1.873
52841W        W21215  18.180  43.813   3.218
52842W        W21216  41.417  21.684  14.373
52843W        W21217   2.853  15.118   3.249
52844W        W21218  15.133  44.911   4.658
52845W        W21219   3.849  27.535   3.170
52846W        W21220  38.501  11.630   2.204
52847W        W21221  32.050  25.575   3.359
52848W        W21222  35.921  34.533   4.600
52849W        W21223  28.609  10.383   2.734
52850W        W21224   6.379  42.848   4.217
52851W        W21225  10.758  24.076  11.110
52852W        W21226  14.187  35.450  14.944
52853W        W21227  32.408  12.359  14.947
52854W        W21228  26.013  12.268   3.868
52855W        W21229  35.861   6.234  13.013
52856W        W21230  30.963  16.151  11.006
52857W        W21231   0.934   6.856   0.267
52858W        W21232  18.567  28.137   0.312
52859W        W21233   8.256   0.893   4.619
52860W        W21234  16.781  32.526   3.236
52861W        W21235  18.060   2.337  11.470
52862W        W21236   7.861   1.388   3.845
52863W        W21237  32.413  43.767   3.293
52864W        W21238  23.588  15.821  14.368
52865W        W21239  22.513  38.508   9.968
52866W        W21240  32.960  20.601  11.917
52867W        W21241  24.018   7.741  10.986
52868W        W21242  28.623  43.514  10.511
52869W        W21243  29.550  11.192  14.013
52870W        W21244   8.836  44.431  13.848
52871W        W21245  17.697  22.662  12.468
52872W        W21246  38.828  11.150  12.081
52873W        W21247  28.491  21.043   1.736
52874W        W21248   0.973   8.207   3.211
52875W        W21249  44.994  12.185   0.472
52876W        W21250  11.137  17.253  12.861
52877W        W21251  24.648  29.454   9.944
52878W        W21252  18.767  27.616  13.840
52879W        W21253   7.887  41.403   1.366
52880W        W21254   7.263  10.194  12.522
52881W        W21255  15.284  38.971  10.547
52882W        W21256  19.059  11.717  11.094
52883W        W21257  43.452   7.367  13.021
52884W        W21258  38.042  37.556  13.858
52885W        W21259  42.029  44.387   2.901
52886W        W21260  14.163  27.016  13.438
52887W        W21261  28.499  36.974   2.246
52888W        W21262   0.979  12.695  12.459
52889W        W21263  33.575   5.297   0.950
52890W        W21264  16.293   2.371  14.317
52891W        W21265   2.314   4.278  11.431
52892W        W21266   7.226  38.456   2.876
52893W        W21267  29.074  12.820   0.362
52894W        W21268  32.550   5.733  13.473
52895W        W21269  37.990  29.980   0.833
52896W        W21270  32.504  25.135   0.907
52897W        W21271  38.432  23.490  13.494
52898W        W21272  41.523  37.976   1.355
52899W        W21273  29.542  10.277   0.354
52900W        W21274  28.584  41.983  13.875
52901W        W21275   5.362  19.228   4.304
52902W        W21276  27.580  37.991  12.389
52903W        W21277  37.939  44.259   3.738
52904W        W21278  35.919  26.133   3.257
52905W        W21279  34.426  38.425   1.313
52906W        W21280  20.155  25.150   4.764
52907W        W21281  21.121  33.005   2.247
52908W        W21282   0.920   4.376   0.308
52909W        W21283  42.799  36.561   2.688
52910W        W21284  19.112  29.469  13.839
52911W        W21285  42.011  28.650  11.933
52912W        W21286  23.020  23.196   1.802
52913W        W21287  22.110  16.126   2.389
52914W        W21288  43.382   8.766  10.591
52915W        W21289  22.214  24.012   2.339
52916W        W21290  18.225   1.779   2.828
52917W        W21291  11.736  19.658  12.449
52918W        W21292  37.430  42.987  11.960
52919W        W21293  30.453  19.245   1.808
52920W        W21294  24.505  20.097   3.361
52921W        W21295  42.795  24.580  12.542
52922W        W21296  25.079  21.157   1.820
52923W        W21297  10.236  16.765  11.970
52924W        W21298  11.743   1.840   0.942
52925W        W21299   9.675  30.482  12.493
52926W        W21300   9.257   7.811   1.246
52927W        W21301  27.608  32.013   1.317
52928W        W21302  15.312   9.730  10.524
52929W        W21303  10.376  15.104  10.125
52930W        W21304  24.178  30.164   4.722
52931W        W21305   6.277  29.605  13.909
52932W        W21306   1.819   8.202   1.819
52933W        W21307  10.210  25.670  11.021
52934W        W21308  22.175  12.725  12.497
52935W        W21309  38.063  39.507  11.019
52936W        W21310  30.647  20.178   0.293
52937W        W21311  28.959  43.437  12.407
52938W        W21312  23.493   7.816  13.326
52939W        W21313  43.924  23.072  14.429
52940W        W21314   4.376  44.940   4.261
52941W        W21315  31.111  21.208  10.419
52942W        W21316  25.976  13.604   3.352
52943W        W21317  33.126  10.772   1.275
52944W        W21318  15.637  38.999  13.036
52945W        W21319  17.736   4.428   4.251
52946W        W21320  11.352  22.542   2.708
52947W        W21321  25.089   9.395  13.365
52948W        W21322  26.668   7.824   3.676
52949W        W21323  10.769  16.570  13.014
52950W        W21324   2.816  30.523   3.354
52951W        W21325  20.088  37.982  14.324
52952W        W21326  24.016  14.711   5.720
52953W        W21327   6.253  38.905  10.428
52954W        W21328   6.906  32.002   1.349
52955W        W21329  35.943  20.146  12.851
52956W        W21330  39.475  40.029   4.788
52957W        W21331  38.483  43.890   4.804
52958W        W21332   9.714   8.275   0.414
52959W        W21333  42.998   4.311   0.444
52960W        W21334  41.901  26.650  13.321
52961W        W21335  38.953  23.991  13.001
52962W        W21336  42.499  12.303   3.372
52963W        W21337  17.130  36.861  13.819
52964W        W21338  37.412   8.860  14.846
52965W        W21339  29.564  28.523  14.454
52966W        W21340  42.896   0.770  13.992
52967W        W21341  35.480   6.910   3.383
52968W        W21342  22.048  14.694   2.803
52969W        W21343  29.515   7.842  10.944
52970W        W21344  35.070  27.154  13.346
52971W        W21345  40.036   3.922   1.913
52972W        W21346  20.054   4.299  11.404
52973W        W21347  37.497   7.775   4.717
52974W        W21348  42.519   1.372   3.635
52975W        W21349  28.951  27.024  11.099
52976W        W21350   1.876  24.138   1.226
52977W        W21351  30.425  21.524  14.501
52978W        W21352  14.779  31.471  10.935
52979W        W21353  21.241  24.152  12.077
52980W        W21354  39.351   9.764   2.666
52981W        W21355  13.687  32.471  11.412
52982W        W21356  39.962  27.034  13.505
52983W        W21357  38.909  33.946   4.242
52984W        W21358  22.097  11.733   1.421
52985W        W21359  21.571  40.983  11.076
52986W        W21360  29.100  42.800   0.791
52987W        W21361   1.785   6.744   4.224
52988W        W21362  41.487   8.846  13.830
52989W        W21363  24.221  24.133  12.956
52990W        W21364  38.425   7.356   5.214
52991W        W21365  39.906   2.923  10.517
52992W        W21366  35.948  35.860   0.931
52993W        W21367  17.179  43.894   3.151
52994W        W21368  33.094   0.408  14.352
52995W        W21369  42.900  28.020   0.273
52996W        W21370   8.659  35.036   3.387
52997W        W21371   9.331  32.595  10.929
52998W        W21372  35.483  15.684   4.282
52999W        W21373  16.699   3.720   3.361
53000W        W21374  44.378  14.604   0.772
53001W        W21375  37.463  39.318  12.538
53002W        W21376   0.759  30.152   2.217
53003W        W21377   1.796  28.971   1.386
53004W        W21378  27.532  36.912   2.363
53005W        W21379  32.482  33.894  13.999
53006W        W21380  33.458  21.083   3.659
53007W        W21381  25.556  25.174   0.878
53008W        W21382  28.012  27.553   9.950
53009W        W21383  14.314  22.709   1.786
53010W        W21384  39.869   3.759   4.303
53011W        W21385  26.182  41.869  13.370
53012W        W21386  32.928   4.719   4.773
53013W        W21387   8.264   1.469   4.742
53014W        W21388  30.563   2.954   3.652
53015W        W21389  42.889  28.643  11.601
53016W        W21390  42.910  17.230  12.344
53017W        W21391  15.136  35.951  11.061
53018W        W21392  30.911   6.181  10.622
53019W        W21393   8.844  24.700   2.230
53020W        W21394  37.008   9.334  13.914
53021W        W21395  40.509  31.414   3.341
53022W        W21396   4.843  14.802  12.870
53023W        W21397  14.252   3.260   1.705
53024W        W21398   8.322  39.963  12.037
53025W        W21399  38.477  15.239  13.506
53026W        W21400   5.356  27.575  11.950
53027W        W21401  26.095  42.791   4.269
53028W        W21402  31.470  42.850   3.724
53029W        W21403  31.114  17.724  12.433
53030W        W21404  20.046  29.453  10.515
53031W        W21405   6.382  34.429   3.676
53032W        W21406  27.009   9.890   4.272
53033W        W21407  17.162   9.357   1.268
53034W        W21408   5.352  10.810  14.411
53035W        W21409  39.027   1.916   2.344
53036W        W21410  11.211  23.713  12.028
53037W        W21411  28.553  20.075   3.234
53038W        W21412   5.236  26.056   5.581
53039W        W21413  14.684  11.641   2.662
53040W        W21414  14.748  34.561  10.415
53041W        W21415  34.398  16.631  10.625
53042W        W21416   6.240   4.243   0.319
53043W        W21417  31.479   0.867   1.735
53044W        W21418  29.572  29.494  14.338
53045W        W21419  20.066  26.681   3.668
53046W        W21420  21.133  30.071   0.901
53047W        W21421  19.601  36.849  12.347
53048W        W21422  14.816   7.246  10.528
53049W        W21423  36.959  41.340   1.729
53050W        W21424  26.181  43.295  14.007
53051W        W21425  12.200  41.002  11.469
53052W        W21426  34.470  33.015  10.410
53053W        W21427  19.274  40.307   4.614
53054W        W21428  28.458  18.574  10.598
53055W        W21429  13.732   8.384  13.374
53056W        W21430  33.117   8.296   4.262
53057W        W21431  39.421  33.905  11.613
53058W        W21432   9.154  37.978   2.367
53059W        W21433   5.934   1.370  14.419
53060W        W21434   7.315  14.645  10.534
53061W        W21435  30.582  40.025   3.683
53062W        W21436  13.238  25.706   1.210
53063W        W21437  29.605   1.876   4.273
53064W        W21438   9.808   5.772   1.757
53065W        W21439  30.428  30.490   0.305
53066W        W21440  27.196   6.750  14.989
53067W        W21441  12.680  44.850   2.665
53068W        W21442  19.279   5.900  14.995
53069W        W21443  11.311  41.009  10.501
53070W        W21444  22.593   5.745  13.881
53071W        W21445  24.099  15.661   0.967
53072W        W21446   4.882  30.988   2.386
53073W        W21447   3.251   1.339   1.232
53074W        W21448  34.605  31.592   3.243
53075W        W21449  26.586  34.610   0.311
53076W        W21450  38.874  34.438  14.279
53077W        W21451  25.142  27.110   5.086
53078W        W21452   9.803  11.155   1.846
53079W        W21453  17.300   7.255  14.979
53080W        W21454   1.857  26.166  14.491
53081W        W21455  33.483  26.632   4.758
53082W        W21456  41.791  12.165   3.383
53083W        W21457  21.063  10.654  12.383
53084W        W21458  37.348  42.432   3.739
53085W        W21459  34.429   0.922  14.312
53086W        W21460   9.743  27.069   4.684
53087W        W21461  19.056  42.971   1.831
53088W        W21462  14.804   4.433  11.554
53089W        W21463  34.023  31.042   2.305
53090W        W21464  10.200  37.380  11.018
53091W        W21465  28.982  11.856   1.901
53092W        W21466  37.978   8.383   0.357
53093W        W21467  25.642  33.052   2.807
53094W        W21468  15.249  26.515  10.462
53095W        W21469  32.130  26.073  11.609
53096W        W21470  36.403  32.928  11.611
53097W        W21471  43.507  24.635  14.928
53098W        W21472  25.210  43.768   1.850
53099W        W21473   6.814   6.892  11.996
53100W        W21474  31.927  35.996  13.481
53101W        W21475   0.407   4.834   0.300
53102W        W21476  34.523  10.320   4.769
53103W        W21477  26.050  22.568   3.784
53104W        W21478  41.024  29.553  14.354
53105W        W21479   3.430  17.083  14.370
53106W        W21480  41.844  10.815  14.786
53107W        W21481  26.474  34.529   2.418
53108W        W21482  43.826  13.668  13.986
53109W        W21483  44.829   0.343   2.747
53110W        W21484   8.219  18.707  10.455
53111W        W21485   2.347  12.620   4.125
53112W        W21486  26.994   5.376   3.683
53113W        W21487  16.598   0.440  11.894
53114W        W21488  18.549  28.068   4.195
53115W        W21489  23.574  17.784   3.720
53116W        W21490   8.865  10.313  10.592
53117W        W21491   4.223   5.419  11.985
53118W        W21492   7.863   2.296   4.132
53119W        W21493  27.456  36.068   1.694
53120W        W21494  11.256  10.272  10.940
53121W        W21495  10.228  28.107   4.293
53122W        W21496   1.366  34.988  12.880
53123W        W21497  26.147  22.129   2.203
53124W        W21498  42.521  33.058   1.253
53125W        W21499  20.544  11.318   3.806
53126W        W21500  28.607  31.093   1.239
53127W        W21501  13.698   8.835   0.285
53128W        W21502  22.697  37.497  12.463
53129W        W21503  34.111  13.752   4.681
53130W        W21504  37.339  15.818   0.292
53131W        W21505   9.358  29.918   1.285
53132W        W21506  25.169  40.817   3.329
53133W        W21507  36.377   0.967   0.277
53134W        W21508  19.140  28.993  10.442
53135W        W21509  19.080  40.523   3.346
53136W        W21510   3.925  31.020   4.831
53137W        W21511  26.060   3.882   4.238
53138W        W21512   7.668  28.940  10.159
53139W        W21513  25.590   8.676  14.395
53140W        W21514  35.373  27.955  10.566
53141W        W21515  23.520  23.568   4.263
53142W        W21516  24.097   3.415   2.779
53143W        W21517  18.135   0.771   0.765
53144W        W21518   3.275   3.368  13.953
53145W        W21519  33.547  38.392   1.767
53146W        W21520  32.524  29.012  14.011
53147W        W21521   8.871   6.370  14.313
53148W        W21522   7.361  32.418  14.933
53149W        W21523  36.906   4.413  14.349
53150W        W21524   7.831  41.824   4.322
53151W        W21525  12.248  41.440   1.271
53152W        W21526   1.322  10.835  14.006
53153W        W21527  23.540  23.650  12.542
53154W        W21528  29.021  23.094   0.263
53155W        W21529  22.995   0.409   3.339
53156W        W21530   2.788  32.560   2.304
53157W        W21531  31.628  33.078  12.522
53158W        W21532  27.537  19.559   2.353
53159W        W21533  20.210  23.202   0.874
53160W        W21534  24.531  25.591  12.534
53161W        W21535  36.589  21.726   4.269
53162W        W21536   6.869  19.602  13.527
53163W        W21537  40.306  42.816   4.114
53164W        W21538  43.468   9.786  12.411
53165W        W21539  12.241  21.182   1.316
53166W        W21540  41.859   7.414   1.249
53167W        W21541  12.733   9.274   4.783
53168W        W21542  21.647   9.293   2.270
53169W        W21543  17.121  43.368  12.377
53170W        W21544  12.242  39.421  11.473
53171W        W21545  18.563  31.418  14.403
53172W        W21546  13.627  39.413  12.925
53173W        W21547  23.101  27.545   3.643
53174W        W21548  20.556   5.875   3.186
53175W        W21549   3.362  38.952   1.769
53176W        W21550  39.996  10.168  13.343
53177W        W21551  13.660   9.185   4.288
53178W        W21552  13.143  24.711  11.864
53179W        W21553  19.136   0.751  11.999
53180W        W21554  16.786  34.886   3.790
53181W        W21555  34.438  39.835  13.526
53182W        W21556  44.371  33.417  10.539
53183W        W21557   9.868  18.130   2.357
53184W        W21558  29.018  15.302   2.897
53185W        W21559   6.746  24.543   5.173
53186W        W21560  10.670  26.513   3.369
53187W        W21561  18.705   3.237  14.360
53188W        W21562  39.351  34.987   4.773
53189W        W21563  20.260  35.467  11.556
53190W        W21564  21.573   2.429  14.412
53191W        W21565  25.026  13.230  12.084
53192W        W21566  13.619  24.082  11.887
53193W        W21567  38.894   7.719  12.537
53194W        W21568  40.303  26.105  10.415
53195W        W21569  26.105  41.365   1.756
53196W        W21570  15.194  11.817  11.587
53197W        W21571  20.232  15.739   1.789
53198W        W21572   7.894  21.132  11.073
53199W        W21573   9.166  25.988  12.974
53200W        W21574   0.871   5.789  12.952
53201W        W21575   3.953   5.879   0.276
53202W        W21576  38.534  34.428  11.986
53203W        W21577  28.069  22.733  11.061
53204W        W21578  36.589  43.894  12.028
53205W        W21579  23.999  19.215  12.354
53206W        W21580   6.333  39.518  10.999
53207W        W21581  14.190  20.119   2.328
53208W        W21582  31.598   1.901   1.315
53209W        W21583   9.715  41.383   4.230
53210W        W21584  38.033  25.685  11.602
53211W        W21585   2.768   9.690   4.835
53212W        W21586  41.521  12.746   3.676
53213W        W21587  29.612  24.565  13.381
53214W        W21588  17.108   3.870  10.981
53215W        W21589   1.269  11.343   1.887
53216W        W21590  37.062  38.867   4.154
53217W        W21591  39.953  42.312  11.078
53218W        W21592  11.643  40.037  10.139
53219W        W21593  44.377  28.644  13.499
53220W        W21594  34.042  31.129   4.251
53221W        W21595   9.801   3.215  12.414
53222W        W21596  34.922  12.773  12.929
53223W        W21597  30.007   5.816   1.872
53224W        W21598  17.665  22.013   3.240
53225W        W21599   6.354  40.313   2.325
53226W        W21600  22.133   2.468  14.819
53227W        W21601  18.211  14.251   5.254
53228W        W21602  24.490   4.381  13.962
53229W        W21603  33.933  32.463  14.499
53230W        W21604  42.397  30.517  11.480
53231W        W21605  27.555  29.600  13.977
53232W        W21606   3.408  18.130  14.444
53233W        W21607   0.461  31.635  13.424
53234W        W21608  15.663  16.318  14.921
53235W        W21609   2.765  41.920   4.331
53236W        W21610   5.328  38.912   0.925
53237W        W21611  43.400  38.451  12.565
53238W        W21612  35.374  39.443   1.241
53239W        W21613  41.023   3.884   1.743
53240W        W21614   3.863  16.616   3.758
53241W        W21615   9.364  30.057  13.034
53242W        W21616  11.637  32.008   1.277
53243W        W21617  13.718  14.121   3.368
53244W        W21618   3.370  13.269  11.392
53245W        W21619   1.867  41.961  11.607
53246W        W21620  13.698  24.125  12.500
53247W        W21621  37.041  42.468  14.893
53248W        W21622  36.097  17.778  13.844
53249W        W21623  29.172  43.488   2.257
53250W        W21624  19.743  22.721  14.799
53251W        W21625  16.732  17.616   2.352
53252W        W21626   4.209  11.179  11.379
53253W        W21627   1.255  17.780  11.450
53254W        W21628  37.936  23.151  14.414
53255W        W21629  39.845  12.646   0.416
53256W        W21630  22.553  12.349  14.471
53257W        W21631   8.225   1.289   3.273
53258W        W21632  18.670  17.088  12.406
53259W        W21633  29.951  24.584   3.255
53260W        W21634  43.967  19.578  10.555
53261W        W21635  41.991  44.398  13.935
53262W        W21636  38.958  26.628   0.803
53263W        W21637  33.578   3.376  11.470
53264W        W21638   8.230   9.213   3.203
53265W        W21639  24.143  22.638  10.406
53266W        W21640  30.116  18.711  13.016
53267W        W21641   0.850  21.164   3.361
53268W        W21642  23.038   9.736  13.820
53269W        W21643  41.410  37.060  13.491
53270W        W21644  24.039  22.076   4.677
53271W        W21645  22.671  15.104   9.960
53272W        W21646  34.052  31.434   2.208
53273W        W21647   7.847   9.207  11.471
53274W        W21648  21.158  44.300  12.090
53275W        W21649  38.035  29.542   0.763
53276W        W21650  11.673   8.226  12.950
53277W        W21651  24.144   8.185   1.712
53278W        W21652  37.855  11.787  14.341
53279W        W21653   4.818  10.766  11.921
53280W        W21654   1.737  18.254   3.298
53281W        W21655  37.378  18.661   4.256
53282W        W21656  23.161  32.985  14.333
53283W        W21657  22.742   2.471   0.450
53284W        W21658   4.886  15.675  13.494
53285W        W21659  36.472  35.375   4.247
53286W        W21660   6.816  42.827   2.301
53287W        W21661  34.390  22.721   1.794
53288W        W21662  34.029   9.302  13.970
53289W        W21663  43.904  16.183   2.311
53290W        W21664  24.045  43.780  12.012
53291W        W21665   4.310  13.687  11.544
53292W        W21666  25.071  13.208  10.462
53293W        W21667  26.472  17.204  14.487
53294W        W21668  17.063  20.247   0.747
53295W        W21669  21.579  14.625  14.471
53296W        W21670   5.238  34.594   4.169
53297W        W21671  29.649   4.290   3.656
53298W        W21672   6.787  33.896  13.042
53299W        W21673  19.730  34.506  10.498
53300W        W21674   3.320   4.338   2.392
53301W        W21675   9.282  39.920  13.901
53302W        W21676  37.498  18.239   0.426
53303W        W21677  37.028  21.582  12.375
53304W        W21678  19.777  22.647   2.732
53305W        W21679  18.718  23.106  10.908
53306W        W21680  42.440  37.930   4.130
53307W        W21681  33.968  28.153   0.459
53308W        W21682  20.222  22.152  14.388
53309W        W21683  14.224  38.400  12.415
53310W        W21684   2.303   3.910   0.812
53311W        W21685  23.691   1.743  12.054
53312W        W21686  17.789  28.623   3.275
53313W        W21687  13.634  37.965  14.786
53314W        W21688   5.198   7.863  14.876
53315W        W21689   3.440   6.230  13.495
53316W        W21690  32.542   6.888   1.865
53317W        W21691  40.497  35.859   2.389
53318W        W21692  22.148  24.562  13.952
53319W        W21693  36.996  23.076   3.829
53320W        W21694  19.770  11.282  11.533
53321W        W21695   3.811  16.790   4.194
53322W        W21696  22.544  14.636   2.799
53323W        W21697   1.345   9.182  14.017
53324W        W21698  19.267  23.664   4.754
53325W        W21699   3.936   1.799  13.865
53326W        W21700   4.268  26.506  13.836
53327W        W21701  19.045   9.391  13.342
53328W        W21702  10.293  13.144   4.171
53329W        W21703   8.755  23.603  11.500
53330W        W21704  21.111  39.828  13.803
53331W        W21705   4.333  42.995  11.498
53332W        W21706   5.431  33.954   1.743
53333W        W21707  10.712  15.622  13.042
53334W        W21708  26.153  12.332  11.497
53335W        W21709  35.476  26.654   4.822
53336W        W21710  29.129  32.479  14.002
53337W        W21711  15.292  18.170  14.505
53338W        W21712  42.305   0.856   1.268
53339W        W21713  24.535  36.922  12.871
53340W        W21714  20.646   2.351   1.697
53341W        W21715  24.620  32.043  14.847
53342W        W21716  11.791   4.803   4.823
53343W        W21717  22.650   2.830   2.729
53344W        W21718  28.486  16.100  12.384
53345W        W21719   5.709  10.313   3.335
53346W        W21720   9.166  24.991  12.573
53347W        W21721  40.531  27.004   0.780
53348W        W21722  11.854  34.070  14.761
53349W        W21723  24.662  37.866   4.680
53350W        W21724  22.621  32.067   3.699
53351W        W21725  14.209  39.423   2.391
53352W        W21726  22.235  19.625  13.542
53353W        W21727  18.728  32.004   3.304
53354W        W21728   9.160   3.404   3.795
53355W        W21729   5.352  35.055  10.456
53356W        W21730   6.731  39.354  13.455
53357W        W21731   2.271   6.828   0.782
53358W        W21732  19.148  31.542  12.935
53359W        W21733  43.808  40.054  11.100
53360W        W21734  13.718  35.385   2.221
53361W        W21735  21.664   4.227  11.574
53362W        W21736  39.549  36.062   4.620
53363W        W21737   0.843  43.441  10.572
53364W        W21738  33.941  10.366  13.433
53365W        W21739   3.774  15.713   4.686
53366W        W21740  28.557   4.904  11.583
53367W        W21741   4.728   3.406   3.678
53368W        W21742  32.070  22.609  13.862
53369W        W21743  30.943  37.565  11.937
53370W        W21744  34.056  12.690  13.858
53371W        W21745  40.533   2.843  12.934
53372W        W21746   1.955   2.468  11.409
53373W        W21747  16.085   0.460   1.882
53374W        W21748  32.069  29.619  14.930
53375W        W21749  29.987   5.879  13.035
53376W        W21750  37.980  17.243  13.445
53377W        W21751  31.041  36.373  12.540
53378W        W21752  12.852  30.005   1.331
53379W        W21753   7.878   3.942  14.308
53380W        W21754  18.088  17.753   0.867
53381W        W21755   7.418   8.898   2.733
53382W        W21756  30.599  12.617   3.297
53383W        W21757  32.635  22.654  11.596
53384W        W21758  17.681  34.907   1.256
53385W        W21759  32.571  36.006   3.277
53386W        W21760   8.372  17.760  13.486
53387W        W21761   4.760  24.993   1.733
53388W        W21762  14.297   2.411   3.717
53389W        W21763   6.817  36.382   4.619
53390W        W21764   9.768  40.438  13.408
53391W        W21765  39.554  12.164   0.415
53392W        W21766  13.241  24.075   3.821
53393W        W21767  28.078  38.429  12.472
53394W        W21768  27.451  44.292   0.732
53395W        W21769  34.372  37.979   3.302
53396W        W21770  27.162   6.839  10.975
53397W        W21771   0.848  24.705   4.305
53398W        W21772   6.677  26.657   4.832
53399W        W21773  10.782  40.444  12.363
53400W        W21774   0.890  11.252   2.248
53401W        W21775   3.381   9.290   1.884
53402W        W21776  38.928  19.258   2.409
53403W        W21777  22.215  42.390  13.960
53404W        W21778  26.196   5.852  13.891
53405W        W21779   1.896   9.389  11.032
53406W        W21780  37.340  35.107  14.023
53407W        W21781  12.807   9.315  12.976
53408W        W21782  24.507  27.633   1.430
53409W        W21783  10.371  41.972   3.842
53410W        W21784  11.281  26.155  12.057
53411W        W21785  38.559  40.991   4.322
53412W        W21786  38.836  41.476  12.861
53413W        W21787  42.952   4.338  11.055
53414W        W21788  32.470  42.982   2.258
53415W        W21789  33.413  27.545  14.453
53416W        W21790  33.075  33.559   0.402
53417W        W21791  38.433   6.916   5.715
53418W        W21792  21.081   9.154  14.476
53419W        W21793  28.470   2.806   3.332
53420W        W21794  35.373   3.932   0.910
53421W        W21795  25.218  15.734   0.888
53422W        W21796   8.356  34.576  10.610
53423W        W21797  32.995  19.109   3.782
53424W        W21798  10.272  17.639  13.038
53425W        W21799   9.764  30.523   4.274
53426W        W21800  37.955  38.462   4.168
53427W        W21801  41.495  14.621   2.383
53428W        W21802   7.781  17.199  13.926
53429W        W21803  28.664  31.573   3.209
53430W        W21804  35.045  33.526   4.646
53431W        W21805  42.909  33.953  14.985
53432W        W21806   4.706  15.135   0.365
53433W        W21807  32.548  17.067   2.890
53434W        W21808  23.660  18.223   1.352
53435W        W21809  13.813   8.883   9.668
53436W        W21810  12.767  40.521  11.574
53437W        W21811  15.815   6.250   4.717
53438W        W21812  22.192  40.027   3.263
53439W        W21813  13.783  30.532   2.778
53440W        W21814  11.141   6.729   4.760
53441W        W21815  12.690  35.976   1.360
53442W        W21816  30.475  15.717  12.867
53443W        W21817  37.388   8.899   0.311
53444W        W21818  31.506  33.437  10.517
53445W        W21819  43.271  33.447   2.752
53446W        W21820  40.511  13.135   1.768
53447W        W21821  31.104  22.505   2.761
53448W        W21822  25.529  30.920   3.323
53449W        W21823  10.812   7.218   0.339
53450W        W21824  39.038  35.099  11.974
53451W        W21825  15.144   5.259   0.286
53452W        W21826  17.077  12.130   0.374
53453W        W21827  36.529   6.389  11.079
53454W        W21828  44.458  44.894  10.581
53455W        W21829  19.246   6.207  10.889
53456W        W21830   4.832  15.303   0.923
53457W        W21831   7.283  23.578   0.368
53458W        W21832  28.056  36.879  13.523
53459W        W21833  21.664  30.967  13.403
53460W        W21834  11.128   2.728  13.374
53461W        W21835  20.608   9.263   4.303
53462W        W21836   8.683  37.404   3.152
53463W        W21837   8.381   7.313   2.807
53464W        W21838   0.957  41.896  12.370
53465W        W21839  22.024   2.468   3.384
53466W        W21840  23.239  20.175   0.246
53467W        W21841   9.187  37.411  12.407
53468W        W21842   4.871  32.038   3.151
53469W        W21843  13.701  19.618   3.698
53470W        W21844  29.123  41.359  11.493
53471W        W21845   5.273  31.112   1.882
53472W        W21846  43.904  12.717  14.480
53473W        W21847  28.971   3.801   1.721
53474W        W21848  24.982  22.557  11.061
53475W        W21849  16.221  24.093   1.736
53476W        W21850   1.397  40.958   3.272
53477W        W21851  14.796  13.608  14.420
53478W        W21852   6.190  43.434   1.698
53479W        W21853  44.455  35.559  14.501
53480W        W21854  10.738   6.810   3.200
53481W        W21855   9.710  36.063  10.973
53482W        W21856  34.106   4.759  10.946
53483W        W21857  34.450  35.401  13.937
53484W        W21858  12.306  25.978  10.601
53485W        W21859  27.025  39.888   0.853
53486W        W21860  20.056  12.168  13.921
53487W        W21861  37.581  11.144  13.827
53488W        W21862   2.808  12.649  10.490
53489W        W21863  31.982  31.446   0.891
53490W        W21864  30.598  40.894   1.849
53491W        W21865  34.939  29.985   3.271
53492W        W21866  43.457  20.642   0.935
53493W        W21867   1.475  39.812   2.222
53494W        W21868  31.046  21.223  14.865
53495W        W21869  10.291  26.651  12.488
53496W        W21870  23.004  21.199  11.585
53497W        W21871  13.190  25.203   0.899
53498W        W21872  25.146  27.967  13.410
53499W        W21873   1.975  10.744   4.664
53500W        W21874  33.089  23.096  14.864
53501W        W21875  31.601  18.626  11.991
53502W        W21876  18.239   5.210  10.507
53503W        W21877  28.516  16.772   1.261
53504W        W21878  24.642   8.166  11.600
53505W        W21879  26.054  35.031   4.693
53506W        W21880  36.592  24.585  10.570
53507W        W21881  44.864  19.126  11.873
53508W        W21882  23.087  16.228   1.776
53509W        W21883  20.715   1.481  11.081
53510W        W21884  32.550  25.154   1.251
53511W        W21885  37.026  34.908   1.306
53512W        W21886  25.649   5.259  14.392
53513W        W21887   1.892  42.291  11.959
53514W        W21888  39.547   6.902   0.830
53515W        W21889  24.616   9.319  13.857
53516W        W21890  11.356  22.231  10.442
53517W        W21891  42.829  29.918  12.484
53518W        W21892  14.289  37.954  14.336
53519W        W21893  14.284  33.587  10.446
53520W        W21894  19.536  32.458  14.872
53521W        W21895  23.011  18.273   1.933
53522W        W21896  39.814  24.189  12.975
53523W        W21897  34.610  24.617  10.444
53524W        W21898  32.455  23.019   1.711
53525W        W21899  18.180  28.072  13.458
53526W        W21900  30.076  39.905  10.442
53527W        W21901  26.183  14.792  14.771
53528W        W21902  32.899  10.790  11.588
53529W        W21903   2.756  14.099  12.437
53530W        W21904  11.328  29.522  14.393
53531W        W21905  39.882  30.609   2.825
53532W        W21906  26.999   4.415   2.878
53533W        W21907  44.485  35.023  12.348
53534W        W21908  14.096  30.117  13.022
53535W        W21909  14.153  44.975   3.162
53536W        W21910  18.223  35.497   1.311
53537W        W21911  28.625  21.044   3.810
53538W        W21912  21.035  26.487  10.088
53539W        W21913   4.374  30.577  11.046
53540W        W21914  41.480  38.517  14.996
53541W        W21915   8.891  37.389   5.160
53542W        W21916  34.109  33.570  14.418
53543W        W21917   9.350  21.680   4.761
53544W        W21918   2.760  13.641  11.447
53545W        W21919   0.816   6.387   4.834
53546W        W21920  14.132  11.730  11.610
53547W        W21921   8.713  20.082  12.569
53548W        W21922  10.180  29.043   3.862
53549W        W21923  12.813  37.996   1.730
53550W        W21924  19.132  35.919  11.378
53551W        W21925  37.922  38.420  10.526
53552W        W21926  30.451  22.062   3.154
53553W        W21927  18.714  32.534  11.479
53554W        W21928  11.707  39.029   4.134
53555W        W21929  22.068  16.701  11.565
53556W        W21930   9.218  18.639  14.003
53557W        W21931  39.390  17.077   1.403
53558W        W21932   6.768  24.651   2.304
53559W        W21933  10.254  35.960  13.435
53560W        W21934  36.589  44.923  14.330
53561W        W21935  23.533  34.593   3.829
53562W        W21936  33.028  40.388  12.961
53563W        W21937  18.585  29.479   2.856
53564W        W21938  26.520  43.783   5.244
53565W        W21939   9.646   3.314   4.266
53566W        W21940  15.606  40.946  10.071
53567W        W21941  36.868  26.616  14.831
53568W        W21942  38.466  35.992   3.793
53569W        W21943  38.946  14.155  14.790
53570W        W21944  13.773   5.741  12.009
53571W        W21945   8.752  11.249  13.801
53572W        W21946  19.161  40.887   2.689
53573W        W21947  24.049  18.615  10.132
53574W        W21948  44.805   2.756  14.000
53575W        W21949   6.783  17.079  11.045
53576W        W21950  15.743  19.152   0.363
53577W        W21951  15.101  20.568  13.058
53578W        W21952  38.919  33.391  13.874
53579W        W21953  28.452  33.992   2.230
53580W        W21954  40.364  26.021  14.412
53581W        W21955  34.971  36.920  14.496
53582W        W21956  27.613  19.614   4.230
53583W        W21957  36.013  34.418   0.792
53584W        W21958   4.275  22.635  12.443
53585W        W21959  33.034   6.888   2.210
53586W        W21960  37.405  29.554  10.502
53587W        W21961   0.922   2.850   4.807
53588W        W21962   0.748  28.157  12.827
53589W        W21963  27.542  41.298   2.802
53590W        W21964  39.841  40.442  10.983
53591W        W21965  37.386   6.359  13.995
53592W        W21966  34.928  36.490  14.818
53593W        W21967  36.359  33.489  10.431
53594W        W21968  30.121  36.006   0.412
53595W        W21969  12.298   3.923  14.013
53596W        W21970  40.491  40.452  14.865
53597W        W21971  26.539  10.875  12.901
53598W        W21972   7.273  28.173   2.831
53599W        W21973   9.815  21.515  13.350
53600W        W21974  38.983   9.199  11.038
53601W        W21975   2.945  17.729  12.918
53602W        W21976  16.588  37.983  14.473
53603W        W21977  12.350   1.261  14.417
53604W        W21978  32.476  39.998  14.312
53605W        W21979  40.936  11.222   3.836
53606W        W21980   2.352   8.696  14.309
53607W        W21981  21.557  19.773  10.621
53608W        W21982  35.043  23.135  10.617
53609W        W21983  16.133   3.737   0.280
53610W        W21984   8.791  28.078  11.860
53611W        W21985  13.833   4.276  13.950
53612W        W21986  35.042   2.302  13.059
53613W        W21987  12.710  21.599   1.829
53614W        W21988   2.251  16.660  10.901
53615W        W21989  26.587   2.856  11.079
53616W        W21990  35.965  41.845  11.044
53617W        W21991  26.050  34.457  14.940
53618W        W21992  35.454  13.764  13.324
53619W        W21993  16.583  27.611   1.370
53620W        W21994  19.614  24.687  12.374
53621W        W21995  19.629  42.911  12.428
53622W        W21996  24.490   6.897   3.678
53623W        W21997  12.722  38.455  12.075
53624W        W21998  43.461  39.877   0.965
53625W        W21999  42.445  18.105   2.816
53626W        W22000  12.198  40.400  11.448
53627W        W22001   2.724  20.088  12.946
53628W        W22002  23.038  31.969  10.636
53629W        W22003  33.898  41.018  11.090
53630W        W22004  39.426   7.185   1.249
53631W        W22005   6.807   3.372  14.961
53632W        W22006   7.853  28.513  14.309
53633W        W22007  12.116   4.298   1.405
53634W        W22008  23.213   4.743   3.360
53635W        W22009  15.283  30.157   3.361
53636W        W22010  32.052  30.938  11.085
53637W        W22011  34.443  36.083   2.419
53638W        W22012  42.293  44.382   4.212
53639W        W22013   9.358   8.217   0.258
53640W        W22014  37.900  32.116  13.001
53641W        W22015  30.602  16.673  13.370
53642W        W22016  24.018  22.698   2.883
53643W        W22017  41.400  32.411   1.848
53644W        W22018   2.228   6.214  14.939
53645W        W22019  33.623  24.625   3.322
53646W        W22020  34.422  35.881  14.337
53647W        W22021   6.816   8.235   0.808
53648W        W22022  20.545   3.847  10.904
53649W        W22023  42.957  39.056  11.392
53650W        W22024  15.092  20.601   4.605
53651W        W22025  40.933  40.928   1.229
53652W        W22026  30.588  21.568   4.746
53653W        W22027   3.913   2.752   3.254
53654W        W22028  42.018   6.379   4.325
53655W        W22029  42.432  36.045   4.643
53656W        W22030  36.543  37.524  11.006
53657W        W22031   9.173  44.859   0.878
53658W        W22032  32.447  27.641   2.348
53659W        W22033   5.833  15.671   3.268
53660W        W22034   3.372  31.904   0.871
53661W        W22035   1.813  10.643   0.853
53662W        W22036  27.560  31.129  10.411
53663W        W22037   2.959  12.249   1.907
53664W        W22038  29.109  43.931  10.043
53665W        W22039  35.580   5.900   2.888
53666W        W22040  42.292  30.618   3.793
53667W        W22041  17.167   3.765  14.481
53668W        W22042  32.063  12.675   4.282
53669W        W22043  35.988  11.205   2.373
53670W        W22044  34.035   2.898   2.855
53671W        W22045  26.092   6.748   3.812
53672W        W22046  22.038   8.802  14.423
53673W        W22047  34.430   7.847  11.063
53674W        W22048  13.734  27.942   3.179
53675W        W22049  31.487  11.169   0.830
53676W        W22050  41.516  11.355  12.933
53677W        W22051  41.457  26.522   3.823
53678W        W22052  21.217   0.756  13.916
53679W        W22053  17.673  13.291  10.998
53680W        W22054  12.153   8.297   3.757
53681W        W22055  32.941  37.575  11.398
53682W        W22056  35.511  14.615  11.533
53683W        W22057  39.945  41.392  12.030
53684W        W22058   7.813  21.263  13.438
53685W        W22059  36.451  22.542  12.524
53686W        W22060   6.709   1.749  11.612
53687W        W22061  19.546  43.411   0.397
53688W        W22062   7.841  29.967  10.991
53689W        W22063  41.846   8.228   2.862
53690W        W22064  12.352  35.973   3.239
53691W        W22065   7.879  32.556   3.857
53692W        W22066   1.295  37.924  12.990
53693W        W22067  13.296   3.862  11.963
53694W        W22068   8.225  39.468  10.970
53695W        W22069  13.289  30.081   4.290
53696W        W22070  22.039  32.000  12.073
53697W        W22071  44.430  15.823  13.537
53698W        W22072  41.852  44.274  14.309
53699W        W22073  22.134  44.879   1.314
53700W        W22074  32.912   9.380   2.734
53701W        W22075  21.683  35.960   5.303
53702W        W22076  22.085   9.806  13.537
53703W        W22077  14.693  29.457  14.941
53704W        W22078  14.821  30.549  10.945
53705W        W22079  11.851  10.753  13.990
53706W        W22080  25.096  26.134   2.277
53707W        W22081   9.701  42.510  14.509
53708W        W22082  34.560   4.218   0.858
53709W        W22083  24.664   3.858  14.460
53710W        W22084  44.964   4.928  13.373
53711W        W22085   9.844  25.516   1.233
53712W        W22086  19.230   4.292  11.086
53713W        W22087  20.037  10.752  11.597
53714W        W22088  12.820  41.535  10.546
53715W        W22089  36.416   4.272   4.615
53716W        W22090   6.749  20.121   1.333
53717W        W22091  25.691   4.297   0.930
53718W        W22092  40.050  28.140   4.761
53719W        W22093  38.932  27.086  11.993
53720W        W22094  17.210  27.033  11.405
53721W        W22095  21.717  17.125  13.818
53722W        W22096  36.376  11.343   2.681
53723W        W22097  17.293  12.147  14.287
53724W        W22098  32.527  10.157  11.017
53725W        W22099   6.216   1.448  14.475
53726W        W22100  26.558  22.234   2.399
53727W        W22101  36.003  37.406   1.706
53728W        W22102  43.316  28.125   2.274
53729W        W22103  40.972  34.028   3.265
53730W        W22104  19.191  26.970  13.363
53731W        W22105   2.901  22.735   0.860
53732W        W22106  31.991  22.536   0.767
53733W        W22107  42.884  18.139  10.612
53734W        W22108  41.913   1.859  10.475
53735W        W22109  28.178   2.439  13.876
53736W        W22110  29.552  16.164   1.445
53737W        W22111   9.387   5.713   3.715
53738W        W22112   3.837   4.813   9.998
53739W        W22113  42.910   0.361   1.438
53740W        W22114  19.636  41.368   0.260
53741W        W22115  44.334  24.713  14.372
53742W        W22116  41.968  43.855   2.700
53743W        W22117  24.607  26.050   3.778
53744W        W22118   3.311  42.776   5.208
53745W        W22119  24.206  35.002   5.183
53746W        W22120  16.267  41.321  13.812
53747W        W22121  41.852  41.852  10.619
53748W        W22122   5.324  22.695   2.308
53749W        W22123  26.997  11.622  14.825
53750W        W22124   8.715  19.218   1.864
53751W        W22125  10.311  26.476   3.216
53752W        W22126  30.915   1.416   3.673
53753W        W22127  16.590  37.450   2.710
53754W        W22128   3.401  19.230   4.261
53755W        W22129  40.406  43.950  14.927
53756W        W22130  44.413  29.919  13.363
53757W        W22131  18.056   5.800  10.419
53758W        W22132  38.453   4.399   1.443
53759W        W22133  20.154  31.999   2.817
53760W        W22134   9.787  44.374   2.268
53761W        W22135  35.004  38.534   2.751
53762W        W22136  29.631  22.565  10.006
53763W        W22137   2.814  43.888  11.375
53764W        W22138   9.659  32.028  12.573
53765W        W22139  31.576  40.944  12.342
53766W        W22140  40.798  23.103  12.555
53767W        W22141  38.468   9.861   5.675
53768W        W22142  22.211  17.072   2.400
53769W        W22143  31.632  31.036  13.040
53770W        W22144  32.991  20.035   3.219
53771W        W22145   9.237  23.009   3.362
53772W        W22146   4.749  10.853  10.448
53773W        W22147  15.164  30.073   0.818
53774W        W22148  17.760  16.182   3.155
53775W        W22149  31.124  15.631   3.811
53776W        W22150  32.975  42.927   5.083
53777W        W22151  27.977   7.392  13.824
53778W        W22152  17.702  41.435  13.478
53779W        W22153  35.024  35.420   3.279
53780W        W22154  30.560  18.708   4.747
53781W        W22155  11.318  23.026   3.838
53782W        W22156  12.132  16.104  13.399
53783W        W22157   2.420  17.149   3.252
53784W        W22158  31.083  38.411  13.326
53785W        W22159  38.881  24.984  10.472
53786W        W22160  23.524  28.939   4.793
53787W        W22161   3.350  19.116  14.382
53788W        W22162  11.842  26.054  10.940
53789W        W22163  41.348  17.264  14.996
53790W        W22164  15.799  27.197  10.889
53791W        W22165  32.505  43.423   0.837
53792W        W22166  41.416  25.483   2.865
53793W        W22167  26.556  26.951   2.333
53794W        W22168  34.066   5.335   2.810
53795W        W22169   9.176  43.507   1.848
53796W        W22170   2.757  13.322   1.288
53797W        W22171  24.568  32.120  14.384
53798W        W22172  16.657  14.102  12.373
53799W        W22173   1.758  40.493   3.291
53800W        W22174  23.043  42.848   1.753
53801W        W22175   3.426  42.886  14.823
53802W        W22176  36.440   6.426  13.331
53803W        W22177   3.345  23.990  14.430
53804W        W22178  25.983  44.390  10.013
53805W        W22179  10.674  35.961  13.947
53806W        W22180   1.843  14.810   0.307
53807W        W22181  35.439   3.461  13.314
53808W        W22182   8.341  37.490   1.359
53809W        W22183  12.188   2.245   2.417
53810W        W22184  14.184  32.019   4.172
53811W        W22185  33.942  37.516  13.977
53812W        W22186  13.769  21.743  13.324
53813W        W22187  31.970  10.678  12.398
53814W        W22188  24.556  23.598  13.548
53815W        W22189  13.220  14.727  11.448
53816W        W22190  21.187   4.769  12.524
53817W        W22191  16.159  11.195   0.302
53818W        W22192  28.013   7.670  14.890
53819W        W22193  41.971  14.827  14.472
53820W        W22194  16.093  29.986   3.253
53821W        W22195   0.901  29.441   0.886
53822W        W22196  14.755  10.277   4.731
53823W        W22197  42.318  21.186   0.820
53824W        W22198  38.339  32.493   2.264
53825W        W22199  29.556  42.364   0.902
53826W        W22200  31.090   3.911  14.897
53827W        W22201  42.444  19.122  13.486
53828W        W22202  31.468  27.162  13.986
53829W        W22203  23.093  16.656   4.179
53830W        W22204  25.610  31.112   2.899
53831W        W22205  37.958  27.972  14.276
53832W        W22206  30.086   5.315   2.375
53833W        W22207  43.843   1.907   3.207
53834W        W22208   1.821  29.995  11.091
53835W        W22209  30.091  40.312  12.490
53836W        W22210  25.670  37.519  12.458
53837W        W22211  10.352  23.075   2.344
53838W        W22212  37.906  34.378   4.302
53839W        W22213   7.908  35.362  10.947
53840W        W22214  17.090  41.345  11.575
53841W        W22215  25.564   2.324   0.276
53842W        W22216  16.282  41.005  12.348
53843W        W22217  23.628   6.719  10.958
53844W        W22218   7.869  19.534   2.370
53845W        W22219  37.518  22.621  14.503
53846W        W22220  33.979  25.098   3.342
53847W        W22221  11.361  27.076  13.914
53848W        W22222  22.007  37.508  14.789
53849W        W22223   5.409  17.245  13.971
53850W        W22224  20.729   1.908   1.773
53851W        W22225  43.867  14.121  12.418
53852W        W22226  33.112  27.615  14.352
53853W        W22227  42.922  32.081  12.444
53854W        W22228  19.124   4.337  11.419
53855W        W22229  33.991  10.874   0.345
53856W        W22230  18.756  12.763   3.798
53857W        W22231   7.310  31.641  13.499
53858W        W22232  19.143   5.750   3.650
53859W        W22233  18.572   5.927   2.809
53860W        W22234  35.374   7.809   3.236
53861W        W22235  21.082  44.429   4.238
53862W        W22236  16.612  10.199   5.735
53863W        W22237  22.616  33.916  13.397
53864W        W22238  17.087   8.805   0.291
53865W        W22239  17.685  37.852   2.762
53866W        W22240   1.782  32.419  14.946
53867W        W22241  31.531  27.050  14.313
53868W        W22242  22.604   6.693   1.763
53869W        W22243  18.151  23.707  13.973
53870W        W22244  31.924  14.644   4.344
53871W        W22245  41.461  37.346  10.498
53872W        W22246  34.585   1.961   3.639
53873W        W22247  18.162  35.046   3.181
53874W        W22248  11.304  41.296  10.928
53875W        W22249  30.931  40.858   3.745
53876W        W22250  11.634   6.780  14.395
53877W        W22251  36.969  23.578  11.876
53878W        W22252  20.705   3.727   0.472
53879W        W22253  31.998  26.657  11.038
53880W        W22254   8.262  18.653  12.935
53881W        W22255  24.629  41.307   0.311
53882W        W22256   5.832  19.259  13.391
53883W        W22257  14.750  24.170  12.466
53884W        W22258  44.865   2.292   0.805
53885W        W22259  20.727  43.360  12.402
53886W        W22260  40.339  38.501  14.960
53887W        W22261  25.027   7.385  14.827
53888W        W22262  22.213  32.080   0.263
53889W        W22263  32.566  10.669  10.430
53890W        W22264  13.841  18.761   3.753
53891W        W22265  21.031  39.346   4.218
53892W        W22266  34.513  37.351  10.582
53893W        W22267   9.391  38.556   4.289
53894W        W22268  38.349  26.186   2.714
53895W        W22269  27.115  30.537  10.435
53896W        W22270   2.799   6.737   2.742
53897W        W22271  34.594  35.034  13.434
53898W        W22272  30.010   3.808  11.016
53899W        W22273  43.325  32.934  12.060
53900W        W22274  19.050   9.174   0.423
53901W        W22275  19.534  23.676   0.777
53902W        W22276  11.361   1.312  10.416
53903W        W22277  37.913  14.705   2.234
53904W        W22278  17.609   6.265   3.770
53905W        W22279  28.655  31.625  13.537
53906W        W22280   1.368  40.381   3.361
53907W        W22281  31.059   1.341   0.790
53908W        W22282  19.581   7.727   4.194
53909W        W22283  22.058   4.886   2.418
53910W        W22284   3.740  14.233   0.846
53911W        W22285   3.723   8.296  13.383
53912W        W22286  31.539  16.724  10.914
53913W        W22287  39.929  34.889   1.274
53914W        W22288  24.158  26.646   3.771
53915W        W22289  31.018  28.117   0.841
53916W        W22290  25.567  20.149   3.706
53917W        W22291  21.185  26.582   2.392
53918W        W22292  40.317  35.403   3.349
53919W        W22293  35.426  37.424  14.976
53920W        W22294  17.074  27.558   4.305
53921W        W22295  35.567  20.136  10.892
53922W        W22296   8.682  10.688   1.329
53923W        W22297  16.639  14.114  13.488
53924W        W22298  30.585  32.618   3.384
53925W        W22299  15.596  20.531   3.844
53926W        W22300  13.110  44.361   2.760
53927W        W22301   9.863  39.318   4.327
53928W        W22302   4.936  20.181  10.924
53929W        W22303  25.205  32.047  12.362
53930W        W22304  21.155  14.277  12.346
53931W        W22305  14.281  34.543   1.742
53932W        W22306  25.559   1.884   4.705
53933W        W22307  39.460  22.240  10.953
53934W        W22308  16.571  22.195   0.395
53935W        W22309   3.433  33.494   0.460
53936W        W22310   2.348  20.081  14.764
53937W        W22311  11.774  39.915  11.575
53938W        W22312  16.716  19.102   3.643
53939W        W22313  39.038   7.764   4.338
53940W        W22314  14.645  13.108  11.451
53941W        W22315  35.045  38.442   1.314
53942W        W22316  34.544   2.418   4.328
53943W        W22317  30.607   0.761  12.446
53944W        W22318  31.432  10.361  11.536
53945W        W22319  12.140  19.208  14.490
53946W        W22320  39.042  38.548   0.297
53947W        W22321   2.362   4.733   3.377
53948W        W22322  37.043   4.214   0.252
53949W        W22323  30.586   1.265  14.818
53950W        W22324  14.203   9.685  14.369
53951W        W22325  31.080  41.853   4.159
53952W        W22326  30.430  35.941   1.737
53953W        W22327   0.762  32.889  12.973
53954W        W22328   0.263  42.297   4.699
53955W        W22329   6.907  34.006   4.729
53956W        W22330  28.967  20.710   1.259
53957W        W22331  14.745  22.703  13.843
53958W        W22332  23.126  29.481  12.890
53959W        W22333   8.811  13.605  13.978
53960W        W22334  12.295  36.347   1.902
53961W        W22335  37.078   8.706  12.902
53962W        W22336  42.907  35.037   3.365
53963W        W22337  30.636  37.019  14.774
53964W        W22338   8.797   4.345  11.426
53965W        W22339  44.888  30.918   2.700
53966W        W22340  34.382  32.464   3.852
53967W        W22341  19.116  11.184  10.983
53968W        W22342  22.196  35.431   3.300
53969W        W22343  14.165   4.393  14.476
53970W        W22344  37.980   2.320   4.698
53971W        W22345  18.773  41.864  14.895
53972W        W22346  39.393  20.065   2.810
53973W        W22347  24.079  10.635   3.766
53974W        W22348  28.940   4.376  14.390
53975W        W22349  15.748  32.964  12.864
53976W        W22350  26.550  25.610  10.455
53977W        W22351  16.108   1.332  11.039
53978W        W22352  35.991  27.974  11.528
53979W        W22353  25.115  39.453   2.210
53980W        W22354  40.013   1.812  10.428
53981W        W22355   3.324   6.730  14.433
53982W        W22356  32.444  25.080  11.035
53983W        W22357  25.973  42.994  14.296
53984W        W22358  26.631  16.133   1.312
53985W        W22359  32.011  33.431   0.928
53986W        W22360  11.268  16.083  10.406
53987W        W22361  38.039  43.911   3.708
53988W        W22362   9.685  17.183   2.817
53989W        W22363  15.592   5.343  11.125
53990W        W22364   8.856  33.952   3.761
53991W        W22365  11.802  34.945  13.894
53992W        W22366  35.881  13.184   3.784
53993W        W22367   1.892   2.434   4.615
53994W        W22368  29.050  16.109  10.895
53995W        W22369  37.513  20.219  13.061
53996W        W22370  22.618   1.259  11.023
53997W        W22371  40.814  16.159   2.309
53998W        W22372  23.633  34.025  11.056
53999W        W22373   3.867  21.563  10.504
54000W        W22374  19.616  40.054   0.823
54001W        W22375   0.429  28.104  14.810
54002W        W22376  14.600   2.794  11.117
54003W        W22377   7.334   3.219   0.873
54004W        W22378  32.141  35.584  13.961
54005W        W22379   8.212  39.018  12.084
54006W        W22380  12.821  16.258  13.447
54007W        W22381  40.850  40.000  12.968
54008W        W22382  43.962   2.834  14.863
54009W        W22383  40.339  40.883   3.297
54010W        W22384  29.104  35.987  12.478
54011W        W22385  23.610  13.761   1.925
54012W        W22386   7.696  34.040   4.702
54013W        W22387  25.634   8.373  14.761
54014W        W22388  40.968  26.993  13.924
54015W        W22389  36.463  20.538   4.181
54016W        W22390   0.376   3.946  13.053
54017W        W22391  25.603  44.819   4.303
54018W        W22392   1.251  26.610   2.289
54019W        W22393   5.799  14.691  12.562
54020W        W22394  19.636  12.798   0.833
54021W        W22395  35.892  18.081  11.121
54022W        W22396  24.097  32.032  12.006
54023W        W22397  30.046  13.771  13.043
54024W        W22398   9.272  32.137  13.827
54025W        W22399  24.159   3.329  14.986
54026W        W22400  25.174  21.018  12.404
54027W        W22401  27.646  14.786  11.420
54028W        W22402  20.581   1.272  10.572
54029W        W22403  43.772   4.877   4.818
54030W        W22404  27.608  30.161   3.693
54031W        W22405  17.747  38.463  14.850
54032W        W22406  18.549  42.970  12.837
54033W        W22407  40.401   8.697  14.904
54034W        W22408  18.182  14.185  12.917
54035W        W22409  11.246  39.495   3.826
54036W        W22410  22.688   3.311   4.219
54037W        W22411  24.099  29.121  14.906
54038W        W22412   2.878  42.004   2.390
54039W        W22413  19.238  21.033  11.046
54040W        W22414  21.096  33.085   0.357
54041W        W22415  10.343  27.491  13.829
54042W        W22416  38.452   4.766   1.232
54043W        W22417  21.524  19.722  13.385
54044W        W22418  32.574   7.368   4.172
54045W        W22419  18.287  10.766   1.873
54046W        W22420  30.621   0.294   4.689
54047W        W22421   4.244  16.665  13.796
54048W        W22422  14.250  38.965  14.425
54049W        W22423  10.377   5.742   2.196
54050W        W22424  38.363   3.946   4.158
54051W        W22425  20.162  41.028  11.894
54052W        W22426  24.569  27.073  13.056
54053W        W22427   8.771   3.940   2.762
54054W        W22428   4.253  11.270   1.821
54055W        W22429  10.336   1.443  13.940
54056W        W22430   4.713  18.775   4.624
54057W        W22431   6.236  42.850  12.445
54058W        W22432  33.918  21.682  14.894
54059W        W22433  18.740  11.642  14.918
54060W        W22434  40.363  40.958  10.979
54061W        W22435  25.557  28.680  12.433
54062W        W22436  34.005  40.990   1.867
54063W        W22437  22.223  33.498   4.745
54064W        W22438  13.643  11.297  11.471
54065W        W22439  16.702   0.898  14.769
54066W        W22440  28.533  30.613   1.290
54067W        W22441  18.255  15.616   2.413
54068W        W22442   1.971  16.588  12.525
54069W        W22443  32.471   1.382   4.832
54070W        W22444   1.945  33.016  10.554
54071W        W22445  25.081  23.687   3.162
54072W        W22446   4.323  42.941   2.822
54073W        W22447  19.070  14.164   5.134
54074W        W22448  30.124   5.347   3.764
54075W        W22449  29.117  12.833  11.857
54076W        W22450  26.962  29.484  11.514
54077W        W22451  13.609  18.781  10.525
54078W        W22452  32.947  44.975  12.916
54079W        W22453   1.257  20.646   2.877
54080W        W22454  35.599   1.739   3.230
54081W        W22455  34.500  18.200  13.463
54082W        W22456  41.928  40.473   0.291
54083W        W22457   4.918  27.081  10.639
54084W        W22458   7.777  43.356  14.291
54085W        W22459  39.025   0.266   1.268
54086W        W22460  16.673   9.381  13.533
54087W        W22461   2.375  23.202   4.328
54088W        W22462  36.373  32.109   3.826
54089W        W22463  12.222  28.564   2.292
54090W        W22464   8.255  39.940   4.684
54091W        W22465  14.605  34.055  10.419
54092W        W22466  41.972  31.065   2.261
54093W        W22467  42.491  13.177   2.278
54094W        W22468  36.474  13.612   3.765
54095W        W22469   6.315  33.486   2.840
54096W        W22470  24.996  42.844   3.316
54097W        W22471  28.619   5.322  14.969
54098W        W22472  24.069  27.140  14.824
54099W        W22473  32.916  15.283  14.922
54100W        W22474  34.451  21.166   3.694
54101W        W22475  24.527   8.842  14.855
54102W        W22476   0.954  33.505   4.644
54103W        W22477   6.343   2.323   1.747
54104W        W22478  44.390  36.017   1.221
54105W        W22479  40.390  26.612  12.445
54106W        W22480  11.701  14.229   3.841
54107W        W22481   4.401  29.630   4.659
54108W        W22482  38.950  22.251   0.411
54109W        W22483  10.247  38.866   4.676
54110W        W22484  35.997  24.647  10.546
54111W        W22485  30.995  22.550   1.388
54112W        W22486  13.823   2.805  11.977
54113W        W22487   3.782  28.993  10.416
54114W        W22488  22.100  38.822  13.888
54115W        W22489  44.968  35.859  10.892
54116W        W22490  35.073  40.871   2.410
54117W        W22491  37.903  44.349  12.406
54118W        W22492  34.539  12.853  13.442
54119W        W22493  24.572  31.013   5.286
54120W        W22494  28.005   2.775   4.245
54121W        W22495  23.123  36.870  12.895
54122W        W22496  30.602  15.132  11.592
54123W        W22497  11.348  41.806  13.454
54124W        W22498  12.178  14.689  12.387
54125W        W22499   6.251   3.239   1.406
54126W        W22500  21.664  32.493   3.702
54127W        W22501   2.946  14.661  10.503
54128W        W22502   6.422  37.906  11.053
54129W        W22503  12.169  35.976   0.275
54130W        W22504   1.374  24.157   2.320
54131W        W22505  23.590  25.589   2.300
54132W        W22506   2.333  25.968  14.993
54133W        W22507  12.322  41.523  11.396
54134W        W22508  25.585  39.810   4.213
54135W        W22509  24.191  10.763   0.943
54136W        W22510  29.638  31.440  10.977
54137W        W22511  43.477  19.059   0.959
54138W        W22512  36.406  39.962  10.117
54139W        W22513  44.968  36.565   4.145
54140W        W22514  39.058  24.528   4.610
54141W        W22515  16.128   5.423   1.314
54142W        W22516   6.696  44.410  14.293
54143W        W22517  43.463  40.400   4.264
54144W        W22518  22.113  11.723  12.931
54145W        W22519   2.778   4.272  12.963
54146W        W22520  35.560  42.370  12.931
54147W        W22521  33.110  23.674   0.752
54148W        W22522  15.129  11.831  11.947
54149W        W22523  16.217  22.089   0.409
54150W        W22524  21.167  21.202  11.083
54151W        W22525   8.166  10.308   9.943
54152W        W22526  28.116  40.472  13.842
54153W        W22527   2.417  38.382  12.515
54154W        W22528  28.963   7.835   0.760
54155W        W22529  37.471  13.337   3.324
54156W        W22530  18.129  43.346   1.699
54157W        W22531  15.742  39.408  10.581
54158W        W22532  41.010   4.904   0.452
54159W        W22533   4.912  30.599  11.889
54160W        W22534  20.125  39.941   0.936
54161W        W22535  41.820  21.072  14.974
54162W        W22536  38.910  31.040   2.890
54163W        W22537  17.224  40.435  14.996
54164W        W22538   3.428  28.611  14.980
54165W        W22539  17.098  12.300  13.949
54166W        W22540  22.245  40.530  12.036
54167W        W22541  42.966  30.994   2.368
54168W        W22542   7.761  11.236  13.859
54169W        W22543  41.413  39.458   3.231
54170W        W22544  18.229  15.102  12.939
54171W        W22545  19.177  20.083   2.706
54172W        W22546  13.130  14.708  10.453
54173W        W22547  11.791  31.441  14.469
54174W        W22548  22.234  37.938   3.677
54175W        W22549  31.531  41.527  12.016
54176W        W22550  38.937  30.635   2.885
54177W        W22551  39.393  15.104   0.751
54178W        W22552  40.396  10.350  14.463
54179W        W22553  15.120  19.689  11.427
54180W        W22554  32.512  10.361  13.873
54181W        W22555  12.295  23.023  11.584
54182W        W22556  33.435  28.164   2.776
54183W        W22557   5.894  20.545  13.467
54184W        W22558  44.485   8.709  14.508
54185W        W22559  22.545  12.673   2.313
54186W        W22560  32.589   5.201   4.665
54187W        W22561  24.179  35.897   3.263
54188W        W22562  41.409  27.636   2.869
54189W        W22563  33.399  27.651   4.794
54190W        W22564   9.161  19.629  14.888
54191W        W22565  43.507  14.705  14.987
54192W        W22566  38.020  10.297  14.514
54193W        W22567  37.512  21.727   4.320
54194W        W22568  15.291  15.748  13.948
54195W        W22569  39.558  41.324   0.483
54196W        W22570  33.425  10.140  10.490
54197W        W22571  29.092   3.853   2.191
54198W        W22572  18.746  35.429   3.234
54199W        W22573  35.990  20.718   4.734
54200W        W22574  34.913  18.148  13.954
54201W        W22575  33.127  33.524  12.056
54202W        W22576  30.447  31.500   1.871
54203W        W22577  10.871  43.883  13.997
54204W        W22578  23.150  29.591  10.918
54205W        W22579  13.133  16.110   3.700
54206W        W22580  27.959  11.296   0.938
54207W        W22581  28.029  27.530  14.854
54208W        W22582  25.613  41.365  10.091
54209W        W22583  43.927  26.489  10.062
54210W        W22584  38.016  12.670  13.012
54211W        W22585  13.119  35.459   1.410
54212W        W22586  11.267   0.463  11.920
54213W        W22587  10.859   5.698   2.397
54214W        W22588  39.961  34.568  11.398
54215W        W22589   3.427   3.301  11.571
54216W        W22590  31.442  38.980  13.323
54217W        W22591  25.076  10.331  11.105
54218W        W22592  44.757  13.107  12.534
54219W        W22593  13.120  29.983   0.842
54220W        W22594   6.287  38.538  12.856
54221W        W22595  20.647  18.763  13.862
54222W        W22596  31.963  42.471  11.915
54223W        W22597  29.164  37.915   4.782
54224W        W22598   4.433  19.170  10.446
54225W        W22599   0.285  13.640  11.103
54226W        W22600   0.774  36.000   5.128
54227W        W22601  20.627   7.762  14.454
54228W        W22602   5.226  38.341   4.346
54229W        W22603  19.096   0.314   3.836
54230W        W22604  32.900  27.068   2.298
54231W        W22605   7.819  41.009   3.221
54232W        W22606  33.028  22.136  10.473
54233W        W22607  11.853  16.576  13.385
54234W        W22608  20.130  33.592  15.000
54235W        W22609  15.824  22.066   2.227
54236W        W22610  23.073  17.582   4.699
54237W        W22611  26.143  37.961  13.877
54238W        W22612  20.561  41.826   1.394
54239W        W22613  33.595   6.323  13.884
54240W        W22614   3.444  15.699  10.588
54241W        W22615  28.087  12.212  12.449
54242W        W22616   0.918   5.418   1.218
54243W        W22617  41.876  36.389   3.649
54244W        W22618  31.000  44.303  12.518
54245W        W22619  26.688  28.618  13.477
54246W        W22620  15.107  37.994  12.447
54247W        W22621  14.133  21.521   4.710
54248W        W22622  40.024  33.621   2.375
54249W        W22623  21.105  38.841  11.933
54250W        W22624  30.909  19.660   2.668
54251W        W22625  25.191  18.655   1.751
54252W        W22626  18.162  23.085   1.851
54253W        W22627  24.180   8.250  14.363
54254W        W22628  12.188  37.510   3.766
54255W        W22629  26.018  18.071   0.929
54256W        W22630  25.634   8.282  11.531
54257W        W22631   4.857   7.203   4.648
54258W        W22632  36.858  27.994  12.529
54259W        W22633  15.705  33.525   5.195
54260W        W22634   0.453  25.053   1.847
54261W        W22635  18.197  33.512   0.244
54262W        W22636  39.548   8.312  10.518
54263W        W22637  35.357  23.021  14.342
54264W        W22638  44.994  25.042  11.457
54265W        W22639  21.642   0.803   4.136
54266W        W22640   7.225  18.051  14.956
54267W        W22641  38.906   7.774   3.298
54268W        W22642  43.428   1.847  14.432
54269W        W22643  40.327  16.302   3.284
54270W        W22644  37.884  27.999   2.856
54271W        W22645   2.906  24.016  10.423
54272W        W22646  23.566  42.003   2.696
54273W        W22647   7.325  37.553   5.305
54274W        W22648   1.942   2.377  12.549
54275W        W22649   5.296  16.275  13.476
54276W        W22650  17.736   9.252   1.831
54277W        W22651  22.677  32.971   1.273
54278W        W22652  30.606  11.629  14.971
54279W        W22653  42.318  24.158   3.693
54280W        W22654  35.445  18.729  13.977
54281W        W22655   7.210   6.855  10.408
54282W        W22656  17.783  38.014   3.812
54283W        W22657  40.999   8.811   0.756
54284W        W22658   6.777  36.453  14.440
54285W        W22659  38.059  40.958   3.329
54286W        W22660   8.708  43.452   3.764
54287W        W22661  39.035  21.048   9.971
54288W        W22662   1.475  37.536  13.429
54289W        W22663  43.382   4.325  12.358
54290W        W22664  36.401  37.495   1.351
54291W        W22665  35.597  12.728  14.919
54292W        W22666   6.908  38.388  11.893
54293W        W22667  39.052   9.340  10.442
54294W        W22668  17.566  27.604  13.050
54295W        W22669  27.176  15.138  13.435
54296W        W22670  27.564  39.030   0.379
54297W        W22671   6.759  10.710  10.488
54298W        W22672  38.820  19.061  14.801
54299W        W22673  35.043   6.682   1.710
54300W        W22674  43.942  32.518   3.810
54301W        W22675  37.367  14.192   3.276
54302W        W22676  10.287  24.579   5.282
54303W        W22677  33.530  43.856  13.818
54304W        W22678   7.260  40.491  11.926
54305W        W22679  36.552  32.008   3.275
54306W        W22680  19.573  30.438  14.762
54307W        W22681  32.471  27.174   2.293
54308W        W22682  21.235  24.652   4.163
54309W        W22683  19.569  14.599  13.511
54310W        W22684  25.485  22.557   4.688
54311W        W22685  24.230  43.972   3.728
54312W        W22686  21.560  38.033   1.218
54313W        W22687  10.687   2.424  14.426
54314W        W22688  35.587  30.064  13.492
54315W        W22689   9.777  24.721  11.870
54316W        W22690  38.525  28.109   1.892
54317W        W22691   5.792  18.611   3.336
54318W        W22692   6.320  26.014   4.208
54319W        W22693  30.056  12.334  14.350
54320W        W22694   3.952  31.130   4.184
54321W        W22695  43.875  24.159   2.303
54322W        W22696  18.079   9.228   4.133
54323W        W22697  13.762   9.303   3.801
54324W        W22698  22.738  16.192  13.845
54325W        W22699  19.086  43.471   4.768
54326W        W22700  41.799  16.695  12.359
54327W        W22701  18.676  11.764   2.768
54328W        W22702   7.334  31.077   4.691
54329W        W22703  20.561  42.350  11.074
54330W        W22704  19.213  36.047  11.895
54331W        W22705  41.802   2.414  12.369
54332W        W22706  31.928  17.699   1.835
54333W        W22707  28.481  10.305  13.335
54334W        W22708  39.464  35.001  14.798
54335W        W22709  43.499  39.034  11.989
54336W        W22710  12.680   2.857   3.793
54337W        W22711   6.879  42.504   4.776
54338W        W22712  11.202  22.593  14.025
54339W        W22713  21.161   0.891  14.929
54340W        W22714  31.090  25.591  14.779
54341W        W22715  11.332   5.432  12.913
54342W        W22716  30.433  39.007  11.013
54343W        W22717  18.690   9.662   2.676
54344W        W22718  18.051  26.551   5.181
54345W        W22719  26.522   5.366  13.939
54346W        W22720  18.137   4.730  10.615
54347W        W22721   9.879   9.841  11.064
54348W        W22722  36.964  13.690   1.758
54349W        W22723  21.723  33.528   0.792
54350W        W22724  11.341  22.198  11.982
54351W        W22725  18.643   2.451  12.452
54352W        W22726  30.422   4.434   4.289
54353W        W22727  43.445  17.683   1.311
54354W        W22728  32.521   4.234   0.483
54355W        W22729   6.270  26.085   1.382
54356W        W22730  28.576   1.410  14.835
54357W        W22731  27.188  38.416   1.900
54358W        W22732   4.940  12.251   0.909
54359W        W22733  15.262  32.965  12.862
54360W        W22734  10.328  23.990  13.827
54361W        W22735  27.614  36.843   0.343
54362W        W22736  31.464  17.794   4.123
54363W        W22737   6.200  39.861   1.878
54364W        W22738  26.502  25.703   3.335
54365W        W22739   0.889  18.745  11.500
54366W        W22740  12.275  29.630   4.319
54367W        W22741  38.947   5.200   0.779
54368W        W22742   2.885   1.477   1.866
54369W        W22743  29.431  10.729  14.311
54370W        W22744  28.555  26.460  10.117
54371W        W22745  31.914  32.494   1.733
54372W        W22746  36.988  10.705  13.924
54373W        W22747  23.636  41.494  14.785
54374W        W22748  16.129   4.427   4.327
54375W        W22749  15.176  29.101   4.311
54376W        W22750   7.702  30.633  13.838
54377W        W22751   3.942   9.675  14.921
54378W        W22752  26.203  11.295   0.432
54379W        W22753   3.724  35.492   0.846
54380W        W22754  23.676  44.756   2.866
54381W        W22755  40.911  22.573   4.703
54382W        W22756  27.576  43.282   5.752
54383W        W22757  25.149  33.018   2.313
54384W        W22758  41.896  15.657  11.556
54385W        W22759  39.361  24.599   0.769
54386W        W22760  14.677   9.879   2.209
54387W        W22761  13.330  42.033   3.847
54388W        W22762  35.449  28.176   3.229
54389W        W22763  34.910   2.439   1.272
54390W        W22764  19.273  33.924   3.236
54391W        W22765  30.472  39.919  10.424
54392W        W22766   6.221   4.232  11.938
54393W        W22767  14.169  40.038  10.574
54394W        W22768  44.937  18.618   4.295
54395W        W22769  30.097   2.312  12.535
54396W        W22770  28.668  13.757   3.270
54397W        W22771   9.252  15.219   3.737
54398W        W22772   9.808  38.548  10.954
54399W        W22773  18.668  39.892  14.355
54400W        W22774  32.903  15.120  11.403
54401W        W22775  34.527  39.458  14.995
54402W        W22776  14.140  10.685   4.252
54403W        W22777  28.035   8.314   2.730
54404W        W22778  39.414  24.659  11.942
54405W        W22779  33.947  33.499  12.358
54406W        W22780   9.848  12.149   2.190
54407W        W22781  23.572  41.433   3.701
54408W        W22782  39.514   0.977  12.981
54409W        W22783  41.939  18.171  11.509
54410W        W22784  43.920  27.484  11.886
54411W        W22785  40.448  17.116  14.471
54412W        W22786  42.356  42.450   2.778
54413W        W22787  41.347   7.294  13.519
54414W        W22788  36.561  11.639  14.865
54415W        W22789  44.803  14.286   3.735
54416W        W22790  17.758  40.409  14.869
54417W        W22791   1.811  31.121  13.792
54418W        W22792  36.866  41.913  11.073
54419W        W22793   5.280  37.414  14.911
54420W        W22794  43.818  26.679   2.854
54421W        W22795  27.656  36.053  12.873
54422W        W22796  40.525  23.989   1.927
54423W        W22797  23.143   3.947  13.011
54424W        W22798  32.950  40.387   1.710
54425W        W22799  25.003  43.820  14.797
54426W        W22800   0.342  23.188   1.820
54427W        W22801   0.804  17.649   3.760
54428W        W22802  43.452  18.146   4.121
54429W        W22803  41.405  28.068  10.610
54430W        W22804   1.968  13.154  12.504
54431W        W22805  34.477  13.816   0.314
54432W        W22806  36.947   7.752   2.364
54433W        W22807  37.498   5.326   0.783
54434W        W22808  38.877   1.413   0.908
54435W        W22809  34.904  17.194  13.992
54436W        W22810  22.130  18.207  13.317
54437W        W22811   4.741   1.918   1.838
54438W        W22812   0.921  29.086   1.853
54439W        W22813  35.106   6.710  11.022
54440W        W22814   0.925  14.744   0.429
54441W        W22815  28.074  31.948   2.232
54442W        W22816   5.369  12.211  11.490
54443W        W22817  19.219   4.441   3.157
54444W        W22818  23.538   7.682  14.781
54445W        W22819  42.416  22.692   1.383
54446W        W22820   7.349  26.539   0.816
54447W        W22821  17.253  34.910  13.846
54448W        W22822  32.594  22.046  13.940
54449W        W22823   1.454  26.046  11.862
54450W        W22824  43.511   6.295  13.445
54451W        W22825  25.111   2.467  14.819
54452W        W22826  21.611  26.526  11.419
54453W        W22827  27.107  29.047   0.397
54454W        W22828  18.566   5.917   3.310
54455W        W22829   1.915  32.095  14.966
54456W        W22830   1.434  41.949   0.278
54457W        W22831  23.515   0.467   3.684
54458W        W22832   4.851  31.405   5.160
54459W        W22833   9.206  43.834   3.709
54460W        W22834   7.395  28.563   0.445
54461W        W22835   0.423  21.088   4.177
54462W        W22836  32.032  39.915  12.898
54463W        W22837  16.091  39.558   3.304
54464W        W22838   1.456  44.426  14.440
54465W        W22839  39.373  34.053  13.505
54466W        W22840  41.415  30.934   0.399
54467W        W22841   9.376  14.764   2.318
54468W        W22842  43.953  41.042   2.221
54469W        W22843  44.889  18.581   1.435
54470W        W22844   4.441   0.364  10.602
54471W        W22845  36.901  31.589  11.939
54472W        W22846  38.044  16.639   0.396
54473W        W22847   6.186  11.163  14.994
54474W        W22848  30.159  36.019  14.387
54475W        W22849  42.938  10.353  14.920
54476W        W22850  30.635  34.432  14.795
54477W        W22851   2.316  23.699  13.428
54478W        W22852  43.292   2.877  10.578
54479W        W22853  21.689  24.097  13.988
54480W        W22854  27.075  42.945   3.161
54481W        W22855  41.929  27.587   4.260
54482W        W22856  24.168  35.886  13.489
54483W        W22857  24.005  20.614   0.773
54484W        W22858  35.981  30.637  13.895
54485W        W22859   2.835   3.735   0.804
54486W        W22860  42.787   6.366  14.825
54487W        W22861   5.931  14.105  12.877
54488W        W22862  20.639   6.848   4.702
54489W        W22863  20.161   3.726   2.819
54490W        W22864  37.442  25.610   1.929
54491W        W22865  26.192  28.151   3.204
54492W        W22866  34.528  25.213  10.553
54493W        W22867   8.689  28.167  13.943
54494W        W22868   7.202   9.845   4.699
54495W        W22869   2.797   4.720  10.961
54496W        W22870  29.979  13.323  13.064
54497W        W22871  43.998  19.170  13.541
54498W        W22872  30.494  35.447  14.003
54499W        W22873  22.658  14.197   4.130
54500W        W22874  12.218   4.409   0.796
54501W        W22875  32.429  26.189  12.864
54502W        W22876  36.061  42.910   0.732
54503W        W22877   2.947  38.859  10.991
54504W        W22878  24.625  24.105  14.859
54505W        W22879  43.002  30.956  13.369
54506W        W22880   0.975  21.155   4.201
54507W        W22881  18.787  40.966  10.597
54508W        W22882  25.047  10.687  10.996
54509W        W22883  24.568  36.919   3.663
54510W        W22884  22.110  19.206   3.781
54511W        W22885  21.091  36.442  10.445
54512W        W22886  22.526  12.182   0.462
54513W        W22887  39.423  39.548  13.808
54514W        W22888  30.924  16.300  13.378
54515W        W22889  31.595   9.380   4.830
54516W        W22890   4.278  16.222  13.341
54517W        W22891  29.043  27.007  13.849
54518W        W22892  29.641   3.230   4.296
54519W        W22893   8.866  17.166  12.360
54520W        W22894  14.118  20.738  12.059
54521W        W22895   2.862  43.922   0.252
54522W        W22896  28.522   1.386   1.708
54523W        W22897  11.670  43.858  10.968
54524W        W22898  14.146  38.995  11.038
54525W        W22899  13.268  29.663   3.385
54526W        W22900  15.652  16.583  13.914
54527W        W22901  33.061  26.511  12.575
54528W        W22902  33.423  30.635  12.856
54529W        W22903   2.325  30.062  10.926
54530W        W22904  23.541  25.611  13.039
54531W        W22905   3.431   2.332  14.878
54532W        W22906   0.829  22.628   0.275
54533W        W22907  28.011  39.837  14.428
54534W        W22908  40.491  15.208   4.255
54535W        W22909  11.247  10.847   1.428
54536W        W22910  11.338  29.601  12.847
54537W        W22911  26.502  29.082   4.241
54538W        W22912  10.320  14.241  10.546
54539W        W22913  43.767  24.549  14.798
54540W        W22914  28.536  33.980   3.770
54541W        W22915   2.239   9.866  13.467
54542W        W22916  42.386   9.258   1.427
54543W        W22917  11.328  40.534   2.190
54544W        W22918   1.258  23.241   2.391
54545W        W22919  41.892  18.188   0.768
54546W        W22920  39.918   0.346  10.537
54547W        W22921  37.881  18.634   0.309
54548W        W22922  25.714  40.989   1.419
54549W        W22923   1.938   4.860  10.587
54550W        W22924  21.740  14.762   1.860
54551W        W22925  11.805  17.613  14.848
54552W        W22926  13.162  30.027   3.209
54553W        W22927  24.716  37.037  12.347
54554W        W22928   7.750  16.676   1.307
54555W        W22929  30.613  34.993   4.201
54556W        W22930   7.858  32.076  13.510
54557W        W22931   8.893  17.203  13.926
54558W        W22932  31.631  24.035  12.060
54559W        W22933  31.982  10.284  13.054
54560W        W22934  10.177  44.468  12.397
54561W        W22935   7.755  10.821   2.277
54562W        W22936  36.011  42.886  14.955
54563W        W22937   0.300   5.317   1.226
54564W        W22938  15.656  25.541  13.843
54565W        W22939  38.468  29.477  13.997
54566W        W22940  29.458  25.134   1.217
54567W        W22941  44.777  37.023  13.509
54568W        W22942  14.822  44.900  14.286
54569W        W22943   9.769  29.018   4.348
54570W        W22944  31.486  23.508   2.839
54571W        W22945  38.996  15.667  13.959
54572W        W22946  38.508   5.240   0.453
54573W        W22947   9.756  26.639  11.429
54574W        W22948   8.171  34.406   3.763
54575W        W22949  28.088  21.659  14.456
54576W        W22950   3.437  31.499   4.833
54577W        W22951   7.400   4.718  13.469
54578W        W22952   9.371  36.468   1.853
54579W        W22953   6.831  29.061  13.818
54580W        W22954  32.631  23.652  12.868
54581W        W22955   5.809  27.540  14.479
54582W        W22956  11.773  22.662   0.760
54583W        W22957   6.353  38.395   1.727
54584W        W22958  32.967  41.819   3.346
54585W        W22959   9.860   1.412  13.923
54586W        W22960   0.832  14.186  12.391
54587W        W22961  38.012  17.604   1.226
54588W        W22962  20.246  29.552   5.287
54589W        W22963  29.426  30.563   0.254
54590W        W22964  12.213   5.760  13.447
54591W        W22965  40.473  17.124  11.860
54592W        W22966   4.760  16.654  11.988
54593W        W22967  31.629  18.630  10.644
54594W        W22968  16.296  41.944  11.881
54595W        W22969   4.406  33.466  11.445
54596W        W22970  20.153  17.667  12.061
54597W        W22971   9.793  21.593  11.879
54598W        W22972   6.257  29.020   5.775
54599W        W22973  14.740   1.885   0.478
54600W        W22974  27.139  20.554   2.746
54601W        W22975  43.475  29.035   4.209
54602W        W22976   1.798   3.277  11.453
54603W        W22977  30.628  17.236  11.582
54604W        W22978   1.966  20.209   2.245
54605W        W22979   3.269  35.510  14.409
54606W        W22980   0.410   7.227  14.819
54607W        W22981   6.278   8.766  13.886
54608W        W22982  28.130   2.920   2.700
54609W        W22983  30.615  31.933   1.273
54610W        W22984  20.746  21.705  14.937
54611W        W22985  44.492  26.961   2.242
54612W        W22986  23.699  39.532   3.365
54613W        W22987   0.897  40.050  13.842
54614W        W22988  10.254  16.803   1.248
54615W        W22989  22.722  38.524   0.370
54616W        W22990   6.835  21.533   4.826
54617W        W22991  13.267  43.838   0.957
54618W        W22992  16.659  34.387   1.302
54619W        W22993  41.880  44.942   3.315
54620W        W22994  44.858  12.655  12.435
54621W        W22995  42.920  42.832   1.908
54622W        W22996  11.302   4.822   2.204
54623W        W22997  38.031   2.820  10.433
54624W        W22998   9.364  41.923   1.833
54625W        W22999  36.961  31.930  12.504
54626W        W23000  15.134  23.626   3.240
54627W        W23001  32.608  18.122   2.831
54628W        W23002   3.306  38.399  13.833
54629W        W23003  26.126  41.822   4.347
54630W        W23004  24.654  23.126  14.023
54631W        W23005   0.777   7.810   4.303
54632W        W23006  40.978  29.511  12.046
54633W        W23007  10.702  44.390  12.975
54634W        W23008  16.775  24.066   1.216
54635W        W23009  14.760   6.184  12.994
54636W        W23010  24.544  35.383  12.886
54637W        W23011  24.657  18.579  11.121
54638W        W23012  35.506  21.085   2.244
54639W        W23013   2.734  40.436  13.033
54640W        W23014  31.440  27.686  14.402
54641W        W23015  23.580  44.783   4.682
54642W        W23016   5.929  29.176   2.321
54643W        W23017  32.529   1.394  10.411
54644W        W23018  12.273  23.604  13.459
54645W        W23019  30.918  15.326   4.215
54646W        W23020   7.318  33.523  11.017
54647W        W23021  41.296  15.623  14.512
54648W        W23022  42.857  33.076  10.585
54649W        W23023  35.412  33.493  14.784
54650W        W23024  32.136  24.000  14.402
54651W        W23025  36.378  16.316   0.774
54652W        W23026  27.657  12.188   0.244
54653W        W23027  30.422  30.619   3.748
54654W        W23028  36.409  16.644  11.536
54655W        W23029  21.523  18.288  12.091
54656W        W23030  37.548  18.790  13.436
54657W        W23031  19.279   7.381   1.244
54658W        W23032   4.391   1.392  12.965
54659W        W23033  19.539  33.516  11.456
54660W        W23034  35.987  30.627  10.439
54661W        W23035  35.030   8.750   0.897
54662W        W23036  41.519   0.941   2.713
54663W        W23037  13.769  41.846   0.477
54664W        W23038  16.253  41.945   3.716
54665W        W23039  40.887  28.946  12.503
54666W        W23040   2.349  26.623   1.291
54667W        W23041  31.498   5.245   4.636
54668W        W23042  42.297  21.549  14.967
54669W        W23043  21.747  15.703  13.993
54670W        W23044  44.958   9.217  12.915
54671W        W23045  12.624  20.575  12.068
54672W        W23046   7.704   8.896  12.840
54673W        W23047  31.648  23.218  13.825
54674W        W23048   8.331  16.279  14.336
54675W        W23049  35.060   3.237  11.584
54676W        W23050  26.989  39.445   0.335
54677W        W23051  23.678   8.676   2.316
54678W        W23052  41.295   4.375  13.974
54679W        W23053  10.733   7.838  11.424
54680W        W23054  16.214  23.707  12.093
54681W        W23055  44.759  42.910  12.577
54682W        W23056  28.486  43.934  12.002
54683W        W23057   1.356   3.309  14.447
54684W        W23058  34.013  36.370   4.230
54685W        W23059  37.570  25.528  11.473
54686W        W23060  25.097  44.414   2.314
54687W        W23061  11.713   2.284   3.206
54688W        W23062  11.154   4.910  11.939
54689W        W23063  38.865  38.050  12.455
54690W        W23064  23.633   7.728   3.335
54691W        W23065   8.670   3.956   3.246
54692W        W23066   7.210  35.950   2.286
54693W        W23067  30.531  17.073  10.543
54694W        W23068  15.822   3.819   4.798
54695W        W23069  40.011  27.160   1.924
54696W        W23070  30.111  38.567  13.974
54697W        W23071  41.377  17.681   0.738
54698W        W23072  41.521  41.472   0.803
54699W        W23073  42.006  38.495  11.574
54700W        W23074  39.346  38.893   4.325
54701W        W23075  42.818  38.476  10.950
54702W        W23076   1.767   7.726  11.592
54703W        W23077  35.385  26.093  11.531
54704W        W23078  12.219  16.650  13.325
54705W        W23079  43.436  11.274   4.607
54706W        W23080  36.417  27.502  13.449
54707W        W23081   1.910  37.940   2.868
54708W        W23082  26.576  21.674   2.823
54709W        W23083  35.038  38.932  13.834
54710W        W23084  44.756  27.992  11.049
54711W        W23085  30.051  20.593  10.593
54712W        W23086  21.601  24.533  10.954
54713W        W23087  44.418  13.165   0.367
54714W        W23088   8.770   6.727  12.024
54715W        W23089   4.805  15.113  10.537
54716W        W23090  13.608  19.129  13.455
54717W        W23091   9.389  14.142   2.858
54718W        W23092  20.066  39.482   0.942
54719W        W23093  18.289   8.387  13.345
54720W        W23094  24.671  29.169   0.270
54721W        W23095  39.890   2.463  11.917
54722W        W23096  14.610   3.909  14.835
54723W        W23097   8.380  29.958  14.496
54724W        W23098  15.683   7.393  14.907
54725W        W23099  25.713  31.611  14.289
54726W        W23100  35.057  42.300   3.235
54727W        W23101   7.897  43.367  12.016
54728W        W23102  26.666  34.387  10.516
54729W        W23103  18.659  34.436   0.783
54730W        W23104  13.759  44.877  11.387
54731W        W23105  43.818  11.291   1.790
54732W        W23106  21.743   7.217   0.845
54733W        W23107   5.824  17.299  11.114
54734W        W23108  40.019  15.116   4.797
54735W        W23109  28.170  35.875  10.108
54736W        W23110  37.917  21.735  11.549
54737W        W23111   8.242  18.227   1.430
54738W        W23112  18.162   1.447  10.614
54739W        W23113  17.062  20.743   3.700
54740W        W23114  23.492  15.203   1.418
54741W        W23115  23.709  14.814  13.818
54742W        W23116  33.948  27.115  10.897
54743W        W23117  19.752  39.453  11.442
54744W        W23118  24.159  13.812   3.202
54745W        W23119  40.002  42.950  14.286
54746W        W23120  17.101  34.002  12.531
54747W        W23121  12.853   8.317   2.279
54748W        W23122  37.889  27.046  14.889
54749W        W23123  39.020  10.337   1.696
54750W        W23124   9.817  13.326  13.456
54751W        W23125  25.155  35.037   1.871
54752W        W23126  33.128  37.426  10.411
54753W        W23127  22.702  17.274   4.609
54754W        W23128   5.721  39.443  11.544
54755W        W23129  25.629  42.392   0.358
54756W        W23130  43.341  44.908   0.800
54757W        W23131  36.044   2.439  13.839
54758W        W23132  23.686  39.994   0.328
54759W        W23133   4.888   9.321   2.682
54760W        W23134  37.856  32.433   1.254
54761W        W23135  38.504  25.151  14.431
54762W        W23136  28.108  42.359   4.806
54763W        W23137   7.186  25.148   0.913
54764W        W23138  18.079   8.190   3.856
54765W        W23139  26.062  22.569   4.769
54766W        W23140  19.601  26.666  10.137
54767W        W23141  26.620  43.822  11.456
54768W        W23142  39.379  26.590  13.435
54769W        W23143   3.237  36.022   2.233
54770W        W23144  18.549   4.935   4.288
54771W        W23145   9.217  20.753   9.979
54772W        W23146  38.385  19.557  11.543
54773W        W23147  29.966  28.075  12.921
54774W        W23148   3.383  37.507  10.640
54775W        W23149   3.885   9.321  12.561
54776W        W23150  23.670   3.421  14.919
54777W        W23151  13.726  20.606   2.357
54778W        W23152  11.356  15.611  12.541
54779W        W23153  22.031   2.267   4.785
54780W        W23154  25.564  20.217  13.440
54781W        W23155  11.857  22.568   5.317
54782W        W23156  38.532  29.476  12.401
54783W        W23157  18.760  25.662   3.669
54784W        W23158  14.326   7.351   5.243
54785W        W23159  29.506  43.845   9.481
54786W        W23160  24.196  38.511   0.368
54787W        W23161  44.467   2.469   0.440
54788W        W23162   8.708  19.684  10.507
54789W        W23163  26.970  38.950  13.430
54790W        W23164  37.864  17.305   3.819
54791W        W23165  28.581  31.130   4.217
54792W        W23166  35.359   1.433   1.394
54793W        W23167  15.173   5.391   4.627
54794W        W23168  39.842  39.899   1.915
54795W        W23169  27.093  27.172  11.046
54796W        W23170  39.002  20.241   2.710
54797W        W23171  32.963   1.393  10.932
54798W        W23172  40.931  17.783   3.641
54799W        W23173   0.807  34.937   2.781
54800W        W23174  27.619  10.761  11.396
54801W        W23175  43.013  24.146   3.807
54802W        W23176   6.885  35.366   3.214
54803W        W23177  21.038  38.503   3.799
54804W        W23178   7.675  34.943   1.255
54805W        W23179   1.298  26.663  12.951
54806W        W23180  41.965  26.543   1.254
54807W        W23181  20.074  17.064   2.379
54808W        W23182  38.017  23.137  12.937
54809W        W23183  23.648  32.491  11.089
54810W        W23184   6.812  12.688  14.399
54811W        W23185  31.445   1.246  11.446
54812W        W23186  27.457   0.470   1.923
54813W        W23187  43.995  19.106   3.811
54814W        W23188  28.499  35.429  13.370
54815W        W23189  18.155  13.601  10.418
54816W        W23190  25.195  26.574   2.189
54817W        W23191   8.851  12.828  12.019
54818W        W23192   1.836  32.962  12.497
54819W        W23193  12.786  25.484   4.783
54820W        W23194  13.604  15.224  13.396
54821W        W23195   9.866  24.710   2.806
54822W        W23196  23.042  11.746   0.779
54823W        W23197  20.724   1.282  13.330
54824W        W23198   7.729  39.500  14.924
54825W        W23199  33.903   5.901  10.565
54826W        W23200  29.649  41.489  13.022
54827W        W23201   4.429  20.090   4.263
54828W        W23202  14.313   9.666  12.905
54829W        W23203   0.330  36.458   0.339
54830W        W23204  44.424  25.019  11.463
54831W        W23205  40.405  26.555   1.226
54832W        W23206  23.071   1.935  13.861
54833W        W23207  16.129  37.988   2.766
54834W        W23208  23.075  39.559   1.895
54835W        W23209  44.774  28.003   4.227
54836W        W23210  23.989  22.249  13.506
54837W        W23211  27.959  43.771  12.833
54838W        W23212  40.830  38.410   2.278
54839W        W23213   9.784  42.486   0.943
54840W        W23214  18.651  42.978   2.869
54841W        W23215   8.295  20.030   0.370
54842W        W23216  33.997   4.278  12.991
54843W        W23217  40.387  39.055  11.984
54844W        W23218  26.672  38.902   5.212
54845W        W23219  39.531  19.190  13.344
54846W        W23220  44.896   5.862   1.406
54847W        W23221  42.337  27.020   2.784
54848W        W23222  34.019  30.512  14.394
54849W        W23223  15.674  39.875   3.367
54850W        W23224   0.777  44.011  14.948
54851W        W23225  20.209  20.251  10.499
54852W        W23226  17.078  37.539  14.771
54853W        W23227  37.912   1.869  14.971
54854W        W23228  19.257  28.144  12.405
54855W        W23229  10.815  33.894  13.992
54856W        W23230  17.716  25.996   4.309
54857W        W23231  16.280  14.265   2.850
54858W        W23232   3.419   6.309   1.914
54859W        W23233  41.479   4.888   1.326
54860W        W23234  37.405  30.069   3.238
54861W        W23235  13.298  18.618   4.181
54862W        W23236  19.188  37.943   0.808
54863W        W23237   1.810  42.960  13.919
54864W        W23238  18.214  22.187   4.834
54865W        W23239  29.659  44.363   4.762
54866W        W23240  39.343  34.600   2.231
54867W        W23241  31.962  11.670   3.805
54868W        W23242  17.167   5.920  13.981
54869W        W23243   7.196   0.817  14.455
54870W        W23244  11.746  26.207   2.710
54871W        W23245   7.402  20.525   0.838
54872W        W23246   1.927  31.143   1.932
54873W        W23247  24.163   4.805  12.568
54874W        W23248   9.219  39.938   2.805
54875W        W23249  10.697  29.950   3.694
54876W        W23250  42.307  38.566   4.795
54877W        W23251  42.812  25.111  13.988
54878W        W23252  19.175  31.454   0.943
54879W        W23253  39.344  20.707   0.405
54880W        W23254   3.758  38.438   3.804
54881W        W23255  30.062  16.745   2.188
54882W        W23256  30.921   4.246  12.986
54883W        W23257  25.001  35.980  14.433
54884W        W23258  25.647  19.685  12.857
54885W        W23259  18.170  44.411  11.023
54886W        W23260  20.672  42.899  10.935
54887W        W23261  16.128  27.613   4.667
54888W        W23262  22.706  11.370  13.792
54889W        W23263  44.343  30.578   2.392
54890W        W23264  38.848   6.751   3.312
54891W        W23265  17.570  37.506   0.377
54892W        W23266  13.845  17.727   3.745
54893W        W23267  28.039  10.241  13.548
54894W        W23268  16.677  34.563   4.208
54895W        W23269  23.194  35.932  13.347
54896W        W23270  10.369  37.975  12.504
54897W        W23271  26.664  28.181  10.451
54898W        W23272  37.477  16.204   1.250
54899W        W23273  42.487  41.440   2.878
54900W        W23274  11.279   4.240  12.932
54901W        W23275  41.410  41.436  11.581
54902W        W23276  18.089  12.688  12.356
54903W        W23277  15.716  42.789  13.497
54904W        W23278   2.853  41.348   4.661
54905W        W23279   9.201  28.674  12.945
54906W        W23280  33.449   1.431   1.449
54907W        W23281   6.203   1.872  13.793
54908W        W23282  13.248  30.053   0.362
54909W        W23283  42.844  10.707   1.355
54910W        W23284  37.558  26.121  13.973
54911W        W23285  27.943   4.820  11.885
54912W        W23286  24.721  31.016   9.519
54913W        W23287  32.422  18.549   3.199
54914W        W23288  21.672  26.477  14.367
54915W        W23289  19.748  18.668  12.969
54916W        W23290  29.596  13.813   1.339
54917W        W23291  13.186  33.541   0.737
54918W        W23292  15.801  44.009  10.564
54919W        W23293   1.425  22.099  12.952
54920W        W23294  19.158  16.275  12.970
54921W        W23295  22.605  19.769   4.209
54922W        W23296  40.922  39.516  12.823
54923W        W23297  43.861  16.092  12.456
54924W        W23298  33.014   2.731   4.683
54925W        W23299  11.639  32.930  13.813
54926W        W23300  33.588   4.442   4.682
54927W        W23301   4.296  44.296  11.000
54928W        W23302   6.248   5.293  11.048
54929W        W23303  12.836  28.670  12.022
54930W        W23304  36.585   7.221  12.003
54931W        W23305  24.651  13.728  12.020
54932W        W23306  19.777  21.072  12.553
54933W        W23307  41.986  24.564   2.828
54934W        W23308  11.814   0.824  13.975
54935W        W23309   0.343  25.682  14.838
54936W        W23310  32.069  30.023  13.466
54937W        W23311  22.123  25.067   1.759
54938W        W23312  17.254  18.784  11.610
54939W        W23313  28.963   3.915   1.368
54940W        W23314  23.007  23.065   0.315
54941W        W23315   7.689  11.787  14.354
54942W        W23316  41.445   1.288   1.835
54943W        W23317  11.659   2.312   0.932
54944W        W23318  40.798  35.415  11.435
54945W        W23319  17.630  43.462  11.050
54946W        W23320  37.897  28.589   2.363
54947W        W23321  36.062   4.847  14.997
54948W        W23322   3.709  12.649   4.608
54949W        W23323  27.052  14.101  10.493
54950W        W23324  35.087  40.369  13.422
54951W        W23325  35.062  23.615   1.825
54952W        W23326   6.845   3.336  14.023
54953W        W23327  31.060  30.548   1.254
54954W        W23328  30.951   6.310   3.790
54955W        W23329   5.428  14.590   2.346
54956W        W23330  42.975  27.477  13.850
54957W        W23331  27.044  28.047   0.344
54958W        W23332  22.713   3.840   3.792
54959W        W23333  44.310  41.364   2.901
54960W        W23334  25.082   1.415   3.287
54961W        W23335   9.814  32.414   0.473
54962W        W23336  32.103  15.307  12.416
54963W        W23337  21.718  20.635   2.330
54964W        W23338   0.913  29.097  12.961
54965W        W23339   6.352   3.312   5.251
54966W        W23340  19.619  23.220   3.837
54967W        W23341   9.782   6.193   0.899
54968W        W23342  38.016   2.397  13.912
54969W        W23343  30.552  12.189   1.415
54970W        W23344   3.430   9.744   1.924
54971W        W23345   0.284  10.333  12.072
54972W        W23346  11.264  30.079  10.607
54973W        W23347   6.914  11.179   2.305
54974W        W23348  41.949  14.696   0.767
54975W        W23349   4.779  11.864  12.904
54976W        W23350  19.570   8.348   2.764
54977W        W23351   7.181  10.329   4.227
54978W        W23352  10.734  41.434   2.394
54979W        W23353  14.216  42.021  13.844
54980W        W23354  12.361  36.397  12.048
54981W        W23355  41.527  33.022  12.079
54982W        W23356  24.644   1.415   2.722
54983W        W23357  14.132  17.572  11.387
54984W        W23358  18.731  17.620  12.490
54985W        W23359  37.383  29.576  12.032
54986W        W23360   2.917  36.880  13.523
54987W        W23361  16.644   2.410  13.381
54988W        W23362  42.923  11.170  13.526
54989W        W23363  25.203  40.534  13.959
54990W        W23364   9.840  38.879  10.949
54991W        W23365   3.715  13.179   4.122
54992W        W23366  10.709  41.860   4.261
54993W        W23367  10.828  33.125   1.875
54994W        W23368  30.473  39.441  13.045
54995W        W23369  24.080  43.949  12.500
54996W        W23370   7.842  16.102   2.716
54997W        W23371  12.255  28.010   1.381
54998W        W23372  26.997   0.753   4.823
54999W        W23373  15.106   4.803   2.213
55000W        W23374  20.659  19.568   1.836
55001W        W23375   3.376  33.472  12.545
55002W        W23376  38.842   1.886   3.674
55003W        W23377   9.328  12.810   5.184
55004W        W23378   9.236   2.950   3.269
55005W        W23379  23.496   4.232   1.712
55006W        W23380  39.472   9.756  14.306
55007W        W23381   6.195  19.111  11.596
55008W        W23382  20.673  23.221   2.281
55009W        W23383  44.754  15.140   2.388
55010W        W23384  19.551  21.738   1.731
55011W        W23385  18.112  33.491   2.843
55012W        W23386  18.132  39.521  12.364
55013W        W23387  15.776  27.666   3.788
55014W        W23388   5.402  35.497   4.124
55015W        W23389  17.278  22.040   2.411
55016W        W23390  13.242  33.570   3.164
55017W        W23391  19.248  34.371   2.718
55018W        W23392  10.670  28.527   0.748
55019W        W23393  15.272   0.355   1.890
55020W        W23394   1.866   2.369   1.439
55021W        W23395  20.141  30.584   1.231
55022W        W23396  13.119  38.551  12.066
55023W        W23397  36.543  32.915   3.670
55024W        W23398   1.769  15.249   1.701
55025W        W23399   3.352   4.250   3.324
55026W        W23400   7.355  12.359  12.968
55027W        W23401  19.241  24.505  13.953
55028W        W23402  27.472  23.498   1.310
55029W        W23403   4.924   4.733   1.797
55030W        W23404  38.927   5.412  12.992
55031W        W23405  40.303  26.611  11.574
55032W        W23406  42.785  39.428  12.377
55033W        W23407  42.345  32.633   0.873
55034W        W23408   4.226  38.361  14.354
55035W        W23409  15.680   6.897   1.743
55036W        W23410  10.709  21.105  14.403
55037W        W23411  22.574  26.192   2.231
55038W        W23412  12.299  24.048  12.412
55039W        W23413   6.842   4.228  12.347
55040W        W23414  28.131   9.328   0.771
55041W        W23415  35.364   0.900  11.954
55042W        W23416  20.611   1.461   2.682
55043W        W23417  40.893  20.647  10.429
55044W        W23418  37.525  26.061   1.797
55045W        W23419  22.693  28.941  14.492
55046W        W23420  15.749  20.627   5.246
55047W        W23421  27.555  41.319  12.832
55048W        W23422  14.240  32.453  12.444
55049W        W23423  32.971  26.151   2.205
55050W        W23424   8.160  39.463  13.451
55051W        W23425  17.758  41.837   3.193
55052W        W23426  30.117  17.283  10.976
55053W        W23427  10.679   5.217   1.697
55054W        W23428  35.981  26.490   0.431
55055W        W23429   0.959  30.595  10.979
55056W        W23430  17.303  42.459  12.340
55057W        W23431   4.784   9.219  10.913
55058W        W23432  13.275  12.176  14.809
55059W        W23433  11.852  38.340   1.232
55060W        W23434   8.753  38.053   2.800
55061W        W23435  21.019  13.112   0.347
55062W        W23436  34.878  10.248  11.396
55063W        W23437  25.126  18.104   1.825
55064W        W23438  25.488   3.371  13.881
55065W        W23439  16.223  28.025  14.407
55066W        W23440  41.522  18.201   3.315
55067W        W23441   4.862  43.372  12.094
55068W        W23442  28.651  26.014   3.707
55069W        W23443   2.807   8.300   2.900
55070W        W23444  17.561  16.644   1.774
55071W        W23445   5.326  28.113   4.687
55072W        W23446  17.594  26.658   3.636
55073W        W23447  38.457   1.741  11.089
55074W        W23448   2.859  29.554   3.746
55075W        W23449   8.218  35.935   2.214
55076W        W23450  37.406   5.322  13.805
55077W        W23451  42.987   8.226  14.031
55078W        W23452  22.050  33.902  12.535
55079W        W23453  17.757  31.089  14.407
55080W        W23454   5.276  20.176  13.354
55081W        W23455  44.001   5.766   4.183
55082W        W23456  24.153  17.704   9.987
55083W        W23457   3.255  36.040  11.601
55084W        W23458  23.204  23.624  13.309
55085W        W23459  34.459  33.435  11.013
55086W        W23460  41.913  21.027  10.578
55087W        W23461  16.722  15.703   0.379
55088W        W23462  24.497  13.168  13.047
55089W        W23463  17.663  24.216   4.310
55090W        W23464  36.025   5.869  13.794
55091W        W23465  17.286  34.877   2.337
55092W        W23466  28.534  25.694  14.975
55093W        W23467  32.571  10.277  11.564
55094W        W23468  20.052  43.928   3.712
55095W        W23469   0.479  39.877  13.929
55096W        W23470  24.539   2.265  13.833
55097W        W23471  25.094  40.035  10.547
55098W        W23472  11.714  37.911  12.510
55099W        W23473   8.738  16.073  12.461
55100W        W23474  37.488   9.243   3.249
55101W        W23475  22.132  34.874  11.594
55102W        W23476  27.071  24.560  14.402
55103W        W23477  36.463  13.216   4.792
55104W        W23478   9.827   4.716   3.372
55105W        W23479   3.451   2.459   1.213
55106W        W23480  10.175   4.239  10.532
55107W        W23481  11.788  13.831  13.001
55108W        W23482  28.080  18.595   4.251
55109W        W23483   9.387  41.852   0.347
55110W        W23484  36.080   7.755  14.283
55111W        W23485  35.929  43.328  14.834
55112W        W23486  12.681  10.668  11.126
55113W        W23487  22.121  14.188   2.249
55114W        W23488   1.463   7.807  12.493
55115W        W23489  22.631  39.366   3.645
55116W        W23490  31.094   9.270   0.377
55117W        W23491  31.955  29.496  10.915
55118W        W23492  30.925  25.556  13.964
55119W        W23493   7.171  32.620  13.506
55120W        W23494  41.915  15.794  12.850
55121W        W23495  40.941   5.929  10.581
55122W        W23496  26.007  40.536   0.783
55123W        W23497   8.283  30.626   2.847
55124W        W23498  21.217  43.442   4.250
55125W        W23499  11.237   1.324   1.752
55126W        W23500  20.701  14.746   3.662
55127W        W23501  34.112  39.321  12.407
55128W        W23502   4.266  34.523  10.503
55129W        W23503  32.611  29.123  11.906
55130W        W23504  44.421  41.976  12.468
55131W        W23505  30.435  21.209   3.248
55132W        W23506  20.192  42.951  12.409
55133W        W23507  41.791  41.987  11.018
55134W        W23508  18.577  33.886   4.291
55135W        W23509  32.587  12.294  12.943
55136W        W23510  12.660  10.752  11.928
55137W        W23511  28.973   5.307  10.616
55138W        W23512  17.762  26.544  14.484
55139W        W23513   3.411  37.992  14.509
55140W        W23514  25.678  37.446   1.923
55141W        W23515   7.688  37.880  14.481
55142W        W23516  44.974  34.466  12.448
55143W        W23517  29.126  41.927  14.931
55144W        W23518   8.172  17.676   2.403
55145W        W23519   0.398   9.733   0.382
55146W        W23520   8.383  40.963  14.818
55147W        W23521   5.264  21.245   2.798
55148W        W23522   3.778  43.955   3.818
55149W        W23523  30.087   8.262  11.127
55150W        W23524  19.693   2.919  12.876
55151W        W23525  27.587  21.697   4.648
55152W        W23526  19.259  43.926  14.773
55153W        W23527  14.168  15.178  12.079
55154W        W23528  37.059   4.417   1.428
55155W        W23529  36.959   6.353   3.866
55156W        W23530  14.747  12.657   0.286
55157W        W23531  42.353  44.391   3.207
55158W        W23532  20.630  25.613  14.430
55159W        W23533  27.619  34.426  10.635
55160W        W23534   4.774  25.067  14.470
55161W        W23535  39.825  38.067  10.890
55162W        W23536  29.424  35.916  13.935
55163W        W23537  26.162  24.622   4.722
55164W        W23538  34.102  18.764  14.487
55165W        W23539   1.260  26.175   2.237
55166W        W23540  20.065  23.001  13.322
55167W        W23541  42.854  18.278  11.096
55168W        W23542  43.812  37.869   2.348
55169W        W23543  16.250  24.631  10.428
55170W        W23544  22.103  22.132  11.494
55171W        W23545  18.580  19.146  10.531
55172W        W23546  32.474  26.499  10.045
55173W        W23547  42.786  27.075  11.448
55174W        W23548  35.561   6.697  14.354
55175W        W23549  14.289   0.845  11.433
55176W        W23550  11.833  32.953   1.837
55177W        W23551  15.769   6.890   3.726
55178W        W23552   1.355  38.026   4.788
55179W        W23553  24.005  44.356   2.392
55180W        W23554  38.050   8.224   4.755
55181W        W23555  23.653  27.170   0.866
55182W        W23556  35.074  28.124   1.896
55183W        W23557  24.516  16.759  10.943
55184W        W23558   9.880  20.553  11.936
55185W        W23559  10.205   1.895   3.673
55186W        W23560  10.871  14.280  14.819
55187W        W23561   0.295  32.604  12.011
55188W        W23562  10.828  32.551  11.476
55189W        W23563  22.184  15.115   4.159
55190W        W23564   0.467  18.645   4.114
55191W        W23565  40.500  18.785   2.240
55192W        W23566  44.326  15.596   5.224
55193W        W23567  24.574   8.224   4.352
55194W        W23568  20.569  14.755  13.833
55195W        W23569  38.519  34.993   1.298
55196W        W23570  39.888  12.353   4.611
55197W        W23571   3.883  37.983   4.338
55198W        W23572  34.007   3.823   3.306
55199W        W23573  37.529  44.778   1.283
55200W        W23574  36.993  13.671   4.821
55201W        W23575  38.896  36.959  11.989
55202W        W23576  30.640  30.112  12.356
55203W        W23577  13.651   4.402   4.672
55204W        W23578  30.951   0.829  11.121
55205W        W23579  28.589  13.621   4.649
55206W        W23580   8.186  14.832   4.762
55207W        W23581  38.869  35.415   1.744
55208W        W23582  24.217   8.774   2.240
55209W        W23583   8.178  41.304  14.416
55210W        W23584  15.816  23.179   2.220
55211W        W23585  12.654  22.123   2.316
55212W        W23586  20.668   5.275   3.633
55213W        W23587  29.939  19.161   2.233
55214W        W23588  30.508  28.092   0.468
55215W        W23589   0.843  43.478   2.309
55216W        W23590  31.135   0.398  13.009
55217W        W23591  23.559  36.065   2.877
55218W        W23592  27.614   9.196   2.351
55219W        W23593  29.971  15.193   0.297
55220W        W23594  37.880   0.826  10.518
55221W        W23595  21.550  43.992  14.929
55222W        W23596   0.481  17.668  14.949
55223W        W23597  14.825  11.853   4.286
55224W        W23598  27.621   4.401  11.610
55225W        W23599  20.594  29.038  12.823
55226W        W23600   1.307  22.739   3.843
55227W        W23601  43.871   8.251  11.029
55228W        W23602  38.956  11.726  10.506
55229W        W23603  14.789  10.183  14.482
55230W        W23604  17.734   1.440  11.052
55231W        W23605  10.254   2.390   4.354
55232W        W23606  11.658   5.314  10.912
55233W        W23607  37.893  26.139  11.400
55234W        W23608  33.097  39.896  13.392
55235W        W23609  30.417  27.072   0.365
55236W        W23610  34.521   1.416   2.296
55237W        W23611  21.179  12.187  10.459
55238W        W23612   0.829  44.962  10.624
55239W        W23613   8.337   8.851   1.749
55240W        W23614  44.857  40.398   2.255
55241W        W23615  37.349  32.926   1.800
55242W        W23616  32.587  15.295   1.824
55243W        W23617  28.976  29.499  14.426
55244W        W23618  23.151  36.071   0.372
55245W        W23619  42.854  13.343   4.156
55246W        W23620  36.904   1.354  13.946
55247W        W23621  16.302  34.865   0.482
55248W        W23622  40.498  42.028  14.396
55249W        W23623  20.677  30.508   1.225
55250W        W23624  18.245   7.735  10.408
55251W        W23625  29.145  26.114   2.838
55252W        W23626  14.750  19.707   4.269
55253W        W23627  37.055  32.134   1.787
55254W        W23628  27.526  35.373   0.399
55255W        W23629   8.187   6.220  11.481
55256W        W23630  22.739  30.963  10.960
55257W        W23631  15.747   1.391   1.890
55258W        W23632   9.253  37.084  14.999
55259W        W23633   9.286   3.300   5.686
55260W        W23634  16.174  19.610  13.543
55261W        W23635   9.830  22.690   1.259
55262W        W23636  18.161  40.320  11.413
55263W        W23637  35.446   4.230  13.819
55264W        W23638  21.047  34.101   1.234
55265W        W23639  13.749   0.259   4.775
55266W        W23640  10.376   3.816   1.444
55267W        W23641   3.265  31.916   0.483
55268W        W23642   9.875  11.224   4.317
55269W        W23643   1.470  14.222  13.332
55270W        W23644  38.883  17.589   2.283
55271W        W23645  44.838  14.814   4.258
55272W        W23646  32.004  23.069   4.181
55273W        W23647  14.192   8.772  14.984
55274W        W23648  41.416   8.219   4.319
55275W        W23649  12.191   2.800   4.160
55276W        W23650  20.134   9.232  10.466
55277W        W23651   1.898  28.632  13.317
55278W        W23652  35.087  35.593  13.983
55279W        W23653  27.121  32.452   1.902
55280W        W23654  29.028  23.686   3.167
55281W        W23655  13.803  23.712  10.404
55282W        W23656   5.773   5.792   2.372
55283W        W23657  37.970  38.353   1.819
55284W        W23658  37.373  43.852  13.423
55285W        W23659  25.620  21.104   0.314
55286W        W23660  11.655   5.370  13.871
55287W        W23661  30.000  18.112   2.767
55288W        W23662  16.221  38.351   3.278
55289W        W23663  12.787  17.636   1.887
55290W        W23664  31.100  34.078  11.008
55291W        W23665  13.651   5.341  14.017
55292W        W23666  32.064   2.455   2.778
55293W        W23667  20.689   7.714   0.793
55294W        W23668  43.290  34.870   0.293
55295W        W23669  39.923   5.842  13.409
55296W        W23670  40.474  19.566   1.752
55297W        W23671  26.058  35.092   0.830
55298W        W23672  26.599   5.265  14.967
55299W        W23673  42.999  25.604  12.477
55300W        W23674  15.197  23.572  11.411
55301W        W23675  29.081   5.388  13.956
55302W        W23676  15.578   5.399   3.866
55303W        W23677   0.948   1.436   1.812
55304W        W23678  41.827  31.946  14.401
55305W        W23679  29.960  10.263  11.100
55306W        W23680   3.333  44.377   2.827
55307W        W23681   5.918  16.193  12.878
55308W        W23682  37.050   8.891  13.855
55309W        W23683  26.968  44.376  13.931
55310W        W23684   9.733  33.979   0.911
55311W        W23685  12.215  11.210   1.337
55312W        W23686  25.986  33.522  13.495
55313W        W23687  44.944  14.184  11.104
55314W        W23688  22.043  36.417   3.228
55315W        W23689  43.341  17.257   1.819
55316W        W23690  39.382  29.566   3.287
55317W        W23691  38.465   3.797  11.961
55318W        W23692  39.048   2.368   3.650
55319W        W23693  26.653  11.834  11.044
55320W        W23694  17.151  24.147  10.986
55321W        W23695  31.446  37.453  13.052
55322W        W23696  29.164  40.964   2.197
55323W        W23697  36.376  16.215  14.790
55324W        W23698  21.152  16.296  12.435
55325W        W23699   6.197  40.308  12.576
55326W        W23700  12.227  20.108  11.543
55327W        W23701  44.825  22.663   0.315
55328W        W23702  25.701  21.638   3.635
55329W        W23703  26.968  21.042   2.317
55330W        W23704   2.319   9.199   3.810
55331W        W23705  42.899   5.269   1.437
55332W        W23706  20.613  13.134  11.908
55333W        W23707  31.101   7.263   4.294
55334W        W23708  22.642   4.302   4.599
55335W        W23709   0.975  27.540  10.977
55336W        W23710  24.598  31.563  10.622
55337W        W23711  44.910  14.709  14.433
55338W        W23712  13.183  37.526   2.895
55339W        W23713  44.504  32.888   0.309
55340W        W23714   7.388   4.335  13.968
55341W        W23715  15.235  43.877  13.535
55342W        W23716   8.703  23.181   4.259
55343W        W23717  11.786   6.737  10.581
55344W        W23718  28.963  43.495   1.725
55345W        W23719   9.343   1.436  12.948
55346W        W23720  34.395  37.413  12.457
55347W        W23721   7.363  16.299  11.498
55348W        W23722  20.674  18.697   4.725
55349W        W23723  18.620  29.956  11.479
55350W        W23724  10.770  28.453   3.243
55351W        W23725  29.028  20.188  13.796
55352W        W23726   5.796  37.486   2.825
55353W        W23727  41.424   3.714  12.889
55354W        W23728  27.074  35.367  13.419
55355W        W23729  20.157   4.725   1.450
55356W        W23730  13.321  34.864  10.102
55357W        W23731  44.500   4.265  12.965
55358W        W23732  31.969  18.701  13.839
55359W        W23733  39.867  44.999   0.430
55360W        W23734  38.474   5.917  14.357
55361W        W23735  26.628   9.709  14.320
55362W        W23736   9.186   3.425  11.878
55363W        W23737  31.964  10.157  13.959
55364W        W23738  12.173  33.893   0.344
55365W        W23739  12.306  44.279  14.431
55366W        W23740   6.755   9.805   1.722
55367W        W23741  24.022  42.523  14.774
55368W        W23742  19.260  33.468   4.192
55369W        W23743  34.405  17.796  13.396
55370W        W23744  42.995  39.453   1.385
55371W        W23745  29.548   7.795  11.372
55372W        W23746   4.206  36.020   1.894
55373W        W23747  24.576  43.409   0.783
55374W        W23748  32.914  26.205  12.479
55375W        W23749  36.378   3.816   2.723
55376W        W23750  28.461  33.586   3.348
55377W        W23751  39.450   7.340  14.842
55378W        W23752  11.650   3.738  13.357
55379W        W23753  28.598  28.439  13.497
55380W        W23754  18.650  38.952  10.010
55381W        W23755   7.331  19.648   1.222
55382W        W23756  32.598  26.065  11.121
55383W        W23757  37.044  30.601  12.072
55384W        W23758  22.693  25.100   3.649
55385W        W23759  14.714  25.190   3.810
55386W        W23760  21.610   6.185  13.887
55387W        W23761  16.315  13.819  14.500
55388W        W23762  43.009  15.279  10.464
55389W        W23763  11.630  32.419   3.764
55390W        W23764  35.482  22.039   3.827
55391W        W23765   5.228  28.627   4.244
55392W        W23766   5.327  12.820  14.276
55393W        W23767  31.079  18.774   2.356
55394W        W23768  34.912  28.039  12.569
55395W        W23769   0.816  23.217  11.942
55396W        W23770  21.555   9.793   3.755
55397W        W23771  14.115   5.262   4.134
55398W        W23772   0.764  41.509   1.244
55399W        W23773  10.207  43.478   0.388
55400W        W23774   8.291  36.862  12.376
55401W        W23775  24.182  25.583  14.880
55402W        W23776  31.441  31.508  12.096
55403W        W23777  23.174  26.582   4.200
55404W        W23778  24.024   2.297   0.417
55405W        W23779  24.156  19.688  14.475
55406W        W23780  12.671  28.651  10.989
55407W        W23781  15.122  37.896  12.038
55408W        W23782  28.034  22.561   0.479
55409W        W23783   0.892  12.832   0.367
55410W        W23784   1.350  21.661  11.465
55411W        W23785  28.937  28.438  13.309
55412W        W23786  21.512  43.291   4.689
55413W        W23787  38.828  16.699   0.459
55414W        W23788  42.517  29.492  11.476
55415W        W23789  24.563   7.681   3.746
55416W        W23790  19.551  22.205  10.440
55417W        W23791  43.879  35.518  11.475
55418W        W23792  18.230  40.454  14.031
55419W        W23793   4.912  23.510  11.591
55420W        W23794  28.568  44.303  11.072
55421W        W23795   3.844   8.351  14.915
55422W        W23796  44.495   1.357   0.915
55423W        W23797  21.050   1.883   3.791
55424W        W23798   2.352  38.915  14.877
55425W        W23799  31.502  12.805   1.830
55426W        W23800  34.086  25.602  13.900
55427W        W23801   5.794   2.333   0.258
55428W        W23802   5.354  37.056  14.854
55429W        W23803  29.464   0.384  11.515
55430W        W23804   1.787   2.314   0.432
55431W        W23805   6.735  12.780   0.313
55432W        W23806  32.048  43.941   2.788
55433W        W23807   8.801  31.009  12.386
55434W        W23808  18.598  42.862   1.890
55435W        W23809  30.492   0.370  11.931
55436W        W23810   8.873  19.604  14.326
55437W        W23811  30.631  25.063   2.881
55438W        W23812   7.668  40.449  10.590
55439W        W23813   2.789   3.441  12.868
55440W        W23814  17.300  26.022   4.197
55441W        W23815  20.735  22.598  13.900
55442W        W23816   6.826   3.246  14.387
55443W        W23817   2.280   8.726  12.911
55444W        W23818  14.710  11.244   1.918
55445W        W23819  44.398  42.354  13.404
55446W        W23820  32.391  34.439   3.836
55447W        W23821  26.699  17.770   0.910
55448W        W23822  26.064  18.705  12.007
55449W        W23823  11.621   2.779  14.887
55450W        W23824  17.566  22.224   3.686
55451W        W23825  22.502  32.137  10.601
55452W        W23826  23.550   5.815   4.763
55453W        W23827   9.345  43.360   1.366
55454W        W23828  15.614  15.674   0.407
55455W        W23829  31.097  25.549   0.952
55456W        W23830  29.569   9.168  13.853
55457W        W23831   9.764   1.737   3.192
55458W        W23832   1.842  12.226   3.284
55459W        W23833   4.728  23.218  11.037
55460W        W23834  26.978  13.293   3.821
55461W        W23835   0.767  12.362   1.351
55462W        W23836  16.158  33.077  11.998
55463W        W23837  41.796  17.218   0.373
55464W        W23838  35.982  23.567  13.512
55465W        W23839  40.450   9.807   1.312
55466W        W23840   6.347  37.377   9.927
55467W        W23841  20.614  12.824  11.507
55468W        W23842  38.533   9.335   1.696
55469W        W23843   2.414  20.585  14.870
55470W        W23844  10.222  34.003  10.930
55471W        W23845  16.654  40.010  13.929
55472W        W23846  30.569  26.145  12.873
55473W        W23847  13.262  44.463   3.168
55474W        W23848  16.639  10.308  14.360
55475W        W23849  32.082   2.308  11.994
55476W        W23850   2.374  38.861   2.418
55477W        W23851   3.446  16.205   1.859
55478W        W23852  21.146   4.785   4.711
55479W        W23853  17.187  19.626  12.518
55480W        W23854   0.961   6.211   0.249
55481W        W23855  32.457   7.404  12.921
55482W        W23856  23.613  41.816  10.963
55483W        W23857  21.575   6.290  14.922
55484W        W23858  21.551  41.888  12.974
55485W        W23859  34.601  11.662   2.417
55486W        W23860  32.016   6.731  10.455
55487W        W23861   4.857   9.842   5.274
55488W        W23862   6.405  15.747  12.905
55489W        W23863  43.441   7.676  10.636
55490W        W23864   7.902  39.008   2.204
55491W        W23865  44.765  27.165  14.950
55492W        W23866  35.536  43.343  12.919
55493W        W23867  33.126  20.145   4.721
55494W        W23868  29.545  15.268  11.945
55495W        W23869  20.210  33.041   2.369
55496W        W23870  44.929  27.174   1.744
55497W        W23871  22.173   6.185  14.453
55498W        W23872  14.623   0.828   0.444
55499W        W23873   6.708   7.900  14.969
55500W        W23874  25.979  19.607   3.637
55501W        W23875  27.468   7.724   3.708
55502W        W23876  12.644  43.271  13.347
55503W        W23877  21.129  21.139   2.255
55504W        W23878   8.810   4.921  10.495
55505W        W23879   9.828  42.909  11.596
55506W        W23880   1.439  38.899  14.364
55507W        W23881  34.021   3.263   2.802
55508W        W23882  17.217  21.212   3.804
55509W        W23883  26.153  21.551   0.454
55510W        W23884  42.462   2.763   4.210
55511W        W23885  11.708  31.076   4.300
55512W        W23886  24.587   0.406   1.289
55513W        W23887  28.053   0.434  12.849
55514W        W23888  25.595   0.356   4.258
55515W        W23889   4.373  38.039   2.725
55516W        W23890  13.300  41.871   4.737
55517W        W23891  38.925  38.872   3.692
55518W        W23892  15.690   3.924  12.578
55519W        W23893  39.540  13.268  12.018
55520W        W23894  12.760  31.452  13.822
55521W        W23895  36.361  36.585   2.355
55522W        W23896  32.611  17.646  12.534
55523W        W23897  44.881  35.414  11.421
55524W        W23898  42.286  17.630  12.345
55525W        W23899  17.182  35.932   0.900
55526W        W23900   4.863  34.891  10.458
55527W        W23901  22.651   3.776  12.496
55528W        W23902  39.059  35.910   0.933
55529W        W23903  21.523  13.281  11.975
55530W        W23904  13.162   7.203  13.471
55531W        W23905  22.505  32.417   4.770
55532W        W23906  17.757  33.020   2.784
55533W        W23907   5.338  33.059  11.464
55534W        W23908  32.398  19.285   2.810
55535W        W23909   1.428  12.235  11.505
55536W        W23910  20.769  30.101   4.262
55537W        W23911  20.246  21.213   3.168
55538W        W23912  39.879  12.774   1.405
55539W        W23913   2.403  10.694   0.336
55540W        W23914  38.848  23.524   4.309
55541W        W23915   7.775   0.890  14.799
55542W        W23916   6.369  35.919  12.573
55543W        W23917   8.839  13.116  10.904
55544W        W23918  12.125  27.445  13.807
55545W        W23919  39.460  11.806  11.547
55546W        W23920  10.211   1.907  14.381
55547W        W23921  35.422  34.939   2.330
55548W        W23922  41.978  17.702  14.322
55549W        W23923  30.089  31.152  13.870
55550W        W23924  23.727   5.839  13.966
55551W        W23925   0.341  30.960   1.783
55552W        W23926   4.721  18.787  14.322
55553W        W23927   5.788   5.842   3.368
55554W        W23928  26.468  13.292  14.981
55555W        W23929  23.058  25.591   1.891
55556W        W23930  19.620  43.803  13.434
55557W        W23931  24.169  41.896   2.201
55558W        W23932  37.006   4.797   3.374
55559W        W23933   2.947  12.274  12.368
55560W        W23934  16.194  19.682   4.773
55561W        W23935  31.537  38.374  13.846
55562W        W23936  40.485   9.320   3.753
55563W        W23937   8.860  42.825  10.141
55564W        W23938  32.515  39.031   2.198
55565W        W23939  13.243  26.505   5.098
55566W        W23940  20.244  30.438   3.256
55567W        W23941  13.828  17.297   4.727
55568W        W23942   0.978  24.623   1.405
55569W        W23943  23.578   9.648   2.406
55570W        W23944  15.322   0.811  13.000
55571W        W23945  22.110  30.658   2.279
55572W        W23946   5.888  24.153  10.565
55573W        W23947  12.279  40.355   2.190
55574W        W23948  25.181  33.456   0.442
55575W        W23949   3.284   7.184  10.462
55576W        W23950  42.312   4.416   2.412
55577W        W23951  18.092  41.446   3.652
55578W        W23952  38.557  30.116  10.488
55579W        W23953  41.939  22.690   5.188
55580W        W23954  15.176   5.394   3.814
55581W        W23955  19.666  26.646  10.994
55582W        W23956  29.170  36.361  13.843
55583W        W23957   7.398  39.054   2.401
55584W        W23958  33.512   6.323   1.761
55585W        W23959  41.018  16.104   4.617
55586W        W23960  32.556  43.302   2.224
55587W        W23961  22.611  43.326  12.985
55588W        W23962   1.293   0.748   3.168
55589W        W23963  30.625  28.610   3.806
55590W        W23964   9.830  40.409  11.998
55591W        W23965  37.903  42.854  10.542
55592W        W23966  27.108   7.243   0.887
55593W        W23967  13.710  28.158  12.425
55594W        W23968  24.653  29.042  13.982
55595W        W23969  38.558  23.585  14.452
55596W        W23970  10.681  31.896  13.315
55597W        W23971  19.043  39.967   3.165
55598W        W23972   6.379  42.439   1.704
55599W        W23973  36.020  41.854   2.307
55600W        W23974  37.022   3.793   0.395
55601W        W23975  12.144  19.162   1.877
55602W        W23976   3.366  27.472  12.560
55603W        W23977  30.011   9.304  13.058
55604W        W23978   1.346  36.024   3.370
55605W        W23979  35.093  42.284   4.273
55606W        W23980  20.196  21.637  11.031
55607W        W23981  38.984  37.914   3.802
55608W        W23982  29.968  22.657  13.821
55609W        W23983  18.272  22.169  13.058
55610W        W23984  20.232  44.456   4.141
55611W        W23985   9.238  34.950  12.534
55612W        W23986   8.839  26.124  10.407
55613W        W23987  36.360  14.095   1.218
55614W        W23988   6.795  30.639  14.989
55615W        W23989  33.617  33.126  10.476
55616W        W23990  24.615  14.200  14.920
55617W        W23991  42.026  29.616   0.940
55618W        W23992   3.309  22.577  13.486
55619W        W23993  38.439   6.699   9.521
55620W        W23994  34.912  14.255   5.217
55621W        W23995  22.139  19.151   2.723
55622W        W23996  18.080  28.641  10.416
55623W        W23997   2.828  25.577   1.831
55624W        W23998   6.332  19.758   2.353
55625W        W23999  21.751  16.590   0.748
55626W        W24000  28.434  23.720  10.598
55627W        W24001  39.430  17.678   2.825
55628W        W24002  36.451  35.563  11.395
55629W        W24003   3.929  25.191   0.928
55630W        W24004   2.744   6.263  14.974
55631W        W24005   4.290   0.272  11.570
55632W        W24006  44.409  22.008   3.858
55633W        W24007  34.894  12.262   3.354
55634W        W24008   0.430  38.857   2.263
55635W        W24009  39.340   2.867  11.855
55636W        W24010   4.272  16.680  14.286
55637W        W24011  10.725  22.703  13.919
55638W        W24012  41.459  36.471   4.164
55639W        W24013  14.106  35.388  11.374
55640W        W24014  42.504  19.612  12.546
55641W        W24015  42.362  25.106   3.163
55642W        W24016  41.356  26.098   2.355
55643W        W24017  33.387  36.076  14.445
55644W        W24018  38.004  12.697  11.540
55645W        W24019  26.052  17.157  11.061
55646W        W24020  44.271   7.876  12.992
55647W        W24021  27.488  19.176  10.566
55648W        W24022   5.241  27.585  11.591
55649W        W24023  10.293  25.131  13.941
55650W        W24024  25.106  30.953   4.240
55651W        W24025   2.852  17.789  11.012
55652W        W24026  32.074  26.186   4.165
55653W        W24027  36.405  38.889   4.662
55654W        W24028  33.570  13.730  12.530
55655W        W24029  14.213   8.684   1.902
55656W        W24030   2.928  14.180  14.898
55657W        W24031  38.396  42.784  14.917
55658W        W24032  15.198  27.512  11.052
55659W        W24033  38.450   6.240  10.567
55660W        W24034  29.434  23.163  11.044
55661W        W24035   9.650   1.312   4.776
55662W        W24036  22.649  19.772   3.261
55663W        W24037   6.370  26.001   5.744
55664W        W24038  30.135  19.061  13.310
55665W        W24039  12.656  39.545  14.026
55666W        W24040  42.853  13.321   0.921
55667W        W24041  10.749  12.303   4.345
55668W        W24042  39.534  35.364  13.961
55669W        W24043  41.859   2.382  11.496
55670W        W24044  14.096   6.739   1.331
55671W        W24045   9.650   2.735   1.716
55672W        W24046  38.956  16.147  14.360
55673W        W24047  34.383  14.606   4.671
55674W        W24048   7.199  21.040  10.085
55675W        W24049  29.140  14.806  11.578
55676W        W24050  35.034   5.241   4.252
55677W        W24051  41.382  21.176   1.872
55678W        W24052  39.954  17.247  14.903
55679W        W24053  36.448  26.524   1.846
55680W        W24054  22.101   0.399   0.773
55681W        W24055  37.554  11.282   2.309
55682W        W24056   2.247  31.551   3.640
55683W        W24057  38.880  38.936  14.437
55684W        W24058  32.029  25.004  14.899
55685W        W24059  43.436   5.398   2.282
55686W        W24060  12.251  40.362  14.360
55687W        W24061  18.743  11.777   0.876
55688W        W24062   8.798  34.906  14.846
55689W        W24063  26.582   0.908  14.426
55690W        W24064  33.623  10.693  12.887
55691W        W24065  43.974  25.121   2.902
55692W        W24066   1.447  30.954  14.784
55693W        W24067   1.314  32.975  12.467
55694W        W24068  44.460   9.200  12.846
55695W        W24069  17.200  22.664  12.562
55696W        W24070   8.654  20.134  12.975
55697W        W24071  24.098   3.256   1.424
55698W        W24072  35.412  16.727  13.933
55699W        W24073  28.443  33.085  11.447
55700W        W24074  22.626  35.407  12.011
55701W        W24075   6.881  41.794   3.248
55702W        W24076   6.287  26.652   3.296
55703W        W24077  27.194   3.260  12.424
55704W        W24078   1.756  14.764  11.068
55705W        W24079   6.258  24.628   0.274
55706W        W24080  35.383  40.891  12.524
55707W        W24081  37.064  29.992  13.491
55708W        W24082  13.712  10.745  14.394
55709W        W24083  31.414  40.817  14.793
55710W        W24084  21.038  37.539   0.793
55711W        W24085  39.937  21.716   3.271
55712W        W24086  43.783  21.682   2.766
55713W        W24087   1.367  39.402   0.283
55714W        W24088  31.943   0.944  13.482
55715W        W24089  15.238   9.716  11.938
55716W        W24090  11.710  12.651   3.385
55717W        W24091  26.600  20.030  11.409
55718W        W24092  39.023  26.533   2.213
55719W        W24093  15.260  39.448   1.933
55720W        W24094  42.320  26.018  11.863
55721W        W24095  34.956  43.493   1.792
55722W        W24096  35.405  19.728   3.247
55723W        W24097  14.329  36.512   2.793
55724W        W24098   3.260   8.680  13.797
55725W        W24099  41.521  37.442  14.385
55726W        W24100  30.984  24.018  13.527
55727W        W24101  14.608  14.135   4.747
55728W        W24102  40.017  33.086   4.244
55729W        W24103  41.469  27.141   0.786
55730W        W24104  22.551  27.067  12.951
55731W        W24105  16.805  21.175  11.384
55732W        W24106  21.609  40.543  10.422
55733W        W24107  25.051  40.493   5.105
55734W        W24108  23.130  38.421   3.691
55735W        W24109   2.380  14.714   1.697
55736W        W24110  13.766  12.219  11.948
55737W        W24111  22.094   2.257   2.390
55738W        W24112  17.731   6.244   4.209
55739W        W24113  38.052  31.445  12.467
55740W        W24114   1.358  24.526   0.807
55741W        W24115  24.701   9.295   0.889
55742W        W24116  37.509  37.570  11.482
55743W        W24117  12.769  34.923   0.269
55744W        W24118   2.369  12.362  14.452
55745W        W24119  43.891  44.892   3.649
55746W        W24120   8.396  35.104  14.396
55747W        W24121  27.562  15.265   0.327
55748W        W24122  38.507  30.025  11.380
55749W        W24123  26.553  18.690  11.954
55750W        W24124  41.528  34.446  13.808
55751W        W24125  38.995  42.472  14.885
55752W        W24126  29.463  23.723   0.408
55753W        W24127  12.759  25.001  11.063
55754W        W24128  11.683  30.473   0.276
55755W        W24129  17.741  13.751  11.920
55756W        W24130  29.023  25.530   2.729
55757W        W24131  13.671  32.537   1.293
55758W        W24132  29.438  13.120   0.731
55759W        W24133   8.805   2.243   0.873
55760W        W24134  13.677  33.893  14.009
55761W        W24135  37.503   8.691   0.924
55762W        W24136  34.005   7.897  13.488
55763W        W24137   1.257  34.503  11.080
55764W        W24138   3.441  13.798  13.927
55765W        W24139  23.072  17.273   5.584
55766W        W24140  33.086  27.966   4.642
55767W        W24141  34.083  23.667   4.828
55768W        W24142  37.010  34.120  13.401
55769W        W24143   6.197   0.403  14.846
55770W        W24144  26.632  23.103  13.352
55771W        W24145  12.134   5.711   1.800
55772W        W24146  11.165  25.611   3.740
55773W        W24147  22.116  37.572   9.591
55774W        W24148  25.070   7.243   2.388
55775W        W24149   5.762  29.648  10.587
55776W        W24150   0.356   1.793   1.872
55777W        W24151  26.062  16.786  13.060
55778W        W24152   2.469   8.303  12.523
55779W        W24153   1.859   9.887  11.501
55780W        W24154  41.978  37.506  14.888
55781W        W24155   7.338  34.104   3.238
55782W        W24156  13.316  14.127   1.791
55783W        W24157  13.781  24.619   0.957
55784W        W24158  13.731  40.357   4.131
55785W        W24159   0.493  33.929  10.585
55786W        W24160   7.384  13.774  10.504
55787W        W24161  35.601  13.769   4.621
55788W        W24162  27.094  28.555  12.069
55789W        W24163  28.056  12.737   4.815
55790W        W24164   3.858  18.712   2.321
55791W        W24165  12.838  34.952  13.863
55792W        W24166  33.589  20.037  12.576
55793W        W24167  16.675  24.996  14.308
55794W        W24168  22.106  16.143   2.744
55795W        W24169  35.102  24.673  14.499
55796W        W24170  37.377   4.791  14.430
55797W        W24171  19.779  17.092   2.211
55798W        W24172  17.737   8.300   4.638
55799W        W24173  41.352   7.826   3.638
55800W        W24174  25.548  20.618   3.658
55801W        W24175  40.412  30.458  11.974
55802W        W24176  25.997  39.056  12.072
55803W        W24177   3.412  34.956  10.618
55804W        W24178  27.108  41.904   4.171
55805W        W24179  13.788   0.396  11.864
55806W        W24180  34.598  44.306  10.608
55807W        W24181  40.308   9.871   2.893
55808W        W24182  35.371  18.258  14.425
55809W        W24183  38.498   8.403  12.481
55810W        W24184   1.801  26.103   2.742
55811W        W24185   0.868  21.597  11.592
55812W        W24186   4.895  18.295  11.869
55813W        W24187   8.305  12.645  14.765
55814W        W24188  33.912  35.535  11.551
55815W        W24189  23.086  30.931  10.482
55816W        W24190  10.324  16.275   0.896
55817W        W24191  15.221  35.882   0.348
55818W        W24192  16.132  14.658  11.892
55819W        W24193  28.628  12.322  12.095
55820W        W24194  11.651  28.104  13.331
55821W        W24195  38.964  32.595  12.048
55822W        W24196  26.478  43.312  14.843
55823W        W24197  24.637  20.159   3.802
55824W        W24198  44.992  23.625   3.295
55825W        W24199  31.646  36.965  11.603
55826W        W24200   6.907   2.328   5.787
55827W        W24201   3.349  12.611  11.907
55828W        W24202  16.671   8.254  11.552
55829W        W24203  44.883  28.171   3.794
55830W        W24204  29.109  19.165  13.429
55831W        W24205   8.179   0.783  10.541
55832W        W24206  43.803  39.378  14.349
55833W        W24207  12.197  30.109   1.322
55834W        W24208   7.242  27.092   3.868
55835W        W24209  39.912   2.430   3.289
55836W        W24210  26.499   9.779  11.581
55837W        W24211  40.543  41.024  11.471
55838W        W24212  30.943  32.969  14.354
55839W        W24213  16.273  14.633   1.755
55840W        W24214  17.637  24.005  12.970
55841W        W24215  30.027  20.151  13.047
55842W        W24216  26.010  28.078   4.687
55843W        W24217  15.292  23.033  12.920
55844W        W24218   1.338  37.503   1.413
55845W        W24219  42.856  31.990   0.450
55846W        W24220   4.363   0.794   0.326
55847W        W24221   8.894  43.781   3.648
55848W        W24222  40.973  33.917   2.411
55849W        W24223   4.773  35.499  12.575
55850W        W24224  32.635  24.989  12.046
55851W        W24225  12.666  42.952   5.120
55852W        W24226  29.950  34.863  14.845
55853W        W24227   8.202   9.786   0.415
55854W        W24228  21.752  25.971  12.410
55855W        W24229   1.256  26.464   1.819
55856W        W24230   8.309  13.601   0.394
55857W        W24231  15.617  12.823  12.348
55858W        W24232  23.551   7.407  14.779
55859W        W24233  30.912  40.884  12.403
55860W        W24234  40.392   0.473  14.448
55861W        W24235   6.395  10.280   1.333
55862W        W24236  41.830  27.654  11.926
55863W        W24237  27.159  13.106   1.754
55864W        W24238  31.902  10.220  13.430
55865W        W24239  12.676  37.399   0.385
55866W        W24240  43.958   5.272  12.932
55867W        W24241  23.532   9.294   3.342
55868W        W24242  16.257  40.342   2.706
55869W        W24243  40.528  34.528   2.407
55870W        W24244  20.070  23.545  13.521
55871W        W24245   0.773  25.576   0.761
55872W        W24246  41.943  20.174  14.771
55873W        W24247  11.651  14.623  10.504
55874W        W24248  27.685  21.630   1.767
55875W        W24249   9.332  10.866  14.924
55876W        W24250  11.282  23.581  14.456
55877W        W24251   0.952  11.692   3.711
55878W        W24252  21.064  43.868  12.414
55879W        W24253  22.043  32.092  10.519
55880W        W24254  40.898  42.883   0.426
55881W        W24255   3.787  40.933   1.310
55882W        W24256  15.592  14.275  10.546
55883W        W24257  34.934  32.430  13.985
55884W        W24258  30.659  40.413  12.568
55885W        W24259  44.390  34.095   4.838
55886W        W24260  12.211  34.932   4.305
55887W        W24261  11.287  12.663  13.500
55888W        W24262  21.161   0.917   2.890
55889W        W24263  39.966  29.468   0.353
55890W        W24264   8.742  43.921   4.354
55891W        W24265  26.142  34.491  10.406
55892W        W24266   6.819  30.570   3.336
55893W        W24267  31.963  44.891   4.217
55894W        W24268  14.733  25.125   1.741
55895W        W24269  26.205  41.387   4.678
55896W        W24270  19.042   3.323  10.482
55897W        W24271  20.664  27.097   4.791
55898W        W24272  38.504  37.961   4.680
55899W        W24273  35.441  28.144  13.352
55900W        W24274  11.306  36.535  14.892
55901W        W24275  40.317  14.799  10.518
55902W        W24276   9.656  12.153  14.496
55903W        W24277  23.180  25.180   1.914
55904W        W24278  44.886  14.287  10.444
55905W        W24279  27.555   3.888   0.415
55906W        W24280  40.442  29.528  13.858
55907W        W24281  37.415  24.684   3.856
55908W        W24282   0.897  23.715   9.952
55909W        W24283   5.322  22.133  14.388
55910W        W24284  34.472  15.240   4.121
55911W        W24285   6.314   4.347   1.916
55912W        W24286  21.523  11.655  14.996
55913W        W24287  35.531  15.288  14.891
55914W        W24288  26.516  31.537   0.253
55915W        W24289  21.655  39.934  11.457
55916W        W24290  43.452   8.160  10.470
55917W        W24291  27.068   4.802  10.463
55918W        W24292  29.625  30.520   4.828
55919W        W24293  30.002  29.477   1.909
55920W        W24294  17.061  25.584   1.340
55921W        W24295  19.664  37.940   0.751
55922W        W24296  33.975  16.293   3.761
55923W        W24297  44.428  35.902  13.319
55924W        W24298  13.133  17.269   3.673
55925W        W24299   1.411  38.508  13.962
55926W        W24300  35.365  34.562  10.492
55927W        W24301  34.921  36.916  13.326
55928W        W24302  32.458  33.096   0.404
55929W        W24303   4.741  34.086   1.403
55930W        W24304  29.564   8.747   4.115
55931W        W24305  11.748  20.235   1.319
55932W        W24306  23.637   7.331  12.456
55933W        W24307  20.115  18.763   1.398
55934W        W24308  15.615   3.728   4.230
55935W        W24309  13.181  25.521  12.463
55936W        W24310   6.839   2.902   9.628
55937W        W24311  25.002  41.424   3.217
55938W        W24312   3.390  43.421   3.195
55939W        W24313  25.011  21.709  14.491
55940W        W24314  12.807  10.247   5.238
55941W        W24315  32.109  36.370   5.102
55942W        W24316  43.971  22.515   1.915
55943W        W24317  17.115  30.141  11.496
55944W        W24318   3.340  28.988   3.817
55945W        W24319  15.134   3.748  12.864
55946W        W24320   4.347  24.142   3.780
55947W        W24321   2.450  29.924  14.897
55948W        W24322  33.057  12.692   0.397
55949W        W24323  23.167  39.423  11.483
55950W        W24324  19.703   4.235   2.248
55951W        W24325  41.377   5.298  14.029
55952W        W24326  32.141   5.798   0.764
55953W        W24327  28.458  36.922  14.988
55954W        W24328  34.495  43.944  11.894
55955W        W24329   9.689   0.337   4.313
55956W        W24330  38.570  21.164   3.163
55957W        W24331  27.990  28.517  13.819
55958W        W24332  14.309  32.543   3.371
55959W        W24333   0.925   4.898   0.249
55960W        W24334  11.740  20.544  12.435
55961W        W24335  35.421  14.663  12.862
55962W        W24336  27.478   8.244   2.680
55963W        W24337  34.947  19.093  14.459
55964W        W24338  36.950   9.857   2.352
55965W        W24339  36.514  27.516   0.255
55966W        W24340  44.802  26.475   3.179
55967W        W24341   2.866   3.788  11.495
55968W        W24342  13.624  40.479  14.404
55969W        W24343  10.271  26.559   0.779
55970W        W24344  35.409  20.743  11.927
55971W        W24345   3.738  38.875  10.599
55972W        W24346  25.692  34.412   1.227
55973W        W24347  32.540   4.821  12.022
55974W        W24348  26.470  38.018   4.302
55975W        W24349   5.203  44.909   3.156
55976W        W24350  22.578  31.999   0.324
55977W        W24351  11.191  44.910  10.556
55978W        W24352   8.304  14.211   1.767
55979W        W24353   9.730  34.914   4.328
55980W        W24354  17.089  32.420  11.081
55981W        W24355   7.839  21.675   1.288
55982W        W24356  16.789   0.954  12.058
55983W        W24357   5.811   8.717  10.505
55984W        W24358  25.151  15.225  12.407
55985W        W24359  29.119  11.688  13.547
55986W        W24360   2.385   9.845   1.773
55987W        W24361   6.732  42.494  10.506
55988W        W24362   7.243  25.125  12.966
55989W        W24363  29.551  39.948  12.393
55990W        W24364  41.042  20.145   4.817
55991W        W24365  35.594  43.373   0.452
55992W        W24366  38.369  37.387   0.865
55993W        W24367  19.270  22.111   1.741
55994W        W24368   5.704  22.573  14.318
55995W        W24369  35.440  19.233  13.843
55996W        W24370  16.713   7.788  12.428
55997W        W24371  11.644   8.733   5.221
55998W        W24372  28.093  23.064   2.379
55999W        W24373  10.192   0.325   2.816
56000W        W24374  41.483   9.382  14.323
56001W        W24375  30.150   8.225   0.927
56002W        W24376   9.389  41.406   4.614
56003W        W24377  15.701   2.462  14.931
56004W        W24378  21.210  14.685   0.757
56005W        W24379  19.111   9.862  12.525
56006W        W24380  43.896  16.297   4.283
56007W        W24381  22.665  38.012   0.437
56008W        W24382  44.860  32.110   4.351
56009W        W24383  15.168  44.423  12.534
56010W        W24384   5.277   1.918   1.442
56011W        W24385  44.005  29.930  13.953
56012W        W24386  36.407   5.396  11.074
56013W        W24387  28.115  44.941   2.724
56014W        W24388  40.334  10.821  12.904
56015W        W24389   3.333   7.909  14.304
56016W        W24390  18.760   2.346   0.869
56017W        W24391  37.039   8.660  14.820
56018W        W24392  39.349  30.627   3.184
56019W        W24393  31.574  30.101   3.794
56020W        W24394   1.241  10.180   4.698
56021W        W24395  13.200  11.155   1.772
56022W        W24396  28.513  35.882  14.025
56023W        W24397  28.492  18.162   1.872
56024W        W24398  44.378   6.849   2.751
56025W        W24399   7.277  33.538  14.822
56026W        W24400   0.889  36.852  11.984
56027W        W24401  24.224  39.421   5.307
56028W        W24402  22.219  39.402  14.959
56029W        W24403  21.218   4.412   0.856
56030W        W24404   7.884  20.094  11.087
56031W        W24405  19.670  19.112  11.465
56032W        W24406  10.169  43.867   4.180
56033W        W24407  25.573  10.228  13.012
56034W        W24408  11.853  23.559   0.328
56035W        W24409   1.367   9.150   1.822
56036W        W24410  41.517   5.257   2.276
56037W        W24411  16.204  35.970  11.563
56038W        W24412  42.439  33.881   1.727
56039W        W24413  13.248  11.717  11.969
56040W        W24414   7.280  23.547  11.410
56041W        W24415  17.092  19.104  14.003
56042W        W24416   1.916   5.417  11.018
56043W        W24417  44.395  42.335   0.391
56044W        W24418  43.367   7.798   0.406
56045W        W24419  34.110  27.144  14.936
56046W        W24420  26.977  32.108   1.708
56047W        W24421  27.018  10.369  12.877
56048W        W24422   7.706  26.975   3.177
56049W        W24423  34.509  12.785   1.723
56050W        W24424  25.480   3.782   3.179
56051W        W24425  24.157  20.735  10.483
56052W        W24426   9.868   0.267  12.363
56053W        W24427  13.754   5.334  10.407
56054W        W24428  17.632  13.196  14.006
56055W        W24429  33.973  43.810   4.779
56056W        W24430  32.008  23.558  12.476
56057W        W24431  10.677  28.176   4.828
56058W        W24432  29.658  40.891   0.252
56059W        W24433  25.144  31.421   4.607
56060W        W24434  15.767  18.622   0.305
56061W        W24435  38.559  17.228   4.654
56062W        W24436  32.494  25.602  14.496
56063W        W24437  32.399  27.089  10.453
56064W        W24438  18.560   6.917  13.857
56065W        W24439  38.033   3.916   1.339
56066W        W24440   7.874  19.168  11.580
56067W        W24441  27.635  25.119  11.469
56068W        W24442   8.800  14.240   3.368
56069W        W24443  26.024   1.380  14.883
56070W        W24444   3.876  26.045   2.393
56071W        W24445  42.956   3.901   0.473
56072W        W24446  30.120   6.427   0.340
56073W        W24447  24.638  28.466   3.265
56074W        W24448  22.565  27.162  10.478
56075W        W24449  15.109   2.360   4.642
56076W        W24450   7.815   1.421  11.591
56077W        W24451  44.491   5.224  11.974
56078W        W24452   8.243  14.810   1.406
56079W        W24453   5.722  26.085  14.409
56080W        W24454  17.651  37.078   3.750
56081W        W24455   6.320   1.790  12.417
56082W        W24456   0.871  14.251   1.749
56083W        W24457  26.639  18.145  10.076
56084W        W24458  20.761   9.731   3.796
56085W        W24459  35.032  20.568   2.255
56086W        W24460  34.435  28.501   3.754
56087W        W24461  29.050  12.331  13.344
56088W        W24462   0.380   9.841   2.387
56089W        W24463  33.538  18.710  14.979
56090W        W24464  31.449  43.802  13.486
56091W        W24465  16.650  28.152  11.954
56092W        W24466  14.676  22.677  12.864
56093W        W24467  16.627   9.357  12.927
56094W        W24468  21.640  27.453  14.980
56095W        W24469  15.154  14.750   1.357
56096W        W24470  25.684   6.292  12.342
56097W        W24471  13.704  36.462  13.330
56098W        W24472  24.984  44.454  14.458
56099W        W24473  39.855  43.948   1.722
56100W        W24474  44.311  12.664   0.795
56101W        W24475   9.710   4.719  14.006
56102W        W24476  39.430  38.941  10.899
56103W        W24477  40.921  19.535  11.917
56104W        W24478  33.537  26.009  11.599
56105W        W24479  34.397  16.620  14.477
56106W        W24480  38.851  30.935  11.942
56107W        W24481  33.578  24.624   0.846
56108W        W24482  42.460   8.703   0.461
56109W        W24483  19.568  28.051   4.343
56110W        W24484  30.936  32.047   4.139
56111W        W24485  15.313  20.042  12.969
56112W        W24486  43.435  30.030   2.726
56113W        W24487  43.773  34.074   4.617
56114W        W24488  40.430  19.113   0.439
56115W        W24489   1.369  16.730  14.478
56116W        W24490  28.585   8.858  11.435
56117W        W24491  41.310  20.273   2.872
56118W        W24492  16.102   9.345  11.500
56119W        W24493  21.147  10.212  11.080
56120W        W24494  31.629   8.272   1.779
56121W        W24495   1.374  16.710   0.244
56122W        W24496   5.311  15.308   3.771
56123W        W24497  22.546  33.064   2.391
56124W        W24498   7.276  41.807   3.799
56125W        W24499  35.396   3.936  14.432
56126W        W24500   3.805  32.441  14.433
56127W        W24501  21.205  29.650  13.407
56128W        W24502  24.623   5.822  11.464
56129W        W24503  41.971  17.693   1.402
56130W        W24504  28.671  38.941   0.789
56131W        W24505  41.871  16.203  12.913
56132W        W24506  21.212  17.120   2.376
56133W        W24507  26.051  13.770  13.401
56134W        W24508  24.213  24.631   3.369
56135W        W24509  14.829  29.167  10.072
56136W        W24510  11.720  40.957   0.856
56137W        W24511  16.167  25.100   3.766
56138W        W24512  39.038  10.187  10.510
56139W        W24513  27.514  29.628   4.160
56140W        W24514  24.693  30.542   0.395
56141W        W24515  14.210  34.923  11.006
56142W        W24516  37.008  10.302  14.984
56143W        W24517  13.328  11.148   1.255
56144W        W24518  37.346  36.903   1.739
56145W        W24519  18.095  36.948  12.507
56146W        W24520  26.951   4.402  14.858
56147W        W24521  24.083  22.504  11.076
56148W        W24522  14.220   4.379  11.577
56149W        W24523  30.426  38.534  14.297
56150W        W24524  42.833  26.480   4.166
56151W        W24525  31.567   2.449   0.255
56152W        W24526   4.820  19.666  14.330
56153W        W24527   2.838   5.276  13.895
56154W        W24528  37.862  16.690  10.915
56155W        W24529  11.706   8.691   4.608
56156W        W24530  24.123  23.058   1.281
56157W        W24531   8.185   5.917   2.754
56158W        W24532  14.699  11.850  13.847
56159W        W24533  18.644  28.098   2.381
56160W        W24534  19.584   3.347  12.449
56161W        W24535   7.260  38.048  10.424
56162W        W24536  10.148  32.517   4.209
56163W        W24537  40.051  29.092  14.846
56164W        W24538  28.165  29.131  14.396
56165W        W24539  44.317  17.709  10.626
56166W        W24540   9.730  25.214   1.924
56167W        W24541  43.864  11.746  12.963
56168W        W24542  20.537   1.976   0.297
56169W        W24543  37.943  16.200   2.669
56170W        W24544  15.631   8.234  12.057
56171W        W24545  36.428  23.236  12.867
56172W        W24546  29.498  15.639   4.260
56173W        W24547  39.943  40.011   3.186
56174W        W24548  33.454  21.192   1.233
56175W        W24549  36.014  34.021   2.214
56176W        W24550  30.547  41.480   4.773
56177W        W24551  16.616  30.458  12.954
56178W        W24552   4.372  35.950   1.411
56179W        W24553  20.104   3.797  10.408
56180W        W24554  23.622  19.047   2.800
56181W        W24555  32.024  15.205   4.755
56182W        W24556  17.620  37.055   3.174
56183W        W24557  17.723  14.252   0.309
56184W        W24558  21.554  20.124   3.218
56185W        W24559   1.916  18.165  14.450
56186W        W24560   8.163  21.605  12.388
56187W        W24561  26.636  10.667  14.360
56188W        W24562  22.137  10.263  14.764
56189W        W24563  33.475  34.524   0.846
56190W        W24564  14.722   4.449   0.357
56191W        W24565  35.562   7.847   1.886
56192W        W24566  22.673  35.514   3.324
56193W        W24567  35.907  25.658   0.442
56194W        W24568  38.554   2.852   2.728
56195W        W24569  36.042  17.159  14.798
56196W        W24570  29.586   8.711  12.904
56197W        W24571  33.880  43.798   2.813
56198W        W24572  29.062  39.447   2.751
56199W        W24573  44.283  33.101   0.844
56200W        W24574  28.988  29.032   0.327
56201W        W24575   5.792   4.762  10.544
56202W        W24576  11.152  27.999   3.746
56203W        W24577   0.772  32.634  11.091
56204W        W24578  27.639  27.180   1.888
56205W        W24579  31.418  35.401  10.593
56206W        W24580  41.834  21.138   2.860
56207W        W24581   0.983  10.849  11.408
56208W        W24582  31.648  27.041  14.852
56209W        W24583   8.793  44.336   2.215
56210W        W24584  31.449  39.506   0.844
56211W        W24585  38.889   0.790  13.542
56212W        W24586   2.896  24.087  11.429
56213W        W24587  33.922   5.394   2.413
56214W        W24588   0.293  30.568   3.188
56215W        W24589  23.535   9.861   0.934
56216W        W24590  36.043  18.633  11.457
56217W        W24591  31.911  26.565  14.362
56218W        W24592  41.312  36.036  13.848
56219W        W24593  17.633   9.854   1.837
56220W        W24594  32.520  35.924   1.713
56221W        W24595  24.602  27.457  12.406
56222W        W24596  19.701  19.746  13.419
56223W        W24597   3.272   0.488  10.621
56224W        W24598   2.253  14.645   4.116
56225W        W24599  17.122  16.241   3.336
56226W        W24600  32.994  35.043  11.486
56227W        W24601  15.328   3.883   3.351
56228W        W24602   0.748   0.965  14.496
56229W        W24603  35.411  16.218  13.368
56230W        W24604   4.228   8.858  11.446
56231W        W24605  34.567  20.561   3.285
56232W        W24606  17.724  20.597   1.817
56233W        W24607   5.223  35.482  13.893
56234W        W24608  41.021  39.975   4.348
56235W        W24609  25.176   5.840  12.087
56236W        W24610  18.656  25.680  10.626
56237W        W24611  44.987  20.569   2.393
56238W        W24612  12.743  34.370  13.973
56239W        W24613  13.113   3.803   0.755
56240W        W24614  36.020  43.851  11.475
56241W        W24615   2.791   2.737   2.195
56242W        W24616   2.327  28.062  11.395
56243W        W24617  44.887  10.291  12.400
56244W        W24618  20.204   9.817   4.114
56245W        W24619  11.675   8.717   0.864
56246W        W24620   5.362   2.461  13.020
56247W        W24621  15.090  41.822   2.357
56248W        W24622  40.802  30.651   3.743
56249W        W24623   4.892  44.899  13.879
56250W        W24624  10.312   8.895   9.990
56251W        W24625  25.144  29.654   4.694
56252W        W24626  10.721  26.678  13.802
56253W        W24627   8.228   6.272   1.758
56254W        W24628   2.357   8.700  12.465
56255W        W24629  23.052  16.128   3.756
56256W        W24630  12.266  16.720  12.880
56257W        W24631  16.722  23.626   1.378
56258W        W24632   0.789  14.663   4.718
56259W        W24633  27.536  28.018  10.439
56260W        W24634  24.716  13.835  11.541
56261W        W24635  11.757  40.432   4.766
56262W        W24636   6.247   6.765   1.404
56263W        W24637  36.399  39.848   0.456
56264W        W24638  37.378  34.069  12.067
56265W        W24639  27.607   1.919   1.764
56266W        W24640   1.894  39.956  13.847
56267W        W24641  30.077  36.418   1.868
56268W        W24642   5.384  33.535  11.398
56269W        W24643  27.584  29.146  11.874
56270W        W24644  40.534  19.104   1.917
56271W        W24645  23.055   7.761   2.761
56272W        W24646  16.689  17.773   3.733
56273W        W24647  40.446   3.728   3.159
56274W        W24648  38.546  36.098  12.433
56275W        W24649  33.598  14.737   1.892
56276W        W24650  24.566   7.307  12.089
56277W        W24651  24.639  10.659  10.894
56278W        W24652  35.061  13.282   3.753
56279W        W24653  10.214  35.522  12.866
56280W        W24654   2.358  23.619  14.326
56281W        W24655   4.261  31.126   1.253
56282W        W24656  16.187  18.572  12.021
56283W        W24657   8.788  33.009   3.720
56284W        W24658  24.086  24.573  10.546
56285W        W24659  27.683  43.931   1.221
56286W        W24660  16.608   0.743   3.355
56287W        W24661  37.564  33.574   1.230
56288W        W24662   3.339  34.115   2.784
56289W        W24663  15.728  41.936  12.397
56290W        W24664  30.489  37.888   5.229
56291W        W24665  24.496  39.438  10.506
56292W        W24666  23.115  18.581   2.321
56293W        W24667   2.264  13.638  11.418
56294W        W24668  18.626  25.528  14.840
56295W        W24669  22.249  25.672  13.893
56296W        W24670   7.355   3.299  11.955
56297W        W24671  34.604   4.422   1.797
56298W        W24672  18.242   7.378   1.816
56299W        W24673  17.773  31.454   0.432
56300W        W24674   8.781  26.474  12.445
56301W        W24675  21.655   4.332   4.760
56302W        W24676  41.855  17.560   0.463
56303W        W24677  14.312  19.767  13.881
56304W        W24678   5.859  31.069  12.998
56305W        W24679  37.473  10.205  13.535
56306W        W24680  38.820  44.368   2.392
56307W        W24681  13.342  14.611  12.015
56308W        W24682  35.981  12.636   4.623
56309W        W24683  43.983  35.515  10.591
56310W        W24684  32.094  44.900   2.854
56311W        W24685  23.087  40.411  12.359
56312W        W24686  44.806  25.662   2.873
56313W        W24687  15.296  12.618  13.954
56314W        W24688  17.691  27.950  11.116
56315W        W24689   9.883  38.437  11.385
56316W        W24690  44.793   5.316   2.754
56317W        W24691   4.392  22.011   3.714
56318W        W24692  25.524  43.334   4.655
56319W        W24693  43.960  23.532   0.749
56320W        W24694   8.787  31.048   3.290
56321W        W24695  21.721  38.947  11.591
56322W        W24696  31.419   4.716  10.092
56323W        W24697  16.254  22.565  13.025
56324W        W24698  23.736  22.616   3.152
56325W        W24699  23.164  43.909  11.884
56326W        W24700  40.513  44.810   2.714
56327W        W24701  11.356  20.638   2.193
56328W        W24702  40.876   7.187   3.637
56329W        W24703  12.623   6.723   4.806
56330W        W24704  31.086  24.985   0.466
56331W        W24705   3.420  38.937  12.446
56332W        W24706   5.411  28.934  10.500
56333W        W24707  41.361  38.871   1.306
56334W        W24708   3.748   0.360  11.603
56335W        W24709  33.594  15.084   1.895
56336W        W24710   9.769  19.589   4.271
56337W        W24711  17.224   1.883   2.661
56338W        W24712  28.091  22.140  10.437
56339W        W24713   1.418  27.562   3.383
56340W        W24714  38.447   4.215  14.841
56341W        W24715  42.977  11.643  11.479
56342W        W24716  35.915  26.177  12.417
56343W        W24717  22.077   2.867  11.444
56344W        W24718  31.603  44.778  14.999
56345W        W24719  35.916  23.001   2.823
56346W        W24720  44.468  35.022  14.461
56347W        W24721  26.970   6.321   4.788
56348W        W24722  41.300   7.368  14.282
56349W        W24723  42.005  12.361   4.684
56350W        W24724  14.807  43.470  14.291
56351W        W24725  43.337  43.834   4.157
56352W        W24726  24.034  10.154   4.622
56353W        W24727  29.515  21.562  13.812
56354W        W24728  12.795   8.880   0.847
56355W        W24729  20.632  33.547   1.279
56356W        W24730  40.949  36.562   4.260
56357W        W24731  36.404  13.761   4.338
56358W        W24732  43.299  12.707   0.762
56359W        W24733   4.736  42.955  14.794
56360W        W24734   9.844  28.951  14.463
56361W        W24735  20.724  35.504  11.418
56362W        W24736  44.413  44.955   3.236
56363W        W24737  18.206  28.963  14.842
56364W        W24738  25.559  41.930   4.210
56365W        W24739  32.988  19.286   2.749
56366W        W24740   6.849  11.798   1.344
56367W        W24741  37.349  44.406   3.781
56368W        W24742  34.107  15.734   0.287
56369W        W24743  41.801  24.669   3.253
56370W        W24744  34.052   3.727   3.779
56371W        W24745  28.136  16.263  11.085
56372W        W24746   6.284  36.521  14.777
56373W        W24747  22.630  13.212   3.798
56374W        W24748  43.364  27.964  14.785
56375W        W24749  24.026  20.564  11.403
56376W        W24750  36.983   8.676   4.220
56377W        W24751  29.021  41.292   2.740
56378W        W24752  14.657  36.376  12.374
56379W        W24753  12.661  14.114   1.864
56380W        W24754   2.238  15.243  12.402
56381W        W24755  27.497  40.933  13.947
56382W        W24756   0.427  35.433   0.390
56383W        W24757   0.443  38.429  13.419
56384W        W24758   0.935  13.657  13.828
56385W        W24759  18.206  34.941   4.781
56386W        W24760  42.833   1.755   4.679
56387W        W24761  35.880   3.266  13.962
56388W        W24762   2.307   1.828  12.573
56389W        W24763   0.478  40.409   1.858
56390W        W24764   4.829   1.314  14.907
56391W        W24765  10.376  35.383   1.438
56392W        W24766  40.361  14.094   1.326
56393W        W24767  32.501  25.090   1.894
56394W        W24768  32.070  38.952   4.660
56395W        W24769   8.384  30.071   3.301
56396W        W24770  29.425  17.287   1.239
56397W        W24771   2.341   4.887  12.559
56398W        W24772  37.527  14.772  12.083
56399W        W24773  40.414  41.379   2.295
56400W        W24774   6.248  37.401  11.973
56401W        W24775  13.636   1.474  13.391
56402W        W24776  44.858  21.693  11.019
56403W        W24777   5.807  28.480   2.275
56404W        W24778  22.123  37.522  10.567
56405W        W24779  39.831  40.381  10.489
56406W        W24780  15.801  22.232  14.888
56407W        W24781  28.006  22.049   2.670
56408W        W24782  39.442  29.126  13.814
56409W        W24783  25.042  44.398  12.539
56410W        W24784  14.172  24.017  12.352
56411W        W24785  39.039   4.386  14.378
56412W        W24786  41.397  24.161  14.420
56413W        W24787   3.757  13.327   3.761
56414W        W24788  10.255  21.732  10.521
56415W        W24789  44.436  16.771  10.072
56416W        W24790  44.792  31.943  13.018
56417W        W24791  25.634  22.648   2.286
56418W        W24792  26.618   3.869   1.782
56419W        W24793  36.928  40.861  11.399
56420W        W24794  15.821  19.121  12.005
56421W        W24795  27.088  44.433  13.436
56422W        W24796   5.226  24.619   3.267
56423W        W24797  18.641   4.294   1.770
56424W        W24798  42.370  14.107  14.937
56425W        W24799  14.324  31.043   1.917
56426W        W24800  38.905  44.793  10.915
56427W        W24801  27.043  17.727  11.075
56428W        W24802   8.357   9.249   0.925
56429W        W24803  10.375  39.487   4.258
56430W        W24804  40.476  43.932   4.601
56431W        W24805   5.199  21.523   3.840
56432W        W24806  26.596  18.646   2.823
56433W        W24807  44.815  21.685  14.029
56434W        W24808  22.154  20.240  14.500
56435W        W24809  20.048  18.214  10.904
56436W        W24810  41.882  31.588   4.772
56437W        W24811   1.270  14.747  12.005
56438W        W24812   0.779  24.527   0.455
56439W        W24813  33.120  35.075   0.385
56440W        W24814  24.486  37.831   4.265
56441W        W24815  19.060  41.927  12.978
56442W        W24816   0.378  36.078  13.898
56443W        W24817   9.296  10.772  10.964
56444W        W24818  32.453  42.980  13.876
56445W        W24819  29.931  23.122  12.038
56446W        W24820  17.289   2.375  13.334
56447W        W24821  36.953   9.786   3.641
56448W        W24822  20.074  10.336   1.304
56449W        W24823  13.158  33.591  10.079
56450W        W24824   2.256  24.718  14.011
56451W        W24825  16.245  39.916  12.947
56452W        W24826  29.154  27.674  10.951
56453W        W24827  10.842   9.765  12.950
56454W        W24828  25.974  27.967   4.186
56455W        W24829   2.831  34.608  14.791
56456W        W24830  24.011  28.030   1.743
56457W        W24831   9.350  19.732  14.005
56458W        W24832   4.740  15.727   2.369
56459W        W24833  19.234  39.467  12.006
56460W        W24834  22.570  28.088  10.020
56461W        W24835  16.600  19.576  10.410
56462W        W24836  39.999   3.903  13.349
56463W        W24837   1.842  22.055  10.422
56464W        W24838  35.533  35.913  10.571
56465W        W24839  24.043  30.472   3.635
56466W        W24840  17.619  10.382   1.743
56467W        W24841  26.100   5.260   1.793
56468W        W24842  14.779  33.387   0.272
56469W        W24843   2.417  35.541  11.539
56470W        W24844   0.829  21.733   2.755
56471W        W24845  15.644  27.139  13.512
56472W        W24846  43.900  12.637   1.706
56473W        W24847  10.806  16.098  11.535
56474W        W24848  28.969  43.014   3.642
56475W        W24849  44.785   0.436   4.201
56476W        W24850  24.621   8.364   1.788
56477W        W24851  36.961  22.598  10.959
56478W        W24852  34.037  26.512   5.173
56479W        W24853  14.703  30.030  11.954
56480W        W24854  22.106  32.466  10.633
56481W        W24855  28.093  41.838   0.453
56482W        W24856   1.333  17.642  10.977
56483W        W24857   7.323  20.668  14.997
56484W        W24858  20.148  18.549   2.406
56485W        W24859   8.214  16.089   2.850
56486W        W24860  32.465  11.250  11.045
56487W        W24861  27.501  26.472   4.183
56488W        W24862  39.439  32.047  12.495
56489W        W24863   3.313  14.189  12.023
56490W        W24864   7.885  33.044   4.685
56491W        W24865  35.596   1.931   0.387
56492W        W24866   7.284  40.488   2.234
56493W        W24867   3.941  13.258  11.878
56494W        W24868  17.702  33.573   2.366
56495W        W24869  40.403   6.280   0.337
56496W        W24870  27.554  12.736  13.511
56497W        W24871  36.083  43.501  12.914
56498W        W24872  37.076   9.150  12.566
56499W        W24873  25.081  15.254  14.412
56500W        W24874   4.348  44.836  13.364
56501W        W24875  31.058   1.801   1.824
56502W        W24876  37.004  23.511  12.569
56503W        W24877  15.780  28.045  14.426
56504W        W24878  44.778  23.089  14.923
56505W        W24879  36.949  27.485   2.269
56506W        W24880  30.432  40.959   1.224
56507W        W24881   6.822  40.962  13.451
56508W        W24882   4.415  28.958   2.327
56509W        W24883  22.600  34.510   1.725
56510W        W24884  18.619  42.305  12.398
56511W        W24885  25.648  39.329   4.733
56512W        W24886  44.488  29.167  12.938
56513W        W24887   6.703  11.213   0.905
56514W        W24888  25.536  41.458   3.296
56515W        W24889  36.062  37.421   3.644
56516W        W24890  24.594   1.262  14.431
56517W        W24891  19.541   3.759  13.404
56518W        W24892  44.439  16.660   4.757
56519W        W24893  11.666   4.896  11.066
56520W        W24894  17.561  26.520   2.389
56521W        W24895   7.691  38.015  11.116
56522W        W24896  26.107   9.805  11.445
56523W        W24897   9.661  17.557  11.016
56524W        W24898  40.344  38.495  12.976
56525W        W24899  33.524  19.145  11.915
56526W        W24900  22.583   3.397  10.078
56527W        W24901  20.553   9.676   2.261
56528W        W24902   0.360  17.080  13.900
56529W        W24903   8.211  11.707   2.711
56530W        W24904   8.271  19.160  14.301
56531W        W24905   8.737  42.794  14.023
56532W        W24906  38.921  40.936  10.504
56533W        W24907  38.866  26.547  11.122
56534W        W24908  24.659  35.868   4.661
56535W        W24909   2.815  13.325  13.535
56536W        W24910  29.049  34.415   2.686
56537W        W24911  14.778  12.358  12.092
56538W        W24912   2.844  21.606   0.960
56539W        W24913  33.069   1.752  12.456
56540W        W24914  40.964  42.020   0.772
56541W        W24915  42.005  10.225   4.166
56542W        W24916  29.936  14.820   1.885
56543W        W24917  27.071  29.482  10.034
56544W        W24918  11.667  24.542  14.006
56545W        W24919  19.164   6.287  10.404
56546W        W24920   2.388   4.424  10.445
56547W        W24921  44.005  33.033  13.385
56548W        W24922   2.958   7.293   2.692
56549W        W24923  15.209  36.055   4.643
56550W        W24924  18.774  18.062   3.756
56551W        W24925   3.249   9.320   3.832
56552W        W24926  17.675  22.516   0.798
56553W        W24927  25.698   0.914   3.265
56554W        W24928  43.359  33.012  10.620
56555W        W24929  14.731  16.808   2.793
56556W        W24930  37.919  30.609   1.896
56557W        W24931  44.320  32.100  14.359
56558W        W24932  38.375   5.691  11.522
56559W        W24933  13.691  29.919  12.897
56560W        W24934  29.450  35.480   2.414
56561W        W24935  20.692  37.861  10.013
56562W        W24936  13.683  41.407   0.313
56563W        W24937  21.519  19.127  13.462
56564W        W24938   7.852  21.686   2.368
56565W        W24939  32.959  39.355  14.320
56566W        W24940  23.512   9.379  13.032
56567W        W24941  11.687  22.012  14.976
56568W        W24942  36.462  38.346   1.281
56569W        W24943  33.458  28.591  13.014
56570W        W24944  18.620  21.190  14.869
56571W        W24945   5.302  43.386   4.742
56572W        W24946  18.186  29.488  14.497
56573W        W24947  33.037  41.926  13.817
56574W        W24948  35.370  23.512  14.009
56575W        W24949  16.317  19.278  11.918
56576W        W24950   7.892  26.687   4.154
56577W        W24951  35.078   4.930  12.052
56578W        W24952   3.311  28.518   3.228
56579W        W24953   8.857  13.163  11.504
56580W        W24954  44.413  12.784   1.337
56581W        W24955  11.193  41.999   1.439
56582W        W24956  39.964  43.503  13.834
56583W        W24957  40.524  35.880   3.289
56584W        W24958   6.354  23.998  13.859
56585W        W24959  16.152  44.437  11.123
56586W        W24960  13.187  32.925  13.001
56587W        W24961  18.223  24.222   4.239
56588W        W24962  27.135  31.488  11.955
56589W        W24963  39.481  10.655   2.685
56590W        W24964  22.562  35.885   4.272
56591W        W24965  17.158   8.811   2.663
56592W        W24966  16.754  25.575   4.721
56593W        W24967  19.632  12.779  13.867
56594W        W24968  32.040  37.927   3.300
56595W        W24969  24.655  31.973   9.546
56596W        W24970   8.721  40.416  11.945
56597W        W24971   4.371  20.248   4.743
56598W        W24972  37.017  14.642   4.792
56599W        W24973  14.608  24.484  11.372
56600W        W24974  25.567  27.551   2.738
56601W        W24975  35.483  29.994   4.654
56602W        W24976  37.346  17.651   3.828
56603W        W24977  33.908  17.205  14.419
56604W        W24978  25.079   9.845  11.497
56605W        W24979   4.236  43.981  11.886
56606W        W24980  33.939  35.950   5.197
56607W        W24981  36.515  20.108   3.838
56608W        W24982  13.309  26.673  14.410
56609W        W24983  43.946  31.132  14.348
56610W        W24984  16.180  21.658  10.478
56611W        W24985   5.859  31.949  11.574
56612W        W24986  44.390   2.729   0.753
56613W        W24987  43.281   0.750  12.917
56614W        W24988  14.805  43.927   2.409
56615W        W24989  16.113  42.310   4.326
56616W        W24990  43.388  21.232  11.113
56617W        W24991   1.862  37.510  14.334
56618W        W24992  14.333   3.216  12.577
56619W        W24993  23.676  22.519  10.938
56620W        W24994  35.548   4.295  14.976
56621W        W24995  39.435   0.823  12.052
56622W        W24996  30.996  28.522  10.952
56623W        W24997  38.820  43.795  12.556
56624W        W24998   3.713  33.931   3.855
56625W        W24999   0.949  34.009   2.835
56626W        W25000   6.384   4.390  13.058
56627W        W25001  43.492  21.176  14.339
56628W        W25002  26.183   3.954  12.991
56629W        W25003   9.705  19.153   4.602
56630W        W25004   1.477  18.751   1.225
56631W        W25005  38.509   1.880  12.881
56632W        W25006  21.084  39.935   3.649
56633W        W25007  43.407  36.438   3.698
56634W        W25008  11.681  10.158  10.621
56635W        W25009   7.820  37.388  10.077
56636W        W25010  39.921  27.546   1.397
56637W        W25011  37.067  34.534  12.432
56638W        W25012   5.392  37.541   2.231
56639W        W25013   8.278  10.171   0.778
56640W        W25014  41.028   2.300  13.398
56641W        W25015  26.668  23.735   3.772
56642W        W25016  24.531  16.705   0.780
56643W        W25017  38.518  27.102  11.599
56644W        W25018  13.765  22.725  12.834
56645W        W25019   9.748  32.485  12.431
56646W        W25020  16.127  22.563   0.399
56647W        W25021   9.307   0.970  14.934
56648W        W25022  44.798  27.178  13.986
56649W        W25023   6.802  15.656  10.463
56650W        W25024  41.523   7.320  12.086
56651W        W25025  19.220   8.340   4.158
56652W        W25026   5.923  28.067  13.495
56653W        W25027  12.341  18.610  14.383
56654W        W25028   8.229  13.703   1.866
56655W        W25029  18.579  16.753   2.232
56656W        W25030   2.791   2.796  12.525
56657W        W25031  23.660   9.725   3.652
56658W        W25032  12.711  32.930  13.796
56659W        W25033  42.437  44.417  14.340
56660W        W25034  11.845   9.755  11.085
56661W        W25035  20.705  23.149   4.731
56662W        W25036  25.175  36.887  14.497
56663W        W25037  10.660  38.071   0.249
56664W        W25038  38.975  39.409   3.698
56665W        W25039  34.434  39.053  11.915
56666W        W25040  17.747   9.797  11.562
56667W        W25041  24.624  24.492  10.556
56668W        W25042  36.384  31.417  11.391
56669W        W25043  15.299   3.318  13.820
56670W        W25044  17.739  12.616  14.896
56671W        W25045  16.213  39.908  12.491
56672W        W25046  27.192  37.396   1.255
56673W        W25047   0.755  24.182  14.899
56674W        W25048  20.163  10.865  14.410
56675W        W25049  24.107  16.113  12.068
56676W        W25050   6.740  39.968  13.536
56677W        W25051   5.392  23.173   4.828
56678W        W25052  36.891  33.542  11.443
56679W        W25053  14.683  19.254  13.843
56680W        W25054  14.278   9.790   0.439
56681W        W25055  17.760  15.809  14.792
56682W        W25056   9.267  31.624   4.167
56683W        W25057   7.896  29.111  13.930
56684W        W25058   6.781  29.134  12.578
56685W        W25059   5.203  42.358  11.123
56686W        W25060  41.852  23.734   2.267
56687W        W25061  10.270   5.382  14.992
56688W        W25062  37.961  31.135  10.609
56689W        W25063  20.552  28.536  11.409
56690W        W25064  21.620   3.898  11.564
56691W        W25065  34.564   8.349  10.504
56692W        W25066  37.002   6.778   3.168
56693W        W25067  11.236  32.892   3.146
56694W        W25068   6.875  15.792   4.299
56695W        W25069  42.811  30.437   4.674
56696W        W25070  18.213   5.764  13.523
56697W        W25071  23.144  15.322  10.143
56698W        W25072  16.305  40.951   2.689
56699W        W25073  15.691  31.620  11.074
56700W        W25074   2.876  43.806  13.442
56701W        W25075  14.622  20.644  13.954
56702W        W25076  28.008  14.827   1.362
56703W        W25077  20.156  33.904   4.306
56704W        W25078   8.819   9.855  13.810
56705W        W25079  21.662  32.030  14.472
56706W        W25080   6.270  27.039  11.106
56707W        W25081   0.263  23.546  10.516
56708W        W25082  20.178  25.994   0.446
56709W        W25083  34.373  34.948  13.024
56710W        W25084  32.951  29.072   0.243
56711W        W25085   6.314  18.105  14.848
56712W        W25086  20.710   1.790   4.121
56713W        W25087  21.603  22.524  11.403
56714W        W25088  35.497  38.366  14.935
56715W        W25089  17.087   8.308   4.173
56716W        W25090  41.497  39.824   2.186
56717W        W25091  31.546  11.737   4.648
56718W        W25092   1.964  26.147   1.271
56719W        W25093  38.555  30.052  13.015
56720W        W25094  12.321   0.871   0.863
56721W        W25095  21.622  20.524   1.919
56722W        W25096  24.129  25.206   5.166
56723W        W25097  40.993   5.756  14.816
56724W        W25098  35.573  23.139   3.825
56725W        W25099   2.743  32.097  11.951
56726W        W25100  24.591  25.991   3.239
56727W        W25101  15.606   5.777   3.247
56728W        W25102  30.497  11.630  10.446
56729W        W25103  33.104   7.770   3.756
56730W        W25104  41.413  42.824  13.411
56731W        W25105   8.828   5.255   9.944
56732W        W25106  41.990  11.863   0.407
56733W        W25107  33.997  44.337  14.955
56734W        W25108  13.715  19.547  14.808
56735W        W25109  15.718  15.663   5.121
56736W        W25110  35.477  30.907  14.383
56737W        W25111  30.074  24.005  11.607
56738W        W25112  17.715  15.127   0.349
56739W        W25113  12.241   2.748  14.385
56740W        W25114  44.381  44.784  13.543
56741W        W25115   9.695   2.838  13.528
56742W        W25116  42.490   8.187  14.322
56743W        W25117  21.748  27.581   3.283
56744W        W25118  34.432  35.518  10.600
56745W        W25119  29.951   7.874   0.395
56746W        W25120  36.593  29.518   1.340
56747W        W25121  43.891  18.679  10.991
56748W        W25122  27.587  11.776   2.748
56749W        W25123  37.548  38.847  11.418
56750W        W25124  15.716  34.375  11.577
56751W        W25125  33.909  17.090   0.862
56752W        W25126   2.370   6.216  13.058
56753W        W25127  29.006  25.538   3.330
56754W        W25128  20.615   7.213   0.293
56755W        W25129  30.074  18.063  12.948
56756W        W25130   0.415  30.018  12.351
56757W        W25131  17.684  17.681   2.325
56758W        W25132  19.708  36.039   1.424
56759W        W25133   5.207  38.509  10.429
56760W        W25134  23.598  33.978   4.717
56761W        W25135  36.414  25.203  13.508
56762W        W25136   9.773  35.414  13.381
56763W        W25137  20.573  33.616  13.370
56764W        W25138  43.824  23.490   3.225
56765W        W25139   5.328  31.931  11.491
56766W        W25140   1.443  28.138  13.404
56767W        W25141  26.670  15.790   4.799
56768W        W25142  32.036   9.364   0.304
56769W        W25143  34.967   0.880   2.861
56770W        W25144  43.873  11.664  11.544
56771W        W25145  11.863   3.713   1.900
56772W        W25146   2.303  32.470   1.281
56773W        W25147  43.773   0.971   3.669
56774W        W25148  24.526  15.804  12.517
56775W        W25149  37.061  30.965   4.251
56776W        W25150  41.413   6.846  12.909
56777W        W25151  34.915   2.302  12.461
56778W        W25152  44.005  40.869   3.768
56779W        W25153  10.159  30.941   3.313
56780W        W25154  16.780  11.755   1.797
56781W        W25155  14.287  37.555  12.858
56782W        W25156  16.735  13.244  14.914
56783W        W25157   8.861  27.140   1.783
56784W        W25158  37.397  16.226   0.847
56785W        W25159   7.238  27.974  14.765
56786W        W25160  42.015  37.359   0.958
56787W        W25161   0.876  28.146  14.973
56788W        W25162  37.548  11.781   4.166
56789W        W25163  37.517  31.472   4.252
56790W        W25164  11.792  17.743  14.341
56791W        W25165  44.449  28.152   3.815
56792W        W25166  19.117  34.015  14.760
56793W        W25167  26.177  42.002  10.903
56794W        W25168  21.146   0.967   4.705
56795W        W25169  30.943   4.225   2.206
56796W        W25170  32.895  12.790   1.412
56797W        W25171  11.210  34.933   2.232
56798W        W25172  31.122  22.219  14.418
56799W        W25173   8.673  41.299  12.463
56800W        W25174  39.388  20.716   2.695
56801W        W25175   5.397  38.846  14.887
56802W        W25176  34.489  15.196   0.909
56803W        W25177  35.910  11.135  13.927
56804W        W25178  31.466   8.901  13.427
56805W        W25179   2.329   4.207  12.980
56806W        W25180  26.570  30.498   0.851
56807W        W25181  28.545  41.815   2.281
56808W        W25182  26.037  32.903   0.797
56809W        W25183  32.582   1.283   3.632
56810W        W25184  42.468  11.733  10.473
56811W        W25185  13.286   5.926  14.435
56812W        W25186  27.139  43.850   0.427
56813W        W25187  17.710   7.842   2.703
56814W        W25188   2.800  19.279   0.765
56815W        W25189  41.941  37.527   5.178
56816W        W25190  32.458  43.780   2.360
56817W        W25191  21.585   6.907   2.180
56818W        W25192  44.814  40.813   1.730
56819W        W25193   2.313  10.315  12.936
56820W        W25194  11.844   5.359   3.228
56821W        W25195  16.162  35.363   1.401
56822W        W25196  32.923  24.651   1.328
56823W        W25197   2.826  19.570  10.524
56824W        W25198   3.714   7.743  11.934
56825W        W25199  40.985   5.273  14.378
56826W        W25200  18.254  16.568  14.955
56827W        W25201   8.826   6.330   2.782
56828W        W25202  16.692  13.824  13.040
56829W        W25203  16.247  11.653  10.984
56830W        W25204  14.822  21.668   3.274
56831W        W25205   9.748  28.620  13.509
56832W        W25206   1.282  14.183   0.312
56833W        W25207   8.812  17.153   0.903
56834W        W25208  43.012  44.485  14.857
56835W        W25209  16.636  22.623   1.283
56836W        W25210  19.095   7.409  11.609
56837W        W25211  14.213  16.612   4.624
56838W        W25212  23.683  27.108  13.429
56839W        W25213   4.708   5.400  14.858
56840W        W25214  42.951  33.448  13.456
56841W        W25215  30.961  26.205   2.373
56842W        W25216  41.466   4.409   2.898
56843W        W25217  10.651   8.365  10.988
56844W        W25218  21.214   8.830   2.325
56845W        W25219  39.521  33.130   4.298
56846W        W25220  21.263  12.215   0.453
56847W        W25221   4.910   8.327   2.879
56848W        W25222  25.072  22.125  14.461
56849W        W25223  16.763  12.655   2.726
56850W        W25224  32.914  31.050  12.908
56851W        W25225  14.166  28.168   0.299
56852W        W25226   3.849  35.398  12.832
56853W        W25227  25.063   6.805  14.289
56854W        W25228  34.038   1.288  12.000
56855W        W25229  18.688  28.087  14.439
56856W        W25230  37.004  17.710   1.243
56857W        W25231  10.687  18.598   4.665
56858W        W25232  20.694  26.191   0.292
56859W        W25233  34.931  44.439   5.107
56860W        W25234  11.711  21.735   0.398
56861W        W25235  25.163  10.230  13.422
56862W        W25236  42.407  33.903   0.749
56863W        W25237   7.685  17.587  10.576
56864W        W25238   7.335   3.882  14.474
56865W        W25239   1.463   0.755  13.857
56866W        W25240  40.956   0.464   2.727
56867W        W25241   4.776  17.281  14.461
56868W        W25242  37.940  42.814   1.438
56869W        W25243  14.171  30.004  14.458
56870W        W25244  11.805  40.024  11.873
56871W        W25245   9.285  17.773  11.387
56872W        W25246  23.055  39.366  13.810
56873W        W25247  36.400  30.629   4.305
56874W        W25248  32.053  24.723   3.238
56875W        W25249  23.222  17.678  13.394
56876W        W25250  32.589  25.991  11.469
56877W        W25251  30.939  19.654   2.185
56878W        W25252  29.150  12.740  11.519
56879W        W25253  16.717  20.735   1.883
56880W        W25254  13.142   5.376  12.831
56881W        W25255   2.249  34.066  14.997
56882W        W25256  35.968  15.231   0.779
56883W        W25257   1.384  43.467   4.345
56884W        W25258  43.373  17.623  14.347
56885W        W25259  44.854   2.470  12.970
56886W        W25260  40.332  19.602  11.514
56887W        W25261  16.242  12.624  11.875
56888W        W25262  42.018  18.242  12.440
56889W        W25263   1.768  20.125  13.012
56890W        W25264   6.287  11.314   3.208
56891W        W25265  35.960  38.050   4.639
56892W        W25266   6.198  23.047  12.857
56893W        W25267  31.596  30.553  14.342
56894W        W25268  13.780   6.777   0.940
56895W        W25269  10.840   5.899   3.245
56896W        W25270  31.044  43.867  11.559
56897W        W25271  32.112  19.646  11.600
56898W        W25272  27.150  27.022  12.544
56899W        W25273  40.392  16.078  11.919
56900W        W25274   5.835  38.356   1.231
56901W        W25275  42.883  12.616  13.002
56902W        W25276  24.012   8.351   4.305
56903W        W25277  37.933  35.989  12.429
56904W        W25278  28.978  42.029   0.773
56905W        W25279  28.117  36.860  12.090
56906W        W25280   0.454  27.033  10.921
56907W        W25281   7.300   7.328  12.038
56908W        W25282   2.270   2.423   0.415
56909W        W25283   3.447  24.650  13.379
56910W        W25284   5.927  16.163   0.866
56911W        W25285  36.519  42.024   1.934
56912W        W25286   7.331  12.201  11.483
56913W        W25287  11.833  40.525  12.002
56914W        W25288   8.301  38.423  14.919
56915W        W25289  23.162  32.471  13.340
56916W        W25290  40.392  40.390  13.512
56917W        W25291  36.408   8.680   4.158
56918W        W25292  42.337  35.585  13.037
56919W        W25293   4.230  32.083  11.104
56920W        W25294   8.698  14.612   4.298
56921W        W25295  32.109   9.841   1.804
56922W        W25296  32.449  41.510  11.001
56923W        W25297  11.679  23.200   3.153
56924W        W25298  36.545  16.762  13.455
56925W        W25299  35.590  37.392  12.956
56926W        W25300   3.901  11.777   2.844
56927W        W25301  31.037  43.870  14.947
56928W        W25302  15.701  27.661  10.642
56929W        W25303   3.875  17.128   0.438
56930W        W25304  32.583  39.446  12.524
56931W        W25305  20.612  31.101  12.046
56932W        W25306  41.404   3.824   4.298
56933W        W25307   8.262   5.422   4.752
56934W        W25308  21.559  27.625   2.285
56935W        W25309  21.206  34.484   4.193
56936W        W25310  20.747  36.347  11.436
56937W        W25311   6.912  15.625   3.853
56938W        W25312   5.739  34.558   0.250
56939W        W25313  12.157  44.433   1.794
56940W        W25314  11.254  12.141  10.560
56941W        W25315  23.574  19.548  10.480
56942W        W25316  23.996  40.473   1.819
56943W        W25317   9.787   4.301  12.354
56944W        W25318  31.044  38.904  12.521
56945W        W25319  27.635  36.437  11.870
56946W        W25320  14.655  40.496  13.412
56947W        W25321   6.769   4.702   0.803
56948W        W25322   3.456  20.224  10.572
56949W        W25323  36.068  26.559  10.630
56950W        W25324  44.951  35.494  12.961
56951W        W25325  44.321  18.584  13.916
56952W        W25326  10.870  44.339  12.369
56953W        W25327  32.624  10.763   0.246
56954W        W25328  17.676  27.953  14.800
56955W        W25329  20.576   0.763  12.088
56956W        W25330  32.120   0.413  13.532
56957W        W25331  40.966  42.026   1.901
56958W        W25332  44.352  21.692  13.874
56959W        W25333  27.974  21.102  13.407
56960W        W25334  22.097   7.396  10.589
56961W        W25335  19.585  31.052  12.368
56962W        W25336  38.932   9.292  14.947
56963W        W25337  34.478  11.203  10.450
56964W        W25338   9.836  13.825  13.465
56965W        W25339  24.087  28.013  13.478
56966W        W25340  18.739  11.742  11.934
56967W        W25341  17.079  25.568  12.888
56968W        W25342   9.375   9.386  12.364
56969W        W25343  15.633   3.269  12.372
56970W        W25344   4.930   0.806   0.350
56971W        W25345   4.825  39.376   3.653
56972W        W25346  26.019   3.830   2.698
56973W        W25347  18.571  18.676  12.955
56974W        W25348  31.497  14.098  11.605
56975W        W25349  14.742  26.076  13.522
56976W        W25350  30.629  43.934  10.449
56977W        W25351   2.472   4.427   0.340
56978W        W25352  34.039  37.548   2.901
56979W        W25353  12.643  31.460   1.865
56980W        W25354   5.724   9.833   2.373
56981W        W25355  38.395  43.453   4.125
56982W        W25356  35.469   7.263   1.820
56983W        W25357  41.877   3.372   3.317
56984W        W25358  23.226   7.706   3.182
56985W        W25359  21.264  19.590  11.443
56986W        W25360  29.018  24.571  11.451
56987W        W25361  22.550  14.617  13.838
56988W        W25362  17.608  25.689   2.767
56989W        W25363  43.430  23.539  12.396
56990W        W25364  21.741  18.780  14.433
56991W        W25365   4.898  21.260   3.642
56992W        W25366  22.177  13.837   4.740
56993W        W25367   4.312  42.386  13.548
56994W        W25368  33.409   8.818   2.873
56995W        W25369  12.273  12.195  12.540
56996W        W25370  29.628  38.472   4.648
56997W        W25371  19.735  32.010  14.374
56998W        W25372  21.754  17.678  12.438
56999W        W25373  22.179   9.872   4.732
57000W        W25374  11.761  26.074   4.219
57001W        W25375  30.015   6.705   0.808
57002W        W25376  39.848   2.453  10.587
57003W        W25377  42.816   6.181   4.297
57004W        W25378  18.179  39.036   0.451
57005W        W25379  37.876  30.506  10.592
57006W        W25380  33.581  19.722   3.668
57007W        W25381  16.767   1.383   3.870
57008W        W25382   0.449   6.764  12.537
57009W        W25383  14.120   5.431  12.984
57010W        W25384  35.951  29.550  12.883
57011W        W25385   0.786  34.436   4.316
57012W        W25386   0.339  33.616  13.336
57013W        W25387  37.853  17.794  11.551
57014W        W25388  21.209   6.834   2.291
57015W        W25389  24.565  40.871   1.210
57016W        W25390  16.164  33.062   2.298
57017W        W25391  22.615   8.228   0.940
57018W        W25392  15.327  33.404   0.788
57019W        W25393   8.775  10.356  11.552
57020W        W25394  16.743  44.317   3.386
57021W        W25395   9.706  20.074  14.779
57022W        W25396  20.051  40.003   3.367
57023W        W25397   4.729  36.588   4.234
57024W        W25398  33.894  31.413  14.858
57025W        W25399  22.158  31.148   4.674
57026W        W25400  16.702  14.821  10.499
57027W        W25401  26.593   5.773   2.778
57028W        W25402  35.405  20.242   4.749
57029W        W25403   8.883  28.178  11.515
57030W        W25404  33.019  16.103   2.779
57031W        W25405   4.246  26.588  10.496
57032W        W25406   8.886   5.783  12.992
57033W        W25407  15.198  11.149  10.408
57034W        W25408  11.217   8.898   1.777
57035W        W25409  38.918   2.919  14.888
57036W        W25410  11.187  15.821   1.451
57037W        W25411  16.787   6.894  13.020
57038W        W25412  36.933  22.222   3.825
57039W        W25413  20.655   6.380   4.704
57040W        W25414  29.629  16.704   3.289
57041W        W25415  29.175  25.989  11.985
57042W        W25416  26.502  15.174  10.598
57043W        W25417   1.942  29.622  14.996
57044W        W25418  12.143  24.086   2.720
57045W        W25419  40.543  15.675  11.383
57046W        W25420   0.450   1.792   1.406
57047W        W25421  12.667  20.637  11.064
57048W        W25422  36.373   8.869   5.289
57049W        W25423   7.904  33.486  12.908
57050W        W25424  28.119  33.121  11.590
57051W        W25425  16.121  34.099   0.379
57052W        W25426  27.586  14.231   1.694
57053W        W25427  34.974  14.313   2.813
57054W        W25428  27.963  16.647   2.890
57055W        W25429  18.139  33.499   2.214
57056W        W25430  25.181  14.100  14.453
57057W        W25431  14.120  19.669  12.852
57058W        W25432  41.886   0.258  14.957
57059W        W25433  31.116  21.069   2.785
57060W        W25434  13.814  29.970   0.365
57061W        W25435  39.361   3.801  11.874
57062W        W25436  23.127   1.367  14.775
57063W        W25437   5.414  29.003   1.923
57064W        W25438  18.707  14.666  14.390
57065W        W25439  43.284  12.282   4.680
57066W        W25440  21.147  12.249   1.879
57067W        W25441  26.475  26.566   2.769
57068W        W25442  10.251  29.042  13.040
57069W        W25443  25.648  31.138  10.554
57070W        W25444  40.890  27.192   3.227
57071W        W25445  36.935  19.762  10.458
57072W        W25446   9.383  21.120  14.818
57073W        W25447   1.376  30.440  14.964
57074W        W25448  37.911  39.905  11.508
57075W        W25449  32.519   2.892  11.125
57076W        W25450  18.657   3.883  14.383
57077W        W25451   6.815  44.311   4.232
57078W        W25452  21.026  24.515   2.281
57079W        W25453  28.464  31.606   2.773
57080W        W25454  19.723  20.673  14.983
57081W        W25455  27.488   1.919   2.334
57082W        W25456  24.497  22.146  10.530
57083W        W25457  33.998   8.245   0.366
57084W        W25458  25.183  26.544  12.844
57085W        W25459   3.380   1.377  11.481
57086W        W25460  21.115  28.631  14.762
57087W        W25461  19.116  39.467  14.465
57088W        W25462  31.073   9.325  13.057
57089W        W25463  41.799   8.705   2.312
57090W        W25464  35.909  35.368  14.964
57091W        W25465  32.398   7.838   2.875
57092W        W25466  30.017  29.604   2.878
57093W        W25467   5.312   3.888  11.448
57094W        W25468   2.879  36.462  14.809
57095W        W25469  24.566  10.275  10.038
57096W        W25470  41.401  37.580  13.469
57097W        W25471  29.981  16.229  12.016
57098W        W25472   3.916   4.884  14.280
57099W        W25473   3.886  36.932   3.869
57100W        W25474  16.307  16.604   2.704
57101W        W25475  25.532  39.313  10.513
57102W        W25476  34.520  17.216  12.428
57103W        W25477   4.331  23.735  13.508
57104W        W25478  41.830  36.064  10.891
57105W        W25479   3.911  28.554   3.644
57106W        W25480  15.818   0.492   3.173
57107W        W25481  35.371  18.582   0.867
57108W        W25482  44.462   2.346  12.943
57109W        W25483   3.449  32.952  13.507
57110W        W25484  37.543   9.284  14.397
57111W        W25485  22.504  36.362  11.383
57112W        W25486   7.344   9.865   3.828
57113W        W25487   8.702  18.745   1.301
57114W        W25488  21.678  30.066   3.288
57115W        W25489  41.920  20.718  12.827
57116W        W25490  31.569  36.561  13.354
57117W        W25491  12.214  15.694   0.278
57118W        W25492  44.778  39.519   3.192
57119W        W25493  38.932   2.828  10.493
57120W        W25494  13.719  19.658   1.280
57121W        W25495  15.607  34.545  10.566
57122W        W25496  28.590  44.912  12.508
57123W        W25497  25.064  29.609   2.668
57124W        W25498  19.560  41.504  10.640
57125W        W25499   5.757   9.280   1.813
57126W        W25500  24.005  40.015  13.940
57127W        W25501  26.489  19.547  10.116
57128W        W25502  21.694   2.278   3.824
57129W        W25503  25.172  29.548   2.339
57130W        W25504  23.563  17.211   4.301
57131W        W25505  39.872  26.069   3.320
57132W        W25506   1.332  39.001   2.834
57133W        W25507  22.716   1.754   9.926
57134W        W25508   8.836  40.355  14.368
57135W        W25509  28.475  20.130  10.911
57136W        W25510  28.054   3.858  10.600
57137W        W25511  32.599  30.060  11.545
57138W        W25512   2.336  13.228   0.340
57139W        W25513   3.282  12.184  10.903
57140W        W25514  21.262  16.172   4.619
57141W        W25515  23.493   1.399  11.961
57142W        W25516   0.964  11.282  11.382
57143W        W25517  15.815  23.161   0.328
57144W        W25518  34.094   9.248  14.955
57145W        W25519  31.978  22.658   2.228
57146W        W25520  18.101   5.858  13.829
57147W        W25521  22.104  44.334   0.892
57148W        W25522   1.438  24.170   1.714
57149W        W25523  27.156  42.855   0.362
57150W        W25524  12.312  33.529  13.377
57151W        W25525  18.616  29.129  14.793
57152W        W25526  42.819  11.332   2.269
57153W        W25527  27.620  29.540  12.432
57154W        W25528   7.222  41.992  12.995
57155W        W25529   9.298  35.590   4.132
57156W        W25530  27.008  11.284   2.769
57157W        W25531   9.667  29.168  12.836
57158W        W25532   9.234   0.400  12.422
57159W        W25533  44.935   4.215   1.364
57160W        W25534  10.171   9.336  13.456
57161W        W25535  30.473   5.791  14.841
57162W        W25536   0.980  30.088   4.338
57163W        W25537  17.700  29.018  14.481
57164W        W25538  24.686  43.398   1.256
57165W        W25539  18.736   4.924   0.336
57166W        W25540  14.795  13.677   4.182
57167W        W25541  25.584  34.466   2.674
57168W        W25542  33.011   1.339  13.858
57169W        W25543  24.039  36.062   1.242
57170W        W25544   2.399  24.214  10.574
57171W        W25545  30.924   6.275   1.846
57172W        W25546   4.303  33.496  14.392
57173W        W25547  44.435  21.099  13.981
57174W        W25548  30.536  17.745   1.795
57175W        W25549  16.139  40.306  12.340
57176W        W25550   2.827  27.186  12.095
57177W        W25551  17.580  18.213  13.536
57178W        W25552   5.707  37.848  12.452
57179W        W25553  33.565  11.683  13.985
57180W        W25554  35.920  43.018   3.177
57181W        W25555  29.475  22.118   0.939
57182W        W25556  24.062  41.533   2.333
57183W        W25557   7.244  25.593   5.165
57184W        W25558   9.658  36.552  10.444
57185W        W25559  34.035  28.042  10.506
57186W        W25560  23.211  16.779   2.256
57187W        W25561  28.462  26.654  13.981
57188W        W25562   4.921   1.770  11.417
57189W        W25563  17.236  12.804   4.242
57190W        W25564  36.400  41.390   4.601
57191W        W25565  24.183  38.435  13.881
57192W        W25566  29.523  14.333   3.223
57193W        W25567  23.200   5.746   3.746
57194W        W25568  35.990   7.712   0.299
57195W        W25569  23.618  41.032   0.804
57196W        W25570  35.574  18.221   2.349
57197W        W25571  34.585  29.551  13.865
57198W        W25572  16.718  30.091   0.331
57199W        W25573  14.180  15.758  13.361
57200W        W25574  20.271  11.724  13.818
57201W        W25575  16.635  33.982   2.362
57202W        W25576  30.980   1.967  10.615
57203W        W25577   9.857   2.435   4.262
57204W        W25578  31.437  40.433   4.739
57205W        W25579  27.655  29.589   1.437
57206W        W25580  17.084  33.561  12.055
57207W        W25581   2.774  21.717   3.150
57208W        W25582   3.438  23.509  11.525
57209W        W25583  17.264  37.496   3.290
57210W        W25584  24.011   2.778  14.803
57211W        W25585   7.773  19.129   2.664
57212W        W25586  15.262   5.202  10.498
57213W        W25587  41.002  25.697   0.413
57214W        W25588  13.345  38.834   3.799
57215W        W25589   5.264  30.075  10.411
57216W        W25590   1.411  22.661  11.383
57217W        W25591  28.121  41.393   3.226
57218W        W25592  44.926  19.044   1.306
57219W        W25593   2.344  39.441   2.303
57220W        W25594  44.346   3.808   1.228
57221W        W25595  23.212  17.094  13.856
57222W        W25596  16.609  23.567   0.463
57223W        W25597  16.297   0.412   2.270
57224W        W25598  16.750  28.530   1.781
57225W        W25599  41.925   3.444   5.086
57226W        W25600  14.130  18.586   2.206
57227W        W25601  35.362  29.535  13.432
57228W        W25602   9.303   0.930   0.890
57229W        W25603  18.075  41.411  14.456
57230W        W25604  20.214  39.414  12.826
57231W        W25605  31.097  32.628  10.521
57232W        W25606   5.359  24.680  11.474
57233W        W25607  43.983  44.753  12.432
57234W        W25608  20.760  29.119   3.382
57235W        W25609  17.570   5.842  13.944
57236W        W25610  39.967  24.657   0.266
57237W        W25611  37.969  26.067  14.330
57238W        W25612  37.561  31.067  14.012
57239W        W25613  39.811  20.235   4.669
57240W        W25614  14.102   7.240   0.243
57241W        W25615   0.831  10.243  12.007
57242W        W25616  15.145  17.578   4.189
57243W        W25617  31.023  32.021  13.890
57244W        W25618  16.654  22.688   4.695
57245W        W25619  44.904  43.430  11.460
57246W        W25620  43.480  16.121  14.955
57247W        W25621  36.934   1.353   4.239
57248W        W25622  32.513   9.233   4.163
57249W        W25623  13.614  25.171  12.553
57250W        W25624   2.921  23.237   3.837
57251W        W25625   0.417   2.256  12.555
57252W        W25626  32.398  44.294   3.271
57253W        W25627  21.245  44.264   3.171
57254W        W25628  17.269  13.180  10.490
57255W        W25629   3.216  16.653   2.320
57256W        W25630  26.468   5.849   0.857
57257W        W25631  44.367   2.392  12.543
57258W        W25632  14.243  22.644  10.496
57259W        W25633  21.148  26.167   2.337
57260W        W25634   7.359   4.941   2.346
57261W        W25635  43.879  28.553  12.976
57262W        W25636  34.002  24.581   1.369
57263W        W25637  34.497  14.137   4.153
57264W        W25638  44.848  35.451  14.956
57265W        W25639  15.680   4.704   1.830
57266W        W25640  27.676  13.624   2.781
57267W        W25641  44.400  30.023   2.767
57268W        W25642  19.717  33.563  12.528
57269W        W25643   1.410  31.498   4.250
57270W        W25644  13.223  29.145   5.094
57271W        W25645  21.116  30.535  10.418
57272W        W25646  25.621  40.949  12.830
57273W        W25647  42.861   2.808   0.906
57274W        W25648  30.627   3.402   2.812
57275W        W25649  44.297  13.821  11.588
57276W        W25650  43.416  15.632  14.456
57277W        W25651  37.459   1.336   0.285
57278W        W25652  21.605   6.873   1.236
57279W        W25653  35.104  24.072   4.620
57280W        W25654  38.993  42.328   0.390
57281W        W25655  28.110  32.572  10.437
57282W        W25656  17.632  16.280   3.801
57283W        W25657  27.057   6.319  10.477
57284W        W25658  16.234  14.323   1.932
57285W        W25659  39.004  17.252  12.980
57286W        W25660  39.840  31.997  12.466
57287W        W25661  16.626  14.781   3.328
57288W        W25662  16.631  16.647   4.790
57289W        W25663  31.533  21.608   1.759
57290W        W25664  22.518  16.089  14.410
57291W        W25665  35.079  28.526   0.480
57292W        W25666  12.257  27.639   4.687
57293W        W25667  28.559  26.160  10.433
57294W        W25668  21.530  37.435   4.338
57295W        W25669  31.454   4.350  13.956
57296W        W25670  32.991  40.799  12.473
57297W        W25671   9.793  12.696   2.770
57298W        W25672  15.172  15.197  14.455
57299W        W25673   7.288  38.430  11.935
57300W        W25674  42.871  23.725   2.824
57301W        W25675  42.788  19.269  10.539
57302W        W25676  25.003  36.503   1.357
57303W        W25677  14.663  20.240  14.790
57304W        W25678  16.073  37.842  13.023
57305W        W25679  29.459  16.124   1.737
57306W        W25680  20.044  11.856   4.336
57307W        W25681  27.476  42.997   1.715
57308W        W25682  24.553  11.864  13.975
57309W        W25683  39.550   6.894   9.450
57310W        W25684  35.082  12.707   0.846
57311W        W25685  25.525   9.694   4.767
57312W        W25686  20.255  32.935   3.269
57313W        W25687  17.779  29.491   3.754
57314W        W25688  37.405  17.112   2.414
57315W        W25689  13.798   6.248   4.708
57316W        W25690   2.263   8.399  13.980
57317W        W25691  29.162   2.759  11.518
57318W        W25692  28.112  13.682  11.428
57319W        W25693  14.609  13.782   2.260
57320W        W25694  36.966  38.963  14.937
57321W        W25695  13.336   7.409   0.945
57322W        W25696   2.885  37.451   3.635
57323W        W25697  11.218  16.171  12.838
57324W        W25698   4.891  17.555  11.406
57325W        W25699  29.583  21.726  14.428
57326W        W25700  11.638  11.139  11.983
57327W        W25701  40.882   1.400  11.017
57328W        W25702   6.224  27.004   4.173
57329W        W25703  14.690  12.134  11.563
57330W        W25704  40.455  28.980  12.408
57331W        W25705  17.135   0.342  11.955
57332W        W25706  32.459  41.387  11.935
57333W        W25707  13.635  24.199   0.330
57334W        W25708  16.808  12.837  12.450
57335W        W25709  28.100  27.463   0.451
57336W        W25710  26.040  36.438  13.033
57337W        W25711  36.057  12.788  14.296
57338W        W25712  38.991  28.628   1.432
57339W        W25713  24.655  41.874   4.302
57340W        W25714  44.915  10.278  13.985
57341W        W25715  13.802  19.250   2.790
57342W        W25716  25.676  21.208  10.146
57343W        W25717  39.058  28.145  14.959
57344W        W25718   0.787  33.531   0.960
57345W        W25719  36.484  30.971  13.348
57346W        W25720  12.165  20.566   4.754
57347W        W25721  23.125  29.961   1.298
57348W        W25722  32.970  29.963   2.834
57349W        W25723  35.862  43.294  13.465
57350W        W25724  14.796  31.026  13.951
57351W        W25725   4.786  12.674  13.020
57352W        W25726  20.223  16.638   4.685
57353W        W25727  12.711  34.011  14.946
57354W        W25728  16.310   6.338   2.737
57355W        W25729  12.743   3.286   0.313
57356W        W25730  29.060  31.993   0.922
57357W        W25731  37.959   5.355   0.410
57358W        W25732  19.538  37.014  10.605
57359W        W25733  40.321  25.510   1.749
57360W        W25734  37.453  12.702  13.373
57361W        W25735   5.918  42.022  14.772
57362W        W25736  21.185  34.456  13.996
57363W        W25737  26.652   8.813  10.000
57364W        W25738  14.699  32.074   1.725
57365W        W25739   5.323   1.782  11.518
57366W        W25740  23.604  31.604  10.023
57367W        W25741   0.833  28.565   4.220
57368W        W25742   0.365  24.608  12.419
57369W        W25743  25.492   8.165   1.265
57370W        W25744  37.977  10.335   2.182
57371W        W25745  11.268  42.968   2.835
57372W        W25746  27.140  30.450  14.954
57373W        W25747  16.640  10.377  12.838
57374W        W25748  24.180  14.825  14.437
57375W        W25749  18.652   8.814  14.875
57376W        W25750   0.872  15.699   1.852
57377W        W25751  12.347  16.754  12.034
57378W        W25752  37.342  41.903  12.081
57379W        W25753   0.874  29.587  14.832
57380W        W25754  26.673   2.268  10.609
57381W        W25755   8.700  24.190   4.817
57382W        W25756  33.389  11.167   3.301
57383W        W25757   7.303  41.014  10.457
57384W        W25758  16.703  44.408   4.166
57385W        W25759   1.916   7.216  12.833
57386W        W25760  34.921  19.762   5.287
57387W        W25761  36.842  11.232   4.601
57388W        W25762  43.422  13.712   4.663
57389W        W25763  29.485   1.398  14.943
57390W        W25764   6.240  22.175  11.051
57391W        W25765  44.884  22.729  10.630
57392W        W25766  24.139  27.613  14.875
57393W        W25767  13.232  33.569   4.320
57394W        W25768   0.919   3.860  14.901
57395W        W25769  19.149   7.902   4.210
57396W        W25770  10.252   5.763   4.805
57397W        W25771   9.267   9.650   1.421
57398W        W25772  40.530   6.689   3.236
57399W        W25773   8.265   0.966   2.379
57400W        W25774   0.945  17.260   1.805
57401W        W25775   8.353  28.486  14.421
57402W        W25776  30.014  26.185  11.421
57403W        W25777  29.175  23.723  11.946
57404W        W25778  37.838  23.994   0.451
57405W        W25779  10.755   6.201  14.829
57406W        W25780  38.423  12.329   3.261
57407W        W25781  28.186  18.689   3.775
57408W        W25782  16.716  40.970   2.312
57409W        W25783  43.798  38.953   1.886
57410W        W25784  12.159  23.081   1.407
57411W        W25785  43.951  32.478  13.522
57412W        W25786  33.470  25.668  10.541
57413W        W25787  17.252   1.921  14.811
57414W        W25788  37.942  25.629  14.894
57415W        W25789  30.010  25.200   2.321
57416W        W25790   1.401  20.606   1.930
57417W        W25791  18.563  30.968   3.196
57418W        W25792   0.317   9.281  13.874
57419W        W25793  42.782   5.301  13.907
57420W        W25794   4.362  22.069  13.971
57421W        W25795  23.174  24.545   0.398
57422W        W25796  20.196  17.768  12.348
57423W        W25797  35.391  35.472   1.384
57424W        W25798  15.294  22.572   3.748
57425W        W25799   7.821  27.558   0.285
57426W        W25800  41.939  35.938   4.794
57427W        W25801   3.860  35.954   4.143
57428W        W25802  37.833  14.699  14.507
57429W        W25803  37.568   2.392  11.092
57430W        W25804  24.488   5.398  14.948
57431W        W25805   7.739  42.961   5.316
57432W        W25806   9.778  39.318   0.761
57433W        W25807  20.608  10.694  12.885
57434W        W25808  24.181   6.263  13.036
57435W        W25809   4.755  37.402  11.027
57436W        W25810   6.692  35.944  13.534
57437W        W25811  14.680   6.801   4.329
57438W        W25812  27.634   1.278  14.766
57439W        W25813  26.036  15.107  14.389
57440W        W25814  39.495   9.352  12.018
57441W        W25815   5.261  41.538  14.482
57442W        W25816  20.095  15.593  10.996
57443W        W25817  27.179  26.206  14.418
57444W        W25818   5.283  26.565  10.616
57445W        W25819  27.141   1.890  12.074
57446W        W25820  12.210   2.898   1.774
57447W        W25821  35.102  26.656   2.763
57448W        W25822  44.882  28.556   4.832
57449W        W25823  44.297  24.148  12.997
57450W        W25824  25.553   7.818  13.445
57451W        W25825  36.533  13.754  11.539
57452W        W25826  41.928  26.485   1.773
57453W        W25827  41.799   7.716  12.875
57454W        W25828  35.963  27.946   2.388
57455W        W25829  40.982  18.125   4.609
57456W        W25830  16.187  25.193  14.436
57457W        W25831  40.049  33.416   4.119
57458W        W25832  34.388  38.328  14.893
57459W        W25833   7.214  43.783   4.285
57460W        W25834   5.730   4.944   3.863
57461W        W25835  37.347   0.777   1.765
57462W        W25836  26.953  20.720   0.837
57463W        W25837  40.456  41.377  12.841
57464W        W25838   8.843  25.611   5.308
57465W        W25839  10.185  32.517  13.793
57466W        W25840  37.484  30.515   4.816
57467W        W25841  25.052   3.381   0.938
57468W        W25842  37.848  11.281  10.926
57469W        W25843  33.050  40.413   2.813
57470W        W25844   5.716  15.257   2.265
57471W        W25845  43.402  25.123   0.746
57472W        W25846  36.852   3.808   3.767
57473W        W25847  35.869  11.368   1.701
57474W        W25848  43.411  41.474   0.834
57475W        W25849   6.794  44.885   0.957
57476W        W25850  13.288   7.288  13.941
57477W        W25851  22.594  27.125  13.882
57478W        W25852   2.247  12.305   1.321
57479W        W25853   5.780   4.889  10.900
57480W        W25854  13.297  34.462   1.803
57481W        W25855  39.917  34.008   4.260
57482W        W25856   6.242  17.702  13.310
57483W        W25857  35.014  21.115  10.561
57484W        W25858  27.680   3.793  13.332
57485W        W25859  44.803   2.257  12.067
57486W        W25860   2.386  32.569  13.797
57487W        W25861  37.898   2.796   2.316
57488W        W25862  12.290  12.782   1.752
57489W        W25863  30.994  31.998   3.764
57490W        W25864  24.484  37.996  10.626
57491W        W25865  13.745  22.623   1.449
57492W        W25866  18.247   6.231   3.656
57493W        W25867  18.164  39.343   2.772
57494W        W25868  37.567  38.466  11.919
57495W        W25869  41.440  26.022   4.675
57496W        W25870  34.378  22.740   1.405
57497W        W25871  44.394  32.599  11.395
57498W        W25872  43.990  40.913  13.325
57499W        W25873  14.694  34.915  10.624
57500W        W25874   4.306  19.612   4.643
57501W        W25875  26.646  30.990   1.778
57502W        W25876  29.448  26.531   1.414
57503W        W25877  37.444  19.649  12.416
57504W        W25878  33.613  29.660   5.219
57505W        W25879  18.086  15.316  13.448
57506W        W25880  35.500  26.617  13.007
57507W        W25881  17.719  14.140   3.272
57508W        W25882  13.709  31.025  12.395
57509W        W25883  43.446   9.323   2.241
57510W        W25884  25.127  26.494   1.431
57511W        W25885   3.953  37.575   1.810
57512W        W25886  31.091  25.058   1.422
57513W        W25887  19.125  34.987  11.593
57514W        W25888  21.713  35.034   0.840
57515W        W25889  36.347  33.446  11.603
57516W        W25890  42.304  28.472  10.634
57517W        W25891  23.133  39.560  12.353
57518W        W25892  21.689  28.077  10.075
57519W        W25893  35.492  44.825   0.471
57520W        W25894  38.335  20.550  10.465
57521W        W25895  21.532  39.833   5.303
57522W        W25896  14.108  44.945  13.507
57523W        W25897  27.624  20.542  12.541
57524W        W25898   7.858  26.042  14.974
57525W        W25899   7.899  28.648   5.708
57526W        W25900  35.031   9.779   2.244
57527W        W25901  11.242  37.401   4.220
57528W        W25902  30.553  23.727   1.399
57529W        W25903  27.463   0.775   5.115
57530W        W25904  42.375  11.751   2.258
57531W        W25905  22.618   0.946  10.059
57532W        W25906  24.100  15.738   3.275
57533W        W25907  21.050  27.610   1.215
57534W        W25908  37.491  42.454  14.855
57535W        W25909  30.598   9.770   0.944
57536W        W25910   7.287   8.899  12.833
57537W        W25911  26.489  26.471  12.042
57538W        W25912  19.263  25.077   1.918
57539W        W25913   5.830   3.778   9.471
57540W        W25914  19.133   4.242   0.801
57541W        W25915  44.808  29.107  11.969
57542W        W25916  14.287  34.430  12.496
57543W        W25917   2.415  18.724  10.577
57544W        W25918  13.247  21.526   3.179
57545W        W25919  16.723  33.524   2.895
57546W        W25920  10.358  37.025   2.863
57547W        W25921  26.648   3.880  14.826
57548W        W25922   3.815  33.579   2.898
57549W        W25923  20.615  44.458   0.775
57550W        W25924  25.511  19.050   4.747
57551W        W25925  17.793  33.011  12.462
57552W        W25926  18.075  30.974  12.966
57553W        W25927  36.392   3.850  12.089
57554W        W25928   7.912  39.417   2.179
57555W        W25929   4.357   0.821   2.890
57556W        W25930  38.053   0.295  11.565
57557W        W25931  35.941  35.005  14.797
57558W        W25932  31.960  19.699  14.453
57559W        W25933   8.217  41.958   1.755
57560W        W25934   6.686  12.223   0.925
57561W        W25935  37.388  26.528  10.110
57562W        W25936  37.021  20.270   4.608
57563W        W25937  33.432  29.084   1.214
57564W        W25938  35.556  13.627  10.893
57565W        W25939   4.747   3.754  13.922
57566W        W25940  36.472  33.381  12.068
57567W        W25941  33.387  35.948   3.354
57568W        W25942  38.391  21.698   1.923
57569W        W25943   9.676  39.817   4.748
57570W        W25944  20.226  31.949  10.921
57571W        W25945  41.412  27.075  11.560
57572W        W25946  15.201  19.680  14.325
57573W        W25947  20.577  12.170   4.753
57574W        W25948   9.785  19.708   5.098
57575W        W25949  41.856  40.967   2.759
57576W        W25950  34.096  40.438  14.276
57577W        W25951  42.335  25.669   4.693
57578W        W25952  27.599  10.722   2.364
57579W        W25953   7.787   0.395   3.695
57580W        W25954  34.514  23.159  13.992
57581W        W25955  43.355  23.012   2.808
57582W        W25956   6.395  11.168  12.942
57583W        W25957  18.077  22.642  11.970
57584W        W25958  16.287   9.300   1.810
57585W        W25959   7.695  36.924   2.199
57586W        W25960  16.688  20.590  11.543
57587W        W25961  40.340  12.683   0.355
57588W        W25962  22.120  42.297   0.953
57589W        W25963  26.693  10.790   1.279
57590W        W25964   8.318  22.221  12.482
57591W        W25965   2.748  31.594  12.926
57592W        W25966  29.560  29.008   2.860
57593W        W25967  10.641  29.993  13.317
57594W        W25968   6.211  22.221  12.930
57595W        W25969   3.716   8.705  13.841
57596W        W25970  17.632  30.616  11.509
57597W        W25971   6.371  21.647  11.543
57598W        W25972  40.982   4.359  12.926
57599W        W25973  39.859   9.699  11.593
57600W        W25974  17.148  27.638  14.874
57601W        W25975  24.528  33.936  11.092
57602W        W25976  17.725  14.159  11.884
57603W        W25977  32.552   6.901  14.429
57604W        W25978  31.576  36.538  14.297
57605W        W25979  31.134  40.838   1.704
57606W        W25980  20.751  38.834   3.643
57607W        W25981  33.397  12.278   4.832
57608W        W25982  19.092  24.572  11.943
57609W        W25983  27.101   7.708  11.470
57610W        W25984   3.874   9.860  13.929
57611W        W25985  39.882  35.570   4.797
57612W        W25986  23.201   8.369   4.327
57613W        W25987  19.269  18.066   2.758
57614W        W25988  30.009  13.633  14.373
57615W        W25989  20.594  11.641   0.898
57616W        W25990  17.676  34.078   1.281
57617W        W25991  42.892  37.494   4.809
57618W        W25992   1.426   2.769  14.898
57619W        W25993  44.280  41.483  11.129
57620W        W25994  18.699  29.448   4.268
57621W        W25995   5.833   0.476  14.918
57622W        W25996  37.576  14.724  11.058
57623W        W25997  22.680  42.347   1.288
57624W        W25998  34.064  40.318   4.348
57625W        W25999  19.693  29.161   0.392
57626W        W26000   7.360   3.883  10.155
57627W        W26001  19.255   3.724   4.351
57628W        W26002  13.321  23.544   3.654
57629W        W26003  29.476  20.065   4.772
57630W        W26004   0.773  43.981   2.808
57631W        W26005  34.976  38.455  12.353
57632W        W26006  13.671  39.965  13.883
57633W        W26007  44.445  26.013   4.159
57634W        W26008  43.488  39.319  10.521
57635W        W26009  24.610  11.139  10.474
57636W        W26010   6.717  29.575   4.195
57637W        W26011  21.051  41.391   2.304
57638W        W26012  35.574  26.654  10.982
57639W        W26013  30.947  23.185   1.772
57640W        W26014  16.301   8.656   3.852
57641W        W26015   6.277   1.433   1.449
57642W        W26016   7.339  25.704  12.076
57643W        W26017   8.784  32.970   4.817
57644W        W26018  24.542  39.897  12.053
57645W        W26019  22.628  41.914  11.483
57646W        W26020  40.934  40.008  14.381
57647W        W26021   7.773   2.865   0.461
57648W        W26022  34.027   9.333   2.701
57649W        W26023  23.100  44.996   4.716
57650W        W26024  36.473  19.231  13.344
57651W        W26025   2.874   3.779  10.553
57652W        W26026  21.544  19.156  10.543
57653W        W26027  32.928  38.401  14.793
57654W        W26028   2.842  41.408   4.297
57655W        W26029   3.942  31.569  14.279
57656W        W26030  33.381  29.125  12.407
57657W        W26031  41.331  21.751  11.102
57658W        W26032  14.690  19.609   4.673
57659W        W26033  28.650  28.603   1.352
57660W        W26034  31.044  13.783  11.109
57661W        W26035   9.234  26.977   3.849
57662W        W26036  28.678  15.258   2.811
57663W        W26037  24.110   7.240   2.336
57664W        W26038  41.966   0.274   1.787
57665W        W26039  32.430  20.589   1.838
57666W        W26040  39.520   8.217  14.990
57667W        W26041  38.361  15.820   1.816
57668W        W26042   7.719  21.686   4.722
57669W        W26043  15.700  17.297  13.873
57670W        W26044  12.776   0.839  11.457
57671W        W26045  15.651  39.034  10.525
57672W        W26046  25.148  24.153   4.660
57673W        W26047  28.169  41.412   4.689
57674W        W26048  32.421  11.643   4.752
57675W        W26049  26.027   1.443   4.758
57676W        W26050  29.959  19.236  11.095
57677W        W26051  43.513  25.045   1.304
57678W        W26052   9.206   0.867   4.614
57679W        W26053  24.563  42.984   5.105
57680W        W26054   3.900  29.162  12.040
57681W        W26055  35.433  35.464  11.975
57682W        W26056  37.024   5.874  14.980
57683W        W26057  24.700  25.470  13.349
57684W        W26058   1.254   1.834   0.415
57685W        W26059   2.471  18.694   0.456
57686W        W26060  25.487  19.682   2.326
57687W        W26061  42.804  42.910   0.737
57688W        W26062   0.413  34.420  10.969
57689W        W26063  43.800  24.676   2.381
57690W        W26064  42.977  30.414   0.829
57691W        W26065  30.129  20.556   1.798
57692W        W26066  33.947   8.781  14.969
57693W        W26067   5.318  27.644   0.926
57694W        W26068  12.635  37.559   4.803
57695W        W26069  14.304  19.220   0.432
57696W        W26070  36.909  40.915   2.183
57697W        W26071  13.824  35.553   1.779
57698W        W26072  38.552  39.483  14.453
57699W        W26073   2.800  27.137  12.479
57700W        W26074   1.377   4.333   4.623
57701W        W26075  30.033   2.320  14.316
57702W        W26076  15.129  16.194   1.815
57703W        W26077  17.061  19.569  12.936
57704W        W26078  34.606   1.368  10.552
57705W        W26079   5.826  19.764   3.832
57706W        W26080  11.354  14.239  10.996
57707W        W26081  39.921  34.523   1.258
57708W        W26082   1.833  25.510   3.266
57709W        W26083  11.205   9.864  10.418
57710W        W26084  43.432  27.495  14.483
57711W        W26085  14.820  13.278  11.007
57712W        W26086  19.743  21.707  12.515
57713W        W26087  44.290   0.765   3.650
57714W        W26088  23.226  15.743   0.828
57715W        W26089  23.592   3.405  13.818
57716W        W26090   9.674  37.085  11.484
57717W        W26091  35.435  17.070  14.397
57718W        W26092   2.347  34.945  11.122
57719W        W26093  33.895  11.691  13.051
57720W        W26094  12.651  11.137  11.565
57721W        W26095  23.227  38.549   2.274
57722W        W26096   7.349  27.445  13.944
57723W        W26097  26.559  21.137   1.782
57724W        W26098  34.569  43.834  11.433
57725W        W26099  32.101  23.505  13.487
57726W        W26100  26.074  14.115  12.517
57727W        W26101  22.144  38.053  10.516
57728W        W26102  17.556  43.941   3.649
57729W        W26103  41.893   8.671  12.439
57730W        W26104  20.143  12.178  11.870
57731W        W26105  43.277  27.473  13.886
57732W        W26106   7.730  43.803   1.833
57733W        W26107   4.933  35.432  14.786
57734W        W26108  35.050   5.224   3.324
57735W        W26109  21.097  29.934  11.406
57736W        W26110  39.824  38.400   4.640
57737W        W26111  24.082  21.571   1.899
57738W        W26112  44.934   5.337   3.176
57739W        W26113  17.790   1.932  13.368
57740W        W26114   5.406  18.780   1.878
57741W        W26115   0.434  39.970  10.446
57742W        W26116  23.990  31.421  12.452
57743W        W26117  27.140  43.303   0.357
57744W        W26118  11.751  20.208  11.908
57745W        W26119  16.592   2.725   1.819
57746W        W26120  23.709  16.270   3.301
57747W        W26121   6.309  28.985   4.624
57748W        W26122  43.282  38.547   1.843
57749W        W26123   1.766  42.820  14.896
57750W        W26124  37.351  17.099   3.685
57751W        W26125  19.282  19.235   1.213
57752W        W26126  39.045  23.009  11.907
57753W        W26127  20.249  25.530  12.428
57754W        W26128  15.146  42.484  12.922
57755W        W26129  31.896  20.702   1.698
57756W        W26130  35.008  39.061  11.418
57757W        W26131  38.860  30.646  13.927
57758W        W26132  25.539  42.401  11.990
57759W        W26133   6.884  41.952   2.828
57760W        W26134   1.271  35.494   2.377
57761W        W26135   5.820  39.483  12.062
57762W        W26136  24.210  15.695  12.520
57763W        W26137  35.859  36.950   1.327
57764W        W26138  21.230   3.374   0.359
57765W        W26139  28.020  22.173  10.086
57766W        W26140   7.377  10.844   0.277
57767W        W26141  36.903   5.706   4.715
57768W        W26142  25.966  19.711   2.777
57769W        W26143  24.699  39.816   3.246
57770W        W26144  42.015  27.647  10.452
57771W        W26145   9.854  29.475   3.746
57772W        W26146  38.838   6.882   1.368
57773W        W26147  40.406  14.724   2.804
57774W        W26148  41.907  14.661   0.356
57775W        W26149  41.916  44.268   3.684
57776W        W26150   5.340  27.483  13.868
57777W        W26151  21.688  39.424   4.771
57778W        W26152  27.134  19.627   5.299
57779W        W26153  34.404   0.366   3.808
57780W        W26154  25.205  10.351   0.828
57781W        W26155  35.421  34.962   1.305
57782W        W26156  44.863   2.900  14.816
57783W        W26157   2.856  33.601  14.017
57784W        W26158  35.069   0.983  12.931
57785W        W26159   1.449  37.422   3.299
57786W        W26160  28.950   5.425   2.781
57787W        W26161  19.081   6.191   3.723
57788W        W26162  19.253   9.358   0.924
57789W        W26163  42.417   2.244  10.950
57790W        W26164  12.351  24.219  11.476
57791W        W26165  21.674  29.433   9.956
57792W        W26166  43.995  35.571   2.797
57793W        W26167  21.610  38.951  10.434
57794W        W26168   8.400  30.491  12.530
57795W        W26169  28.591   4.344   1.283
57796W        W26170  31.052  15.155   3.714
57797W        W26171  21.100  21.043   1.923
57798W        W26172  25.039   6.312   3.862
57799W        W26173  40.413   6.710  12.352
57800W        W26174  39.041  10.250   3.867
57801W        W26175  21.590  24.975  10.987
57802W        W26176  16.724   7.743  13.940
57803W        W26177  17.599  11.844  13.982
57804W        W26178  37.932  24.062   1.333
57805W        W26179  31.639  43.326   0.458
57806W        W26180  24.522   7.812   1.404
57807W        W26181  17.596  12.853  10.639
57808W        W26182   0.300  15.093  11.986
57809W        W26183  44.410  31.989   1.835
57810W        W26184  39.403   2.722  13.974
57811W        W26185  24.002  37.076  14.903
57812W        W26186  22.199  36.019   2.679
57813W        W26187   8.393   3.415   1.407
57814W        W26188   3.714   7.779   4.756
57815W        W26189  33.530   1.970  14.454
57816W        W26190  14.194  16.737  10.007
57817W        W26191  40.041   2.878   3.809
57818W        W26192  43.507  17.649  14.892
57819W        W26193  38.863  42.903  14.789
57820W        W26194  34.970   3.778   3.856
57821W        W26195  15.255   1.259  11.612
57822W        W26196  10.160  16.743   2.403
57823W        W26197  42.026  28.612  13.310
57824W        W26198   5.858  23.213   2.282
57825W        W26199  24.575  32.061   1.292
57826W        W26200  24.682  14.673   0.362
57827W        W26201   6.701  44.451  10.468
57828W        W26202  40.996   1.265   4.268
57829W        W26203  19.766  35.913   2.221
57830W        W26204  37.992   3.854  14.943
57831W        W26205  10.339   6.421  14.769
57832W        W26206  15.681   8.742   4.788
57833W        W26207   1.963  22.193   4.342
57834W        W26208  14.811  10.377  10.593
57835W        W26209  38.394  40.859  13.885
57836W        W26210  22.629  44.840   4.743
57837W        W26211   0.430  19.260  12.512
57838W        W26212  17.679   1.300   3.711
57839W        W26213  26.967  12.352  12.460
57840W        W26214  15.615   2.436   3.690
57841W        W26215  25.005  18.053   3.226
57842W        W26216  36.414  30.987  12.438
57843W        W26217  30.112  34.080  12.070
57844W        W26218  27.516   9.884   0.261
57845W        W26219   5.301  28.514   0.351
57846W        W26220  12.628  10.293   2.812
57847W        W26221  36.011  28.970  12.339
57848W        W26222  21.245  28.044  11.600
57849W        W26223  43.990   4.426   3.713
57850W        W26224   8.707   6.244   4.181
57851W        W26225  31.068  12.702  11.374
57852W        W26226  41.041   2.786   0.271
57853W        W26227  23.229  27.526   4.747
57854W        W26228   3.779  11.173  13.428
57855W        W26229  34.545  17.745   4.598
57856W        W26230  42.307  27.964  12.053
57857W        W26231  21.675  13.666  12.891
57858W        W26232  42.359   3.733   2.749
57859W        W26233   0.783  32.065   4.199
57860W        W26234  36.566  28.987   2.296
57861W        W26235  38.068  28.659   3.669
57862W        W26236   4.927  18.219   2.744
57863W        W26237  13.235  23.663   0.925
57864W        W26238  24.105  34.537   3.343
57865W        W26239   2.945  33.613   2.354
57866W        W26240  35.067  29.057  14.804
57867W        W26241  12.233  20.085   1.303
57868W        W26242  44.429   6.321   2.313
57869W        W26243  31.942  36.451   1.373
57870W        W26244  12.330  37.532   1.430
57871W        W26245  11.771  19.233  10.428
57872W        W26246  33.609  22.142   1.267
57873W        W26247  14.265   9.722  11.043
57874W        W26248  25.020  36.551   3.359
57875W        W26249  20.189   8.852  11.881
57876W        W26250  31.534  15.638   1.789
57877W        W26251   7.746  17.772   2.386
57878W        W26252  29.491  35.090   3.760
57879W        W26253  35.890  36.503  11.604
57880W        W26254  16.569  15.795  13.336
57881W        W26255  40.827  34.565  13.977
57882W        W26256  24.607  16.072   3.832
57883W        W26257   0.331  37.384  10.488
57884W        W26258   9.379  30.489   4.326
57885W        W26259  26.048  19.605  12.545
57886W        W26260  16.243  10.690  10.054
57887W        W26261   2.248  37.054   1.360
57888W        W26262  38.330  17.747   2.866
57889W        W26263   4.402  39.325   1.381
57890W        W26264  41.517  11.665   3.310
57891W        W26265   5.439  33.984   0.249
57892W        W26266  33.521  26.457  13.522
57893W        W26267  21.218  32.484  13.528
57894W        W26268  31.433   6.762  13.546
57895W        W26269  34.026  11.197   3.675
57896W        W26270  10.783  31.403  14.878
57897W        W26271  38.970  37.406   3.640
57898W        W26272   8.201  43.333   1.791
57899W        W26273  25.691  34.941  14.391
57900W        W26274  16.105  20.675   1.273
57901W        W26275  23.107  44.463   4.126
57902W        W26276  15.264  24.675  11.478
57903W        W26277  33.430  24.697   2.822
57904W        W26278   3.777  26.526   4.778
57905W        W26279  12.842   9.364   5.251
57906W        W26280   1.872  34.407   4.129
57907W        W26281  31.084  15.231  14.792
57908W        W26282   6.359  36.973   3.708
57909W        W26283  33.085  23.600   3.251
57910W        W26284  37.069  10.709  12.371
57911W        W26285   2.429  38.888  12.500
57912W        W26286   5.415  43.507  11.460
57913W        W26287   3.945  21.533  14.797
57914W        W26288  32.917   3.320   2.387
57915W        W26289   8.716  26.685   0.454
57916W        W26290  31.057  18.652  14.015
57917W        W26291   0.878  16.803   3.372
57918W        W26292   4.341   2.427   0.365
57919W        W26293  10.332  14.244   4.636
57920W        W26294  40.806  18.610   1.444
57921W        W26295  43.802  33.450  14.794
57922W        W26296  36.593  26.640  12.441
57923W        W26297  12.648  10.233  12.554
57924W        W26298  38.070   3.408   0.467
57925W        W26299  16.774  21.207   4.814
57926W        W26300  32.106  11.814   4.229
57927W        W26301  21.581  20.708  13.454
57928W        W26302  18.209  27.101  10.510
57929W        W26303  31.041  10.775   3.244
57930W        W26304  36.496  32.082   1.860
57931W        W26305  10.266   1.393   1.818
57932W        W26306   0.437  27.611   3.372
57933W        W26307   2.791   3.884   3.865
57934W        W26308   5.853  15.664   4.183
57935W        W26309  38.521   5.313  12.003
57936W        W26310  17.228  14.743   1.843
57937W        W26311   3.347  28.612   4.671
57938W        W26312  19.679  43.473  10.608
57939W        W26313  14.770   3.440   0.772
57940W        W26314  33.581  25.000   0.833
57941W        W26315  31.508  34.573   2.373
57942W        W26316  40.468  25.006   4.167
57943W        W26317   6.283  10.165  12.871
57944W        W26318  22.535  20.557   2.324
57945W        W26319  44.314  12.130  13.320
57946W        W26320   5.325  38.460  14.987
57947W        W26321  16.209  30.054   2.361
57948W        W26322  39.832   1.945   4.200
57949W        W26323   4.709   9.241   3.702
57950W        W26324   7.690   5.768   1.270
57951W        W26325  37.875  44.359   3.360
57952W        W26326   6.746  24.516   4.113
57953W        W26327  26.570  25.109   2.295
57954W        W26328  24.210   9.329  12.492
57955W        W26329  18.093  17.620   0.383
57956W        W26330   2.450  15.747   3.280
57957W        W26331  40.922   8.306   3.693
57958W        W26332   7.329  41.820   2.675
57959W        W26333  18.102  13.621   3.700
57960W        W26334   5.716  16.203  11.444
57961W        W26335  32.522  36.550  11.608
57962W        W26336  38.571  33.445  12.369
57963W        W26337   6.836  11.677  13.376
57964W        W26338  12.739   9.832   3.815
57965W        W26339  12.763   3.922  13.061
57966W        W26340   1.413  33.536  10.628
57967W        W26341   2.854   7.377   4.351
57968W        W26342  21.614  15.625  14.960
57969W        W26343  31.432  28.453  12.412
57970W        W26344  19.271   1.407  11.578
57971W        W26345   7.793  40.856  13.796
57972W        W26346   6.305  28.481   4.157
57973W        W26347  14.283  10.825   2.751
57974W        W26348  10.841  13.201   4.657
57975W        W26349  39.396  39.035   0.480
57976W        W26350  13.202  20.710  10.967
57977W        W26351  42.874  32.512  13.994
57978W        W26352  27.027  41.974   4.679
57979W        W26353  13.758  13.777  14.952
57980W        W26354   4.397   0.747   1.249
57981W        W26355  18.718  40.468   3.377
57982W        W26356  23.219   2.357   2.868
57983W        W26357  39.834  16.095   1.255
57984W        W26358  24.528  16.267   5.096
57985W        W26359  11.356  41.524   2.829
57986W        W26360  33.387  35.957  11.391
57987W        W26361  17.266  16.753   2.244
57988W        W26362  29.613  10.277   2.760
57989W        W26363   9.761  19.259  14.375
57990W        W26364  28.437  36.491   1.786
57991W        W26365  35.520   4.798  14.993
57992W        W26366   4.428  30.990   2.730
57993W        W26367  26.617  36.007  12.947
57994W        W26368  23.633  16.634  10.473
57995W        W26369  14.180  15.229  11.006
57996W        W26370  22.504  26.149  14.374
57997W        W26371  11.849   1.457  14.791
57998W        W26372  22.643  21.069  10.471
57999W        W26373  34.080  32.045  12.555
58000W        W26374  34.385  36.347   2.745
58001W        W26375  43.870   1.430  11.600
58002W        W26376  35.481  11.165  11.070
58003W        W26377  31.985  13.124  12.828
58004W        W26378  42.964  28.567  10.536
58005W        W26379  35.364  20.086   1.916
58006W        W26380  36.863  38.329   0.331
58007W        W26381  10.372  37.346  12.406
58008W        W26382  27.469   0.882   3.217
58009W        W26383  17.091  20.188   3.249
58010W        W26384  33.129  17.779  10.593
58011W        W26385  12.809  23.512  10.467
58012W        W26386  43.984  10.249  12.972
58013W        W26387  16.074  22.574  11.877
58014W        W26388   0.454  13.798   4.663
58015W        W26389  35.971  10.641  10.578
58016W        W26390  22.529  19.719   1.858
58017W        W26391   1.342  18.243  13.792
58018W        W26392  22.185  40.411   9.665
58019W        W26393  15.200   2.227  14.402
58020W        W26394  21.123  34.110   3.865
58021W        W26395  33.583   4.923  13.849
58022W        W26396  38.415   7.306   2.288
58023W        W26397  34.428  32.117   2.344
58024W        W26398  14.207  10.840  14.297
58025W        W26399   8.201  12.187  14.844
58026W        W26400  29.081  20.642   4.723
58027W        W26401  38.371  29.963   2.732
58028W        W26402  23.203  16.681  14.867
58029W        W26403  22.119  19.076  13.453
58030W        W26404  26.631  25.696  12.832
58031W        W26405  37.523  32.048  12.554
58032W        W26406  20.525  42.360  12.844
58033W        W26407  29.645   6.806   2.246
58034W        W26408  37.412  14.262  12.978
58035W        W26409  16.596  29.172   0.861
58036W        W26410  19.689   1.366  11.580
58037W        W26411   0.945  20.170  11.016
58038W        W26412  42.409  23.017  14.406
58039W        W26413   5.755  13.145   4.295
58040W        W26414  31.589  43.469   4.292
58041W        W26415  19.669  11.665  13.457
58042W        W26416  35.476  36.020  13.791
58043W        W26417  41.333  43.355   2.308
58044W        W26418  29.529  14.244   4.809
58045W        W26419  24.150   6.295  11.972
58046W        W26420  18.737   3.313  10.136
58047W        W26421  34.428  16.239  10.637
58048W        W26422   7.406  12.165  11.077
58049W        W26423  31.409   9.890   0.788
58050W        W26424  26.156  20.650  10.939
58051W        W26425  23.626  35.071  11.470
58052W        W26426   5.386  16.807  11.464
58053W        W26427  24.034  12.667  13.868
58054W        W26428   0.906  12.830   3.376
58055W        W26429  11.753  16.094   1.865
58056W        W26430  41.329   3.752  13.319
58057W        W26431  20.673  35.888  14.426
58058W        W26432  16.678   2.320   0.960
58059W        W26433   9.306  36.548   4.129
58060W        W26434  12.115   9.203  12.026
58061W        W26435   9.855  26.584   1.420
58062W        W26436  27.145  37.544  12.870
58063W        W26437   9.163  31.019  10.615
58064W        W26438  25.485   2.368   3.375
58065W        W26439  17.206   5.773   3.191
58066W        W26440  16.571   3.324  14.763
58067W        W26441  24.681  40.392   2.255
58068W        W26442   4.245  38.900  11.576
58069W        W26443   3.751  33.092  13.323
58070W        W26444  27.614   6.299   3.153
58071W        W26445   1.782  13.810   4.121
58072W        W26446  11.231  34.495   2.768
58073W        W26447  11.766  10.297   0.957
58074W        W26448  19.039   9.197   1.752
58075W        W26449  29.028  31.918   0.348
58076W        W26450  42.502  11.149  12.357
58077W        W26451  31.034  10.710   4.707
58078W        W26452  34.603  11.343   1.921
58079W        W26453   8.665  17.207   0.405
58080W        W26454  15.685  10.154  10.020
58081W        W26455  12.261  26.988   1.810
58082W        W26456  25.046  37.441  10.630
58083W        W26457  40.042  28.627  14.988
58084W        W26458  35.481   1.812  11.968
58085W        W26459  39.444  23.238   0.787
58086W        W26460  30.158  16.650   1.239
58087W        W26461   2.305   0.853  13.533
58088W        W26462  23.198  26.640  14.353
58089W        W26463  40.420  26.957  12.444
58090W        W26464  13.282  12.676   4.159
58091W        W26465  22.536  22.024   3.358
58092W        W26466   6.284  18.120  14.302
58093W        W26467  20.259  29.999   3.247
58094W        W26468  43.799  24.586  13.972
58095W        W26469  35.945  21.068  14.026
58096W        W26470  11.216  14.785   3.370
58097W        W26471  36.074  40.515  12.832
58098W        W26472   7.740  20.679  14.924
58099W        W26473  33.063  42.016  11.513
58100W        W26474  16.786  22.073  12.514
58101W        W26475  31.451  30.091   0.261
58102W        W26476  37.862  35.486  14.907
58103W        W26477  14.326  39.522  12.349
58104W        W26478  14.717  12.732  11.923
58105W        W26479  35.371   0.765  11.487
58106W        W26480  35.030  18.742   1.350
58107W        W26481  38.389   4.848  11.884
58108W        W26482  22.107  36.050  14.995
58109W        W26483   5.197   9.251   0.920
58110W        W26484   2.962  23.992   1.848
58111W        W26485  40.921  22.653  11.869
58112W        W26486  30.426  24.720   4.233
58113W        W26487  13.223  35.869  13.906
58114W        W26488  14.177  43.317  12.894
58115W        W26489  24.632  23.140  11.978
58116W        W26490  43.001  38.895   1.886
58117W        W26491  34.056  33.978   3.739
58118W        W26492  14.118  24.180  14.807
58119W        W26493  21.077  43.852   3.337
58120W        W26494  44.264  16.622  13.531
58121W        W26495  29.530  13.186  12.905
58122W        W26496  29.126   9.262  11.035
58123W        W26497  13.745  26.166  13.454
58124W        W26498   9.158  42.874  14.984
58125W        W26499  22.568  39.835  12.056
58126W        W26500  17.213  36.592   1.370
58127W        W26501   2.360   3.387   0.456
58128W        W26502  29.529  27.951  12.028
58129W        W26503  41.466  32.076  13.970
58130W        W26504  25.540  42.881   2.755
58131W        W26505  33.428  23.651   4.348
58132W        W26506   8.761   5.352  12.468
58133W        W26507  14.751  30.526   1.389
58134W        W26508  30.969   5.317   1.830
58135W        W26509   1.796   2.395  10.411
58136W        W26510   2.372  33.583  12.377
58137W        W26511  12.699  17.188  13.448
58138W        W26512  16.240  15.795   4.248
58139W        W26513  33.095  16.725  12.417
58140W        W26514  27.545  15.607  10.043
58141W        W26515  23.061  34.118   2.864
58142W        W26516  16.277  10.334   3.149
58143W        W26517  21.750  42.507   2.284
58144W        W26518  23.549  31.034   3.269
58145W        W26519   3.256  26.026  14.324
58146W        W26520   1.848  27.640   3.159
58147W        W26521   0.250  36.493  11.088
58148W        W26522  20.076  22.531  12.009
58149W        W26523  34.598  27.488  10.987
58150W        W26524   8.392  17.291  10.632
58151W        W26525  40.348  24.007  12.382
58152W        W26526  37.422  28.121  13.931
58153W        W26527   2.721  18.153   4.836
58154W        W26528   6.697   5.342   4.161
58155W        W26529  30.094  11.162  10.909
58156W        W26530  17.293  32.935  12.445
58157W        W26531  25.541  37.582  14.296
58158W        W26532  34.072  23.023   2.858
58159W        W26533   4.417   6.232  10.947
58160W        W26534  31.146  17.698  14.452
58161W        W26535   2.343  27.007  12.842
58162W        W26536   5.315  40.478  13.930
58163W        W26537  44.478  24.045   2.306
58164W        W26538  26.180  12.794   0.787
58165W        W26539  33.476  25.478  12.910
58166W        W26540  38.820  31.051  14.015
58167W        W26541  44.973  30.540   1.858
58168W        W26542  35.017  20.716  13.809
58169W        W26543   5.705  35.084   0.292
58170W        W26544  17.245  28.929  11.976
58171W        W26545  33.554  33.119  10.897
58172W        W26546  21.166  13.180  13.840
58173W        W26547  18.587  37.916  11.063
58174W        W26548  28.537  28.561  14.447
58175W        W26549  40.393  19.653   4.601
58176W        W26550  41.882  20.610   3.230
58177W        W26551  37.071  40.354   4.717
58178W        W26552  36.030   4.390  12.425
58179W        W26553  29.657  22.563  10.592
58180W        W26554  36.004  19.558  11.939
58181W        W26555  31.029  21.079   1.777
58182W        W26556  31.026  42.480  11.028
58183W        W26557  42.020  18.657  13.837
58184W        W26558  37.860  32.100  13.539
58185W        W26559   8.712  12.739   1.235
58186W        W26560  33.997  16.251  12.050
58187W        W26561  35.007  27.154   3.344
58188W        W26562  39.334   3.227  11.962
58189W        W26563  27.567   1.278  13.966
58190W        W26564  42.863  39.874  11.380
58191W        W26565  31.091  31.918  13.484
58192W        W26566  26.972  25.059   4.153
58193W        W26567  27.691   7.202  10.625
58194W        W26568  35.444  16.175  12.042
58195W        W26569  21.022  12.650   3.755
58196W        W26570  43.377  35.420   2.665
58197W        W26571   2.304  17.558  10.418
58198W        W26572  25.586  38.995  12.524
58199W        W26573  43.844  28.957   0.347
58200W        W26574  25.492  13.240   3.679
58201W        W26575   3.876   6.741  10.464
58202W        W26576  13.129  12.254  11.477
58203W        W26577  40.493   7.176  12.918
58204W        W26578   6.876  29.502  14.322
58205W        W26579   3.918  42.863   3.377
58206W        W26580  41.791   7.856  13.348
58207W        W26581  41.039  35.546  13.326
58208W        W26582  32.415  31.144   4.268
58209W        W26583  42.324  38.896   4.119
58210W        W26584   8.279   9.723   1.421
58211W        W26585  28.556  15.670  10.569
58212W        W26586  22.603  30.483   4.790
58213W        W26587  28.133   2.468   4.643
58214W        W26588  14.231   0.371   3.353
58215W        W26589  21.141  24.230   3.729
58216W        W26590  29.656   7.258   4.799
58217W        W26591  43.309  37.489   9.942
58218W        W26592  20.082  44.273  13.464
58219W        W26593  21.581  29.654  11.005
58220W        W26594  26.056   6.894  14.888
58221W        W26595   3.310  25.688   1.773
58222W        W26596   2.354  21.132   3.295
58223W        W26597  12.717  23.151  11.108
58224W        W26598  28.027  13.730   2.746
58225W        W26599  43.837   1.882  11.560
58226W        W26600  15.731  22.703  12.083
58227W        W26601  34.065  36.022   3.692
58228W        W26602  11.192  20.594  11.467
58229W        W26603  29.989  13.225   1.813
58230W        W26604  21.523  21.604  10.500
58231W        W26605  29.006  36.549   2.828
58232W        W26606  17.271  22.118  14.915
58233W        W26607  42.418  26.193  12.454
58234W        W26608  44.394  18.659   1.714
58235W        W26609  38.375  18.738  12.356
58236W        W26610  14.699  26.678   1.340
58237W        W26611   7.321  26.061   5.675
58238W        W26612  28.016  31.080  14.475
58239W        W26613  21.053  30.458  12.942
58240W        W26614   2.452  43.478  14.431
58241W        W26615   5.315  12.825  10.890
58242W        W26616  42.813  10.808   3.802
58243W        W26617  31.404   6.905  12.954
58244W        W26618  25.033  17.250   0.275
58245W        W26619  38.030   5.860  12.407
58246W        W26620  25.595  28.448  11.070
58247W        W26621   2.726  23.670  11.418
58248W        W26622   5.873  35.016  13.398
58249W        W26623  25.693  25.145  10.557
58250W        W26624  26.032  40.053  10.451
58251W        W26625  13.293  13.121   4.690
58252W        W26626  14.277  13.125  12.549
58253W        W26627  16.627   7.834   0.309
58254W        W26628  44.848  42.346  14.968
58255W        W26629  22.207  32.079  14.839
58256W        W26630  40.951  40.927   0.319
58257W        W26631  40.458  43.973  13.322
58258W        W26632  14.681  18.106  13.800
58259W        W26633  31.620  28.980   4.286
58260W        W26634  37.388  15.238   4.652
58261W        W26635  44.781  39.317  12.400
58262W        W26636  41.423  21.201   4.275
58263W        W26637  38.339  44.324   2.404
58264W        W26638  28.003  37.007   3.751
58265W        W26639  25.152  33.128  12.962
58266W        W26640  33.968  16.770   3.787
58267W        W26641  15.606   0.306  10.069
58268W        W26642  12.306  26.573  13.331
58269W        W26643   1.840   2.827  10.616
58270W        W26644  27.514  21.687   0.790
58271W        W26645   8.189   1.943   1.229
58272W        W26646  23.541  44.383  12.973
58273W        W26647   3.371  14.189  11.014
58274W        W26648  30.147   5.728  13.336
58275W        W26649  23.697  10.685  12.479
58276W        W26650  25.148  14.787   1.420
58277W        W26651   4.920   5.745   0.864
58278W        W26652   3.871  16.579   2.687
58279W        W26653  38.982   2.805   0.307
58280W        W26654  36.359  20.231   1.802
58281W        W26655   7.381   7.709   1.285
58282W        W26656  28.162  17.759  13.843
58283W        W26657   8.849   0.792  11.451
58284W        W26658  13.680  33.398   1.841
58285W        W26659  39.826  26.969   2.323
58286W        W26660  18.786   0.862  14.509
58287W        W26661  37.441  36.578  11.082
58288W        W26662  28.501  21.689  11.402
58289W        W26663  23.028   0.860  13.363
58290W        W26664  26.664   2.243   4.696
58291W        W26665  31.591   7.693   3.342
58292W        W26666  20.079   0.897   1.745
58293W        W26667  30.426  17.253   3.860
58294W        W26668  39.465  41.996  12.484
58295W        W26669  27.447  20.143  13.935
58296W        W26670  31.408   6.413   4.833
58297W        W26671  44.416  41.403  11.605
58298W        W26672  22.607  20.768   4.727
58299W        W26673  26.666  35.495  11.996
58300W        W26674  42.791  34.886   4.240
58301W        W26675  25.063  17.130   4.203
58302W        W26676  36.848   3.380   1.251
58303W        W26677  19.770  15.673  11.008
58304W        W26678  34.086   2.388   4.160
58305W        W26679  19.172  13.267   3.335
58306W        W26680   1.883   9.804   2.748
58307W        W26681  23.047  37.002   2.706
58308W        W26682  36.416   1.465  11.542
58309W        W26683  15.794   6.302   2.851
58310W        W26684  32.096  17.175   1.407
58311W        W26685  23.128  30.057  11.868
58312W        W26686  22.123  31.402   5.214
58313W        W26687   3.781   7.744   0.774
58314W        W26688  42.982   7.903   3.196
58315W        W26689  26.677  12.823  14.426
58316W        W26690  41.955   1.316  11.120
58317W        W26691  34.038  42.491  13.000
58318W        W26692   6.765  16.752  11.419
58319W        W26693  11.655   5.771  13.022
58320W        W26694  38.365  28.641   1.859
58321W        W26695   3.448  42.281   2.247
58322W        W26696  31.132  15.244   2.332
58323W        W26697  31.082  10.668   0.889
58324W        W26698  30.492  36.082   2.903
58325W        W26699  26.030  29.665  14.783
58326W        W26700  24.222  39.528  12.578
58327W        W26701  19.606  27.110  14.324
58328W        W26702   4.835  30.522  12.920
58329W        W26703  11.800  40.877  10.515
58330W        W26704  20.128  12.749   0.767
58331W        W26705  41.994   9.370  10.452
58332W        W26706  40.929  34.015   4.773
58333W        W26707  17.556  26.998   3.732
58334W        W26708  36.008  34.874  13.520
58335W        W26709   7.201  15.728  14.987
58336W        W26710  43.403   4.337  13.832
58337W        W26711  28.025  42.787  12.000
58338W        W26712  27.545   0.749   2.203
58339W        W26713  24.092  28.477   3.221
58340W        W26714  30.022   8.820   4.642
58341W        W26715  28.452   7.712   0.959
58342W        W26716   8.721   0.402  11.927
58343W        W26717   1.438  26.513  14.876
58344W        W26718   8.823  42.477  12.520
58345W        W26719  13.737  28.637  13.941
58346W        W26720  34.053  24.166  13.339
58347W        W26721  11.217   6.182  13.396
58348W        W26722   5.852  16.102   3.289
58349W        W26723  24.725  29.520  12.915
58350W        W26724   3.323  35.476   0.262
58351W        W26725   6.824  41.448  12.529
58352W        W26726  37.403  35.892  11.959
58353W        W26727  18.291  44.277  12.998
58354W        W26728  41.874   3.763   3.638
58355W        W26729  39.388  35.432   1.900
58356W        W26730  35.480  40.508  14.462
58357W        W26731  37.360  26.108   4.126
58358W        W26732  11.157  42.503  12.855
58359W        W26733  29.074   0.790  12.870
58360W        W26734  28.586  36.942   3.238
58361W        W26735   5.418   5.801  14.845
58362W        W26736  14.677  42.906   3.187
58363W        W26737   9.651  39.541   1.885
58364W        W26738  16.743   4.384  13.820
58365W        W26739   4.808   5.763  13.874
58366W        W26740  29.500   8.778   0.310
58367W        W26741  18.284  17.071   3.762
58368W        W26742   3.897  27.447  10.428
58369W        W26743  39.451   9.220   2.749
58370W        W26744  35.038  28.464  13.802
58371W        W26745  35.952  22.569   1.920
58372W        W26746  27.145  13.183   1.223
58373W        W26747   8.805  14.104  12.966
58374W        W26748   2.821  39.526   2.758
58375W        W26749  32.400  27.564   0.481
58376W        W26750  44.280  32.621   2.381
58377W        W26751  17.260  10.366  10.990
58378W        W26752  26.133  25.183  14.787
58379W        W26753  40.815  24.636  14.315
58380W        W26754   5.693  23.644   2.375
58381W        W26755  33.016  14.622  14.967
58382W        W26756  26.602   5.694  13.876
58383W        W26757  13.712  43.301  13.480
58384W        W26758   2.463  36.497   3.685
58385W        W26759  28.958   3.389  12.559
58386W        W26760  36.911   0.324   4.121
58387W        W26761  37.560   8.203   2.204
58388W        W26762   4.448  28.182   4.152
58389W        W26763  43.826  30.923   4.700
58390W        W26764  18.178  40.880   1.298
58391W        W26765   0.410  44.412   1.933
58392W        W26766  15.820  11.300  13.048
58393W        W26767   9.758  21.178   4.202
58394W        W26768  22.205  32.896  11.371
58395W        W26769  39.010  32.624   3.158
58396W        W26770  37.031  18.581   3.844
58397W        W26771   4.363  16.595   3.781
58398W        W26772   8.706  11.796  11.065
58399W        W26773  38.852  44.963   1.303
58400W        W26774  25.552  33.436   4.681
58401W        W26775   2.911  24.614   3.167
58402W        W26776  12.311  16.242  14.848
58403W        W26777  19.191  35.551   0.302
58404W        W26778  37.563  20.668   1.431
58405W        W26779  11.173  26.097   0.305
58406W        W26780   6.834  37.086  13.342
58407W        W26781  36.849  42.965  14.493
58408W        W26782  31.029  15.767  10.019
58409W        W26783   9.715  39.896   3.264
58410W        W26784   7.712   7.258   0.470
58411W        W26785  28.940   5.726   4.276
58412W        W26786  35.973  20.600  11.049
58413W        W26787  24.047  22.504   5.188
58414W        W26788  22.652  40.811   5.226
58415W        W26789  30.425  26.156  14.507
58416W        W26790  27.140  17.188   4.274
58417W        W26791   2.435   5.265   4.777
58418W        W26792  42.321  29.543  13.367
58419W        W26793  26.641   2.724  14.768
58420W        W26794   1.445   6.695  12.965
58421W        W26795  34.472  19.236   1.389
58422W        W26796  34.499  30.954   2.337
58423W        W26797   0.947   1.420  12.839
58424W        W26798  26.622  33.518   2.701
58425W        W26799  17.119  16.161  10.903
58426W        W26800  10.151  20.654  11.882
58427W        W26801  39.415  33.994   3.798
58428W        W26802  20.271  35.396   3.769
58429W        W26803   1.289   8.884   2.198
58430W        W26804  39.334   2.318   1.776
58431W        W26805  25.193  20.632   3.832
58432W        W26806  38.411   9.168  12.864
58433W        W26807  21.229  11.792   3.649
58434W        W26808  43.282  42.385   4.706
58435W        W26809  34.612  11.824  13.455
58436W        W26810   2.752   9.330  10.540
58437W        W26811   2.330  37.831  10.522
58438W        W26812  20.181   4.255   0.948
58439W        W26813  44.880  35.972  11.899
58440W        W26814  19.572   9.879   4.611
58441W        W26815  20.084  24.107   3.715
58442W        W26816  24.718  38.543  10.606
58443W        W26817   0.279  34.939  13.880
58444W        W26818  23.139  30.535   5.139
58445W        W26819  36.500  28.623  13.961
58446W        W26820  18.110  42.920  12.040
58447W        W26821  12.189  15.767   4.625
58448W        W26822   9.765   1.793  13.997
58449W        W26823  26.119   0.266  14.969
58450W        W26824  39.467  13.718   2.266
58451W        W26825  27.968  25.534  10.483
58452W        W26826  13.239  12.757   2.795
58453W        W26827  11.183  41.518  11.975
58454W        W26828   4.293  10.674  13.034
58455W        W26829   9.263   2.271  14.921
58456W        W26830   0.804  11.647  10.458
58457W        W26831  39.540  43.911   1.308
58458W        W26832   7.396  19.672   5.151
58459W        W26833  22.117  16.231   1.768
58460W        W26834  25.182  37.945   3.766
58461W        W26835  14.660  10.768  13.379
58462W        W26836  16.111  28.930  14.820
58463W        W26837  33.541  13.697  10.512
58464W        W26838  21.673  13.222  12.381
58465W        W26839  12.684  11.275  14.277
58466W        W26840  22.191  41.840   4.269
58467W        W26841  18.624   7.272   2.370
58468W        W26842  19.211  39.853   4.344
58469W        W26843  36.366   5.913  12.422
58470W        W26844  41.363  43.399   1.875
58471W        W26845  38.940  29.446  13.437
58472W        W26846  18.111  16.309  10.895
58473W        W26847  36.015   7.386  11.391
58474W        W26848   6.714  41.912  12.350
58475W        W26849  33.542  27.960  13.911
58476W        W26850  26.974  14.807   1.877
58477W        W26851  22.524   0.869  11.507
58478W        W26852   4.346   9.226  12.925
58479W        W26853   7.196  10.687   2.790
58480W        W26854  27.948  40.500   1.426
58481W        W26855   8.754  34.466   4.803
58482W        W26856  35.520  10.247  14.787
58483W        W26857  29.946  22.192   3.207
58484W        W26858   9.268  25.610   1.300
58485W        W26859  35.024  10.224   0.739
58486W        W26860  26.055  32.059   4.231
58487W        W26861  16.227  30.992  13.875
58488W        W26862   1.282  28.659   0.394
58489W        W26863  12.726  10.162  12.965
58490W        W26864   4.398   8.830   4.184
58491W        W26865  21.127  27.082  11.953
58492W        W26866  12.627  40.420   3.661
58493W        W26867   9.890   7.316  12.441
58494W        W26868  44.816  20.728   2.785
58495W        W26869  19.656  25.573  14.828
58496W        W26870   9.698  43.810  10.925
58497W        W26871  41.537  19.267   4.619
58498W        W26872  34.929  33.078   0.361
58499W        W26873  44.867  28.599  14.788
58500W        W26874  12.778  31.451   3.696
58501W        W26875  33.018  27.062   0.404
58502W        W26876  36.913  14.615  13.959
58503W        W26877   3.939  20.540  13.515
58504W        W26878  17.259  15.678   1.227
58505W        W26879  12.204  31.007   4.206
58506W        W26880  40.316  41.860  14.890
58507W        W26881  25.062  18.671  14.406
58508W        W26882   1.851  18.621   2.348
58509W        W26883  36.034  29.545   4.209
58510W        W26884   7.747  10.799   0.430
58511W        W26885  22.070  38.406   4.619
58512W        W26886  44.809   1.337  12.956
58513W        W26887   6.863  42.481   0.939
58514W        W26888  18.715  35.554  12.452
58515W        W26889   1.738   3.848   1.747
58516W        W26890  20.591  26.494   1.418
58517W        W26891  21.108   4.846   1.269
58518W        W26892   0.770  25.204   0.862
58519W        W26893  34.963  43.506  12.000
58520W        W26894  30.105  25.662   3.287
58521W        W26895  25.548  16.608   0.483
58522W        W26896  24.480  30.534  10.539
58523W        W26897  30.924  24.617  10.619
58524W        W26898  20.528  12.830   3.775
58525W        W26899  16.118  13.844   2.891
58526W        W26900  24.719  30.936  10.920
58527W        W26901  13.259   4.260   4.320
58528W        W26902  17.232  28.071  14.289
58529W        W26903   7.360   4.347   0.470
58530W        W26904  42.478  44.473  12.827
58531W        W26905  21.031  42.320   3.237
58532W        W26906  21.653  16.176   2.321
58533W        W26907  30.456  11.363  13.430
58534W        W26908  10.654  27.464  14.938
58535W        W26909   5.422  44.275   0.266
58536W        W26910  24.114  27.113  11.448
58537W        W26911  42.811  42.326  10.480
58538W        W26912   6.855  12.815  13.986
58539W        W26913  44.874   6.352   2.372
58540W        W26914  25.523  24.581  12.426
58541W        W26915  22.027  42.376   3.370
58542W        W26916   0.883   4.301   2.194
58543W        W26917  37.462  37.957  11.101
58544W        W26918  16.147  23.167   1.895
58545W        W26919  34.056  18.727  12.052
58546W        W26920  18.625  15.125   4.751
58547W        W26921  17.645  22.049   2.330
58548W        W26922  21.035  15.680   3.726
58549W        W26923   0.830  11.770  13.906
58550W        W26924  40.902   5.272  14.026
58551W        W26925  33.492  43.888   1.935
58552W        W26926   8.654  15.274  13.846
58553W        W26927  10.178   6.296   2.856
58554W        W26928   7.216  18.081   4.290
58555W        W26929  26.979  39.024   9.928
58556W        W26930  10.805   5.379   4.772
58557W        W26931  35.970  34.064  13.502
58558W        W26932  24.198  22.070  10.578
58559W        W26933  22.645  44.289   2.292
58560W        W26934  26.465  30.545   0.458
58561W        W26935  40.513  36.443   2.697
58562W        W26936  20.662  14.298   3.749
58563W        W26937  35.973  28.085  13.849
58564W        W26938  42.381  16.739  10.577
58565W        W26939   9.353  38.434   0.857
58566W        W26940  34.557  12.321   0.382
58567W        W26941  16.145  14.180   0.887
58568W        W26942  12.212  41.861   0.906
58569W        W26943  28.036  41.957   1.934
58570W        W26944  27.185  19.686  11.972
58571W        W26945  42.915  21.256   1.790
58572W        W26946  19.614  32.137  14.999
58573W        W26947  11.633  10.261   0.390
58574W        W26948  11.310  37.392  12.856
58575W        W26949   9.750  25.638   2.321
58576W        W26950  13.242  34.064   0.313
58577W        W26951  18.684  14.293   3.228
58578W        W26952  40.988  10.144   1.440
58579W        W26953   5.909  28.960   0.409
58580W        W26954  13.233   9.313  13.885
58581W        W26955  14.200  26.108   2.391
58582W        W26956  34.430  39.062  10.998
58583W        W26957  41.520   5.700  12.970
58584W        W26958  42.495  28.067  11.547
58585W        W26959   1.839  13.237  11.429
58586W        W26960  33.574  22.518   0.839
58587W        W26961  29.461  44.786   3.339
58588W        W26962  28.985  20.646  12.561
58589W        W26963  24.987  29.653   0.408
58590W        W26964   5.417  15.783  12.494
58591W        W26965  43.783   2.785   1.337
58592W        W26966  39.958  36.522  14.454
58593W        W26967  23.615  26.694   0.467
58594W        W26968   0.373  18.709  14.346
58595W        W26969   1.910   3.913  13.324
58596W        W26970  15.762  23.015   4.622
58597W        W26971  17.792  38.906  11.043
58598W        W26972   3.711   0.931   2.893
58599W        W26973   7.203  21.700  11.464
58600W        W26974  38.480  16.208   3.754
58601W        W26975  19.250   5.257   2.372
58602W        W26976  24.560   7.181  13.548
58603W        W26977  23.236   4.908  14.017
58604W        W26978  35.894  29.123   1.289
58605W        W26979  30.583  20.539   4.750
58606W        W26980  23.687   3.450   2.803
58607W        W26981  41.910   0.788   2.682
58608W        W26982  34.866  41.953  10.933
58609W        W26983   8.234   2.373  14.509
58610W        W26984  30.124  21.683   2.708
58611W        W26985  28.663  10.800  12.465
58612W        W26986   3.334  41.866   4.648
58613W        W26987  32.568   3.389  12.944
58614W        W26988  25.660  11.726   1.862
58615W        W26989  19.109  31.581  11.997
58616W        W26990  42.355  26.697  13.451
58617W        W26991   8.320   7.263  10.619
58618W        W26992  26.475  20.624   4.662
58619W        W26993  20.229  15.259   0.407
58620W        W26994  19.634  23.087   2.189
58621W        W26995  24.203  27.134   1.226
58622W        W26996  44.972  37.868  10.444
58623W        W26997  29.623  40.810  12.938
58624W        W26998  41.823  13.734   0.743
58625W        W26999  27.528   1.383  12.368
58626W        W27000  43.496  15.236  12.909
58627W        W27001   0.350  28.530   3.212
58628W        W27002  23.226  17.586   0.381
58629W        W27003   8.709  14.317  11.860
58630W        W27004  32.035  34.878  11.998
58631W        W27005  35.457  26.534  11.533
58632W        W27006  26.670  29.948   4.767
58633W        W27007  30.461  25.682  12.937
58634W        W27008  32.443  21.522  13.984
58635W        W27009  22.516  25.563   9.979
58636W        W27010  37.441  33.482  11.582
58637W        W27011  37.436  25.509   4.746
58638W        W27012  19.643   7.695  13.307
58639W        W27013  18.212  34.475  10.443
58640W        W27014  27.174  29.983   4.302
58641W        W27015  39.526  16.299   2.690
58642W        W27016  22.655  26.677  12.964
58643W        W27017  16.155   5.768   4.629
58644W        W27018  36.435   6.284  13.945
58645W        W27019  29.944  29.146   1.821
58646W        W27020  11.134  40.415   4.632
58647W        W27021  22.568  11.348   2.399
58648W        W27022  32.092   7.878   0.767
58649W        W27023  34.055  43.416   2.378
58650W        W27024  21.213  18.209  14.900
58651W        W27025  28.172   1.968   4.315
58652W        W27026  41.960  33.581  10.487
58653W        W27027  12.130  15.282   3.757
58654W        W27028  33.558  10.855  10.029
58655W        W27029  36.591  15.172  14.483
58656W        W27030  23.696   5.801  11.491
58657W        W27031  40.545   2.938  13.387
58658W        W27032  34.371  27.533  12.888
58659W        W27033  40.003   8.321  10.993
58660W        W27034  22.695   7.249   4.828
58661W        W27035  31.494  40.928  13.510
58662W        W27036   0.852   7.290   2.394
58663W        W27037  43.456  21.518  10.469
58664W        W27038  11.760  10.184  10.948
58665W        W27039  10.326  33.939   4.641
58666W        W27040  32.115  43.835  12.464
58667W        W27041  14.733  10.636  14.891
58668W        W27042  14.628  15.805  10.954
58669W        W27043  32.018  16.092   1.293
58670W        W27044  31.588  12.824  14.812
58671W        W27045  37.006   4.280  13.392
58672W        W27046  44.304  31.079  13.054
58673W        W27047  26.011  32.600  14.957
58674W        W27048  30.015  33.425  12.413
58675W        W27049  19.078  10.644  13.426
58676W        W27050   0.340  31.091   4.300
58677W        W27051  38.936   2.759   2.825
58678W        W27052  41.983  18.214   2.820
58679W        W27053   7.376   6.792   1.898
58680W        W27054  33.910  30.011  12.903
58681W        W27055  39.003   4.391   3.645
58682W        W27056   9.843  10.236  12.037
58683W        W27057  16.788  25.054  11.936
58684W        W27058  25.083  36.078  13.007
58685W        W27059  25.182  37.435   3.700
58686W        W27060   8.372   3.436  13.387
58687W        W27061  32.598  34.441   4.248
58688W        W27062  31.092   0.472   0.803
58689W        W27063  17.591  17.684   1.297
58690W        W27064  22.148   5.870   1.365
58691W        W27065  13.750  31.637   1.299
58692W        W27066   4.218  25.580   0.792
58693W        W27067  43.403  11.349  12.064
58694W        W27068  36.064   1.851   0.442
58695W        W27069  41.817  22.036   2.216
58696W        W27070  27.549  25.055  12.560
58697W        W27071  15.716  33.581  11.413
58698W        W27072  15.085  12.217  14.890
58699W        W27073   2.355  35.922  10.131
58700W        W27074  25.490  31.430  13.414
58701W        W27075  26.664   1.433  12.472
58702W        W27076  44.903  37.957  11.097
58703W        W27077  17.306  29.603   2.868
58704W        W27078   9.173   4.877   5.729
58705W        W27079  35.007   0.764  13.437
58706W        W27080  17.104  35.917   3.296
58707W        W27081  15.191  14.201  13.359
58708W        W27082  22.554   4.427  11.882
58709W        W27083  14.282   0.341  11.593
58710W        W27084  11.776  29.641  11.092
58711W        W27085  32.989  37.065   2.361
58712W        W27086   6.798  19.227  10.553
58713W        W27087  32.138  17.251  13.893
58714W        W27088  33.916  15.288  12.915
58715W        W27089   2.399   1.316  11.001
58716W        W27090  23.996  26.954  13.955
58717W        W27091  44.276  19.715  13.930
58718W        W27092  18.639  15.238  12.921
58719W        W27093  30.466  17.155  13.465
58720W        W27094  42.988  31.516   2.248
58721W        W27095  16.100  10.270  11.451
58722W        W27096  23.224  32.446   4.348
58723W        W27097  43.990  41.011   0.762
58724W        W27098  30.636  26.112   4.208
58725W        W27099  35.958  14.202   0.767
58726W        W27100  29.594  40.489  14.469
58727W        W27101  19.776  42.894   0.731
58728W        W27102   5.246  26.060   9.544
58729W        W27103   2.310  13.675   4.192
58730W        W27104  22.124  14.707   1.358
58731W        W27105   0.767   2.382  11.526
58732W        W27106  26.626  12.680   0.933
58733W        W27107   9.782   0.485  10.966
58734W        W27108   2.928  16.091   4.270
58735W        W27109  27.016   7.238  13.055
58736W        W27110  20.631  38.534   0.899
58737W        W27111  40.010  22.132   2.252
58738W        W27112  41.324   6.852  12.369
58739W        W27113  20.653  37.521  14.870
58740W        W27114  31.094   1.869  13.847
58741W        W27115   2.766  36.576  13.498
58742W        W27116  18.211   3.949   1.264
58743W        W27117   7.216  27.972  10.158
58744W        W27118  32.578  34.559  11.533
58745W        W27119  14.137  30.621   0.808
58746W        W27120  38.961  15.251  12.839
58747W        W27121   1.376  20.536  10.629
58748W        W27122  19.760  17.607  12.930
58749W        W27123  34.013  35.435  14.962
58750W        W27124  43.990  23.013  12.580
58751W        W27125  29.937  34.058  11.056
58752W        W27126   8.297  30.049  13.495
58753W        W27127  11.289  40.409  13.465
58754W        W27128  42.413  29.636   2.692
58755W        W27129   1.336  39.321   4.641
58756W        W27130  26.485  36.986  11.472
58757W        W27131  42.397  40.940  14.950
58758W        W27132   8.843   2.757   1.870
58759W        W27133   0.821  20.142  11.991
58760W        W27134  35.085  18.265   2.845
58761W        W27135  12.791   8.689  14.934
58762W        W27136  35.962  16.167  12.395
58763W        W27137  23.719  23.030  14.909
58764W        W27138  18.784   6.842   0.421
58765W        W27139  40.511  28.444  14.483
58766W        W27140  26.168   6.856  14.022
58767W        W27141   8.896  34.110   1.850
58768W        W27142  25.563  40.477   1.924
58769W        W27143   7.742  14.115   4.705
58770W        W27144   4.896  32.984   1.865
58771W        W27145  38.378  42.446   4.335
58772W        W27146  26.116  33.501   0.745
58773W        W27147  20.641  30.095   2.269
58774W        W27148  20.074  37.952   5.791
58775W        W27149  29.952  24.125   4.691
58776W        W27150  22.138  31.636   1.233
58777W        W27151  16.286  27.578   1.262
58778W        W27152  22.695  17.611   1.828
58779W        W27153  38.381  28.476   0.872
58780W        W27154  26.186  31.446   4.618
58781W        W27155  25.113   3.314  14.983
58782W        W27156  38.346   5.705   3.312
58783W        W27157  44.410   9.320   4.310
58784W        W27158  43.787  39.015  14.374
58785W        W27159  18.093  27.644  12.895
58786W        W27160   6.384  39.325   3.281
58787W        W27161  27.105  13.608  12.895
58788W        W27162  10.844   3.439   2.873
58789W        W27163   3.386  13.159  14.001
58790W        W27164  37.375   2.956   2.869
58791W        W27165   4.300  31.904   2.698
58792W        W27166  28.118  13.260   1.287
58793W        W27167  12.352  31.065  13.801
58794W        W27168  42.521   6.276  12.995
58795W        W27169  21.621   8.728   0.848
58796W        W27170   1.404  10.339  13.455
58797W        W27171  39.525  22.188  10.436
58798W        W27172   7.856  44.863   0.727
58799W        W27173   9.176  14.733  10.618
58800W        W27174  27.049  26.109   2.247
58801W        W27175   8.371  26.199  13.031
58802W        W27176   7.762  28.636   0.779
58803W        W27177  33.447  34.890   0.477
58804W        W27178  34.067   0.837  13.917
58805W        W27179  38.847  22.560   2.209
58806W        W27180  33.392  19.284  10.130
58807W        W27181  42.777   8.787   0.931
58808W        W27182  20.241   7.340   3.823
58809W        W27183   2.947  22.707   3.301
58810W        W27184  19.538  17.137  13.010
58811W        W27185  36.475   2.917   3.862
58812W        W27186  12.697  16.279   2.731
58813W        W27187  34.104  20.240   2.669
58814W        W27188  30.142   9.245   3.336
58815W        W27189  41.833  39.853  12.021
58816W        W27190  20.680  31.519  11.501
58817W        W27191   0.917  10.245  12.955
58818W        W27192  18.598   0.754   0.268
58819W        W27193  33.547   0.315   4.251
58820W        W27194  39.472  32.079   1.915
58821W        W27195  35.451  24.514   2.664
58822W        W27196  19.092  23.078  14.501
58823W        W27197  29.034   7.276   4.764
58824W        W27198  28.127   6.702   4.597
58825W        W27199  26.174  33.515  10.915
58826W        W27200   2.252   8.660  10.604
58827W        W27201   4.918  27.622   3.171
58828W        W27202  18.691  39.446  13.388
58829W        W27203  15.795  39.358   2.801
58830W        W27204  40.317  13.658  12.534
58831W        W27205   9.668   9.723  14.421
58832W        W27206  43.768  18.226  12.537
58833W        W27207   3.864  44.395   4.186
58834W        W27208  40.942  19.149  14.827
58835W        W27209  12.253  10.195  13.411
58836W        W27210  20.581  13.237  11.414
58837W        W27211  21.169  27.189  12.524
58838W        W27212  34.880  13.335  14.774
58839W        W27213  39.974   8.799   5.094
58840W        W27214  27.161  16.253   2.236
58841W        W27215  38.553  21.702   2.376
58842W        W27216  12.301  38.015   3.209
58843W        W27217  14.704  44.318  14.994
58844W        W27218  16.151  22.689  13.406
58845W        W27219  28.998   5.866   2.848
58846W        W27220  22.163   9.878   2.721
58847W        W27221  27.093  15.329  14.296
58848W        W27222  35.430  19.072   0.807
58849W        W27223  29.655  38.538  11.027
58850W        W27224  21.183  33.096  12.917
58851W        W27225  26.670  35.448   4.150
58852W        W27226  14.263   5.913  14.300
58853W        W27227  26.512  30.528   1.848
58854W        W27228   9.190  25.522   1.791
58855W        W27229  10.266  41.022   4.808
58856W        W27230  15.294   1.834  13.880
58857W        W27231  22.624  26.633   4.744
58858W        W27232   5.874  21.033  12.036
58859W        W27233   7.841  14.829   2.354
58860W        W27234   2.467  31.484  12.066
58861W        W27235  14.237  41.847   0.299
58862W        W27236   3.822  31.569   2.875
58863W        W27237  11.658  19.121   1.814
58864W        W27238  17.075  27.446   2.726
58865W        W27239  19.643  38.418   3.837
58866W        W27240  37.032  27.955  13.349
58867W        W27241   0.981   8.398  14.514
58868W        W27242   6.355  38.963   5.265
58869W        W27243  20.703   9.827  10.931
58870W        W27244  26.604   9.321   0.290
58871W        W27245  22.210  12.309   1.434
58872W        W27246   2.827  15.290  11.509
58873W        W27247  29.616  16.238   0.279
58874W        W27248  18.785  22.201  14.936
58875W        W27249  11.143  38.497  13.534
58876W        W27250  44.384  15.682   4.736
58877W        W27251   2.871  28.995  14.996
58878W        W27252   7.415  20.644   1.442
58879W        W27253   8.668  25.149  11.997
58880W        W27254   6.884  32.522   2.717
58881W        W27255  15.681  22.046   1.284
58882W        W27256  11.637   9.822  13.424
58883W        W27257   9.820  32.507  13.038
58884W        W27258  29.169  35.385   2.730
58885W        W27259  30.502   0.946   5.220
58886W        W27260  14.680  23.182  12.854
58887W        W27261  35.939  29.578   1.306
58888W        W27262  30.496  14.334  13.943
58889W        W27263  13.739  23.017  11.573
58890W        W27264  17.155  11.797   5.153
58891W        W27265   0.884  42.804   2.355
58892W        W27266  30.563   0.337   0.276
58893W        W27267   7.358   2.243  11.484
58894W        W27268  17.649  25.043   4.760
58895W        W27269  29.119   5.197  12.999
58896W        W27270  18.588  16.086  13.906
58897W        W27271  43.846  38.477   4.341
58898W        W27272  13.107  43.311  14.335
58899W        W27273  11.280   7.883  12.968
58900W        W27274  24.145  15.786  12.002
58901W        W27275  42.858  12.353   4.669
58902W        W27276  44.843  44.805  12.462
58903W        W27277  25.714  43.798  13.361
58904W        W27278  28.628   9.164   0.747
58905W        W27279  15.655  26.699   3.754
58906W        W27280   8.347  27.981  14.925
58907W        W27281  30.154  24.035  12.032
58908W        W27282  26.461   5.739   4.613
58909W        W27283  34.966  37.974  11.033
58910W        W27284   4.923  11.630  14.892
58911W        W27285   7.392  15.649   2.774
58912W        W27286  33.007  20.035  12.465
58913W        W27287  39.389  13.723  12.345
58914W        W27288  32.025  14.789  13.428
58915W        W27289   4.350   9.226   3.825
58916W        W27290  18.572   5.311   0.941
58917W        W27291  16.796  21.579   2.830
58918W        W27292  35.867   4.424   2.397
58919W        W27293   2.924  24.185  12.004
58920W        W27294  14.323  24.652   3.688
58921W        W27295   0.447  43.297  12.358
58922W        W27296  27.087  14.221   2.181
58923W        W27297  40.864  39.010  12.029
58924W        W27298  33.942  12.679   0.456
58925W        W27299  16.308  24.663  14.019
58926W        W27300  34.874  41.360   0.789
58927W        W27301  12.679  22.225   1.827
58928W        W27302  16.082   7.402   4.688
58929W        W27303  40.837  24.222   4.806
58930W        W27304  44.922  19.241  13.018
58931W        W27305  29.142  36.954   1.750
58932W        W27306  22.604  43.351   2.822
58933W        W27307  19.131  19.068  13.319
58934W        W27308  17.628  31.938  10.537
58935W        W27309  39.996  30.653  11.435
58936W        W27310  41.472  14.279   2.398
58937W        W27311  41.400  19.053   3.689
58938W        W27312  25.706   8.670   2.408
58939W        W27313   5.923  25.104   0.945
58940W        W27314  36.000  15.738  11.532
58941W        W27315  43.822  37.072   3.679
58942W        W27316   3.258  32.114   1.325
58943W        W27317   2.466  24.101   1.412
58944W        W27318  19.611   6.710  13.865
58945W        W27319  12.765  38.453   3.744
58946W        W27320  21.623  11.182   3.727
58947W        W27321   7.744  28.145   0.435
58948W        W27322  18.589  42.884  10.923
58949W        W27323   2.238  23.607   2.841
58950W        W27324  31.038  26.703  11.129
58951W        W27325   1.311  35.556  13.045
58952W        W27326  22.035  19.559   1.880
58953W        W27327   4.800  17.697   4.239
58954W        W27328  33.937  11.135  12.372
58955W        W27329   2.945  40.044  10.494
58956W        W27330   3.932  13.219  12.460
58957W        W27331  44.843  38.470   1.399
58958W        W27332  40.482  43.781   3.810
58959W        W27333  44.346  42.461   1.823
58960W        W27334  28.646  10.796   0.441
58961W        W27335  43.310   2.237  14.925
58962W        W27336  22.033   8.754   1.387
58963W        W27337  27.683  12.255  10.959
58964W        W27338  39.907   0.478  12.425
58965W        W27339  42.524  21.723  13.059
58966W        W27340  14.793  21.094  12.086
58967W        W27341  13.205  40.346   2.823
58968W        W27342  35.444  35.075  11.014
58969W        W27343  29.945  14.607  10.489
58970W        W27344  12.775  22.051   1.439
58971W        W27345   2.345  43.441  12.349
58972W        W27346  38.571   8.711   2.774
58973W        W27347  23.532  13.253  10.493
58974W        W27348  29.601  10.265  10.906
58975W        W27349  14.246  41.379  14.835
58976W        W27350  26.553  29.126   0.257
58977W        W27351  33.507   1.240  12.039
58978W        W27352   1.297  34.524   4.314
58979W        W27353  21.044  23.552   2.181
58980W        W27354  33.414  23.122   1.831
58981W        W27355   8.681   2.799   0.799
58982W        W27356  21.169   9.313  12.449
58983W        W27357  10.682   0.316  13.443
58984W        W27358  27.049  31.077  14.505
58985W        W27359  40.332  11.793   9.987
58986W        W27360   2.882   4.905  12.072
58987W        W27361  12.756  35.066   1.403
58988W        W27362  33.049   2.238  11.033
58989W        W27363  30.035  15.267   4.703
58990W        W27364  13.753   6.413  12.948
58991W        W27365  39.997  27.138   2.863
58992W        W27366  33.411  33.086   0.319
58993W        W27367  13.306  33.921   2.207
58994W        W27368  38.910  37.870   2.836
58995W        W27369  26.640  29.923  12.860
58996W        W27370  15.756   8.772  13.834
58997W        W27371   9.674   8.227   1.715
58998W        W27372  12.345  43.352   1.341
58999W        W27373  35.937  37.011  12.827
59000W        W27374  30.956  37.355  14.920
59001W        W27375  39.841  16.739   2.321
59002W        W27376  30.536  41.482   3.154
59003W        W27377  43.323  34.924  11.434
59004W        W27378  28.939  44.918  11.486
59005W        W27379   1.250  19.282  13.423
59006W        W27380   9.684  19.137   2.330
59007W        W27381  27.559  21.529  14.901
59008W        W27382  37.539  44.460   4.708
59009W        W27383  23.115  39.044   0.438
59010W        W27384   8.772   5.349  14.376
59011W        W27385   5.841  32.510  13.546
59012W        W27386   3.832  13.184  14.769
59013W        W27387  20.684  28.530   2.227
59014W        W27388  23.508   6.837   1.809
59015W        W27389  34.990  34.589   0.922
59016W        W27390  37.046  38.475  13.528
59017W        W27391  31.031  34.493  12.487
59018W        W27392  25.488  10.219  12.361
59019W        W27393   6.760  15.271  11.969
59020W        W27394   9.348  28.540  12.432
59021W        W27395  27.462  22.142  11.996
59022W        W27396  38.389  37.853   0.285
59023W        W27397  14.633  23.128   0.370
59024W        W27398  15.117  20.070  10.973
59025W        W27399   4.887  28.002  12.466
59026W        W27400  23.060  33.881  11.858
59027W        W27401  25.061   9.877   2.684
59028W        W27402   0.936   0.898  10.068
59029W        W27403  34.967  41.917   0.911
59030W        W27404   3.342  39.394  12.383
59031W        W27405   0.395  42.019  13.923
59032W        W27406  19.542  18.267   2.240
59033W        W27407  37.378  38.333   2.772
59034W        W27408  23.198  43.338  13.919
59035W        W27409  13.149  29.078  11.925
59036W        W27410  12.850   0.860  14.331
59037W        W27411  15.233  17.569   1.350
59038W        W27412   4.446   4.245   3.338
59039W        W27413   1.935  23.699   0.938
59040W        W27414  44.002  31.005  13.429
59041W        W27415  30.164  18.114  13.342
59042W        W27416  33.976  27.692   3.815
59043W        W27417  29.546   7.262   4.289
59044W        W27418  38.843  40.962  13.317
59045W        W27419  13.739  41.907   4.252
59046W        W27420  19.683  11.160   3.354
59047W        W27421   5.430  22.635  11.507
59048W        W27422  22.166  41.949  13.313
59049W        W27423  12.747   3.417   4.153
59050W        W27424  31.055   6.218  14.031
59051W        W27425  42.840   2.468   3.373
59052W        W27426  26.106  36.019   3.783
59053W        W27427  37.478  34.046   0.835
59054W        W27428  31.091  21.735  13.515
59055W        W27429  23.555  28.469  11.031
59056W        W27430  40.914  29.026  13.898
59057W        W27431  11.667   9.685   1.836
59058W        W27432  21.670  37.920   4.646
59059W        W27433  29.490  30.624  12.564
59060W        W27434   9.698  28.119   4.171
59061W        W27435   6.277  36.589   2.244
59062W        W27436   5.846  25.054  12.539
59063W        W27437  36.926  25.686   1.865
59064W        W27438  43.477  17.251   0.325
59065W        W27439  11.689   3.343   0.469
59066W        W27440  12.270   2.471  13.541
59067W        W27441  14.742  28.014  13.457
59068W        W27442  29.447  29.480  12.437
59069W        W27443  12.697  28.587  14.873
59070W        W27444  43.817  28.141  13.429
59071W        W27445  32.951  15.596   0.258
59072W        W27446  19.178  20.156  11.546
59073W        W27447   7.263  43.287  13.878
59074W        W27448  10.149  37.881   4.321
59075W        W27449  11.709  42.304   1.450
59076W        W27450  36.011  33.582   1.450
59077W        W27451  17.096   7.354   2.370
59078W        W27452  41.855  26.142   1.318
59079W        W27453   1.820   5.242   0.958
59080W        W27454  22.697  12.203  12.834
59081W        W27455  26.161   9.296  14.881
59082W        W27456  33.493  15.257  12.395
59083W        W27457   2.311  24.128  11.031
59084W        W27458  27.522  17.782   0.357
59085W        W27459   2.370   1.287   2.825
59086W        W27460  34.474  19.053  11.098
59087W        W27461  25.650  12.288   0.906
59088W        W27462  10.221  17.579   4.698
59089W        W27463  19.260  27.045  11.488
59090W        W27464  40.917  25.073  11.585
59091W        W27465  42.890   9.849   2.297
59092W        W27466  34.040   0.417   4.247
59093W        W27467  39.518  12.662   4.246
59094W        W27468   3.882  10.656   0.961
59095W        W27469  42.397  17.234  12.090
59096W        W27470  25.587   2.899   0.384
59097W        W27471  43.853  22.547  11.558
59098W        W27472  27.656   0.274   5.130
59099W        W27473  38.450  43.505  11.477
59100W        W27474   1.360  14.123   1.257
59101W        W27475  42.841  18.791   3.798
59102W        W27476  17.632  38.064   3.370
59103W        W27477   5.263  42.497  12.367
59104W        W27478  10.156  26.010   0.826
59105W        W27479   6.392   1.383   3.281
59106W        W27480  34.564  12.762   3.158
59107W        W27481   1.476  35.971   1.350
59108W        W27482  17.185  19.212   1.334
59109W        W27483   5.278  12.331  14.821
59110W        W27484  31.913  39.390   3.773
59111W        W27485  37.442  31.015   0.444
59112W        W27486  29.428  34.396   1.264
59113W        W27487  27.622   9.337  13.004
59114W        W27488  14.827  28.513  14.861
59115W        W27489  16.170  30.145  13.839
59116W        W27490   2.833  44.311   4.230
59117W        W27491   0.313   5.324  13.320
59118W        W27492  19.769  16.725  12.070
59119W        W27493  33.480   6.746  12.014
59120W        W27494   3.273  15.799   0.767
59121W        W27495   6.331  20.620  11.399
59122W        W27496  26.490  34.037   2.309
59123W        W27497  24.157  11.277   4.766
59124W        W27498  30.000  42.287   3.854
59125W        W27499  43.915   3.921  12.903
59126W        W27500  33.512  29.594   0.863
59127W        W27501   7.383   8.191   3.726
59128W        W27502  44.913  29.607  12.845
59129W        W27503   7.339  19.061   1.428
59130W        W27504  35.056  31.130  13.962
59131W        W27505  29.648  24.586   3.667
59132W        W27506  30.468  36.872  12.380
59133W        W27507  35.030  24.062   1.335
59134W        W27508  36.000  28.616   3.864
59135W        W27509  42.004  32.400   4.665
59136W        W27510  11.263  28.540   0.460
59137W        W27511  32.900  35.559  14.337
59138W        W27512  16.744   7.417   3.324
59139W        W27513  42.335  16.742   0.832
59140W        W27514  39.315  27.572  10.631
59141W        W27515  13.742  37.990  14.487
59142W        W27516  23.625  28.651  14.458
59143W        W27517  28.087  38.390  13.407
59144W        W27518   5.387  19.068  13.422
59145W        W27519   7.738  25.150  10.499
59146W        W27520   8.367   2.867  10.938
59147W        W27521  13.796  41.426   2.346
59148W        W27522  35.571  28.938   1.287
59149W        W27523  20.182  23.148  14.358
59150W        W27524  36.048  22.056   2.407
59151W        W27525  43.835  43.996   1.385
59152W        W27526  37.062  42.985   1.317
59153W        W27527  42.382   6.877  10.623
59154W        W27528  16.717  36.348   1.722
59155W        W27529  32.550   2.899   3.863
59156W        W27530  17.679  19.547   4.314
59157W        W27531   0.919  19.105  11.512
59158W        W27532  38.008  26.206  10.476
59159W        W27533  29.644  22.149   2.268
59160W        W27534  34.868  20.141  12.439
59161W        W27535  14.660  40.917  10.419
59162W        W27536   8.807   1.926   2.720
59163W        W27537   9.369   2.258  11.602
59164W        W27538  38.029  17.719  13.502
59165W        W27539  43.391  28.499   2.241
59166W        W27540  40.514  17.661   3.688
59167W        W27541  31.636  26.183   2.234
59168W        W27542   6.395  11.241  14.467
59169W        W27543  29.128  42.411  14.515
59170W        W27544   3.380   0.256  11.024
59171W        W27545  25.546   6.350  13.453
59172W        W27546  26.691  10.735   2.690
59173W        W27547  25.624  35.425  11.109
59174W        W27548  34.471   2.345  12.850
59175W        W27549  23.078  26.042  10.898
59176W        W27550   7.243  15.584  11.497
59177W        W27551  17.094  17.075  14.027
59178W        W27552  10.648  26.957   3.351
59179W        W27553  20.170   5.216   1.414
59180W        W27554   1.410  11.803  10.616
59181W        W27555  25.991  39.003   1.230
59182W        W27556  13.817   6.843  11.399
59183W        W27557  39.030  43.885   2.745
59184W        W27558   2.951   5.226   2.280
59185W        W27559  14.111  15.301   4.604
59186W        W27560  19.088  42.310  10.527
59187W        W27561  17.082  20.092   3.831
59188W        W27562  20.045  34.452  11.446
59189W        W27563  25.201  15.664   5.300
59190W        W27564  33.429  34.921  12.090
59191W        W27565  36.022   5.320  11.967
59192W        W27566  35.981  19.202  11.473
59193W        W27567  10.366  22.654  14.485
59194W        W27568  19.614  21.038   1.244
59195W        W27569  22.535  30.598  13.845
59196W        W27570  36.480  19.226   3.732
59197W        W27571  27.983  29.993   3.827
59198W        W27572  21.117  16.301   1.722
59199W        W27573   5.868  28.518   0.467
59200W        W27574   7.811   5.382  10.586
59201W        W27575  33.449  38.877  12.870
59202W        W27576   7.887  21.710  12.018
59203W        W27577   0.253  21.145   0.438
59204W        W27578  26.157  25.597  12.514
59205W        W27579  25.047  13.311   5.083
59206W        W27580   4.737  37.998   2.768
59207W        W27581  19.693  13.266  11.490
59208W        W27582  24.999  19.744   2.352
59209W        W27583  28.655  12.191  14.793
59210W        W27584  34.462   4.803   0.398
59211W        W27585  39.481  44.971   3.260
59212W        W27586  44.962   6.312   1.901
59213W        W27587   1.357   3.353   0.426
59214W        W27588  12.204  40.001   0.396
59215W        W27589   7.813  19.615   3.162
59216W        W27590  18.754  34.423  14.460
59217W        W27591  22.169  25.524   0.806
59218W        W27592   0.782   1.931   1.754
59219W        W27593  31.436  44.403  11.612
59220W        W27594  39.919   6.403   0.361
59221W        W27595  33.414  34.435  13.521
59222W        W27596  10.241  31.609  10.535
59223W        W27597  43.860  17.743  14.502
59224W        W27598  40.451  37.360  12.482
59225W        W27599  12.278   2.844   1.354
59226W        W27600  25.137  27.172   0.299
59227W        W27601   6.819  37.888  10.552
59228W        W27602  26.685  32.079  10.513
59229W        W27603   6.297  43.290  13.959
59230W        W27604   0.945  11.723   3.221
59231W        W27605   0.389  16.103   4.236
59232W        W27606  38.901  27.487   2.188
59233W        W27607  43.376  29.466   3.635
59234W        W27608  26.106  31.503  12.497
59235W        W27609  14.109  11.338  11.473
59236W        W27610  24.530  42.825  13.367
59237W        W27611  27.188  26.975  12.913
59238W        W27612  42.525  22.215  14.338
59239W        W27613  37.380  34.600   4.692
59240W        W27614  17.086  28.672  14.447
59241W        W27615  37.913  16.286   2.270
59242W        W27616  30.908  19.113   3.222
59243W        W27617   5.892   5.236  10.496
59244W        W27618  19.580  32.634  11.859
59245W        W27619  16.132  10.312   9.997
59246W        W27620  20.552  18.646  11.611
59247W        W27621  11.358  25.660  14.769
59248W        W27622  22.106  25.674  14.427
59249W        W27623  16.313  42.393   1.828
59250W        W27624  30.414   7.175   4.722
59251W        W27625  26.548  16.637  14.515
59252W        W27626  25.655  22.215   2.355
59253W        W27627   3.364   5.731   1.285
59254W        W27628   6.876   5.347   2.779
59255W        W27629  20.698   8.853  12.826
59256W        W27630   6.356  10.186  10.070
59257W        W27631  19.604  34.395   1.248
59258W        W27632  40.479  36.518  12.444
59259W        W27633  39.514  35.897  14.953
59260W        W27634   5.365   7.319   0.927
59261W        W27635  43.387  17.198   1.229
59262W        W27636  37.572  13.842  14.355
59263W        W27637  40.878  34.963  12.420
59264W        W27638  38.408  19.696  13.948
59265W        W27639   8.317  26.513  12.514
59266W        W27640  16.813   6.807  14.891
59267W        W27641  19.170  35.942   4.295
59268W        W27642   8.901  29.544   0.878
59269W        W27643   7.875  15.212   3.808
59270W        W27644  24.025   5.913   3.293
59271W        W27645  44.466  29.582   4.168
59272W        W27646  38.949  43.806  11.984
59273W        W27647  11.760  42.891   1.718
59274W        W27648  24.621  40.374   0.784
59275W        W27649  42.915   8.877  10.484
59276W        W27650  35.557   7.403  13.526
59277W        W27651  41.873  25.630  11.874
59278W        W27652   6.402  23.038   1.213
59279W        W27653  42.506  35.416   3.708
59280W        W27654  29.095  26.634  14.275
59281W        W27655  21.083  27.495   2.704
59282W        W27656  34.568  36.425   0.403
59283W        W27657  28.145   6.411  10.896
59284W        W27658  21.231  17.226   1.742
59285W        W27659  25.618  31.068  13.994
59286W        W27660  38.464   7.373   1.285
59287W        W27661  11.347  24.719   4.117
59288W        W27662   6.809  34.984  11.451
59289W        W27663   1.354  21.077   2.687
59290W        W27664  24.647  15.750  14.964
59291W        W27665  16.235  27.461  12.513
59292W        W27666  39.906   8.654  11.420
59293W        W27667  28.154  39.482   1.228
59294W        W27668  23.596  13.728  14.812
59295W        W27669  36.073  15.305  13.845
59296W        W27670   4.268  10.869  14.828
59297W        W27671  11.228  32.962  11.588
59298W        W27672  24.153   0.435  11.861
59299W        W27673  24.618  30.479  12.438
59300W        W27674  12.360  34.561   2.762
59301W        W27675   6.218  24.060  10.031
59302W        W27676  35.950   1.843  11.946
59303W        W27677  39.894  44.856  10.644
59304W        W27678  20.181  44.772  13.805
59305W        W27679   4.764   8.784  12.010
59306W        W27680  35.531   3.318  11.488
59307W        W27681   0.901  17.073   0.277
59308W        W27682   1.276  42.919  13.418
59309W        W27683  20.617  10.762   1.364
59310W        W27684   0.928   4.435   2.842
59311W        W27685  43.386   1.798   4.833
59312W        W27686   6.678  17.193  14.486
59313W        W27687   6.852  18.625  12.452
59314W        W27688   3.360   8.862  14.465
59315W        W27689  10.212  34.873  10.932
59316W        W27690  30.009  27.654   2.220
59317W        W27691  10.147  12.802  12.379
59318W        W27692   1.851   3.847   1.246
59319W        W27693  12.134  37.078   2.856
59320W        W27694  43.477  20.253   4.159
59321W        W27695  24.047  12.356  10.977
59322W        W27696   3.956  24.118  10.153
59323W        W27697  25.539  43.807   4.286
59324W        W27698  11.275  43.849  12.384
59325W        W27699  17.156  23.731   0.446
59326W        W27700  39.478  24.500   1.822
59327W        W27701  43.348  19.693  10.058
59328W        W27702  12.310  28.934   0.348
59329W        W27703  24.057  11.248   4.186
59330W        W27704  27.070  37.487   3.708
59331W        W27705   1.973  11.751  14.330
59332W        W27706  38.508  22.613   0.742
59333W        W27707  20.581  23.043  13.315
59334W        W27708  15.201   4.298   2.868
59335W        W27709  25.116  22.691   0.801
59336W        W27710  20.549  38.501  12.873
59337W        W27711  14.189  38.030   2.207
59338W        W27712  38.838  11.344   2.801
59339W        W27713  26.103  29.600   2.812
59340W        W27714   9.679   4.217   2.761
59341W        W27715   7.252  29.957   1.342
59342W        W27716  23.648  39.420  13.986
59343W        W27717   8.668  28.154   5.259
59344W        W27718  36.025  10.735   1.720
59345W        W27719  18.734  27.454  13.392
59346W        W27720  27.179  10.156  14.813
59347W        W27721  34.925  37.887   1.773
59348W        W27722  30.599   0.481  13.895
59349W        W27723  29.948  43.764  13.811
59350W        W27724  22.579  11.346  13.413
59351W        W27725  27.569  37.452   4.824
59352W        W27726  39.393   2.446  13.310
59353W        W27727   1.272  21.695  11.956
59354W        W27728  27.176  42.967  11.983
59355W        W27729  35.959   1.844   2.700
59356W        W27730  24.105   2.248   3.346
59357W        W27731  31.056  22.218   4.656
59358W        W27732  31.538  32.901   3.261
59359W        W27733  34.885   2.909   3.677
59360W        W27734  36.574  26.606   2.280
59361W        W27735   7.872  31.003  11.882
59362W        W27736   0.866   5.714   3.234
59363W        W27737  19.589  28.499   1.711
59364W        W27738  15.323  39.477   4.282
59365W        W27739  18.729  10.879   1.741
59366W        W27740  31.443   3.863  12.507
59367W        W27741   3.242  32.560   2.868
59368W        W27742  12.744   9.835  10.586
59369W        W27743   5.812  12.656  10.435
59370W        W27744  19.726  21.534   1.362
59371W        W27745  26.098  38.002   2.733
59372W        W27746  28.063  34.606  11.515
59373W        W27747  32.109  18.230   2.195
59374W        W27748  17.752  16.180  11.470
59375W        W27749  43.872  39.317  14.952
59376W        W27750  24.568  21.587   3.804
59377W        W27751  10.790  35.913  12.932
59378W        W27752  20.116  32.448  12.420
59379W        W27753   3.891  22.173   2.821
59380W        W27754  11.288  39.461  13.044
59381W        W27755  44.000   5.711  11.955
59382W        W27756   9.683  38.833   3.837
59383W        W27757  19.281  19.707  12.563
59384W        W27758  16.177  20.112  11.472
59385W        W27759  32.540  15.126   3.639
59386W        W27760  18.768  35.938   1.331
59387W        W27761  22.716  17.645  10.511
59388W        W27762  29.060   8.326   2.417
59389W        W27763  34.068  37.420  11.855
59390W        W27764   4.705  18.283   1.411
59391W        W27765   2.763  37.940  13.796
59392W        W27766   3.791  42.023  11.473
59393W        W27767   3.278  22.126  14.906
59394W        W27768   0.375   7.372   0.304
59395W        W27769  44.446  15.792  12.580
59396W        W27770   2.463  10.267  10.441
59397W        W27771  27.638  35.051   2.266
59398W        W27772  34.427   1.973  14.355
59399W        W27773  18.266   8.660   3.183
59400W        W27774  36.589  39.052   0.810
59401W        W27775  34.863  38.347  14.952
59402W        W27776  41.921   2.820  10.989
59403W        W27777  19.050   7.728   0.861
59404W        W27778  12.276  34.053  12.423
59405W        W27779  18.098  39.060  11.879
59406W        W27780  39.021  39.954  13.420
59407W        W27781   5.249   5.236   2.409
59408W        W27782  15.276  23.727  12.872
59409W        W27783  38.837  28.548  13.377
59410W        W27784  36.477  33.499   3.312
59411W        W27785  25.134  35.971   1.326
59412W        W27786  28.665  35.602   0.902
59413W        W27787  43.481  25.543   3.692
59414W        W27788  25.646  41.411  12.089
59415W        W27789  15.655  29.989  14.845
59416W        W27790  29.461   3.305  10.575
59417W        W27791  42.500  41.349  13.981
59418W        W27792  17.238  19.639   4.691
59419W        W27793  18.155   4.421   0.470
59420W        W27794  27.160  24.587   3.695
59421W        W27795   3.951  25.589   2.266
59422W        W27796  21.164  34.584   2.289
59423W        W27797  35.858  12.822   1.430
59424W        W27798  12.651   4.307   2.219
59425W        W27799  41.421   5.690   1.821
59426W        W27800  24.685  20.527  11.606
59427W        W27801  31.610  10.684  10.939
59428W        W27802   9.708   3.938   0.821
59429W        W27803  21.751  17.725  12.955
59430W        W27804  35.105  13.274  13.820
59431W        W27805  23.193  38.513  14.815
59432W        W27806  22.719  11.666  12.980
59433W        W27807  36.453  41.430  14.395
59434W        W27808  20.163  19.761  13.542
59435W        W27809  43.409  19.039   0.443
59436W        W27810  21.172   9.735   3.700
59437W        W27811   5.278  35.493   1.415
59438W        W27812  10.199  34.560   3.694
59439W        W27813  11.353  11.674  13.317
59440W        W27814  21.233  14.717   2.409
59441W        W27815  39.813  20.180  13.912
59442W        W27816  10.650  16.581   0.393
59443W        W27817  19.738  14.161  14.294
59444W        W27818  35.913  44.372   1.254
59445W        W27819   1.329   8.668  11.941
59446W        W27820  11.824   5.817   2.772
59447W        W27821  34.494  40.927  13.000
59448W        W27822  14.682  32.128   0.797
59449W        W27823  42.492  44.786  14.377
59450W        W27824  23.172  44.941  14.770
59451W        W27825  12.805  40.998   1.381
59452W        W27826  25.478  14.226   3.328
59453W        W27827  33.955  34.887  11.073
59454W        W27828  12.803  38.002  12.495
59455W        W27829  20.186  24.721   4.221
59456W        W27830  36.478  33.488   1.356
59457W        W27831   4.368  10.692  12.448
59458W        W27832  31.102  13.666   3.836
59459W        W27833  18.789   1.829   2.792
59460W        W27834   6.834  33.932  12.037
59461W        W27835  43.324  21.156   0.933
59462W        W27836  30.614  37.993  13.522
59463W        W27837  26.012  26.501  11.120
59464W        W27838  14.309  39.819   1.308
59465W        W27839   5.356  23.193  11.922
59466W        W27840  35.059  14.680  13.792
59467W        W27841  30.146  24.629  12.875
59468W        W27842  21.230  30.617   5.300
59469W        W27843  15.587  34.576   1.286
59470W        W27844   9.732  26.999   2.244
59471W        W27845   8.297  12.169   1.356
59472W        W27846  14.797   0.793  12.091
59473W        W27847   7.847  10.680   4.130
59474W        W27848   7.679  14.334  12.439
59475W        W27849  42.968  12.725   4.155
59476W        W27850  21.701  31.477   2.276
59477W        W27851   5.750  35.452   2.358
59478W        W27852  34.971  37.857  11.548
59479W        W27853   6.717  29.620   1.289
59480W        W27854  31.907   3.372   4.124
59481W        W27855  32.049  13.159   3.280
59482W        W27856   1.763   8.814  12.842
59483W        W27857   4.849  20.158   0.437
59484W        W27858  42.832  27.065   4.812
59485W        W27859   8.808  43.367  14.764
59486W        W27860  13.789  20.143   2.395
59487W        W27861  32.920   2.391   3.703
59488W        W27862  29.926   6.826  12.908
59489W        W27863  44.841  21.053   2.373
59490W        W27864  24.654  38.869   2.714
59491W        W27865  39.982  29.142  12.533
59492W        W27866  34.031  31.534   0.243
59493W        W27867   3.292  34.615   2.233
59494W        W27868  32.930  11.840   4.201
59495W        W27869  39.556  34.497   2.880
59496W        W27870  36.491  19.234  10.560
59497W        W27871  15.807  15.637  13.318
59498W        W27872  38.495  38.334   4.699
59499W        W27873  22.063  11.867  11.480
59500W        W27874  37.917  20.716  12.077
59501W        W27875  19.150   8.701  13.419
59502W        W27876   8.799  41.331   0.457
59503W        W27877  24.522  30.967  14.974
59504W        W27878  39.428  11.623  13.041
59505W        W27879  25.503  40.344   3.695
59506W        W27880  43.905   2.280   0.849
59507W        W27881   4.904  44.914   5.280
59508W        W27882   7.364  12.653   3.866
59509W        W27883  38.909  43.814   2.400
59510W        W27884  43.490  13.741  14.486
59511W        W27885  24.141   4.388  11.940
59512W        W27886  43.866   3.902   2.247
59513W        W27887   1.475  44.864  12.473
59514W        W27888  43.447   0.464   4.204
59515W        W27889  34.548  11.734  11.126
59516W        W27890  25.979  27.620  14.468
59517W        W27891   5.826  19.204   4.191
59518W        W27892  22.218  34.117   0.789
59519W        W27893  22.251  30.463  10.012
59520W        W27894  21.715  40.954  10.494
59521W        W27895  11.671  33.958  13.479
59522W        W27896  44.895  38.879  12.839
59523W        W27897  25.201  27.621  12.930
59524W        W27898  31.643  12.150   0.352
59525W        W27899  29.952   0.808   0.479
59526W        W27900  21.642   3.736  14.838
59527W        W27901   6.270  10.717   9.991
59528W        W27902  15.737  16.792  12.054
59529W        W27903  36.092  14.166   4.813
59530W        W27904  15.710  38.880  14.303
59531W        W27905  39.826  19.566  14.022
59532W        W27906  39.962  37.522   3.727
59533W        W27907  42.883   5.366  14.949
59534W        W27908   3.425  40.977  10.539
59535W        W27909  25.049  36.977   3.377
59536W        W27910  13.681  11.166   1.352
59537W        W27911  12.794   6.854   2.674
59538W        W27912  26.543  26.642   4.665
59539W        W27913  42.836  10.663   2.326
59540W        W27914  25.018  43.322  13.373
59541W        W27915  26.556  21.517   4.820
59542W        W27916   8.858   2.881   5.230
59543W        W27917  34.588  34.912  14.989
59544W        W27918  27.090  28.959  11.113
59545W        W27919   4.364  22.684   2.185
59546W        W27920  37.554   2.416   4.791
59547W        W27921  22.682  29.623   3.761
59548W        W27922  22.625   4.340  10.896
59549W        W27923  35.424  27.118   1.275
59550W        W27924   4.813   2.898   3.677
59551W        W27925  17.585  26.975  14.853
59552W        W27926  40.989   2.306  13.887
59553W        W27927  37.054  25.110   2.875
59554W        W27928  12.199  42.382  11.514
59555W        W27929  38.369  43.429   1.846
59556W        W27930   9.169   6.347   4.815
59557W        W27931  19.593  27.536   4.806
59558W        W27932   4.810  30.042  10.932
59559W        W27933  36.895  42.518  14.438
59560W        W27934  41.481  38.828  10.458
59561W        W27935  40.374  15.271   2.717
59562W        W27936  13.261  26.519   0.878
59563W        W27937   4.828  42.446  11.940
59564W        W27938  29.034   5.898   3.210
59565W        W27939  16.596  43.765   1.865
59566W        W27940   7.802  38.569  11.048
59567W        W27941  20.218  29.447   1.413
59568W        W27942   2.850   3.909   3.165
59569W        W27943   0.304  15.710   4.738
59570W        W27944  27.455  32.483  13.906
59571W        W27945  16.806  40.511   3.654
59572W        W27946  37.022  43.934   1.743
59573W        W27947  42.806  26.600   3.767
59574W        W27948  18.263   5.289   2.816
59575W        W27949   9.730  15.624  10.580
59576W        W27950  41.846   7.697   1.934
59577W        W27951  44.802   3.906   3.778
59578W        W27952   0.983   1.322   3.697
59579W        W27953  31.114   3.354   3.343
59580W        W27954  36.007  33.006   0.910
59581W        W27955  36.002  37.050   0.274
59582W        W27956  21.545  11.174   0.325
59583W        W27957  26.033   9.297  12.362
59584W        W27958   9.287  19.056   1.854
59585W        W27959   1.958  42.850  13.010
59586W        W27960  40.872  17.766   4.693
59587W        W27961  12.662   0.309   3.674
59588W        W27962   9.838  31.029   0.384
59589W        W27963  41.798  31.494   1.702
59590W        W27964  15.242   7.845   1.392
59591W        W27965  23.500  16.578  12.542
59592W        W27966  23.163  28.570   1.342
59593W        W27967  10.632  19.584  13.957
59594W        W27968  43.379  10.145  11.048
59595W        W27969  25.496  15.600  13.974
59596W        W27970   9.239   8.253  14.457
59597W        W27971  30.950  38.926  11.591
59598W        W27972   0.269  17.691  10.459
59599W        W27973  33.012   0.884   4.636
59600W        W27974  20.114  40.314   2.215
59601W        W27975   5.353  22.672  12.351
59602W        W27976  33.041  26.539  14.822
59603W        W27977  27.173  31.929   3.724
59604W        W27978  33.103  26.676   4.819
59605W        W27979   5.786  29.155   5.309
59606W        W27980   6.756   0.914  13.529
59607W        W27981  44.317  42.348   2.297
59608W        W27982  20.177   1.782  10.614
59609W        W27983   2.811   5.810  14.486
59610W        W27984   7.250  33.049   1.332
59611W        W27985  16.793  18.787  13.947
59612W        W27986  25.537  28.029   1.376
59613W        W27987  23.151  24.053   1.801
59614W        W27988  19.711  44.879   2.873
59615W        W27989   8.273  18.112  12.381
59616W        W27990  36.473  38.427  13.422
59617W        W27991  39.937  44.841   3.293
59618W        W27992  42.944  27.618   2.850
59619W        W27993   3.807  37.384  14.023
59620W        W27994  42.962  12.169   2.723
59621W        W27995  40.927  27.003  12.958
59622W        W27996   6.407  18.070   3.783
59623W        W27997  34.536  10.727   4.277
59624W        W27998  15.618  13.746  11.063
59625W        W27999  25.561  42.325   4.640
59626W        W28000  41.000  14.715   0.799
59627W        W28001  26.989  26.960   4.321
59628W        W28002  26.144  21.643   4.823
59629W        W28003  43.367  19.568  11.025
59630W        W28004   9.724  33.547   2.740
59631W        W28005  31.431  18.119   2.816
59632W        W28006   6.682  43.859  12.365
59633W        W28007  30.556   3.428   0.450
59634W        W28008   3.251  21.037  12.004
59635W        W28009  15.659  38.037   1.725
59636W        W28010  35.896  44.466   2.794
59637W        W28011  23.679  27.957   1.228
59638W        W28012  28.545  12.265   2.800
59639W        W28013  44.862  25.636  10.917
59640W        W28014  23.007  20.648   0.919
59641W        W28015  34.957  33.388   0.322
59642W        W28016  23.071  16.096  10.898
59643W        W28017  32.114   1.274   2.850
59644W        W28018  20.715  24.577   0.794
59645W        W28019  39.487  40.420  12.040
59646W        W28020  40.515  44.900   0.905
59647W        W28021  17.596  32.121  12.995
59648W        W28022  27.078  11.328   0.895
59649W        W28023  16.578   4.804   2.290
59650W        W28024  25.160  42.525  14.422
59651W        W28025  18.234   7.299  11.495
59652W        W28026   3.840  32.572  10.595
59653W        W28027  31.473  37.531   2.794
59654W        W28028   6.368  15.241  11.405
59655W        W28029  38.018   7.306   9.633
59656W        W28030  41.495  11.851  11.885
59657W        W28031  19.542   2.244  11.439
59658W        W28032   6.400  14.278  11.404
59659W        W28033   8.186   8.790  12.951
59660W        W28034  18.667  19.630   0.378
59661W        W28035   4.304   6.331   2.725
59662W        W28036  13.806  18.209   3.752
59663W        W28037  43.901  18.560  14.439
59664W        W28038   1.299  11.672  10.991
59665W        W28039   1.285  38.899  12.576
59666W        W28040  14.311  37.053   4.350
59667W        W28041  10.799  22.088   1.303
59668W        W28042   8.693  28.675  11.424
59669W        W28043  10.713  12.640   0.799
59670W        W28044   1.476  32.456  11.466
59671W        W28045   3.893  18.225  11.052
59672W        W28046  32.521  16.601   0.328
59673W        W28047  25.027  44.942  13.881
59674W        W28048   1.742   2.820  13.923
59675W        W28049  24.107  26.573   4.136
59676W        W28050  29.922  13.269  11.988
59677W        W28051  21.555  31.953  13.429
59678W        W28052  14.273  13.724  11.945
59679W        W28053  15.610   8.657   2.296
59680W        W28054  34.019  33.522  12.000
59681W        W28055  32.066  19.664   2.898
59682W        W28056  12.785  21.127   0.444
59683W        W28057   8.406   9.783   1.894
59684W        W28058  19.115  30.432   3.778
59685W        W28059  33.887  16.710   4.141
59686W        W28060  41.319   5.250   0.956
59687W        W28061   9.166  13.107   2.288
59688W        W28062  42.794  27.682  14.383
59689W        W28063  43.875  14.650   0.369
59690W        W28064  17.654  31.911   1.446
59691W        W28065  19.119  38.834   3.285
59692W        W28066  25.964  30.115  13.363
59693W        W28067  38.476  34.445  12.987
59694W        W28068  22.018  17.096  14.354
59695W        W28069  40.862   3.955  10.951
59696W        W28070  15.807  16.654  14.763
59697W        W28071  13.343  37.948  12.394
59698W        W28072  27.171  30.997   2.785
59699W        W28073  30.428  12.616  13.004
59700W        W28074   5.221  26.689   1.924
59701W        W28075   8.352  44.876   4.797
59702W        W28076  17.134  37.470   1.746
59703W        W28077   1.971  14.288  10.411
59704W        W28078  37.469  42.308  13.517
59705W        W28079  16.291  19.742  11.592
59706W        W28080  20.583  38.052   1.450
59707W        W28081   2.367   7.726   1.384
59708W        W28082   6.751  23.501   0.297
59709W        W28083  16.622  37.859   4.743
59710W        W28084  29.998  31.907   4.132
59711W        W28085  13.170  10.251  12.932
59712W        W28086  15.227  43.403  12.382
59713W        W28087  24.017  22.560   2.336
59714W        W28088   3.400  36.071   4.819
59715W        W28089  38.908  31.626   0.417
59716W        W28090  32.487  34.023  11.915
59717W        W28091  26.047  38.409   2.215
59718W        W28092  27.133  16.785   2.728
59719W        W28093  30.950  15.640  11.869
59720W        W28094  33.975  32.423  11.604
59721W        W28095  39.474  21.150  14.028
59722W        W28096  24.549   1.869   3.644
59723W        W28097  16.652  40.405   1.244
59724W        W28098  17.683  22.231  14.010
59725W        W28099  27.590   9.325   0.328
59726W        W28100   4.437  41.967   4.721
59727W        W28101  39.516  27.056  13.820
59728W        W28102  39.470  11.653  13.844
59729W        W28103  44.260  36.940   1.882
59730W        W28104  22.136  30.154  13.408
59731W        W28105  32.999  17.282   4.124
59732W        W28106  39.987  35.370  14.400
59733W        W28107  41.875  35.087   0.933
59734W        W28108   0.477  40.891  13.060
59735W        W28109  35.076  12.776   5.156
59736W        W28110  24.652  39.396   3.188
59737W        W28111   0.484   0.477  12.879
59738W        W28112  43.320  29.105  10.439
59739W        W28113  31.642  30.100  13.535
59740W        W28114  34.876  10.730   0.314
59741W        W28115  11.295   2.261  10.533
59742W        W28116   4.273  27.971  14.823
59743W        W28117  38.428  23.097   1.848
59744W        W28118  14.238  42.878   5.125
59745W        W28119  17.588  21.678  10.991
59746W        W28120  36.992  25.625  12.949
59747W        W28121  10.761  41.946   0.931
59748W        W28122  31.147  37.009  13.409
59749W        W28123  22.624   2.259   3.217
59750W        W28124  32.399  25.505   3.686
59751W        W28125  26.701  27.006   3.800
59752W        W28126  29.493   9.839  13.349
59753W        W28127  23.626  35.887   3.345
59754W        W28128   5.285  23.690   2.667
59755W        W28129   2.361   5.219  12.833
59756W        W28130  34.029  25.493   2.794
59757W        W28131  44.294   6.192   4.179
59758W        W28132  12.235  26.464  14.444
59759W        W28133  30.123  25.028   1.862
59760W        W28134  10.775  41.453   3.335
59761W        W28135  29.559  11.130   4.278
59762W        W28136  35.871  22.200  10.576
59763W        W28137  39.385  39.518  12.429
59764W        W28138   7.358  33.541   2.334
59765W        W28139   2.756  21.636  14.868
59766W        W28140  44.864  42.874  11.937
59767W        W28141  27.544  37.022  10.947
59768W        W28142  19.091  43.004  14.893
59769W        W28143  26.086  23.181   3.162
59770W        W28144  34.078  19.668   2.816
59771W        W28145  33.064  14.715   1.695
59772W        W28146  41.354  38.349   3.752
59773W        W28147   4.227   5.727   4.652
59774W        W28148   3.717  42.818  14.482
59775W        W28149  43.789  29.455  12.361
59776W        W28150   6.852  29.974  12.380
59777W        W28151   0.483  13.659   3.334
59778W        W28152  27.186  40.368   0.365
59779W        W28153  26.623   7.713   0.450
59780W        W28154  27.137  33.413   1.242
59781W        W28155  41.308  36.442  13.362
59782W        W28156  18.234  43.355   2.343
59783W        W28157   1.748  31.002  10.517
59784W        W28158   6.711  30.941   5.108
59785W        W28159  26.123  14.112  10.539
59786W        W28160  11.213   7.771   3.205
59787W        W28161  20.675   3.895   0.786
59788W        W28162  40.812   6.233   1.862
59789W        W28163  28.454  32.446  12.381
59790W        W28164   9.257  36.045  11.394
59791W        W28165  33.513   4.419  10.464
59792W        W28166   2.861  27.541   4.649
59793W        W28167  29.047  18.561  12.450
59794W        W28168  12.230   7.849  12.578
59795W        W28169  11.723   2.867  13.389
59796W        W28170   9.846  13.818  11.499
59797W        W28171  42.935  42.876   4.338
59798W        W28172  35.086   8.675  12.926
59799W        W28173  31.571  41.822   3.700
59800W        W28174  14.209  11.288   2.730
59801W        W28175   9.342  38.328  12.953
59802W        W28176  32.607   2.255  13.798
59803W        W28177   4.338  38.458   3.743
59804W        W28178  35.447  28.005  12.989
59805W        W28179  21.636  13.730   2.363
59806W        W28180  21.044  40.826   4.248
59807W        W28181   4.228  30.977   1.843
59808W        W28182   3.286   8.853   1.218
59809W        W28183   0.845  38.434   0.868
59810W        W28184  43.412   6.762  14.960
59811W        W28185  42.827  40.879   0.265
59812W        W28186  30.929  16.604   0.915
59813W        W28187   6.709  34.486  12.442
59814W        W28188  43.344  29.051   0.406
59815W        W28189  43.801   2.961   1.802
59816W        W28190  37.893  41.342   3.296
59817W        W28191   1.885  13.176   2.243
59818W        W28192  14.657   7.839   4.292
59819W        W28193  31.595  25.161  10.641
59820W        W28194  12.715  39.042   4.755
59821W        W28195  41.437  31.920  12.382
59822W        W28196   1.345  14.134  12.987
59823W        W28197  34.424  30.423   1.301
59824W        W28198  26.118  23.556  12.356
59825W        W28199  12.159  40.819   4.769
59826W        W28200  15.251   1.810  12.430
59827W        W28201  22.711  27.574  12.042
59828W        W28202  10.702  19.770  14.340
59829W        W28203   5.259   8.894   3.792
59830W        W28204  18.050  23.105  11.533
59831W        W28205   7.829  17.637  11.954
59832W        W28206  37.443   8.399   0.958
59833W        W28207  16.292   4.780   4.155
59834W        W28208  25.622  35.032  10.605
59835W        W28209  12.267  44.767  10.507
59836W        W28210  35.925   1.920  13.847
59837W        W28211  42.032  15.608  13.433
59838W        W28212  39.986  44.871  11.466
59839W        W28213  42.318  27.671   2.846
59840W        W28214  26.087  24.205   4.189
59841W        W28215   1.401   7.822  10.642
59842W        W28216  33.948  31.977   3.221
59843W        W28217  27.149  28.624   4.731
59844W        W28218  17.200  16.211  13.833
59845W        W28219   0.330  14.123   2.699
59846W        W28220  43.346  22.172  13.957
59847W        W28221  35.954  10.776  14.318
59848W        W28222  12.845  15.299  11.493
59849W        W28223  36.084   0.885  13.439
59850W        W28224  42.498  25.580  14.919
59851W        W28225  16.132  30.924   3.279
59852W        W28226  36.011  44.430   4.671
59853W        W28227  43.348  35.892  10.450
59854W        W28228  25.182   7.270  12.389
59855W        W28229  16.176  27.680  12.924
59856W        W28230  43.910  13.685  12.874
59857W        W28231  35.003  15.591   0.763
59858W        W28232  32.092  31.973   2.825
59859W        W28233  31.110  44.262  11.520
59860W        W28234  43.937   1.281   3.231
59861W        W28235  23.181  15.294   4.757
59862W        W28236  38.861  42.290   5.176
59863W        W28237   5.435  17.593  12.460
59864W        W28238   5.741  15.237  10.950
59865W        W28239   5.698  34.390  12.567
59866W        W28240  11.208  42.913   1.721
59867W        W28241  30.968  11.713  13.421
59868W        W28242  27.112   1.825  13.813
59869W        W28243  34.970  12.644  11.483
59870W        W28244  31.997   5.714   3.269
59871W        W28245  20.753  27.556   0.933
59872W        W28246   0.283  12.776   4.263
59873W        W28247   6.715   6.686   0.938
59874W        W28248   5.745  33.070  11.970
59875W        W28249  15.649  22.136  13.454
59876W        W28250   1.893   1.732   2.885
59877W        W28251  34.973   3.421   1.427
59878W        W28252   9.855  11.292  11.484
59879W        W28253  10.679   1.760  11.465
59880W        W28254  13.729  20.233  13.903
59881W        W28255  42.797  34.009  10.962
59882W        W28256  24.710  32.896   0.406
59883W        W28257  38.864  38.937   0.321
59884W        W28258   1.816  19.594   1.325
59885W        W28259   1.479  21.596   0.741
59886W        W28260  41.884   5.365   3.786
59887W        W28261  40.513   3.851  14.455
59888W        W28262  14.125  28.138   3.836
59889W        W28263   7.715  11.166   0.824
59890W        W28264  38.885  35.867  14.398
59891W        W28265  16.599  39.484   2.687
59892W        W28266  41.863  26.626  14.901
59893W        W28267  18.714  42.485  12.832
59894W        W28268  20.638  43.817  14.978
59895W        W28269  32.887  44.328   2.220
59896W        W28270   8.326  43.831  14.394
59897W        W28271  29.918  29.990  13.050
59898W        W28272   6.753  22.673   1.397
59899W        W28273  39.478  21.513  10.921
59900W        W28274   3.441  16.657  11.438
59901W        W28275  37.933   7.282  10.423
59902W        W28276  13.780  15.228  11.405
59903W        W28277  29.104  33.573  11.945
59904W        W28278  23.553   1.278   0.403
59905W        W28279  33.041  35.459  10.603
59906W        W28280  14.742  19.699  12.870
59907W        W28281  38.514   5.234  11.596
59908W        W28282   4.204  43.419   1.848
59909W        W28283  12.656  26.676  13.813
59910W        W28284  33.930  35.508   1.430
59911W        W28285  16.802   3.737  10.472
59912W        W28286   0.251  28.042  12.857
59913W        W28287  27.081  21.626   1.844
59914W        W28288  34.068   8.397  12.346
59915W        W28289   6.831   5.691  10.549
59916W        W28290  20.598   2.835   1.888
59917W        W28291  34.947   5.919   1.212
59918W        W28292  12.219  28.034  12.083
59919W        W28293  42.967   2.915   2.743
59920W        W28294  23.672   8.757   1.212
59921W        W28295  14.700  17.297  12.347
59922W        W28296  15.226  41.007  14.470
59923W        W28297  25.132  25.147  14.401
59924W        W28298   5.871  12.654  11.416
59925W        W28299  26.082   2.314   4.611
59926W        W28300  27.533   5.718  14.440
59927W        W28301   9.814  13.350  11.451
59928W        W28302  32.590  36.076  13.356
59929W        W28303  39.412  34.982   1.821
59930W        W28304  28.568  43.951   0.899
59931W        W28305  14.185   6.829  10.603
59932W        W28306  33.380  10.372   5.164
59933W        W28307  19.046  37.504  13.850
59934W        W28308   4.886  24.568  10.919
59935W        W28309  30.550  18.219  10.603
59936W        W28310  14.134   1.791  13.836
59937W        W28311   5.417  15.204   3.338
59938W        W28312  36.088   2.307  12.055
59939W        W28313  24.126   9.794  14.813
59940W        W28314  20.675  41.407   2.746
59941W        W28315  19.045  30.020   0.761
59942W        W28316  19.585   1.356  14.383
59943W        W28317  21.259  29.655  10.618
59944W        W28318  39.978  29.025   1.396
59945W        W28319  12.689  26.092   2.801
59946W        W28320  32.069  25.098  10.903
59947W        W28321  17.655  29.919  10.626
59948W        W28322  28.058  43.378   5.633
59949W        W28323  21.068  12.784  11.897
59950W        W28324  27.173  20.266   1.316
59951W        W28325  39.413  24.581   3.367
59952W        W28326  22.162  25.171  13.798
59953W        W28327  21.597  30.429  10.025
59954W        W28328  22.522  27.467   2.823
59955W        W28329   0.981  23.099  11.039
59956W        W28330  31.118  36.989   2.834
59957W        W28331  31.990  29.140   0.321
59958W        W28332  38.371  33.086  13.807
59959W        W28333  25.713  20.646   0.904
59960W        W28334  41.380   3.916   3.838
59961W        W28335  41.816  11.194  10.563
59962W        W28336  14.204  38.014   1.871
59963W        W28337  37.027  34.593   0.965
59964W        W28338  17.623  31.475   3.687
59965W        W28339  18.585  38.491  10.937
59966W        W28340  44.994  33.878   1.387
59967W        W28341   1.394   0.331   0.263
59968W        W28342  10.375  19.227  11.973
59969W        W28343  14.320   8.783   3.830
59970W        W28344  19.763  24.166  13.337
59971W        W28345  22.664  21.739  13.935
59972W        W28346  41.973  33.918  11.566
59973W        W28347  14.673  17.151   3.633
59974W        W28348  42.854  31.403   4.605
59975W        W28349  38.472   6.698  12.041
59976W        W28350  32.125  10.324   3.351
59977W        W28351  10.264   7.212   3.765
59978W        W28352   8.395  40.491  10.450
59979W        W28353  41.868  23.692  10.039
59980W        W28354  36.516   2.439  10.904
59981W        W28355  38.910   0.422  10.416
59982W        W28356  18.142  23.119  14.334
59983W        W28357  27.158  40.508   0.875
59984W        W28358  22.672  44.915  13.393
59985W        W28359  36.048  20.090  13.858
59986W        W28360  40.542  10.280   0.312
59987W        W28361   9.365  35.897   3.374
59988W        W28362  38.949   1.415   2.253
59989W        W28363  10.746   0.954  12.049
59990W        W28364  28.093  40.526   2.398
59991W        W28365  26.486  19.630  14.959
59992W        W28366  44.468  39.040  14.444
59993W        W28367  27.470  25.650  14.493
59994W        W28368  18.097  44.858   2.674
59995W        W28369  21.150   0.295   2.343
59996W        W28370  21.539  40.400   5.736
59997W        W28371  15.650  11.164   1.827
59998W        W28372  42.444  15.786  14.361
59999W        W28373  36.945  37.478   2.400
60000W        W28374  41.797  37.904   2.402
60001W        W28375  34.419  40.452  12.928
60002W        W28376  21.612  31.422  14.960
60003W        W28377  26.683  18.051  12.548
60004W        W28378   9.338  14.227  13.883
60005W        W28379  37.464  42.487   2.894
60006W        W28380  19.747  15.705  13.472
60007W        W28381  17.786   2.874   1.312
60008W        W28382  40.415  44.314   3.164
60009W        W28383   4.211  26.169   2.207
60010W        W28384  12.704  41.422   3.165
60011W        W28385  36.024   5.252  12.988
60012W        W28386  12.639   3.363  13.909
60013W        W28387  24.678  14.166  11.005
60014W        W28388  20.561  38.851  11.600
60015W        W28389  40.901  31.150  14.795
60016W        W28390   6.194  25.606  11.457
60017W        W28391  22.571  23.628  11.588
60018W        W28392  34.459   2.880   3.282
60019W        W28393  19.655   0.333   2.702
60020W        W28394  39.064   5.376  11.548
60021W        W28395  18.259   2.267  13.354
60022W        W28396  21.578  24.537  14.985
60023W        W28397  18.126  20.128   2.727
60024W        W28398  22.080   6.768   4.679
60025W        W28399  19.694  26.523   3.377
60026W        W28400  17.748  44.978   0.278
60027W        W28401  26.997  36.853  13.513
60028W        W28402  23.071  30.631   1.334
60029W        W28403  25.591   3.857  11.969
60030W        W28404  14.133  29.442  11.424
60031W        W28405  22.105  22.224  11.093
60032W        W28406  25.181  35.497  14.378
60033W        W28407  41.988   2.940  13.336
60034W        W28408  23.171  21.703   4.125
60035W        W28409  33.125  12.280   1.930
60036W        W28410  17.157  42.479  13.030
60037W        W28411  23.573  29.113   2.349
60038W        W28412  17.265  22.121   0.484
60039W        W28413  42.396   2.275  12.023
60040W        W28414  37.929  39.455  12.072
60041W        W28415  23.724  34.474   0.316
60042W        W28416  20.058   1.317   1.269
60043W        W28417  14.816  19.605  11.884
60044W        W28418   6.244  33.583  14.879
60045W        W28419   4.805   5.409  12.432
60046W        W28420   8.734   3.434   0.817
60047W        W28421  40.408  37.858   4.284
60048W        W28422  23.714  34.553   2.681
60049W        W28423  36.546  43.835  14.362
60050W        W28424   2.933  14.765   3.859
60051W        W28425   0.864  23.502   1.888
60052W        W28426  38.340  10.767  11.489
60053W        W28427  42.935  15.140   4.257
60054W        W28428  12.763   7.350   3.247
60055W        W28429  38.881  32.026   2.384
60056W        W28430  20.245   1.822   4.341
60057W        W28431   9.800   1.732  12.050
60058W        W28432  19.628   7.298  14.811
60059W        W28433  20.669  35.536  10.570
60060W        W28434  31.577  29.597  12.861
60061W        W28435  27.477   0.366  10.935
60062W        W28436  11.342  34.885   1.867
60063W        W28437  20.146  41.984  11.586
60064W        W28438  43.490  17.564  12.052
60065W        W28439  18.621  35.911   0.911
60066W        W28440  17.791  36.495  14.504
60067W        W28441  13.167  34.462   3.674
60068W        W28442  31.428  22.511  12.045
60069W        W28443  13.287  31.018   1.916
60070W        W28444   3.371   2.840  12.921
60071W        W28445  28.964  38.460   2.204
60072W        W28446  32.892  28.017  13.423
60073W        W28447  15.180  15.586  10.436
60074W        W28448   1.974  15.607  13.864
60075W        W28449   4.341  17.653   2.182
60076W        W28450   4.222  32.011  12.922
60077W        W28451  17.712  39.891   1.390
60078W        W28452  12.314  13.218   1.789
60079W        W28453   4.308  25.649   3.291
60080W        W28454   6.359  22.245  12.377
60081W        W28455  30.132  13.112   1.441
60082W        W28456  14.802  18.237   2.667
60083W        W28457  31.089  24.644   3.378
60084W        W28458  17.085  25.048   3.326
60085W        W28459  41.452   3.784   2.385
60086W        W28460  22.588  40.468   3.326
60087W        W28461  39.828  25.516  13.806
60088W        W28462   8.236   0.437  11.587
60089W        W28463  41.011  13.266  14.451
60090W        W28464   0.882  19.693  11.861
60091W        W28465  23.077   3.923   3.727
60092W        W28466   6.363  20.112  13.494
60093W        W28467  29.037  32.404   3.326
60094W        W28468  24.655  11.281  13.863
60095W        W28469   9.691  23.086   4.713
60096W        W28470   9.644  41.474  13.860
60097W        W28471  43.833   9.298  13.426
60098W        W28472  29.098  16.810   0.336
60099W        W28473  26.976  22.072  12.536
60100W        W28474  25.000   9.160  11.089
60101W        W28475  42.925  14.723   3.790
60102W        W28476   9.277  30.460   9.930
60103W        W28477  38.936  24.703   3.743
60104W        W28478   0.459  31.618   4.651
60105W        W28479   0.305  44.010  14.307
60106W        W28480  35.416  16.112   4.307
60107W        W28481  28.463  24.182  12.087
60108W        W28482  21.714   4.420  13.389
60109W        W28483   3.313  26.675  12.044
60110W        W28484  41.922  10.715  13.823
60111W        W28485  10.336   8.356  12.953
60112W        W28486  43.441  31.479   3.382
60113W        W28487  24.208  22.204   0.862
60114W        W28488  22.529  20.144   3.340
60115W        W28489   9.861  32.106   1.212
60116W        W28490   7.785   6.776   0.917
60117W        W28491  31.986  14.182   0.786
60118W        W28492   5.923  35.464   3.256
60119W        W28493  22.629  29.608   1.747
60120W        W28494  29.666  20.178   2.359
60121W        W28495  11.159   9.697   3.745
60122W        W28496   1.395   2.367  13.823
60123W        W28497  26.577  22.576   1.237
60124W        W28498   4.729  31.054  10.036
60125W        W28499  10.235   5.347  10.965
60126W        W28500  14.198  42.013  11.093
60127W        W28501   9.782  32.449  13.801
60128W        W28502  41.458  25.566  13.440
60129W        W28503  19.110  37.570  12.025
60130W        W28504  19.540  35.958  14.948
60131W        W28505  14.807   4.292  12.873
60132W        W28506  32.623   3.274   0.386
60133W        W28507  33.588  14.219  14.479
60134W        W28508  13.792   1.368   1.234
60135W        W28509   3.381  38.471   2.854
60136W        W28510  21.750   8.236   0.380
60137W        W28511  38.903  41.943  10.592
60138W        W28512  13.175  10.251  14.906
60139W        W28513  32.010  18.290   3.727
60140W        W28514  26.493  43.897   2.843
60141W        W28515  21.198  36.459   0.333
60142W        W28516  16.604  44.442   2.190
60143W        W28517  28.567   4.208   2.210
60144W        W28518  44.825  44.844  14.936
60145W        W28519  13.176  28.119   2.180
60146W        W28520  16.760  41.495   1.719
60147W        W28521  27.622  30.554   4.220
60148W        W28522   9.270  26.510   0.344
60149W        W28523   8.239  10.633  13.857
60150W        W28524  25.478  36.893  12.999
60151W        W28525  25.589   9.801   3.674
60152W        W28526  41.943  36.063  12.364
60153W        W28527   0.859   4.847   3.825
60154W        W28528  23.549  13.740   2.781
60155W        W28529  31.942  31.902   2.365
60156W        W28530  30.155  30.944  11.389
60157W        W28531  41.941  34.948   4.155
60158W        W28532  30.428  23.203  11.115
60159W        W28533  28.647   6.304  10.981
60160W        W28534   5.815  32.584  11.568
60161W        W28535  43.465   1.786   0.469
60162W        W28536   6.864  24.174  11.383
60163W        W28537  24.159  26.106  12.424
60164W        W28538  36.888  29.074   0.739
60165W        W28539  21.154  36.033  14.315
60166W        W28540  29.034  44.419  13.912
60167W        W28541  42.031   9.322  14.900
60168W        W28542  31.129  15.635   2.197
60169W        W28543  11.866   6.345  13.390
60170W        W28544  23.998  42.008   3.295
60171W        W28545   8.378  13.176  14.458
60172W        W28546  33.897   3.275   2.354
60173W        W28547   3.380  21.087  13.056
60174W        W28548  37.486  31.536  12.924
60175W        W28549  16.691  23.609  13.004
60176W        W28550  35.968   1.972  13.452
60177W        W28551  20.270  27.624   4.787
60178W        W28552   5.757  17.729  11.382
60179W        W28553  16.615  29.432   4.229
60180W        W28554  37.406   7.235   4.634
60181W        W28555  34.115  36.499   2.707
60182W        W28556   7.860  21.601  11.475
60183W        W28557   4.781  29.098  12.032
60184W        W28558  18.633  41.451  10.547
60185W        W28559  18.187  30.485  14.364
60186W        W28560   9.682   2.871  13.858
60187W        W28561  23.164  30.911   0.769
60188W        W28562   4.215  14.679   0.309
60189W        W28563  36.413  20.179  12.499
60190W        W28564  19.264   1.881  11.035
60191W        W28565   1.943  27.116   2.670
60192W        W28566  26.505   0.939   3.371
60193W        W28567  37.937  13.800   1.810
60194W        W28568  40.937   4.860  10.907
60195W        W28569  12.355   7.743  14.394
60196W        W28570  16.654  20.067   3.296
60197W        W28571  14.180  37.570  12.345
60198W        W28572   8.897  37.411   0.809
60199W        W28573  34.868   4.839  11.586
60200W        W28574  33.514  24.989  10.137
60201W        W28575   0.396  25.471   0.396
60202W        W28576  17.611  13.202  10.426
60203W        W28577  10.299  13.763   1.802
60204W        W28578  33.521  25.549  10.996
60205W        W28579  33.959  38.547   0.883
60206W        W28580  14.816  42.336  12.928
60207W        W28581  33.952   3.826  11.982
60208W        W28582  31.037   7.833   1.429
60209W        W28583  23.206  15.083   5.679
60210W        W28584  33.877   6.322  14.764
60211W        W28585  28.144  23.018  10.421
60212W        W28586  38.910  25.037  12.572
60213W        W28587  28.158   7.832  14.023
60214W        W28588   4.721  44.888   0.438
60215W        W28589  10.734  28.562  13.907
60216W        W28590  40.505  40.929  13.871
60217W        W28591  19.642  20.524  12.494
60218W        W28592  28.094  39.474   0.420
60219W        W28593   3.446   6.294   2.347
60220W        W28594   3.278  32.532  12.905
60221W        W28595  44.850  33.528   3.751
60222W        W28596   4.446  18.096  14.367
60223W        W28597  19.187  38.441  13.505
60224W        W28598   9.786  12.854   3.666
60225W        W28599   5.915  13.749  11.890
60226W        W28600  15.203  39.334   4.773
60227W        W28601  35.380  14.216  14.007
60228W        W28602  16.145   3.261   4.771
60229W        W28603  19.055  21.225   2.799
60230W        W28604  33.453  18.740  10.630
60231W        W28605  31.565  33.072  13.402
60232W        W28606  42.988   6.344   1.432
60233W        W28607  14.095  42.778  14.288
60234W        W28608  14.283   6.214   1.729
60235W        W28609  12.223  27.467  12.857
60236W        W28610  25.646  33.381   3.329
60237W        W28611   0.457  29.504  13.421
60238W        W28612  24.507  28.000  14.414
60239W        W28613  34.498  26.139   1.833
60240W        W28614   0.795  21.749   0.830
60241W        W28615  34.405   8.217  13.896
60242W        W28616  27.150  42.798   3.644
60243W        W28617  35.999  10.693   2.854
60244W        W28618  21.584  31.977  14.787
60245W        W28619  22.038  30.033   1.934
60246W        W28620  35.440  43.492  11.954
60247W        W28621   5.222  34.049  11.594
60248W        W28622  34.933   1.459   1.337
60249W        W28623  10.142  43.347   3.367
60250W        W28624  16.590  16.244   3.281
60251W        W28625  26.094  37.854  13.378
60252W        W28626  30.563   2.466  14.407
60253W        W28627  34.491  17.287  11.928
60254W        W28628   3.311   6.273   0.821
60255W        W28629  12.813  26.008  11.913
60256W        W28630   4.414  17.147  12.489
60257W        W28631  33.425  11.207   2.753
60258W        W28632  33.411  26.672  11.514
60259W        W28633  32.441  40.018   0.807
60260W        W28634   5.822  35.453  13.989
60261W        W28635  33.106   1.248  14.765
60262W        W28636  27.633   0.286   0.907
60263W        W28637  32.411  41.334  13.322
60264W        W28638  23.650  18.655   1.919
60265W        W28639  16.134  17.640  10.995
60266W        W28640  35.995  44.780  10.593
60267W        W28641   5.348  34.043  13.931
60268W        W28642  19.193   3.393  11.452
60269W        W28643  24.508  14.653   2.841
60270W        W28644  14.157  36.546   3.827
60271W        W28645  38.394  11.297   0.940
60272W        W28646  27.150  11.731  10.406
60273W        W28647  32.059  27.671  13.465
60274W        W28648   5.758  12.651   3.720
60275W        W28649  24.059  36.080   0.452
60276W        W28650  42.510   5.251  13.354
60277W        W28651  28.972  31.555   4.152
60278W        W28652  40.482  13.605   3.812
60279W        W28653  24.216   6.389   5.204
60280W        W28654   3.781   0.362   2.770
60281W        W28655  21.697  27.017   0.784
60282W        W28656  11.278  25.190   1.332
60283W        W28657   1.845   3.921  14.315
60284W        W28658  24.706  26.112   4.695
60285W        W28659  10.140  40.535   3.867
60286W        W28660  20.676  12.237  13.457
60287W        W28661   7.178  35.460   1.884
60288W        W28662  43.480  26.115  10.610
60289W        W28663  44.393  27.948  13.417
60290W        W28664  20.221  42.387  14.354
60291W        W28665  32.630  41.954  11.944
60292W        W28666   2.458  41.811   2.275
60293W        W28667  16.109   2.814  12.536
60294W        W28668  42.504  41.351  14.762
60295W        W28669  23.641   6.197  14.891
60296W        W28670  44.909  19.755  14.303
60297W        W28671  29.626  19.753   2.675
60298W        W28672  17.245  15.662  14.436
60299W        W28673  40.995   1.782  12.381
60300W        W28674  42.969   6.248  11.478
60301W        W28675  12.642  31.992  12.541
60302W        W28676  36.919  26.496  11.596
60303W        W28677  19.564  10.774   2.774
60304W        W28678  13.664  10.138   0.251
60305W        W28679  38.030   4.239  12.002
60306W        W28680  24.066   8.299   2.401
60307W        W28681  32.928   9.682  11.083
60308W        W28682  29.147  43.411   0.335
60309W        W28683   9.817   0.299  12.864
60310W        W28684  26.552   8.673  13.924
60311W        W28685  23.993  22.651  14.782
60312W        W28686   2.725  29.496   4.264
60313W        W28687  23.018  11.647  13.442
60314W        W28688  33.933  10.843  13.346
60315W        W28689   4.723   7.340   2.698
60316W        W28690  37.387  12.348   4.761
60317W        W28691   2.401  25.207   2.375
60318W        W28692  29.596  22.679   2.828
60319W        W28693  25.596   9.754  12.000
60320W        W28694  39.022  36.979   0.426
60321W        W28695  27.613  14.608  14.763
60322W        W28696   6.727  10.184   0.737
60323W        W28697  22.658  36.455   0.365
60324W        W28698   6.711  43.956   2.817
60325W        W28699  14.808  21.199   4.315
60326W        W28700  35.550  10.277   0.438
60327W        W28701  34.928  27.678   0.871
60328W        W28702  12.815  27.635  13.853
60329W        W28703   0.831  16.207  11.418
60330W        W28704   2.748  26.100  13.048
60331W        W28705  35.538  15.202   3.228
60332W        W28706  36.036  39.505   2.216
60333W        W28707  29.462   7.408  10.053
60334W        W28708   2.227  30.607   3.631
60335W        W28709  25.503  12.650   2.380
60336W        W28710  40.024  25.185   1.759
60337W        W28711  17.091  29.052  13.312
60338W        W28712  15.248  34.602  11.549
60339W        W28713  15.233   9.316   3.793
60340W        W28714  24.070  32.141   4.711
60341W        W28715   4.857   6.347  14.923
60342W        W28716  11.274   6.880  13.013
60343W        W28717   6.266  29.034   0.922
60344W        W28718  11.850  10.167   5.253
60345W        W28719  35.979  29.986  11.497
60346W        W28720  25.521   4.335   4.207
60347W        W28721  40.823  40.373  10.437
60348W        W28722  20.636   3.380  10.642
60349W        W28723   5.217   8.206   3.811
60350W        W28724  40.542   0.410  11.465
60351W        W28725  18.265  40.922   4.622
60352W        W28726  16.618   1.317  14.854
60353W        W28727   5.355   4.843  13.869
60354W        W28728  17.577  11.838   4.202
60355W        W28729  28.458  12.827   2.740
60356W        W28730  29.431  22.138  14.513
60357W        W28731   6.708  28.032   4.157
60358W        W28732  14.115  23.568  13.801
60359W        W28733   8.362  26.998   4.170
60360W        W28734  32.456  20.205   1.431
60361W        W28735  33.380  20.649  10.984
60362W        W28736  21.259  13.715  13.795
60363W        W28737  19.044   6.249   1.413
60364W        W28738  21.218  42.460   4.156
60365W        W28739  12.708  15.791  13.395
60366W        W28740  17.289  36.020   9.930
60367W        W28741  22.090   0.964  11.461
60368W        W28742  20.144   5.804   1.862
60369W        W28743  32.442  31.483   3.683
60370W        W28744  36.065  37.080  10.488
60371W        W28745  35.047   6.427  10.472
60372W        W28746   0.769  19.197   3.745
60373W        W28747  40.837  14.599  12.936
60374W        W28748  44.375  31.633  14.446
60375W        W28749   8.824  23.514   1.711
60376W        W28750   7.797   5.725   2.358
60377W        W28751  37.085  17.214   4.652
60378W        W28752  23.079  27.042   0.847
60379W        W28753   0.959   2.378  12.834
60380W        W28754  24.088   6.761   3.310
60381W        W28755  17.061  18.551   0.356
60382W        W28756  28.945  44.488  12.958
60383W        W28757  44.385  36.080   3.727
60384W        W28758  10.653  34.611  10.908
60385W        W28759  38.949  29.974   1.722
60386W        W28760  44.889  38.471   2.664
60387W        W28761  30.540  30.601   2.804
60388W        W28762  44.797  32.417   4.262
60389W        W28763  18.221   5.888   1.810
60390W        W28764  39.993   0.937   4.748
60391W        W28765  17.683   5.789   0.484
60392W        W28766  18.617   5.213  14.911
60393W        W28767  33.035  16.633  13.323
60394W        W28768  39.058  28.120   0.272
60395W        W28769  43.838  30.997   3.758
60396W        W28770   8.667  43.785   1.251
60397W        W28771  13.320  28.990   9.996
60398W        W28772   5.335   6.852  12.840
60399W        W28773  35.513  14.166   1.867
60400W        W28774  28.186  24.222   0.338
60401W        W28775  42.832  41.500  13.043
60402W        W28776  29.609  41.870   3.281
60403W        W28777  25.974  32.604   2.251
60404W        W28778  25.026  24.660  11.069
60405W        W28779  16.627  36.914  11.034
60406W        W28780   0.941   4.319  14.018
60407W        W28781  30.991   2.382  13.459
60408W        W28782  17.306  36.013  14.467
60409W        W28783   2.903   6.216  13.312
60410W        W28784  28.183  14.150  10.612
60411W        W28785  22.223  27.475   2.840
60412W        W28786  32.142   7.407   4.268
60413W        W28787  44.986  15.220   1.215
60414W        W28788  35.035  21.550   0.479
60415W        W28789  41.414  36.873   1.278
60416W        W28790  40.797   4.842  14.857
60417W        W28791   9.308   4.431  11.393
60418W        W28792   5.781  35.858   1.713
60419W        W28793  26.038  35.494   4.337
60420W        W28794  21.538  24.546  10.486
60421W        W28795  19.089  43.275  12.510
60422W        W28796  20.747  43.467  12.010
60423W        W28797  16.168  39.910   3.179
60424W        W28798   5.200  25.683   4.350
60425W        W28799  27.003  11.849   2.819
60426W        W28800  26.105   6.234   3.816
60427W        W28801  31.603  41.024   0.932
60428W        W28802   9.848  39.442  12.499
60429W        W28803   9.747  44.924  12.528
60430W        W28804  16.765  42.860  12.499
60431W        W28805   1.379   1.290  11.082
60432W        W28806  20.758  43.801   1.877
60433W        W28807  27.631  43.501  10.528
60434W        W28808  32.033  27.614   3.299
60435W        W28809  43.328  41.808   0.380
60436W        W28810  10.844   5.900  13.791
60437W        W28811  38.005  23.043  13.388
60438W        W28812   6.216   8.391  14.306
60439W        W28813  16.200  10.841   5.286
60440W        W28814   9.225   8.801   9.973
60441W        W28815  15.276  35.441   1.339
60442W        W28816  15.741  12.214  13.463
60443W        W28817  23.590  21.517   0.259
60444W        W28818  42.516   4.766  12.930
60445W        W28819  34.014  17.191   4.762
60446W        W28820  24.079  17.555  12.838
60447W        W28821  20.574  14.793  11.612
60448W        W28822  41.843  17.189   4.296
60449W        W28823  13.307   5.354   2.737
60450W        W28824  17.575  35.867  11.973
60451W        W28825  27.656  32.992   0.269
60452W        W28826  32.443  29.967  10.536
60453W        W28827  10.354   4.793  14.483
60454W        W28828  10.802   4.858   0.268
60455W        W28829  24.208   5.833  14.806
60456W        W28830   1.752  36.000   2.239
60457W        W28831  23.564  20.087   0.461
60458W        W28832  37.553   2.829   0.890
60459W        W28833  17.137  35.471   4.681
60460W        W28834  11.127  33.401  13.439
60461W        W28835  37.084  23.129   2.313
60462W        W28836  23.219  18.120   3.296
60463W        W28837  43.840  16.787  11.526
60464W        W28838  11.844  12.761  13.523
60465W        W28839  28.601  31.502  14.276
60466W        W28840  35.579  11.623   3.359
60467W        W28841  38.920  19.097  10.622
60468W        W28842  17.752  28.587   1.906
60469W        W28843   0.329  38.989   3.310
60470W        W28844   5.824  12.763   0.908
60471W        W28845  10.198  12.302   2.875
60472W        W28846  21.554  10.761  14.504
60473W        W28847  37.483   3.824   3.274
60474W        W28848  26.679  44.972   4.351
60475W        W28849  28.446  43.009   3.258
60476W        W28850  44.767  34.121   0.915
60477W        W28851  21.577  18.731  12.852
60478W        W28852  40.904  29.984  11.035
60479W        W28853  40.909  20.153  13.971
60480W        W28854   4.803  17.675  14.424
60481W        W28855   3.229  30.124  10.960
60482W        W28856  13.816   6.385  13.964
60483W        W28857  24.559   8.700  10.464
60484W        W28858   8.224   6.813  11.103
60485W        W28859  10.823   4.862  13.051
60486W        W28860  28.630   9.706  11.610
60487W        W28861  15.277  29.643   3.173
60488W        W28862  25.219  14.676  10.550
60489W        W28863  10.315   9.155  14.813
60490W        W28864  39.948  26.584   4.802
60491W        W28865  44.987   0.361  10.581
60492W        W28866   8.202   7.789  10.902
60493W        W28867  36.355   3.282   5.195
60494W        W28868  33.528  44.376   5.166
60495W        W28869   3.346  11.648   2.849
60496W        W28870  34.915  36.398  11.571
60497W        W28871  25.144   0.789   5.266
60498W        W28872   4.438  36.347   2.790
60499W        W28873  15.098   4.276   0.850
60500W        W28874  32.510  39.434   0.943
60501W        W28875   8.246  32.507  11.040
60502W        W28876   9.854  17.299   1.897
60503W        W28877   7.812  25.188   5.297
60504W        W28878  37.853  35.487   3.641
60505W        W28879  24.562  25.681  11.906
60506W        W28880  28.622  42.970   3.724
60507W        W28881   5.195  15.607  11.583
60508W        W28882  36.933  11.359  11.907
60509W        W28883  30.926  22.148  13.369
60510W        W28884   6.296  13.698   4.120
60511W        W28885  14.205  33.600   5.180
60512W        W28886  31.991  11.842  13.011
60513W        W28887   8.235  33.051  11.970
60514W        W28888  25.637   6.840  11.855
60515W        W28889  24.194  15.822  11.540
60516W        W28890   9.850  18.095  14.508
60517W        W28891  34.407  16.280   1.240
60518W        W28892  11.694  11.744   2.389
60519W        W28893  37.002   0.330  13.318
60520W        W28894  26.550  40.886   4.641
60521W        W28895  30.477   5.728   2.382
60522W        W28896  32.523  24.610  14.336
60523W        W28897  38.356  40.033   1.215
60524W        W28898   2.921  12.230  13.369
60525W        W28899  18.744  10.375   4.792
60526W        W28900  22.048  43.481   0.478
60527W        W28901   5.830   3.735   4.176
60528W        W28902  31.130  22.513  12.569
60529W        W28903  18.289  24.644  12.907
60530W        W28904   9.212  38.532  11.430
60531W        W28905  41.002  41.022   2.196
60532W        W28906   6.228   3.776   4.133
60533W        W28907  32.139  31.115  14.378
60534W        W28908   7.234  19.198   4.241
60535W        W28909  29.619  40.538   2.187
60536W        W28910  19.112  19.080  12.490
60537W        W28911  15.809   6.353   3.808
60538W        W28912  16.611  34.568   0.260
60539W        W28913  30.060  33.427   3.366
60540W        W28914  37.050  37.907   0.457
60541W        W28915  41.387   6.688   0.263
60542W        W28916  44.754  11.690   0.909
60543W        W28917  37.955   3.379  10.432
60544W        W28918  28.509   3.920   0.866
60545W        W28919  39.939   8.219   1.324
60546W        W28920   2.816  10.215  11.485
60547W        W28921  15.250  34.463   1.274
60548W        W28922  32.121  20.724   1.338
60549W        W28923  16.671   8.339   3.656
60550W        W28924  41.518  25.096  10.969
60551W        W28925  36.523  43.898   3.687
60552W        W28926  28.585  40.415  13.926
60553W        W28927  26.596   8.674  10.471
60554W        W28928  43.380   0.775  14.014
60555W        W28929  17.715   1.445  12.507
60556W        W28930  29.503  22.508  11.985
60557W        W28931   1.287  44.942  10.641
60558W        W28932  31.579   1.420   4.614
60559W        W28933   3.710  11.187   4.790
60560W        W28934  35.022   9.766   2.831
60561W        W28935  10.252  38.523  12.972
60562W        W28936   0.857  15.121  14.413
60563W        W28937  10.352  11.277   0.462
60564W        W28938  38.067  26.668  10.936
60565W        W28939  14.811   3.251  11.054
60566W        W28940   5.370  32.492   4.743
60567W        W28941  30.912  23.076  12.377
60568W        W28942  36.427  24.155  14.902
60569W        W28943  13.223  26.540  14.005
60570W        W28944  32.037  13.717  11.563
60571W        W28945  23.061  22.523  10.583
60572W        W28946   7.224  30.453   2.704
60573W        W28947  11.225  29.631  12.008
60574W        W28948  34.116  41.494   3.181
60575W        W28949  33.064  23.120  13.502
60576W        W28950  33.484  43.297   3.798
60577W        W28951  35.488  37.975   3.695
60578W        W28952  33.484  37.362  12.344
60579W        W28953  34.489  40.937   0.282
60580W        W28954   8.297  12.835  11.973
60581W        W28955   8.875  21.709  10.067
60582W        W28956  23.618  12.725   1.796
60583W        W28957  23.009  43.887   0.963
60584W        W28958  19.269   5.381   1.436
60585W        W28959  27.083   6.201  12.549
60586W        W28960  32.125  29.598   3.694
60587W        W28961  13.107   7.735  11.091
60588W        W28962  14.675   4.337  10.443
60589W        W28963  20.132   1.283  14.383
60590W        W28964   8.789  38.832  13.054
60591W        W28965  42.815  11.709   3.218
60592W        W28966  20.741   7.697  11.432
60593W        W28967  30.586  30.158  11.534
60594W        W28968  39.890  40.547   0.840
60595W        W28969  41.790  41.867  13.803
60596W        W28970  17.128  16.140   3.651
60597W        W28971   6.215  37.502   1.766
60598W        W28972  39.810  11.284  10.937
60599W        W28973  26.049  23.991  13.044
60600W        W28974   5.922  25.060   3.796
60601W        W28975   1.268  44.334   1.418
60602W        W28976  16.203   0.271  12.863
60603W        W28977   3.323  10.294   5.087
60604W        W28978   3.354  25.130   1.340
60605W        W28979  30.423  42.991  13.483
60606W        W28980   1.741  44.472  11.960
60607W        W28981  26.115  42.474   0.773
60608W        W28982  29.501  19.123  14.297
60609W        W28983  11.236  12.692   1.315
60610W        W28984  41.293  19.700   1.267
60611W        W28985  27.088  10.747  12.380
60612W        W28986   7.894  27.167  11.509
60613W        W28987   3.814  25.088   5.102
60614W        W28988  36.077  31.970   3.198
60615W        W28989  27.160  18.053  13.036
60616W        W28990   1.925  37.569   1.719
60617W        W28991  33.945   1.414   2.803
60618W        W28992  11.741  41.947  14.472
60619W        W28993  14.670  10.648   4.738
60620W        W28994   8.325  19.248   4.133
60621W        W28995  12.741  21.050  14.480
60622W        W28996   5.712  17.109  13.488
60623W        W28997   3.280  43.926  14.302
60624W        W28998  16.182   6.856  10.989
60625W        W28999   9.665  37.839   1.750
60626W        W29000  26.002  44.393  11.985
60627W        W29001  21.737  29.558   0.407
60628W        W29002  10.807  39.387   2.722
60629W        W29003  13.207   0.298   4.761
60630W        W29004  36.086  20.524   3.664
60631W        W29005  42.286   3.301   4.779
60632W        W29006   1.302  18.104  10.406
60633W        W29007  41.926  43.863   4.334
60634W        W29008  21.617  17.577   0.953
60635W        W29009  35.908  35.065  12.567
60636W        W29010  12.722  38.369  14.992
60637W        W29011   5.251  10.706  11.927
60638W        W29012   7.219  34.540   0.793
60639W        W29013  14.755   2.859   4.121
60640W        W29014   3.274  16.188  12.046
60641W        W29015   4.892   9.779  12.985
60642W        W29016  12.639  38.945  13.953
60643W        W29017  26.032  38.909   0.889
60644W        W29018  16.117  20.051   1.806
60645W        W29019  33.910   3.385  12.406
60646W        W29020  21.635  25.547   0.445
60647W        W29021   7.308  13.755   2.737
60648W        W29022  20.679  17.724  11.116
60649W        W29023  14.220  16.220  14.888
60650W        W29024  39.061   3.291   0.359
60651W        W29025  25.699   7.271   2.837
60652W        W29026  34.003  24.607  12.512
60653W        W29027  25.578  16.310  12.560
60654W        W29028  23.160   4.286   4.602
60655W        W29029  31.601  35.457  13.015
60656W        W29030  20.141  36.018   4.832
60657W        W29031   1.933  22.718  14.012
60658W        W29032   4.362  19.283   1.845
60659W        W29033  39.540  41.921   0.963
60660W        W29034  20.212  23.582   4.686
60661W        W29035  17.701  32.451   2.892
60662W        W29036  11.308  16.094   0.454
60663W        W29037  41.339  33.381   1.860
60664W        W29038  31.063  28.981   4.597
60665W        W29039  31.065   5.706  12.568
60666W        W29040  27.641  32.045   2.365
60667W        W29041   3.387  34.602  12.843
60668W        W29042  20.697  21.140  14.289
60669W        W29043  17.086  14.715   1.360
60670W        W29044  13.324  18.244  13.951
60671W        W29045  39.871   9.665   1.720
60672W        W29046   5.879  12.272  14.327
60673W        W29047  38.053   1.336   0.425
60674W        W29048  15.327  13.736  11.404
60675W        W29049  17.062  19.757  10.519
60676W        W29050  33.013  33.393   3.167
60677W        W29051  19.689  21.092  10.616
60678W        W29052  13.623  37.973  13.341
60679W        W29053  23.241  15.613   3.258
60680W        W29054  22.119  16.145  10.486
60681W        W29055   9.729  33.066   3.323
60682W        W29056  26.631  24.143   5.204
60683W        W29057  18.738  21.535   4.194
60684W        W29058  13.622  30.145   2.348
60685W        W29059   1.741  39.463  14.010
60686W        W29060   1.450  15.241   4.829
60687W        W29061  34.569  21.624  13.512
60688W        W29062  17.230  11.829   0.449
60689W        W29063  40.438  12.166  12.870
60690W        W29064  20.125  32.567  11.871
60691W        W29065  15.170   5.845   0.348
60692W        W29066  30.064  14.760  13.513
60693W        W29067   7.720  30.527   5.267
60694W        W29068  37.340   0.898  12.019
60695W        W29069  31.107  21.698  12.889
60696W        W29070  19.659  28.081   3.338
60697W        W29071  16.097  20.238   0.370
60698W        W29072   1.429  31.021   4.154
60699W        W29073  36.879  40.905  10.954
60700W        W29074   9.390  20.768  14.385
60701W        W29075  17.265  36.011  12.414
60702W        W29076  29.515  27.691  13.952
60703W        W29077   7.393  18.624  13.848
60704W        W29078  16.180   0.827  14.339
60705W        W29079  32.521  30.976   3.159
60706W        W29080  16.651  11.632  10.978
60707W        W29081  13.732  40.875   3.372
60708W        W29082   9.774   9.395  11.538
60709W        W29083   3.297  31.618  13.447
60710W        W29084  17.621  27.649   3.221
60711W        W29085  31.907   0.806   1.210
60712W        W29086  32.437   5.834  11.431
60713W        W29087  20.106  42.964   3.222
60714W        W29088  20.128  42.510  10.427
60715W        W29089  41.438   3.904  12.419
60716W        W29090  41.963  28.599  14.423
60717W        W29091  22.634  26.050  13.498
60718W        W29092  10.189   1.830   0.281
60719W        W29093  11.275  19.651  13.842
60720W        W29094   2.767  12.651   1.711
60721W        W29095  20.044  39.023  10.970
60722W        W29096   8.683   6.242   1.916
60723W        W29097  35.519  32.442   1.805
60724W        W29098   0.455  12.768   2.274
60725W        W29099  35.989  16.116   1.821
60726W        W29100  16.579  21.615  11.372
60727W        W29101  25.568  15.153  14.958
60728W        W29102  27.635  25.582   3.762
60729W        W29103   5.905  16.712   3.330
60730W        W29104  25.519  12.802   3.382
60731W        W29105   4.811  43.346   4.237
60732W        W29106   2.922  10.707   0.889
60733W        W29107  42.024  18.559  12.950
60734W        W29108  44.784  26.498  13.046
60735W        W29109   3.773  15.639  11.373
60736W        W29110  19.272  19.190  13.845
60737W        W29111  32.901  28.619   4.242
60738W        W29112  29.665  44.494   2.209
60739W        W29113  37.522  37.353   4.255
60740W        W29114  29.568  23.548   2.720
60741W        W29115  43.949  11.701  12.083
60742W        W29116  21.256  24.511   1.731
60743W        W29117  26.206  11.292   1.729
60744W        W29118  11.261  25.499  12.374
60745W        W29119  27.513  18.262   1.749
60746W        W29120  38.066   8.356   2.715
60747W        W29121  14.238   7.392  14.763
60748W        W29122   2.912   0.360   2.840
60749W        W29123  37.507  23.725  14.420
60750W        W29124  35.404   6.380  13.527
60751W        W29125  20.123  44.338   0.784
60752W        W29126  30.657  14.708   5.258
60753W        W29127   1.739   4.891   2.711
60754W        W29128  27.175   6.213   2.743
60755W        W29129   9.217  25.545   3.630
60756W        W29130  29.068  19.050  12.051
60757W        W29131  38.971  17.157   3.281
60758W        W29132   7.891   0.980   4.177
60759W        W29133  18.689  31.088  14.401
60760W        W29134  43.999  32.526   4.737
60761W        W29135   4.762   6.897   3.369
60762W        W29136  31.953  26.643  12.339
60763W        W29137   4.389   8.321   0.463
60764W        W29138  21.139  36.005   4.339
60765W        W29139  33.533  43.976   0.891
60766W        W29140   2.782  30.089  13.548
60767W        W29141  20.273   3.953   1.367
60768W        W29142  23.171  14.812  12.435
60769W        W29143  35.922  15.133  12.529
60770W        W29144  41.907   6.741   0.244
60771W        W29145  13.603  11.247   2.301
60772W        W29146   8.240  21.629   4.152
60773W        W29147  34.948  29.129   2.183
60774W        W29148   8.372   9.824  10.962
60775W        W29149  30.149   3.802   1.363
60776W        W29150   2.884  10.691  12.933
60777W        W29151  24.229  39.527  14.993
60778W        W29152   8.231  26.588   1.843
60779W        W29153  22.737  39.007  10.155
60780W        W29154  15.114  30.579   1.241
60781W        W29155  39.384  15.613   0.802
60782W        W29156  15.314  37.063   3.180
60783W        W29157  30.011  35.033  13.428
60784W        W29158   7.235  25.142  11.397
60785W        W29159   6.381   8.402   0.899
60786W        W29160  42.895  38.385  11.930
60787W        W29161  41.896  36.558   4.599
60788W        W29162  17.748   4.368   0.298
60789W        W29163  41.502  21.138   1.405
60790W        W29164  31.920  33.412   5.247
60791W        W29165  31.488  37.347   2.308
60792W        W29166  42.391  18.776   4.795
60793W        W29167  40.938  24.086  14.861
60794W        W29168  29.525  13.731  13.901
60795W        W29169   9.648   9.165  14.508
60796W        W29170  30.566  24.022  11.475
60797W        W29171  20.640  41.010   0.729
60798W        W29172  26.513   2.290   4.282
60799W        W29173  23.732  11.361  11.998
60800W        W29174   1.481   0.797   0.786
60801W        W29175  29.071   8.376   0.780
60802W        W29176  17.186  19.664   4.287
60803W        W29177  44.845   6.803  12.058
60804W        W29178   2.317  38.898   1.230
60805W        W29179  44.442  13.673  13.518
60806W        W29180  10.705  20.709  12.866
60807W        W29181  15.753  36.506  14.779
60808W        W29182  26.990  12.216  14.876
60809W        W29183   0.907  34.429  14.962
60810W        W29184  22.249  13.786  13.949
60811W        W29185  34.018   3.860  12.469
60812W        W29186  44.479  11.290  11.917
60813W        W29187  27.018  44.932   1.858
60814W        W29188  20.553  39.541  11.487
60815W        W29189  20.545  13.636   1.412
60816W        W29190   9.315  28.525  10.610
60817W        W29191  37.948  21.135  13.443
60818W        W29192  28.578  18.072  11.374
60819W        W29193  28.109  44.381  14.029
60820W        W29194   2.856  40.814  11.461
60821W        W29195  25.990  14.771   3.646
60822W        W29196   9.209   6.894   2.693
60823W        W29197  35.494   3.388   1.763
60824W        W29198  34.390  39.028  12.465
60825W        W29199  39.513  20.050  10.951
60826W        W29200  43.928  42.447  14.516
60827W        W29201  21.556  39.843  14.317
60828W        W29202  42.788  40.814  10.553
60829W        W29203  38.037  37.866   2.722
60830W        W29204  39.452  40.974   1.324
60831W        W29205  14.243   7.840   2.338
60832W        W29206  34.890  33.379  12.901
60833W        W29207  23.105  12.144  14.405
60834W        W29208  11.629  24.690   3.342
60835W        W29209  37.032  33.043   1.796
60836W        W29210  31.549  30.565   1.911
60837W        W29211  15.149  28.520  11.394
60838W        W29212   3.391  25.647  13.340
60839W        W29213  41.808  12.674   3.266
60840W        W29214  21.063  39.488  14.936
60841W        W29215  11.264   7.854   1.221
60842W        W29216  27.188  24.973   0.945
60843W        W29217  35.397  36.029   0.341
60844W        W29218  23.684  44.397  14.336
60845W        W29219   2.948  34.059   1.734
60846W        W29220  32.541   4.206  14.370
60847W        W29221   9.318  25.985   3.641
60848W        W29222  37.480  36.922  10.490
60849W        W29223  39.364  33.456  14.357
60850W        W29224  10.832  30.133  14.346
60851W        W29225  28.509  26.563  12.021
60852W        W29226  35.443  39.053  13.881
60853W        W29227  16.696  40.367  13.989
60854W        W29228  17.558  44.951   1.736
60855W        W29229  31.041   8.287   2.857
60856W        W29230  23.202  28.612   2.737
60857W        W29231  25.645  44.442  14.923
60858W        W29232   1.287   7.824   1.877
60859W        W29233  34.994  16.162   3.729
60860W        W29234  35.595  22.224  14.812
60861W        W29235  13.798  25.181  14.996
60862W        W29236  10.860  28.062  13.537
60863W        W29237   7.709  31.005   2.815
60864W        W29238  31.930  25.059  10.556
60865W        W29239  10.636  19.101  10.558
60866W        W29240  29.966  14.231   4.256
60867W        W29241  19.602  26.492   5.253
60868W        W29242  19.543  33.537   1.919
60869W        W29243  29.574  11.632  14.987
60870W        W29244  41.910  42.427   0.895
60871W        W29245  14.336  27.446   1.301
60872W        W29246  25.626  38.046   1.434
60873W        W29247  41.419  13.775   1.757
60874W        W29248  19.542  20.728   4.636
60875W        W29249   8.876  20.103   3.253
60876W        W29250  44.438  11.695  11.938
60877W        W29251  41.423  22.744  11.935
60878W        W29252   2.241   5.872   4.837
60879W        W29253  40.819  19.164   1.802
60880W        W29254  38.383   9.717  14.795
60881W        W29255   7.846  41.866  12.525
60882W        W29256  44.834  33.875   1.874
60883W        W29257   8.199  11.272  11.581
60884W        W29258  43.847  36.925  10.923
60885W        W29259  36.966  32.412  11.467
60886W        W29260  32.502  23.204   0.765
60887W        W29261  20.624  33.553   1.811
60888W        W29262  42.869   0.840   0.890
60889W        W29263  20.526   9.357   2.224
60890W        W29264  44.847  44.867  10.578
60891W        W29265  26.981  42.905  14.298
60892W        W29266  10.673  30.542   5.272
60893W        W29267  19.214  15.178  14.923
60894W        W29268  37.546   3.726  11.058
60895W        W29269  23.724  18.586   2.824
60896W        W29270  12.361  14.659   3.252
60897W        W29271  23.672   9.361   2.223
60898W        W29272   9.804  28.438   1.390
60899W        W29273  23.656  24.649  10.916
60900W        W29274  41.008  43.287   1.801
60901W        W29275  17.780  16.805   4.318
60902W        W29276  28.490   9.218  14.890
60903W        W29277  31.584  18.191  11.000
60904W        W29278   5.419  29.495   1.442
60905W        W29279   9.257   9.782  14.922
60906W        W29280  40.922  19.214  14.411
60907W        W29281  28.079  44.281   2.846
60908W        W29282  43.908   4.209  12.920
60909W        W29283  31.089  29.520  14.436
60910W        W29284  24.609  28.005   3.715
60911W        W29285  30.063  40.401  11.034
60912W        W29286   7.906  25.658  12.086
60913W        W29287  12.301  24.126   0.279
60914W        W29288  40.452  37.538  10.470
60915W        W29289   5.385  34.007   2.847
60916W        W29290   5.876  44.883  12.535
60917W        W29291  18.714  17.647   0.739
60918W        W29292  15.272  20.050  11.973
60919W        W29293  35.567   2.949  14.789
60920W        W29294  37.071  36.579   4.348
60921W        W29295  22.741  35.387   2.349
60922W        W29296   8.223  13.615   3.852
60923W        W29297  39.032  25.125   2.722
60924W        W29298  40.454  10.727  11.948
60925W        W29299  40.537  13.708   3.148
60926W        W29300   3.765  26.695  12.925
60927W        W29301  21.568   2.319  12.842
60928W        W29302  18.558  12.619  11.567
60929W        W29303  10.823  39.942  12.556
60930W        W29304  27.671  13.341  13.385
60931W        W29305  10.702  23.129  12.911
60932W        W29306  28.136  12.642   2.400
60933W        W29307  28.080  42.325   1.281
60934W        W29308  16.581   1.862   1.252
60935W        W29309  19.189   1.910  10.560
60936W        W29310  19.751  37.968  10.992
60937W        W29311  30.552  17.571  13.900
60938W        W29312  24.041  44.428   1.244
60939W        W29313  20.133  32.622   2.841
60940W        W29314  23.559  26.675   1.224
60941W        W29315   5.867  21.035  13.875
60942W        W29316  39.842  30.916   3.703
60943W        W29317  26.476   4.750   5.094
60944W        W29318  31.923   5.207   0.790
60945W        W29319  22.697  11.326   1.795
60946W        W29320  41.027   6.858   0.428
60947W        W29321  17.728   7.888   3.766
60948W        W29322  20.033  38.508   3.813
60949W        W29323  26.682  36.049  14.340
60950W        W29324  38.881  16.241  10.044
60951W        W29325  40.456  15.747  14.439
60952W        W29326  28.609  43.009  11.538
60953W        W29327  16.120  16.605  10.535
60954W        W29328  18.128  25.542  10.601
60955W        W29329   1.444   1.300  11.548
60956W        W29330  17.705  14.178   4.322
60957W        W29331  18.143  25.600   4.223
60958W        W29332  15.124  16.235  12.856
60959W        W29333  10.693   1.903  14.805
60960W        W29334  26.190  33.964   4.124
60961W        W29335  31.088  30.586  11.986
60962W        W29336  39.020  10.841   2.322
60963W        W29337   1.971  18.731  11.563
60964W        W29338  23.148  44.310  10.528
60965W        W29339   4.898  18.549   2.213
60966W        W29340   5.895  23.149  11.927
60967W        W29341  27.025  23.174   0.461
60968W        W29342   1.452  12.812  11.574
60969W        W29343  33.435   7.286  12.503
60970W        W29344  19.108  32.982   0.758
60971W        W29345  14.264  28.052  11.376
60972W        W29346  21.613  37.956  10.539
60973W        W29347  31.634  40.526  12.972
60974W        W29348  26.952  28.611  14.926
60975W        W29349  27.639  18.756  12.046
60976W        W29350  15.710  18.700  13.418
60977W        W29351  43.909   1.458   4.185
60978W        W29352   2.239  23.123   4.676
60979W        W29353  31.106   1.461   3.160
60980W        W29354  33.097  43.883  13.039
60981W        W29355   5.437  21.142   3.846
60982W        W29356  25.192   1.811   3.269
60983W        W29357  25.197   4.261  11.398
60984W        W29358  22.531   5.687  12.899
60985W        W29359  38.027   8.709  13.890
60986W        W29360  13.171   7.236   2.755
60987W        W29361  35.891  15.781   1.213
60988W        W29362  13.790  27.608   1.292
60989W        W29363  25.586   1.313   0.898
60990W        W29364  43.923   4.393  14.311
60991W        W29365  19.090   0.983   4.650
60992W        W29366  38.049  15.691  14.802
60993W        W29367   4.293   5.242  13.968
60994W        W29368  23.098  30.911   2.224
60995W        W29369  34.564  33.893  14.812
60996W        W29370  22.740  30.106   5.201
60997W        W29371  29.991  33.003  14.901
60998W        W29372  18.228  36.524  13.837
60999W        W29373  35.100  34.100  14.341
61000W        W29374  34.426  35.039  10.505
61001W        W29375  40.942  36.008  12.837
61002W        W29376  35.017  32.927   2.268
61003W        W29377  43.898   1.292  14.874
61004W        W29378  11.690  35.037   2.253
61005W        W29379  37.567  33.466   0.859
61006W        W29380  32.444  39.527  14.506
61007W        W29381   5.710  42.403   0.824
61008W        W29382  29.638  24.501   0.773
61009W        W29383  17.802   0.850  13.064
61010W        W29384  44.973  35.461   3.170
61011W        W29385  28.945  18.749   0.382
61012W        W29386   7.738  19.777  14.995
61013W        W29387  21.542   5.423  10.462
61014W        W29388   2.303   5.867  10.515
61015W        W29389  24.680  12.777  11.863
61016W        W29390  23.234  28.625  10.641
61017W        W29391  14.229  37.576   2.833
61018W        W29392  34.379  35.109   3.319
61019W        W29393   5.725  38.049  11.566
61020W        W29394   9.726  27.971   0.890
61021W        W29395  35.013  40.047  12.348
61022W        W29396   4.942  44.907  10.609
61023W        W29397   0.412  17.662   0.255
61024W        W29398  23.553  40.313   0.855
61025W        W29399  36.462  12.325   0.297
61026W        W29400   0.456  22.572   0.856
61027W        W29401  18.078   6.680  12.926
61028W        W29402  42.981   0.373   2.372
61029W        W29403  13.813  33.539  10.949
61030W        W29404  36.031   3.392   4.344
61031W        W29405  19.559  30.973  10.927
61032W        W29406  38.848  32.572   4.702
61033W        W29407   6.348  31.896  10.592
61034W        W29408   4.732   4.285  13.392
61035W        W29409  40.349  31.966   3.302
61036W        W29410   8.749  26.157   3.277
61037W        W29411  25.024  12.758   0.381
61038W        W29412  22.652  37.000  12.903
61039W        W29413   8.296  20.074  10.544
61040W        W29414  10.377   2.945  11.381
61041W        W29415  11.696  44.764  10.446
61042W        W29416  13.309  14.200   2.817
61043W        W29417  22.213  33.547   2.306
61044W        W29418  16.092  19.247   4.598
61045W        W29419   9.201   1.337  13.803
61046W        W29420  35.421  43.377  11.113
61047W        W29421  37.006   2.888  12.342
61048W        W29422  41.018  43.375  14.470
61049W        W29423  25.587   9.749   3.212
61050W        W29424  33.551  21.162  10.940
61051W        W29425  23.587  42.953   3.646
61052W        W29426   9.798  31.977  10.019
61053W        W29427  26.656   6.868   1.770
61054W        W29428  29.497  30.520   2.894
61055W        W29429  13.197  12.305   1.435
61056W        W29430  44.351   4.337  11.409
61057W        W29431  21.225  35.050   3.260
61058W        W29432  17.100   9.674  12.547
61059W        W29433  34.918  28.956   2.716
61060W        W29434  31.003  28.469   1.738
61061W        W29435  28.621  27.453   2.356
61062W        W29436  19.682  24.076  12.869
61063W        W29437  40.862  39.929  12.450
61064W        W29438  32.030   1.460  14.451
61065W        W29439   0.980  44.935  12.837
61066W        W29440  13.351   1.787   4.792
61067W        W29441  24.631  44.444  11.954
61068W        W29442  16.264  38.458   2.805
61069W        W29443  28.063  31.079   3.804
61070W        W29444  28.541   4.378  14.887
61071W        W29445  38.380  28.455  13.024
61072W        W29446   2.320  41.902  12.878
61073W        W29447  44.389  31.447   0.729
61074W        W29448  25.204  11.761  14.800
61075W        W29449  13.202   5.277   3.158
61076W        W29450   6.866  36.540  12.898
61077W        W29451  36.014  19.213  11.907
61078W        W29452  30.020  11.358   0.300
61079W        W29453   1.915  30.451   1.865
61080W        W29454  26.015   6.703  11.493
61081W        W29455  15.193   3.893   0.952
61082W        W29456   5.749  17.618  14.816
61083W        W29457  11.287  32.049   0.289
61084W        W29458  11.812  31.554  14.781
61085W        W29459  16.767  24.074   4.344
61086W        W29460  17.139   4.848   3.792
61087W        W29461   7.872  30.092   1.412
61088W        W29462  38.875  39.376   0.870
61089W        W29463  33.121  24.105   3.341
61090W        W29464   4.438  11.286  11.936
61091W        W29465   5.743  29.151  10.024
61092W        W29466  20.724   1.449  14.767
61093W        W29467   3.276  16.750  13.504
61094W        W29468   6.428  10.692  14.277
61095W        W29469  34.584   0.745   0.762
61096W        W29470  34.372   8.874  10.415
61097W        W29471  44.305   0.351   0.383
61098W        W29472   5.869  23.165   3.363
61099W        W29473  42.288  13.345  14.327
61100W        W29474  26.175  36.095   4.213
61101W        W29475  37.444   4.726   3.233
61102W        W29476  30.532  27.638  12.859
61103W        W29477  26.192  40.844   3.801
61104W        W29478  24.555  27.662   0.333
61105W        W29479  34.524  12.195   0.795
61106W        W29480  39.521  42.820  13.852
61107W        W29481  25.474  25.565   1.303
61108W        W29482  14.826  22.997   1.853
61109W        W29483  18.206  33.521  10.443
61110W        W29484  36.944   9.323   1.707
61111W        W29485  19.202   5.836  10.434
61112W        W29486  38.493  44.261  10.991
61113W        W29487  39.866  26.972  11.079
61114W        W29488  25.972  31.411   3.335
61115W        W29489   4.817  25.038  12.884
61116W        W29490   1.414  27.585  14.337
61117W        W29491  22.698  36.026   1.835
61118W        W29492  32.390  11.758  14.032
61119W        W29493  19.175  19.096   0.269
61120W        W29494  41.980  36.389   4.347
61121W        W29495   8.796  11.351  13.031
61122W        W29496  36.410  11.368  14.357
61123W        W29497  37.059  10.314   5.285
61124W        W29498   9.827   1.313  12.543
61125W        W29499   3.817  34.611  11.933
61126W        W29500  44.965  44.867  13.385
61127W        W29501  21.233  31.580  13.030
61128W        W29502  16.072   9.785   2.796
61129W        W29503  15.248   6.815  11.521
61130W        W29504  31.012  22.623  10.962
61131W        W29505  27.147  32.044  10.634
61132W        W29506  12.281  18.055  10.942
61133W        W29507   2.787  27.033   4.750
61134W        W29508   6.412  43.766   4.677
61135W        W29509  26.959  43.328   4.340
61136W        W29510  23.236  41.897   3.323
61137W        W29511  44.997  15.776  14.413
61138W        W29512  31.919  10.189  14.482
61139W        W29513   5.859  10.816  11.415
61140W        W29514  40.957  25.495  10.427
61141W        W29515  23.238  43.765   3.188
61142W        W29516   3.894  27.516  13.544
61143W        W29517  29.506   9.270  10.524
61144W        W29518  39.351   5.744   4.713
61145W        W29519  30.484  37.437   1.865
61146W        W29520  28.023  22.012   4.156
61147W        W29521  17.644  31.097  13.939
61148W        W29522  43.967  17.768   3.741
61149W        W29523  24.511  27.571   0.934
61150W        W29524   6.291  22.023   2.355
61151W        W29525  25.633  19.772   5.090
61152W        W29526  25.082   9.281   3.341
61153W        W29527  41.973  37.945   0.730
61154W        W29528  20.754  20.221  11.383
61155W        W29529  24.170   8.819  14.853
61156W        W29530   4.820  26.617  10.546
61157W        W29531  36.086   9.816   1.393
61158W        W29532  44.867   8.690   3.200
61159W        W29533  19.101   8.340   0.809
61160W        W29534  42.419  14.184   3.731
61161W        W29535  18.691  43.439   2.182
61162W        W29536  21.675  31.429  10.985
61163W        W29537  24.621  40.408  14.950
61164W        W29538  29.643  26.084  14.777
61165W        W29539  31.095  24.570   1.214
61166W        W29540  43.415  31.968  13.417
61167W        W29541  13.315  30.628   2.826
61168W        W29542  29.995  26.172  11.883
61169W        W29543  31.410  15.734   0.761
61170W        W29544  11.309  16.663  14.866
61171W        W29545  40.314  33.062   4.750
61172W        W29546  22.503  37.002  14.816
61173W        W29547   7.217  37.012  12.019
61174W        W29548   2.468   7.406   4.280
61175W        W29549  24.195  12.687   3.188
61176W        W29550  37.387   4.379  11.090
61177W        W29551  30.070   9.280   1.332
61178W        W29552  35.918  43.963   0.858
61179W        W29553  41.822  29.041   3.865
61180W        W29554   1.843   4.382   2.778
61181W        W29555  43.914  43.493   1.719
61182W        W29556  34.978   9.222   0.848
61183W        W29557  25.597   7.388   2.180
61184W        W29558  17.142   6.320  14.495
61185W        W29559  32.074  10.375   1.276
61186W        W29560  43.933  35.482  12.408
61187W        W29561  10.821  15.761   3.153
61188W        W29562  21.036  36.988   9.944
61189W        W29563  20.238  41.917   1.233
61190W        W29564   4.386  24.594  11.983
61191W        W29565   3.292   1.443   3.764
61192W        W29566   3.384  21.030   2.283
61193W        W29567  38.558  23.692  10.476
61194W        W29568  17.711  21.151  13.525
61195W        W29569   4.828  44.781   4.147
61196W        W29570  15.330  40.450  12.865
61197W        W29571  33.428  15.628   4.343
61198W        W29572  14.296   3.822   3.637
61199W        W29573  21.197   5.326  11.047
61200W        W29574  42.833   4.231   4.232
61201W        W29575  41.035  19.700   4.129
61202W        W29576  44.972  35.882  12.357
61203W        W29577  20.143  26.700   2.780
61204W        W29578  17.211   2.287  12.080
61205W        W29579  27.582  27.193  10.906
61206W        W29580  43.834  12.802  12.551
61207W        W29581  29.166   6.808  10.998
61208W        W29582  40.866   4.898   2.763
61209W        W29583   9.754  27.064   3.189
61210W        W29584  18.727  29.141  10.562
61211W        W29585  19.624  19.744  14.778
61212W        W29586   5.860  39.518  14.849
61213W        W29587   2.959  21.132   4.623
61214W        W29588  15.126  37.376   4.254
61215W        W29589   3.267  18.637   3.738
61216W        W29590  18.063  26.535  13.469
61217W        W29591  43.281  40.813  11.489
61218W        W29592   8.702  13.279   3.259
61219W        W29593  33.014  13.279   1.393
61220W        W29594  29.134  39.974   3.276
61221W        W29595  43.022  15.805   0.291
61222W        W29596  42.456  44.499  11.877
61223W        W29597  27.988  16.114  13.968
61224W        W29598  15.653  35.956   4.683
61225W        W29599  36.385   8.315   0.751
61226W        W29600  44.816   0.362  12.475
61227W        W29601   8.236  12.700   3.870
61228W        W29602  38.910  27.553  11.922
61229W        W29603  37.452  18.710   1.363
61230W        W29604  20.269  28.091  12.563
61231W        W29605  40.505  40.469  12.996
61232W        W29606  27.164   4.903   2.804
61233W        W29607   9.213  37.864  14.854
61234W        W29608   6.209  29.100  12.900
61235W        W29609  31.586   1.441  12.913
61236W        W29610   6.755  37.054  11.070
61237W        W29611  12.147  21.048  12.347
61238W        W29612  38.017  14.299   1.713
61239W        W29613  40.944   7.371  12.451
61240W        W29614   2.918   5.718  12.383
61241W        W29615  37.495  29.922  14.781
61242W        W29616   7.353  15.091  13.997
61243W        W29617   5.722  31.514  14.890
61244W        W29618   2.346  16.697   3.642
61245W        W29619   5.357   9.267   3.239
61246W        W29620   7.416  43.466  12.979
61247W        W29621  24.221  39.903  11.970
61248W        W29622  39.378  12.344  12.474
61249W        W29623  17.574  27.032  13.828
61250W        W29624  30.611  37.077   4.684
61251W        W29625   3.221  18.689  13.386
61252W        W29626  33.009  22.672   3.847
61253W        W29627  34.927  22.581   0.754
61254W        W29628  32.460  33.538  10.082
61255W        W29629   2.333  11.312  10.957
61256W        W29630   0.883  40.815  10.512
61257W        W29631  36.985   1.820  11.007
61258W        W29632  28.046  30.459   2.796
61259W        W29633  12.852  14.601   2.808
61260W        W29634   5.773  22.122   1.388
61261W        W29635  33.498  12.254   3.269
61262W        W29636   5.724  35.478   2.735
61263W        W29637   1.387  32.043   1.278
61264W        W29638  10.655  20.128  11.029
61265W        W29639  34.609  22.682   4.757
61266W        W29640   8.297   0.376   3.669
61267W        W29641  18.716  37.410   9.982
61268W        W29642  13.229  27.978   4.689
61269W        W29643  36.459   9.190  13.804
61270W        W29644   2.921   0.447  12.357
61271W        W29645  30.517  14.630  11.514
61272W        W29646  41.856   4.212  13.985
61273W        W29647  20.183   4.739  13.029
61274W        W29648  16.158  40.360  14.880
61275W        W29649  21.591  13.204   4.659
61276W        W29650   9.335  29.647  13.389
61277W        W29651   5.698  21.262   3.677
61278W        W29652  33.595  36.370   0.262
61279W        W29653  36.061   9.316   0.386
61280W        W29654  23.686  18.741  13.388
61281W        W29655  22.715   4.387   2.831
61282W        W29656  32.950   3.343  10.966
61283W        W29657   3.915   9.186   1.876
61284W        W29658  33.482   9.208   2.324
61285W        W29659  11.783  12.197  10.958
61286W        W29660   7.679  24.061   3.670
61287W        W29661  37.458   4.431  12.837
61288W        W29662   8.822  21.080   1.696
61289W        W29663  11.831  14.673  11.096
61290W        W29664   0.944  38.041  14.300
61291W        W29665   7.302  13.225  13.510
61292W        W29666   7.891  23.621   5.317
61293W        W29667  44.878   1.851   2.178
61294W        W29668  19.193  11.174  12.914
61295W        W29669  11.320  35.877   3.331
61296W        W29670  14.323  21.053   3.862
61297W        W29671   7.850   8.216  13.880
61298W        W29672  16.114  24.530  11.384
61299W        W29673  24.708  17.725  13.518
61300W        W29674   8.783   3.791   5.296
61301W        W29675   2.891  14.713   2.691
61302W        W29676  16.204  26.014  14.838
61303W        W29677   9.668  21.179  11.986
61304W        W29678  23.991  12.359   0.327
61305W        W29679  44.914  10.689   1.261
61306W        W29680  43.338  35.572   4.200
61307W        W29681  25.200  33.071  11.373
61308W        W29682  12.816  32.069  11.550
61309W        W29683  23.169  36.935  11.472
61310W        W29684  40.869  25.625  11.044
61311W        W29685  38.839  42.992  10.975
61312W        W29686  17.665  13.629  12.554
61313W        W29687  35.512  16.790   1.859
61314W        W29688  13.609  39.373  10.428
61315W        W29689  29.521  23.614   0.938
61316W        W29690  34.031  10.733  12.041
61317W        W29691  23.501  19.556   2.814
61318W        W29692   3.833  31.503  13.063
61319W        W29693  20.524  28.579   1.332
61320W        W29694  22.081   7.285  14.015
61321W        W29695  34.099   3.919   4.194
61322W        W29696   6.329  26.088  12.416
61323W        W29697  12.668  15.581  12.932
61324W        W29698  23.153   5.213  14.996
61325W        W29699  23.097  25.645   0.756
61326W        W29700  34.035  20.224  12.925
61327W        W29701  27.673  32.637   2.419
61328W        W29702  40.893  34.415   0.385
61329W        W29703  29.088  37.412   3.668
61330W        W29704   3.928   0.898  12.835
61331W        W29705  17.758  36.036  11.058
61332W        W29706  21.218  33.112   2.727
61333W        W29707  40.480  34.992   3.650
61334W        W29708  26.470  27.183   3.157
61335W        W29709   7.852  39.405   1.317
61336W        W29710  39.987  27.133   3.203
61337W        W29711   8.185   9.248  11.399
61338W        W29712   9.168  40.352  11.416
61339W        W29713  23.497   9.739   1.260
61340W        W29714   8.238  13.809   4.783
61341W        W29715  14.260  22.694  12.514
61342W        W29716  19.656  14.805  14.516
61343W        W29717  26.075  33.005   0.250
61344W        W29718  29.602  44.792  13.505
61345W        W29719  27.087  28.473  12.495
61346W        W29720   6.225   3.226   9.629
61347W        W29721  15.222  36.866  11.533
61348W        W29722   6.216  34.984   2.679
61349W        W29723  26.120   3.779  13.430
61350W        W29724  18.270  16.087  13.942
61351W        W29725  22.213  15.698   4.280
61352W        W29726  14.787   2.738  11.935
61353W        W29727  18.690  16.663  13.040
61354W        W29728  25.707  34.867   0.386
61355W        W29729  15.715   3.737  14.439
61356W        W29730  37.512  28.012  12.069
61357W        W29731   4.746  31.576  12.097
61358W        W29732  14.269  11.748  10.924
61359W        W29733  32.493  28.113   3.255
61360W        W29734   9.378  24.561   4.684
61361W        W29735  43.883  28.146  11.443
61362W        W29736   0.980  34.111  14.807
61363W        W29737  19.723  31.125   2.320
61364W        W29738  22.039  18.605  11.398
61365W        W29739  34.434   6.413   2.845
61366W        W29740  18.699  15.768   5.168
61367W        W29741  20.267  35.867   1.700
61368W        W29742  39.471  19.660   2.754
61369W        W29743   7.283  14.639  11.415
61370W        W29744  32.032  14.198  13.937
61371W        W29745  36.503  15.185   4.219
61372W        W29746  42.297  14.111   3.380
61373W        W29747  15.789  30.603  14.455
61374W        W29748  24.114   6.295  13.313
61375W        W29749  35.026   4.236  10.462
61376W        W29750  41.019  43.980  14.010
61377W        W29751  32.470  41.352  13.937
61378W        W29752  14.339   1.904  14.931
61379W        W29753  24.987  42.512   3.169
61380W        W29754  26.580   4.717  14.360
61381W        W29755  15.231  21.625   0.399
61382W        W29756   8.391  31.982  10.614
61383W        W29757   3.426  26.657   2.240
61384W        W29758  11.766   0.820   2.855
61385W        W29759   7.302  12.247   0.455
61386W        W29760  38.571  26.588   0.323
61387W        W29761  24.974  33.593  13.810
61388W        W29762  32.044   3.854   3.794
61389W        W29763  31.467  40.933   4.827
61390W        W29764  19.167  23.545   1.357
61391W        W29765  30.063   5.371   4.342
61392W        W29766  29.030  18.261   3.679
61393W        W29767   0.744   9.673   4.330
61394W        W29768  18.720   4.402  10.479
61395W        W29769  15.740  43.300   3.693
61396W        W29770   7.237  18.740  11.386
61397W        W29771  19.598  25.522  12.061
61398W        W29772  40.948  37.362   0.896
61399W        W29773  17.297  21.540  11.935
61400W        W29774  21.254  20.674  13.405
61401W        W29775  27.476  29.171  10.552
61402W        W29776  33.535  13.212   2.863
61403W        W29777  26.512   0.287   5.211
61404W        W29778  27.022  35.438  12.516
61405W        W29779   9.883  43.489   0.288
61406W        W29780  22.606  10.682   0.925
61407W        W29781  30.531  13.336  12.347
61408W        W29782  32.437  19.115  14.829
61409W        W29783  37.865  44.926  12.484
61410W        W29784  22.569  41.864  13.841
61411W        W29785  18.148  31.489   0.860
61412W        W29786  39.356   0.299   0.880
61413W        W29787  36.364  39.958  13.514
61414W        W29788   3.893   6.276  13.826
61415W        W29789   6.854  38.338  13.340
61416W        W29790  15.162  37.054   2.184
61417W        W29791   1.295  21.622   2.741
61418W        W29792  15.209  31.966  12.919
61419W        W29793  42.519  26.567  10.589
61420W        W29794   8.730   3.852   4.815
61421W        W29795  14.647  33.988  11.913
61422W        W29796  33.127   8.296   3.693
61423W        W29797  38.440  16.797   1.793
61424W        W29798  12.212  19.692  11.382
61425W        W29799  25.025   4.358  10.596
61426W        W29800  43.973  13.273  11.433
61427W        W29801  26.994   7.707   4.180
61428W        W29802  41.966  32.923  11.900
61429W        W29803  24.191  15.804  13.904
61430W        W29804  26.504  15.088  13.025
61431W        W29805  15.608   1.931   1.873
61432W        W29806  30.060   9.667   0.394
61433W        W29807  40.013  24.528  14.947
61434W        W29808  36.430  43.351   1.807
61435W        W29809  27.944  39.535   4.666
61436W        W29810  17.288  34.604  11.951
61437W        W29811  41.991   6.193  12.414
61438W        W29812  13.206  19.172  12.897
61439W        W29813  31.920  36.074   4.230
61440W        W29814  24.572  42.949   1.874
61441W        W29815   0.449  11.669  14.763
61442W        W29816  37.972  27.675  11.497
61443W        W29817  26.124  19.243   1.851
61444W        W29818  12.822  22.112  13.440
61445W        W29819   8.203  29.544   4.724
61446W        W29820  27.581   1.929   1.356
61447W        W29821  14.288  35.062   1.849
61448W        W29822   7.254  20.593  12.879
61449W        W29823  33.918  31.539   4.216
61450W        W29824  40.947  37.357  11.994
61451W        W29825  14.175  37.866   0.379
61452W        W29826  31.461  33.497  13.426
61453W        W29827  18.604  32.886  11.918
61454W        W29828  24.483  25.591  13.892
61455W        W29829  18.791   3.436   2.776
61456W        W29830  24.164  15.176   2.397
61457W        W29831  40.949  11.227   4.719
61458W        W29832  20.072  20.566  10.950
61459W        W29833  36.497  36.888   3.655
61460W        W29834   2.252   6.350  10.894
61461W        W29835  29.985  15.677   1.274
61462W        W29836  30.058  11.795  14.851
61463W        W29837   7.414  17.691  13.911
61464W        W29838  37.345  17.256  12.575
61465W        W29839   5.916  14.627  13.322
61466W        W29840  20.167  42.817  10.889
61467W        W29841  39.056  28.989  14.783
61468W        W29842  20.155   9.184  12.838
61469W        W29843  37.036  27.534  13.900
61470W        W29844  44.418  34.457  14.390
61471W        W29845  41.325   5.762  10.409
61472W        W29846  29.115   1.889  14.760
61473W        W29847   6.779   7.876   0.350
61474W        W29848  43.422   8.249  12.572
61475W        W29849  43.444  39.855  11.391
61476W        W29850  37.845  19.153   4.613
61477W        W29851  16.126  14.764   3.353
61478W        W29852  44.390  35.401   4.121
61479W        W29853   6.249  13.659   2.700
61480W        W29854   9.670  29.455  14.814
61481W        W29855  11.693  18.168   1.248
61482W        W29856  43.969  17.262  12.456
61483W        W29857   9.888  23.680   1.920
61484W        W29858  37.854  42.379  11.596
61485W        W29859  35.101  15.660  10.116
61486W        W29860   9.308  29.492   5.259
61487W        W29861  39.965  33.499  14.481
61488W        W29862  34.878  33.033   3.726
61489W        W29863  42.788  30.452   1.234
61490W        W29864  19.242   7.390   2.357
61491W        W29865  24.525  12.672   0.379
61492W        W29866  12.127  42.936   2.890
61493W        W29867   6.848   2.413   4.699
61494W        W29868   7.217  31.593  14.343
61495W        W29869  25.485  17.729  13.485
61496W        W29870  39.336  12.741   1.295
61497W        W29871  42.325  26.696  14.385
61498W        W29872  34.566  33.389   1.769
61499W        W29873   9.220  41.427  14.967
61500W        W29874   5.377  43.419  10.596
61501W        W29875  25.217  35.568  10.604
61502W        W29876  33.446  32.136  14.433
61503W        W29877  38.536  33.413   3.746
61504W        W29878  13.249  13.776   2.416
61505W        W29879   7.291   9.342  14.821
61506W        W29880  19.713   9.679   4.143
61507W        W29881  44.393  15.580  11.492
61508W        W29882  13.724  16.235  12.946
61509W        W29883  28.594  24.163   0.870
61510W        W29884  11.233  19.617   4.781
61511W        W29885  20.672  37.471  11.970
61512W        W29886   2.443  28.454  14.512
61513W        W29887  39.862  23.100  14.422
61514W        W29888  28.627  26.541   5.322
61515W        W29889  23.035   5.698   4.190
61516W        W29890  13.821  16.072  12.566
61517W        W29891  39.350  12.303  14.397
61518W        W29892  12.625  41.023   3.696
61519W        W29893  21.526  10.353   0.792
61520W        W29894  32.949   5.789  11.468
61521W        W29895  34.017  14.294  12.499
61522W        W29896  35.951  42.908   1.759
61523W        W29897  26.958  42.925   2.267
61524W        W29898  13.783   7.373   1.322
61525W        W29899   6.746  37.034  14.413
61526W        W29900  29.488  11.202  12.015
61527W        W29901  15.636  11.700   5.138
61528W        W29902  12.154  24.646   1.762
61529W        W29903  33.893  18.637   0.463
61530W        W29904   4.293  28.582   2.302
61531W        W29905  20.539  33.895  14.415
61532W        W29906  14.672   8.252   1.288
61533W        W29907  12.329  33.884  14.951
61534W        W29908  14.211  18.698   0.412
61535W        W29909  22.627  30.565   3.784
61536W        W29910  39.459  26.675   2.340
61537W        W29911  22.503   9.227  12.074
61538W        W29912  29.623  29.551   2.787
61539W        W29913  15.746  36.912  14.984
61540W        W29914  10.837  12.242  13.438
61541W        W29915  34.474  18.666   4.714
61542W        W29916  24.675   6.776   1.449
61543W        W29917  37.869   6.716   0.740
61544W        W29918  32.931   5.769  14.347
61545W        W29919  25.664  13.645  11.585
61546W        W29920   3.444  16.774   2.903
61547W        W29921   2.731  39.016  12.426
61548W        W29922  29.632   7.346   0.276
61549W        W29923  28.568  17.304   0.846
61550W        W29924   1.427  20.719   0.444
61551W        W29925   2.326  31.083  13.955
61552W        W29926   6.723  36.008  10.463
61553W        W29927  14.207   8.687  14.011
61554W        W29928  17.281  30.053  14.923
61555W        W29929  11.834  10.270  14.327
61556W        W29930  22.532   1.739  11.520
61557W        W29931  12.610  25.567  13.388
61558W        W29932   3.824  10.852  11.981
61559W        W29933  18.545   8.705   1.916
61560W        W29934  44.796  13.289   2.781
61561W        W29935  16.155   3.804   3.310
61562W        W29936   8.341  43.780  11.082
61563W        W29937  34.443  22.008   2.829
61564W        W29938  40.918  16.099  13.042
61565W        W29939  21.171  25.000   1.245
61566W        W29940  16.569   0.866   1.369
61567W        W29941  43.458  14.752   0.934
61568W        W29942   3.807  33.449   4.342
61569W        W29943  12.152  37.026  10.479
61570W        W29944  31.048  29.551   3.750
61571W        W29945  13.733  43.950  11.478
61572W        W29946  44.887  34.984  12.008
61573W        W29947   2.444  32.954   1.830
61574W        W29948  43.460  28.987   3.720
61575W        W29949  27.668  25.044  10.612
61576W        W29950  10.690  43.917  14.837
61577W        W29951  15.210  26.099  14.502
61578W        W29952   9.873  18.627   3.185
61579W        W29953   3.401   7.841   0.479
61580W        W29954   5.866  10.264  14.326
61581W        W29955  36.966  16.286   4.168
61582W        W29956  18.740  38.484   4.280
61583W        W29957  41.473   5.200  14.792
61584W        W29958   0.376  26.047   4.772
61585W        W29959  11.663   6.428  14.433
61586W        W29960  25.185   8.169   2.360
61587W        W29961  31.416  30.025  10.404
61588W        W29962  40.476  31.470   2.802
61589W        W29963  33.108  19.616  13.037
61590W        W29964  36.915  41.840  12.342
61591W        W29965   7.860  22.515  12.467
61592W        W29966   4.764  20.045   4.314
61593W        W29967  21.219   9.805  13.310
61594W        W29968  33.588  34.436  11.870
61595W        W29969  19.079   1.424   2.681
61596W        W29970  15.112   6.246   4.611
61597W        W29971   3.729  36.003   2.760
61598W        W29972   6.741  35.990   0.387
61599W        W29973   0.935  30.626  14.418
61600W        W29974  15.252  11.129  13.439
61601W        W29975  10.194  36.071   1.863
61602W        W29976  36.515  34.867   0.348
61603W        W29977  24.657  22.139   0.433
61604W        W29978   8.253  36.048  12.841
61605W        W29979  33.458  27.970  11.589
61606W        W29980  28.039   6.252  13.854
61607W        W29981  25.966  44.267  12.572
61608W        W29982  28.031  13.227   0.892
61609W        W29983  18.226  10.158   1.393
61610W        W29984  38.893   3.754  12.924
61611W        W29985  39.889   4.881   3.361
61612W        W29986  34.501   6.707   1.740
61613W        W29987  40.399  41.334   9.960
61614W        W29988  26.663  38.490  10.610
61615W        W29989   4.336  10.715  13.325
61616W        W29990  44.772  35.471  14.421
61617W        W29991  29.029  26.608   4.753
61618W        W29992   9.821  22.637   2.245
61619W        W29993  18.249  20.163  14.426
61620W        W29994  13.304  43.805  13.420
61621W        W29995   7.268   6.251  14.357
61622W        W29996  23.994  10.223  13.480
61623W        W29997  27.622  12.206   3.679
61624W        W29998  32.444   4.832  11.473
61625W        W29999  26.191  43.489   2.849
61626W        W30000  15.289  18.244   3.196
61627W        W30001  40.358  10.208   1.328
61628W        W30002  36.534   3.760  12.974
61629W        W30003  18.751   6.202   2.192
61630W        W30004   5.247  20.615   1.408
61631W        W30005  11.807  40.396  10.543
61632W        W30006  19.756  42.815   9.962
61633W        W30007  18.776  17.199  13.898
61634W        W30008   3.219  33.887   3.811
61635W        W30009   1.949  42.877   3.733
61636W        W30010   1.274  30.520  13.544
61637W        W30011  30.050  24.139  13.421
61638W        W30012  13.342  19.742  11.550
61639W        W30013  37.975  14.102   0.817
61640W        W30014  37.555  15.726  14.311
61641W        W30015  38.043  43.816   2.211
61642W        W30016  44.970   7.771   3.297
61643W        W30017   2.821  23.241   2.362
61644W        W30018   7.381  29.171   1.373
61645W        W30019   8.304  39.816  14.930
61646W        W30020  24.623  21.646  11.611
61647W        W30021   3.246  22.673   0.955
61648W        W30022  23.554  24.201  14.488
61649W        W30023   4.412  17.603  13.944
61650W        W30024   0.954  16.281  14.876
61651W        W30025  35.022  10.702   2.353
61652W        W30026  12.707   5.852  11.410
61653W        W30027  43.935  39.522   3.646
61654W        W30028   8.160  21.126   1.917
61655W        W30029  34.389   0.923  13.866
61656W        W30030  32.613  43.919  11.599
61657W        W30031  37.478  39.880  12.374
61658W        W30032   0.862  24.014  11.874
61659W        W30033   2.230  33.081  12.876
61660W        W30034  34.383   7.770  13.038
61661W        W30035  33.116  21.169  10.901
61662W        W30036  14.250  42.842   4.665
61663W        W30037  15.654  38.396   3.317
61664W        W30038  42.809  21.597   1.213
61665W        W30039  12.623  19.551   0.414
61666W        W30040  12.706  33.517   2.842
61667W        W30041  34.446  15.750  12.462
61668W        W30042  37.920  36.906  13.461
61669W        W30043   1.885   5.701   1.769
61670W        W30044  43.893  31.553  10.576
61671W        W30045  44.845  34.972   2.734
61672W        W30046  26.572  44.317  14.346
61673W        W30047  38.369  41.039   3.368
61674W        W30048  27.954  17.567   2.735
61675W        W30049  28.944  44.470   2.203
61676W        W30050   6.231   8.773   1.756
61677W        W30051  20.061   6.228  11.059
61678W        W30052  19.667   0.438  10.975
61679W        W30053   8.395   9.320   1.914
61680W        W30054  16.741  20.188   1.923
61681W        W30055  27.570   1.887  12.043
61682W        W30056  22.652  16.213   3.236
61683W        W30057  10.654  15.236   0.737
61684W        W30058  23.043   7.247   0.866
61685W        W30059  40.803   5.326   4.710
61686W        W30060  16.721  33.582  13.456
61687W        W30061  17.693  28.548  13.329
61688W        W30062  10.774  22.531   2.871
61689W        W30063  33.491  40.018   1.319
61690W        W30064  28.105  37.498  11.965
61691W        W30065  18.776   6.399   0.753
61692W        W30066   0.260  21.517   3.721
61693W        W30067  24.492  18.736  10.056
61694W        W30068  23.145   8.302  14.917
61695W        W30069  42.959   1.432  14.021
61696W        W30070  37.969  17.169   0.357
61697W        W30071  10.303  39.941  11.938
61698W        W30072  42.887  36.391   4.718
61699W        W30073   6.243  43.443  11.589
61700W        W30074   1.782  11.210   2.783
61701W        W30075   1.861   8.706  14.769
61702W        W30076  26.013  34.612  13.436
61703W        W30077  27.664  30.059   1.390
61704W        W30078  39.314   0.781   2.311
61705W        W30079  25.164  37.483   1.815
61706W        W30080  26.158   6.892   0.959
61707W        W30081  23.707  10.338  12.449
61708W        W30082  39.454  24.194  13.969
61709W        W30083  29.480   5.395   0.472
61710W        W30084   3.442   2.868  11.612
61711W        W30085  18.292   2.867   1.749
61712W        W30086   3.896   6.240  14.960
61713W        W30087  16.147  36.448   3.301
61714W        W30088  39.956   0.375   2.338
61715W        W30089  18.751  14.715   4.330
61716W        W30090  26.557  40.843  14.999
61717W        W30091  31.964  10.773   1.803
61718W        W30092  43.366   3.813   3.171
61719W        W30093   2.807   2.310  14.330
61720W        W30094   0.490  39.381   3.197
61721W        W30095  31.080  27.486   4.743
61722W        W30096   2.228  11.820  14.951
61723W        W30097  29.574  16.111  11.529
61724W        W30098  10.806  39.011  10.000
61725W        W30099  15.807  43.939  13.355
61726W        W30100   4.310  11.266  10.472
61727W        W30101  34.050  28.022   3.209
61728W        W30102  31.421  21.238  11.022
61729W        W30103  40.480   5.738  14.987
61730W        W30104  44.407   5.296   1.739
61731W        W30105  34.533  34.558  12.846
61732W        W30106  35.450  25.162  10.560
61733W        W30107  32.892   7.209   1.708
61734W        W30108  27.613  13.681  11.607
61735W        W30109  40.948  27.033  12.042
61736W        W30110  26.035  16.597   3.288
61737W        W30111  12.166  39.485   2.886
61738W        W30112  12.811  19.598  10.449
61739W        W30113  44.380   3.358  11.461
61740W        W30114   7.842  14.249   3.218
61741W        W30115   7.242  43.496   2.185
61742W        W30116  34.397   4.436  12.403
61743W        W30117  34.536  19.276   0.275
61744W        W30118   2.388  19.201   3.216
61745W        W30119   4.865  36.897   1.782
61746W        W30120   0.928  40.898   4.260
61747W        W30121  36.584   0.416   0.731
61748W        W30122  17.062  17.205  13.343
61749W        W30123   6.871   3.916   3.282
61750W        W30124  34.468  33.393  14.284
61751W        W30125  39.418  14.692  11.004
61752W        W30126   2.838  41.882  13.417
61753W        W30127  44.470  44.315   1.334
61754W        W30128  18.710  14.176   0.745
61755W        W30129  15.241  23.012   3.210
61756W        W30130   7.231   2.231  10.926
61757W        W30131   9.183  11.329  13.489
61758W        W30132   0.885  27.084   0.883
61759W        W30133  38.475  36.517  11.962
61760W        W30134  11.358  31.083  12.045
61761W        W30135  31.416   5.687  14.949
61762W        W30136  30.468  38.551   0.262
61763W        W30137  44.493  18.617   1.301
61764W        W30138   4.213  17.620  11.954
61765W        W30139  33.910  39.891  13.311
61766W        W30140  30.586   7.376  10.892
61767W        W30141   3.793  26.659   0.859
61768W        W30142  14.623  36.429   0.760
61769W        W30143  13.123   9.692  11.386
61770W        W30144  20.731  16.300  14.896
61771W        W30145   0.892  41.984  10.633
61772W        W30146  14.155  43.437   1.413
61773W        W30147  11.136  17.139   3.642
61774W        W30148  19.603  38.520   9.958
61775W        W30149  32.038   7.399   3.863
61776W        W30150  19.565  17.224   0.759
61777W        W30151  25.705   9.378  12.547
61778W        W30152  42.918   6.873   3.720
61779W        W30153   8.819  21.257   4.308
61780W        W30154  44.953  34.913  13.415
61781W        W30155  17.264  24.009  13.424
61782W        W30156  35.099  15.248   0.279
61783W        W30157  24.073   0.765  13.332
61784W        W30158  20.093  16.603   3.232
61785W        W30159  28.929  10.207  14.883
61786W        W30160  21.085  25.140  13.986
61787W        W30161  33.034  19.761   3.809
61788W        W30162   6.269   0.285   3.744
61789W        W30163  38.933  29.986  11.063
61790W        W30164  29.623   9.784   0.248
61791W        W30165  30.043  13.347   2.896
61792W        W30166  32.928   4.716   0.769
61793W        W30167   1.472  42.296   2.844
61794W        W30168  19.253  31.074   3.182
61795W        W30169  34.942  20.162  13.385
61796W        W30170  23.199   6.833  14.942
61797W        W30171  36.844  32.593   0.447
61798W        W30172  37.071  36.514   0.840
61799W        W30173  31.629  40.386  10.934
61800W        W30174  39.560  18.699  10.562
61801W        W30175  23.027  15.740  12.526
61802W        W30176   0.393  29.964   3.274
61803W        W30177  15.128  12.748   3.698
61804W        W30178  24.204  41.460   3.684
61805W        W30179   3.328   2.859  13.903
61806W        W30180  44.428   6.837  10.617
61807W        W30181  43.346  30.552  11.513
61808W        W30182  13.304  40.538  10.603
61809W        W30183  23.181  43.907  12.429
61810W        W30184  22.552   4.854  14.375
61811W        W30185   3.246  40.896   3.696
61812W        W30186  17.770  25.997  14.813
61813W        W30187  40.336  19.754   5.105
61814W        W30188  31.563  15.723  13.354
61815W        W30189   7.379  34.874   4.792
61816W        W30190   3.793  22.100  10.925
61817W        W30191  29.535   7.381   2.811
61818W        W30192  43.357  19.544   3.273
61819W        W30193   8.851  37.934  14.438
61820W        W30194   1.265  31.507  11.873
61821W        W30195  20.029  21.644  12.071
61822W        W30196  27.465  44.800   2.392
61823W        W30197  20.220  14.689   4.276
61824W        W30198  43.018  22.683  12.340
61825W        W30199   7.278   6.323  14.938
61826W        W30200   8.242  23.075  12.936
61827W        W30201  11.160  39.453  14.795
61828W        W30202  10.855  10.359   3.353
61829W        W30203  12.235  16.593   1.260
61830W        W30204  38.505  39.379   1.234
61831W        W30205  41.293  15.156   1.763
61832W        W30206   7.689  13.747   4.820
61833W        W30207   4.938  19.240   3.710
61834W        W30208  32.573  41.003  11.057
61835W        W30209  32.013  29.516   0.392
61836W        W30210  26.598   1.452   2.838
61837W        W30211  41.484   4.810   1.879
61838W        W30212  24.485  29.939   5.265
61839W        W30213  16.316  15.799  13.916
61840W        W30214  37.382  28.653  14.384
61841W        W30215  37.898  36.361  11.914
61842W        W30216   5.197  15.764   0.479
61843W        W30217   8.195  35.947   3.673
61844W        W30218   2.290  21.651   3.167
61845W        W30219  34.022   0.769   1.214
61846W        W30220  36.593  25.022   5.226
61847W        W30221  21.099  21.251  13.336
61848W        W30222  41.365  29.015   3.304
61849W        W30223  27.940  36.431   4.632
61850W        W30224  36.568  26.108  11.099
61851W        W30225  39.979   9.889  13.026
61852W        W30226   0.973  44.416   1.893
61853W        W30227  17.232  41.889  10.933
61854W        W30228  38.564   8.741  12.519
61855W        W30229   2.341   6.298  14.331
61856W        W30230  28.567  12.197   0.843
61857W        W30231  35.860  13.142  14.346
61858W        W30232  24.037  11.621   3.859
61859W        W30233  42.937   6.776   4.124
61860W        W30234   3.365  29.159  12.965
61861W        W30235  14.217  24.089  12.057
61862W        W30236   9.183   0.468  11.545
61863W        W30237  11.251  35.517  14.940
61864W        W30238   3.227  38.967   5.303
61865W        W30239   6.677   6.189   0.257
61866W        W30240   4.251  13.313  10.989
61867W        W30241  24.572  29.461  10.915
61868W        W30242  12.161  26.961  14.354
61869W        W30243  41.484  19.159   2.343
61870W        W30244  42.472   7.282   0.953
61871W        W30245   2.310   8.223   3.261
61872W        W30246  32.945  30.486  14.359
61873W        W30247  16.138  20.586  11.544
61874W        W30248  19.705  36.499  12.958
61875W        W30249  31.939  38.476  11.118
61876W        W30250  36.075  24.043  12.006
61877W        W30251  11.282  17.720  12.970
61878W        W30252  22.584  40.843   9.952
61879W        W30253  30.421  22.228  12.508
61880W        W30254  12.843  39.959   0.402
61881W        W30255  29.461  11.823   0.852
61882W        W30256   8.219  15.652   0.420
61883W        W30257  18.780  28.461   0.348
61884W        W30258  41.943  20.728   0.328
61885W        W30259  28.086  33.582   3.656
61886W        W30260  21.560  25.101   3.739
61887W        W30261  38.980   0.801   1.348
61888W        W30262   1.769  35.926   1.738
61889W        W30263  22.104  39.466   0.452
61890W        W30264  29.140  25.046   3.726
61891W        W30265  40.984   1.442   2.345
61892W        W30266  28.942   9.171   1.874
61893W        W30267  35.038  42.464  11.488
61894W        W30268  16.691  12.701  14.375
61895W        W30269  31.100  36.986  11.577
61896W        W30270  44.956  31.553   3.245
61897W        W30271   5.338  12.347   4.287
61898W        W30272  28.066  37.056   2.745
61899W        W30273  31.965  34.065  11.377
61900W        W30274  25.024  11.698   1.396
61901W        W30275  11.798  29.152  13.817
61902W        W30276  13.680   3.719  11.020
61903W        W30277  41.298  38.011   2.234
61904W        W30278  33.125  17.217   3.795
61905W        W30279   7.815  38.360   2.262
61906W        W30280  20.119  39.867  12.954
61907W        W30281   5.304   8.741   1.903
61908W        W30282  18.687  35.069   4.200
61909W        W30283   8.390   6.805   1.856
61910W        W30284   1.394  13.173   1.706
61911W        W30285   9.176  23.588   2.857
61912W        W30286  28.971  25.056  13.401
61913W        W30287  37.354  39.908  14.929
61914W        W30288  39.371  37.999   2.810
61915W        W30289  33.602  12.777   3.318
61916W        W30290  25.043  15.619  14.426
61917W        W30291  42.907   6.867   1.281
61918W        W30292   0.810   3.896   4.791
61919W        W30293  21.574  30.961   1.311
61920W        W30294  24.089   8.170   0.956
61921W        W30295  15.631   3.392   2.385
61922W        W30296  20.538   4.943   2.811
61923W        W30297  13.258  29.999  12.953
61924W        W30298  25.514  17.090   4.654
61925W        W30299  14.759  32.094  12.995
61926W        W30300  43.962   0.288   1.724
61927W        W30301  29.563  17.704   1.885
61928W        W30302  21.069  36.436   0.772
61929W        W30303   4.228  10.296  11.117
61930W        W30304  42.320  17.660   2.304
61931W        W30305  35.535  37.846  12.517
61932W        W30306  11.766  28.461  12.486
61933W        W30307  18.086  36.097   1.730
61934W        W30308  16.801  31.561  14.825
61935W        W30309  36.467  41.035  11.077
61936W        W30310   5.857  10.229  12.353
61937W        W30311  24.108  31.985   3.250
61938W        W30312  17.800  43.390   2.842
61939W        W30313  36.458  16.574  12.545
61940W        W30314  28.647   3.225   3.792
61941W        W30315  19.158  39.025   2.228
61942W        W30316  37.385   8.384  14.801
61943W        W30317  14.761  43.470  10.970
61944W        W30318   6.404   0.432   2.670
61945W        W30319  40.341  12.178  14.457
61946W        W30320  10.796  38.964  11.862
61947W        W30321   6.867  23.574   4.297
61948W        W30322  14.750   7.820   4.643
61949W        W30323   6.729  11.730   3.680
61950W        W30324  30.477  32.584  13.846
61951W        W30325  18.550   4.381   4.631
61952W        W30326   7.809   9.216   3.813
61953W        W30327  17.730   6.868  11.860
61954W        W30328  41.997  11.289   2.195
61955W        W30329  43.001  24.083   2.357
61956W        W30330  43.975  21.159   3.250
61957W        W30331  10.377  12.798  10.989
61958W        W30332  18.154  40.466  12.904
61959W        W30333  44.318  30.473   1.387
61960W        W30334  30.034  12.285  12.990
61961W        W30335  31.127  15.654  13.337
61962W        W30336   1.743  10.797   4.310
61963W        W30337   2.369   0.843  10.441
61964W        W30338  23.548   3.731  12.545
61965W        W30339  18.140   7.203   0.915
61966W        W30340  19.761   0.773  12.385
61967W        W30341  14.659   0.970  10.545
61968W        W30342  32.042  32.403   0.904
61969W        W30343  43.512  22.232   1.746
61970W        W30344  14.710  43.007  12.887
61971W        W30345  17.707  29.933  11.576
61972W        W30346  39.935   6.755  14.276
61973W        W30347  29.001  29.561  13.913
61974W        W30348   5.370  21.682   1.864
61975W        W30349  10.879  22.551   1.841
61976W        W30350  34.453   1.809   1.366
61977W        W30351  30.058   5.194  10.419
61978W        W30352  11.332  22.596  11.465
61979W        W30353  36.542   1.877  13.911
61980W        W30354  21.070   2.897  11.046
61981W        W30355  20.169   1.300  10.424
61982W        W30356  16.197   3.387  12.938
61983W        W30357  43.373  29.627  14.965
61984W        W30358  32.040  44.945  14.874
61985W        W30359   4.249  19.655  12.376
61986W        W30360   9.390   0.275   4.773
61987W        W30361  17.753  31.015   1.715
61988W        W30362  42.475  14.240   1.403
61989W        W30363  12.658  16.710   2.819
61990W        W30364  39.532  29.641   2.400
61991W        W30365   2.896  12.614  11.563
61992W        W30366  10.733  11.822   4.668
61993W        W30367  42.894   4.329   1.432
61994W        W30368  33.067  36.520   4.711
61995W        W30369   5.884  24.986  10.542
61996W        W30370  20.243   9.779   0.446
61997W        W30371  26.511  39.987   0.424
61998W        W30372  19.560  36.402  10.576
61999W        W30373  42.882  29.058   3.355
62000W        W30374   3.385  38.970  13.506
62001W        W30375   2.368  32.959  14.302
62002W        W30376  34.982   7.228   3.865
62003W        W30377  14.821  39.471  14.311
62004W        W30378  13.673  15.127  14.426
62005W        W30379  17.700  31.508  13.438
62006W        W30380  16.277   8.771  10.160
62007W        W30381  27.629  24.498   2.273
62008W        W30382   1.319  31.642   2.716
62009W        W30383  13.841  14.700   4.689
62010W        W30384  27.011  14.752   2.394
62011W        W30385   3.839  16.125  10.461
62012W        W30386  26.618  24.638   3.266
62013W        W30387  12.159  17.612   0.373
62014W        W30388  40.512   4.853  11.552
62015W        W30389  33.901   4.279  12.026
62016W        W30390   0.899  40.385   2.721
62017W        W30391  24.038  36.864   1.242
62018W        W30392   4.260  32.390  12.370
62019W        W30393  36.421  24.657   2.361
62020W        W30394  23.691  17.208   3.665
62021W        W30395  24.542  41.453  12.547
62022W        W30396  34.934  20.682  13.535
62023W        W30397  35.104  15.777  10.446
62024W        W30398   0.824  15.272  12.532
62025W        W30399  18.621   7.217  14.511
62026W        W30400   2.238  37.489   1.810
62027W        W30401  31.440  29.573  11.929
62028W        W30402  26.578  17.740  13.900
62029W        W30403  24.082  19.637   3.807
62030W        W30404  13.640  36.938   2.664
62031W        W30405   7.778  43.919  14.031
62032W        W30406  11.766  15.600   2.707
62033W        W30407   8.854  16.612  10.416
62034W        W30408   2.751  10.812  14.761
62035W        W30409  21.070  40.477   0.460
62036W        W30410  44.387   4.703   4.816
62037W        W30411  16.109  10.357  14.961
62038W        W30412  39.338  36.522  13.511
62039W        W30413  16.312  32.014   3.362
62040W        W30414   4.325  16.293  13.897
62041W        W30415  16.712  29.922  13.859
62042W        W30416  10.848  18.084   1.442
62043W        W30417   4.288  33.109   2.671
62044W        W30418  10.868  16.203  14.416
62045W        W30419  17.633  21.547  14.846
62046W        W30420  15.259  31.494   4.287
62047W        W30421  41.405  35.077   1.777
62048W        W30422  25.652  33.906  10.608
62049W        W30423  44.338  34.518   1.821
62050W        W30424  11.772  41.340   1.718
62051W        W30425   6.755  33.968   1.782
62052W        W30426   3.789  13.311  11.396
62053W        W30427  22.147  27.968  12.034
62054W        W30428  12.664  30.106  13.422
62055W        W30429  41.005  29.006   0.295
62056W        W30430   2.389  42.879   2.283
62057W        W30431  38.036  18.578   2.672
62058W        W30432   0.331  11.327  13.374
62059W        W30433  17.646  38.355  14.464
62060W        W30434  25.620  24.699  14.966
62061W        W30435  14.298  40.504  11.444
62062W        W30436  38.027  43.911   4.336
62063W        W30437  43.927  27.545   1.352
62064W        W30438  38.955  27.959  12.463
62065W        W30439  43.401  26.049  13.034
62066W        W30440  29.115  41.371   3.835
62067W        W30441  10.143  22.197  10.563
62068W        W30442  27.095  43.936   3.150
62069W        W30443  41.874  34.479  12.966
62070W        W30444   7.301  14.156  14.451
62071W        W30445   9.303  12.843   1.701
62072W        W30446  29.094   6.786   2.361
62073W        W30447   5.360  20.087  13.046
62074W        W30448   6.281  38.376   3.797
62075W        W30449  12.279  28.072  14.785
62076W        W30450  39.044  28.465   0.928
62077W        W30451  14.149  18.175   3.867
62078W        W30452  33.055  12.688   1.743
62079W        W30453   6.426  34.413   4.217
62080W        W30454  41.967  24.154   4.703
62081W        W30455  42.471  12.239  13.440
62082W        W30456  23.593  44.351   2.798
62083W        W30457  44.396  39.921  14.921
62084W        W30458  36.952  34.411  11.871
62085W        W30459   7.247   8.292  11.383
62086W        W30460  16.262  20.218  12.051
62087W        W30461   9.156  16.706   4.684
62088W        W30462   2.816  20.159  14.860
62089W        W30463  12.240  17.224  12.363
62090W        W30464  20.253  11.258  10.483
62091W        W30465   6.249   9.719   1.932
62092W        W30466  26.545  43.476  12.438
62093W        W30467  38.433  25.011   1.233
62094W        W30468  18.134  21.688   1.856
62095W        W30469  13.779  40.833   3.728
62096W        W30470   5.728   0.811  11.373
62097W        W30471   5.270  18.661  11.129
62098W        W30472   6.792  26.993   0.402
62099W        W30473  38.060  15.165  12.393
62100W        W30474   0.914  32.899  13.395
62101W        W30475   7.727  30.971  10.460
62102W        W30476  18.053  25.057   2.742
62103W        W30477  36.051  18.783  13.948
62104W        W30478  15.725  20.267   2.790
62105W        W30479  21.564   7.214  11.955
62106W        W30480  11.680  15.291   0.903
62107W        W30481   3.836  26.062   0.957
62108W        W30482  26.170  16.235  14.397
62109W        W30483   0.474   5.378   0.464
62110W        W30484   1.452   8.290  12.966
62111W        W30485  34.459   8.783  14.327
62112W        W30486  36.432  36.912  12.858
62113W        W30487  12.343   4.385  10.629
62114W        W30488  12.270  43.844  12.340
62115W        W30489  30.025  16.195   3.346
62116W        W30490  19.192  14.831   2.823
62117W        W30491  44.793   3.890  14.367
62118W        W30492  32.133  21.659  11.946
62119W        W30493  10.351   8.191  11.938
62120W        W30494  40.034  16.278   2.412
62121W        W30495  20.641   8.348   2.802
62122W        W30496  37.030  28.440  13.956
62123W        W30497  30.021  31.454   1.753
62124W        W30498   1.274  44.881  14.276
62125W        W30499   0.272  21.232  12.360
62126W        W30500  42.349  13.793  12.381
62127W        W30501  40.373  28.171   2.795
62128W        W30502  18.265  25.666   2.823
62129W        W30503  16.709  32.040  13.926
62130W        W30504  35.500  21.262   3.862
62131W        W30505  19.770  12.681  12.476
62132W        W30506  14.667  40.536  12.533
62133W        W30507  29.664  19.127  11.540
62134W        W30508  23.558   3.927  10.612
62135W        W30509  36.073  37.533  12.937
62136W        W30510  26.111  13.830   0.481
62137W        W30511  10.288  41.041  13.486
62138W        W30512   7.766  37.455   4.346
62139W        W30513  24.584   9.338   4.319
62140W        W30514  24.053  35.475   0.854
62141W        W30515   0.272  26.606  10.568
62142W        W30516  17.690  22.059  11.991
62143W        W30517  24.164  21.517  13.471
62144W        W30518  14.623  18.183  11.051
62145W        W30519  24.015  35.930  14.972
62146W        W30520  23.699  22.095  13.361
62147W        W30521   0.958  43.879   0.344
62148W        W30522  10.668  18.700  13.885
62149W        W30523   9.300   1.259  12.078
62150W        W30524  40.841  37.942  10.941
62151W        W30525  40.501  42.465   2.822
62152W        W30526   5.774  30.043  10.628
62153W        W30527  41.845  21.563  12.566
62154W        W30528   4.292  22.137  12.924
62155W        W30529   7.398   0.901   2.283
62156W        W30530   1.858  38.972   3.273
62157W        W30531  37.920   7.840   2.816
62158W        W30532  39.434  36.355   0.955
62159W        W30533  17.676  23.617   1.918
62160W        W30534  20.048  42.508  14.846
62161W        W30535  36.436   8.678   2.809
62162W        W30536  25.493   8.795   5.292
62163W        W30537  13.298   5.308   4.695
62164W        W30538   6.822  44.380   3.636
62165W        W30539  24.655  44.855   1.346
62166W        W30540  36.939  20.694  14.438
62167W        W30541  23.713  23.153  14.437
62168W        W30542  42.872  14.249   4.176
62169W        W30543  32.004  23.644  13.864
62170W        W30544  13.251  34.563   2.815
62171W        W30545   2.838  26.565  12.823
62172W        W30546   8.805  29.467  14.999
62173W        W30547  43.507  39.862   2.830
62174W        W30548  36.024   8.197   1.232
62175W        W30549  39.996   7.840   0.278
62176W        W30550  21.718  44.454   3.203
62177W        W30551   6.692  31.975  13.011
62178W        W30552  16.568  19.077   0.874
62179W        W30553  36.582  22.078  10.962
62180W        W30554  41.817  33.425  13.954
62181W        W30555   7.173  24.650   2.313
62182W        W30556  38.891  18.628  11.390
62183W        W30557  16.783  22.132  14.405
62184W        W30558   3.310  29.427  14.865
62185W        W30559  39.409  21.116  10.624
62186W        W30560   8.700  36.922   2.235
62187W        W30561  35.062  14.704   4.263
62188W        W30562  16.707  28.451  13.934
62189W        W30563  42.864  41.939   2.341
62190W        W30564   7.175  26.988   3.340
62191W        W30565   0.459  28.167   0.363
62192W        W30566   3.435   7.906  11.566
62193W        W30567  20.181  39.357   5.743
62194W        W30568  40.507  38.002   3.285
62195W        W30569  34.883   1.830   2.397
62196W        W30570   0.462  30.035   3.687
62197W        W30571   6.910   0.331   2.711
62198W        W30572  20.540  26.994   1.226
62199W        W30573  32.012  12.820  10.100
62200W        W30574  11.759  11.860   3.668
62201W        W30575  41.942  42.429   1.846
62202W        W30576  24.011  28.987   4.215
62203W        W30577  24.691  37.576  11.511
62204W        W30578  20.652  40.458  13.830
62205W        W30579  43.824  21.636  12.928
62206W        W30580  26.164  41.018   1.286
62207W        W30581  43.436  24.010   2.291
62208W        W30582  19.654   0.305  12.402
62209W        W30583  25.474  27.014  13.048
62210W        W30584  21.594  40.529   4.833
62211W        W30585  25.045  36.454  12.869
62212W        W30586   5.893  39.917  14.842
62213W        W30587  41.459   7.719   4.117
62214W        W30588  18.084  39.006  14.365
62215W        W30589   3.763   9.864   4.771
62216W        W30590  39.867  38.391   0.311
62217W        W30591  36.024  33.419  10.437
62218W        W30592   8.733  23.232   3.238
62219W        W30593  28.008  31.028   2.729
62220W        W30594  17.210  30.093  12.067
62221W        W30595   5.354  24.110   0.338
62222W        W30596  44.840  25.548  13.838
62223W        W30597  17.740  37.485   1.866
62224W        W30598  16.112  24.611   1.356
62225W        W30599  18.646  32.028  10.149
62226W        W30600  18.205  25.671  14.898
62227W        W30601  43.466   8.236   2.737
62228W        W30602  39.006  33.543   2.751
62229W        W30603  20.559  28.680  13.906
62230W        W30604  35.566  18.103  11.967
62231W        W30605  25.680  11.816   9.941
62232W        W30606  38.361  32.982   0.867
62233W        W30607  41.955  27.496   2.729
62234W        W30608   4.875  10.230   0.915
62235W        W30609  19.604  36.095  11.570
62236W        W30610   4.439  39.808  13.927
62237W        W30611   3.861  37.060  13.448
62238W        W30612   2.334   9.816  12.949
62239W        W30613  11.804  16.696   1.876
62240W        W30614  14.193  16.679  13.451
62241W        W30615  17.678  32.086  14.350
62242W        W30616   7.382  34.910   1.428
62243W        W30617  11.244  22.113   0.962
62244W        W30618  26.678  36.514   5.133
62245W        W30619  43.503  38.045  11.877
62246W        W30620  22.143   4.852   3.166
62247W        W30621   7.199  21.698   1.887
62248W        W30622  32.952  25.526  10.483
62249W        W30623   1.757  26.497   0.793
62250W        W30624   2.400  11.255   1.702
62251W        W30625   1.789   1.939   0.752
62252W        W30626  29.452  29.536  10.994
62253W        W30627  35.958  29.086   0.373
62254W        W30628  33.531  32.894  14.940
62255W        W30629   9.841  21.062   1.748
62256W        W30630  13.241   0.883  10.990
62257W        W30631   6.853  24.001   5.312
62258W        W30632   1.965  24.093   3.744
62259W        W30633  41.930  27.578   0.244
62260W        W30634  32.603  14.774   1.241
62261W        W30635  36.062  35.969  11.869
62262W        W30636  40.881  22.573  13.818
62263W        W30637  18.681  22.739  10.626
62264W        W30638  29.137   6.797   3.839
62265W        W30639  11.733  10.304  13.357
62266W        W30640  16.581   8.340  12.013
62267W        W30641   8.797  24.640   0.321
62268W        W30642  30.444  11.309  14.329
62269W        W30643  13.768  19.660  13.018
62270W        W30644  27.164  25.566  10.411
62271W        W30645  35.085  26.077   2.253
62272W        W30646  31.068  38.935   0.905
62273W        W30647  40.532  13.344   2.736
62274W        W30648  40.344  18.210   2.413
62275W        W30649   1.417   6.830  11.008
62276W        W30650  14.754  33.441   3.678
62277W        W30651  27.180  42.927  13.372
62278W        W30652  34.473  32.605  10.996
62279W        W30653  35.412   3.397   2.385
62280W        W30654  20.698  10.379   4.800
62281W        W30655  41.482  32.984  15.000
62282W        W30656  16.285  13.208   3.215
62283W        W30657  36.577   7.318   0.427
62284W        W30658   6.714  23.004  12.033
62285W        W30659  14.268  21.704  13.364
62286W        W30660  32.062  23.188  11.127
62287W        W30661  20.685  10.384   3.162
62288W        W30662  41.860  20.188   1.423
62289W        W30663  37.016   4.400   4.217
62290W        W30664   7.842  12.668  13.028
62291W        W30665   6.307  41.465   2.371
62292W        W30666  11.643  38.571  14.865
62293W        W30667  20.606   0.470   2.847
62294W        W30668  14.726  37.851   4.695
62295W        W30669  44.387   6.305   1.863
62296W        W30670  17.210  21.662   4.787
62297W        W30671  39.974  11.247  14.466
62298W        W30672  25.544   6.834  14.297
62299W        W30673  35.423  43.005   4.304
62300W        W30674  34.054  40.438   3.825
62301W        W30675   1.945  30.439  11.039
62302W        W30676  32.636  38.024   4.197
62303W        W30677  15.651  39.977  11.536
62304W        W30678  16.599  33.121   3.701
62305W        W30679  33.995  23.098  10.448
62306W        W30680  23.082   1.891   0.375
62307W        W30681  31.450  15.246  10.494
62308W        W30682  17.171  10.301   0.344
62309W        W30683  13.629  43.989   2.357
62310W        W30684   5.915  42.951  14.980
62311W        W30685  21.176  29.131   2.708
62312W        W30686   1.438  35.428   0.844
62313W        W30687  34.954   6.410   4.153
62314W        W30688  16.608  44.260  10.477
62315W        W30689  14.239  12.313   3.167
62316W        W30690  11.699  33.498  14.460
62317W        W30691  44.331  10.836   3.294
62318W        W30692   8.831  30.056  13.518
62319W        W30693  21.082   7.766   2.820
62320W        W30694  13.180   6.365  12.425
62321W        W30695  33.576  24.033   2.245
62322W        W30696  30.566  10.848   2.663
62323W        W30697  17.303  43.905   0.879
62324W        W30698  42.292  14.736  11.111
62325W        W30699  13.226  16.217  12.450
62326W        W30700  39.867  25.065   4.683
62327W        W30701  42.495  35.976  11.951
62328W        W30702  26.185  40.008  14.770
62329W        W30703   7.816  15.765   4.784
62330W        W30704   7.355  22.117   0.859
62331W        W30705   1.340  40.379  12.339
62332W        W30706  14.278  17.692   2.363
62333W        W30707   4.409  43.347   2.316
62334W        W30708   3.824  33.500  11.521
62335W        W30709  38.848  12.783   2.820
62336W        W30710  18.171  38.953   1.390
62337W        W30711  11.208  38.994  11.500
62338W        W30712   1.397  39.432  14.861
62339W        W30713  13.736  30.010   0.758
62340W        W30714  36.438  10.752   1.897
62341W        W30715  23.558  30.632   4.290
62342W        W30716  18.098  43.270   3.192
62343W        W30717   2.818  11.297  14.406
62344W        W30718  19.223   0.313   0.956
62345W        W30719  42.419  19.240  13.793
62346W        W30720  32.000  30.048   2.324
62347W        W30721  40.952  25.039  11.952
62348W        W30722  21.122  22.057   0.768
62349W        W30723  31.426   0.464  11.377
62350W        W30724  43.844  39.936   1.400
62351W        W30725  16.078  42.916  10.973
62352W        W30726  15.083   6.266   2.724
62353W        W30727  14.605  20.226  13.811
62354W        W30728  10.282  25.172   1.748
62355W        W30729  14.114  21.161  13.477
62356W        W30730  26.608  42.437   1.755
62357W        W30731  34.499  34.529   0.474
62358W        W30732  25.220  12.839   4.692
62359W        W30733  19.691  16.772  12.437
62360W        W30734  27.089  10.848   0.439
62361W        W30735  24.519   6.294  11.603
62362W        W30736  22.212  39.881   4.741
62363W        W30737  15.273  25.538   1.733
62364W        W30738  23.521  30.489  12.939
62365W        W30739  25.513  19.611   0.838
62366W        W30740   8.690  44.999  13.921
62367W        W30741  15.672  36.349   4.668
62368W        W30742  11.251  24.093  14.900
62369W        W30743  34.589  39.992  11.919
62370W        W30744  16.232  29.977  13.354
62371W        W30745  24.187   8.814  13.324
62372W        W30746  29.075  21.101  13.400
62373W        W30747  24.108  14.282  13.839
62374W        W30748  31.505  10.860   3.736
62375W        W30749  26.004  44.989   3.812
62376W        W30750  13.621  29.530  11.419
62377W        W30751   9.644  42.866  13.528
62378W        W30752  44.957  22.059  12.992
62379W        W30753  16.139  28.959  13.804
62380W        W30754  16.316  33.389   2.665
62381W        W30755  18.054  17.179  12.086
62382W        W30756  34.385  19.084  12.366
62383W        W30757  21.587  43.356   4.267
62384W        W30758  36.408  15.173   4.685
62385W        W30759  39.518  29.430   2.831
62386W        W30760   0.453  36.584   3.211
62387W        W30761  42.447   0.813   0.370
62388W        W30762  26.012  38.948   1.878
62389W        W30763  43.389  39.898   0.368
62390W        W30764  14.272  27.053   0.798
62391W        W30765  44.500  19.062  15.000
62392W        W30766  10.282  43.003  14.954
62393W        W30767  41.840  12.222  13.424
62394W        W30768  30.545  16.746   2.331
62395W        W30769  35.956  38.995  12.469
62396W        W30770  26.600  22.741  14.283
62397W        W30771  12.220  14.691   4.644
62398W        W30772  17.130  14.828  10.970
62399W        W30773  17.641   9.768   3.681
62400W        W30774   0.867  12.234   1.895
62401W        W30775   1.365   5.230   2.696
62402W        W30776  41.439  28.586  12.077
62403W        W30777  40.531   0.435   3.704
62404W        W30778  32.509  37.458  11.068
62405W        W30779  12.804  37.866   0.778
62406W        W30780  10.330  28.013  10.988
62407W        W30781  18.167   2.290  13.039
62408W        W30782   6.369  24.529  14.924
62409W        W30783  33.943  20.156   3.766
62410W        W30784   6.398  34.446  12.378
62411W        W30785  28.182   2.732   0.831
62412W        W30786  31.106   9.375   4.160
62413W        W30787  42.457  22.165   3.758
62414W        W30788  32.959  34.395  13.892
62415W        W30789   1.825  30.106  14.807
62416W        W30790  38.405   0.846   1.843
62417W        W30791  35.931  39.815   2.266
62418W        W30792  34.999  34.393   0.295
62419W        W30793   0.421  25.542  12.357
62420W        W30794  36.088  41.033   1.810
62421W        W30795   5.926  15.273   1.375
62422W        W30796  13.766   7.900   3.385
62423W        W30797  25.087  22.737   2.763
62424W        W30798  27.567  28.101   3.740
62425W        W30799  42.505  35.894   2.202
62426W        W30800  42.372  19.059   1.420
62427W        W30801   5.772  40.539  12.079
62428W        W30802  18.692   8.235   2.876
62429W        W30803   3.814  43.785   4.758
62430W        W30804  35.393  16.604  12.396
62431W        W30805  34.447  12.123  12.481
62432W        W30806  23.710   6.351   4.119
62433W        W30807  31.039   2.348  14.766
62434W        W30808  13.220  28.564  13.347
62435W        W30809  22.118  18.605  10.566
62436W        W30810   2.454  29.435  11.905
62437W        W30811  41.431  17.130   0.410
62438W        W30812   9.228   4.341   9.992
62439W        W30813   8.281  13.158  12.473
62440W        W30814  44.464   4.425  12.095
62441W        W30815  16.595  19.057  10.916
62442W        W30816   7.227   6.780  11.449
62443W        W30817  40.530  28.930  11.479
62444W        W30818  34.030  27.173  11.560
62445W        W30819  13.773  32.587   3.851
62446W        W30820   8.790   0.932  13.523
62447W        W30821   5.215  43.976  11.997
62448W        W30822  27.564   9.668  11.124
62449W        W30823  35.573   4.852   4.130
62450W        W30824  16.124  21.536   4.616
62451W        W30825  17.072   1.357  12.427
62452W        W30826  35.961  12.360  12.083
62453W        W30827  13.651  15.687  12.053
62454W        W30828  15.808  33.395   1.790
62455W        W30829  40.526  15.158  10.418
62456W        W30830  32.634  14.291  14.414
62457W        W30831  42.493  23.241   4.141
62458W        W30832  43.351  36.877   4.289
62459W        W30833  15.747   8.342   5.188
62460W        W30834   6.201  10.160  13.994
62461W        W30835  38.876  44.988   2.703
62462W        W30836  38.546  10.813   0.417
62463W        W30837  33.127   6.730  10.981
62464W        W30838   5.326  42.860  14.864
62465W        W30839  15.641  24.069   0.355
62466W        W30840   1.289  30.626  10.584
62467W        W30841  17.642  38.854  13.359
62468W        W30842  43.293  25.497  14.398
62469W        W30843  20.079  34.076  14.869
62470W        W30844  15.158   1.262   0.291
62471W        W30845   2.804  23.495   3.244
62472W        W30846  18.781  16.671  11.879
62473W        W30847  26.975  28.095  13.850
62474W        W30848   4.438  12.727   4.826
62475W        W30849  13.185  30.585   5.230
62476W        W30850  33.461  33.956   3.690
62477W        W30851  26.680  19.185   0.753
62478W        W30852  14.745   6.775  10.582
62479W        W30853  13.163  39.009  12.855
62480W        W30854  38.522  16.276  13.524
62481W        W30855  25.158  11.662   4.738
62482W        W30856   7.417   1.347   0.368
62483W        W30857  40.934  40.458   2.310
62484W        W30858  21.220  18.269   3.177
62485W        W30859   1.763  20.600  13.806
62486W        W30860  23.696  29.106   1.388
62487W        W30861   6.822  26.957  10.577
62488W        W30862  30.039  10.800  13.967
62489W        W30863  23.509   9.838  13.902
62490W        W30864  28.554  23.992   2.881
62491W        W30865  37.493   9.705   5.706
62492W        W30866  27.962  39.836  10.070
62493W        W30867  18.679  21.085  13.804
62494W        W30868  32.125  36.931   0.841
62495W        W30869   5.218   1.835  10.931
62496W        W30870  24.054   1.468   0.939
62497W        W30871  30.610  16.215  14.985
62498W        W30872   0.956  32.965   4.210
62499W        W30873  27.002  36.531  12.572
62500W        W30874  28.480  43.314  11.871
62501W        W30875  29.062  21.115  12.918
62502W        W30876  42.394  10.151  14.465
62503W        W30877  27.668   0.396   1.385
62504W        W30878  35.043  37.512   4.203
62505W        W30879  11.679  17.715  12.032
62506W        W30880   2.948   8.252   4.684
62507W        W30881  28.127   5.909  13.021
62508W        W30882  38.478   2.446  13.418
62509W        W30883  16.095   7.209   3.285
62510W        W30884  15.308  22.666  12.386
62511W        W30885  19.579  37.961  11.423
62512W        W30886   9.878  11.672   4.255
62513W        W30887  12.306  14.330  11.405
62514W        W30888  30.957  20.702  13.795
62515W        W30889  30.006  44.996   2.252
62516W        W30890  23.714  21.520  13.472
62517W        W30891  28.989  28.610   4.600
62518W        W30892  22.195  11.623  13.466
62519W        W30893  34.062  19.203  10.890
62520W        W30894   4.943  26.530   9.982
62521W        W30895  43.448   8.889   3.703
62522W        W30896  17.210   8.888  11.859
62523W        W30897  32.485   3.422  12.003
62524W        W30898  39.990  23.200  11.049
62525W        W30899   7.680  30.042  13.013
62526W        W30900  44.946  33.590  13.492
62527W        W30901  28.029  13.256  11.487
62528W        W30902  37.864   0.255   4.167
62529W        W30903   0.372   7.755  12.516
62530W        W30904  35.536  40.864   1.893
62531W        W30905  18.056  26.973  14.813
62532W        W30906   9.213  15.124   2.896
62533W        W30907   9.764  25.645  12.431
62534W        W30908  44.913  40.524  13.924
62535W        W30909  20.677  21.747   1.778
62536W        W30910  29.550   9.721   1.280
62537W        W30911  13.622  29.025  12.534
62538W        W30912  13.202  29.990  10.568
62539W        W30913  11.277  14.101  13.862
62540W        W30914  36.527  41.351  11.109
62541W        W30915  33.463  42.399  11.425
62542W        W30916  36.487  29.173   3.711
62543W        W30917  19.624  44.766  13.524
62544W        W30918  39.880  22.524   2.806
62545W        W30919  16.665  32.620  11.451
62546W        W30920   2.744  12.628  13.445
62547W        W30921  11.758  36.533   2.785
62548W        W30922   4.357   1.293   1.308
62549W        W30923  35.010  30.483   3.710
62550W        W30924  17.590  43.381  13.034
62551W        W30925  42.445  38.898   1.340
62552W        W30926  10.666  35.090   4.208
62553W        W30927  42.315   2.898   3.712
62554W        W30928  25.687  14.231   1.728
62555W        W30929  35.952   1.243  14.790
62556W        W30930  16.289  13.607  14.844
62557W        W30931  12.746  16.617  14.398
62558W        W30932  23.013  12.824  12.896
62559W        W30933   9.168   7.789   2.809
62560W        W30934  19.043  27.187   1.828
62561W        W30935  18.081  37.047   0.481
62562W        W30936  25.561  41.888  10.897
62563W        W30937  28.471  15.661  12.011
62564W        W30938  26.064   0.898   4.210
62565W        W30939  40.000   8.881   3.807
62566W        W30940   4.755  25.525  10.057
62567W        W30941  38.969   5.337  10.021
62568W        W30942  17.754  36.593  13.045
62569W        W30943  40.870   9.817   1.909
62570W        W30944  32.485  21.525   1.239
62571W        W30945   7.828  34.562  12.053
62572W        W30946  44.267  25.981   3.788
62573W        W30947   3.421  32.596  10.975
62574W        W30948  32.092  34.424  14.780
62575W        W30949  13.796  10.330   3.814
62576W        W30950  31.998  12.817  12.965
62577W        W30951  44.870  20.741   0.765
62578W        W30952  31.539   1.474  14.954
62579W        W30953  30.620  21.186   4.750
62580W        W30954  31.622  43.824  14.301
62581W        W30955  35.979  12.249  14.386
62582W        W30956  12.808  22.549   3.264
62583W        W30957  20.031  14.253   5.222
62584W        W30958  23.635  12.339  11.476
62585W        W30959  41.293  32.922  12.399
62586W        W30960  42.885  23.000  13.495
62587W        W30961   3.310  12.649  12.872
62588W        W30962   4.937  18.660   4.265
62589W        W30963  36.435  19.709  14.395
62590W        W30964  40.051   4.330  14.764
62591W        W30965  25.495   1.908  13.518
62592W        W30966  35.385  34.120   4.232
62593W        W30967  29.607  14.618  13.934
62594W        W30968  24.118   4.365   3.722
62595W        W30969  11.350  33.965   1.262
62596W        W30970   4.937  28.655  13.916
62597W        W30971  35.584  44.985   2.222
62598W        W30972  19.284  20.623  12.002
62599W        W30973  41.358   0.363  14.859
62600W        W30974   8.868  26.587  14.462
62601W        W30975  24.605  38.338   3.344
62602W        W30976  15.798  27.115   4.654
62603W        W30977   3.751   8.300  10.630
62604W        W30978  18.157  19.772  13.402
62605W        W30979  19.724  17.298   1.444
62606W        W30980  18.647   3.327  11.386
62607W        W30981  43.794  20.749  13.999
62608W        W30982  10.158  15.222  12.067
62609W        W30983  19.079   8.740  13.879
62610W        W30984  29.461   8.754  11.881
62611W        W30985   5.719  15.770   1.873
62612W        W30986  13.698  15.642   1.809
62613W        W30987  25.026  30.491  10.445
62614W        W30988  24.153   3.288  14.026
62615W        W30989  37.970  43.316  12.525
62616W        W30990  41.954  40.356   0.737
62617W        W30991  16.150   4.885   3.718
62618W        W30992   1.433  33.536   4.687
62619W        W30993  20.637   0.361  13.031
62620W        W30994   1.283  43.850  11.532
62621W        W30995  33.990  43.450   4.313
62622W        W30996   3.947   0.814   3.328
62623W        W30997  28.150   9.283   0.363
62624W        W30998  30.534  23.233   1.921
62625W        W30999  33.490   8.166  14.314
62626W        W31000  12.324  32.551   1.412
62627W        W31001  14.272   4.785  12.835
62628W        W31002  25.474  38.339   1.393
62629W        W31003  38.984  12.840  13.870
62630W        W31004  22.009  14.230   1.400
62631W        W31005  44.492   6.293  14.280
62632W        W31006  30.973  26.069  11.116
62633W        W31007  14.266  19.112   2.353
62634W        W31008  20.539  24.027   1.853
62635W        W31009  22.118  31.648  10.937
62636W        W31010  24.094  41.036   1.773
62637W        W31011   6.792  34.965   3.808
62638W        W31012  30.002   9.187   1.735
62639W        W31013   7.283  27.494   0.859
62640W        W31014   1.825  21.087  14.797
62641W        W31015  16.756   2.937   3.254
62642W        W31016  21.072   2.419  11.890
62643W        W31017  43.827  28.996   4.774
62644W        W31018  34.013  32.097   2.285
62645W        W31019  17.188  16.074   0.931
62646W        W31020  18.582  15.802   1.354
62647W        W31021   3.330   8.308  13.544
62648W        W31022  23.167  13.189   0.879
62649W        W31023  19.704  36.494  11.876
62650W        W31024   6.371  12.701  14.426
62651W        W31025  19.725  20.591   3.154
62652W        W31026  27.083  27.119  14.991
62653W        W31027  27.124   8.674   4.625
62654W        W31028  19.273  25.160   1.277
62655W        W31029  27.536  25.492  13.514
62656W        W31030   3.857  24.135  12.047
62657W        W31031  30.161  16.077   0.352
62658W        W31032  34.063  34.099  14.328
62659W        W31033  32.078  37.380   0.820
62660W        W31034  21.056  29.138  14.410
62661W        W31035  34.950  12.284   2.293
62662W        W31036  35.858  20.049  14.766
62663W        W31037  36.007  36.007  11.393
62664W        W31038   2.362  24.040  13.888
62665W        W31039   5.730  21.692  11.454
62666W        W31040   3.811  28.062  14.877
62667W        W31041  41.801   5.797   3.215
62668W        W31042  21.111  44.868   2.769
62669W        W31043  29.522  12.841  13.878
62670W        W31044  41.457   0.838  12.835
62671W        W31045  33.101  26.999   1.314
62672W        W31046  39.523   2.816  14.947
62673W        W31047  17.138  29.995   4.645
62674W        W31048   5.707   3.870   5.568
62675W        W31049  11.666  25.069  12.825
62676W        W31050  11.668  17.207  14.894
62677W        W31051   5.816  10.727  12.571
62678W        W31052  21.226   3.448  13.530
62679W        W31053  14.295  14.177  10.511
62680W        W31054  12.278  17.061   0.945
62681W        W31055   7.301  42.360  11.915
62682W        W31056   7.229  36.089  11.603
62683W        W31057  33.479  35.960   0.881
62684W        W31058   5.886  18.595   0.352
62685W        W31059  41.370  33.892   4.615
62686W        W31060   7.354   8.787   1.910
62687W        W31061  33.976  40.434   4.804
62688W        W31062  11.717  14.100   2.385
62689W        W31063  10.750  17.253  10.080
62690W        W31064  10.636  15.116   1.932
62691W        W31065  42.835   8.260  12.433
62692W        W31066  25.552  13.630  11.965
62693W        W31067  34.489  29.497   0.847
62694W        W31068   7.328   2.281   0.852
62695W        W31069  17.719  18.070   4.135
62696W        W31070   3.299  17.272  10.408
62697W        W31071  12.761   9.775   0.318
62698W        W31072   4.379  25.092   4.123
62699W        W31073  34.589  36.049  12.509
62700W        W31074  33.409  30.151  11.541
62701W        W31075  38.000  19.103   2.188
62702W        W31076  32.602  37.918  11.887
62703W        W31077  22.657   2.306   9.920
62704W        W31078  14.096  26.648   0.856
62705W        W31079  21.737  10.797  13.446
62706W        W31080  20.704  43.878  12.390
62707W        W31081  14.238  19.580   1.363
62708W        W31082  40.365  37.861   0.727
62709W        W31083  41.324  30.112  11.913
62710W        W31084  42.809   9.807  10.633
62711W        W31085   9.204  12.718   0.952
62712W        W31086  13.662  18.168   1.727
62713W        W31087  30.977  39.370  13.047
62714W        W31088  42.942  43.850   2.807
62715W        W31089  20.062  10.164  11.472
62716W        W31090  39.367  16.758  11.474
62717W        W31091  43.803  32.029   3.381
62718W        W31092  43.413  29.504   1.788
62719W        W31093  35.592  14.816   2.663
62720W        W31094  32.968  42.393  12.092
62721W        W31095  12.805  18.610  13.379
62722W        W31096  31.539  26.661   1.922
62723W        W31097  12.701  19.177  13.398
62724W        W31098  17.676  38.906   4.166
62725W        W31099  18.630  12.647   2.768
62726W        W31100  35.498  28.502  13.426
62727W        W31101  39.416  39.945  11.028
62728W        W31102   6.907  21.530   3.853
62729W        W31103  42.366  21.520  11.477
62730W        W31104  21.055  34.486   1.222
62731W        W31105   2.248  23.164  12.866
62732W        W31106  23.000  14.609   1.729
62733W        W31107  17.802  35.099   3.746
62734W        W31108  17.753  13.670   0.416
62735W        W31109   9.349  13.666  12.356
62736W        W31110  42.917  30.913  12.859
62737W        W31111  15.202   8.328   4.707
62738W        W31112  40.426  36.970  12.860
62739W        W31113  29.427  30.543   3.831
62740W        W31114  36.569  34.101   3.168
62741W        W31115  14.678  17.765  11.033
62742W        W31116  44.798  10.364  14.786
62743W        W31117  44.336  15.770   4.124
62744W        W31118  12.290  17.284   2.847
62745W        W31119  19.539  39.046   2.353
62746W        W31120  14.199  11.785  10.572
62747W        W31121  32.573  22.049  10.627
62748W        W31122  10.228  30.538  10.134
62749W        W31123   6.755  28.625   9.662
62750W        W31124  12.349  29.493  13.859
62751W        W31125  38.983  20.651  10.607
62752W        W31126  10.151  35.545   0.344
62753W        W31127  15.637  44.814  13.979
62754W        W31128  42.946  37.575   1.838
62755W        W31129  34.067  24.609   0.383
62756W        W31130  26.470  27.000   0.393
62757W        W31131  23.709  19.055   2.285
62758W        W31132   3.292  43.962   0.275
62759W        W31133  14.725  34.421  12.083
62760W        W31134  24.073  42.798   0.246
62761W        W31135  25.598  13.768   4.830
62762W        W31136  14.627  19.280   0.787
62763W        W31137  28.634  29.529  11.429
62764W        W31138  34.584   5.271  13.471
62765W        W31139  33.515  22.647  10.947
62766W        W31140  40.486  36.352   1.348
62767W        W31141  31.615  31.104   1.828
62768W        W31142   6.382  31.968  14.336
62769W        W31143  17.235   8.746  13.960
62770W        W31144  40.933  17.079   4.653
62771W        W31145  30.543  44.466   0.804
62772W        W31146   5.861  33.434  10.570
62773W        W31147  31.113  22.162   1.405
62774W        W31148   0.343   8.231   1.841
62775W        W31149   6.886  36.865   2.352
62776W        W31150  19.167  33.002   3.713
62777W        W31151  27.182  44.503   5.095
62778W        W31152  17.202   2.319   1.256
62779W        W31153  37.417  26.567   2.402
62780W        W31154  44.408  15.741  10.997
62781W        W31155  32.055  36.970  10.422
62782W        W31156   5.772   7.321   1.707
62783W        W31157  31.002  34.411  14.802
62784W        W31158  16.730  21.555   0.726
62785W        W31159  15.199  34.598  11.961
62786W        W31160   4.871  13.789  12.501
62787W        W31161  39.019   0.281  12.382
62788W        W31162  28.646  40.965  14.807
62789W        W31163  12.659  34.937   2.790
62790W        W31164  30.426  40.449  13.543
62791W        W31165  24.017  27.588   0.469
62792W        W31166  31.127  25.510   2.205
62793W        W31167  27.660   8.366  14.773
62794W        W31168  24.621  14.611  14.408
62795W        W31169   2.960  30.474   3.779
62796W        W31170  44.919   6.255  14.374
62797W        W31171  36.491  23.525   4.197
62798W        W31172  28.556   4.726   0.843
62799W        W31173   2.962  33.889  11.856
62800W        W31174  11.159  39.934   1.403
62801W        W31175  23.210  34.563  12.906
62802W        W31176  15.234  37.036  14.406
62803W        W31177  36.952  18.647  13.537
62804W        W31178  10.830  32.513   0.940
62805W        W31179   4.363  37.394  12.510
62806W        W31180   1.288   5.381   1.861
62807W        W31181  31.958  34.381   2.225
62808W        W31182  27.601   8.331   1.743
62809W        W31183  19.565  22.052  14.795
62810W        W31184  28.083  10.746   3.195
62811W        W31185  42.298   5.816  12.418
62812W        W31186  20.095   4.758   0.908
62813W        W31187   9.321  28.002  11.512
62814W        W31188   8.750  13.293  11.957
62815W        W31189  38.447  38.990  11.429
62816W        W31190  29.058   9.215  10.547
62817W        W31191  32.065  17.232   0.344
62818W        W31192  31.124  12.183  11.991
62819W        W31193  40.437   3.809   1.738
62820W        W31194   5.759  10.737   2.186
62821W        W31195  32.486  33.923   4.632
62822W        W31196   9.165  25.553  12.479
62823W        W31197   6.290   9.678  12.542
62824W        W31198   8.887  26.209  12.429
62825W        W31199  15.703  22.195   0.352
62826W        W31200  20.034  11.719   1.861
62827W        W31201  23.189   5.340  12.956
62828W        W31202  23.993  40.920  11.065
62829W        W31203  38.021  44.863  14.779
62830W        W31204   8.743  23.118   2.217
62831W        W31205   8.808   3.362   3.292
62832W        W31206  25.671   4.731   4.834
62833W        W31207  41.005  32.421   2.808
62834W        W31208  21.668  23.566   5.094
62835W        W31209  39.991  17.231   3.150
62836W        W31210  36.074  42.984  10.576
62837W        W31211  24.560  26.142  14.769
62838W        W31212   8.306  12.708   4.308
62839W        W31213   1.440  30.472   0.754
62840W        W31214  33.900  17.223   0.387
62841W        W31215  27.637  32.042  11.398
62842W        W31216   9.890  11.767   1.231
62843W        W31217  43.496  20.225  13.888
62844W        W31218   2.734  37.967   1.787
62845W        W31219  16.278   4.382   0.417
62846W        W31220  40.446  30.002  11.502
62847W        W31221   1.398   2.884   2.396
62848W        W31222   8.325  27.116   2.244
62849W        W31223   4.863  13.291   2.744
62850W        W31224  15.246  22.673   3.381
62851W        W31225  27.056  16.632   2.351
62852W        W31226  19.707  39.485  11.118
62853W        W31227  33.042  17.638  11.468
62854W        W31228   6.813  30.555   5.181
62855W        W31229  12.297  43.501  11.964
62856W        W31230  27.013   0.835  14.312
62857W        W31231   2.878  13.318  10.611
62858W        W31232   2.228   9.726   4.308
62859W        W31233  43.344  12.635   3.167
62860W        W31234   1.379  36.504  13.460
62861W        W31235  35.864   1.353   4.662
62862W        W31236  20.211  17.710  13.887
62863W        W31237  15.660  22.044  11.112
62864W        W31238  34.097  25.607   4.349
62865W        W31239  25.991  25.024  10.910
62866W        W31240   8.297  44.853  14.866
62867W        W31241  10.315  25.640   3.782
62868W        W31242  43.359  41.839  10.996
62869W        W31243  26.991  37.963  10.468
62870W        W31244  16.653  31.631   3.779
62871W        W31245   4.228  39.955  12.083
62872W        W31246  33.394  32.051   1.744
62873W        W31247  27.598  21.192   3.203
62874W        W31248  32.428  16.297   1.247
62875W        W31249  21.677  26.028   0.284
62876W        W31250  34.503   4.337   4.597
62877W        W31251  44.405   1.458  14.001
62878W        W31252  19.744   9.150  10.639
62879W        W31253  20.766  22.028  11.477
62880W        W31254  31.550  44.793   4.706
62881W        W31255  34.578  11.370  13.027
62882W        W31256  37.059  19.717   4.261
62883W        W31257  33.937  41.813   4.166
62884W        W31258  30.598   8.809   1.708
62885W        W31259   9.292  21.585  12.548
62886W        W31260  31.585  40.883  10.610
62887W        W31261  29.116  34.926   2.755
62888W        W31262  26.474  41.405  10.889
62889W        W31263  41.884   7.720   3.783
62890W        W31264  32.481  25.062   2.822
62891W        W31265  30.530  26.094   1.297
62892W        W31266   3.808   9.857   2.383
62893W        W31267  31.009  21.555  14.916
62894W        W31268  31.612  42.322  14.003
62895W        W31269  27.181  44.342   2.881
62896W        W31270   3.351   5.345  11.375
62897W        W31271   2.856  20.687   0.833
62898W        W31272  44.503  33.984  10.487
62899W        W31273   6.365  31.983  10.071
62900W        W31274  35.017   5.312   3.637
62901W        W31275  11.197  31.929   1.288
62902W        W31276  33.624  28.478   3.671
62903W        W31277  27.595  10.800   4.771
62904W        W31278  11.347  32.008  10.970
62905W        W31279  32.910  30.998   3.812
62906W        W31280  39.374   5.222   2.833
62907W        W31281  19.185  27.518   3.737
62908W        W31282  26.578  31.038  10.502
62909W        W31283   7.366  13.113  10.572
62910W        W31284   2.398  33.100   4.774
62911W        W31285  16.132  15.142  13.987
62912W        W31286  11.625  18.222   2.283
62913W        W31287   2.931  13.620   0.251
62914W        W31288  36.022   6.779   3.708
62915W        W31289  21.047  13.712  10.498
62916W        W31290  35.489  32.908  12.443
62917W        W31291  12.358  43.312   3.802
62918W        W31292  40.310  39.043   1.373
62919W        W31293  29.025  38.975   3.155
62920W        W31294  32.428  27.688  12.021
62921W        W31295  11.731  16.590  12.088
62922W        W31296  13.176   2.864   2.192
62923W        W31297   1.779  24.650   0.854
62924W        W31298  25.045   4.423   0.351
62925W        W31299  20.178  39.480  11.105
62926W        W31300  21.108   4.767   1.926
62927W        W31301  17.248  30.486   5.187
62928W        W31302   8.192  31.974  10.987
62929W        W31303  12.137  41.985   0.481
62930W        W31304  29.928  32.503   4.611
62931W        W31305   3.458  36.499   0.910
62932W        W31306  29.439  28.136   2.698
62933W        W31307  27.477  24.678   4.824
62934W        W31308  11.816  26.684  13.828
62935W        W31309  33.420  36.562  12.940
62936W        W31310  39.495  37.846  14.370
62937W        W31311  40.923  35.928  10.601
62938W        W31312  36.950  35.548  12.974
62939W        W31313  21.084  28.574   4.616
62940W        W31314  27.612   7.367   4.620
62941W        W31315  41.794  18.690  11.922
62942W        W31316  33.560  28.667   0.470
62943W        W31317  30.140   8.288   4.287
62944W        W31318  33.618  12.263  10.901
62945W        W31319  39.513  19.052  12.914
62946W        W31320  24.497   2.876   0.748
62947W        W31321  41.868  40.839   0.310
62948W        W31322  43.000  32.507   0.826
62949W        W31323  12.668  11.337   0.397
62950W        W31324  43.333   7.728   3.662
62951W        W31325  44.433   6.210   3.687
62952W        W31326   4.763  34.971   0.483
62953W        W31327  38.073  23.574  11.094
62954W        W31328  11.712  44.920   2.698
62955W        W31329  10.307  16.119  12.535
62956W        W31330   9.733  14.272   2.198
62957W        W31331  12.798  10.228  11.563
62958W        W31332  41.946   1.281  11.393
62959W        W31333  10.155  41.418  10.949
62960W        W31334  18.068  40.802   3.315
62961W        W31335  38.407   0.493   3.161
62962W        W31336  22.065   0.389   2.754
62963W        W31337  26.170  25.073  13.877
62964W        W31338  27.510   6.748   2.845
62965W        W31339  30.149  12.117   2.347
62966W        W31340  39.819  25.609   2.314
62967W        W31341  22.595  20.642   3.772
62968W        W31342  12.738  26.702  10.932
62969W        W31343  15.088  35.539   4.165
62970W        W31344   5.330  35.022  11.372
62971W        W31345  34.371  12.346  11.030
62972W        W31346  12.124  29.079  13.971
62973W        W31347  40.855  22.714  12.340
62974W        W31348  19.761  24.527   0.420
62975W        W31349   8.382  25.071   3.822
62976W        W31350  13.759  15.255   4.124
62977W        W31351  14.290  25.015  14.808
62978W        W31352  18.705  29.440  12.021
62979W        W31353  10.681  32.464   4.269
62980W        W31354  20.096  12.713   1.292
62981W        W31355  38.828  42.781   4.268
62982W        W31356  35.044   9.368  14.829
62983W        W31357  20.631  13.175   4.197
62984W        W31358   5.262  36.859   2.294
62985W        W31359   5.197  33.046  10.479
62986W        W31360  26.088  43.773   0.431
62987W        W31361  20.046  42.836  10.418
62988W        W31362   4.800  44.422  13.384
62989W        W31363   9.860   2.437  12.373
62990W        W31364  19.596  41.424   3.327
62991W        W31365  30.478  15.605   4.722
62992W        W31366  24.525  16.716  12.958
62993W        W31367  36.878  36.923  13.908
62994W        W31368   4.232  23.672   0.393
62995W        W31369   8.769   6.737   0.918
62996W        W31370  38.378  33.491   2.369
62997W        W31371   1.755   6.206  14.980
62998W        W31372  41.873   9.889  10.409
62999W        W31373  37.442  41.883   1.831
63000W        W31374  10.659  27.471   0.842
63001W        W31375  18.673  23.236  11.941
63002W        W31376  16.767  35.045   4.199
63003W        W31377  37.387  20.267   0.751
63004W        W31378   7.882  18.098  12.862
63005W        W31379   9.841  33.390  12.859
63006W        W31380  30.480  29.053  11.126
63007W        W31381  20.161  21.554   2.693
63008W        W31382  12.238   9.654   1.393
63009W        W31383  15.234   6.345   3.671
63010W        W31384  14.723  44.824   3.331
63011W        W31385  28.495  10.245  11.539
63012W        W31386  24.584  18.182  10.416
63013W        W31387  41.495  27.987  12.091
63014W        W31388  10.193  14.778  11.416
63015W        W31389  14.728   9.318   1.409
63016W        W31390  22.614   6.717  13.983
63017W        W31391  32.632   4.241   3.825
63018W        W31392  14.823  43.883   3.300
63019W        W31393   1.897  40.034   0.340
63020W        W31394  21.570  43.771   3.384
63021W        W31395  16.177  25.558   3.645
63022W        W31396  24.209  36.557   0.319
63023W        W31397  21.075  30.097  12.959
63024W        W31398  17.290  24.669  11.444
63025W        W31399  34.401  40.934   3.192
63026W        W31400  23.583  28.558   1.414
63027W        W31401  24.110  29.958   3.183
63028W        W31402  15.818  20.768  12.022
63029W        W31403  13.194   1.412  10.530
63030W        W31404   8.791  29.655  11.423
63031W        W31405  42.991   9.367   0.286
63032W        W31406   6.767   2.319  11.585
63033W        W31407   0.438  28.022   1.259
63034W        W31408  37.029  20.265  13.876
63035W        W31409  14.305  33.112  11.988
63036W        W31410  20.747  15.597  11.970
63037W        W31411   1.828  37.037   3.687
63038W        W31412  35.108  37.541  10.608
63039W        W31413  16.603  38.990   4.625
63040W        W31414  12.657  30.432   1.361
63041W        W31415   4.807   1.860  10.923
63042W        W31416  42.012  21.580  14.969
63043W        W31417  14.277  35.957  12.848
63044W        W31418   0.370  24.497  12.911
63045W        W31419   0.467  36.478   4.742
63046W        W31420  44.356   3.256  12.453
63047W        W31421  41.831  28.096  12.087
63048W        W31422  31.494   9.265  10.937
63049W        W31423  41.896   2.724   4.680
63050W        W31424  26.197  36.989   2.814
63051W        W31425  39.915  35.061   2.829
63052W        W31426  34.508  34.089  13.932
63053W        W31427   1.825  11.275  13.471
63054W        W31428  28.608  32.888  14.916
63055W        W31429   3.757   8.257   0.944
63056W        W31430  28.454   6.295   1.366
63057W        W31431  32.485  18.064  12.908
63058W        W31432  21.592  40.853  14.394
63059W        W31433  18.269  29.444  14.021
63060W        W31434  28.475  20.714  14.766
63061W        W31435  23.209  41.787   3.864
63062W        W31436  29.532   7.286  13.335
63063W        W31437  42.502  23.624   3.697
63064W        W31438  35.481   1.923  13.826
63065W        W31439   3.741  25.080  11.968
63066W        W31440  24.036  40.942   2.379
63067W        W31441   0.951  25.690  13.424
63068W        W31442  25.502   2.839   4.783
63069W        W31443  30.651  20.727   3.315
63070W        W31444  30.646  25.097  12.374
63071W        W31445  19.116  16.703   3.273
63072W        W31446  26.480  37.492  13.490
63073W        W31447   2.853  28.960  14.343
63074W        W31448   0.420   9.350  12.570
63075W        W31449  25.646   3.322  12.981
63076W        W31450  14.828   8.211  14.487
63077W        W31451   7.382  38.893   1.742
63078W        W31452  17.188  35.415   0.929
63079W        W31453  44.456  41.875  13.355
63080W        W31454  29.071   8.393   3.295
63081W        W31455  28.536   8.888  14.352
63082W        W31456  28.152  42.872   2.728
63083W        W31457  28.186  36.963  13.062
63084W        W31458   5.418  27.610   2.328
63085W        W31459   9.776  40.825  12.955
63086W        W31460  33.504   0.449  10.128
63087W        W31461  22.098  18.209   1.434
63088W        W31462   2.916  14.260   4.638
63089W        W31463  37.465   5.865   0.770
63090W        W31464  34.883  29.939   0.857
63091W        W31465  27.474   0.908   2.718
63092W        W31466   5.202  37.425   1.931
63093W        W31467  23.215  32.542  12.945
63094W        W31468  35.951   9.199   2.322
63095W        W31469   7.267  29.175  10.641
63096W        W31470  35.904  37.981  10.962
63097W        W31471  40.878  38.400   4.673
63098W        W31472  22.227  26.976   0.340
63099W        W31473  20.566  35.443  12.828
63100W        W31474   5.834  32.983  13.400
63101W        W31475  42.416  13.349  12.954
63102W        W31476  39.978  38.437  11.439
63103W        W31477  10.383  31.974  10.133
63104W        W31478   5.369  14.673  10.569
63105W        W31479   5.767   3.376  13.317
63106W        W31480  41.894  14.335   2.731
63107W        W31481   1.758  28.935  12.992
63108W        W31482  10.807  41.851  12.936
63109W        W31483  13.112  21.102   2.364
63110W        W31484  29.046  16.620   3.184
63111W        W31485   1.381  22.638  14.294
63112W        W31486  36.553  33.477  14.411
63113W        W31487  28.440  23.060  14.284
63114W        W31488  43.781  32.424  10.476
63115W        W31489  23.526  30.524  10.921
63116W        W31490  16.227   8.298  10.905
63117W        W31491   0.780  11.646  10.131
63118W        W31492  40.997  29.623   3.698
63119W        W31493  33.976   2.396  11.981
63120W        W31494  35.873  29.167  13.392
63121W        W31495  37.912  31.474   1.220
63122W        W31496   9.327  14.132   4.136
63123W        W31497  32.403  41.415   2.224
63124W        W31498  28.518  21.699   4.614
63125W        W31499  18.276  31.411   2.270
63126W        W31500  22.699  16.733  11.966
63127W        W31501  26.953  22.998   3.316
63128W        W31502  37.996  23.497  14.918
63129W        W31503  35.980  14.300  14.786
63130W        W31504  29.125  26.636  10.135
63131W        W31505   8.229  15.262   0.761
63132W        W31506  24.113   4.315   4.203
63133W        W31507  26.208  40.535   1.430
63134W        W31508  10.286  27.095   0.482
63135W        W31509  30.545  41.520  14.486
63136W        W31510   1.848  15.214   3.198
63137W        W31511  30.603   3.882   0.886
63138W        W31512   6.338   9.161  13.900
63139W        W31513  15.821  12.836   3.220
63140W        W31514  41.348  11.807   2.406
63141W        W31515  13.332   0.858  12.070
63142W        W31516  40.379  14.123   4.260
63143W        W31517   2.408  18.181   4.317
63144W        W31518  10.691  19.600  11.983
63145W        W31519  36.069  44.754  12.850
63146W        W31520  12.621  38.447  10.600
63147W        W31521  29.068   1.476  13.480
63148W        W31522  22.555  14.231   0.877
63149W        W31523   2.964  41.934   3.284
63150W        W31524   1.297  21.144   1.832
63151W        W31525   8.895  24.620  14.959
63152W        W31526  17.079  13.194  13.364
63153W        W31527  33.478  12.790  14.865
63154W        W31528  39.323   0.472  12.381
63155W        W31529   2.848   4.898   2.403
63156W        W31530   1.910  10.721   2.369
63157W        W31531  38.543  26.990  11.909
63158W        W31532  12.654   2.926   2.337
63159W        W31533  23.624  10.194  14.457
63160W        W31534  10.192  39.909   4.248
63161W        W31535  28.995  14.782   2.202
63162W        W31536  19.697  21.094   3.783
63163W        W31537  13.630  21.124   3.851
63164W        W31538   8.870  25.032   2.212
63165W        W31539  31.122  20.659   3.178
63166W        W31540  16.661  43.016  10.989
63167W        W31541  44.493  42.349  13.852
63168W        W31542  16.147   8.699  13.999
63169W        W31543   0.745  28.004  11.415
63170W        W31544  38.474  20.119   2.805
63171W        W31545  36.927   3.359   3.350
63172W        W31546  23.106  18.101  10.479
63173W        W31547  21.757  29.139  11.393
63174W        W31548   8.197   1.428  12.388
63175W        W31549  24.065  43.348   0.292
63176W        W31550  39.938  36.481  13.023
63177W        W31551  37.355  33.381   3.684
63178W        W31552  29.101   6.700   2.741
63179W        W31553  38.961  31.923   5.253
63180W        W31554  37.065  14.268   3.161
63181W        W31555  39.023  25.645   4.237
63182W        W31556   4.785  24.485   5.716
63183W        W31557  29.080  15.091   0.325
63184W        W31558  34.960  24.616   1.737
63185W        W31559  39.838  43.932   4.695
63186W        W31560  19.226  43.384  14.354
63187W        W31561  25.082  33.910  12.031
63188W        W31562   8.835   8.822  13.430
63189W        W31563  11.368  16.168   1.817
63190W        W31564   8.735  15.585   3.331
63191W        W31565  22.597  31.978   5.162
63192W        W31566  15.745  20.582  14.501
63193W        W31567  22.699  39.522   2.245
63194W        W31568  39.965  44.390   2.385
63195W        W31569   6.379   9.313  13.035
63196W        W31570  36.090   0.957  11.031
63197W        W31571  44.899   2.239  11.578
63198W        W31572  25.556   8.860   3.722
63199W        W31573  28.108  40.330   4.599
63200W        W31574  34.578   7.250   3.319
63201W        W31575   6.203  11.247  13.334
63202W        W31576  33.490  10.646   2.832
63203W        W31577  20.271  36.919   1.906
63204W        W31578  37.491  24.135   3.643
63205W        W31579  36.380  22.130   1.427
63206W        W31580  21.611  20.250  11.105
63207W        W31581  22.566  41.795  14.466
63208W        W31582   6.288  14.247   3.194
63209W        W31583  18.176  28.573   2.846
63210W        W31584  42.950  36.094   4.834
63211W        W31585  23.588  19.103   0.268
63212W        W31586  23.580  20.087   1.344
63213W        W31587  34.021   9.305   0.476
63214W        W31588  15.226   3.850   1.441
63215W        W31589  43.273  37.445  10.901
63216W        W31590  41.353  36.015  12.442
63217W        W31591  34.550  13.829  11.504
63218W        W31592  26.607  32.993   2.739
63219W        W31593   3.409  29.091   1.389
63220W        W31594  16.711  32.527  13.926
63221W        W31595  15.189  15.202   3.720
63222W        W31596   3.950   5.906  11.566
63223W        W31597  10.362  18.719   9.565
63224W        W31598  27.956  14.117  14.999
63225W        W31599  41.876  44.477  11.010
63226W        W31600  40.517  31.537  13.023
63227W        W31601  41.536  31.545   3.723
63228W        W31602   7.872   3.905  13.356
63229W        W31603  42.348   1.957  10.939
63230W        W31604  43.810  13.746  13.452
63231W        W31605   7.266  20.741   3.735
63232W        W31606   4.898  12.224  13.420
63233W        W31607   0.864   2.408  13.951
63234W        W31608  17.258  40.019  12.429
63235W        W31609   0.964  17.568   1.362
63236W        W31610  20.238  25.086  14.418
63237W        W31611  30.133   1.762   2.757
63238W        W31612  12.162   6.748   2.252
63239W        W31613  41.323  33.379  14.775
63240W        W31614  35.368  38.330   1.821
63241W        W31615  30.599  33.122  11.586
63242W        W31616  16.206  42.462   0.254
63243W        W31617  27.584  38.909  14.984
63244W        W31618  20.235  42.008   1.918
63245W        W31619   3.876   8.858  14.457
63246W        W31620   8.781  25.113  10.574
63247W        W31621  25.698  42.299  13.962
63248W        W31622  21.067  20.219  14.800
63249W        W31623  19.108  33.585  11.964
63250W        W31624  30.062  12.842  12.358
63251W        W31625  12.796   4.775   0.333
63252W        W31626  20.616  20.647   0.290
63253W        W31627  44.829   1.239  11.055
63254W        W31628  43.908   8.708   1.242
63255W        W31629   9.280   9.653  12.858
63256W        W31630  33.985  23.144   1.775
63257W        W31631   6.257  43.962   0.261
63258W        W31632  21.679  22.028  12.428
63259W        W31633   0.812  38.823  10.486
63260W        W31634   6.866   5.889   4.733
63261W        W31635  34.374  21.525   4.765
63262W        W31636  22.997   9.198   3.672
63263W        W31637   6.369  31.439   2.701
63264W        W31638  26.004  12.134   0.278
63265W        W31639  42.836  43.890   1.293
63266W        W31640  10.766  34.511   4.750
63267W        W31641  14.807  12.840  13.310
63268W        W31642  30.034  28.573  14.456
63269W        W31643  20.135   2.269   1.316
63270W        W31644  37.943  41.832  10.634
63271W        W31645  34.586  32.947  14.398
63272W        W31646  24.017  43.418   2.410
63273W        W31647  42.477  33.471   1.442
63274W        W31648  17.769  10.654   1.332
63275W        W31649  22.577  37.075  13.892
63276W        W31650  28.182  38.957   0.954
63277W        W31651  42.471  35.590   0.385
63278W        W31652   0.461  38.057  10.904
63279W        W31653  30.055  33.067   2.826
63280W        W31654  24.987   7.344  11.463
63281W        W31655  22.182  13.180  14.358
63282W        W31656   4.361  24.075   2.795
63283W        W31657  20.608   5.736  10.614
63284W        W31658  39.046  23.137  14.454
63285W        W31659  39.871   8.721  10.465
63286W        W31660  14.114   7.735   9.947
63287W        W31661  42.836  14.097   2.187
63288W        W31662   3.414  33.596  14.941
63289W        W31663  20.526   3.795  13.473
63290W        W31664  15.630  36.927  12.065
63291W        W31665   8.697  28.506  13.825
63292W        W31666  43.972   6.301  12.041
63293W        W31667  23.641  37.882  13.413
63294W        W31668  17.714  37.477  12.893
63295W        W31669   7.693   8.391  11.087
63296W        W31670   5.255  31.598   3.866
63297W        W31671   4.347  13.347   3.206
63298W        W31672  17.147   0.378  14.829
63299W        W31673  30.966   9.740  14.855
63300W        W31674  27.653  40.443  14.810
63301W        W31675  12.613  18.698  14.987
63302W        W31676  27.172  10.691  13.908
63303W        W31677   6.804  21.188   2.794
63304W        W31678  37.441   8.726   3.658
63305W        W31679   3.731   8.735   4.168
63306W        W31680  22.585  19.072   3.689
63307W        W31681  30.649  28.523  14.288
63308W        W31682  26.559  14.178   1.388
63309W        W31683  38.457  31.141   0.449
63310W        W31684  33.999  20.698  12.001
63311W        W31685  38.984   1.390  12.487
63312W        W31686  14.637   2.280  12.460
63313W        W31687  14.664  43.329   4.130
63314W        W31688  37.085  25.185  12.042
63315W        W31689   6.722  18.187   2.892
63316W        W31690   3.215  41.927  14.971
63317W        W31691  44.978  12.854  11.599
63318W        W31692  15.206  38.952   2.762
63319W        W31693   3.794  40.004  13.030
63320W        W31694  43.949  10.780  14.801
63321W        W31695   8.280  35.382   1.802
63322W        W31696  14.219  35.018   4.159
63323W        W31697   2.280   1.769   3.804
63324W        W31698   4.223  13.193   2.246
63325W        W31699   7.736   3.827  13.860
63326W        W31700  36.841  19.166  14.839
63327W        W31701  32.906   6.792  14.856
63328W        W31702  43.907  35.944  14.276
63329W        W31703   8.812  10.743  13.987
63330W        W31704  44.396  18.275   2.675
63331W        W31705  23.078  28.533  14.459
63332W        W31706  44.923  19.658  12.967
63333W        W31707  40.491   0.372   2.683
63334W        W31708   1.326   5.703  11.960
63335W        W31709   3.429  35.961  13.845
63336W        W31710  21.554   1.975   2.309
63337W        W31711  19.141  25.007  14.323
63338W        W31712  25.193  41.841  11.931
63339W        W31713  17.786   7.858  12.955
63340W        W31714  42.933   8.231  10.560
63341W        W31715  30.970  13.171   2.720
63342W        W31716   8.373  19.206   0.357
63343W        W31717  19.187  17.114   2.306
63344W        W31718  16.613  43.360  13.935
63345W        W31719  13.247  13.710  13.859
63346W        W31720  26.515  26.171   4.339
63347W        W31721  22.118  10.647  13.446
63348W        W31722  36.853  13.110  11.493
63349W        W31723  44.378  12.319   2.243
63350W        W31724  20.246  19.673   5.262
63351W        W31725  18.670  28.592   2.756
63352W        W31726  27.176   5.898  14.492
63353W        W31727   4.932  35.863   2.310
63354W        W31728  30.542  21.062  10.517
63355W        W31729  13.303  20.073   3.716
63356W        W31730  44.402  32.618   1.281
63357W        W31731   8.375  33.083   4.834
63358W        W31732  42.291  44.007   0.764
63359W        W31733   3.434  34.382  13.804
63360W        W31734  14.147  29.009   0.278
63361W        W31735  38.060  40.540   2.901
63362W        W31736   3.252   8.297  13.972
63363W        W31737  30.114   1.372   2.852
63364W        W31738  41.524  16.672  14.464
63365W        W31739  22.239  10.299   4.780
63366W        W31740  29.519  17.599  13.983
63367W        W31741  36.852  15.593  11.562
63368W        W31742  40.418   6.427   3.826
63369W        W31743  19.229  25.489  13.828
63370W        W31744  29.536  11.841   2.673
63371W        W31745   1.248  40.942   2.869
63372W        W31746  38.390   5.720   0.754
63373W        W31747  18.565   7.221  11.585
63374W        W31748  19.129  30.507  13.403
63375W        W31749  18.586  23.099  14.511
63376W        W31750  21.204  14.294   1.698
63377W        W31751  20.239   1.854   1.832
63378W        W31752  41.003  23.572  12.852
63379W        W31753  24.015  36.421   3.739
63380W        W31754  23.129   9.855  13.463
63381W        W31755  24.212  24.666   2.735
63382W        W31756  39.515   3.391   1.342
63383W        W31757  41.447  40.824   0.337
63384W        W31758   7.220  22.106   2.895
63385W        W31759  40.384  16.688   0.937
63386W        W31760  26.160  32.026  14.864
63387W        W31761  29.563  18.110  13.970
63388W        W31762  28.957  42.830   4.614
63389W        W31763  25.660  43.987  14.904
63390W        W31764  20.645   8.667  11.960
63391W        W31765  33.009  44.816  12.420
63392W        W31766  35.394  19.706  14.784
63393W        W31767   8.831  31.041  14.467
63394W        W31768   9.161   8.897  14.339
63395W        W31769  41.881  44.377   1.928
63396W        W31770   4.284   4.883   1.300
63397W        W31771   5.302   7.754   2.898
63398W        W31772  44.850  11.655  13.395
63399W        W31773   4.829  13.790   3.314
63400W        W31774  17.633  24.159  13.850
63401W        W31775  20.747   7.794   1.756
63402W        W31776  10.175  14.338  10.933
63403W        W31777  23.155  10.789   0.924
63404W        W31778  44.380   7.874   4.749
63405W        W31779   8.275  40.943   0.790
63406W        W31780  22.075  24.520   3.795
63407W        W31781  18.780  41.803   1.261
63408W        W31782  29.616   2.862  12.490
63409W        W31783  23.701  23.709  12.915
63410W        W31784  34.426  28.562   4.231
63411W        W31785  24.691  20.085  10.973
63412W        W31786  42.815  28.938   1.867
63413W        W31787  33.468   6.792  11.045
63414W        W31788  42.913  44.993   1.741
63415W        W31789   4.860  26.965   4.300
63416W        W31790  24.167   2.367  14.902
63417W        W31791  37.429  36.984   2.888
63418W        W31792  20.695  28.006  12.976
63419W        W31793  17.564  12.157   1.711
63420W        W31794  28.659  15.763   0.436
63421W        W31795  10.859  42.314  12.025
63422W        W31796  33.460   6.845   4.764
63423W        W31797   1.755  36.372   1.268
63424W        W31798  44.895  36.974   0.372
63425W        W31799  25.609  41.417   1.364
63426W        W31800   3.838  35.034   2.250
63427W        W31801   3.896  43.511  11.994
63428W        W31802   6.218   4.332  11.483
63429W        W31803  35.571  23.613   4.738
63430W        W31804  30.946   4.256  11.020
63431W        W31805  31.948  37.392  13.037
63432W        W31806  25.489  14.789  13.526
63433W        W31807  25.980  35.585   1.864
63434W        W31808  19.182  43.874  11.402
63435W        W31809  18.237  21.636  13.417
63436W        W31810  37.496  20.532   3.227
63437W        W31811  10.762  15.695  13.337
63438W        W31812  14.824  24.577   4.751
63439W        W31813   7.381  32.994  12.914
63440W        W31814  22.088  26.135   4.305
63441W        W31815  40.535  16.720  13.507
63442W        W31816  11.147  43.324   0.942
63443W        W31817  15.690  32.953   1.730
63444W        W31818  40.421  35.094   2.364
63445W        W31819   3.905  40.428  11.092
63446W        W31820  10.200  42.500  10.971
63447W        W31821  10.649  15.673  10.985
63448W        W31822  26.511  35.393  13.431
63449W        W31823  21.115  29.071  10.429
63450W        W31824  22.127  14.216  12.387
63451W        W31825  10.269  15.702   2.901
63452W        W31826  34.549  43.323  11.005
63453W        W31827  36.418  39.315   1.348
63454W        W31828   6.411  19.708  14.989
63455W        W31829  16.799   4.426   0.819
63456W        W31830  24.008  24.496   1.875
63457W        W31831  14.222  40.309  14.919
63458W        W31832  13.330  11.754   4.186
63459W        W31833  10.228   7.754   0.843
63460W        W31834  15.630  18.139  10.543
63461W        W31835   5.899  33.121  14.771
63462W        W31836  44.876  17.784   1.384
63463W        W31837  39.950   1.874   3.348
63464W        W31838  44.863   2.940  13.388
63465W        W31839  10.267   2.746   3.164
63466W        W31840  29.014  30.908   0.382
63467W        W31841  14.145  21.589  12.504
63468W        W31842  18.207  41.800   2.864
63469W        W31843  43.934   7.741   4.133
63470W        W31844  37.874  10.329   0.878
63471W        W31845   2.813  18.592  13.049
63472W        W31846  33.899  34.546   4.750
63473W        W31847  40.859  39.850  10.897
63474W        W31848   8.321  21.249  10.414
63475W        W31849  27.634  23.997  14.479
63476W        W31850  15.650  41.304   3.713
63477W        W31851   5.856   9.795  10.550
63478W        W31852  24.076  21.118   3.842
63479W        W31853  44.856  15.206  14.370
63480W        W31854  44.814  42.400  10.905
63481W        W31855   2.285  38.422   2.809
63482W        W31856  16.659   7.412  14.836
63483W        W31857  10.147   8.403   3.821
63484W        W31858  25.019  31.547  11.435
63485W        W31859  34.867   8.691   2.836
63486W        W31860  14.717   0.818   1.929
63487W        W31861  25.535  30.611   9.547
63488W        W31862  32.459  24.511   1.428
63489W        W31863   2.882  19.071  11.975
63490W        W31864  10.311   1.414  11.416
63491W        W31865   2.816  33.108   4.764
63492W        W31866   0.941  15.745   1.234
63493W        W31867  36.588  15.783  12.088
63494W        W31868  17.796  20.729  12.089
63495W        W31869   5.316   4.402   4.315
63496W        W31870  28.081  29.579  12.918
63497W        W31871  19.062  12.346   2.202
63498W        W31872  42.299  21.514  11.105
63499W        W31873   0.350  32.075   2.416
63500W        W31874   0.283  35.561  12.474
63501W        W31875  26.499  16.142   2.399
63502W        W31876   1.277   8.677   4.709
63503W        W31877  20.626  38.950   5.173
63504W        W31878  44.332  14.736   0.427
63505W        W31879  27.640  28.999  14.446
63506W        W31880  42.857  37.342  13.933
63507W        W31881  10.727  20.747   0.373
63508W        W31882  37.885  22.150   0.270
63509W        W31883  40.981  39.524   1.273
63510W        W31884  28.610   8.339  14.325
63511W        W31885  11.262   1.856   4.750
63512W        W31886  38.430   1.813   1.917
63513W        W31887  20.526   3.328   3.814
63514W        W31888  31.035  12.816   1.930
63515W        W31889  15.800  31.575  12.556
63516W        W31890  18.602  21.065   0.863
63517W        W31891  22.141   0.477  12.979
63518W        W31892  43.835  41.895   1.701
63519W        W31893  33.567  36.846   2.413
63520W        W31894   5.699  34.864  12.056
63521W        W31895   1.881   7.256  10.408
63522W        W31896  18.652  30.500   3.187
63523W        W31897  32.016  11.769  12.423
63524W        W31898  30.087  41.400   1.400
63525W        W31899   9.710   6.224   4.626
63526W        W31900   1.874  28.175  14.864
63527W        W31901  26.606  11.369   4.225
63528W        W31902  24.563  36.925  11.544
63529W        W31903  28.023  30.648  11.461
63530W        W31904  33.913  23.710   0.306
63531W        W31905  39.831  14.830  14.944
63532W        W31906   7.900  30.063  12.368
63533W        W31907  24.542  22.142  10.993
63534W        W31908  20.708  21.188  11.099
63535W        W31909  24.200  30.449  11.047
63536W        W31910   6.400  21.550   4.709
63537W        W31911  38.430  23.204   3.223
63538W        W31912  39.435  15.117  14.507
63539W        W31913  31.924  15.105   9.968
63540W        W31914  35.396  42.518  10.413
63541W        W31915  30.982  20.534   1.313
63542W        W31916  15.642  17.250   0.433
63543W        W31917  14.686  38.862   4.327
63544W        W31918  43.968   1.909  13.514
63545W        W31919  12.726  20.733   2.762
63546W        W31920  11.726  34.011  11.940
63547W        W31921   1.863  18.711   4.208
63548W        W31922   4.333  31.435  14.357
63549W        W31923  39.874  12.140   2.676
63550W        W31924  28.970  33.515   3.716
63551W        W31925   6.771   9.374  14.414
63552W        W31926  17.580  40.469  11.436
63553W        W31927  16.109  43.770   3.159
63554W        W31928  25.699  31.448  10.529
63555W        W31929  32.109   9.149   0.869
63556W        W31930  27.645  35.898   3.837
63557W        W31931  18.266  35.994  12.036
63558W        W31932  35.056  36.478  14.506
63559W        W31933  43.497  44.320  14.927
63560W        W31934  19.112  19.571   3.267
63561W        W31935  29.462   8.363   3.715
63562W        W31936  32.420   1.958   3.685
63563W        W31937   7.363  41.801  11.610
63564W        W31938  18.187  42.327   2.270
63565W        W31939  43.957   9.816  13.407
63566W        W31940  23.992   0.742  13.948
63567W        W31941  44.473  11.234  13.334
63568W        W31942  42.909  24.077  13.362
63569W        W31943  15.801  10.872   3.694
63570W        W31944  32.545  10.176  11.972
63571W        W31945  24.196   2.881  12.983
63572W        W31946  29.584  25.986  11.924
63573W        W31947  36.568  34.996  14.409
63574W        W31948   8.340  20.215  10.024
63575W        W31949  20.175  11.242   2.902
63576W        W31950  31.053  34.400  13.909
63577W        W31951  29.064  24.127   1.387
63578W        W31952  43.839  42.485  12.896
63579W        W31953  24.650  19.780   0.430
63580W        W31954  40.010  11.240   2.320
63581W        W31955  25.064   8.190  14.451
63582W        W31956  36.082  40.397   3.757
63583W        W31957  40.495  44.962   3.199
63584W        W31958  26.547  26.144   2.180
63585W        W31959   4.235  38.008  13.850
63586W        W31960  27.672  30.014   2.335
63587W        W31961  43.317  30.480   3.155
63588W        W31962  13.185   9.770   0.953
63589W        W31963  31.438  27.974   4.238
63590W        W31964  31.937   7.329   2.383
63591W        W31965   4.718  31.964  10.546
63592W        W31966  20.694   0.984   3.722
63593W        W31967  25.602  41.965   2.723
63594W        W31968   6.722  17.791   1.707
63595W        W31969  27.947  43.971   5.268
63596W        W31970  24.550   2.956  12.503
63597W        W31971  12.355  40.835   1.336
63598W        W31972   4.380  33.570  13.001
63599W        W31973  35.910  42.419   1.431
63600W        W31974  20.029   6.250   3.235
63601W        W31975  16.254   0.371  14.484
63602W        W31976   5.865  33.954   1.432
63603W        W31977  24.095  35.579   1.800
63604W        W31978  44.879  30.962  14.780
63605W        W31979  37.944  20.683   0.877
63606W        W31980  11.206  38.967  10.991
63607W        W31981  33.392  12.846   4.331
63608W        W31982  11.731  38.057   2.309
63609W        W31983  23.233  16.185   4.771
63610W        W31984  14.330   0.797   2.231
63611W        W31985  14.132  44.459   0.272
63612W        W31986  34.036  19.684   4.329
63613W        W31987  29.657  32.048   4.813
63614W        W31988   0.433   5.287   2.238
63615W        W31989  10.833   6.860   4.303
63616W        W31990  41.805  15.594   2.753
63617W        W31991   6.869  14.739  12.981
63618W        W31992  32.065   3.944  12.396
63619W        W31993  40.824  28.970   3.718
63620W        W31994  30.526  16.121  10.950
63621W        W31995  38.568  27.665   2.384
63622W        W31996   6.767   9.230  13.998
63623W        W31997   5.365   3.770  10.437
63624W        W31998   8.236   7.363   4.711
63625W        W31999  39.333  13.315  10.975
63626W        W32000  12.164  15.196   3.286
63627W        W32001  24.559  38.962   4.808
63628W        W32002   9.173  20.759   1.881
63629W        W32003   5.708  42.785   2.378
63630W        W32004  44.008  36.436  14.308
63631W        W32005  37.392  18.734  10.889
63632W        W32006   9.261  22.996  12.416
63633W        W32007  14.164  17.668   0.900
63634W        W32008  26.486  37.445  12.071
63635W        W32009  30.009  35.989  10.519
63636W        W32010  17.274  37.514  12.350
63637W        W32011  44.929  44.957   0.323
63638W        W32012   9.882  36.364   0.451
63639W        W32013   7.704   6.750  14.776
63640W        W32014  26.633  33.424  14.384
63641W        W32015  38.835  17.599  11.611
63642W        W32016  41.914   9.856   0.460
63643W        W32017  10.733  19.074  13.487
63644W        W32018  18.595   5.687  14.966
63645W        W32019  19.108  24.114   4.299
63646W        W32020  19.043  38.370   4.133
63647W        W32021   9.756  43.881   3.696
63648W        W32022  39.375  28.054   4.622
63649W        W32023  36.978  24.224   4.227
63650W        W32024  26.608  36.562  13.955
63651W        W32025  34.609  37.367  13.854
63652W        W32026  19.740   1.386   2.701
63653W        W32027   8.851  37.044  11.570
63654W        W32028  13.733  21.029   0.879
63655W        W32029   3.753  37.911  13.969
63656W        W32030  22.544   4.281  14.299
63657W        W32031  29.964  16.151  11.054
63658W        W32032  13.832  35.378  13.839
63659W        W32033  27.449  22.099  11.017
63660W        W32034  30.657  26.971   4.184
63661W        W32035  17.062  10.209  13.058
63662W        W32036  17.138  13.184  12.825
63663W        W32037  24.552  19.775  13.832
63664W        W32038   4.800  36.396   2.896
63665W        W32039  20.101   7.803   0.353
63666W        W32040  25.110  42.296   1.924
63667W        W32041  28.605  27.535   3.240
63668W        W32042  35.464  38.833   1.698
63669W        W32043  28.155  35.066  13.309
63670W        W32044  17.675  43.463  13.344
63671W        W32045   8.210  31.641   0.471
63672W        W32046  25.599   7.187  12.073
63673W        W32047   9.355  31.566  14.353
63674W        W32048   7.809  11.368   3.160
63675W        W32049  28.674   8.186  10.973
63676W        W32050   1.879   6.839  13.368
63677W        W32051  13.274  16.604  13.417
63678W        W32052  20.208  28.673  11.967
63679W        W32053  18.109  43.815   1.223
63680W        W32054   0.311  11.260   2.785
63681W        W32055  30.015  24.122  10.571
63682W        W32056  20.533   8.206   3.320
63683W        W32057  26.144  27.497   2.835
63684W        W32058  28.963  42.424   0.768
63685W        W32059  37.492  26.035  13.390
63686W        W32060  41.985  37.057  11.903
63687W        W32061  43.284  44.806   1.292
63688W        W32062  34.884  39.317   2.675
63689W        W32063  39.410  35.571  11.547
63690W        W32064  24.091  38.511  13.526
63691W        W32065  35.089  22.083   4.204
63692W        W32066  18.296  18.093   3.831
63693W        W32067  35.067  39.398  13.010
63694W        W32068  21.718  17.695   1.917
63695W        W32069   9.787  40.826  14.423
63696W        W32070  27.098  32.490  13.425
63697W        W32071  20.230  24.002  11.418
63698W        W32072  15.211  12.217   4.164
63699W        W32073  34.903  25.081  10.522
63700W        W32074   8.806  29.137   5.218
63701W        W32075  32.585  22.234  12.096
63702W        W32076   2.448  25.171  13.493
63703W        W32077  38.498  28.475  14.888
63704W        W32078  39.444  13.253   3.149
63705W        W32079  17.111  41.028   3.774
63706W        W32080  28.437   6.310   3.180
63707W        W32081   0.878  19.646  10.602
63708W        W32082   8.697  36.347   1.356
63709W        W32083   6.920  28.466  12.855
63710W        W32084  24.031  42.854   1.838
63711W        W32085  19.685  43.854  11.886
63712W        W32086  38.933  26.522  14.476
63713W        W32087  41.484  43.392  10.642
63714W        W32088   8.795  30.468   5.757
63715W        W32089   6.798  29.947   4.667
63716W        W32090  39.433   8.205  12.544
63717W        W32091  28.499  21.098  12.518
63718W        W32092  33.879  44.458  11.969
63719W        W32093  12.849  14.152  10.622
63720W        W32094  43.813   3.931  10.994
63721W        W32095  30.498  25.630  10.503
63722W        W32096  16.624  18.751  14.276
63723W        W32097  24.181  11.276  12.449
63724W        W32098  22.728  21.587  12.491
63725W        W32099   6.766   1.896   0.401
63726W        W32100  31.046   7.699   0.345
63727W        W32101   8.368   2.286  10.526
63728W        W32102  37.063  31.024  13.446
63729W        W32103   0.297  30.569   0.782
63730W        W32104  32.537  30.480  13.030
63731W        W32105  12.168  26.057  12.917
63732W        W32106  24.164   9.347   1.795
63733W        W32107  33.521  26.580   0.962
63734W        W32108  37.543   2.801   1.813
63735W        W32109  44.262   3.422  10.913
63736W        W32110  17.062  17.139  12.047
63737W        W32111  41.998  17.564  13.019
63738W        W32112  17.240   4.813  10.425
63739W        W32113  29.980   8.818  11.894
63740W        W32114  14.225  40.497  10.497
63741W        W32115  32.503  41.951  14.001
63742W        W32116  21.758  12.201   3.648
63743W        W32117  24.084   6.354  13.795
63744W        W32118  22.690  37.464  10.059
63745W        W32119  23.531  31.566   2.232
63746W        W32120  16.079  16.183   3.302
63747W        W32121  11.257  31.935   4.161
63748W        W32122  13.136  13.652  13.347
63749W        W32123  41.299  41.898   2.876
63750W        W32124  15.221  38.839   4.662
63751W        W32125  44.873  36.364   3.714
63752W        W32126  34.990  22.556  14.498
63753W        W32127   9.347  25.032  11.931
63754W        W32128   8.256   3.948   3.205
63755W        W32129  18.237   9.706  11.521
63756W        W32130  34.926  34.522   1.716
63757W        W32131  33.029  37.350   4.136
63758W        W32132   7.254   3.409   4.776
63759W        W32133  34.424  31.049   4.352
63760W        W32134  16.718  26.466   3.358
63761W        W32135   6.394  38.857   4.701
63762W        W32136  40.370  10.775  13.945
63763W        W32137  29.457  11.757  10.076
63764W        W32138   2.428  44.006  13.995
63765W        W32139  42.428   3.735   3.195
63766W        W32140   0.933  18.120  10.963
63767W        W32141  35.979   8.691   2.307
63768W        W32142   4.880   4.402  13.791
63769W        W32143  11.652  37.399   1.791
63770W        W32144  18.273  43.409  10.999
63771W        W32145  31.494  36.586  13.960
63772W        W32146   5.707   5.728   0.942
63773W        W32147  20.232  20.164   1.749
63774W        W32148  12.766  13.143   0.466
63775W        W32149  29.426  13.834  11.373
63776W        W32150  32.128  34.946   2.324
63777W        W32151  15.157  38.357   4.307
63778W        W32152   9.295  19.637  13.360
63779W        W32153  28.502  21.519  14.413
63780W        W32154  11.749  18.693  12.355
63781W        W32155  36.577  39.455  14.007
63782W        W32156  17.745  39.998  10.964
63783W        W32157  24.583  14.330   2.856
63784W        W32158   2.278  39.038  13.906
63785W        W32159  24.109  15.234  11.962
63786W        W32160  31.967   7.707   1.374
63787W        W32161   0.753  19.768  13.049
63788W        W32162  42.786   0.865   2.224
63789W        W32163  28.598  39.514   1.848
63790W        W32164  28.151  13.305   1.847
63791W        W32165   3.223  35.980   0.347
63792W        W32166  23.603  15.099   3.331
63793W        W32167   1.864   1.298  14.280
63794W        W32168   6.848  20.578  12.012
63795W        W32169   9.796  38.905  10.643
63796W        W32170  39.336  19.157  14.384
63797W        W32171  43.469  11.318  13.431
63798W        W32172  18.664  11.268   0.836
63799W        W32173  26.539  38.438  14.440
63800W        W32174  36.347  24.191  10.573
63801W        W32175  28.126  24.218  13.473
63802W        W32176   5.720  34.506  12.944
63803W        W32177  38.832  13.279  13.342
63804W        W32178  24.119  19.255  14.383
63805W        W32179  15.159  28.545   3.253
63806W        W32180  14.177  18.202   4.828
63807W        W32181  33.428   8.776   5.089
63808W        W32182   5.710   5.194   3.812
63809W        W32183  40.326  29.435   2.303
63810W        W32184  21.168  35.877   9.964
63811W        W32185  25.585   3.255  12.580
63812W        W32186   6.280  29.969   4.751
63813W        W32187   5.930   3.237  11.574
63814W        W32188  29.455  22.745   2.280
63815W        W32189  36.492  13.216   2.760
63816W        W32190  25.560  26.075  13.427
63817W        W32191   1.304  11.163   2.710
63818W        W32192  12.837  12.357  14.963
63819W        W32193   3.733  31.071  11.886
63820W        W32194   6.798  14.724   1.869
63821W        W32195  18.786  10.656   3.361
63822W        W32196   3.939   0.781  14.893
63823W        W32197  24.641  15.317  14.300
63824W        W32198   0.473  11.694   4.188
63825W        W32199  30.610  34.594  14.293
63826W        W32200  35.380   8.260   4.777
63827W        W32201   6.366  31.428  11.415
63828W        W32202   8.791  28.970  11.999
63829W        W32203  37.999   4.308  10.618
63830W        W32204  35.546  28.009   0.797
63831W        W32205  24.604  24.064   3.823
63832W        W32206  31.522  21.619   4.213
63833W        W32207   4.412  26.201  11.540
63834W        W32208  12.225   8.797  14.996
63835W        W32209  42.354   7.875   2.889
63836W        W32210  37.957  22.157  13.980
63837W        W32211  41.527  41.449   0.441
63838W        W32212  10.312  29.546   5.204
63839W        W32213   4.944   6.301   4.699
63840W        W32214   8.780  12.284  10.608
63841W        W32215  20.683  39.327  14.897
63842W        W32216  10.781  18.758   0.801
63843W        W32217  19.275  36.091  11.106
63844W        W32218   4.865  27.079  11.984
63845W        W32219  14.150   9.736   2.228
63846W        W32220   3.762  27.086  14.759
63847W        W32221   5.911   8.243   4.789
63848W        W32222  12.294  21.195  10.910
63849W        W32223  37.893  12.304  13.791
63850W        W32224   1.483  44.842  11.943
63851W        W32225  32.568  12.277  12.492
63852W        W32226   8.763  18.068   1.768
63853W        W32227  27.180  14.219  11.530
63854W        W32228  42.821   2.726  14.852
63855W        W32229  35.051  33.428  11.010
63856W        W32230  37.003  39.924  12.513
63857W        W32231  21.640  18.247   1.410
63858W        W32232  37.541  39.981  11.427
63859W        W32233  19.720  43.943  11.520
63860W        W32234   2.265  25.618  14.348
63861W        W32235  17.665   8.176  11.002
63862W        W32236  35.900  30.096  12.957
63863W        W32237  40.390   7.297  13.933
63864W        W32238  19.718  43.018   2.837
63865W        W32239  37.521  43.487   4.164
63866W        W32240  10.685  19.651   4.154
63867W        W32241   1.868  20.642  11.057
63868W        W32242   0.268  12.338   3.199
63869W        W32243  18.052  30.638   2.732
63870W        W32244  38.073   9.700   2.872
63871W        W32245  42.834  20.043  13.370
63872W        W32246  10.746  10.852   3.314
63873W        W32247  18.757  30.643  10.404
63874W        W32248  40.998  23.585   4.228
63875W        W32249   3.869  10.820  12.854
63876W        W32250   2.317  12.176  10.966
63877W        W32251  17.127  36.383   2.666
63878W        W32252   9.346  13.253  14.011
63879W        W32253  38.963  42.383  11.554
63880W        W32254  36.959  28.127   1.392
63881W        W32255  17.674  38.920  14.961
63882W        W32256  37.071  14.104  11.089
63883W        W32257  15.665   9.855  12.956
63884W        W32258   5.422  16.150   2.350
63885W        W32259  26.508  24.989   2.662
63886W        W32260  32.003  14.227   0.291
63887W        W32261  37.905  44.897  13.314
63888W        W32262  29.618  36.892   4.706
63889W        W32263   3.246   7.836  14.912
63890W        W32264  26.035  29.476   0.816
63891W        W32265   0.432   8.299   4.316
63892W        W32266  33.574  29.122  10.106
63893W        W32267  38.061   8.859  12.353
63894W        W32268  29.650   4.801  10.451
63895W        W32269   4.286   2.922  14.762
63896W        W32270  24.679  24.070   2.288
63897W        W32271  26.606  15.205  14.364
63898W        W32272  43.336   9.371   3.294
63899W        W32273  28.052  41.923  13.331
63900W        W32274  30.494  11.693   0.893
63901W        W32275   2.465  33.436  10.128
63902W        W32276  41.322  28.045  11.534
63903W        W32277   4.925  32.493   0.290
63904W        W32278  21.604  43.338   3.306
63905W        W32279  43.502  35.377   4.787
63906W        W32280  26.127  27.451  13.324
63907W        W32281  37.867  25.151   3.657
63908W        W32282   6.908   8.787   3.868
63909W        W32283  26.620  21.094   4.715
63910W        W32284  21.648  39.379   3.312
63911W        W32285   6.284  33.602  12.352
63912W        W32286  23.534  29.534  13.052
63913W        W32287  20.162  37.969   5.247
63914W        W32288  28.111   5.230   1.446
63915W        W32289  30.510  10.849   2.392
63916W        W32290   7.333   0.315  13.805
63917W        W32291  39.822   2.236  11.381
63918W        W32292  24.712   4.338   2.277
63919W        W32293   8.334   4.362   0.430
63920W        W32294  25.135   2.822   1.834
63921W        W32295  41.017  31.625   3.304
63922W        W32296  41.314   1.450   4.144
63923W        W32297  39.899  43.512   2.330
63924W        W32298  44.331   6.734  11.939
63925W        W32299  34.116  11.759   0.303
63926W        W32300  15.700  40.465  14.516
63927W        W32301  20.765  26.957   2.415
63928W        W32302  11.254  36.940  13.798
63929W        W32303   6.266  38.851   1.387
63930W        W32304  25.510  34.418   0.387
63931W        W32305  13.757  23.023   1.714
63932W        W32306  38.872  14.305   1.905
63933W        W32307  30.054  36.378  13.031
63934W        W32308  19.747  25.170  10.643
63935W        W32309  14.608  15.208   0.952
63936W        W32310  42.937  30.912  10.919
63937W        W32311  35.986  37.909   1.924
63938W        W32312  24.480  23.716   1.751
63939W        W32313  34.437  13.168  10.455
63940W        W32314  19.210  10.344   2.673
63941W        W32315  19.636  23.520   1.219
63942W        W32316   3.886  24.994   0.281
63943W        W32317   1.745  18.250   1.829
63944W        W32318  15.299  36.073   1.708
63945W        W32319   8.784  24.079  12.547
63946W        W32320  28.048  43.833  11.105
63947W        W32321  41.863  21.649  10.976
63948W        W32322  34.566   9.217   4.705
63949W        W32323  41.469  16.696   4.779
63950W        W32324  12.740  43.453   3.203
63951W        W32325   4.851  36.047   0.880
63952W        W32326  33.112  37.357  11.996
63953W        W32327   2.283   2.898  14.321
63954W        W32328  43.287   7.883  12.479
63955W        W32329   0.336   3.248   4.703
63956W        W32330  12.635  26.591   4.311
63957W        W32331  11.814  20.064  10.513
63958W        W32332  19.745  22.075   1.929
63959W        W32333  19.627   7.888  11.104
63960W        W32334  30.613  20.753  14.451
63961W        W32335  33.475   3.762   4.818
63962W        W32336  30.482  19.675  14.403
63963W        W32337  17.668  39.332   4.299
63964W        W32338  36.018   2.894   2.851
63965W        W32339  12.688  35.408  11.572
63966W        W32340  26.151  14.832  12.968
63967W        W32341  44.788  27.669   4.695
63968W        W32342   4.732  41.519  13.861
63969W        W32343   7.307   8.349  12.488
63970W        W32344  39.370  35.565   4.631
63971W        W32345  43.923  19.093   2.226
63972W        W32346  11.841  44.285  13.437
63973W        W32347   7.375  19.224   2.208
63974W        W32348  43.401  13.112  12.898
63975W        W32349  41.923  23.587   2.681
63976W        W32350  39.331  31.505  12.939
63977W        W32351   0.763  33.419  12.572
63978W        W32352  12.637  36.952   3.235
63979W        W32353  23.686   8.360  11.412
63980W        W32354  41.486  44.360  11.081
63981W        W32355  34.493  10.651   3.196
63982W        W32356  24.137   6.187  10.930
63983W        W32357  29.524   1.976  10.405
63984W        W32358   4.374   3.891  12.493
63985W        W32359  25.481   2.746  10.514
63986W        W32360  24.527  35.013   0.906
63987W        W32361  14.174  33.081   3.381
63988W        W32362  24.987  40.356   3.319
63989W        W32363  20.705  26.983  11.380
63990W        W32364  42.336  32.482   1.828
63991W        W32365  35.029  11.326  11.114
63992W        W32366  23.122  18.548  11.012
63993W        W32367  43.770  31.448   3.827
63994W        W32368  22.550  15.306  12.347
63995W        W32369   7.350   1.756   4.638
63996W        W32370   0.971   1.338   4.806
63997W        W32371  21.718  44.479   2.267
63998W        W32372  42.929  30.647   2.185
63999W        W32373  44.819   3.720  13.485
64000W        W32374  13.779  27.942  10.553
64001W        W32375   7.748   1.842  14.959
64002W        W32376  10.326  40.920   1.884
64003W        W32377  13.344  31.436   3.255
64004W        W32378  23.108   1.862   0.837
64005W        W32379  17.287  33.551   3.299
64006W        W32380  33.885  19.261   4.710
64007W        W32381  29.543  37.497  13.917
64008W        W32382  28.966  28.966   1.227
64009W        W32383  40.988  23.087   1.310
64010W        W32384  27.969  17.196   0.740
64011W        W32385  35.383  32.915  11.898
64012W        W32386   7.414  25.117   0.478
64013W        W32387   7.879  35.403  11.459
64014W        W32388  15.107  38.962   0.252
64015W        W32389  40.523  37.346  13.056
64016W        W32390   4.304  35.529   0.276
64017W        W32391  37.439  13.684  10.525
64018W        W32392  16.597  20.259   2.216
64019W        W32393   1.421  22.222   2.901
64020W        W32394   9.391   6.219  13.339
64021W        W32395  15.175  15.191  10.525
64022W        W32396   2.325  13.246   4.722
64023W        W32397  20.581  14.747   4.255
64024W        W32398  32.072   9.277  11.980
64025W        W32399  43.010  28.485  10.953
64026W        W32400  40.941   8.338  14.325
64027W        W32401   9.204  41.407  13.872
64028W        W32402   9.842  10.201  12.424
64029W        W32403  36.498   6.187   1.705
64030W        W32404  36.042  33.507  14.870
64031W        W32405  17.189  39.558   3.842
64032W        W32406  27.106   2.833   1.894
64033W        W32407  21.081  43.972   1.229
64034W        W32408   3.767  42.399  11.449
64035W        W32409  39.815   8.772  12.835
64036W        W32410  31.992  20.196   1.903
64037W        W32411   0.857  16.651   2.771
64038W        W32412  36.396  27.508  11.911
64039W        W32413  15.753  20.100   4.822
64040W        W32414   2.783   4.889   4.350
64041W        W32415   5.699  37.442   1.357
64042W        W32416  43.982  44.293   1.805
64043W        W32417  41.812   7.825  11.533
64044W        W32418   7.903  33.120  12.049
64045W        W32419  37.896  39.039   2.730
64046W        W32420  28.108  11.675  11.452
64047W        W32421   0.258  37.053  11.987
64048W        W32422   2.414  14.127   2.243
64049W        W32423  24.624  39.483  11.608
64050W        W32424   7.353  20.757  11.378
64051W        W32425  25.041   3.244   2.709
64052W        W32426   8.721   9.263  14.510
64053W        W32427  23.722   1.886   0.457
64054W        W32428  12.722  42.308   0.372
64055W        W32429   9.329  10.793  12.861
64056W        W32430  17.284  17.632  13.307
64057W        W32431  27.951  22.140   1.784
64058W        W32432   5.298  32.008  12.055
64059W        W32433  17.180  44.333   1.387
64060W        W32434   6.909   1.875   1.828
64061W        W32435  36.549  42.510  11.613
64062W        W32436   9.226  33.590  10.051
64063W        W32437  42.403  19.588  10.966
64064W        W32438  21.189  21.259  12.060
64065W        W32439   7.326  20.562  14.309
64066W        W32440   3.716  24.050  11.569
64067W        W32441  38.506   5.300  14.013
64068W        W32442  44.429  17.154  13.395
64069W        W32443  11.688  42.495   1.896
64070W        W32444  19.611  44.920   4.760
64071W        W32445  40.487  38.461  10.983
64072W        W32446  11.810  24.199   3.261
64073W        W32447  41.378  35.370   3.805
64074W        W32448  13.680   2.900   4.707
64075W        W32449   7.307  28.443   9.504
64076W        W32450  35.577   6.275  11.871
64077W        W32451  21.720   1.821   5.207
64078W        W32452   8.363  16.281  11.553
64079W        W32453  36.924  39.410  12.005
64080W        W32454  18.687  26.523   0.441
64081W        W32455  41.499   4.747   0.273
64082W        W32456  28.169  40.826  14.427
64083W        W32457   4.232  18.637  14.831
64084W        W32458  36.367   5.865   4.703
64085W        W32459  20.540  17.677   2.773
64086W        W32460  25.162  31.126   0.911
64087W        W32461  18.777   0.887  12.938
64088W        W32462  19.586  35.556  11.547
64089W        W32463  20.087   0.347  14.302
64090W        W32464   7.848   3.403   4.692
64091W        W32465  17.728   2.306   3.189
64092W        W32466  16.621  17.265   2.322
64093W        W32467  39.354  23.677  12.359
64094W        W32468   7.868  16.143   2.256
64095W        W32469  18.777  41.839  10.468
64096W        W32470  20.596  36.981   0.859
64097W        W32471   9.319   7.872  13.919
64098W        W32472  23.582  20.744  14.361
64099W        W32473   7.326  11.248  11.016
64100W        W32474  33.379   3.930   2.399
64101W        W32475  29.943   6.759  10.630
64102W        W32476  23.186  19.690   3.870
64103W        W32477  17.801  27.197  14.434
64104W        W32478  28.107   0.493   4.123
64105W        W32479  24.118  32.534  12.044
64106W        W32480  39.041  29.456   1.353
64107W        W32481  38.489  23.190  11.559
64108W        W32482  12.651  24.562  14.336
64109W        W32483  17.162  25.129  12.548
64110W        W32484   6.823  14.146  13.464
64111W        W32485   0.394  34.524   2.227
64112W        W32486  41.973   0.477  12.403
64113W        W32487  16.717  42.376  12.367
64114W        W32488  39.453   3.237  14.817
64115W        W32489  15.585   9.836  13.319
64116W        W32490  40.846   1.302  11.877
64117W        W32491   0.476  14.690   2.328
64118W        W32492  21.042  11.810   3.369
64119W        W32493  30.141  28.080  13.968
64120W        W32494  42.835  23.033  10.979
64121W        W32495  28.505   2.237   4.808
64122W        W32496  11.203  41.445  12.880
64123W        W32497   3.254  20.668  14.930
64124W        W32498  10.843  43.927   2.352
64125W        W32499   5.687   1.394   1.779
64126W        W32500  36.466  15.594  14.342
64127W        W32501  34.371  18.106  14.016
64128W        W32502  29.985  17.219  13.950
64129W        W32503   1.771  19.167   2.713
64130W        W32504  21.055  38.852  11.579
64131W        W32505  12.659  36.402   0.867
64132W        W32506  11.194  29.512   1.864
64133W        W32507  14.144  20.145  13.898
64134W        W32508  30.016  31.054  14.793
64135W        W32509  41.312   5.932  13.317
64136W        W32510  23.507  33.546  14.773
64137W        W32511  41.806  32.409   3.303
64138W        W32512  36.070  11.187   1.223
64139W        W32513  19.094  38.422   4.771
64140W        W32514   3.934  38.934   4.775
64141W        W32515  16.077   7.176   3.638
64142W        W32516  29.979   0.390   1.396
64143W        W32517  41.021  41.534   0.948
64144W        W32518   5.775  23.066   0.863
64145W        W32519   7.179  29.165   4.786
64146W        W32520  40.474  30.429  14.014
64147W        W32521  21.032  22.583   2.771
64148W        W32522  24.703  20.228   2.350
64149W        W32523  22.530  25.173   1.410
64150W        W32524   8.362   3.813  12.576
64151W        W32525  13.308   6.791  13.943
64152W        W32526   1.441  33.606  10.920
64153W        W32527  29.959  27.183  12.823
64154W        W32528  23.703  10.827   3.233
64155W        W32529   3.947   7.313   4.175
64156W        W32530  35.546  35.446   2.767
64157W        W32531  42.925   8.401   2.770
64158W        W32532  16.215  21.691  12.960
64159W        W32533   2.250  41.920  10.507
64160W        W32534  34.395  10.756  12.372
64161W        W32535  29.588  17.630  11.933
64162W        W32536  14.213  42.911   0.466
64163W        W32537  21.191   2.762   3.765
64164W        W32538  16.686  20.133  10.948
64165W        W32539  28.147  14.599  10.888
64166W        W32540   1.389  34.543   2.756
64167W        W32541  33.450  25.029   1.771
64168W        W32542  26.630   1.329  14.397
64169W        W32543  17.249  41.875  12.492
64170W        W32544  34.448  18.266   4.630
64171W        W32545  27.532  37.435  12.049
64172W        W32546   4.814  21.074  11.904
64173W        W32547  26.988  42.478   0.394
64174W        W32548  43.499  41.959   1.304
64175W        W32549  16.261  25.174  10.919
64176W        W32550  23.101  10.766   4.129
64177W        W32551  11.188  28.658   2.227
64178W        W32552  21.736  24.506  11.932
64179W        W32553   0.342  21.056  13.040
64180W        W32554  16.668  14.664  12.936
64181W        W32555   2.430  13.253  13.890
64182W        W32556  12.762  32.035   4.757
64183W        W32557  19.226  18.283  11.069
64184W        W32558  26.512  34.942  13.512
64185W        W32559  22.529  40.473   2.848
64186W        W32560  31.423  33.878  11.576
64187W        W32561   8.843   8.218  11.071
64188W        W32562  28.127  23.018   1.776
64189W        W32563  25.058  28.041   0.935
64190W        W32564  42.903  35.861  13.865
64191W        W32565  35.066  36.405  10.630
64192W        W32566  22.740  12.301   3.750
64193W        W32567  13.821  38.500  14.922
64194W        W32568  23.645  25.151  10.495
64195W        W32569   9.371  17.246   1.766
64196W        W32570  39.469  19.094  11.906
64197W        W32571  30.009  43.860   1.768
64198W        W32572   3.313  28.453   1.341
64199W        W32573  36.994   6.901  12.421
64200W        W32574  43.478  26.675   3.157
64201W        W32575  13.699  34.003   1.329
64202W        W32576  43.865  16.601   0.330
64203W        W32577   0.316  43.907  11.438
64204W        W32578  20.221   8.837  14.780
64205W        W32579  21.699  10.275   1.880
64206W        W32580  39.903  37.998   1.887
64207W        W32581  17.699   3.377   0.377
64208W        W32582  44.457  18.290  14.978
64209W        W32583  34.382  23.058   2.803
64210W        W32584  38.034  24.536  12.095
64211W        W32585  33.990  20.112   0.366
64212W        W32586   1.318   2.791   1.738
64213W        W32587  42.522  29.004  14.032
64214W        W32588  33.909   2.336   4.778
64215W        W32589  19.751  30.474  14.447
64216W        W32590  15.796   8.707  14.489
64217W        W32591  24.228   1.958   1.305
64218W        W32592  35.036  25.220  10.930
64219W        W32593  12.274  25.506  12.535
64220W        W32594  42.956  41.018   0.967
64221W        W32595  42.356  16.588  14.023
64222W        W32596  17.278  38.372  10.968
64223W        W32597  25.162   7.718   1.903
64224W        W32598  43.800  34.092  10.944
64225W        W32599  43.515  25.508  13.422
64226W        W32600  17.162   9.216   1.786
64227W        W32601  18.547  11.859  12.989
64228W        W32602  16.093  18.237  14.277
64229W        W32603   4.926  39.452   0.879
64230W        W32604   7.195  30.565  11.002
64231W        W32605  20.559  39.833  14.509
64232W        W32606  23.221  11.784  13.849
64233W        W32607  36.384  36.020   2.319
64234W        W32608  37.843  44.427  10.977
64235W        W32609  25.018  27.073  11.458
64236W        W32610  24.047  27.495  11.415
64237W        W32611  21.231  23.530   3.227
64238W        W32612   6.388   6.819  12.926
64239W        W32613   8.211  38.443   1.716
64240W        W32614  40.510  27.462   4.238
64241W        W32615   7.864  38.341   4.658
64242W        W32616  10.336   4.911  10.894
64243W        W32617  14.291   3.346  14.347
64244W        W32618  22.708   3.838   0.837
64245W        W32619  14.603  12.190  13.955
64246W        W32620  38.362   4.864   1.716
64247W        W32621  33.435  42.868  12.058
64248W        W32622  32.604   9.322  13.525
64249W        W32623  30.060  29.122  11.894
64250W        W32624   3.439  12.270   0.849
64251W        W32625  44.469  37.994  13.353
64252W        W32626  14.820   5.373  12.997
64253W        W32627  19.732   1.291   3.365
64254W        W32628  34.091  11.195   4.244
64255W        W32629  30.555  29.056  11.545
64256W        W32630  22.064  21.641   3.852
64257W        W32631  23.223  25.212   2.266
64258W        W32632  22.164  14.239   0.388
64259W        W32633   1.782  21.521   0.794
64260W        W32634  32.466  18.119   3.224
64261W        W32635  20.187   2.773   1.317
64262W        W32636  26.587  16.187  14.884
64263W        W32637   8.303   4.909  11.008
64264W        W32638  42.412  44.327  12.383
64265W        W32639   8.338  17.622   5.691
64266W        W32640  22.244  32.914   0.260
64267W        W32641  23.202  29.945   0.387
64268W        W32642   7.759  39.450   3.649
64269W        W32643   3.229  17.732   4.613
64270W        W32644   7.863   3.220   3.326
64271W        W32645   1.861   2.374   2.694
64272W        W32646  38.487   6.253   1.249
64273W        W32647  39.482  27.633   0.326
64274W        W32648  25.149  44.963  14.996
64275W        W32649  25.015  24.484  11.444
64276W        W32650  20.548  23.118  13.041
64277W        W32651  21.233  13.321  14.449
64278W        W32652   5.425  29.122   4.598
64279W        W32653   9.695  33.002   2.750
64280W        W32654   8.183  23.987  11.539
64281W        W32655   2.247  21.637  14.982
64282W        W32656  13.753  23.734  14.289
64283W        W32657  18.705  22.645   5.250
64284W        W32658  25.117  25.003   2.225
64285W        W32659  16.672  25.690  13.522
64286W        W32660  31.146  10.643   2.754
64287W        W32661  30.484  28.171   1.774
64288W        W32662   2.835  24.481   1.451
64289W        W32663  36.436   8.264  12.970
64290W        W32664  43.767  25.033  13.480
64291W        W32665  24.112   4.432  14.306
64292W        W32666  13.217   2.371   1.845
64293W        W32667  16.733  11.358  14.856
64294W        W32668   2.840   9.166   3.826
64295W        W32669  10.846  23.170  13.939
64296W        W32670  41.817  16.692   3.217
64297W        W32671  44.890  35.881   0.795
64298W        W32672  43.378  18.211   3.634
64299W        W32673  34.586  32.102   2.781
64300W        W32674  22.038  39.413   1.413
64301W        W32675  17.107   9.292  10.487
64302W        W32676  32.999  26.172   2.875
64303W        W32677  14.715   3.726   3.300
64304W        W32678  33.104  16.205  11.939
64305W        W32679  19.738  28.538  13.919
64306W        W32680  29.521  34.966   4.820
64307W        W32681  28.064   6.813   0.829
64308W        W32682  21.021   8.880   5.147
64309W        W32683  43.401  24.530   1.276
64310W        W32684  27.113   7.808   1.272
64311W        W32685  19.676  10.140  10.627
64312W        W32686  42.905  39.539   4.647
64313W        W32687  31.047  41.906  12.069
64314W        W32688   7.768  25.502   1.897
64315W        W32689   6.818  31.461   1.816
64316W        W32690  31.935  32.009   3.221
64317W        W32691  14.647  23.124   2.353
64318W        W32692   8.656  27.178   2.862
64319W        W32693  25.686  34.538   1.764
64320W        W32694  19.644  25.983  14.515
64321W        W32695  19.163   8.204  12.353
64322W        W32696  21.127  19.558  11.043
64323W        W32697  15.661  42.963   3.162
64324W        W32698  23.149   0.263  11.395
64325W        W32699  21.064  32.527  13.946
64326W        W32700  36.445   7.790   5.259
64327W        W32701  26.664  18.650   4.288
64328W        W32702  42.795   0.971   5.274
64329W        W32703  28.549  28.129  12.453
64330W        W32704  14.153  41.813  11.607
64331W        W32705  19.681  22.195  10.942
64332W        W32706  25.656  38.905   3.268
64333W        W32707  24.032  16.115   4.126
64334W        W32708  22.586   5.895  11.082
64335W        W32709   1.253  14.823  11.388
64336W        W32710  11.639  30.997  10.084
64337W        W32711  25.166  12.227  14.876
64338W        W32712  31.498  38.035   0.810
64339W        W32713   5.772  44.874  13.349
64340W        W32714  36.398  14.809   2.288
64341W        W32715  26.058  44.453   9.440
64342W        W32716  30.420  30.589  11.592
64343W        W32717  16.657  12.802  10.888
64344W        W32718  38.028  15.791  14.308
64345W        W32719  40.938  20.072   3.193
64346W        W32720  14.316  23.631  14.765
64347W        W32721  21.025  39.508   4.685
64348W        W32722  41.335  39.385   4.720
64349W        W32723  14.217  25.648  14.443
64350W        W32724  21.054  26.668   5.167
64351W        W32725  28.133   3.433   5.260
64352W        W32726  15.110  25.485   3.181
64353W        W32727   4.814  11.204  11.509
64354W        W32728   4.801  26.079  11.857
64355W        W32729  18.620  36.881   4.304
64356W        W32730  29.951  23.030   4.766
64357W        W32731  14.219   9.712   3.727
64358W        W32732  33.043  22.604   2.303
64359W        W32733  13.642  39.930   2.290
64360W        W32734   6.324  36.041   2.191
64361W        W32735  36.556  36.518  11.034
64362W        W32736  21.718  25.042  14.899
64363W        W32737  35.878  31.600  13.010
64364W        W32738  15.636  22.710   4.124
64365W        W32739  24.069   1.935  12.359
64366W        W32740   4.437  40.037   0.483
64367W        W32741  41.920  20.147   1.849
64368W        W32742  32.104  23.580   1.879
64369W        W32743  15.673  23.678  11.412
64370W        W32744  33.091  31.951   4.308
64371W        W32745   3.383  30.974   4.123
64372W        W32746  42.355   9.176  14.502
64373W        W32747   7.220   5.402   1.760
64374W        W32748   0.977  38.426   0.464
64375W        W32749  42.316  13.647  13.792
64376W        W32750  13.329  43.322   0.955
64377W        W32751  30.977  10.174  14.359
64378W        W32752  20.090  10.305   0.353
64379W        W32753  44.307   4.723  13.050
64380W        W32754  25.061  35.560  12.089
64381W        W32755   4.840  20.633  10.641
64382W        W32756  31.088  34.061   0.821
64383W        W32757  30.161  41.493  13.341
64384W        W32758  12.693  36.067   0.449
64385W        W32759  30.427  18.572  14.298
64386W        W32760   8.725  27.049  12.875
64387W        W32761  44.961  32.923   4.351
64388W        W32762  36.963   7.849   4.315
64389W        W32763  36.879   5.710   2.311
64390W        W32764  38.820  16.191  11.115
64391W        W32765  10.666  27.466   3.660
64392W        W32766  19.124   3.446  14.807
64393W        W32767  20.537   0.953   4.637
64394W        W32768  27.491  33.441   3.190
64395W        W32769  31.582   7.265  10.921
64396W        W32770   1.788  38.382  13.973
64397W        W32771  33.624  38.523  11.554
64398W        W32772  13.309  22.105  12.841
64399W        W32773  41.859  41.911   4.641
64400W        W32774   6.183  25.481  13.010
64401W        W32775  24.533  33.021  14.026
64402W        W32776  23.180   2.792  11.441
64403W        W32777   3.825   1.791  10.518
64404W        W32778  29.466  11.234   1.869
64405W        W32779  39.321  44.920  11.083
64406W        W32780  43.891  33.561   2.867
64407W        W32781  10.316  28.543   0.414
64408W        W32782  39.060   3.393   2.765
64409W        W32783   4.312  24.485   4.187
64410W        W32784  38.042  33.010   4.645
64411W        W32785  44.308  29.489  10.492
64412W        W32786  38.879  18.070  12.835
64413W        W32787   9.168  32.917  13.817
64414W        W32788  37.401   9.332  13.322
64415W        W32789  26.679   6.292  14.982
64416W        W32790  37.341  32.423   4.339
64417W        W32791   0.381  44.332   1.283
64418W        W32792  14.605  22.654   4.774
64419W        W32793  24.079  10.260   4.269
64420W        W32794  27.596  11.227   0.277
64421W        W32795  30.086   0.411   4.236
64422W        W32796  35.014   9.725  11.596
64423W        W32797  27.665  32.503   1.865
64424W        W32798  41.482  19.134  14.345
64425W        W32799  12.632   7.873  13.841
64426W        W32800  23.146  39.951  13.512
64427W        W32801  12.825  28.568  13.932
64428W        W32802  41.417  28.097   3.245
64429W        W32803  31.087  12.351   3.344
64430W        W32804   7.676  20.055   1.702
64431W        W32805  12.329   5.347   2.258
64432W        W32806   2.822  18.556  14.495
64433W        W32807   5.340  22.125   1.755
64434W        W32808  10.644  23.176   1.443
64435W        W32809  21.166  30.590  11.581
64436W        W32810   2.339  27.169  11.108
64437W        W32811   4.788  35.855   1.749
64438W        W32812  23.115   2.909   4.784
64439W        W32813  39.954  20.637  12.475
64440W        W32814  39.920  26.632  11.084
64441W        W32815  15.686  14.602  13.358
64442W        W32816  23.157  14.704   0.756
64443W        W32817  22.540  22.520   2.861
64444W        W32818   8.869  14.340  13.803
64445W        W32819  20.184  15.156  11.998
64446W        W32820  23.571   2.393   4.621
64447W        W32821  40.909   4.769  11.911
64448W        W32822   1.241  15.709   3.176
64449W        W32823  24.163  32.967   3.846
64450W        W32824  23.656   4.699  12.522
64451W        W32825   6.321   6.921   2.385
64452W        W32826   9.257  13.259  11.898
64453W        W32827   0.804  23.517   1.292
64454W        W32828   4.704  24.545  12.398
64455W        W32829  37.399  32.588   3.178
64456W        W32830   1.842  10.372  11.006
64457W        W32831  32.026  10.157   3.776
64458W        W32832  28.139  18.618  10.603
64459W        W32833  34.873   3.409  12.076
64460W        W32834  31.147  22.201  13.981
64461W        W32835  27.088  20.131   0.346
64462W        W32836   4.914   3.247   1.320
64463W        W32837   8.850  42.007  13.539
64464W        W32838   2.783  44.277  13.860
64465W        W32839  44.996  38.518  11.490
64466W        W32840  24.016  31.430  10.123
64467W        W32841   8.387   1.823  12.924
64468W        W32842  17.140  34.574   2.750
64469W        W32843   0.405  43.501  11.585
64470W        W32844  31.923   4.242   1.310
64471W        W32845   9.370  42.848  11.090
64472W        W32846  41.929  39.856  11.125
64473W        W32847  34.431  28.029  12.836
64474W        W32848  11.631  32.057  13.542
64475W        W32849  40.308  31.921   1.820
64476W        W32850  41.942  37.380  12.390
64477W        W32851  17.768  26.112   0.450
64478W        W32852  31.403  14.648   2.788
64479W        W32853  42.416  18.675  10.456
64480W        W32854  38.423   0.821   2.809
64481W        W32855   2.956  20.614   4.837
64482W        W32856  22.683  41.971   3.262
64483W        W32857  40.455  17.710  13.389
64484W        W32858   4.827  12.300   2.707
64485W        W32859  14.197  18.269  12.384
64486W        W32860  41.537  11.358   4.330
64487W        W32861  17.063  22.544  14.308
64488W        W32862  11.867  26.504  14.384
64489W        W32863  25.471   1.417  10.429
64490W        W32864  15.681   6.847  14.498
64491W        W32865   7.175  11.156  12.359
64492W        W32866   5.873   6.413   2.781
64493W        W32867   5.900   1.742  12.010
64494W        W32868   4.904   2.962   0.332
64495W        W32869  10.194  26.190   4.728
64496W        W32870  43.446  30.999  11.497
64497W        W32871  23.561  30.535  14.015
64498W        W32872  38.376  19.120   3.228
64499W        W32873  15.188  29.452   2.714
64500W        W32874  15.291   9.837  13.322
64501W        W32875  18.770  42.304   4.335
64502W        W32876  30.999  27.996   1.295
64503W        W32877  44.758  24.583   2.357
64504W        W32878  26.181  37.843   4.208
64505W        W32879  16.179  19.190  14.407
64506W        W32880  24.005  35.056   9.954
64507W        W32881  21.590  33.130  12.035
64508W        W32882  12.285  24.660  12.011
64509W        W32883  20.035   3.253   2.803
64510W        W32884  17.712  30.942  12.458
64511W        W32885  11.697   9.161  14.944
64512W        W32886  28.453   0.836  12.353
64513W        W32887  25.654  40.809  11.935
64514W        W32888  38.038  27.110   3.750
64515W        W32889  42.884  41.859   0.743
64516W        W32890  21.069  40.798  10.508
64517W        W32891   5.195   0.288  13.546
64518W        W32892   9.863   0.381  12.054
64519W        W32893  16.680   6.677  14.031
64520W        W32894  43.008  26.980  12.065
64521W        W32895   1.292  42.281   1.809
64522W        W32896   1.767  30.483   4.298
64523W        W32897  38.414  30.422   3.854
64524W        W32898   6.735  16.785   0.945
64525W        W32899   2.278  34.591  12.089
64526W        W32900   4.826  34.512   2.383
64527W        W32901  13.290   2.314   0.388
64528W        W32902   9.279  32.511  14.377
64529W        W32903  20.215  36.961  12.444
64530W        W32904   3.363   4.419  14.493
64531W        W32905  32.922  28.465  14.027
64532W        W32906  37.967  42.878   2.706
64533W        W32907  31.993  11.220  11.607
64534W        W32908  27.123  31.562  11.016
64535W        W32909   0.786  34.564   0.402
64536W        W32910  18.265  35.890  12.858
64537W        W32911   7.827   0.284   2.404
64538W        W32912  41.412  10.158  11.894
64539W        W32913  31.915  42.839   9.952
64540W        W32914   2.278  40.333  13.522
64541W        W32915  14.234  10.169  10.899
64542W        W32916  34.501  25.177  14.397
64543W        W32917  12.621   2.367  13.044
64544W        W32918  39.490  28.944  12.477
64545W        W32919  38.571  14.143   4.270
64546W        W32920  29.987  33.388  14.465
64547W        W32921   1.874  15.610   9.978
64548W        W32922   9.766  38.544  11.901
64549W        W32923  20.165  40.823   4.833
64550W        W32924  29.970  34.113   3.303
64551W        W32925  41.880  27.570  14.468
64552W        W32926  22.230   3.421  13.423
64553W        W32927  32.949  36.995   4.187
64554W        W32928  41.034   0.802   1.310
64555W        W32929  29.620  23.495   1.409
64556W        W32930   5.892  23.110  10.892
64557W        W32931  41.851  25.540  10.554
64558W        W32932  34.463  26.654  11.485
64559W        W32933  33.000  28.655  10.413
64560W        W32934  33.000  28.102  14.458
64561W        W32935  41.299  42.013  14.323
64562W        W32936  11.164  12.256   4.131
64563W        W32937  31.482   2.897   1.808
64564W        W32938  19.720  39.847   1.380
64565W        W32939  42.505  27.615  13.534
64566W        W32940  43.442  33.975   4.191
64567W        W32941  21.629  30.980   2.860
64568W        W32942  14.281  31.083  11.979
64569W        W32943  34.118   7.223  10.579
64570W        W32944  38.468   1.862   1.345
64571W        W32945  37.350  25.686   5.140
64572W        W32946  10.214  19.182   3.180
64573W        W32947  36.409  12.699   4.623
64574W        W32948  15.612  36.549  11.954
64575W        W32949  22.212  35.021  13.910
64576W        W32950  32.614  42.030   3.850
64577W        W32951   8.689  42.304   2.888
64578W        W32952  36.871  37.469   3.774
64579W        W32953  31.413  22.110  13.967
64580W        W32954  23.705  32.035  11.445
64581W        W32955  38.946   6.764   9.492
64582W        W32956   9.744  16.620   1.865
64583W        W32957  44.482  12.355   9.955
64584W        W32958   4.402  21.255  14.865
64585W        W32959  16.190  24.125  10.551
64586W        W32960   0.283  36.527   1.408
64587W        W32961  26.638  19.178   0.397
64588W        W32962  18.208  18.587  13.030
64589W        W32963  32.955   3.847  12.360
64590W        W32964   7.417  21.660  13.958
64591W        W32965  24.144  24.649  12.833
64592W        W32966  23.188   9.175   0.334
64593W        W32967  13.145  29.461  11.856
64594W        W32968  41.410   1.863  10.548
64595W        W32969  24.523  36.417  12.094
64596W        W32970  37.340  21.722   3.777
64597W        W32971  33.448  35.525   1.696
64598W        W32972  38.888  41.336   1.255
64599W        W32973  14.201  21.109   4.170
64600W        W32974  11.211   5.279   2.762
64601W        W32975  14.819  14.286   3.775
64602W        W32976  42.984  26.160  13.929
64603W        W32977   2.426  15.790  12.953
64604W        W32978  38.347  33.025  10.976
64605W        W32979  19.075  40.926  13.448
64606W        W32980  39.533  18.601  12.970
64607W        W32981  43.778  11.126  13.909
64608W        W32982  39.909  20.587   2.741
64609W        W32983  43.839   3.915   3.684
64610W        W32984  29.924  23.189   2.716
64611W        W32985  34.430   2.315   0.244
64612W        W32986  31.626   7.869  10.896
64613W        W32987  16.087  19.280   1.725
64614W        W32988  18.055   0.969  11.398
64615W        W32989  33.034  37.040  13.419
64616W        W32990   2.254  33.010  10.630
64617W        W32991  18.668  41.012   0.899
64618W        W32992  19.752   8.711   1.410
64619W        W32993   3.343   9.738   0.461
64620W        W32994  40.886  23.060   2.851
64621W        W32995  15.766   5.305  14.774
64622W        W32996  22.587  24.548   0.469
64623W        W32997   0.771  24.128  12.398
64624W        W32998  18.786   1.466  11.926
64625W        W32999   1.345  19.154   3.821
64626W        W33000  34.589  14.127   2.252
64627W        W33001  20.155  32.589   3.154
64628W        W33002   5.417  29.546  10.108
64629W        W33003  39.456  31.559   3.368
64630W        W33004  22.526  26.060  14.807
64631W        W33005   1.454   6.805  11.505
64632W        W33006  37.571   9.164   5.265
64633W        W33007   4.442  27.623   2.215
64634W        W33008   0.948  26.505  14.789
64635W        W33009  34.075  12.173   4.258
64636W        W33010  43.905  29.564   3.157
64637W        W33011  25.091  40.964  14.955
64638W        W33012  41.434  40.465  10.494
64639W        W33013  27.459   4.851   2.736
64640W        W33014  22.238  27.537   0.731
64641W        W33015  25.640  33.608  12.041
64642W        W33016  10.369  41.477   3.842
64643W        W33017  35.464  44.848  11.038
64644W        W33018  16.780  38.036   3.674
64645W        W33019   4.219  24.560   5.752
64646W        W33020  16.154  42.878   4.340
64647W        W33021  29.935  31.026   0.412
64648W        W33022  13.694  22.640   4.280
64649W        W33023  11.787  36.888  13.836
64650W        W33024   1.916  36.917  10.965
64651W        W33025  29.172   9.865   3.629
64652W        W33026   8.259  24.057  10.515
64653W        W33027  25.184  40.019  14.457
64654W        W33028  37.971  19.578   2.406
64655W        W33029  36.979  18.751   4.138
64656W        W33030  11.830  38.520  13.548
64657W        W33031  20.638  19.087  13.996
64658W        W33032  17.186  42.948  10.511
64659W        W33033  42.831  12.267  12.857
64660W        W33034   3.840  36.845   0.807
64661W        W33035  42.984   1.933  13.947
64662W        W33036  18.116  25.500   2.309
64663W        W33037  36.002  20.246   1.321
64664W        W33038  17.198  24.600  10.138
64665W        W33039  18.156  44.785  13.007
64666W        W33040  41.499  29.583   2.700
64667W        W33041   0.841  18.084   1.378
64668W        W33042  24.065  30.968  11.922
64669W        W33043  41.364   9.859   2.412
64670W        W33044  16.277   4.257  13.804
64671W        W33045  43.962  21.169  14.397
64672W        W33046   8.654  13.635  11.485
64673W        W33047  27.149  10.800  12.925
64674W        W33048   5.342   9.225  14.027
64675W        W33049   3.382  27.450   1.865
64676W        W33050  44.350  11.342  11.452
64677W        W33051  23.021  12.671   3.848
64678W        W33052  24.030   2.966  10.552
64679W        W33053   4.906  24.717   4.766
64680W        W33054  13.760  17.727   0.850
64681W        W33055  38.076  26.960  11.896
64682W        W33056  13.833  22.530   0.903
64683W        W33057  16.263  44.307   0.291
64684W        W33058  26.045   8.660  11.578
64685W        W33059   5.380  43.911   3.630
64686W        W33060  10.278  10.223  13.915
64687W        W33061  30.581  13.248  11.401
64688W        W33062  23.598  21.199  11.387
64689W        W33063  33.015  24.114   0.896
64690W        W33064  22.721  33.461   3.153
64691W        W33065  36.860   2.726   2.708
64692W        W33066   5.402  34.436  13.966
64693W        W33067  38.978  30.638  11.084
64694W        W33068  42.385  43.514   4.786
64695W        W33069  39.887  42.527   0.276
64696W        W33070  15.669  27.114  10.580
64697W        W33071  15.652  32.119   3.847
64698W        W33072  23.024  38.998  13.455
64699W        W33073  28.439   5.869  13.499
64700W        W33074   6.357  17.646  12.055
64701W        W33075  39.824  26.561   4.139
64702W        W33076  42.341  30.011   0.940
64703W        W33077  33.458  44.929  10.976
64704W        W33078  36.438   7.269  14.832
64705W        W33079   2.959  43.810  12.025
64706W        W33080  23.717   0.446  13.866
64707W        W33081  38.025  38.941  13.802
64708W        W33082  13.154   8.742  14.515
64709W        W33083  34.921   8.756   3.321
64710W        W33084  33.395  22.716   1.826
64711W        W33085  42.814  29.128  10.513
64712W        W33086  30.426   8.888   3.691
64713W        W33087  13.197  11.160   3.759
64714W        W33088   9.200  24.021   3.185
64715W        W33089   9.211  37.043   4.793
64716W        W33090  44.406  43.769  12.872
64717W        W33091  27.527  31.028  12.461
64718W        W33092   8.720  20.666   9.437
64719W        W33093  21.726  21.608  11.092
64720W        W33094  27.629   5.234   3.704
64721W        W33095  20.641  41.491   4.811
64722W        W33096  16.107  10.762  13.978
64723W        W33097   8.847  21.593  14.900
64724W        W33098   7.400  21.757   0.405
64725W        W33099  37.859   0.303  14.356
64726W        W33100  35.895   4.274   3.224
64727W        W33101  21.622  14.624   0.313
64728W        W33102  32.419  28.594   4.703
64729W        W33103   6.829  44.353  11.953
64730W        W33104   2.420  28.095  11.870
64731W        W33105  26.197  29.109   1.928
64732W        W33106  41.339  24.162   0.880
64733W        W33107  36.853  19.718  13.351
64734W        W33108   7.209  26.638  12.480
64735W        W33109  23.135  30.544   0.850
64736W        W33110  24.572  35.971   0.380
64737W        W33111  10.270  38.879  13.457
64738W        W33112  18.615  36.585   2.350
64739W        W33113  37.513  12.662  13.904
64740W        W33114  33.046  34.111  11.492
64741W        W33115   0.793  28.443   0.438
64742W        W33116  27.544  11.257  10.545
64743W        W33117   3.256  34.051  11.025
64744W        W33118  35.989   0.281  13.933
64745W        W33119  41.804   3.313  12.411
64746W        W33120  14.223  35.864  11.938
64747W        W33121   6.280   8.195   1.223
64748W        W33122  37.381  24.157   0.833
64749W        W33123  18.716  36.876   3.825
64750W        W33124  19.252  30.015   1.720
64751W        W33125  14.805  10.169  14.948
64752W        W33126   2.419  22.021   4.232
64753W        W33127  25.066  43.864  13.546
64754W        W33128  42.423   0.401   1.740
64755W        W33129   5.767  16.303   2.240
64756W        W33130   2.884  26.609   2.847
64757W        W33131  36.930  35.026   0.388
64758W        W33132  42.956   9.366   1.784
64759W        W33133   6.678  28.095   3.312
64760W        W33134  42.295  36.396  11.468
64761W        W33135  23.684  15.165  11.106
64762W        W33136  23.166  40.814   1.252
64763W        W33137  31.931  13.758   2.238
64764W        W33138  27.450  36.485   3.640
64765W        W33139  10.154  16.761   4.266
64766W        W33140  12.342  24.608   0.296
64767W        W33141   0.827  30.627  13.991
64768W        W33142  34.443   4.771   4.810
64769W        W33143   2.938  21.545   1.345
64770W        W33144  34.506   5.403  13.057
64771W        W33145  20.143   9.817   1.696
64772W        W33146  21.532  15.301   0.773
64773W        W33147   1.849  32.938   1.804
64774W        W33148  12.634   6.220  12.911
64775W        W33149  23.085   2.299   3.659
64776W        W33150  23.531  23.092   1.799
64777W        W33151  44.387  14.630   1.306
64778W        W33152  35.577  36.059   4.631
64779W        W33153  15.102  40.929  12.462
64780W        W33154  27.483  16.091   1.854
64781W        W33155  29.622   6.910  13.477
64782W        W33156  21.213  15.727  12.937
64783W        W33157  11.866  15.088   1.905
64784W        W33158  42.420  28.958   2.838
64785W        W33159  43.498  13.685   0.807
64786W        W33160  23.547  43.840   1.753
64787W        W33161  32.569  21.256  12.032
64788W        W33162   8.274   0.409  10.981
64789W        W33163  35.918  36.036  10.461
64790W        W33164  17.196  38.339  13.368
64791W        W33165  42.849  43.885  10.963
64792W        W33166  32.630   2.289   0.352
64793W        W33167   7.343  29.488   0.733
64794W        W33168   9.168   6.791   3.754
64795W        W33169  22.108   1.858  10.474
64796W        W33170  32.078   9.325   1.292
64797W        W33171  27.624  31.930   0.775
64798W        W33172  15.251  38.553   0.416
64799W        W33173   0.796  41.961   4.222
64800W        W33174   5.194   0.864  14.809
64801W        W33175   5.839   3.351  10.979
64802W        W33176   3.810   2.345   4.791
64803W        W33177  43.796   2.369  13.524
64804W        W33178   5.319  25.695   9.929
64805W        W33179   2.290   1.333  11.424
64806W        W33180   8.750   7.797   2.287
64807W        W33181  20.661   6.296  12.846
64808W        W33182  37.480  33.130   2.269
64809W        W33183  30.494  29.603   2.816
64810W        W33184  41.808  36.423   3.375
64811W        W33185  36.358  44.477  10.998
64812W        W33186  38.053  32.532  10.598
64813W        W33187  14.707  27.947   0.304
64814W        W33188  40.928  28.937  14.409
64815W        W33189  25.091  20.256   0.480
64816W        W33190  28.949  42.517   2.332
64817W        W33191  37.543  44.980  12.857
64818W        W33192  34.015  10.803   4.328
64819W        W33193  28.100  37.533   4.252
64820W        W33194   9.238   2.335   1.720
64821W        W33195   8.374  40.011   4.168
64822W        W33196  41.990   5.776   3.859
64823W        W33197  36.364  21.604   0.800
64824W        W33198  41.982  15.207  12.089
64825W        W33199  14.643   0.314   2.327
64826W        W33200  14.588  24.712  14.302
64827W        W33201   4.771   9.872   0.793
64828W        W33202  10.357  33.440   2.357
64829W        W33203  43.806  26.982   2.894
64830W        W33204  11.805  17.260   4.339
64831W        W33205  14.221  14.612  12.859
64832W        W33206  37.461   7.183   2.191
64833W        W33207  27.679   5.216   2.747
64834W        W33208  15.301  21.523  11.976
64835W        W33209  37.454  12.809   3.206
64836W        W33210  14.779  18.559  11.898
64837W        W33211  20.073  43.848   3.173
64838W        W33212  40.361   7.204  10.560
64839W        W33213   2.350  16.078   3.221
64840W        W33214  30.656  40.497  10.538
64841W        W33215  18.153  23.072  13.474
64842W        W33216  41.490   9.340  13.378
64843W        W33217  20.723  16.804   1.837
64844W        W33218  32.941  39.999   4.615
64845W        W33219  36.500  35.455   2.822
64846W        W33220  25.975  30.415  14.853
64847W        W33221   8.208  32.102   2.314
64848W        W33222  11.744  16.649   2.714
64849W        W33223  10.280  30.589  12.495
64850W        W33224  20.563  26.592   0.323
64851W        W33225  29.606   0.774   0.404
64852W        W33226  22.174  19.685   2.803
64853W        W33227  43.336  23.556  13.030
64854W        W33228  40.806  12.782   3.357
64855W        W33229   2.817   5.915  11.963
64856W        W33230  26.953   8.278  13.330
64857W        W33231  12.691  18.156  11.862
64858W        W33232  29.984  39.498  14.018
64859W        W33233  13.267  43.796   2.846
64860W        W33234  25.153  37.404  13.486
64861W        W33235  31.491   8.280  13.045
64862W        W33236  18.718  28.165  11.478
64863W        W33237  40.868  36.514  11.125
64864W        W33238  20.139  12.158   3.746
64865W        W33239  35.467  15.088   2.287
64866W        W33240  33.429  26.037   4.347
64867W        W33241  19.272  41.988  10.455
64868W        W33242  25.691  10.278   3.302
64869W        W33243  18.289  26.968   3.855
64870W        W33244  35.855  12.137  13.417
64871W        W33245  16.222   1.956  12.475
64872W        W33246  30.158  41.915  12.579
64873W        W33247   5.875   1.255   0.298
64874W        W33248  39.999  19.774  14.393
64875W        W33249  30.634  29.621   4.169
64876W        W33250  13.294  38.822   3.197
64877W        W33251  25.646  36.934  14.864
64878W        W33252  43.505  34.942  13.462
64879W        W33253  31.530  38.010   3.266
64880W        W33254  39.043  24.098  14.414
64881W        W33255  17.290  17.709   0.891
64882W        W33256   1.976  29.447  12.988
64883W        W33257  42.829  28.078   0.765
64884W        W33258   7.295   2.904   2.813
64885W        W33259   6.255   0.386  12.881
64886W        W33260  32.636  44.365  10.114
64887W        W33261   5.933  41.006   2.330
64888W        W33262  13.712  40.873  13.059
64889W        W33263  33.122  17.775  12.869
64890W        W33264  34.892  10.847   1.853
64891W        W33265  23.088  29.497   0.837
64892W        W33266   8.369  30.087   2.336
64893W        W33267  34.376  23.221  11.515
64894W        W33268   4.250   3.273  11.088
64895W        W33269  23.987  44.922  14.900
64896W        W33270  26.658  38.903   3.182
64897W        W33271  16.702   9.820   5.180
64898W        W33272  15.781  32.515   1.794
64899W        W33273  36.397  12.782  14.400
64900W        W33274  43.830   8.215   1.247
64901W        W33275  11.747   4.825  11.931
64902W        W33276  13.114  40.450  14.407
64903W        W33277  29.046  23.624   0.931
64904W        W33278  17.128  35.529   4.261
64905W        W33279  16.180  14.167  11.580
64906W        W33280   2.367  13.759  13.356
64907W        W33281  11.746   8.893  12.369
64908W        W33282  18.770  36.418  14.823
64909W        W33283   3.272   8.898  10.522
64910W        W33284  42.510  11.270  11.082
64911W        W33285  42.888  16.196  10.443
64912W        W33286  38.363   4.821  14.371
64913W        W33287  31.541  11.859   1.217
64914W        W33288  43.296  27.008  10.418
64915W        W33289  33.517  28.094  11.872
64916W        W33290  11.344   8.715  12.948
64917W        W33291   7.724  31.080   1.719
64918W        W33292  23.646  18.219  10.586
64919W        W33293  36.922  34.407   3.333
64920W        W33294  12.325  43.923   0.932
64921W        W33295  21.199   0.431   0.475
64922W        W33296  44.382   9.327  14.449
64923W        W33297  20.176  30.540  14.789
64924W        W33298  14.154   6.729   2.289
64925W        W33299  33.891  38.840  12.826
64926W        W33300  25.506  43.795   1.346
64927W        W33301   9.151  38.017  12.847
64928W        W33302   1.393  16.193   1.352
64929W        W33303   7.782  28.963  11.908
64930W        W33304   9.218   6.737  11.548
64931W        W33305   4.343  41.917   4.293
64932W        W33306   1.431  29.162   0.393
64933W        W33307  30.654  17.170   1.722
64934W        W33308  20.115  27.519   2.324
64935W        W33309  15.083   2.436   3.671
64936W        W33310  28.611   0.746   0.901
64937W        W33311  24.205   3.383  12.456
64938W        W33312  17.147  27.505  13.967
64939W        W33313   2.266   5.267   1.734
64940W        W33314  34.027  19.205   3.777
64941W        W33315   4.435  41.517  10.933
64942W        W33316  14.653   4.231   3.638
64943W        W33317  28.051  28.123   2.374
64944W        W33318  32.449  31.143  13.004
64945W        W33319   3.297  11.278  12.069
64946W        W33320   4.354  29.941   4.333
64947W        W33321  14.340  26.084   0.736
64948W        W33322   9.350  20.586   1.284
64949W        W33323  30.503  18.098   1.262
64950W        W33324  31.544  36.580   0.443
64951W        W33325   8.711  18.124   0.365
64952W        W33326   4.759   8.815   4.744
64953W        W33327   1.748  42.317   4.711
64954W        W33328  21.166  23.709  10.521
64955W        W33329  24.510  39.345   3.773
64956W        W33330  40.398  26.179   0.877
64957W        W33331  10.725  39.032  10.551
64958W        W33332  27.171  15.244   1.310
64959W        W33333  25.575  19.630  14.765
64960W        W33334  15.651  19.664   2.779
64961W        W33335  16.264  34.044  11.870
64962W        W33336  22.601  37.441  12.993
64963W        W33337   3.876  40.047   2.679
64964W        W33338  37.983   1.283  10.906
64965W        W33339  12.151  37.339   4.287
64966W        W33340  22.680  10.224   1.793
64967W        W33341  42.417   5.870  11.008
64968W        W33342  18.147   5.389  12.001
64969W        W33343   3.404  43.333   0.850
64970W        W33344  26.171  41.363   3.174
64971W        W33345  44.911  36.421  13.043
64972W        W33346  33.888   1.371  13.797
64973W        W33347  21.746  26.471   2.902
64974W        W33348  38.934  22.532   1.812
64975W        W33349  39.892  39.376  14.000
64976W        W33350  38.410  34.005  13.503
64977W        W33351  21.225  32.463   5.251
64978W        W33352   9.311  33.389   3.792
64979W        W33353  13.183  34.947  13.943
64980W        W33354  26.548  30.610  11.938
64981W        W33355  16.178  19.697   4.154
64982W        W33356  24.578  13.686  12.476
64983W        W33357  30.587  33.624   1.272
64984W        W33358  37.337  14.190   1.897
64985W        W33359  24.556  16.629   2.351
64986W        W33360  23.521  43.335   1.853
64987W        W33361  25.194  38.334   2.213
64988W        W33362  34.542  29.542   1.283
64989W        W33363  42.367   9.671   1.796
64990W        W33364   0.422  30.113  14.296
64991W        W33365  32.556  29.534   4.695
64992W        W33366  16.726  22.507  12.350
64993W        W33367   4.892   7.726   0.814
64994W        W33368  26.027   2.407  11.578
64995W        W33369  30.915  43.020   4.308
64996W        W33370  20.272   1.861   0.883
64997W        W33371  26.525  14.639  11.064
64998W        W33372   3.317  15.136  13.321
64999W        W33373  28.445   4.824   4.214
65000W        W33374  31.995  35.893  10.055
65001W        W33375  44.770  30.546  14.357
65002W        W33376   6.692  15.295  13.889
65003W        W33377  15.735  12.152  14.451
65004W        W33378  12.242  34.905  14.288
65005W        W33379  19.673  10.300  11.589
65006W        W33380  36.529   2.793   1.250
65007W        W33381  34.978  39.987   4.736
65008W        W33382  24.008  41.410  11.414
65009W        W33383   2.940  20.168  10.503
65010W        W33384  15.660   5.345  13.478
65011W        W33385  34.426   6.780   4.630
65012W        W33386  12.236  42.786  11.032
65013W        W33387   2.352  21.215   4.271
65014W        W33388  23.196  14.757  13.063
65015W        W33389   9.644   2.791   4.629
65016W        W33390  27.966  17.205  13.852
65017W        W33391  33.516  44.794  13.016
65018W        W33392  40.332   5.413  14.322
65019W        W33393   2.957  13.707   1.363
65020W        W33394  28.144   0.771   3.767
65021W        W33395  44.328   5.908  11.089
65022W        W33396  22.162  42.989  14.813
65023W        W33397  41.356  42.883   0.309
65024W        W33398  17.719  14.134   1.808
65025W        W33399  35.377  41.334  12.059
65026W        W33400   5.217  33.578  13.547
65027W        W33401  28.000  36.915  10.415
65028W        W33402  32.945   7.297   0.935
65029W        W33403  10.866  11.127   1.862
65030W        W33404  33.115  11.622  11.036
65031W        W33405   4.859   2.874  11.547
65032W        W33406  13.774   8.228  10.640
65033W        W33407  25.016  34.903   0.353
65034W        W33408   9.192  38.475   4.799
65035W        W33409   5.314  24.210   1.865
65036W        W33410  36.442   2.725   2.712
65037W        W33411  33.956  24.519  11.604
65038W        W33412  43.928  29.643  13.471
65039W        W33413  20.212  43.790  12.886
65040W        W33414  21.710  11.836   2.354
65041W        W33415  22.558  29.022   9.457
65042W        W33416  17.697   8.867   1.256
65043W        W33417  42.383   1.813   2.185
65044W        W33418  44.927  31.057   1.272
65045W        W33419  12.356  28.058  11.400
65046W        W33420  27.151  29.466   0.827
65047W        W33421  40.384   1.377  11.471
65048W        W33422  44.348   7.250   5.257
65049W        W33423   4.372  34.919  12.081
65050W        W33424  42.425  41.024  12.939
65051W        W33425  25.065  32.988  10.541
65052W        W33426  27.566  22.522   0.792
65053W        W33427  19.718  23.705  11.592
65054W        W33428  18.762  36.577   2.807
65055W        W33429  21.179  24.003   2.673
65056W        W33430   0.822  24.623   2.286
65057W        W33431  23.496   0.442  11.077
65058W        W33432  44.271  31.444   2.887
65059W        W33433  25.963  29.933  10.477
65060W        W33434  23.182  32.004  12.023
65061W        W33435  19.585  43.995   0.843
65062W        W33436   8.199  35.360  14.469
65063W        W33437  11.136  19.253  10.930
65064W        W33438  38.045  26.596   1.364
65065W        W33439  37.505   1.382   4.255
65066W        W33440  11.352  40.518  13.054
65067W        W33441  37.907  27.459  11.012
65068W        W33442  27.533  26.530   5.225
65069W        W33443  40.904  21.526  12.495
65070W        W33444  24.566   1.918  12.436
65071W        W33445  44.858  23.093  11.111
65072W        W33446  19.556  43.945   3.790
65073W        W33447   2.434  10.286  12.056
65074W        W33448  35.498  10.256   1.805
65075W        W33449  23.079  12.295   3.274
65076W        W33450  38.565  20.597   3.250
65077W        W33451  27.479  38.923   9.993
65078W        W33452  24.219  23.648   0.810
65079W        W33453  10.333  33.063   3.659
65080W        W33454  38.055  37.450  14.987
65081W        W33455  26.701  11.658  12.913
65082W        W33456  42.299  22.525  14.280
65083W        W33457   6.369  13.722  10.953
65084W        W33458  14.114  22.013  13.936
65085W        W33459  11.841   0.972  10.084
65086W        W33460  27.611  31.927  13.050
65087W        W33461  39.372   8.337  11.495
65088W        W33462  20.559   9.316   3.633
65089W        W33463   1.915   5.792   3.359
65090W        W33464  37.493  34.093  11.600
65091W        W33465  16.666  40.019   3.176
65092W        W33466  15.692  20.074  12.485
65093W        W33467  26.693  16.114   1.870
65094W        W33468   1.302  18.218  14.367
65095W        W33469   3.397   7.227  12.859
65096W        W33470  23.205  40.535  14.840
65097W        W33471  39.045  41.935  13.491
65098W        W33472  16.294  10.768   2.411
65099W        W33473  27.042  10.848   0.903
65100W        W33474  20.104  35.957  10.465
65101W        W33475  32.457   0.806   3.686
65102W        W33476  41.486   9.873  12.989
65103W        W33477  14.228   1.837   0.401
65104W        W33478  15.246  37.945  10.576
65105W        W33479  27.653  22.092  14.492
65106W        W33480  35.064  17.580   3.690
65107W        W33481  31.091  39.448  12.408
65108W        W33482  22.188  36.852   2.771
65109W        W33483  33.515  21.525   4.745
65110W        W33484  28.478  20.168   1.356
65111W        W33485  40.382  38.852  10.126
65112W        W33486  19.246  39.362   2.338
65113W        W33487  38.026  33.611   0.255
65114W        W33488  29.089   2.271  12.895
65115W        W33489   4.279  33.451   1.908
65116W        W33490  37.357   5.203  10.963
65117W        W33491  12.782  31.989   0.750
65118W        W33492  17.084  43.296  10.606
65119W        W33493  24.200  17.622  14.775
65120W        W33494  14.213   1.435   1.724
65121W        W33495  37.485  27.186  14.965
65122W        W33496   4.245  42.413   0.944
65123W        W33497  32.940  14.776   0.383
65124W        W33498   1.417  20.666  14.427
65125W        W33499  14.596  43.277  12.448
65126W        W33500  15.227  18.165   3.659
65127W        W33501  23.546  21.548  12.923
65128W        W33502  20.689  21.182   2.231
65129W        W33503   2.958   7.361   3.371
65130W        W33504  15.253  20.601   1.213
65131W        W33505  30.491  35.536   0.909
65132W        W33506  44.821  32.561  13.355
65133W        W33507  28.053  41.985  12.834
65134W        W33508   7.843  19.546   4.294
65135W        W33509   6.275  35.522  10.988
65136W        W33510   6.278  37.449  11.576
65137W        W33511   8.329  18.777   0.389
65138W        W33512  23.716  38.555  11.054
65139W        W33513  14.296  34.564   1.405
65140W        W33514  22.732  25.574  11.512
65141W        W33515   2.780  44.903   1.349
65142W        W33516  28.047  28.669   3.662
65143W        W33517  13.697  38.551   4.170
65144W        W33518   3.845  10.157   0.782
65145W        W33519  12.160  22.124  11.918
65146W        W33520  37.380  35.473  11.105
65147W        W33521  36.061  42.452  12.355
65148W        W33522  36.485   9.718   2.269
65149W        W33523  40.028   6.296   3.313
65150W        W33524  39.028  12.213   2.772
65151W        W33525  27.040   7.704  13.411
65152W        W33526  39.330  31.911  13.826
65153W        W33527  22.134   3.335  14.382
65154W        W33528  41.509   9.225  12.412
65155W        W33529  11.287   9.824   4.731
65156W        W33530  20.553  11.813   4.691
65157W        W33531  19.581  37.579   4.765
65158W        W33532  42.355  39.392   3.303
65159W        W33533  20.151   7.219  13.970
65160W        W33534  14.618  39.940  13.886
65161W        W33535  27.094   6.390  11.497
65162W        W33536   2.902  36.878   1.724
65163W        W33537   2.874  12.200   4.701
65164W        W33538  38.919  25.175  10.126
65165W        W33539  24.486  22.242  12.851
65166W        W33540  39.990  31.094   4.351
65167W        W33541  17.198  42.961  11.101
65168W        W33542  25.058  40.320  11.883
65169W        W33543  31.038  23.215   4.268
65170W        W33544  13.784  35.039   2.346
65171W        W33545  38.991  30.055   4.728
65172W        W33546   9.753  11.318  11.978
65173W        W33547   6.418  30.911   3.777
65174W        W33548  27.103  37.075   3.693
65175W        W33549   3.874  12.683   2.388
65176W        W33550   0.865  15.245  11.124
65177W        W33551  40.342  22.039  11.454
65178W        W33552  38.570  33.383  14.337
65179W        W33553  10.700  43.915   0.866
65180W        W33554  26.208  11.696  11.586
65181W        W33555   6.781  30.423   0.874
65182W        W33556  25.651  26.197   3.189
65183W        W33557   2.327  24.191   3.860
65184W        W33558  28.957  15.678  12.896
65185W        W33559  18.788  44.357   3.189
65186W        W33560   8.667  16.576   3.735
65187W        W33561  36.351  33.479   1.823
65188W        W33562   6.193  29.460   4.678
65189W        W33563  21.659  38.474  13.970
65190W        W33564   0.936  32.004  11.934
65191W        W33565  21.259  35.426   4.281
65192W        W33566  20.033  40.020  10.959
65193W        W33567  34.373  14.796   1.260
65194W        W33568  31.045  40.034  11.856
65195W        W33569   6.418  35.441   3.168
65196W        W33570  14.138  41.920   3.780
65197W        W33571  20.147  30.468  10.990
65198W        W33572  33.449   2.845   2.802
65199W        W33573  13.650  14.181   0.831
65200W        W33574   1.293   1.955  12.438
65201W        W33575   6.315  43.438  12.514
65202W        W33576  12.282  12.133   0.354
65203W        W33577   6.347  37.844  13.062
65204W        W33578  16.125   5.200  10.411
65205W        W33579  14.146  22.677   0.764
65206W        W33580  29.635  20.645  13.964
65207W        W33581   9.732  29.644  12.839
65208W        W33582  30.580  10.675  12.933
65209W        W33583  42.515  28.599  14.021
65210W        W33584  41.421  24.181   3.791
65211W        W33585  21.601  18.722  12.428
65212W        W33586  35.006  34.912   4.210
65213W        W33587   3.334  27.634   3.854
65214W        W33588  22.013  18.279   4.660
65215W        W33589  44.804  35.597   0.937
65216W        W33590  42.374   3.351   4.319
65217W        W33591   6.799  32.435  11.406
65218W        W33592  30.472  28.564   1.705
65219W        W33593   7.865  11.764   3.726
65220W        W33594   8.386  41.932   3.777
65221W        W33595  23.097   4.305  11.112
65222W        W33596  19.101  19.109   2.778
65223W        W33597   4.777  17.072  13.514
65224W        W33598   4.281  33.449   3.321
65225W        W33599  23.736   8.243  14.823
65226W        W33600  25.563  31.451   3.865
65227W        W33601  39.437  15.788   2.668
65228W        W33602  42.861  18.174  12.846
65229W        W33603  17.562   1.938  12.845
65230W        W33604  32.473  14.182   3.259
65231W        W33605  26.555   4.315   4.655
65232W        W33606  34.926  10.287   3.264
65233W        W33607  15.693  40.866  13.881
65234W        W33608  14.605  35.458  11.537
65235W        W33609  13.209  27.977   5.255
65236W        W33610   3.830  34.935  12.445
65237W        W33611   7.864  13.724  10.436
65238W        W33612   6.714   8.160  13.915
65239W        W33613   2.788  26.494   4.771
65240W        W33614  33.987  21.205  12.908
65241W        W33615  30.998  40.888  14.456
65242W        W33616  25.700  36.416  14.834
65243W        W33617  12.653  42.850   1.766
65244W        W33618   5.392   3.841   2.370
65245W        W33619  19.159   8.804  11.576
65246W        W33620  29.166  38.478   2.788
65247W        W33621  43.434   3.810  13.945
65248W        W33622  13.307  29.526   2.740
65249W        W33623  41.377  18.201  11.415
65250W        W33624  41.957  28.166  10.453
65251W        W33625  44.841  38.465   2.296
65252W        W33626   6.312  20.645   0.268
65253W        W33627  38.535  27.660  12.516
65254W        W33628  21.649  32.039   0.728
65255W        W33629  18.559   7.686  13.382
65256W        W33630   4.255  19.252   3.146
65257W        W33631  40.436  34.392   4.169
65258W        W33632   2.247  23.052  12.548
65259W        W33633   7.216   0.885  10.425
65260W        W33634  36.006  34.945   4.829
65261W        W33635  41.972   9.676   2.246
65262W        W33636  30.093  10.149  12.413
65263W        W33637  30.997  14.818  10.472
65264W        W33638  27.023   8.818  11.469
65265W        W33639  32.122  37.839  13.906
65266W        W33640  29.059   4.911  13.311
65267W        W33641  30.427  14.105   1.725
65268W        W33642  33.523   8.208  13.393
65269W        W33643  27.542  12.658   2.359
65270W        W33644  29.488  43.781   4.341
65271W        W33645   6.403  21.262   3.811
65272W        W33646  10.214   3.804  12.976
65273W        W33647  42.997  23.122   3.300
65274W        W33648  34.384  10.723  12.923
65275W        W33649  41.844  41.476  11.596
65276W        W33650  36.374  37.399  11.903
65277W        W33651  43.801   6.206   3.702
65278W        W33652  20.256  40.456  12.073
65279W        W33653  12.636  44.844  14.475
65280W        W33654  33.026  11.864  14.467
65281W        W33655  42.775  30.083   1.415
65282W        W33656  44.806  16.284   3.745
65283W        W33657  27.547  14.218   3.773
65284W        W33658  33.113  29.574  10.990
65285W        W33659   5.772  26.035   0.467
65286W        W33660  41.824  17.268  11.386
65287W        W33661  43.312  37.021   0.395
65288W        W33662  12.655  27.484  11.943
65289W        W33663   5.907  26.058  12.886
65290W        W33664  16.181  19.149  10.443
65291W        W33665  34.065  43.422  10.524
65292W        W33666  35.936  44.386   3.334
65293W        W33667  33.468  17.198  12.374
65294W        W33668  19.584  15.660  11.861
65295W        W33669  36.501  38.959   3.836
65296W        W33670  27.576  38.960  12.071
65297W        W33671  10.189  23.718   2.416
65298W        W33672  32.512  26.609   0.910
65299W        W33673  16.195  30.485  12.086
65300W        W33674  33.054  38.379   1.335
65301W        W33675  37.933  35.070   2.852
65302W        W33676  18.699  16.268  14.332
65303W        W33677  38.937  33.930  14.787
65304W        W33678   5.799  16.791  11.912
65305W        W33679  13.724   5.374  14.423
65306W        W33680  32.920  32.548   1.765
65307W        W33681  19.551  10.216   5.257
65308W        W33682  37.066  19.134  10.516
65309W        W33683  24.032  21.592  11.027
65310W        W33684  15.267  21.645  11.503
65311W        W33685   0.890   0.864  11.428
65312W        W33686  19.600  41.879   2.708
65313W        W33687   9.868  42.406   1.224
65314W        W33688  18.237  39.328   0.922
65315W        W33689  41.924  29.086  11.386
65316W        W33690  22.193  43.273  13.875
65317W        W33691  19.734  39.502   3.375
65318W        W33692  27.641   2.761   0.791
65319W        W33693  44.485  13.330   0.964
65320W        W33694  35.965  37.009  11.863
65321W        W33695  43.807   5.877   3.764
65322W        W33696   6.376   4.745  11.492
65323W        W33697  39.541   7.356  13.337
65324W        W33698  32.896  29.157   2.302
65325W        W33699  41.835  13.154   0.480
65326W        W33700  42.398  30.610  14.446
65327W        W33701  31.136  27.976  13.993
65328W        W33702  24.491  17.159   9.932
65329W        W33703   1.901  25.544   1.407
65330W        W33704   9.692  25.024   2.211
65331W        W33705   2.796  40.962  12.838
65332W        W33706   5.859  16.649   1.254
65333W        W33707  39.423  37.001  13.347
65334W        W33708  27.030  26.976  14.391
65335W        W33709  11.703  37.466  11.547
65336W        W33710  10.689  31.095   3.735
65337W        W33711  35.073   4.883  13.991
65338W        W33712  39.341  10.157  13.828
65339W        W33713   4.210   1.799  10.477
65340W        W33714  31.972  16.639   1.841
65341W        W33715  13.233   6.690   4.328
65342W        W33716  31.031   6.288   1.369
65343W        W33717   4.825  16.766  13.394
65344W        W33718   9.313   1.336  10.455
65345W        W33719  13.179  16.607   2.302
65346W        W33720  36.369  35.943   4.682
65347W        W33721  19.745  39.843  14.513
65348W        W33722   4.825  20.125  11.502
65349W        W33723   1.931  21.124  12.068
65350W        W33724  17.287  29.618  14.881
65351W        W33725  18.782  21.248  10.426
65352W        W33726  41.448  20.550   2.372
65353W        W33727   5.775  31.131   0.912
65354W        W33728  22.702  13.832  10.583
65355W        W33729  19.754   8.205  10.994
65356W        W33730  30.625   1.775   3.323
65357W        W33731   6.329  27.062   4.682
65358W        W33732  20.253  23.605  12.394
65359W        W33733  36.476  27.024   1.345
65360W        W33734  32.935   3.374   1.242
65361W        W33735   4.751  44.414   5.311
65362W        W33736  36.059  15.622   1.883
65363W        W33737   9.877   3.855  12.569
65364W        W33738  22.175  37.429  11.919
65365W        W33739  37.510  44.283   1.310
65366W        W33740  28.159  18.198   4.698
65367W        W33741  29.513  32.021  12.896
65368W        W33742  27.578  37.576  11.534
65369W        W33743  44.962  43.422  14.315
65370W        W33744  24.487  42.858   2.308
65371W        W33745  10.632  29.644  14.982
65372W        W33746  27.515   1.418   9.598
65373W        W33747  44.966  36.086  12.889
65374W        W33748  22.217  22.501   4.827
65375W        W33749  37.453  22.594  12.443
65376W        W33750  32.972  19.662   1.319
65377W        W33751  41.830   8.709   5.188
65378W        W33752  44.981   5.815   2.362
65379W        W33753  26.977  32.431  13.918
65380W        W33754  31.581  38.853   4.779
65381W        W33755  17.297  11.197  12.443
65382W        W33756  11.775  14.295   0.884
65383W        W33757   1.925  40.316   1.774
65384W        W33758  23.578  32.522   3.701
65385W        W33759  30.014  23.648   3.848
65386W        W33760  26.640  19.653   1.211
65387W        W33761  42.388  25.968   1.889
65388W        W33762   1.765  21.128  10.522
65389W        W33763   1.238  28.089  11.385
65390W        W33764  10.864  12.345   1.797
65391W        W33765  36.013  42.985   2.834
65392W        W33766  25.003  23.104  14.992
65393W        W33767  30.545  20.034   0.962
65394W        W33768  14.233  42.457  11.009
65395W        W33769  28.933  42.359   0.385
65396W        W33770  19.541  27.567   2.374
65397W        W33771  31.031  37.406   2.179
65398W        W33772  33.443  25.500   0.745
65399W        W33773  39.874   1.470  11.016
65400W        W33774   5.297  35.002   0.769
65401W        W33775  32.095  32.397   4.134
65402W        W33776  39.948  17.143  14.385
65403W        W33777  11.665  29.663   0.827
65404W        W33778  28.114   9.848  14.376
65405W        W33779  25.644  38.012  12.446
65406W        W33780  11.211  31.045  14.807
65407W        W33781  32.931  43.899   0.366
65408W        W33782  41.910   2.950   1.300
65409W        W33783  33.965  31.953  10.503
65410W        W33784   3.274  24.562  11.054
65411W        W33785   2.867  13.172   3.708
65412W        W33786  35.059   9.773   3.306
65413W        W33787  17.561  25.129   5.230
65414W        W33788   0.881   9.267  13.851
65415W        W33789  24.694  11.330   0.847
65416W        W33790  20.695   0.851  10.928
65417W        W33791   4.753   7.665   2.896
65418W        W33792  44.763  27.627   0.854
65419W        W33793  13.800  11.847   1.762
65420W        W33794  21.020  30.977  14.835
65421W        W33795  33.437   2.307  13.965
65422W        W33796  32.615  28.062   1.440
65423W        W33797  31.639  18.759  14.329
65424W        W33798  19.631  26.611  14.959
65425W        W33799  23.652  25.633  14.786
65426W        W33800  10.645   5.929  11.464
65427W        W33801   6.686  35.076   3.296
65428W        W33802   6.703  30.414  12.911
65429W        W33803  44.780  26.026  14.786
65430W        W33804   1.838  22.186   4.694
65431W        W33805   6.738   1.872  12.914
65432W        W33806  36.533  43.509  12.841
65433W        W33807  33.558   6.240  10.472
65434W        W33808   1.869  12.752   3.243
65435W        W33809   5.864   0.462   0.322
65436W        W33810  24.554  11.347   3.640
65437W        W33811  33.548  13.206   0.387
65438W        W33812   5.430  34.587  13.527
65439W        W33813  23.545  37.345  10.589
65440W        W33814  21.695  19.115  14.490
65441W        W33815  24.546  29.638   2.385
65442W        W33816   0.943  22.181  11.457
65443W        W33817   1.359   4.789   2.332
65444W        W33818  24.634  15.087  10.631
65445W        W33819  36.946  42.842   4.326
65446W        W33820  17.268   3.951   3.313
65447W        W33821  40.508   7.246  14.763
65448W        W33822  13.312  32.916   4.731
65449W        W33823  12.613  39.940  11.885
65450W        W33824   1.243  25.206  12.507
65451W        W33825  31.465  24.210   0.252
65452W        W33826   6.283   4.242   4.213
65453W        W33827  17.225  38.549   2.772
65454W        W33828   0.419   1.306   1.804
65455W        W33829  20.069  31.086   0.352
65456W        W33830  27.496  33.622   1.768
65457W        W33831  28.567  42.031  12.907
65458W        W33832  27.993  44.913   3.349
65459W        W33833  36.867  21.515   3.263
65460W        W33834  29.007  19.117   1.375
65461W        W33835   6.376  27.964  10.993
65462W        W33836  26.466   9.182   3.821
65463W        W33837  35.579  40.350  14.027
65464W        W33838  10.851  30.926   3.348
65465W        W33839   7.198  23.672  10.084
65466W        W33840  14.813   6.261  14.797
65467W        W33841   7.737  11.834   0.307
65468W        W33842  19.727  22.744  14.001
65469W        W33843  37.546  39.430   4.620
65470W        W33844   5.420   9.326  12.505
65471W        W33845  16.196  10.353  12.406
65472W        W33846  23.089  32.897   3.164
65473W        W33847  26.124  40.821  12.470
65474W        W33848  38.997  27.111  14.280
65475W        W33849  23.589  26.674   3.298
65476W        W33850   9.351  19.262   3.231
65477W        W33851   9.259  25.626  14.439
65478W        W33852  33.989  11.231   4.723
65479W        W33853  14.830  36.082   3.837
65480W        W33854  38.015  42.998   5.273
65481W        W33855  27.585   1.793   2.880
65482W        W33856  37.437   8.308   3.230
65483W        W33857   6.896  20.667  11.005
65484W        W33858  20.251  32.461  14.301
65485W        W33859  21.093  10.648   3.222
65486W        W33860  42.305  18.143  10.990
65487W        W33861  23.193  17.639  11.091
65488W        W33862  35.034  14.681   1.250
65489W        W33863  15.684  16.232  12.057
65490W        W33864  15.776  42.445  11.950
65491W        W33865  28.442   3.294  13.028
65492W        W33866  21.148  31.433  13.903
65493W        W33867   7.671   5.220   2.827
65494W        W33868  16.236  16.259  12.951
65495W        W33869  37.485  28.151  11.549
65496W        W33870  38.962  31.143   0.253
65497W        W33871  29.459  27.053   1.736
65498W        W33872   2.815  31.921   2.245
65499W        W33873  15.180  21.650   2.233
65500W        W33874  35.546   6.318   4.125
65501W        W33875  29.615  12.809   0.287
65502W        W33876  24.699  43.318  12.054
65503W        W33877   0.345  15.220  12.550
65504W        W33878  32.920  32.998  13.332
65505W        W33879  16.753  28.001  10.896
65506W        W33880  43.799  40.479  12.534
65507W        W33881  21.253  10.831  14.837
65508W        W33882  42.014  30.080  10.553
65509W        W33883  27.181  35.989   2.708
65510W        W33884  29.460   1.749   3.353
65511W        W33885  41.024  19.608  11.582
65512W        W33886   6.369  28.139  11.446
65513W        W33887  22.565  32.988   0.880
65514W        W33888  30.503  44.902  11.534
65515W        W33889  23.673  13.843   3.742
65516W        W33890  14.653   1.282   1.298
65517W        W33891  31.087  21.566   2.766
65518W        W33892  25.667  18.723   2.324
65519W        W33893   6.863  17.081   3.221
65520W        W33894  25.495  27.481   0.479
65521W        W33895  44.500  39.903   4.646
65522W        W33896  39.369  19.251  12.455
65523W        W33897  30.050  22.720   3.823
65524W        W33898   0.936   9.225   1.413
65525W        W33899  18.660  20.092   1.299
65526W        W33900   8.319  36.540  14.457
65527W        W33901   8.337  39.513   3.245
65528W        W33902  30.536  34.093  11.447
65529W        W33903  20.603  39.489  14.004
65530W        W33904  13.300  21.250  10.511
65531W        W33905   4.344  26.007   4.171
65532W        W33906  24.167  19.260   2.706
65533W        W33907  33.513  37.578  13.334
65534W        W33908  13.830   0.398   2.788
65535W        W33909  34.429  10.236   0.728
65536W        W33910  30.913   2.414   2.825
65537W        W33911  15.749   7.388   0.330
65538W        W33912   7.771  30.658   9.656
65539W        W33913   3.772   2.307  14.504
65540W        W33914  24.053   0.460   3.289
65541W        W33915   1.922  34.040   4.131
65542W        W33916  32.514  31.022  13.821
65543W        W33917  39.427   7.293  10.566
65544W        W33918  28.030  19.639   0.409
65545W        W33919   4.739  28.571   4.341
65546W        W33920  33.616  18.269  13.508
65547W        W33921  13.208   8.282   5.620
65548W        W33922  12.722  23.594   4.631
65549W        W33923  38.975  29.535  13.802
65550W        W33924  28.005  11.314   1.233
65551W        W33925  24.007  29.586  14.464
65552W        W33926  28.445  14.169  11.040
65553W        W33927   7.232  24.121   0.364
65554W        W33928  40.496  44.396  14.435
65555W        W33929   4.385  27.158  10.959
65556W        W33930  22.592  24.226   4.259
65557W        W33931  41.002   3.776   0.876
65558W        W33932  15.741   6.890  11.544
65559W        W33933  17.274  28.945  12.910
65560W        W33934  38.356  18.264   1.720
65561W        W33935  26.098  32.497   4.790
65562W        W33936  39.419   4.228  13.950
65563W        W33937  43.775  28.178   2.882
65564W        W33938   9.281  20.072   0.928
65565W        W33939   8.747  37.851   3.193
65566W        W33940   8.331  29.515   1.429
65567W        W33941   8.787  40.327  13.030
65568W        W33942  34.900  29.509  12.987
65569W        W33943   9.822  13.727  12.526
65570W        W33944  32.994  30.414  12.918
65571W        W33945  19.604  40.475  11.865
65572W        W33946  11.723  31.624  11.952
65573W        W33947   9.671  14.833   2.715
65574W        W33948  23.205  15.634  11.397
65575W        W33949  23.137  24.658   4.674
65576W        W33950  11.131  44.437  12.469
65577W        W33951   2.812  23.183  13.972
65578W        W33952   8.779  35.580  12.030
65579W        W33953  33.469  36.458  13.972
65580W        W33954  32.949  19.164  10.562
65581W        W33955   3.874  14.828  13.856
65582W        W33956  37.926  16.769   3.361
65583W        W33957  15.694  19.643   0.385
65584W        W33958  37.081   2.803   4.303
65585W        W33959  17.251  28.628  13.354
65586W        W33960  30.566  42.411   1.395
65587W        W33961  14.653  39.034   4.630
65588W        W33962  34.958  21.745  12.548
65589W        W33963  41.508  21.248   9.957
65590W        W33964  44.313  32.475   2.805
65591W        W33965  39.938   5.415  12.901
65592W        W33966  24.178  26.629   1.773
65593W        W33967  15.726  30.506   2.801
65594W        W33968   8.189   0.429  13.051
65595W        W33969  38.460  19.285   1.879
65596W        W33970   8.840   1.453   2.709
65597W        W33971  33.128   5.211   1.317
65598W        W33972  29.425   4.755   2.225
65599W        W33973  36.900  33.910   2.374
65600W        W33974   3.244   2.461   5.086
65601W        W33975  28.480  20.230  13.922
65602W        W33976  16.593   6.760  11.011
65603W        W33977  37.442   0.895   3.739
65604W        W33978  43.930   5.915   2.827
65605W        W33979  25.113   1.341  13.893
65606W        W33980  42.304   1.961   3.240
65607W        W33981  30.584  38.366   0.792
65608W        W33982  25.542  36.053  10.122
65609W        W33983   4.341  25.588  11.477
65610W        W33984  35.358  42.467   1.286
65611W        W33985  42.463  28.534  11.885
65612W        W33986   9.765  13.300  14.948
65613W        W33987  41.042  43.817  10.438
65614W        W33988  36.416  20.125   0.465
65615W        W33989  41.898  23.172  12.001
65616W        W33990  21.737  11.346  10.474
65617W        W33991  15.586  43.405  14.443
65618W        W33992  42.931  43.298   4.317
65619W        W33993  24.581  31.597   1.704
65620W        W33994  35.401   2.842   2.873
65621W        W33995  22.121  44.859  10.985
65622W        W33996  14.129  13.689   1.388
65623W        W33997  42.472  26.688   1.417
65624W        W33998  23.080  39.471  13.034
65625W        W33999  18.296  34.929  11.441
65626W        W34000  12.644   8.249  11.525
65627W        W34001  19.082  18.217   1.758
65628W        W34002  35.885   3.810   2.376
65629W        W34003  43.439  15.697   1.744
65630W        W34004  31.587  14.179  10.458
65631W        W34005  42.808  23.633  13.055
65632W        W34006  20.197   0.411   4.233
65633W        W34007  12.233  14.828   0.926
65634W        W34008  26.548  33.496   1.751
65635W        W34009   5.836  14.819   3.829
65636W        W34010  21.717  10.218   3.777
65637W        W34011  16.612  11.249   4.815
65638W        W34012  27.946  24.019  14.288
65639W        W34013  39.525  39.317  14.837
65640W        W34014  12.217   9.676  12.506
65641W        W34015  15.792  20.552   2.301
65642W        W34016  13.147  15.314   0.243
65643W        W34017   9.881  21.261   2.737
65644W        W34018  16.087  39.909   2.319
65645W        W34019  44.447  37.061  10.560
65646W        W34020   4.841   0.248   0.935
65647W        W34021   9.879  36.999   2.891
65648W        W34022  13.840  19.592  11.466
65649W        W34023  42.028  27.127   3.717
65650W        W34024  26.480   8.213   3.726
65651W        W34025   9.686  19.594  14.848
65652W        W34026  27.126  27.025   2.356
65653W        W34027  42.800  18.201  14.414
65654W        W34028  37.987  37.437  10.617
65655W        W34029  27.521  17.241   1.442
65656W        W34030   5.768  36.361   2.292
65657W        W34031  39.902  41.928  11.391
65658W        W34032   6.216   2.414   4.669
65659W        W34033  35.425  31.517   1.397
65660W        W34034   4.878  34.074   2.709
65661W        W34035  15.099  10.763   2.179
65662W        W34036  39.957  16.120  13.458
65663W        W34037   9.184  17.632   4.335
65664W        W34038  36.885   7.721  10.421
65665W        W34039  25.056  27.049   0.939
65666W        W34040  39.335  23.723   0.367
65667W        W34041  37.500  37.971  12.095
65668W        W34042  12.187  20.150  12.575
65669W        W34043  32.921  10.794  13.502
65670W        W34044  38.963  13.156  13.922
65671W        W34045  36.959  11.764  10.417
65672W        W34046  15.635  40.482  10.643
65673W        W34047  31.002  32.507   0.399
65674W        W34048  12.763   6.330  10.495
65675W        W34049  14.669  29.651  13.061
65676W        W34050  21.575   5.256   0.817
65677W        W34051   9.267  43.916  10.437
65678W        W34052  11.718  12.188  13.484
65679W        W34053  34.591   8.810   1.364
65680W        W34054  26.992  43.399   2.259
65681W        W34055   8.350  36.847   3.657
65682W        W34056  16.661  31.056  12.929
65683W        W34057  32.038   2.745   3.168
65684W        W34058  36.524   2.806  11.613
65685W        W34059  43.500  16.303  14.338
65686W        W34060  40.874  36.039   3.815
65687W        W34061  20.070  20.265   4.776
65688W        W34062  10.725  33.569  11.424
65689W        W34063   3.330  44.887   3.298
65690W        W34064   0.486  23.074   1.250
65691W        W34065  20.180  40.922   2.215
65692W        W34066  35.544   8.372  13.801
65693W        W34067  32.939  18.671  12.562
65694W        W34068  26.660  33.015  10.531
65695W        W34069  44.761  42.489  13.811
65696W        W34070  14.756  38.484  12.579
65697W        W34071  15.113   9.824  14.405
65698W        W34072  23.229  40.505  10.974
65699W        W34073  25.970  36.566  10.480
65700W        W34074  28.493  42.952  13.974
65701W        W34075   5.925  15.218   2.746
65702W        W34076  31.106  14.663   1.696
65703W        W34077  35.930  39.340  14.494
65704W        W34078  13.265  22.522  14.815
65705W        W34079  42.899  30.651  12.532
65706W        W34080  13.719  40.852   4.835
65707W        W34081  13.248   3.933   4.281
65708W        W34082  42.934  34.475  10.640
65709W        W34083   4.781  30.970  13.823
65710W        W34084  20.049   3.806   1.879
65711W        W34085  33.598  38.975   4.662
65712W        W34086   3.949  44.841  14.839
65713W        W34087  22.130  43.945   0.816
65714W        W34088   2.441  25.565  14.881
65715W        W34089  11.753   1.757   2.803
65716W        W34090   1.772  23.536   3.725
65717W        W34091  12.205  42.320   3.684
65718W        W34092  18.081  14.788   0.363
65719W        W34093   2.420  22.040  13.444
65720W        W34094  10.212  12.828  11.968
65721W        W34095  24.111  23.193  12.892
65722W        W34096  41.339  11.695  12.526
65723W        W34097  15.184  17.123  12.463
65724W        W34098  34.034   7.850   3.348
65725W        W34099  16.275  32.536   0.835
65726W        W34100  17.062  19.232   3.673
65727W        W34101  30.444   3.397   2.250
65728W        W34102  27.675  13.212   3.683
65729W        W34103  40.459   6.247  10.603
65730W        W34104  13.344  35.883   2.887
65731W        W34105  23.001  18.080  13.877
65732W        W34106  40.350  27.533   4.754
65733W        W34107   0.816  34.881   3.774
65734W        W34108  21.081  14.725  13.366
65735W        W34109  44.464  22.193   2.274
65736W        W34110  29.456   1.379  11.414
65737W        W34111   2.359  15.811  14.879
65738W        W34112   9.777  28.068  10.923
65739W        W34113  15.587  31.498   0.352
65740W        W34114  20.622  17.100   0.383
65741W        W34115  22.092  34.598  10.938
65742W        W34116  40.511  25.048  14.924
65743W        W34117  35.061  34.990  14.876
65744W        W34118   4.839  18.259   1.771
65745W        W34119   7.752  12.735  12.524
65746W        W34120  43.782  17.568   3.240
65747W        W34121  16.791   8.772  14.469
65748W        W34122  32.073  27.956  10.485
65749W        W34123  13.739  37.016   1.237
65750W        W34124  42.891   1.453  13.445
65751W        W34125  27.563  32.050  13.870
65752W        W34126  24.573  24.638  12.546
65753W        W34127  17.141  33.608  10.522
65754W        W34128   3.245   7.729   4.620
65755W        W34129  37.065  17.125   3.210
65756W        W34130   9.188  19.775   2.262
65757W        W34131   1.873  38.902   4.634
65758W        W34132  20.728  36.502  14.983
65759W        W34133  41.981   7.191   4.176
65760W        W34134  33.614  20.205  13.539
65761W        W34135  27.460  27.644   3.759
65762W        W34136  24.656   5.790  10.624
65763W        W34137  16.697   9.373   3.657
65764W        W34138  39.848  37.351  10.941
65765W        W34139   7.397  20.121  12.403
65766W        W34140  14.115  25.668   4.241
65767W        W34141  39.364  38.915  11.574
65768W        W34142  35.890  30.072  10.995
65769W        W34143   9.876  39.952  14.989
65770W        W34144  20.552  33.999  13.430
65771W        W34145  20.741  29.652  13.931
65772W        W34146  29.587  11.281   0.916
65773W        W34147   2.391   3.838  11.933
65774W        W34148  19.581  15.628   4.158
65775W        W34149  37.422  32.941  12.379
65776W        W34150   8.306  28.605   0.853
65777W        W34151  11.723  23.101  12.084
65778W        W34152   9.287   0.791   3.255
65779W        W34153  26.186  16.107   1.436
65780W        W34154  12.253  42.490   1.300
65781W        W34155   6.686  25.989  12.972
65782W        W34156  40.875  31.429   2.859
65783W        W34157  36.474  28.463   3.692
65784W        W34158  33.999  10.176   3.247
65785W        W34159   5.359  42.928   1.772
65786W        W34160  35.088  17.095   2.256
65787W        W34161  32.902  17.671  14.821
65788W        W34162  30.618   8.208  12.036
65789W        W34163  29.581   1.851   1.709
65790W        W34164  34.966  13.607  14.378
65791W        W34165  18.664  20.169   3.636
65792W        W34166  20.036   8.401   2.296
65793W        W34167   0.873   4.889  10.466
65794W        W34168  10.647  20.031  10.570
65795W        W34169  35.947   0.873  14.944
65796W        W34170  28.121  12.638  11.426
65797W        W34171  17.691  10.739  10.428
65798W        W34172  43.006  34.450  11.969
65799W        W34173  32.885  32.442  10.430
65800W        W34174  41.387  14.730  13.960
65801W        W34175  31.073  37.891   3.823
65802W        W34176  41.362  16.724  12.843
65803W        W34177   3.251  34.590   1.841
65804W        W34178  32.519  43.801   4.617
65805W        W34179  13.136  16.083   0.767
65806W        W34180  14.258  25.159   3.646
65807W        W34181   4.352  13.314   3.807
65808W        W34182   3.722  31.925   4.327
65809W        W34183   7.888  40.327   2.334
65810W        W34184  29.152  22.747   2.709
65811W        W34185  17.653  24.689  13.399
65812W        W34186   1.903  22.159   3.689
65813W        W34187  32.540  30.037   1.352
65814W        W34188  40.962   1.732   2.839
65815W        W34189   1.481   4.384   3.247
65816W        W34190   0.359  32.525   3.845
65817W        W34191  32.547  19.191  11.020
65818W        W34192  39.964  26.597  13.524
65819W        W34193   8.302   4.373  13.527
65820W        W34194   8.184  38.829   0.430
65821W        W34195  35.557  16.266   1.742
65822W        W34196   9.665   4.844   0.802
65823W        W34197  27.483   1.927  11.055
65824W        W34198  18.229  31.112   1.761
65825W        W34199  43.456  29.501  14.291
65826W        W34200  15.160  16.172  13.986
65827W        W34201  33.584  19.181  14.867
65828W        W34202  28.989  20.712  13.836
65829W        W34203  33.068  36.031   2.701
65830W        W34204  37.340  31.080  14.314
65831W        W34205  40.933  15.727  11.957
65832W        W34206  18.174  19.169   3.782
65833W        W34207  12.324  10.869  13.933
65834W        W34208  10.232  33.906  10.058
65835W        W34209  36.589   2.890  11.076
65836W        W34210  13.692  16.759  14.381
65837W        W34211  32.026  12.795   3.849
65838W        W34212  39.824  42.966  12.425
65839W        W34213  18.666  24.660   0.280
65840W        W34214   9.851  28.641  10.925
65841W        W34215   5.219  15.577   4.624
65842W        W34216   4.399  42.819   3.654
65843W        W34217  14.776   1.845  12.888
65844W        W34218  11.259  14.812  10.561
65845W        W34219  35.600   2.962   4.723
65846W        W34220  36.094  32.098   4.743
65847W        W34221  42.470  31.925   4.750
65848W        W34222  29.125  26.081   0.795
65849W        W34223  12.759   3.339  11.128
65850W        W34224   1.858  25.705  11.888
65851W        W34225   2.759  12.316  10.533
65852W        W34226  27.479  43.476  11.577
65853W        W34227  18.596  23.673  10.021
65854W        W34228  11.242  31.520  12.552
65855W        W34229   6.888  32.095  11.036
65856W        W34230  36.572   7.202   2.729
65857W        W34231  18.129  40.998   3.685
65858W        W34232  19.735  24.480  11.101
65859W        W34233  13.176  36.410   0.257
65860W        W34234  44.925  26.985   4.304
65861W        W34235  10.147   4.853  10.642
65862W        W34236  39.937  15.651   3.178
65863W        W34237  10.243  31.608  14.357
65864W        W34238  33.604   5.286   0.262
65865W        W34239  41.481   8.283  14.965
65866W        W34240   7.756  27.100  10.448
65867W        W34241  15.673  32.060   2.839
65868W        W34242  15.646  14.254  11.975
65869W        W34243  26.685  27.544  13.536
65870W        W34244   8.165  17.577  10.611
65871W        W34245   8.862  40.950   0.293
65872W        W34246  30.915  41.904   2.354
65873W        W34247  32.507  42.822   4.171
65874W        W34248  43.448  22.512  11.032
65875W        W34249  11.622  31.470  12.537
65876W        W34250  15.186  27.485  11.392
65877W        W34251   7.826  24.563   2.715
65878W        W34252   7.747  13.317   3.714
65879W        W34253  14.831  21.073   1.710
65880W        W34254  29.933  10.257   1.339
65881W        W34255   1.887  41.437   3.235
65882W        W34256  44.807  33.602  12.454
65883W        W34257  18.073  42.881  14.798
65884W        W34258  21.598  13.791   2.662
65885W        W34259   0.344  19.548   2.852
65886W        W34260   7.259  22.506  13.339
65887W        W34261  21.100  21.197   1.281
65888W        W34262  26.627  18.644   0.767
65889W        W34263   7.334  36.548  13.935
65890W        W34264  34.513  16.621   0.778
65891W        W34265  34.958  24.083   2.899
65892W        W34266  27.539  11.164   3.681
65893W        W34267  33.028   3.347  11.493
65894W        W34268  34.072  25.079  11.983
65895W        W34269  42.336  40.486   4.309
65896W        W34270  42.922  38.518   4.322
65897W        W34271  16.081  14.642   2.712
65898W        W34272  32.992  39.368   0.903
65899W        W34273  21.713  18.275   4.697
65900W        W34274  39.365  15.149   2.332
65901W        W34275  22.208   1.928   4.770
65902W        W34276  30.651  30.609  12.897
65903W        W34277  28.547  35.098  11.445
65904W        W34278   2.738   0.851   3.383
65905W        W34279   1.437  31.909  11.029
65906W        W34280  29.471  38.477   3.307
65907W        W34281  15.729  32.889   3.244
65908W        W34282  15.215   4.738  14.791
65909W        W34283  10.281  12.672  10.622
65910W        W34284  11.225  35.361  13.927
65911W        W34285  30.921   8.302  10.541
65912W        W34286  10.768  33.044   4.671
65913W        W34287  22.567  28.953   3.288
65914W        W34288  22.683  37.849  13.050
65915W        W34289  22.571  20.600  12.459
65916W        W34290  10.322  28.952   4.695
65917W        W34291  18.566  10.865   3.727
65918W        W34292  40.816  25.495   4.302
65919W        W34293  37.565  30.951   2.241
65920W        W34294  33.998   4.901   0.924
65921W        W34295   5.204  25.016  12.903
65922W        W34296  35.419  33.428   3.676
65923W        W34297  44.399   3.936  14.003
65924W        W34298   6.793  19.086   2.212
65925W        W34299   2.348  19.116   4.203
65926W        W34300  23.525  21.071  13.942
65927W        W34301  27.569   7.353   1.886
65928W        W34302   8.866  10.839  10.553
65929W        W34303  27.161   9.650   0.808
65930W        W34304  25.713   8.202   2.416
65931W        W34305  43.461  34.986   2.848
65932W        W34306  42.521  20.646   4.619
65933W        W34307  19.227   3.929   2.804
65934W        W34308  20.762  24.691  14.971
65935W        W34309  13.779   4.860   4.775
65936W        W34310  34.017  43.389  13.023
65937W        W34311   9.730  44.306  11.542
65938W        W34312  22.248  36.469   3.760
65939W        W34313  21.733   0.441  13.843
65940W        W34314  28.508  40.451   4.173
65941W        W34315  25.189  25.218   3.238
65942W        W34316  16.688  34.494   3.387
65943W        W34317  29.047  23.638   1.445
65944W        W34318  36.932   5.309   1.782
65945W        W34319  23.608  23.184  10.892
65946W        W34320  25.631   7.776  14.874
65947W        W34321  31.496  24.624   3.823
65948W        W34322   7.386  23.544  12.951
65949W        W34323   8.744  43.428   2.829
65950W        W34324  22.127   9.358   2.859
65951W        W34325  33.040  38.393   2.851
65952W        W34326  40.494  35.991  10.580
65953W        W34327   5.793  17.673   1.229
65954W        W34328  27.566  37.411   3.819
65955W        W34329  43.510  42.004   2.363
65956W        W34330  29.012  27.540   2.408
65957W        W34331   6.861   7.787  10.563
65958W        W34332   8.818   6.735  10.518
65959W        W34333   2.839   6.323  11.519
65960W        W34334  22.574  14.216   2.826
65961W        W34335  41.928  16.180   1.804
65962W        W34336  18.151   7.302  12.408
65963W        W34337  31.121  24.593   2.305
65964W        W34338  12.823   1.769  14.360
65965W        W34339  10.677   6.806   2.829
65966W        W34340  43.454   3.933  13.364
65967W        W34341  43.457  15.221  14.391
65968W        W34342  41.338  40.804  10.502
65969W        W34343  11.300  44.950  11.555
65970W        W34344   8.163  37.044  13.862
65971W        W34345   3.329   3.298  11.020
65972W        W34346  16.249  17.089  11.398
65973W        W34347  27.000  39.316  14.470
65974W        W34348  40.358   0.826   3.343
65975W        W34349  30.488  20.044  13.969
65976W        W34350  11.853  21.537   3.249
65977W        W34351  35.370   8.782  11.909
65978W        W34352  38.064   1.817  12.979
65979W        W34353  11.284   1.830  10.459
65980W        W34354   5.288  24.078  14.364
65981W        W34355  15.094  11.322  11.076
65982W        W34356  20.164  37.056   2.188
65983W        W34357  36.356  44.321   0.259
65984W        W34358  43.785  24.014   0.909
65985W        W34359  11.797   8.329   0.935
65986W        W34360   4.866  27.581  12.551
65987W        W34361  14.821  21.247  12.927
65988W        W34362  33.944  42.811   2.830
65989W        W34363  17.244  18.676  11.063
65990W        W34364  34.493   8.296  14.775
65991W        W34365  13.257  23.649  11.590
65992W        W34366  36.014   5.876   1.825
65993W        W34367  41.967  22.616  12.005
65994W        W34368  18.748  39.848   1.718
65995W        W34369  22.127  11.282   2.850
65996W        W34370  22.732  40.876   1.227
65997W        W34371  25.035  28.150   5.105
65998W        W34372  30.081  11.189  13.932
65999W        W34373  26.572  18.728  10.919
66000W        W34374  38.984  36.355   0.880
66001W        W34375   6.282   7.201   1.239
66002W        W34376  12.194  17.235   4.659
66003W        W34377  16.616  42.367  13.401
66004W        W34378  13.238  41.476  10.604
66005W        W34379  13.819  17.600   4.311
66006W        W34380  23.700  28.981   3.672
66007W        W34381  35.874  13.760  14.898
66008W        W34382  34.067  34.596   3.745
66009W        W34383  27.556  10.662   0.468
66010W        W34384  24.149  24.037  14.967
66011W        W34385  21.696   4.807   1.798
66012W        W34386  36.998  42.951  10.911
66013W        W34387  43.473  14.272   3.245
66014W        W34388   3.920   2.296  14.791
66015W        W34389   6.276  14.235  11.055
66016W        W34390   0.453  29.128   1.259
66017W        W34391   4.898  17.141   1.274
66018W        W34392  35.085  23.089   3.294
66019W        W34393  37.479   1.951   2.408
66020W        W34394  38.375  23.104   2.899
66021W        W34395   3.752  12.683  11.925
66022W        W34396   9.265  28.642   0.921
66023W        W34397  32.982   2.413  12.082
66024W        W34398   4.449  18.189   4.289
66025W        W34399   0.452  15.222   3.323
66026W        W34400  34.455  10.324  14.809
66027W        W34401   8.707  16.211  14.848
66028W        W34402  39.443  18.271   0.729
66029W        W34403  24.684  18.763   2.286
66030W        W34404  42.980  17.684  12.501
66031W        W34405   0.755  21.234   0.448
66032W        W34406  34.020  15.216   2.342
66033W        W34407  15.307  40.396   0.479
66034W        W34408   4.257  38.325   2.713
66035W        W34409   5.872   3.244   2.746
66036W        W34410  25.075  16.079  12.006
66037W        W34411   3.309  16.275  10.541
66038W        W34412  20.234  34.049   2.815
66039W        W34413   9.170   3.265   2.228
66040W        W34414  42.891  28.941  13.942
66041W        W34415   9.237  13.837   2.345
66042W        W34416   4.378  28.534   4.254
66043W        W34417   1.334   6.922   1.292
66044W        W34418  43.462  32.045  14.876
66045W        W34419   7.181  19.683  11.047
66046W        W34420  20.147  37.018  10.961
66047W        W34421  40.454  21.693   0.314
66048W        W34422  23.055   8.666   1.883
66049W        W34423  29.491   8.195   4.167
66050W        W34424  19.193  37.518   4.166
66051W        W34425  43.956   6.345   4.166
66052W        W34426  25.163  22.218   1.720
66053W        W34427  32.432  40.539   2.893
66054W        W34428  11.303   2.732  12.447
66055W        W34429   8.807   9.175   1.876
66056W        W34430  22.136   9.887   0.749
66057W        W34431  13.154  12.833  12.376
66058W        W34432  23.127  40.995   4.774
66059W        W34433   7.265  24.196  13.035
66060W        W34434  43.966  44.427  14.830
66061W        W34435   7.696  16.777   3.706
66062W        W34436  18.091  28.087  14.399
66063W        W34437  30.051  27.025   4.266
66064W        W34438  34.949   5.922   4.759
66065W        W34439  16.746  39.554   2.304
66066W        W34440  23.158  15.713  13.534
66067W        W34441  37.055  19.241   2.879
66068W        W34442  38.488  34.471   0.790
66069W        W34443  33.006  26.021  10.543
66070W        W34444  36.966  11.177  12.557
66071W        W34445  35.365   5.372   3.291
66072W        W34446  44.967   7.809  12.511
66073W        W34447  12.186   2.726  14.976
66074W        W34448  37.064   5.305   4.304
66075W        W34449  14.656  35.599   4.205
66076W        W34450  27.647  19.730  11.061
66077W        W34451  11.642  35.922  12.849
66078W        W34452   8.168  30.016  10.602
66079W        W34453   8.710  27.193   2.198
66080W        W34454  43.799  11.189  11.573
66081W        W34455  26.088  10.344   1.423
66082W        W34456  39.469   2.301   0.360
66083W        W34457  15.674   5.795   4.623
66084W        W34458  40.547  26.973   1.799
66085W        W34459  16.106  13.291   1.412
66086W        W34460   9.334   6.353   0.930
66087W        W34461  18.154  34.431  11.478
66088W        W34462  14.298   1.927   3.230
66089W        W34463  26.564  31.488  10.435
66090W        W34464  39.975   9.341  13.317
66091W        W34465  12.290  17.229  14.439
66092W        W34466   8.401  44.763   1.753
66093W        W34467  40.431  14.761  12.918
66094W        W34468  18.712  31.016  13.846
66095W        W34469   7.782  38.431   0.760
66096W        W34470   7.346  24.594  13.837
66097W        W34471   3.754  11.687   1.887
66098W        W34472  19.218  40.432  10.990
66099W        W34473  19.680  20.032  10.564
66100W        W34474  31.073  13.304   1.398
66101W        W34475   4.783  15.274  12.525
66102W        W34476  29.659   0.949   5.130
66103W        W34477   6.764  43.366  11.115
66104W        W34478   7.818   0.336  10.969
66105W        W34479  18.272  36.049   3.247
66106W        W34480  25.593  27.008   1.249
66107W        W34481  24.561   5.297   2.223
66108W        W34482  35.014  28.113   3.338
66109W        W34483   1.391  29.063   0.847
66110W        W34484   2.789  16.686  11.911
66111W        W34485  18.240  43.848  14.413
66112W        W34486   8.299  13.309  11.963
66113W        W34487  20.670  25.477  10.960
66114W        W34488  18.194  15.155   0.744
66115W        W34489  28.564  33.602  13.864
66116W        W34490  37.449  44.786  13.998
66117W        W34491  41.041   8.351  11.975
66118W        W34492  12.660  29.574  14.810
66119W        W34493  22.163   9.177   3.332
66120W        W34494  18.714  35.865   3.675
66121W        W34495  24.032  24.214   4.314
66122W        W34496  39.430  21.156   3.782
66123W        W34497  32.546  31.626  14.327
66124W        W34498  44.794   2.875   2.717
66125W        W34499  14.243  22.530   2.367
66126W        W34500  11.832  37.036   2.332
66127W        W34501  39.395  24.981  11.062
66128W        W34502  40.357  13.783   0.800
66129W        W34503   8.243  41.973  11.544
66130W        W34504  20.071  15.794  10.419
66131W        W34505  35.567  35.047   2.825
66132W        W34506  26.560  11.710   4.728
66133W        W34507  19.533  23.608   4.822
66134W        W34508  20.129   6.254  10.629
66135W        W34509   8.795  37.970  13.411
66136W        W34510  22.522  41.473  14.795
66137W        W34511  33.995  38.334   3.326
66138W        W34512  12.813  20.660  13.035
66139W        W34513  39.421   0.883  11.379
66140W        W34514  34.933   1.463   4.835
66141W        W34515  17.567  31.551   4.702
66142W        W34516  40.029  27.005   4.704
66143W        W34517  30.995  10.865  10.438
66144W        W34518  12.671  13.745  12.370
66145W        W34519   5.928  33.130   1.704
66146W        W34520   9.262  28.949   4.324
66147W        W34521   0.396  37.574  13.996
66148W        W34522   0.787   3.836  14.290
66149W        W34523  41.809  39.839  10.466
66150W        W34524  37.028  36.950   2.260
66151W        W34525  17.267  42.833   0.736
66152W        W34526  11.828  25.144  11.415
66153W        W34527   0.955  14.231   4.142
66154W        W34528  24.113  12.181   4.310
66155W        W34529  23.232  36.987  10.537
66156W        W34530  30.642   9.748   0.374
66157W        W34531  36.008  24.486  11.458
66158W        W34532  20.707  24.711  14.487
66159W        W34533   3.250  33.060   1.865
66160W        W34534  19.213   0.247  12.494
66161W        W34535  43.958  21.687   3.853
66162W        W34536  18.662   4.338   2.380
66163W        W34537   5.302  11.752   0.830
66164W        W34538  44.298  28.090  10.157
66165W        W34539  44.482   6.906  10.988
66166W        W34540  24.070  23.076  14.364
66167W        W34541  38.389  24.990  10.628
66168W        W34542  18.263   0.307  10.580
66169W        W34543  33.987  10.265   1.762
66170W        W34544  25.019   1.775  13.010
66171W        W34545  18.107  20.272   1.372
66172W        W34546   2.417  13.683   4.726
66173W        W34547  30.938   8.199  12.824
66174W        W34548  12.309  32.546  11.080
66175W        W34549  35.065  41.003   0.756
66176W        W34550  31.067   5.784  12.904
66177W        W34551  27.060  34.033  13.824
66178W        W34552  26.488   2.857  12.360
66179W        W34553  42.921  27.028  14.418
66180W        W34554  28.572  17.688   3.667
66181W        W34555  31.539  37.986  11.459
66182W        W34556   8.786   6.817   3.370
66183W        W34557  32.611  40.453  11.915
66184W        W34558  35.380  30.427   3.233
66185W        W34559   6.226   1.909  11.551
66186W        W34560  33.614   3.310  14.481
66187W        W34561  13.244  40.820  12.087
66188W        W34562  18.276   8.685  11.510
66189W        W34563  20.180  30.476  14.447
66190W        W34564   1.324  34.080  13.330
66191W        W34565   0.338  44.829  13.856
66192W        W34566  17.148  35.563  11.510
66193W        W34567  20.145  41.905   4.289
66194W        W34568   6.233  24.685  10.584
66195W        W34569  43.278  41.427  13.547
66196W        W34570   0.892  10.376   1.239
66197W        W34571  39.923  24.161   4.277
66198W        W34572  29.007  36.885  14.489
66199W        W34573   6.696  21.741   1.845
66200W        W34574  21.698  24.161   1.445
66201W        W34575  18.237  27.523  14.302
66202W        W34576   2.840  39.058  12.871
66203W        W34577   1.794   9.829   4.242
66204W        W34578   9.790  44.840  13.474
66205W        W34579  44.498  17.738   4.832
66206W        W34580  20.660  25.712  14.850
66207W        W34581  30.069  27.100  13.436
66208W        W34582  31.104  41.378   1.396
66209W        W34583  39.991   6.742   5.755
66210W        W34584  29.657  39.877   3.344
66211W        W34585   0.375  19.192  11.020
66212W        W34586  23.130  31.425   1.285
66213W        W34587   4.267  31.964  14.883
66214W        W34588  33.411  29.533   4.795
66215W        W34589  19.144  17.780  11.033
66216W        W34590  27.000  10.679  14.366
66217W        W34591   9.879  25.636  14.843
66218W        W34592  28.170  10.713  11.926
66219W        W34593  18.284  10.242  10.966
66220W        W34594  32.979  18.205   3.861
66221W        W34595  10.142  18.088   3.686
66222W        W34596  20.269   3.296  11.128
66223W        W34597  35.401  31.001  14.957
66224W        W34598  32.482  31.111   3.814
66225W        W34599   6.855   8.716  14.512
66226W        W34600  32.955  42.930  10.501
66227W        W34601  30.132   8.351  14.459
66228W        W34602   8.891  30.460  11.110
66229W        W34603  17.723  42.449  14.279
66230W        W34604   4.449  30.558   0.470
66231W        W34605  19.537  32.050   2.894
66232W        W34606   0.248  10.819  12.093
66233W        W34607  26.532   8.204   0.841
66234W        W34608   6.326  11.840  11.425
66235W        W34609  36.063  20.555  12.911
66236W        W34610  23.576  20.744   1.285
66237W        W34611  12.122  35.853   4.332
66238W        W34612   8.711  19.697  11.097
66239W        W34613  32.063  34.602   1.831
66240W        W34614  12.808  35.559  10.597
66241W        W34615   7.898  17.657  13.468
66242W        W34616  36.412   4.429  13.962
66243W        W34617  34.115  27.621  11.456
66244W        W34618   3.430  37.989  12.578
66245W        W34619  26.198  22.615   3.288
66246W        W34620  25.964  32.069  12.960
66247W        W34621  29.926  15.104  13.950
66248W        W34622   7.186   2.962   9.520
66249W        W34623  35.047  22.047   3.674
66250W        W34624  21.697   0.330  14.296
66251W        W34625  31.501  24.104  12.834
66252W        W34626  27.156  29.126   4.173
66253W        W34627  13.772  30.983  11.006
66254W        W34628  44.753  21.190   1.380
66255W        W34629  14.184   0.386  10.614
66256W        W34630  44.500   2.861  10.004
66257W        W34631  14.812  34.517   0.286
66258W        W34632  39.012  10.372   0.359
66259W        W34633  33.401  42.867  11.064
66260W        W34634  17.141  11.622   2.787
66261W        W34635  38.457  28.934   4.318
66262W        W34636  19.776  40.829   0.837
66263W        W34637  27.489   4.382   0.823
66264W        W34638  29.664  36.519  11.013
66265W        W34639  26.169  11.294  10.570
66266W        W34640  22.597  11.654  11.472
66267W        W34641  43.513  25.636  10.958
66268W        W34642   2.754  43.898   3.869
66269W        W34643  26.180   7.886  11.858
66270W        W34644  38.553  19.198  12.955
66271W        W34645  16.614  24.654   2.276
66272W        W34646  22.523  38.033   0.741
66273W        W34647  28.675   1.873  10.415
66274W        W34648  29.990  20.692   0.932
66275W        W34649  16.253  36.868   0.878
66276W        W34650   9.291  24.606  14.906
66277W        W34651  28.442  22.111   0.300
66278W        W34652  17.604  43.327   3.176
66279W        W34653  36.090  20.057  10.549
66280W        W34654  35.551  11.830   3.814
66281W        W34655  27.496  44.882   1.411
66282W        W34656  10.842  29.669  12.892
66283W        W34657   2.402   8.195   1.288
66284W        W34658  28.561  13.664  14.376
66285W        W34659  20.747   9.362   1.290
66286W        W34660  38.065  34.492   3.277
66287W        W34661   8.842  18.201  12.862
66288W        W34662  41.876   5.208   1.388
66289W        W34663   7.326   8.681  11.070
66290W        W34664  39.530  32.439  12.965
66291W        W34665  16.573  16.265   1.776
66292W        W34666  40.048  41.918   3.146
66293W        W34667  18.290  21.207   3.147
66294W        W34668   3.748  20.214   3.853
66295W        W34669  21.258  10.317   0.945
66296W        W34670  23.555  30.120  13.895
66297W        W34671  28.013   8.877   4.682
66298W        W34672  23.988  27.497  12.923
66299W        W34673  23.566  33.625   4.724
66300W        W34674  44.274  12.701  13.419
66301W        W34675   9.352   9.878   4.330
66302W        W34676   2.889  44.993  12.375
66303W        W34677  39.944  24.163   0.457
66304W        W34678  39.830   3.724  10.912
66305W        W34679  22.094  23.564   4.832
66306W        W34680  31.021  26.087   3.254
66307W        W34681   8.708  36.545   0.249
66308W        W34682  43.420   0.281   2.231
66309W        W34683  11.842  24.112   3.798
66310W        W34684   3.900   7.337  14.020
66311W        W34685  23.241  40.816   1.874
66312W        W34686  28.605  11.679  12.508
66313W        W34687  43.476  14.700   1.745
66314W        W34688  40.412   2.278  11.920
66315W        W34689   1.930  21.645   4.675
66316W        W34690   8.221   3.823  12.924
66317W        W34691  43.811  29.124   3.275
66318W        W34692   7.734   0.890  10.430
66319W        W34693  35.045  16.316  14.276
66320W        W34694  22.652   5.368  13.933
66321W        W34695  15.273  15.739  11.566
66322W        W34696   5.828  40.348  14.814
66323W        W34697  24.222  32.085   5.687
66324W        W34698  40.356  37.370   4.230
66325W        W34699  25.537  43.445  10.496
66326W        W34700  16.788  39.927  13.421
66327W        W34701   7.309  33.951   2.351
66328W        W34702  28.087  42.369   1.790
66329W        W34703  44.494  15.219   2.363
66330W        W34704  29.996  30.083   1.791
66331W        W34705   7.349  20.602   3.317
66332W        W34706  42.464   3.336   3.216
66333W        W34707  38.038  13.227  11.430
66334W        W34708   8.886  38.493  12.065
66335W        W34709  41.374  19.128  12.029
66336W        W34710  38.834   0.285   0.854
66337W        W34711  21.544  16.593   2.181
66338W        W34712  20.657  29.099   2.699
66339W        W34713  40.980  43.506   0.876
66340W        W34714  25.666  38.567   4.119
66341W        W34715  40.340  15.147   3.344
66342W        W34716  21.525  24.549   2.195
66343W        W34717  26.534  33.875  12.906
66344W        W34718  23.990  14.274   0.451
66345W        W34719  35.504   0.296  11.106
66346W        W34720  30.625  21.081   5.303
66347W        W34721  38.858   6.288   5.308
66348W        W34722  33.944  23.114  13.308
66349W        W34723   6.823  18.574  11.416
66350W        W34724   8.788  39.012   1.704
66351W        W34725  39.530  11.209   2.245
66352W        W34726  39.052  26.458   3.694
66353W        W34727  24.551  37.463   0.411
66354W        W34728  38.504  13.707  13.384
66355W        W34729  13.320  21.625  13.983
66356W        W34730  23.607  33.949  12.969
66357W        W34731  29.455  12.687   4.300
66358W        W34732  27.193  38.825  13.944
66359W        W34733   2.461  29.172   3.736
66360W        W34734  33.898  14.794  12.487
66361W        W34735  20.653  34.611  14.415
66362W        W34736   8.341  40.041   1.232
66363W        W34737   8.863  21.194  12.380
66364W        W34738  32.601   6.729  12.353
66365W        W34739   2.914  13.641   3.208
66366W        W34740  38.327  17.644   2.205
66367W        W34741  27.993  28.615  14.916
66368W        W34742  21.706  20.089   4.644
66369W        W34743  16.679   7.784   0.929
66370W        W34744  25.068  16.108  10.555
66371W        W34745   9.158  20.613  10.470
66372W        W34746  22.662  20.597  10.507
66373W        W34747   6.405  31.011  14.390
66374W        W34748  34.884  33.518  14.416
66375W        W34749   3.370  12.242   4.635
66376W        W34750  39.371  15.717   1.252
66377W        W34751  27.987  27.102  11.977
66378W        W34752  29.942   0.952  13.335
66379W        W34753   8.734  21.077  13.888
66380W        W34754  22.206  16.725   3.233
66381W        W34755  17.252   1.457   2.190
66382W        W34756  43.764  19.687  13.436
66383W        W34757   2.349   7.801   4.719
66384W        W34758  32.517  19.113   2.258
66385W        W34759  30.438  12.612   2.417
66386W        W34760  43.291   9.311   0.466
66387W        W34761  27.498  19.266  14.774
66388W        W34762  35.401   1.242  12.454
66389W        W34763  32.397  25.602   0.271
66390W        W34764  28.465  21.714   2.378
66391W        W34765  28.646  14.157   4.208
66392W        W34766  32.917  33.386  14.320
66393W        W34767  34.570  37.540  11.437
66394W        W34768  20.662   4.244  12.358
66395W        W34769   9.374  22.594   3.631
66396W        W34770  15.720  39.426  10.982
66397W        W34771  38.514   1.401  13.503
66398W        W34772   0.410   5.757  13.861
66399W        W34773   2.914   1.444  11.976
66400W        W34774  29.042  37.375   1.291
66401W        W34775  29.538  21.116   4.149
66402W        W34776  34.569   6.792   3.354
66403W        W34777  37.503  43.781   1.418
66404W        W34778  29.453  33.991   0.902
66405W        W34779  34.510  42.910  12.446
66406W        W34780  34.592   3.371  13.387
66407W        W34781   6.407  30.053  10.895
66408W        W34782  27.950  28.945  11.413
66409W        W34783  38.959  36.504  13.901
66410W        W34784  11.247  31.901  11.472
66411W        W34785  23.096  20.665   2.716
66412W        W34786  28.997  38.473   4.237
66413W        W34787  25.614  12.226  11.119
66414W        W34788  30.080   7.869  12.085
66415W        W34789   4.755   1.822   2.763
66416W        W34790  39.948   0.360  13.487
66417W        W34791   4.851   8.395   3.257
66418W        W34792  19.621   7.874   0.313
66419W        W34793  10.687   0.469   0.404
66420W        W34794  17.704  23.001   4.151
66421W        W34795   6.220   5.288  10.099
66422W        W34796  33.476  33.106  13.492
66423W        W34797  26.200   8.888  14.376
66424W        W34798   7.301   2.921   5.650
66425W        W34799   6.219  41.906  12.499
66426W        W34800  29.939   0.449  12.895
66427W        W34801  31.983   4.798   0.358
66428W        W34802  30.069  22.168   4.730
66429W        W34803   6.727  11.656  14.900
66430W        W34804  35.423  11.763  14.284
66431W        W34805   6.190   0.819  12.823
66432W        W34806  18.131  39.360   1.930
66433W        W34807  39.468  25.498   0.420
66434W        W34808  31.965   5.834   1.698
66435W        W34809  19.141  38.840   0.351
66436W        W34810  44.955   6.743  13.326
66437W        W34811  40.534  44.503  12.411
66438W        W34812   6.787  41.452  14.760
66439W        W34813  33.472  19.146   2.300
66440W        W34814  27.190  36.402  12.932
66441W        W34815  16.779  34.469   0.968
66442W        W34816  37.892  19.145  11.525
66443W        W34817  17.129  28.576   0.351
66444W        W34818  18.696  17.121   3.697
66445W        W34819  40.985  32.041  10.947
66446W        W34820  32.630  11.824   2.206
66447W        W34821  16.161  38.021  14.511
66448W        W34822  10.191  24.698  12.081
66449W        W34823  33.420  44.780  14.787
66450W        W34824  11.638  19.155   4.136
66451W        W34825  13.154  41.909  14.975
66452W        W34826  20.732  30.654  12.886
66453W        W34827  31.139  12.728   2.193
66454W        W34828  35.095   7.790   2.197
66455W        W34829  35.064   3.789  11.587
66456W        W34830  21.156   7.826  12.381
66457W        W34831  19.145  38.439   1.375
66458W        W34832  25.651   4.223   1.910
66459W        W34833   6.358   7.774  14.973
66460W        W34834   8.387  25.192   1.869
66461W        W34835  37.851  18.192   1.306
66462W        W34836  20.610  42.321   1.842
66463W        W34837  22.127  28.159  12.895
66464W        W34838   3.444  36.894   1.785
66465W        W34839  19.189  33.487   4.664
66466W        W34840  35.995  31.127  14.963
66467W        W34841  33.960  27.603  10.542
66468W        W34842  15.085   1.803   3.816
66469W        W34843  17.298  35.947   3.807
66470W        W34844  13.311   2.264  10.534
66471W        W34845   0.907  25.563  10.917
66472W        W34846  19.534   1.823  12.860
66473W        W34847  28.075  25.989  12.019
66474W        W34848  26.664  27.686  10.996
66475W        W34849  27.685   0.363  10.037
66476W        W34850  21.185  24.984   4.178
66477W        W34851   3.218  35.390   4.756
66478W        W34852   6.920  33.553   9.937
66479W        W34853  19.079  17.697   2.271
66480W        W34854  29.456  34.529   3.765
66481W        W34855  20.179   8.229  12.945
66482W        W34856  40.866  35.590  14.890
66483W        W34857  42.853  41.814  13.881
66484W        W34858  33.395  44.989  12.019
66485W        W34859   7.215  29.427  13.831
66486W        W34860  30.114   2.360   2.257
66487W        W34861  20.193  37.517   2.668
66488W        W34862  28.972  41.442   3.223
66489W        W34863   0.282  37.931   1.306
66490W        W34864  12.808  20.096   2.316
66491W        W34865   5.364  18.263  12.515
66492W        W34866  27.605  27.602   2.209
66493W        W34867  38.470  40.470   3.832
66494W        W34868  21.094  16.175   5.140
66495W        W34869  33.585   4.263  12.062
66496W        W34870  12.293  43.320  13.422
66497W        W34871  42.929  14.690   4.825
66498W        W34872  12.285  17.764  10.902
66499W        W34873   9.212  31.032   9.997
66500W        W34874   2.897  34.979  14.769
66501W        W34875  16.110  26.187   3.254
66502W        W34876  37.927  34.483   4.619
66503W        W34877  44.754   6.715   3.258
66504W        W34878  10.827  31.073  13.531
66505W        W34879  44.870  31.980  11.949
66506W        W34880  33.498  10.765   4.779
66507W        W34881   8.718  38.840   0.832
66508W        W34882   2.299   8.848   0.438
66509W        W34883  22.739   8.695  12.435
66510W        W34884  33.067  44.838   0.268
66511W        W34885  10.142  36.549   4.658
66512W        W34886  42.955  44.356  13.809
66513W        W34887  35.360  28.444   1.789
66514W        W34888  21.580  31.122   5.162
66515W        W34889  32.501   7.720   3.842
66516W        W34890   2.836   8.661  14.437
66517W        W34891  24.528  40.876   0.245
66518W        W34892  24.167   7.196   1.429
66519W        W34893  19.544  33.130   0.858
66520W        W34894   8.272  23.124   0.788
66521W        W34895   1.736  30.925  11.928
66522W        W34896  22.085  17.144   3.697
66523W        W34897  10.190  11.365   0.955
66524W        W34898  19.229  37.967  11.115
66525W        W34899  15.164  18.157   0.291
66526W        W34900  32.086   4.293  11.476
66527W        W34901  23.051   7.309  10.958
66528W        W34902  10.337  36.550  13.438
66529W        W34903  34.374  33.487  12.985
66530W        W34904  34.984   4.776  11.053
66531W        W34905   9.648  28.443  13.000
66532W        W34906   0.314  15.701  12.490
66533W        W34907  12.256   1.410   3.799
66534W        W34908  18.555  11.188  13.509
66535W        W34909   4.337  42.812   4.762
66536W        W34910  15.117  11.643   0.899
66537W        W34911   6.741  42.469  11.075
66538W        W34912  44.951  22.526  12.489
66539W        W34913  31.030  43.378  11.938
66540W        W34914  16.284  41.415  11.438
66541W        W34915  44.823  13.792  12.411
66542W        W34916  35.930  42.982  14.334
66543W        W34917  14.697  37.525  12.355
66544W        W34918  36.453  20.119   1.409
66545W        W34919  41.476   9.187   5.321
66546W        W34920   6.329  29.937  13.464
66547W        W34921  19.567   5.751  11.042
66548W        W34922  15.771  13.123  11.538
66549W        W34923   6.784  25.510  14.387
66550W        W34924  28.655   5.908  10.429
66551W        W34925  43.301  44.434  14.307
66552W        W34926  34.597  39.329   0.770
66553W        W34927  44.756   3.830   2.708
66554W        W34928   9.825  34.100  13.542
66555W        W34929  12.142  35.598  11.598
66556W        W34930  38.459   0.927  13.523
66557W        W34931   2.459   7.697   0.818
66558W        W34932  36.093  34.088  12.066
66559W        W34933  28.514  37.413   2.250
66560W        W34934  19.062  23.118  11.122
66561W        W34935  26.995  13.180  12.351
66562W        W34936  20.149  22.725   3.315
66563W        W34937  20.064  10.824   4.728
66564W        W34938  28.589  39.012   0.357
66565W        W34939  11.272  12.303  14.346
66566W        W34940  10.654  42.420   2.280
66567W        W34941  40.434   9.264  10.925
66568W        W34942  15.240  36.461  12.343
66569W        W34943  36.012  21.634   1.731
66570W        W34944  22.544  30.989   1.300
66571W        W34945   3.260  11.305  11.056
66572W        W34946  33.944  22.702   2.337
66573W        W34947  41.857  36.927   2.680
66574W        W34948   7.676  39.815   4.731
66575W        W34949  29.627  30.139   0.734
66576W        W34950   9.775  26.960  14.398
66577W        W34951  17.717  43.410   4.114
66578W        W34952  13.790  24.046  11.093
66579W        W34953  29.974   4.240  13.993
66580W        W34954  32.575  42.432  13.029
66581W        W34955  25.024  34.544  10.500
66582W        W34956  29.167  39.355  10.485
66583W        W34957  23.021   2.846  14.396
66584W        W34958  14.707  30.470  10.554
66585W        W34959   6.255  44.503  11.014
66586W        W34960  41.514  31.548  12.020
66587W        W34961   2.232  36.067  12.935
66588W        W34962  20.040  13.265   0.341
66589W        W34963  41.516  40.549  13.500
66590W        W34964  37.508  39.453  14.024
66591W        W34965  34.919  44.877   2.194
66592W        W34966  30.045  30.946  14.437
66593W        W34967  30.087  25.704   4.160
66594W        W34968   6.201  21.583  10.004
66595W        W34969   3.279  12.645  14.780
66596W        W34970  37.867   8.819  10.636
66597W        W34971   7.737   4.726  11.003
66598W        W34972  41.026  20.270   3.672
66599W        W34973  28.988  29.975   4.751
66600W        W34974   7.244  36.865   3.758
66601W        W34975  44.462   8.797   3.789
66602W        W34976  38.377   5.768  11.016
66603W        W34977  17.582  37.420  10.491
66604W        W34978  24.041   5.261   2.329
66605W        W34979  25.503   9.844  11.453
66606W        W34980  34.510  15.663  13.512
66607W        W34981  28.541  41.487   2.323
66608W        W34982   5.863   3.371   9.551
66609W        W34983  23.646  44.279   1.728
66610W        W34984  19.097  34.000  11.967
66611W        W34985  44.940   7.748   1.758
66612W        W34986  26.653  22.186  11.033
66613W        W34987  34.021   1.448   4.719
66614W        W34988  13.162  20.596   4.221
66615W        W34989  43.000  44.266   2.416
66616W        W34990  15.327  40.871   4.598
66617W        W34991  37.545   9.652   3.313
66618W        W34992  29.968  41.372  11.588
66619W        W34993  23.580   7.387  11.037
66620W        W34994  38.331  10.730   3.719
66621W        W34995  22.196  41.421   0.858
66622W        W34996  35.060  30.534  10.147
66623W        W34997   1.852   0.417  14.788
66624W        W34998  35.098   0.384  14.875
66625W        W34999  11.832   5.198   2.268
66626W        W35000   2.441  42.778  14.413
66627W        W35001  22.175  32.913   1.741
66628W        W35002  42.887  28.523   2.791
66629W        W35003   5.276  23.050  13.401
66630W        W35004   8.701  35.988   4.611
66631W        W35005  26.554  30.916   4.293
66632W        W35006  26.041  15.330   3.322
66633W        W35007  39.554  37.014  12.404
66634W        W35008  40.403  19.696  11.999
66635W        W35009  16.184  15.707  10.596
66636W        W35010  37.418  28.026   3.349
66637W        W35011   9.690  16.082  13.399
66638W        W35012   9.888  15.743   0.303
66639W        W35013  12.774  27.119   1.316
66640W        W35014  33.476  21.670  14.990
66641W        W35015  12.193  26.598   4.128
66642W        W35016  12.741  33.605  14.498
66643W        W35017  15.192  20.628   4.135
66644W        W35018  32.013  43.913   0.253
66645W        W35019  31.468  23.640  14.514
66646W        W35020  20.728  30.942  14.928
66647W        W35021  23.172   5.211  13.860
66648W        W35022  31.497  25.120  11.530
66649W        W35023  11.738  24.493   2.372
66650W        W35024  41.932  37.344   3.260
66651W        W35025  19.117  41.797  11.480
66652W        W35026  20.200  24.122   1.413
66653W        W35027  10.305  21.024   4.753
66654W        W35028   0.470  12.332  10.924
66655W        W35029  41.789  34.477  13.316
66656W        W35030  14.129  30.155  10.970
66657W        W35031   7.751  33.410  10.528
66658W        W35032  14.258   9.355   1.897
66659W        W35033  17.213  25.977  14.004
66660W        W35034   1.392  44.327   3.146
66661W        W35035  14.772  41.377   1.875
66662W        W35036  18.075  26.579  12.545
66663W        W35037  36.347  40.456  14.813
66664W        W35038   4.867  17.679   1.728
66665W        W35039   2.441  44.330   4.798
66666W        W35040   3.757   5.752   3.272
66667W        W35041  36.545  43.016   1.216
66668W        W35042   5.857  33.031  13.838
66669W        W35043   8.819  15.278  11.604
66670W        W35044  23.718  44.865   4.118
66671W        W35045  40.316  22.683  13.535
66672W        W35046  29.132  25.083   3.259
66673W        W35047  25.572  30.536   4.811
66674W        W35048  20.756  36.582   1.728
66675W        W35049  27.558   0.892  11.388
66676W        W35050  29.152  39.036   4.248
66677W        W35051  38.963  17.613  10.596
66678W        W35052  40.383  20.112  10.610
66679W        W35053  27.046  42.419   4.811
66680W        W35054  11.343  23.056   3.227
66681W        W35055  17.066  33.576  12.953
66682W        W35056  20.173  42.993   5.113
66683W        W35057  42.798  22.134  13.353
66684W        W35058  29.151  35.604   3.663
66685W        W35059  10.262  23.060   0.855
66686W        W35060  42.509  15.268   2.362
66687W        W35061   7.296   7.869  12.978
66688W        W35062  26.102  44.765  10.623
66689W        W35063  32.554   7.797  11.040
66690W        W35064  23.734  17.703   1.305
66691W        W35065  34.438  34.605   2.239
66692W        W35066  36.564  21.732   0.478
66693W        W35067  36.953   6.384   4.624
66694W        W35068  41.481  36.015   1.697
66695W        W35069  33.993  36.454  14.324
66696W        W35070  38.375  32.447  12.895
66697W        W35071  21.100  37.355  14.440
66698W        W35072  22.732  23.674  10.950
66699W        W35073  19.727  36.401   4.196
66700W        W35074  32.458  21.245  14.949
66701W        W35075  27.623  18.063  10.602
66702W        W35076  43.949  38.445   4.618
66703W        W35077  22.629  32.080   0.824
66704W        W35078  29.978  37.535  11.878
66705W        W35079  11.271  28.929   4.837
66706W        W35080   5.316  23.112  12.382
66707W        W35081  22.733  16.796  12.543
66708W        W35082  44.813  42.887  11.378
66709W        W35083   1.309  25.985   4.141
66710W        W35084  34.578   6.328   4.685
66711W        W35085  41.478  40.481  11.052
66712W        W35086   7.759  10.163   2.318
66713W        W35087  13.762   9.662  12.847
66714W        W35088   2.729  38.433   1.776
66715W        W35089  37.849   6.233  10.429
66716W        W35090  39.501  43.364   0.891
66717W        W35091  12.761   1.961  12.844
66718W        W35092  15.258  16.739   2.829
66719W        W35093   7.758  19.139   5.263
66720W        W35094   3.461  12.764  12.530
66721W        W35095  37.416  30.618   4.166
66722W        W35096   6.181   2.722   5.754
66723W        W35097  13.307   5.932  10.613
66724W        W35098  34.077  32.051   5.182
66725W        W35099   4.351  25.047   1.815
66726W        W35100  41.383  21.634  11.978
66727W        W35101  32.583  18.691   2.390
66728W        W35102  22.188  36.368   0.902
66729W        W35103  25.683  32.445   2.190
66730W        W35104  36.390  33.080  13.521
66731W        W35105   3.243  26.177   2.853
66732W        W35106  33.609  37.860   0.758
66733W        W35107  16.685  26.093   3.191
66734W        W35108  16.729  14.613   3.700
66735W        W35109  41.985  21.727  11.956
66736W        W35110   3.460   1.907  12.498
66737W        W35111  34.046   0.815  11.938
66738W        W35112  44.279  39.977   1.432
66739W        W35113  37.483  14.646  12.984
66740W        W35114  44.978  22.738   2.251
66741W        W35115  29.452  31.963   5.106
66742W        W35116   8.692  26.044   1.922
66743W        W35117  36.543   3.807   4.168
66744W        W35118  26.175  43.370   3.304
66745W        W35119  42.958  38.996   5.256
66746W        W35120  10.726  34.448  12.372
66747W        W35121  44.415  26.135   1.736
66748W        W35122  40.949  43.291   3.380
66749W        W35123   9.843  24.091  14.382
66750W        W35124  16.613  11.690   4.155
66751W        W35125  40.882  44.954   4.634
66752W        W35126   5.804  38.384  13.362
66753W        W35127  42.398  32.113  12.058
66754W        W35128   6.317  14.595  10.624
66755W        W35129  38.562  25.625   0.287
66756W        W35130  40.862   9.280   2.888
66757W        W35131   9.746  12.140  11.502
66758W        W35132   5.793   9.172  12.413
66759W        W35133  19.130   8.746   2.352
66760W        W35134  17.249  19.762   0.895
66761W        W35135  32.907  41.960   4.801
66762W        W35136  31.006  23.581  14.482
66763W        W35137   0.267  39.004  10.548
66764W        W35138  18.781   9.189  13.375
66765W        W35139  16.074   9.889   1.732
66766W        W35140  43.917  37.382  14.961
66767W        W35141  10.666   6.720  13.996
66768W        W35142   3.315  37.423   3.632
66769W        W35143  16.099  23.214   2.339
66770W        W35144  16.317   2.898  13.965
66771W        W35145   5.242  35.905  12.853
66772W        W35146   2.240  30.532   5.261
66773W        W35147  42.836  23.048  13.888
66774W        W35148  11.762   3.439  14.284
66775W        W35149  35.940  44.840   4.628
66776W        W35150  22.146  28.662  11.883
66777W        W35151  42.434  20.695   3.800
66778W        W35152  25.183   2.417   4.209
66779W        W35153  44.908  40.866  14.381
66780W        W35154  36.516  30.570   3.153
66781W        W35155  10.769  29.501   3.238
66782W        W35156  22.695  13.690  14.778
66783W        W35157  37.560  37.916  13.800
66784W        W35158  42.790  15.259   0.346
66785W        W35159  44.374  42.386   3.250
66786W        W35160  37.432   1.259  12.485
66787W        W35161  22.094  15.766  13.465
66788W        W35162  26.033  32.081   1.386
66789W        W35163  28.086  25.083  12.028
66790W        W35164  38.451  28.487  10.539
66791W        W35165   3.951  44.454  13.445
66792W        W35166  37.499  30.571   2.202
66793W        W35167  27.661  13.250   4.340
66794W        W35168   3.840  21.060  12.919
66795W        W35169  31.457  40.415   4.275
66796W        W35170  18.178  25.030   0.852
66797W        W35171  12.701  28.532   4.223
66798W        W35172  35.407  41.003  13.424
66799W        W35173  10.726   7.386   2.246
66800W        W35174  35.519  35.942  11.916
66801W        W35175   1.829   4.423  13.836
66802W        W35176  44.464  38.422   0.435
66803W        W35177  10.315  25.610   4.235
66804W        W35178   0.285  10.658  11.081
66805W        W35179  43.325  14.682   3.259
66806W        W35180  42.305  42.435  11.443
66807W        W35181   3.944  36.365  14.447
66808W        W35182  18.625  33.128   0.772
66809W        W35183  27.586  30.423   1.287
66810W        W35184   1.837  24.061  13.311
66811W        W35185  43.895  25.975  13.939
66812W        W35186  19.077   7.371  10.642
66813W        W35187  19.189   2.287  11.003
66814W        W35188  13.145   3.274   3.318
66815W        W35189   8.718  23.987   0.465
66816W        W35190  30.624  23.657   3.243
66817W        W35191  22.684   2.951  12.402
66818W        W35192  30.421   9.264  14.892
66819W        W35193  30.149   2.431   3.173
66820W        W35194   2.725  40.017   1.345
66821W        W35195  23.026   7.665  12.929
66822W        W35196  17.770  16.682   4.621
66823W        W35197  23.240   4.241  12.934
66824W        W35198  32.029  39.960   4.205
66825W        W35199  30.156  25.478  10.645
66826W        W35200  40.033  22.074  10.432
66827W        W35201  33.488  31.445   3.637
66828W        W35202  11.723   8.240   2.284
66829W        W35203  10.662  32.033   0.737
66830W        W35204   2.264  16.202   1.819
66831W        W35205  40.031  30.028   2.710
66832W        W35206  26.993  10.147   4.308
66833W        W35207   6.357  35.528  12.944
66834W        W35208   9.208  40.441  12.877
66835W        W35209  37.032   4.361  13.992
66836W        W35210  30.025   9.753   1.440
66837W        W35211  29.127  43.788  14.841
66838W        W35212  43.985  27.577  13.524
66839W        W35213   0.956  41.309  10.988
66840W        W35214  12.312  43.014  12.883
66841W        W35215  24.516  13.237  12.010
66842W        W35216  40.481   8.177  10.145
66843W        W35217   6.205   6.370  10.995
66844W        W35218   5.886  44.296  12.521
66845W        W35219  24.685  30.099  10.143
66846W        W35220  33.995  22.053  13.337
66847W        W35221  18.603  14.824   4.710
66848W        W35222  16.311  14.295  11.861
66849W        W35223  30.914  22.524  13.796
66850W        W35224  12.652  15.202   0.378
66851W        W35225  36.512   7.179  14.496
66852W        W35226  37.918  26.648  12.059
66853W        W35227   3.739  21.129   3.859
66854W        W35228   1.937  34.884   1.282
66855W        W35229  22.578  37.565   4.685
66856W        W35230  27.147  37.855   1.907
66857W        W35231  26.016  30.430   1.410
66858W        W35232  10.217  22.167   1.740
66859W        W35233  36.937   9.319   2.392
66860W        W35234  25.517  27.662   1.215
66861W        W35235  39.533  34.595  11.502
66862W        W35236  35.067  22.087   0.332
66863W        W35237  23.536  37.474   4.688
66864W        W35238   1.830  36.929   4.301
66865W        W35239   5.834  21.553  13.938
66866W        W35240  30.944  29.006  10.603
66867W        W35241  13.246  27.956  14.796
66868W        W35242  21.083  25.172  14.278
66869W        W35243  18.256  24.079  11.377
66870W        W35244  28.932  24.023  11.576
66871W        W35245  25.170  44.386   0.861
66872W        W35246   1.825  10.682  11.978
66873W        W35247  11.725   8.711  10.534
66874W        W35248  25.015  20.608  10.985
66875W        W35249  31.516  38.024   1.921
66876W        W35250  27.176  31.447  12.502
66877W        W35251  41.511  20.092   4.281
66878W        W35252  20.171  15.695  14.840
66879W        W35253   2.404  19.670   1.309
66880W        W35254   9.790  12.149  11.112
66881W        W35255  24.032   0.974   2.325
66882W        W35256  33.002   9.254   3.703
66883W        W35257  23.118   4.837  12.559
66884W        W35258  22.229  15.176  11.917
66885W        W35259  18.561  29.546   4.625
66886W        W35260  42.782   9.205   3.370
66887W        W35261  42.796  44.435  10.109
66888W        W35262  25.694  31.965  12.540
66889W        W35263  10.664  25.970   2.178
66890W        W35264  26.672   0.379   0.843
66891W        W35265  30.133   7.846  10.547
66892W        W35266  17.206  19.181   4.689
66893W        W35267   5.873  11.273   4.677
66894W        W35268  34.556  10.773  14.476
66895W        W35269  31.519   7.774   4.691
66896W        W35270  23.206  28.503   0.377
66897W        W35271  24.590  29.544  10.635
66898W        W35272  32.510  17.716   2.747
66899W        W35273  10.344   4.796   3.800
66900W        W35274  12.193  16.660   4.711
66901W        W35275  37.410  37.906   4.634
66902W        W35276  33.885  35.110   0.268
66903W        W35277  26.465  22.042   2.693
66904W        W35278  37.445   1.934   4.778
66905W        W35279   2.909  24.025   2.743
66906W        W35280  33.526  32.553  10.060
66907W        W35281  30.072  22.107  10.534
66908W        W35282  29.656  42.847  12.455
66909W        W35283   4.778  25.071   3.761
66910W        W35284  14.278  14.641   2.892
66911W        W35285  13.143  18.158   9.955
66912W        W35286   2.826  43.354   1.859
66913W        W35287  22.031  32.104   3.839
66914W        W35288  43.889  43.443  12.374
66915W        W35289   5.799  23.057   2.832
66916W        W35290  44.291   3.427   1.361
66917W        W35291  26.484  39.557   1.260
66918W        W35292  19.127   9.233  11.457
66919W        W35293  41.037   6.774   4.214
66920W        W35294  23.030   7.732   1.905
66921W        W35295  44.871  42.939   2.301
66922W        W35296  43.422   4.392  13.322
66923W        W35297  32.033  29.581   4.322
66924W        W35298  33.453  11.637  13.471
66925W        W35299   1.958  17.683   4.167
66926W        W35300  37.574  25.099   4.330
66927W        W35301  31.606  25.673  14.386
66928W        W35302  27.625  43.969  12.040
66929W        W35303  34.539  31.490  11.883
66930W        W35304   3.866  15.726   1.789
66931W        W35305  17.221  24.558   3.182
66932W        W35306  28.512  28.537  14.927
66933W        W35307   1.325  26.561   3.675
66934W        W35308  33.586   0.335   1.293
66935W        W35309  44.985  22.139   3.206
66936W        W35310  12.649  42.500  10.633
66937W        W35311  17.129  36.576   4.727
66938W        W35312  40.468  22.550  12.898
66939W        W35313   3.225  33.886  13.798
66940W        W35314  13.246  20.708  14.423
66941W        W35315   1.785  29.162  13.466
66942W        W35316  34.427  37.427  13.017
66943W        W35317  35.543  28.977  11.114
66944W        W35318  21.739  41.858  10.432
66945W        W35319  14.205  37.396  10.546
66946W        W35320  26.069  44.401  10.990
66947W        W35321   2.257  16.689   4.676
66948W        W35322  31.021  13.126  13.831
66949W        W35323   5.347  38.466   3.789
66950W        W35324  36.555  29.584  14.018
66951W        W35325   6.274  43.955  10.901
66952W        W35326   7.233   5.708  10.499
66953W        W35327   6.835  37.906   2.196
66954W        W35328  35.917   1.842   4.255
66955W        W35329  16.286  34.059  13.985
66956W        W35330   8.238  35.390   2.784
66957W        W35331  34.427   7.729   2.392
66958W        W35332  18.282  16.604   4.337
66959W        W35333  23.153   1.342   3.162
66960W        W35334  31.502  12.175  13.956
66961W        W35335  32.089  43.938  12.949
66962W        W35336  23.705  11.209  14.335
66963W        W35337  39.392  32.558   1.233
66964W        W35338  44.882   5.928   3.865
66965W        W35339  43.511  35.105  14.351
66966W        W35340   7.222  43.871  13.008
66967W        W35341   2.889   9.871  13.522
66968W        W35342  26.507   9.687   0.430
66969W        W35343  13.344  37.436   1.291
66970W        W35344  22.736  10.711  13.865
66971W        W35345  12.118   1.876  13.333
66972W        W35346  31.065  42.876  10.425
66973W        W35347  29.562   7.828   3.861
66974W        W35348  20.164  25.137   0.400
66975W        W35349  21.029  10.680  12.826
66976W        W35350   9.305  29.426  14.881
66977W        W35351  14.721  23.502  14.814
66978W        W35352  13.142  22.562   1.359
66979W        W35353   9.810  12.639   4.666
66980W        W35354  14.732  17.665   1.409
66981W        W35355  27.475  34.032  11.970
66982W        W35356  26.554  38.433  14.882
66983W        W35357  12.125  15.682   2.253
66984W        W35358  35.025  27.107  11.042
66985W        W35359  38.563  15.759   3.274
66986W        W35360   1.784  30.418   4.760
66987W        W35361  25.062   3.352  14.428
66988W        W35362  11.709  29.922  14.806
66989W        W35363  15.813  17.653  11.892
66990W        W35364  26.679  23.722  13.885
66991W        W35365  24.517  34.383  13.003
66992W        W35366   2.850  28.154  10.945
66993W        W35367  26.561  25.981  11.979
66994W        W35368  28.158  31.999  12.048
66995W        W35369  30.532  10.208  13.506
66996W        W35370  23.228  32.905  10.468
66997W        W35371  21.523  40.945   4.260
66998W        W35372  36.585  10.306  11.116
66999W        W35373  15.814  39.835   4.696
67000W        W35374  28.597  15.669  14.847
67001W        W35375   2.372  43.932  10.993
67002W        W35376  38.063   3.313  13.463
67003W        W35377  44.950  22.587   1.815
67004W        W35378  33.532  26.536  11.997
67005W        W35379  27.019  40.509   1.874
67006W        W35380  16.627  28.000   4.240
67007W        W35381  29.027  13.650   3.651
67008W        W35382  15.804  29.921   0.826
67009W        W35383  12.643  14.632  11.092
67010W        W35384  39.487  38.530   3.264
67011W        W35385  36.002  29.163  14.496
67012W        W35386   3.229  34.992   3.209
67013W        W35387  33.584   1.782   0.470
67014W        W35388  16.773  25.558  14.973
67015W        W35389  18.608  32.054   0.890
67016W        W35390  33.389  28.178  12.520
67017W        W35391   9.739  19.196  12.910
67018W        W35392  39.920  42.846   2.808
67019W        W35393  21.568  16.147  14.995
67020W        W35394  31.071  28.101  12.908
67021W        W35395   9.333  17.558   5.697
67022W        W35396   6.391  14.195   1.790
67023W        W35397   3.929  36.887   1.272
67024W        W35398   0.877  32.569   1.231
67025W        W35399   0.796  40.338  14.498
67026W        W35400  37.879  27.104   1.738
67027W        W35401  14.319  16.625   3.313
67028W        W35402  19.542  23.095   4.794
67029W        W35403  29.942  26.657   2.743
67030W        W35404   2.835  15.174  14.802
67031W        W35405  43.314  17.780   4.247
67032W        W35406   3.956  17.144  13.041
67033W        W35407   0.400  25.049   3.850
67034W        W35408  21.594  44.924   3.819
67035W        W35409  21.637   2.340  11.885
67036W        W35410  42.927  29.134   0.955
67037W        W35411  43.789   9.717   0.804
67038W        W35412  44.766  32.563  13.908
67039W        W35413   0.927  24.571  12.387
67040W        W35414  36.574  25.602  14.411
67041W        W35415  11.265  23.594  12.996
67042W        W35416  39.926  30.569   2.264
67043W        W35417  16.265  36.073   4.649
67044W        W35418  37.892   6.805  12.367
67045W        W35419  38.424  18.685   2.732
67046W        W35420  10.325  18.781  13.524
67047W        W35421  17.733  20.608   4.187
67048W        W35422  11.696  42.877   2.361
67049W        W35423  21.046  20.583   0.247
67050W        W35424  35.453   5.293  11.943
67051W        W35425  43.401  36.471  14.467
67052W        W35426  13.820  23.577   3.869
67053W        W35427  28.437  44.372   1.447
67054W        W35428  41.932  14.684  14.813
67055W        W35429  38.911   4.818   5.098
67056W        W35430  13.194  12.122   1.716
67057W        W35431  28.010  21.559   3.859
67058W        W35432  39.912   4.416   4.279
67059W        W35433  15.196  43.976  10.626
67060W        W35434  16.111  26.638   1.886
67061W        W35435  37.070  15.675  13.924
67062W        W35436  41.815  27.971  12.930
67063W        W35437  44.990   7.749   2.728
67064W        W35438   3.424  15.769   0.421
67065W        W35439  14.705  38.352  11.526
67066W        W35440  29.444  35.477  10.491
67067W        W35441  21.536  40.966   3.328
67068W        W35442  16.755   4.283   3.635
67069W        W35443  31.445  22.746   0.441
67070W        W35444  18.608   4.450  12.428
67071W        W35445  22.731  14.148   3.789
67072W        W35446  39.347   1.434  14.013
67073W        W35447  41.518  25.965  13.544
67074W        W35448   3.812  36.488   3.823
67075W        W35449  16.152  22.191  12.989
67076W        W35450  22.216  31.082   1.317
67077W        W35451  32.469  39.831   3.869
67078W        W35452  31.602   9.175   3.752
67079W        W35453  15.209  15.720  12.379
67080W        W35454  17.149  12.838   3.244
67081W        W35455  27.622  41.845  14.921
67082W        W35456  37.535  35.989  13.041
67083W        W35457   5.928  43.365   2.798
67084W        W35458  36.554   4.758  13.935
67085W        W35459  25.485  20.137  12.520
67086W        W35460   2.416   6.696  12.500
67087W        W35461  19.212  27.944  14.438
67088W        W35462  38.819  31.995   0.348
67089W        W35463   8.882  44.411   0.935
67090W        W35464  28.082  37.389   4.749
67091W        W35465  36.991  21.249   4.193
67092W        W35466  24.616   9.192  12.936
67093W        W35467  27.096  35.105   4.675
67094W        W35468  21.511  43.369   1.873
67095W        W35469  11.637  41.888   0.777
67096W        W35470  23.562  41.856  11.512
67097W        W35471  30.938  22.572  13.453
67098W        W35472  44.458   7.267   1.890
67099W        W35473   1.252  21.634   2.243
67100W        W35474  28.618  40.036  12.910
67101W        W35475  40.855   6.875  12.454
67102W        W35476   8.238  17.671   0.405
67103W        W35477  44.284  34.039  12.528
67104W        W35478   4.733   0.433   2.746
67105W        W35479  35.954   8.255  14.856
67106W        W35480  22.508  18.722  14.928
67107W        W35481  14.800  18.240   0.832
67108W        W35482  19.096   9.744  10.956
67109W        W35483   9.787  26.023  13.389
67110W        W35484  32.529  37.916  14.011
67111W        W35485  23.096   0.867   3.309
67112W        W35486  42.369  22.576  11.064
67113W        W35487  10.798   8.769   1.231
67114W        W35488  21.202  40.904   4.606
67115W        W35489  42.440  21.213   4.791
67116W        W35490  28.591  16.791   0.778
67117W        W35491  39.448  11.806  14.859
67118W        W35492  33.099  24.149  11.871
67119W        W35493   9.665  33.111  13.472
67120W        W35494   4.846  40.414   3.717
67121W        W35495  25.170  37.861   4.282
67122W        W35496  31.114  39.457  11.600
67123W        W35497  11.780  28.017  11.395
67124W        W35498  36.432  33.976   4.348
67125W        W35499  40.368  19.605  12.464
67126W        W35500  21.125  35.578  10.946
67127W        W35501  18.081   2.248   1.251
67128W        W35502  23.569  19.775   0.924
67129W        W35503  33.443  32.002   3.721
67130W        W35504   8.216  11.321   2.299
67131W        W35505  10.667  21.613   1.877
67132W        W35506  35.526  26.176  12.090
67133W        W35507  37.435  21.541   1.924
67134W        W35508  40.829  30.033   0.410
67135W        W35509  37.522  44.991   1.899
67136W        W35510  29.976  29.050  13.850
67137W        W35511  40.967  13.219  11.498
67138W        W35512   6.334  43.861  11.605
67139W        W35513   2.818  25.128   1.793
67140W        W35514   4.411   0.311   2.409
67141W        W35515  21.179  23.101   3.720
67142W        W35516   8.751  35.042   0.455
67143W        W35517  26.972  30.007  14.511
67144W        W35518  38.071  20.158   1.902
67145W        W35519  15.726  39.006  13.992
67146W        W35520  25.007  19.607   3.177
67147W        W35521   4.265  32.464  13.835
67148W        W35522  26.087  43.782  12.472
67149W        W35523  33.411  41.965   3.213
67150W        W35524  11.178  10.313  12.947
67151W        W35525  10.253   0.417   4.627
67152W        W35526  14.152  19.608   4.343
67153W        W35527  13.694   9.816   3.662
67154W        W35528   5.860  42.446  13.064
67155W        W35529  44.880  14.653  11.434
67156W        W35530  22.048  42.929  10.606
67157W        W35531  31.900  38.927   2.784
67158W        W35532  12.332  20.648   4.254
67159W        W35533  37.486  24.213   1.229
67160W        W35534  42.340   4.837   4.697
67161W        W35535  29.437  19.163  14.971
67162W        W35536   3.253  23.564  14.981
67163W        W35537   9.304  37.974  12.077
67164W        W35538  36.495  29.560   3.373
67165W        W35539   6.779  29.149   3.226
67166W        W35540  25.573  33.396  14.769
67167W        W35541  17.267   9.175  12.515
67168W        W35542  42.414  13.265  13.378
67169W        W35543  44.376  35.399   3.761
67170W        W35544  16.138   2.799   2.740
67171W        W35545  15.717  37.029  14.312
67172W        W35546  14.188  13.790   3.265
67173W        W35547  43.423  29.107  10.114
67174W        W35548  28.093  35.365  14.511
67175W        W35549  15.817  10.641  13.970
67176W        W35550   4.339   3.259  11.402
67177W        W35551  26.001  42.330   3.717
67178W        W35552  30.623   5.901   3.771
67179W        W35553   4.738   1.921  13.891
67180W        W35554  38.567  23.539   3.784
67181W        W35555  27.633  33.598   4.739
67182W        W35556  30.121  39.015  12.076
67183W        W35557  34.393  36.378  14.492
67184W        W35558  37.427  38.490   3.694
67185W        W35559  26.629  44.301   1.840
67186W        W35560  19.602  13.768   0.872
67187W        W35561  37.552  10.660   1.926
67188W        W35562  32.423  11.747  10.541
67189W        W35563  28.157  28.958  10.638
67190W        W35564  31.529   5.859  10.957
67191W        W35565  39.348  39.858  12.077
67192W        W35566  33.501  17.259   1.919
67193W        W35567  34.502   5.913   2.275
67194W        W35568   7.347   6.193  10.054
67195W        W35569  44.485  44.372   1.848
67196W        W35570  22.589  12.692   1.705
67197W        W35571  42.356  10.217  12.409
67198W        W35572   0.950   1.873   1.343
67199W        W35573  32.092  15.621   4.674
67200W        W35574  32.926  39.492   1.234
67201W        W35575  43.320  42.402  14.287
67202W        W35576  39.028  27.035  10.965
67203W        W35577  41.343  42.922   0.908
67204W        W35578  43.356   8.735  14.817
67205W        W35579  12.301  15.146  13.315
67206W        W35580  40.955  33.077  11.969
67207W        W35581  25.030  22.514   3.700
67208W        W35582  28.184   6.758  11.882
67209W        W35583   0.909  25.169  13.954
67210W        W35584  30.911  32.513  13.892
67211W        W35585  10.694  14.134  13.509
67212W        W35586  32.475   9.176   0.857
67213W        W35587  17.208  43.462   3.759
67214W        W35588  34.034  40.999   0.437
67215W        W35589   6.830   3.771  11.483
67216W        W35590   8.817  20.724   2.246
67217W        W35591  25.521  19.267   2.885
67218W        W35592   9.885   3.400  13.034
67219W        W35593  21.179   6.192  14.828
67220W        W35594  24.996  44.308   3.715
67221W        W35595   1.943  32.032  12.892
67222W        W35596   6.189  15.667   3.825
67223W        W35597  28.003  16.687   3.343
67224W        W35598  11.181  42.443   1.246
67225W        W35599  17.080  14.835   0.862
67226W        W35600  14.732   8.345  11.388
67227W        W35601  25.557  14.240  10.595
67228W        W35602   5.907  32.629   2.869
67229W        W35603   9.217  32.125  10.994
67230W        W35604  40.404  21.089  12.465
67231W        W35605  43.971   3.781   0.459
67232W        W35606  38.362  16.570   0.258
67233W        W35607  35.877  26.514  11.519
67234W        W35608  33.560  11.650  11.529
67235W        W35609  33.954  28.168  11.089
67236W        W35610  36.911  23.132  10.403
67237W        W35611  33.595   5.307  10.975
67238W        W35612  26.477  42.995   2.234
67239W        W35613  30.968   5.344  11.974
67240W        W35614   8.401  43.444  14.815
67241W        W35615  34.546  33.610  10.553
67242W        W35616   4.423  31.100  10.902
67243W        W35617  12.631  30.087  10.422
67244W        W35618   7.272  25.045   4.764
67245W        W35619   5.271  21.049   2.193
67246W        W35620  24.230   7.678  11.499
67247W        W35621  18.704  12.349   3.826
67248W        W35622   0.865   2.865   1.317
67249W        W35623  32.920  14.179   3.346
67250W        W35624  11.369  27.587   3.244
67251W        W35625  19.249   2.329   4.619
67252W        W35626   6.263   2.404   4.255
67253W        W35627   6.244   6.404  12.911
67254W        W35628  12.177   6.411  13.979
67255W        W35629  42.422  33.974  10.476
67256W        W35630   4.892  10.305   4.672
67257W        W35631  16.283  27.050  13.888
67258W        W35632  33.985  23.570   0.945
67259W        W35633  27.040   4.288   4.708
67260W        W35634  27.157  26.111   0.356
67261W        W35635   4.932  25.508  13.859
67262W        W35636  41.335  27.484   0.404
67263W        W35637  21.143  37.558  10.026
67264W        W35638  39.406  14.099  11.998
67265W        W35639  36.002  32.508  13.965
67266W        W35640  17.253  25.027  13.847
67267W        W35641  12.328  41.302   3.716
67268W        W35642  30.113  41.396   3.364
67269W        W35643  39.033  37.941  11.417
67270W        W35644  35.545   3.727  11.576
67271W        W35645  44.976   7.284   1.390
67272W        W35646  24.662  25.124  11.947
67273W        W35647  30.539  42.935   0.931
67274W        W35648  42.810  15.258  14.887
67275W        W35649  20.065   8.275   1.318
67276W        W35650  22.717  40.828   3.868
67277W        W35651  17.079  25.084  14.961
67278W        W35652   7.355  44.279  13.998
67279W        W35653  11.701  10.743   3.743
67280W        W35654  22.047  30.604   4.782
67281W        W35655  19.631  26.032   2.756
67282W        W35656  31.083  13.223   0.896
67283W        W35657  14.621   3.778   0.419
67284W        W35658  43.490  37.986   2.386
67285W        W35659  37.339  35.980   0.329
67286W        W35660   7.848   8.214   2.678
67287W        W35661  20.626  14.600  10.431
67288W        W35662  12.734  13.610  14.491
67289W        W35663  44.960  22.136   0.943
67290W        W35664   7.347  25.099   3.698
67291W        W35665   9.196  25.106  14.809
67292W        W35666  20.234   0.943  14.799
67293W        W35667  40.875  30.041  13.960
67294W        W35668  30.609  39.454   1.715
67295W        W35669  12.158   0.858  10.975
67296W        W35670  30.629  17.073  10.937
67297W        W35671  23.565  20.680  12.359
67298W        W35672  17.194  38.068  14.496
67299W        W35673   3.304  42.414  12.833
67300W        W35674  25.622   2.309   0.864
67301W        W35675  19.554  11.822   4.629
67302W        W35676  26.075   5.204  11.507
67303W        W35677  16.091  37.568  10.413
67304W        W35678  10.317  34.010  14.418
67305W        W35679  15.092  14.212   2.788
67306W        W35680   5.315  13.196   2.900
67307W        W35681  32.131  36.911  13.529
67308W        W35682  35.548  10.828   2.847
67309W        W35683  41.294  37.350  11.060
67310W        W35684  23.136  12.832  11.901
67311W        W35685  22.033   5.259   1.856
67312W        W35686  32.112  41.939   3.672
67313W        W35687  35.365  20.176   1.437
67314W        W35688   0.945  28.934   5.103
67315W        W35689  35.540  29.037   3.706
67316W        W35690  33.101  16.629   0.932
67317W        W35691  43.947  28.043  10.925
67318W        W35692  23.631  17.574   5.180
67319W        W35693  42.937  10.876  14.855
67320W        W35694  15.132   1.325   4.624
67321W        W35695  31.063  35.492  14.022
67322W        W35696  41.786  17.772   2.227
67323W        W35697  31.057  39.989  11.507
67324W        W35698  16.248   7.748   3.379
67325W        W35699  41.507  35.886   2.890
67326W        W35700  40.946  29.079  12.959
67327W        W35701  23.712  36.854   2.415
67328W        W35702  28.609   4.915   3.370
67329W        W35703  24.006  25.474   1.332
67330W        W35704  42.823  28.109  11.407
67331W        W35705  36.489  39.053  12.087
67332W        W35706  24.033  13.245   1.348
67333W        W35707  35.506   2.799   1.933
67334W        W35708  20.708  14.230  12.027
67335W        W35709  18.724  39.337  13.791
67336W        W35710  34.480  39.009  12.869
67337W        W35711  24.537  34.913  13.025
67338W        W35712  38.400  21.681  11.955
67339W        W35713  39.830  10.296  12.928
67340W        W35714  38.072  20.607   1.241
67341W        W35715  12.770  30.984  12.942
67342W        W35716  28.103  28.984   3.168
67343W        W35717  40.933  20.728  13.510
67344W        W35718  22.068  24.541   4.298
67345W        W35719  34.997   6.389  14.412
67346W        W35720   1.960  18.699  11.032
67347W        W35721  42.303  15.247  11.419
67348W        W35722   3.233  19.658  11.943
67349W        W35723  29.967  26.157   1.421
67350W        W35724  18.769  38.410   2.281
67351W        W35725  38.564  10.683  14.015
67352W        W35726  17.102  30.923   1.875
67353W        W35727  35.082  10.275  10.540
67354W        W35728  41.522  19.276  13.960
67355W        W35729   4.774  22.158   9.955
67356W        W35730  33.397  39.899  12.898
67357W        W35731  43.278  37.363   2.759
67358W        W35732  44.503  18.060   2.336
67359W        W35733  20.170   3.936  11.424
67360W        W35734  28.447  21.256  14.495
67361W        W35735  37.914  40.890   4.179
67362W        W35736  21.026  16.081  11.481
67363W        W35737  36.082   5.784   4.598
67364W        W35738   4.707   9.388  14.852
67365W        W35739  41.824  11.867   0.727
67366W        W35740  10.312  34.044   1.385
67367W        W35741   7.879  26.152   3.301
67368W        W35742  24.645  18.075   2.678
67369W        W35743  26.623   1.416   0.926
67370W        W35744  44.476  30.144   0.813
67371W        W35745   0.316   6.760   1.390
67372W        W35746  14.723  20.248  11.965
67373W        W35747  21.135  26.006   4.329
67374W        W35748   4.360  13.834   1.881
67375W        W35749  17.738  35.439   1.860
67376W        W35750  21.725  39.844  12.900
67377W        W35751   0.941   5.877   2.378
67378W        W35752  41.450   4.247  12.941
67379W        W35753  24.629  41.928  11.107
67380W        W35754  23.989   1.818  13.914
67381W        W35755   6.376  35.513  13.406
67382W        W35756   5.258  24.127  13.919
67383W        W35757  31.071   7.790   2.897
67384W        W35758   1.246  42.962  12.930
67385W        W35759  25.640   0.252  13.414
67386W        W35760  18.790  12.780   0.961
67387W        W35761  16.782  36.558  13.521
67388W        W35762   3.284  13.119   3.651
67389W        W35763  20.082  12.275   0.391
67390W        W35764  42.009  44.967   4.659
67391W        W35765   7.860  32.061   4.148
67392W        W35766  27.982  20.578  10.583
67393W        W35767   2.321   5.355   3.836
67394W        W35768  12.170  13.646  11.878
67395W        W35769   8.838  21.033  13.431
67396W        W35770  39.511  10.272   2.381
67397W        W35771  44.960  29.986  14.497
67398W        W35772  17.628  19.667   3.340
67399W        W35773  19.282  40.997   3.785
67400W        W35774  35.524   4.253  14.499
67401W        W35775  41.480  39.063  14.476
67402W        W35776  43.017   8.324   3.632
67403W        W35777  20.034  38.381  11.456
67404W        W35778  16.755   8.312   0.908
67405W        W35779  30.987  27.513  12.032
67406W        W35780  17.687  26.083  11.446
67407W        W35781  14.684   2.334   1.732
67408W        W35782  25.176   2.945   4.630
67409W        W35783  40.034  37.399  14.927
67410W        W35784  12.161  23.093   3.228
67411W        W35785  30.939  14.164   3.870
67412W        W35786  16.237  17.689  13.450
67413W        W35787   9.321   0.398   2.271
67414W        W35788  25.114  30.608  12.826
67415W        W35789  10.259  34.530  11.586
67416W        W35790  37.946  34.572  11.895
67417W        W35791  33.033  31.119   4.718
67418W        W35792   4.254  23.998  12.400
67419W        W35793   8.317   2.344   3.368
67420W        W35794  18.138  42.913  10.896
67421W        W35795  36.889  39.385  11.609
67422W        W35796  22.089  14.611   1.791
67423W        W35797  42.823  11.672  14.948
67424W        W35798  12.217   4.846  13.938
67425W        W35799   7.706  33.977   4.156
67426W        W35800  44.894  26.054   1.916
67427W        W35801  21.619  20.208  12.029
67428W        W35802  37.515   7.214   0.829
67429W        W35803  20.542  20.537  13.899
67430W        W35804  39.038   1.889  14.451
67431W        W35805   4.213  14.238  10.411
67432W        W35806  35.934   3.313   0.267
67433W        W35807  39.874  11.684  13.508
67434W        W35808  35.009  36.001  12.421
67435W        W35809   1.262  30.434   0.295
67436W        W35810  24.107  20.254  13.536
67437W        W35811  32.480   0.746  13.486
67438W        W35812   9.391  39.525  13.897
67439W        W35813  40.347  13.666  11.060
67440W        W35814  41.487  13.160  14.319
67441W        W35815  25.204  25.640  11.380
67442W        W35816  29.557   9.788  13.801
67443W        W35817  39.542   8.654  13.880
67444W        W35818  40.482   2.764  14.823
67445W        W35819  42.906  27.571   2.295
67446W        W35820  24.022  32.007  12.507
67447W        W35821  12.676  22.168  11.028
67448W        W35822  29.627  23.997  11.039
67449W        W35823  18.072  38.035   1.814
67450W        W35824  22.616  16.749   1.924
67451W        W35825  10.726  28.570   2.348
67452W        W35826  24.025  37.966   0.785
67453W        W35827   7.406   6.305   1.222
67454W        W35828  39.855  29.103  11.929
67455W        W35829  37.526   6.268   0.399
67456W        W35830   8.181   5.757   1.716
67457W        W35831  42.800  16.309   1.282
67458W        W35832  17.584  20.258  11.555
67459W        W35833  42.389  26.076  10.512
67460W        W35834  43.276  36.397   1.856
67461W        W35835  15.105  15.592   0.358
67462W        W35836  20.126  13.626  13.544
67463W        W35837   9.369  21.031   4.806
67464W        W35838  20.126  13.753  12.514
67465W        W35839   9.702   6.910   1.302
67466W        W35840   0.808  14.276  14.417
67467W        W35841   1.879  37.931  12.855
67468W        W35842  26.067  18.142   3.241
67469W        W35843  22.154  38.934  12.470
67470W        W35844  44.270  11.181   4.352
67471W        W35845   8.683  13.299  12.577
67472W        W35846  16.202   1.777  14.454
67473W        W35847   3.367  34.459  14.337
67474W        W35848  23.542  30.542   4.727
67475W        W35849  30.012  27.165   2.386
67476W        W35850   1.779  31.916  14.488
67477W        W35851  21.609  36.379   1.898
67478W        W35852   3.227  17.084   2.768
67479W        W35853  28.988  39.545  14.954
67480W        W35854  41.312  24.120   2.760
67481W        W35855  40.023   7.368   4.275
67482W        W35856  31.100   2.798   4.677
67483W        W35857   4.397  41.308  11.499
67484W        W35858   6.362  18.231  11.516
67485W        W35859  24.991  25.113   4.324
67486W        W35860   3.258  42.457  14.460
67487W        W35861  11.754  10.284   9.941
67488W        W35862   4.815  25.065   0.326
67489W        W35863  27.585  42.481   3.293
67490W        W35864   1.818  41.981  13.025
67491W        W35865  35.396  30.931  11.120
67492W        W35866  43.382   4.820  11.389
67493W        W35867  32.599  21.512  11.026
67494W        W35868  39.442  18.256  10.642
67495W        W35869   6.765  19.261   5.279
67496W        W35870  27.625  39.559   1.392
67497W        W35871  10.230  17.580  11.415
67498W        W35872  23.638  24.084   2.786
67499W        W35873  32.972  25.601  14.968
67500W        W35874   5.839   4.338   5.225
67501W        W35875   9.384  15.201  14.308
67502W        W35876  22.616  35.915   5.274
67503W        W35877   3.384  33.015   0.339
67504W        W35878  39.342  31.545   1.398
67505W        W35879  34.609  13.222   0.329
67506W        W35880  41.334  32.404  14.416
67507W        W35881  10.833  34.397  14.504
67508W        W35882  41.519   3.716  11.893
67509W        W35883  15.222  27.057   3.757
67510W        W35884   8.385   4.215  12.845
67511W        W35885  40.319   9.359   4.297
67512W        W35886   2.752  26.040   0.798
67513W        W35887  33.015  44.863  11.909
67514W        W35888  10.178  41.828  13.491
67515W        W35889  42.457  37.505   1.314
67516W        W35890   4.285  18.135  12.076
67517W        W35891  21.702  37.521   3.754
67518W        W35892  19.714  19.779   0.418
67519W        W35893  18.581  26.630   1.917
67520W        W35894  35.056  39.017   0.298
67521W        W35895  13.648  24.006  11.417
67522W        W35896  22.008  24.012   1.363
67523W        W35897   1.959  15.608  11.068
67524W        W35898  42.322  28.533  11.026
67525W        W35899  37.462   9.159   4.330
67526W        W35900  15.099   7.759  14.005
67527W        W35901  37.465  32.076   0.243
67528W        W35902   1.871  26.972   1.241
67529W        W35903  17.570  42.879   1.735
67530W        W35904  38.508   7.863   3.772
67531W        W35905   1.756  24.089  11.055
67532W        W35906  19.095  17.270  12.943
67533W        W35907  38.949   2.318   2.292
67534W        W35908  28.653   6.727  11.541
67535W        W35909  31.490  37.481  14.956
67536W        W35910  28.050  28.590   3.375
67537W        W35911  40.932  23.034   4.180
67538W        W35912   4.416  42.314   3.675
67539W        W35913  14.132  10.772  12.932
67540W        W35914  24.080  18.181  12.880
67541W        W35915  15.801   7.695  10.517
67542W        W35916  19.216  22.173  14.471
67543W        W35917  28.939  21.586  11.542
67544W        W35918   5.737   7.236  11.120
67545W        W35919   6.715  38.493  12.824
67546W        W35920  39.343   1.928   1.854
67547W        W35921  27.993  21.541  10.508
67548W        W35922  26.515  19.222  11.900
67549W        W35923   6.326  44.843   4.312
67550W        W35924  30.967   0.397  12.399
67551W        W35925  22.156  34.956  12.411
67552W        W35926   9.869  42.474   4.601
67553W        W35927   4.711  28.511   1.776
67554W        W35928  24.717  16.600   2.724
67555W        W35929   6.404  19.156   1.786
67556W        W35930  13.720   8.302  14.388
67557W        W35931  12.624   7.862   4.253
67558W        W35932  26.114   0.937   2.322
67559W        W35933  18.685  17.136  12.030
67560W        W35934  24.132  15.109   4.130
67561W        W35935   9.881  25.654   3.165
67562W        W35936  15.216  38.525   3.298
67563W        W35937  29.175  43.370   5.690
67564W        W35938   8.364  28.605  13.934
67565W        W35939  13.773  42.512   0.265
67566W        W35940  17.187  39.492   1.418
67567W        W35941  18.134   4.741  11.921
67568W        W35942  25.185  21.678  11.394
67569W        W35943  16.200  31.424  11.526
67570W        W35944  42.366   0.364   2.229
67571W        W35945  18.730  26.678  14.906
67572W        W35946  38.397   4.822  12.967
67573W        W35947  33.045  16.698  12.010
67574W        W35948  24.535  33.931   2.325
67575W        W35949   4.929  35.969  13.846
67576W        W35950  38.368  14.199  14.842
67577W        W35951  11.362  32.015  13.992
67578W        W35952  23.672  15.242   1.873
67579W        W35953  35.367  25.485   1.880
67580W        W35954  28.148  34.080   1.270
67581W        W35955  10.249  18.275   2.381
67582W        W35956  37.995   9.714   4.332
67583W        W35957  24.684  25.175  11.100
67584W        W35958  26.593  17.678   1.288
67585W        W35959  16.150  16.283   4.134
67586W        W35960  29.143  16.741   2.314
67587W        W35961   6.274  19.617   3.234
67588W        W35962  36.911  28.109  11.052
67589W        W35963   1.946  40.445  14.936
67590W        W35964  20.217  12.781  10.606
67591W        W35965  36.477  19.724   4.787
67592W        W35966  19.207  24.181   1.697
67593W        W35967   4.867  18.145  11.394
67594W        W35968  26.467  25.490  13.963
67595W        W35969  26.589  42.366   3.679
67596W        W35970  30.934  18.256  10.561
67597W        W35971  31.924   1.412  11.082
67598W        W35972  15.204  30.439   1.775
67599W        W35973  13.230  24.706  13.062
67600W        W35974   5.214  42.906   5.088
67601W        W35975  35.867  13.667  10.600
67602W        W35976  21.597  23.553   1.451
67603W        W35977  36.360  27.963   4.258
67604W        W35978   8.708  19.138   2.879
67605W        W35979  24.636  14.783  14.773
67606W        W35980  11.280  28.045  11.063
67607W        W35981   5.916  29.944   1.288
67608W        W35982  21.156   8.844   2.867
67609W        W35983   6.699  13.739   4.673
67610W        W35984  15.731  15.804  10.064
67611W        W35985  18.748  33.116   2.777
67612W        W35986  12.123  41.510  13.814
67613W        W35987  20.614  19.077  10.540
67614W        W35988  15.698  32.459  14.926
67615W        W35989  33.399  11.204  14.333
67616W        W35990  16.130   4.438  10.576
67617W        W35991  29.099  44.441  12.484
67618W        W35992  18.560   6.813   4.277
67619W        W35993   4.330   0.490  11.091
67620W        W35994  27.527   5.264  13.508
67621W        W35995  39.450  13.224  12.933
67622W        W35996  35.936   9.298  11.470
67623W        W35997  15.275  20.721   1.736
67624W        W35998  21.688  30.654   5.242
67625W        W35999  11.826   3.234   3.254
67626W        W36000  20.110  30.454  11.603
67627W        W36001  42.427  24.977  10.631
67628W        W36002   5.838  27.446   0.438
67629W        W36003  17.759  11.271   4.761
67630W        W36004  37.893  22.176   3.715
67631W        W36005   1.822  33.436  14.946
67632W        W36006  44.278   7.182  11.103
67633W        W36007  14.150   6.199   5.322
67634W        W36008  38.511  20.048   1.346
67635W        W36009   4.333  15.254   1.826
67636W        W36010  34.950   8.235  14.764
67637W        W36011  31.022   0.805   4.693
67638W        W36012  16.758  17.610   0.756
67639W        W36013  38.976  18.158  11.913
67640W        W36014   6.815  27.138  12.840
67641W        W36015   9.711  44.337  11.926
67642W        W36016  32.440  25.486   2.782
67643W        W36017   4.914   2.250   3.843
67644W        W36018   5.433  34.866  14.803
67645W        W36019  35.101  23.636   4.604
67646W        W36020  35.961  19.060   3.179
67647W        W36021  24.531  18.296   1.701
67648W        W36022  23.548   7.251   4.120
67649W        W36023  27.183  16.623  13.536
67650W        W36024  43.821  27.614  11.403
67651W        W36025   5.722  16.138   1.311
67652W        W36026  36.535  27.114   2.745
67653W        W36027  43.926   0.373   2.401
67654W        W36028  10.373   3.842   0.422
67655W        W36029  44.297  11.791  11.059
67656W        W36030  22.240  15.682  14.839
67657W        W36031  35.398  15.613  14.454
67658W        W36032  34.425  21.655  12.885
67659W        W36033  25.528  38.484   3.692
67660W        W36034  21.599   1.746   4.302
67661W        W36035  18.703  32.447   0.430
67662W        W36036  30.428  44.918   0.764
67663W        W36037   2.958  40.984  14.814
67664W        W36038  30.501  27.518  12.518
67665W        W36039   4.938  34.981  11.979
67666W        W36040  43.325   1.277  13.413
67667W        W36041  41.024  23.734  14.482
67668W        W36042  41.886  19.634  14.760
67669W        W36043  42.339   0.778   1.850
67670W        W36044  34.944   4.746  14.458
67671W        W36045  24.583   0.416   1.706
67672W        W36046  12.135  18.604   1.785
67673W        W36047  38.524  26.088   4.836
67674W        W36048  18.067  22.633  14.278
67675W        W36049  32.406  43.512  12.005
67676W        W36050   9.203  42.455   4.280
67677W        W36051  39.361  24.138   0.423
67678W        W36052  41.326  20.033  11.392
67679W        W36053   2.932  31.479  10.984
67680W        W36054   1.743  13.665  13.349
67681W        W36055  42.784  32.437   3.653
67682W        W36056  32.620   3.849   3.750
67683W        W36057  38.545  14.254  13.390
67684W        W36058   8.220  33.006   3.260
67685W        W36059  18.688  11.733  13.453
67686W        W36060  11.337   0.342  14.828
67687W        W36061  26.101  40.464  14.411
67688W        W36062   3.934  42.877  11.570
67689W        W36063  10.371  42.286   1.287
67690W        W36064  17.716  39.384   1.715
67691W        W36065   9.222  29.173   0.373
67692W        W36066  19.594  10.172   4.713
67693W        W36067  10.770  41.424   1.922
67694W        W36068  14.629  14.226  10.076
67695W        W36069  39.818  16.232   3.275
67696W        W36070  37.564  30.936   2.902
67697W        W36071  41.987   7.764   4.741
67698W        W36072  27.130  31.474   0.741
67699W        W36073  14.327  21.079  13.033
67700W        W36074  42.902  27.976   1.246
67701W        W36075  32.518  32.635   2.362
67702W        W36076  16.733  42.389  13.805
67703W        W36077  37.374  33.487  13.814
67704W        W36078  33.607   7.346  10.582
67705W        W36079  16.611  12.653   2.384
67706W        W36080  20.539   6.308   1.445
67707W        W36081   8.293   8.390   4.624
67708W        W36082  36.058  42.865   4.303
67709W        W36083  15.298   0.929  10.926
67710W        W36084  21.728  38.524  11.389
67711W        W36085  29.043  26.192  10.509
67712W        W36086  40.479  18.133   0.256
67713W        W36087  40.458  29.541   1.879
67714W        W36088   1.878  10.747  13.039
67715W        W36089   4.367  22.629   0.894
67716W        W36090  12.293  20.534  12.914
67717W        W36091  25.502  14.182   0.799
67718W        W36092  17.580  41.434  11.488
67719W        W36093  30.970  10.238   0.883
67720W        W36094  13.279  14.737   4.343
67721W        W36095  36.587  31.125  11.970
67722W        W36096  44.276  10.816   0.926
67723W        W36097  12.160   4.396  14.475
67724W        W36098  27.991  38.855   4.723
67725W        W36099  17.097  44.871   3.312
67726W        W36100  33.601  15.668   4.764
67727W        W36101  19.143  29.428  10.923
67728W        W36102  44.358  26.612  11.875
67729W        W36103  41.312  33.451  11.529
67730W        W36104  43.936  23.534   4.612
67731W        W36105  26.053  10.707  11.001
67732W        W36106  43.413   6.863  11.955
67733W        W36107  39.817  20.715   1.336
67734W        W36108  39.346  12.268   2.201
67735W        W36109   2.849   3.288   3.148
67736W        W36110  16.091  19.768  10.432
67737W        W36111  26.506  39.399  10.440
67738W        W36112  35.886   9.395  12.976
67739W        W36113   4.351  14.665  14.904
67740W        W36114  13.203  25.708   4.676
67741W        W36115  10.721   8.755  14.927
67742W        W36116  29.519  31.575   2.851
67743W        W36117  21.585   9.396   0.886
67744W        W36118  10.302  27.151   3.193
67745W        W36119   1.467   7.752   4.826
67746W        W36120  39.975  41.809   4.306
67747W        W36121   5.370   5.741  14.430
67748W        W36122  28.183  29.531  13.506
67749W        W36123  14.610  43.323  10.466
67750W        W36124   2.959  39.899   1.728
67751W        W36125   9.807  30.127   4.609
67752W        W36126  28.585  39.057   2.840
67753W        W36127  38.939   3.838   0.281
67754W        W36128   8.823  23.166  12.524
67755W        W36129   8.350  20.648   2.217
67756W        W36130  20.234   2.452   0.360
67757W        W36131  32.111  21.514  13.417
67758W        W36132  41.030   8.788  12.859
67759W        W36133  17.670  16.126  12.002
67760W        W36134  29.022  33.006  10.964
67761W        W36135  23.013   8.683   3.369
67762W        W36136  18.245  34.502   3.648
67763W        W36137  24.523   8.854  12.434
67764W        W36138  14.681  42.993  11.977
67765W        W36139   6.883   7.823   1.411
67766W        W36140   2.297  42.304   0.906
67767W        W36141   7.696  17.652   3.719
67768W        W36142  14.233  11.326   0.479
67769W        W36143  25.580   6.268   4.344
67770W        W36144  44.873  41.384   3.702
67771W        W36145  39.423  22.595   3.220
67772W        W36146   1.268  16.262  11.938
67773W        W36147  27.077  38.409   4.186
67774W        W36148  35.422  25.634  12.361
67775W        W36149  23.536  25.113  13.010
67776W        W36150   9.722   5.933  12.401
67777W        W36151  34.575   3.443   4.670
67778W        W36152  19.208   7.191  12.403
67779W        W36153  16.673   0.802  13.529
67780W        W36154  13.238  42.988   3.705
67781W        W36155   9.190  20.161   1.892
67782W        W36156  17.709  17.114   4.188
67783W        W36157  16.759  30.564  12.360
67784W        W36158   3.242  40.481  14.904
67785W        W36159  37.377  29.465   1.379
67786W        W36160  30.633  28.092  14.793
67787W        W36161  30.561  39.423   4.234
67788W        W36162  39.413  31.110  10.956
67789W        W36163  40.466  36.078  10.149
67790W        W36164  35.104  43.351   2.369
67791W        W36165  41.381  43.008   4.153
67792W        W36166   2.942  15.638   2.733
67793W        W36167  32.406  44.385  12.950
67794W        W36168  22.571  27.125   2.221
67795W        W36169  23.007  32.619   3.289
67796W        W36170   6.829  19.760   3.213
67797W        W36171   6.287  30.417  10.557
67798W        W36172  16.128  37.577   3.312
67799W        W36173  15.716  35.505  13.842
67800W        W36174  13.299  27.106  13.331
67801W        W36175   6.378  38.901  13.819
67802W        W36176  22.231   5.417  10.971
67803W        W36177  32.462   4.708   1.909
67804W        W36178  37.074  29.978   4.696
67805W        W36179  38.502  33.442   0.469
67806W        W36180  15.165  36.914   4.680
67807W        W36181   9.254  44.942  12.948
67808W        W36182  39.025  27.591  12.376
67809W        W36183   0.308  28.494  14.924
67810W        W36184  16.679  25.038  11.103
67811W        W36185  33.593  44.812   3.641
67812W        W36186  37.542  22.579  13.946
67813W        W36187  33.528  28.529  13.421
67814W        W36188  16.613   6.353  14.506
67815W        W36189   7.279  36.384   0.918
67816W        W36190  25.027  15.758  13.803
67817W        W36191  39.949   9.851   2.400
67818W        W36192  31.926  39.456  11.483
67819W        W36193  38.951   5.427  13.331
67820W        W36194  27.976  31.120  12.010
67821W        W36195  31.146   3.723  13.050
67822W        W36196  15.312   0.812  12.564
67823W        W36197   8.695  17.627   0.870
67824W        W36198  22.740  13.742  11.023
67825W        W36199  25.192  17.651   0.933
67826W        W36200  23.602  40.357  10.587
67827W        W36201   9.872  41.377   3.361
67828W        W36202   7.723  12.701  10.063
67829W        W36203  11.360  35.376   0.866
67830W        W36204  22.073  22.566   2.855
67831W        W36205   8.814  35.924  14.804
67832W        W36206   4.870   1.866  12.477
67833W        W36207   2.293  44.347   0.256
67834W        W36208  24.719  37.401  14.947
67835W        W36209  39.821  13.649   3.302
67836W        W36210  13.282  37.425  10.028
67837W        W36211  34.968  37.969   3.670
67838W        W36212  36.481  23.571  13.373
67839W        W36213  21.610   6.847   0.738
67840W        W36214  19.623  41.380  11.075
67841W        W36215  36.524  17.066   0.292
67842W        W36216  18.216  18.713  11.122
67843W        W36217   5.382  42.002   4.832
67844W        W36218  14.339  40.988   1.391
67845W        W36219   5.875   6.418  14.507
67846W        W36220   4.897  14.794  13.512
67847W        W36221   3.824  40.411  11.928
67848W        W36222  43.302  41.345   1.415
67849W        W36223   3.370   4.730   0.925
67850W        W36224   4.415  36.062  11.943
67851W        W36225   1.975  44.003   4.617
67852W        W36226  28.056  44.458  14.833
67853W        W36227  18.742  41.040   1.303
67854W        W36228  22.123  39.318  10.532
67855W        W36229  23.732  12.154   3.869
67856W        W36230  16.087  31.581   1.224
67857W        W36231  38.038  36.877  13.885
67858W        W36232  16.242  13.737  14.017
67859W        W36233   1.848  12.827  10.406
67860W        W36234  21.617  41.802   0.478
67861W        W36235  33.119   4.796  10.975
67862W        W36236  31.921  43.892   4.216
67863W        W36237  40.373  23.727   2.329
67864W        W36238   3.293  28.144  13.005
67865W        W36239   0.415  15.088  11.530
67866W        W36240  24.127  15.140   3.693
67867W        W36241  41.297  18.095  10.973
67868W        W36242  42.831  17.204  13.059
67869W        W36243  26.987  25.564  10.895
67870W        W36244  21.584  34.393  10.133
67871W        W36245  22.141   4.753   4.777
67872W        W36246  14.203  24.179   1.860
67873W        W36247  37.495  15.804  14.822
67874W        W36248  37.580  18.572   0.280
67875W        W36249  39.856  35.106  10.495
67876W        W36250  29.051   5.885  14.484
67877W        W36251  28.148  17.179   1.439
67878W        W36252  39.007  20.264   3.856
67879W        W36253   1.791  39.981   3.699
67880W        W36254  42.310  30.630   3.153
67881W        W36255  16.568  16.764  11.393
67882W        W36256  35.603  25.625   1.270
67883W        W36257  43.006  26.630   4.642
67884W        W36258   8.234  23.672  12.074
67885W        W36259  33.501  41.891   2.298
67886W        W36260  36.021  31.558  10.443
67887W        W36261   0.921  41.342  12.463
67888W        W36262   7.199  27.113  14.980
67889W        W36263  13.840   5.376  11.415
67890W        W36264  37.425   3.403  10.590
67891W        W36265  34.543  39.809   0.280
67892W        W36266  21.173  23.009  10.470
67893W        W36267  12.354   0.786  11.873
67894W        W36268  25.005  29.958   3.760
67895W        W36269  40.433  35.407  11.554
67896W        W36270  26.654  37.862  12.344
67897W        W36271  13.309  28.666  13.894
67898W        W36272  34.584  19.551   2.257
67899W        W36273  33.505  32.055  11.985
67900W        W36274  20.545  12.221  13.022
67901W        W36275  42.024   9.357  13.323
67902W        W36276  20.710  22.024  11.124
67903W        W36277  36.571  30.954   4.245
67904W        W36278  17.106  20.599  13.317
67905W        W36279   4.836  21.256   1.844
67906W        W36280  27.987  20.723  11.015
67907W        W36281   0.335  42.499  13.505
67908W        W36282  18.619  25.979  12.427
67909W        W36283  22.598  13.309  10.452
67910W        W36284  34.046   4.851  11.589
67911W        W36285  28.987   3.752  11.504
67912W        W36286   5.393  25.026   2.200
67913W        W36287  16.141  39.465   4.641
67914W        W36288  18.122   6.402  10.410
67915W        W36289  20.266  41.300   3.159
67916W        W36290  41.487  21.259  14.023
67917W        W36291  11.278  29.087  12.960
67918W        W36292  32.113  10.650  14.994
67919W        W36293  29.990  11.741   3.148
67920W        W36294  16.636  11.282  12.420
67921W        W36295  42.366  21.086  14.472
67922W        W36296  28.679   3.916   3.816
67923W        W36297   5.378  30.517   1.811
67924W        W36298  38.863  21.525   0.443
67925W        W36299  37.012  12.342   3.695
67926W        W36300  20.035   3.843   0.731
67927W        W36301  14.823  42.776  10.404
67928W        W36302   9.859  21.244  10.508
67929W        W36303  13.297  39.026   4.789
67930W        W36304  20.062  39.414   9.952
67931W        W36305  39.831   2.277  12.927
67932W        W36306  35.599  23.563  10.558
67933W        W36307   1.744   6.380   0.881
67934W        W36308  44.325   8.733   3.293
67935W        W36309  36.349   2.911   0.395
67936W        W36310  16.130  41.985  11.534
67937W        W36311  28.558  44.477  14.760
67938W        W36312  17.789   9.748   2.389
67939W        W36313  21.606  40.009   3.799
67940W        W36314  15.129  11.331   5.717
67941W        W36315  25.555  37.877  13.319
67942W        W36316  29.513  36.950   2.895
67943W        W36317   3.869  26.675  10.912
67944W        W36318  40.364  12.816  11.085
67945W        W36319   1.451  30.961   0.967
67946W        W36320  32.027  35.406  13.046
67947W        W36321  14.320  19.681  12.025
67948W        W36322  19.597  35.040   4.332
67949W        W36323  24.101  18.658  10.417
67950W        W36324  33.524  43.465   0.955
67951W        W36325  24.529  36.402  12.976
67952W        W36326  15.118  36.065   2.388
67953W        W36327  26.116  29.534  10.435
67954W        W36328  30.659   7.258  14.298
67955W        W36329  28.930  28.455  12.954
67956W        W36330  13.692  12.136   1.760
67957W        W36331  44.404  12.817  11.989
67958W        W36332  36.512   1.904  14.443
67959W        W36333  33.474  33.552   4.149
67960W        W36334  44.383  25.121   2.813
67961W        W36335  37.488  17.573   4.321
67962W        W36336  15.122  16.716  13.994
67963W        W36337  40.435  26.695   2.404
67964W        W36338  29.510  34.937  11.057
67965W        W36339  24.648  28.956  12.826
67966W        W36340  19.555  33.499  10.084
67967W        W36341  14.812  11.835  14.459
67968W        W36342  38.412   3.313  14.280
67969W        W36343  26.694  22.221  12.481
67970W        W36344  32.615   0.284   4.163
67971W        W36345  24.479  18.554  14.427
67972W        W36346   7.813  24.073   1.239
67973W        W36347  20.610  25.085   3.160
67974W        W36348  34.941   4.305   2.368
67975W        W36349  20.725  40.008  13.953
67976W        W36350  38.472  26.509  13.904
67977W        W36351  26.543  30.999  12.414
67978W        W36352   8.822   1.848   4.786
67979W        W36353  35.956  39.488  10.926
67980W        W36354  44.359  43.888   3.786
67981W        W36355  34.108  22.506   1.911
67982W        W36356   2.445  15.269   3.816
67983W        W36357  39.473  30.418   1.231
67984W        W36358  10.801  22.090   1.865
67985W        W36359  11.272  12.263   4.682
67986W        W36360   3.936  27.630  11.420
67987W        W36361   1.475  22.652   1.408
67988W        W36362  10.344  35.065  13.878
67989W        W36363  11.661   5.769   2.279
67990W        W36364  41.315  19.251   1.805
67991W        W36365  31.071  18.102   1.897
67992W        W36366  25.684  22.995  11.569
67993W        W36367  37.076  15.208   0.335
67994W        W36368  37.880  11.683  10.413
67995W        W36369  14.222   1.931   1.244
67996W        W36370   6.357  11.333   1.375
67997W        W36371  17.084   2.257  14.300
67998W        W36372  43.822  14.226  10.536
67999W        W36373  35.867  18.175  11.482
68000W        W36374  29.140  16.170   1.816
68001W        W36375  43.369  20.231   3.256
68002W        W36376  25.981  17.700  10.156
68003W        W36377   2.302  40.877   3.643
68004W        W36378  30.939  16.602   2.418
68005W        W36379  39.063  41.412  14.798
68006W        W36380  29.605  13.240  14.904
68007W        W36381  21.564  39.991  13.834
68008W        W36382  44.773  23.079   0.727
68009W        W36383  39.906  39.839  11.569
68010W        W36384  31.025   6.783  11.089
68011W        W36385   9.188  17.163   3.768
68012W        W36386  24.122  36.949  13.830
68013W        W36387  18.616  12.681  10.953
68014W        W36388  41.355  27.109   1.345
68015W        W36389  19.620  41.944  14.904
68016W        W36390  43.962  10.847  11.441
68017W        W36391  36.998  13.114   2.704
68018W        W36392  39.836  42.932  13.047
68019W        W36393  25.605   7.791   1.721
68020W        W36394  39.938  15.688  14.449
68021W        W36395  26.553   3.806  14.387
68022W        W36396  27.960  20.157  12.471
68023W        W36397   5.695  25.196   4.216
68024W        W36398  39.002   0.844   3.325
68025W        W36399  17.129  33.065   3.850
68026W        W36400  34.114  39.902  11.069
68027W        W36401  39.349   3.831  12.354
68028W        W36402  43.911  28.447  12.403
68029W        W36403   7.679  36.943  14.387
68030W        W36404  10.316  20.523  13.432
68031W        W36405  37.468   6.782  13.966
68032W        W36406  12.326  23.158   4.129
68033W        W36407  29.028  26.657   4.325
68034W        W36408  24.075  35.021  10.966
68035W        W36409   5.871  27.138  11.525
68036W        W36410  34.425  36.845   0.762
68037W        W36411   1.333  28.142  14.471
68038W        W36412  10.176  39.950   1.395
68039W        W36413   3.222  11.692   1.827
68040W        W36414  43.973  13.346   2.198
68041W        W36415   2.291  27.958  14.377
68042W        W36416  39.056  26.021   2.320
68043W        W36417  31.530  43.015  14.772
68044W        W36418  17.242   9.882  13.826
68045W        W36419   2.261  16.149   1.281
68046W        W36420  25.178  39.005   3.172
68047W        W36421  15.243  13.158   3.729
68048W        W36422  31.554  12.633  12.544
68049W        W36423  24.660  32.507  12.497
68050W        W36424  35.009   4.862  13.476
68051W        W36425  37.875  19.589   0.919
68052W        W36426  16.621  43.489  14.882
68053W        W36427  11.332   2.404   1.367
68054W        W36428  44.410  24.163   0.264
68055W        W36429  21.088  38.941  13.010
68056W        W36430  19.567  24.707   0.860
68057W        W36431  23.211  13.712   1.882
68058W        W36432  34.870   5.281   2.245
68059W        W36433   4.210  11.630  10.994
68060W        W36434  44.294   8.163  13.843
68061W        W36435  18.701  16.146   3.167
68062W        W36436   6.897  22.145  11.399
68063W        W36437  12.685  28.540  13.449
68064W        W36438  35.067  28.166  14.998
68065W        W36439  29.138  10.143   3.691
68066W        W36440  16.212  33.929   2.808
68067W        W36441  29.161  39.002   2.248
68068W        W36442   3.916  16.653  10.424
68069W        W36443  16.801  26.673   1.354
68070W        W36444  28.550  25.525   4.222
68071W        W36445  19.121  12.318   0.389
68072W        W36446  27.636  44.494   4.257
68073W        W36447  18.138  20.602   0.437
68074W        W36448  19.153   4.338   3.648
68075W        W36449   6.837  10.776  10.973
68076W        W36450  27.631  19.762  13.998
68077W        W36451  26.065  35.602   0.389
68078W        W36452   8.271  29.511   3.187
68079W        W36453   3.798  40.915  14.851
68080W        W36454   9.856  31.103   0.735
68081W        W36455  39.857  10.189   1.425
68082W        W36456  25.025  34.545  12.357
68083W        W36457  25.578  14.159   0.338
68084W        W36458   0.910  15.097   0.393
68085W        W36459  29.137   0.850  14.006
68086W        W36460  18.584  10.242   1.917
68087W        W36461  40.041  44.864   1.430
68088W        W36462  22.652  35.517   0.330
68089W        W36463  15.792  42.403  14.440
68090W        W36464  24.033  10.215  10.592
68091W        W36465  25.103  42.844   9.999
68092W        W36466  42.396  23.005   2.346
68093W        W36467   2.940  35.015   0.471
68094W        W36468  24.653   3.353   4.207
68095W        W36469  37.520  31.927  13.028
68096W        W36470  19.230  34.441   4.613
68097W        W36471  25.044  30.094   2.848
68098W        W36472  43.924   2.791  13.815
68099W        W36473  42.835  13.675  11.030
68100W        W36474  10.238  28.981   0.967
68101W        W36475  40.328  33.125  12.964
68102W        W36476  44.852  30.908   4.632
68103W        W36477  35.023  17.717   2.856
68104W        W36478   0.418   7.701   0.810
68105W        W36479  24.540   8.793   3.357
68106W        W36480  14.712  16.210  13.880
68107W        W36481   4.919  20.076  12.931
68108W        W36482  10.229  40.843  13.963
68109W        W36483  41.519   5.313  12.911
68110W        W36484  18.724  21.157  14.276
68111W        W36485  39.061  39.018   2.276
68112W        W36486   2.943  28.544   1.715
68113W        W36487   2.826  11.278  13.013
68114W        W36488   8.401  21.619   5.690
68115W        W36489  22.034  24.019  14.929
68116W        W36490  44.982  23.650  12.567
68117W        W36491  42.325  31.091   4.203
68118W        W36492  14.252  42.910   1.451
68119W        W36493   6.264  29.090  10.005
68120W        W36494  28.542  36.502  12.881
68121W        W36495  10.384  29.474   1.271
68122W        W36496   4.229  38.352   3.158
68123W        W36497   2.413   6.749   2.720
68124W        W36498  37.064  17.188   1.368
68125W        W36499  42.922  19.659   4.236
68126W        W36500  23.645  21.029   0.338
68127W        W36501  42.839   7.703  12.562
68128W        W36502  23.231  33.132  13.880
68129W        W36503  18.544  37.535  14.861
68130W        W36504  25.189  22.221   2.690
68131W        W36505  15.137  40.544  11.918
68132W        W36506   1.291  32.892   3.811
68133W        W36507   3.360  30.939   2.837
68134W        W36508  32.525   5.801   2.329
68135W        W36509  30.420  44.893   1.884
68136W        W36510   6.699  32.506  13.357
68137W        W36511  19.682   2.279   5.251
68138W        W36512  14.195  41.861   0.884
68139W        W36513   5.317  20.667   3.635
68140W        W36514   9.713  41.435   3.640
68141W        W36515  23.051  18.226  11.034
68142W        W36516  32.476  43.299  13.967
68143W        W36517  26.680  30.082  14.908
68144W        W36518  23.547   9.698   3.348
68145W        W36519   9.357   0.889   1.811
68146W        W36520  21.595  22.597  13.857
68147W        W36521  34.074  15.195   0.729
68148W        W36522  36.038  16.154   4.177
68149W        W36523  17.204  16.313  10.488
68150W        W36524  16.091  31.437  11.855
68151W        W36525   2.861  31.076  10.933
68152W        W36526   2.384  39.560  12.992
68153W        W36527  31.501  41.377  11.106
68154W        W36528   6.248  43.466  10.973
68155W        W36529   3.837  24.623   1.355
68156W        W36530   3.939   1.450  13.856
68157W        W36531  38.016  18.126   9.983
68158W        W36532  37.011  22.161  14.394
68159W        W36533  26.189  15.779   0.886
68160W        W36534  40.929  42.901  13.433
68161W        W36535  15.313  25.990   0.932
68162W        W36536  12.196  32.047  13.525
68163W        W36537  39.849  38.059  11.386
68164W        W36538  24.200  28.146  10.539
68165W        W36539  29.431   8.276  11.896
68166W        W36540  11.840  27.037  13.332
68167W        W36541   5.844  18.677  11.023
68168W        W36542   9.749  15.201   3.810
68169W        W36543   2.295   4.403   2.852
68170W        W36544  23.187  34.493   1.363
68171W        W36545  43.432  28.093   0.946
68172W        W36546   6.339  28.626  14.769
68173W        W36547   4.857   7.687   0.367
68174W        W36548  25.163  42.955  11.128
68175W        W36549  12.361  35.457  12.410
68176W        W36550  38.386  12.360  13.948
68177W        W36551  42.973  35.929  11.902
68178W        W36552  21.145  30.928   0.271
68179W        W36553   2.333  40.952  11.552
68180W        W36554  29.447  30.531  12.046
68181W        W36555  44.437   4.733   5.262
68182W        W36556  28.624  29.929  14.355
68183W        W36557   5.233   3.246   3.145
68184W        W36558  26.664  20.696  14.835
68185W        W36559   4.751  32.529  13.834
68186W        W36560  17.075  10.775  13.019
68187W        W36561  32.418  32.071  11.566
68188W        W36562   9.752  14.185   2.833
68189W        W36563  39.327  17.638   3.774
68190W        W36564  43.369  34.492  12.359
68191W        W36565  31.082   5.854   3.716
68192W        W36566  44.827  15.607  11.882
68193W        W36567   5.878  41.999  11.996
68194W        W36568  12.621  24.034  13.491
68195W        W36569  43.298  40.484   4.729
68196W        W36570  31.443  25.034  14.930
68197W        W36571  31.143  14.132   2.885
68198W        W36572  17.159  17.688  10.483
68199W        W36573  16.803  16.752  13.398
68200W        W36574  26.576  33.515  10.550
68201W        W36575  33.111  37.971   0.392
68202W        W36576  25.531   8.182   3.715
68203W        W36577  15.648  27.027  14.844
68204W        W36578  21.120   3.263   0.748
68205W        W36579   9.880  17.660   4.186
68206W        W36580   2.433  44.754   4.790
68207W        W36581  32.084  42.504   0.870
68208W        W36582  12.701  20.655   3.643
68209W        W36583   4.930   1.965  10.601
68210W        W36584  35.962  27.057   4.255
68211W        W36585  19.067  22.678  11.484
68212W        W36586  26.013  11.764   0.357
68213W        W36587  27.687  44.358  10.427
68214W        W36588  33.018  22.228   1.823
68215W        W36589  25.090  23.214  10.627
68216W        W36590  29.599  30.419   1.263
68217W        W36591  15.740  27.972   0.927
68218W        W36592  16.609  38.867  11.467
68219W        W36593  44.892  21.629   2.720
68220W        W36594   6.380  30.561   1.762
68221W        W36595  16.631  39.547  12.548
68222W        W36596  25.103  33.493   1.917
68223W        W36597  33.407  24.715   2.332
68224W        W36598   7.768   5.324   3.376
68225W        W36599  39.478  29.115   1.791
68226W        W36600  40.016  20.166  10.920
68227W        W36601  15.673  43.770   2.711
68228W        W36602  18.573  25.172  10.936
68229W        W36603  12.653  13.238  11.864
68230W        W36604  33.598  44.348   4.355
68231W        W36605  25.601  26.960  12.455
68232W        W36606  26.005  24.070  10.984
68233W        W36607  29.527   6.871  13.955
68234W        W36608  18.258  30.473   4.672
68235W        W36609  14.762  38.953   9.973
68236W        W36610  38.954  10.179   2.340
68237W        W36611  32.433  28.962   0.841
68238W        W36612  38.040  22.619  11.474
68239W        W36613  21.604  32.585  12.927
68240W        W36614  35.560  29.629   2.269
68241W        W36615  18.153  37.382  11.032
68242W        W36616  19.248   2.243   4.188
68243W        W36617  24.659  16.160  11.885
68244W        W36618   2.328   3.790  14.791
68245W        W36619  17.128  24.694  10.443
68246W        W36620  22.055  22.683  14.362
68247W        W36621  39.032  11.306   4.311
68248W        W36622  19.775  44.347  13.888
68249W        W36623  13.826   0.823  12.048
68250W        W36624  31.436  25.571  12.046
68251W        W36625  19.599  44.274   4.129
68252W        W36626  31.641  33.931   1.276
68253W        W36627  11.270  16.747   2.264
68254W        W36628  37.977  37.459  13.016
68255W        W36629  43.369  40.879  12.382
68256W        W36630  12.214  44.318   4.731
68257W        W36631  19.705  20.648   2.797
68258W        W36632  11.185   6.699   0.760
68259W        W36633  10.810   9.322  11.886
68260W        W36634  35.523  12.807  10.606
68261W        W36635   5.781  29.599  13.527
68262W        W36636  23.149  27.053  14.503
68263W        W36637  26.101   4.723   3.728
68264W        W36638  36.389  27.687  11.384
68265W        W36639  16.190  27.990   3.373
68266W        W36640   1.780  43.813   0.244
68267W        W36641  18.788  28.551  12.897
68268W        W36642  35.417  26.025  14.824
68269W        W36643   6.236   5.847  14.309
68270W        W36644  10.783   0.374   4.272
68271W        W36645  26.050  32.533  14.031
68272W        W36646  28.457  16.174  13.828
68273W        W36647  16.622  30.426   0.419
68274W        W36648  36.934   4.704  12.532
68275W        W36649  44.000  18.552   1.261
68276W        W36650  14.760  36.529  11.575
68277W        W36651  33.507  16.635   2.677
68278W        W36652  14.106  44.848  11.522
68279W        W36653  28.127  17.631  12.887
68280W        W36654  13.680   8.819  11.488
68281W        W36655  28.152  29.512   0.730
68282W        W36656  27.562  26.034   2.248
68283W        W36657  36.459  32.030  14.286
68284W        W36658   3.305  27.552  10.628
68285W        W36659   8.667  37.061  14.480
68286W        W36660  23.664   1.943  12.384
68287W        W36661  14.151  35.457  12.514
68288W        W36662  15.251  44.918   0.859
68289W        W36663   3.875  23.593   0.329
68290W        W36664  19.644  15.718   3.653
68291W        W36665   6.206  24.995  12.391
68292W        W36666  22.599  30.062  12.998
68293W        W36667   8.852  14.250   4.322
68294W        W36668  24.580  41.814  13.912
68295W        W36669  26.063   8.660   2.833
68296W        W36670   2.805   5.798  10.980
68297W        W36671  33.593  23.631   0.850
68298W        W36672  38.453  12.675   3.864
68299W        W36673  22.665  10.221   4.337
68300W        W36674  32.936  26.020  11.886
68301W        W36675  37.377  37.447   2.400
68302W        W36676  24.658  17.169  11.428
68303W        W36677  32.015   2.258  12.950
68304W        W36678  21.151  44.360   5.230
68305W        W36679  35.472   5.786   3.281
68306W        W36680  10.802  27.104   4.119
68307W        W36681  18.621  27.100   0.408
68308W        W36682  32.406   9.291   4.599
68309W        W36683  24.124  43.464  11.858
68310W        W36684  13.236   6.377  12.085
68311W        W36685  24.498  41.807   2.714
68312W        W36686  30.142   1.377   3.370
68313W        W36687   8.313  28.450   9.667
68314W        W36688   4.343  44.949   1.223
68315W        W36689  26.703   8.264   5.281
68316W        W36690  20.547  21.235  12.015
68317W        W36691  44.881  21.667   0.948
68318W        W36692   4.854  39.856  11.918
68319W        W36693  11.856  24.658   1.441
68320W        W36694  38.935  26.181   2.693
68321W        W36695  30.044  41.904   3.164
68322W        W36696   0.339  27.475  14.793
68323W        W36697  40.926  42.388  10.625
68324W        W36698  17.668  14.711  12.015
68325W        W36699  16.650  14.248  14.995
68326W        W36700  33.582  12.767  14.512
68327W        W36701   5.811  12.331   4.811
68328W        W36702  24.150  32.460   2.381
68329W        W36703  11.753  11.344   2.188
68330W        W36704   0.348  41.423  12.022
68331W        W36705   8.876  10.317   2.776
68332W        W36706   3.827  31.515   3.705
68333W        W36707  11.653  33.494   0.418
68334W        W36708   9.787   2.721  10.951
68335W        W36709  11.763   0.281   2.378
68336W        W36710  43.479  42.519   2.327
68337W        W36711  22.564  32.913  12.976
68338W        W36712  40.808  13.615  12.366
68339W        W36713  35.070  28.171  13.512
68340W        W36714  29.463  14.624   4.752
68341W        W36715  30.075  25.517  14.450
68342W        W36716  24.158  33.981  11.504
68343W        W36717   4.331  29.923   2.370
68344W        W36718   7.316  41.915  10.907
68345W        W36719  44.489   5.827   4.804
68346W        W36720  39.885  20.242  12.579
68347W        W36721  12.330  36.936  12.449
68348W        W36722  19.072  31.922  13.395
68349W        W36723  39.408  17.605   0.913
68350W        W36724  26.116  31.565  14.987
68351W        W36725  26.053  33.078   3.180
68352W        W36726  26.993  26.478  13.397
68353W        W36727  28.518  27.455   3.823
68354W        W36728  30.040   3.929   2.882
68355W        W36729  20.591  43.433  13.340
68356W        W36730   4.833  16.637   2.700
68357W        W36731  16.160   6.741  13.365
68358W        W36732  14.818   2.893   0.472
68359W        W36733  37.893  11.344   1.317
68360W        W36734   4.227  27.087   4.233
68361W        W36735   8.375  24.607   2.236
68362W        W36736  34.073  25.700  14.960
68363W        W36737  11.730  10.359  12.411
68364W        W36738  12.688  26.661   2.788
68365W        W36739   7.205  13.243  12.042
68366W        W36740   0.273   3.945  10.642
68367W        W36741  19.283  30.135  13.958
68368W        W36742  31.927   3.749   5.322
68369W        W36743  39.822   7.856  12.465
68370W        W36744  28.056  25.510  13.887
68371W        W36745   0.873  10.362  10.472
68372W        W36746  41.977   7.222   1.931
68373W        W36747  16.248  41.805   2.675
68374W        W36748  38.071  40.345   1.308
68375W        W36749  30.574   9.323  10.618
68376W        W36750  38.469  36.539   1.865
68377W        W36751  43.890  18.642  10.604
68378W        W36752  15.787   7.757   1.825
68379W        W36753  17.755   6.196   2.408
68380W        W36754  23.050  32.511   0.273
68381W        W36755  22.079  42.313   4.645
68382W        W36756  35.926   6.792   1.862
68383W        W36757   3.452   6.748  12.394
68384W        W36758   9.868  36.026  14.769
68385W        W36759  29.175  27.051   3.635
68386W        W36760  11.762  10.145   4.166
68387W        W36761   9.813   6.342   1.395
68388W        W36762  38.539   5.798   4.291
68389W        W36763  35.503   0.915   4.702
68390W        W36764  12.286  16.718  14.328
68391W        W36765  27.601  28.089   0.474
68392W        W36766   9.711  14.743  11.012
68393W        W36767  41.308   8.742  14.477
68394W        W36768  24.992  15.151   3.649
68395W        W36769  39.467  18.128  13.428
68396W        W36770  10.165  43.461   2.283
68397W        W36771   5.359  43.411  13.477
68398W        W36772   6.748  43.510  11.506
68399W        W36773  24.697  39.861  11.494
68400W        W36774  12.290   6.242  14.789
68401W        W36775  36.016  28.107   1.862
68402W        W36776  21.626  31.896   4.251
68403W        W36777   3.950  19.175  13.829
68404W        W36778  29.979  37.065  11.947
68405W        W36779   1.311   9.818  12.908
68406W        W36780  27.116  37.489  14.767
68407W        W36781  42.008  28.651  12.415
68408W        W36782  30.968  40.420  11.986
68409W        W36783   8.171  25.005   0.753
68410W        W36784  24.632  21.026   3.200
68411W        W36785  42.912  37.397   3.177
68412W        W36786  36.977  41.028  12.560
68413W        W36787  44.808  24.641   1.339
68414W        W36788  27.066  18.274  13.873
68415W        W36789  26.565  36.548   1.902
68416W        W36790  30.913  11.724   4.278
68417W        W36791  32.892  10.243   0.424
68418W        W36792  37.077  41.338   3.145
68419W        W36793  36.445   4.737   4.253
68420W        W36794   8.194  14.272  14.844
68421W        W36795  28.055  19.697  12.894
68422W        W36796   8.659  37.478  13.821
68423W        W36797   0.401  27.195  12.902
68424W        W36798  19.095  12.690  12.054
68425W        W36799   8.863  14.108  12.476
68426W        W36800  42.348  15.739  13.307
68427W        W36801  35.555  11.272  13.048
68428W        W36802  32.574  14.812  11.975
68429W        W36803  41.879   2.284   4.138
68430W        W36804  28.619  38.907   2.197
68431W        W36805  33.463   4.735   1.306
68432W        W36806  29.010   9.823  13.868
68433W        W36807   8.363  34.931   3.297
68434W        W36808  20.681   6.689  10.413
68435W        W36809  38.565  19.758  12.056
68436W        W36810  28.999  10.214   2.196
68437W        W36811  20.170  13.846   0.403
68438W        W36812  36.405   8.806   1.901
68439W        W36813  30.478   2.887   4.315
68440W        W36814  26.561   1.941  11.074
68441W        W36815  30.512  33.499   0.353
68442W        W36816  31.029  24.101   4.199
68443W        W36817  33.426   7.905  13.879
68444W        W36818  11.208  17.680   3.860
68445W        W36819  28.635  41.414   0.289
68446W        W36820  24.123   0.884   4.661
68447W        W36821  36.415   1.330   1.351
68448W        W36822  17.659  18.676  14.365
68449W        W36823  28.611  29.031  13.434
68450W        W36824   2.723  16.671   4.784
68451W        W36825  22.119  20.768   2.866
68452W        W36826  21.684   7.222  13.500
68453W        W36827  23.016  23.222   0.894
68454W        W36828  12.825   8.735  10.587
68455W        W36829  35.549   1.965  14.362
68456W        W36830  10.658  31.425  12.435
68457W        W36831  20.095  29.553   3.170
68458W        W36832  12.637  13.317  13.418
68459W        W36833  19.257   3.819  12.969
68460W        W36834  21.595  39.512   3.765
68461W        W36835  23.059  12.712  11.580
68462W        W36836  15.134  43.785  12.424
68463W        W36837  23.651  29.433   4.281
68464W        W36838   9.864  33.467   4.286
68465W        W36839  43.454  15.597  10.609
68466W        W36840   8.207  30.652  11.425
68467W        W36841   2.376   2.323   1.376
68468W        W36842  35.044   2.966  13.389
68469W        W36843  13.751   2.966   0.827
68470W        W36844  36.572  14.771   0.771
68471W        W36845  41.385  22.526  12.353
68472W        W36846  15.257  16.671   3.661
68473W        W36847  31.951  31.614  11.455
68474W        W36848  38.489   1.468   3.727
68475W        W36849  30.163  26.021   4.204
68476W        W36850  26.006   2.842  13.505
68477W        W36851  40.846  25.575  14.495
68478W        W36852   5.216  13.741  12.411
68479W        W36853  15.303  12.797  13.018
68480W        W36854  25.671  18.215   2.794
68481W        W36855   5.862  34.443   1.313
68482W        W36856  44.361  14.781  10.950
68483W        W36857  30.445   1.397  11.025
68484W        W36858  15.160  28.038  14.902
68485W        W36859  21.566  15.779  12.360
68486W        W36860   9.803  10.867  11.019
68487W        W36861   4.276  38.032  13.402
68488W        W36862  29.477  44.909  14.449
68489W        W36863  36.852  21.610   1.833
68490W        W36864   8.402  33.398  11.956
68491W        W36865  20.609  44.969   0.815
68492W        W36866  33.014  37.346  14.831
68493W        W36867  43.395  26.954   1.316
68494W        W36868  26.068  32.134   0.351
68495W        W36869  35.909  28.678  10.587
68496W        W36870  25.031   3.374   2.294
68497W        W36871  44.388  25.043  12.871
68498W        W36872  14.679  14.182  12.090
68499W        W36873  24.186  14.733   3.849
68500W        W36874  44.811   4.329  13.331
68501W        W36875  18.551  31.987  14.928
68502W        W36876  18.268  26.185  11.454
68503W        W36877  38.991  10.660  14.506
68504W        W36878  21.758  30.443  13.828
68505W        W36879  39.359  15.256   1.927
68506W        W36880  26.085  34.583   4.797
68507W        W36881  29.588  42.824  10.924
68508W        W36882  17.766  38.880  14.488
68509W        W36883  43.395   4.714  12.386
68510W        W36884   9.676  34.885   3.784
68511W        W36885  32.120  17.223   1.854
68512W        W36886  41.038  35.409  14.502
68513W        W36887  19.759   5.792   4.736
68514W        W36888   8.281  18.091   0.881
68515W        W36889   6.819  21.529   2.239
68516W        W36890  40.342  37.411  10.972
68517W        W36891  33.910   9.284   1.354
68518W        W36892   3.297  35.934  10.040
68519W        W36893  37.050  18.290   4.263
68520W        W36894  31.564  27.948  14.475
68521W        W36895  29.457   3.873  11.510
68522W        W36896  28.578  38.900   3.175
68523W        W36897  19.113  33.917  13.826
68524W        W36898  42.336  37.996   0.477
68525W        W36899  21.713  15.166  13.324
68526W        W36900  15.625   8.886   5.166
68527W        W36901  44.820   3.877   0.252
68528W        W36902   2.313  19.733   5.170
68529W        W36903  40.800   3.389  11.559
68530W        W36904   7.211   5.381  14.403
68531W        W36905  34.978  30.420  12.459
68532W        W36906   5.872  21.122   4.834
68533W        W36907   5.754   4.800  14.504
68534W        W36908  20.153  28.445   1.316
68535W        W36909   1.957  42.963  10.887
68536W        W36910  38.362  41.524   4.190
68537W        W36911   5.278  27.152   2.683
68538W        W36912  44.277  27.679  10.593
68539W        W36913  20.667   4.393   2.375
68540W        W36914  24.639  32.139   0.953
68541W        W36915  25.475   3.731  12.823
68542W        W36916  23.009   7.329  13.455
68543W        W36917  18.713  44.287   5.197
68544W        W36918  30.072   4.880   4.133
68545W        W36919   5.379  10.163   4.793
68546W        W36920  39.945  30.442  10.620
68547W        W36921  31.995  31.482   3.183
68548W        W36922   6.277   3.905   1.834
68549W        W36923  18.774   7.258   3.308
68550W        W36924   2.417  13.150   4.287
68551W        W36925   0.489  21.176  14.822
68552W        W36926  16.777  27.943  14.860
68553W        W36927  17.159  20.647   2.703
68554W        W36928  41.429  20.528  13.495
68555W        W36929   2.230  21.695   2.212
68556W        W36930  37.357  16.687  13.544
68557W        W36931  37.358  37.340   3.791
68558W        W36932  41.537  14.680   1.837
68559W        W36933  17.284  15.715   3.727
68560W        W36934   3.944  39.373   2.828
68561W        W36935  21.639   8.843  12.405
68562W        W36936  29.450  28.625  12.964
68563W        W36937  25.064   8.874  11.874
68564W        W36938  29.934  44.293  13.812
68565W        W36939  18.576   7.910  12.995
68566W        W36940  18.073  11.816   3.253
68567W        W36941   2.761  11.765   3.866
68568W        W36942  33.904   3.249   3.723
68569W        W36943   8.182  24.172  11.051
68570W        W36944  14.141  26.623  14.929
68571W        W36945  31.094  27.621   4.214
68572W        W36946  16.714  35.903  11.407
68573W        W36947  27.066  23.604   2.886
68574W        W36948  41.942  24.044   0.782
68575W        W36949   0.805   2.757  10.500
68576W        W36950   8.760   3.363   5.567
68577W        W36951  22.234  24.725   0.312
68578W        W36952  16.755   9.844   1.859
68579W        W36953   0.415  27.064   0.448
68580W        W36954  35.062   3.304  10.136
68581W        W36955   8.387  10.843   3.697
68582W        W36956   2.773  30.916  10.615
68583W        W36957  39.808  31.923  12.855
68584W        W36958  24.570  19.583  10.532
68585W        W36959  36.581  21.094  10.054
68586W        W36960  17.684  21.106  10.543
68587W        W36961  38.832  27.099   0.950
68588W        W36962   7.672  44.331   3.730
68589W        W36963  36.451  17.122   5.221
68590W        W36964  34.381  26.577   4.700
68591W        W36965  11.809   3.261  11.086
68592W        W36966  37.572  42.448   1.341
68593W        W36967   2.369  26.693   0.925
68594W        W36968  13.187  11.132  13.011
68595W        W36969   9.764  26.111   0.287
68596W        W36970   1.275  18.571  14.014
68597W        W36971  28.457  14.321   4.814
68598W        W36972  13.125   8.840  11.070
68599W        W36973  31.900  15.626  14.503
68600W        W36974  18.573  31.594   3.722
68601W        W36975   2.745  11.249  14.799
68602W        W36976  19.723  18.180   1.450
68603W        W36977  16.615  17.726  13.000
68604W        W36978  31.039  19.175  11.968
68605W        W36979  37.992   1.801  14.459
68606W        W36980  25.487  27.180  10.600
68607W        W36981  32.942   4.416  14.949
68608W        W36982  12.793  24.090   1.785
68609W        W36983  28.164  27.658   0.967
68610W        W36984  13.232   2.733   4.317
68611W        W36985  33.887  32.092  14.418
68612W        W36986  29.632  35.388   1.236
68613W        W36987  12.839  17.224  10.452
68614W        W36988  42.517   6.703   2.874
68615W        W36989   4.436  20.597  11.928
68616W        W36990  10.770  39.960  10.927
68617W        W36991  33.128  16.630   2.338
68618W        W36992   1.857  29.955   1.271
68619W        W36993   0.248  18.717  14.934
68620W        W36994  31.612  17.792   4.826
68621W        W36995  20.141  21.024  14.325
68622W        W36996  36.030  35.993  13.528
68623W        W36997  42.901  34.948  13.001
68624W        W36998  34.505  22.009   3.167
68625W        W36999   1.750  15.161   4.153
68626W        W37000  19.564  18.215  13.341
68627W        W37001  44.382  15.581   1.717
68628W        W37002  34.555  41.451   3.667
68629W        W37003  20.218  31.482   3.703
68630W        W37004  39.833  33.434   0.823
68631W        W37005  16.299  31.043  11.982
68632W        W37006  18.736  18.680  13.384
68633W        W37007   5.405  15.766   3.833
68634W        W37008  34.047  40.873   2.729
68635W        W37009  40.482   1.745   0.308
68636W        W37010  12.207  19.769   1.882
68637W        W37011   0.913  14.125  10.073
68638W        W37012  28.031  18.769   1.877
68639W        W37013  17.692  37.471   3.743
68640W        W37014  31.914  21.160  13.328
68641W        W37015   1.255  25.677  14.409
68642W        W37016   0.858  20.612   0.936
68643W        W37017   9.872  18.108  14.965
68644W        W37018  20.105   6.880  10.975
68645W        W37019  39.970  34.991   4.294
68646W        W37020  10.818  33.609   0.459
68647W        W37021  20.638  25.487   0.453
68648W        W37022  32.487  21.120  14.012
68649W        W37023  13.813  17.753  11.086
68650W        W37024  29.592  44.823  12.892
68651W        W37025  39.823  24.985   3.821
68652W        W37026  24.593  17.614   5.299
68653W        W37027  26.972  39.467  12.872
68654W        W37028  42.451   8.852  14.279
68655W        W37029  10.846   8.165  13.531
68656W        W37030  21.150  32.531  11.527
68657W        W37031  27.093  43.847  14.357
68658W        W37032  33.479  42.946  13.387
68659W        W37033  39.339   8.345   5.274
68660W        W37034   2.373  36.530  12.014
68661W        W37035  17.775  22.998  14.009
68662W        W37036  39.328   2.932  13.488
68663W        W37037   4.859  22.505  10.440
68664W        W37038  44.765   4.801  13.947
68665W        W37039   4.856  12.264   4.208
68666W        W37040  18.563  22.171   0.250
68667W        W37041  37.978  14.607  11.434
68668W        W37042  37.462  22.214   3.374
68669W        W37043   0.364  30.008   2.726
68670W        W37044  40.877  16.812  10.616
68671W        W37045  35.446  28.564   0.292
68672W        W37046  20.242  27.670   1.837
68673W        W37047  16.684  22.670   0.811
68674W        W37048   1.282  14.185   3.206
68675W        W37049  34.067   5.321  12.060
68676W        W37050   8.895  15.645   3.834
68677W        W37051   6.751  20.625   2.695
68678W        W37052  32.588   5.888   1.424
68679W        W37053  16.157  23.076  13.448
68680W        W37054  38.413  35.972  11.901
68681W        W37055  19.711  36.920  12.879
68682W        W37056   5.293  36.524   3.159
68683W        W37057   0.335  35.358   2.362
68684W        W37058  25.513  31.113   4.665
68685W        W37059  35.392  15.098   2.746
68686W        W37060  44.325  43.930  14.293
68687W        W37061  19.067  37.985   1.265
68688W        W37062  40.484   7.839  13.331
68689W        W37063  32.577   8.277  10.419
68690W        W37064  18.747  15.207   0.811
68691W        W37065  12.309  14.301  12.922
68692W        W37066  30.039   1.871   4.209
68693W        W37067  22.168   2.241  10.969
68694W        W37068  39.053  12.692  10.634
68695W        W37069  21.620   0.376  10.423
68696W        W37070  15.327  35.380  14.980
68697W        W37071  18.105   4.706   2.901
68698W        W37072   1.843  17.185  12.853
68699W        W37073  42.852  41.967  14.300
68700W        W37074  16.139  42.884  14.309
68701W        W37075  40.507  17.245  13.389
68702W        W37076   5.416  24.031   1.397
68703W        W37077  21.223  23.619  13.840
68704W        W37078  41.930  13.148   1.254
68705W        W37079  24.667  39.949  10.633
68706W        W37080  43.322  14.243  13.027
68707W        W37081  27.150   1.410   4.191
68708W        W37082  27.600   0.453   2.346
68709W        W37083  17.588  38.989   3.777
68710W        W37084  27.084  20.705   1.894
68711W        W37085  27.989  15.212  13.904
68712W        W37086  29.985  28.103  11.592
68713W        W37087  34.002  44.959   0.825
68714W        W37088  16.628  10.267   0.849
68715W        W37089  28.115  44.924   9.921
68716W        W37090  29.555   8.764   3.655
68717W        W37091  33.516  37.357   0.363
68718W        W37092  25.649  19.629  10.111
68719W        W37093  21.552  33.553  11.420
68720W        W37094  11.844  39.400   4.239
68721W        W37095   0.915  13.282  13.878
68722W        W37096  36.052  36.587  10.456
68723W        W37097  15.211  41.351  12.094
68724W        W37098  33.051  40.525   0.814
68725W        W37099  26.172   8.244  13.974
68726W        W37100  12.331  26.516   0.269
68727W        W37101  15.680  22.622  12.945
68728W        W37102   5.810  19.664  14.857
68729W        W37103  29.006  42.972   9.953
68730W        W37104  17.713  23.597  10.466
68731W        W37105  41.333  33.400   0.793
68732W        W37106   2.904  26.565  14.900
68733W        W37107   3.941  20.261  13.057
68734W        W37108   8.318  37.471   3.744
68735W        W37109  35.551  16.157  12.455
68736W        W37110   5.214   0.839   3.206
68737W        W37111  26.533  25.077  13.517
68738W        W37112  43.771  27.951  14.837
68739W        W37113  25.014  24.498   3.776
68740W        W37114   5.780  41.332   3.203
68741W        W37115   9.278   2.828   4.633
68742W        W37116  35.576  35.899  14.768
68743W        W37117  12.348   7.356  10.563
68744W        W37118   7.684  33.407  10.926
68745W        W37119  25.576  20.599  10.435
68746W        W37120  10.232  18.748  10.151
68747W        W37121  42.472   3.436  13.050
68748W        W37122  32.635  10.692  14.292
68749W        W37123  13.206  24.184   4.619
68750W        W37124  44.755  43.965   2.794
68751W        W37125  23.041   4.750   4.667
68752W        W37126  41.298  28.118  12.393
68753W        W37127  33.086   7.761   4.145
68754W        W37128  36.915  38.847  13.970
68755W        W37129  28.185  11.626   3.355
68756W        W37130   3.449  25.483  11.938
68757W        W37131   6.340  22.065   3.630
68758W        W37132   6.423  25.693  10.080
68759W        W37133   1.812  37.375  10.447
68760W        W37134  21.698  23.013   0.943
68761W        W37135  39.010  36.982  10.601
68762W        W37136  41.987  42.443  14.311
68763W        W37137  40.826  30.618   2.801
68764W        W37138  27.542   6.866   0.834
68765W        W37139  10.147  24.117   0.761
68766W        W37140   7.339  20.061  10.406
68767W        W37141  25.510  19.040   2.280
68768W        W37142  32.941  29.567  13.378
68769W        W37143  10.727  22.604   4.791
68770W        W37144  21.731  25.592  10.516
68771W        W37145  16.253  41.912  14.314
68772W        W37146  10.335  14.823  13.884
68773W        W37147  14.675  38.909   5.319
68774W        W37148  36.416  44.424  14.448
68775W        W37149  20.210   2.894   3.357
68776W        W37150  13.195   3.235   0.890
68777W        W37151  14.334  11.306  14.384
68778W        W37152  43.989   1.300  12.420
68779W        W37153  10.205   1.801   1.246
68780W        W37154   0.329  21.054  13.472
68781W        W37155  36.990  41.036  11.970
68782W        W37156  23.207  36.944  12.032
68783W        W37157  43.010  33.435   2.866
68784W        W37158  23.681  14.593  12.947
68785W        W37159   2.340   0.783   5.108
68786W        W37160   3.941  41.957   2.292
68787W        W37161  14.668   7.776   5.678
68788W        W37162   5.413  18.602   4.334
68789W        W37163   4.889  24.139   3.850
68790W        W37164  12.682  10.298   4.329
68791W        W37165  39.390   3.917  14.854
68792W        W37166  11.851   4.733  14.327
68793W        W37167  30.941  11.313   1.740
68794W        W37168  16.234  13.303  10.888
68795W        W37169  13.800  19.706  13.852
68796W        W37170  20.078  29.077  13.541
68797W        W37171  19.540  17.148   3.279
68798W        W37172  35.449   4.409   1.410
68799W        W37173  11.832  12.731  14.779
68800W        W37174   2.408  11.737  13.939
68801W        W37175  40.465  23.024   2.290
68802W        W37176   7.392  40.963   3.844
68803W        W37177  12.123  15.814  13.872
68804W        W37178   6.865   4.822   3.251
68805W        W37179  25.968  30.960   2.663
68806W        W37180  31.029   6.254   9.973
68807W        W37181  14.171   9.279   1.346
68808W        W37182  36.351  33.506   0.960
68809W        W37183  12.837   9.857   4.193
68810W        W37184  42.395  31.516   0.461
68811W        W37185   4.300  29.164  14.456
68812W        W37186  30.977  17.609  12.880
68813W        W37187   9.268   4.893   2.210
68814W        W37188  33.958  38.973  11.469
68815W        W37189  31.451  30.474  13.902
68816W        W37190  44.933   7.685   0.465
68817W        W37191  34.401  39.420   4.118
68818W        W37192   6.915  31.059  13.544
68819W        W37193  11.220   9.828  10.890
68820W        W37194   8.357  14.143   4.139
68821W        W37195  13.741  40.459  10.934
68822W        W37196  36.892   8.199  11.961
68823W        W37197  25.149  13.248  14.417
68824W        W37198   2.916  13.181  14.445
68825W        W37199   4.318  14.330  14.370
68826W        W37200  17.240   3.284  12.545
68827W        W37201   2.359  38.047  10.979
68828W        W37202   7.339  41.401  10.612
68829W        W37203   0.304   6.416   2.667
68830W        W37204  40.917   7.297  10.541
68831W        W37205  29.665  30.086  14.979
68832W        W37206  25.984  16.114  10.149
68833W        W37207   7.839  30.537   1.734
68834W        W37208  44.764  11.716   3.373
68835W        W37209   0.280  29.125   1.767
68836W        W37210  22.171  29.987   0.417
68837W        W37211  35.363  24.591   2.417
68838W        W37212  38.380  20.688   3.639
68839W        W37213  11.217  12.744  13.935
68840W        W37214   7.359  13.185   3.784
68841W        W37215   6.732  10.329   2.816
68842W        W37216  11.190   3.426  14.028
68843W        W37217  33.903  12.213  11.901
68844W        W37218  41.503  41.309   1.448
68845W        W37219  12.751  36.076  13.018
68846W        W37220  24.666  35.034   2.758
68847W        W37221   7.220  12.207   1.423
68848W        W37222  27.130  12.292   2.403
68849W        W37223  44.503  21.093   5.119
68850W        W37224  25.482  38.947   4.353
68851W        W37225   0.344  11.741  14.515
68852W        W37226  24.666  24.547   3.360
68853W        W37227  24.053  16.723   4.818
68854W        W37228  31.063  36.470   2.334
68855W        W37229   1.901   4.333  11.908
68856W        W37230  36.578   3.951  14.311
68857W        W37231  44.754  27.640  13.896
68858W        W37232  15.788  27.109   0.430
68859W        W37233  34.902   9.651   3.744
68860W        W37234  17.712  39.959  12.060
68861W        W37235  39.386  16.607  10.960
68862W        W37236  35.075   5.382  13.346
68863W        W37237   1.819  12.217   1.302
68864W        W37238  20.244  22.618  12.954
68865W        W37239  39.858  43.834  14.913
68866W        W37240  13.786  20.073   4.217
68867W        W37241  19.194   0.419  14.422
68868W        W37242  36.976  32.556   3.798
68869W        W37243  19.677  15.592   1.259
68870W        W37244  33.072   5.343   3.227
68871W        W37245  29.031  13.223  13.862
68872W        W37246  32.499  18.174  11.433
68873W        W37247  34.480  10.262   1.898
68874W        W37248  23.515   9.698   1.761
68875W        W37249  29.462  37.487   4.175
68876W        W37250  30.984   1.915  10.097
68877W        W37251  26.167  11.234  13.939
68878W        W37252  38.383   7.179  12.352
68879W        W37253   1.288   2.857  13.011
68880W        W37254  17.673  37.845   0.732
68881W        W37255  10.740  22.683   4.244
68882W        W37256  10.680  14.203   1.896
68883W        W37257  43.860   7.288  13.812
68884W        W37258  34.601   7.740  12.096
68885W        W37259  19.727  34.063   4.220
68886W        W37260  18.564   7.319  14.029
68887W        W37261  44.481  20.749   0.361
68888W        W37262  18.054  10.662   3.843
68889W        W37263  43.912  34.484  12.402
68890W        W37264  32.893  29.456   0.271
68891W        W37265  27.038   2.830   2.747
68892W        W37266   3.798   6.317   4.678
68893W        W37267   8.244  41.807  13.019
68894W        W37268  14.097  44.382  10.433
68895W        W37269  29.593  10.789   4.319
68896W        W37270  24.543  34.428   3.642
68897W        W37271   3.222  41.791   3.325
68898W        W37272   2.336  29.554   4.296
68899W        W37273  13.222   5.715   1.854
68900W        W37274  29.149   8.302  10.959
68901W        W37275  36.586  21.029  14.875
68902W        W37276   2.343  23.109   2.405
68903W        W37277   3.879  35.978   1.312
68904W        W37278  35.524  11.833   2.875
68905W        W37279  32.963  23.031   3.650
68906W        W37280  44.793   3.865   0.886
68907W        W37281  28.522   0.801   4.206
68908W        W37282  10.203  17.252  13.834
68909W        W37283  21.699  23.122  11.872
68910W        W37284  17.281  43.366   3.194
68911W        W37285  20.139   4.276  10.570
68912W        W37286  29.486  18.138   2.194
68913W        W37287  40.045  25.177  13.949
68914W        W37288  36.932  39.977  13.973
68915W        W37289   3.893   3.833  11.987
68916W        W37290  11.824   1.462   2.304
68917W        W37291  38.425  44.881  14.798
68918W        W37292   3.298   5.875   4.746
68919W        W37293  11.693  31.595   0.871
68920W        W37294   3.290   0.916  13.456
68921W        W37295  16.210  35.382  11.902
68922W        W37296  37.534  42.379  13.937
68923W        W37297  20.673  36.965  10.939
68924W        W37298   8.871  33.380   1.756
68925W        W37299  13.145  26.655  12.353
68926W        W37300  30.592  41.994   4.319
68927W        W37301  34.452  33.947  13.033
68928W        W37302  14.824  40.947   1.803
68929W        W37303  24.011   4.326   1.777
68930W        W37304   2.803  37.472   1.269
68931W        W37305  38.948  26.654   1.448
68932W        W37306   2.248  32.551   4.281
68933W        W37307  44.934  32.543  11.586
68934W        W37308  15.614   7.861   3.198
68935W        W37309  36.450  31.985  11.422
68936W        W37310  24.142  22.251  14.315
68937W        W37311  30.120  16.302  12.908
68938W        W37312  24.523   3.244   2.209
68939W        W37313   0.374   3.216  12.062
68940W        W37314   1.880  26.630   2.357
68941W        W37315  40.930  19.672  13.325
68942W        W37316  32.088  29.924   0.879
68943W        W37317   1.776  13.296  12.061
68944W        W37318  27.171  29.164  10.440
68945W        W37319   8.780   4.733   9.522
68946W        W37320  25.664  34.397   2.409
68947W        W37321  15.608   9.359  11.405
68948W        W37322  20.094  17.571   0.768
68949W        W37323  42.878  22.212   4.605
68950W        W37324   0.266  24.021   0.895
68951W        W37325  31.463  39.862  14.502
68952W        W37326   2.957  43.966  10.492
68953W        W37327  26.534  43.860   2.405
68954W        W37328   0.885   2.351   0.416
68955W        W37329  33.624  14.153  11.922
68956W        W37330  26.047  30.974  12.912
68957W        W37331  29.660  22.575  12.379
68958W        W37332  10.656  44.300   2.310
68959W        W37333   0.883  14.140   2.814
68960W        W37334  32.943  42.810   0.825
68961W        W37335  39.464  21.650  12.429
68962W        W37336  24.709  20.692   3.175
68963W        W37337  10.820  14.677   3.319
68964W        W37338  40.017  40.841  11.930
68965W        W37339  10.377  17.779  10.438
68966W        W37340  14.774   9.734  11.909
68967W        W37341  40.822  11.203   0.827
68968W        W37342   1.314  20.130  14.405
68969W        W37343  33.586  21.198   3.269
68970W        W37344  21.212  44.426   2.221
68971W        W37345  23.160  19.165  11.460
68972W        W37346  41.351  40.812   1.837
68973W        W37347  29.569  31.464  11.421
68974W        W37348   9.846  18.685   0.770
68975W        W37349   9.818  41.529   1.235
68976W        W37350  11.789  41.308  11.513
68977W        W37351  32.986  44.477  12.928
68978W        W37352  11.181   9.226  13.423
68979W        W37353  40.931   9.730   3.631
68980W        W37354  11.312  33.020   0.784
68981W        W37355  13.293  11.207   2.747
68982W        W37356   9.368  11.847   9.989
68983W        W37357  44.298  38.060  14.493
68984W        W37358  26.600   6.228  10.962
68985W        W37359  38.052   1.815   2.354
68986W        W37360  20.041  17.078  12.909
68987W        W37361  26.076   4.755  12.891
68988W        W37362  18.288  16.102  13.314
68989W        W37363  14.695   8.367   0.272
68990W        W37364  40.846  16.673   3.281
68991W        W37365  21.105   0.256   1.771
68992W        W37366  30.065   5.796   1.267
68993W        W37367  20.095  16.085  12.501
68994W        W37368  20.036  30.943  14.490
68995W        W37369   6.894  26.687  14.489
68996W        W37370  18.096  29.517  11.962
68997W        W37371  25.581  42.442   2.380
68998W        W37372  18.241  25.985   0.302
68999W        W37373  34.456  23.508  13.496
69000W        W37374  15.800   1.278   0.834
69001W        W37375  35.098  42.010   0.342
69002W        W37376  18.667  30.132  13.811
69003W        W37377  42.818  39.881  12.388
69004W        W37378  31.638  26.169  11.545
69005W        W37379  28.669  24.507   4.739
69006W        W37380  26.065  33.578   1.870
69007W        W37381  20.546  37.441   1.368
69008W        W37382  26.988  22.041   2.410
69009W        W37383  19.664   8.873  13.794
69010W        W37384  20.167  23.666   1.706
69011W        W37385  27.944  16.316  14.348
69012W        W37386  26.110   8.824  11.992
69013W        W37387  36.399   8.728  11.090
69014W        W37388  29.596  14.811   0.931
69015W        W37389   9.695  17.139   3.766
69016W        W37390  19.046  33.621  14.314
69017W        W37391  20.700   9.178   0.383
69018W        W37392  39.360  43.887  12.529
69019W        W37393  22.665  19.772  14.427
69020W        W37394   6.184  11.131   4.256
69021W        W37395  20.183  35.484   3.222
69022W        W37396  16.704  26.032  10.985
69023W        W37397  34.564  22.684  12.958
69024W        W37398  34.470  25.703   3.862
69025W        W37399  40.846   0.301   2.364
69026W        W37400  16.783  26.504   5.109
69027W        W37401   4.354  26.097   2.681
69028W        W37402  22.571  32.126  12.921
69029W        W37403  30.413  27.661  11.378
69030W        W37404  24.224   1.408  11.585
69031W        W37405  40.852  15.185   4.297
69032W        W37406  37.579   0.415  11.935
69033W        W37407  16.601  34.415   2.194
69034W        W37408   6.717  10.181  13.894
69035W        W37409   3.710  29.582  14.758
69036W        W37410  16.674   1.767  11.505
69037W        W37411  42.862   3.431   0.389
69038W        W37412  44.872   8.246  13.917
69039W        W37413  35.032   4.768   0.333
69040W        W37414  42.896   0.893   3.331
69041W        W37415  10.664   4.807  11.521
69042W        W37416  30.512  44.366  13.793
69043W        W37417  36.961   4.908  14.393
69044W        W37418  38.963  33.029  10.058
69045W        W37419  15.692  11.305  10.511
69046W        W37420   9.285  36.568  10.488
69047W        W37421  27.178  12.353  10.933
69048W        W37422   2.820  22.502   1.781
69049W        W37423  32.406  29.951  13.847
69050W        W37424  44.956  10.247  10.617
69051W        W37425   4.332  26.560  14.936
69052W        W37426   6.240  17.800  14.972
69053W        W37427  41.354   6.809   2.701
69054W        W37428  30.151  36.535   2.839
69055W        W37429  21.247   6.383  13.802
69056W        W37430  29.660  26.579   3.173
69057W        W37431  13.142  24.000  13.960
69058W        W37432   3.224  20.243   5.132
69059W        W37433  41.947   6.693  12.529
69060W        W37434  37.990  35.513   4.161
69061W        W37435  32.499  39.429   4.768
69062W        W37436   4.315  22.605  14.515
69063W        W37437  18.590  31.632   0.417
69064W        W37438   0.799  15.215   2.196
69065W        W37439   4.894  40.827   3.748
69066W        W37440  35.391   0.316   4.790
69067W        W37441  40.837   7.412   2.304
69068W        W37442   5.260  21.092  12.885
69069W        W37443  40.478   7.778  14.884
69070W        W37444  44.905  19.617  10.472
69071W        W37445  39.415  33.385  14.923
69072W        W37446  33.969  41.857   3.645
69073W        W37447   5.886  13.639   2.247
69074W        W37448  30.130  36.940  13.813
69075W        W37449  42.886   4.703   3.362
69076W        W37450  25.569  33.904  14.896
69077W        W37451  25.111  34.870  13.932
69078W        W37452  18.190   5.709  14.962
69079W        W37453  44.785  25.166  12.094
69080W        W37454  21.215   1.767  11.075
69081W        W37455   1.408  33.939   3.791
69082W        W37456  36.862  40.322  13.347
69083W        W37457  37.890  26.656  13.018
69084W        W37458  18.625  14.717   0.958
69085W        W37459   7.222  31.064   2.356
69086W        W37460  32.001  10.697   3.760
69087W        W37461   6.910  34.091  10.512
69088W        W37462  27.458  27.024   1.339
69089W        W37463  30.513   9.861  13.001
69090W        W37464  19.186  12.197   1.271
69091W        W37465   8.862   9.862  14.377
69092W        W37466   5.405  27.963  12.031
69093W        W37467  43.848  34.937   3.191
69094W        W37468  26.052  20.046   0.903
69095W        W37469  29.043  34.429  12.913
69096W        W37470  11.327   2.834   4.321
69097W        W37471  15.758  26.148   0.920
69098W        W37472   1.278   8.219   2.875
69099W        W37473   4.306  24.609   5.244
69100W        W37474  17.211   7.811  11.530
69101W        W37475  18.271  29.986   0.255
69102W        W37476  36.969  13.745   4.148
69103W        W37477  25.611   2.728  14.501
69104W        W37478  44.754  26.078   2.822
69105W        W37479   2.268  42.885  13.522
69106W        W37480  39.942  28.554  10.454
69107W        W37481  11.839   6.360  13.955
69108W        W37482  15.192   4.229  11.859
69109W        W37483  26.049   7.678   3.696
69110W        W37484   5.932  35.485   0.259
69111W        W37485  15.773  12.834   4.740
69112W        W37486  20.150  30.603   4.702
69113W        W37487  19.656   0.813   0.851
69114W        W37488  44.449  40.802   3.199
69115W        W37489  43.279  37.067   2.851
69116W        W37490  40.350  27.137  11.099
69117W        W37491   4.250  15.243  13.864
69118W        W37492  42.804  22.709   1.711
69119W        W37493  41.920  12.154  12.350
69120W        W37494  13.144  22.549   4.209
69121W        W37495  41.928  19.106  13.002
69122W        W37496   8.296   9.288   2.384
69123W        W37497  35.908  17.230  13.389
69124W        W37498  40.013   8.406  13.815
69125W        W37499  20.270  44.291  11.376
69126W        W37500   7.399  39.525   3.836
69127W        W37501  27.622  22.596   3.228
69128W        W37502  38.880  17.068   2.287
69129W        W37503  28.982  30.929   3.711
69130W        W37504  26.153  39.473  13.976
69131W        W37505  17.077  21.728   1.221
69132W        W37506  32.595  14.813  14.506
69133W        W37507  17.269   0.454  14.314
69134W        W37508   5.280  21.111  12.539
69135W        W37509   0.940  44.424   4.127
69136W        W37510  39.556   8.757   2.756
69137W        W37511   1.477  37.376  12.082
69138W        W37512  44.841  16.141  10.617
69139W        W37513  19.746  23.199   1.826
69140W        W37514  23.611  38.464   5.114
69141W        W37515  20.166  31.133   1.380
69142W        W37516  42.855  15.757   3.760
69143W        W37517  21.674  22.155  10.939
69144W        W37518  16.665   1.350  14.032
69145W        W37519  41.893   1.263   3.175
69146W        W37520  22.536  28.491  13.878
69147W        W37521  44.297  24.583  14.023
69148W        W37522  11.308  10.744   2.900
69149W        W37523  18.668  15.659  10.630
69150W        W37524   1.819  17.664   2.410
69151W        W37525  35.084  40.549   4.641
69152W        W37526   9.705  43.489  13.813
69153W        W37527   0.472  27.956   0.924
69154W        W37528  14.249  29.662  12.501
69155W        W37529  28.437  27.554  10.433
69156W        W37530   0.278  16.214   2.756
69157W        W37531  39.420  27.677  14.446
69158W        W37532  33.455  36.528  14.354
69159W        W37533  10.336  20.236   0.309
69160W        W37534  42.432  44.907   2.805
69161W        W37535  41.981  13.622  14.279
69162W        W37536  34.935   1.871  12.487
69163W        W37537   9.831  31.456  12.491
69164W        W37538  40.423  27.619   1.869
69165W        W37539  26.975  15.645   1.366
69166W        W37540  18.687  17.590   3.338
69167W        W37541  10.181  35.966   2.210
69168W        W37542  25.205   6.883   2.353
69169W        W37543  29.522  44.337   4.269
69170W        W37544  22.745   5.218   4.185
69171W        W37545   3.846  24.593   0.866
69172W        W37546   2.787  13.163   4.799
69173W        W37547  11.175  37.363   2.213
69174W        W37548  34.896  13.171  10.592
69175W        W37549  10.763  24.594  10.911
69176W        W37550  12.277  34.584   4.663
69177W        W37551  17.579   9.855  12.899
69178W        W37552  22.724   0.401  11.027
69179W        W37553   3.416  36.463   1.424
69180W        W37554  36.509  25.675  10.996
69181W        W37555  24.713  30.444  10.116
69182W        W37556  31.538  43.472  13.843
69183W        W37557  44.859   6.380   0.465
69184W        W37558  13.143  33.573   5.204
69185W        W37559   0.320  38.858   4.331
69186W        W37560   7.804   3.790  14.787
69187W        W37561  25.472  12.716  11.470
69188W        W37562  12.798  34.902  14.431
69189W        W37563  37.357  34.119  13.851
69190W        W37564  12.269   5.302  12.432
69191W        W37565  25.007  39.924  12.036
69192W        W37566  31.085  43.272   2.318
69193W        W37567  39.914   7.314   5.705
69194W        W37568   7.353  21.564  14.805
69195W        W37569   1.914  26.970   3.671
69196W        W37570  40.906  42.984   1.735
69197W        W37571   8.713  13.728  13.370
69198W        W37572  14.724  16.670   3.755
69199W        W37573  43.439   8.672   1.297
69200W        W37574  17.768   1.851   4.318
69201W        W37575  19.742  16.104  12.866
69202W        W37576   6.267  33.053   1.423
69203W        W37577  18.670  22.548  12.426
69204W        W37578  44.424  31.419   5.152
69205W        W37579  29.113  43.852   2.700
69206W        W37580  32.626  40.989   1.275
69207W        W37581  28.054  24.200  11.382
69208W        W37582  31.062   6.255  12.074
69209W        W37583  37.994   6.715  11.403
69210W        W37584  41.538   2.252  14.440
69211W        W37585  16.721  40.542  14.805
69212W        W37586  10.293  35.928   5.131
69213W        W37587   3.412   3.340   3.331
69214W        W37588  11.340  18.747  10.522
69215W        W37589  10.374   8.232   3.193
69216W        W37590   7.694  39.034  14.333
69217W        W37591  15.130  33.594  12.886
69218W        W37592  11.322  25.998   3.800
69219W        W37593  23.608  16.675   4.670
69220W        W37594  10.662  38.356   4.127
69221W        W37595  26.489  22.163  11.562
69222W        W37596  35.524  41.808  11.926
69223W        W37597  18.693   5.320   1.290
69224W        W37598  28.147   2.452   1.253
69225W        W37599  38.482  38.871  13.920
69226W        W37600  30.564  13.179   1.294
69227W        W37601   1.830   0.812  11.588
69228W        W37602   4.847  23.122  11.969
69229W        W37603  43.511  34.908   4.259
69230W        W37604  17.761  12.737   3.745
69231W        W37605  41.827  31.554  14.848
69232W        W37606  43.983  39.845   0.376
69233W        W37607  15.131  13.631   1.218
69234W        W37608  10.869  38.419  10.916
69235W        W37609   4.941  21.241   5.131
69236W        W37610  10.158  15.211   0.463
69237W        W37611  36.449   1.912  11.395
69238W        W37612  12.706   6.244  14.806
69239W        W37613  25.689  34.581  10.974
69240W        W37614  29.949   9.168   2.250
69241W        W37615   3.319  12.216  14.996
69242W        W37616  11.342  30.644   4.709
69243W        W37617   6.347   6.409   0.455
69244W        W37618   2.388   7.209   0.839
69245W        W37619  41.507  18.719  11.455
69246W        W37620  35.007  29.111  13.859
69247W        W37621   0.779  40.923  12.502
69248W        W37622  20.710  16.811  11.440
69249W        W37623  13.349   2.372   4.157
69250W        W37624  37.538  24.624  13.923
69251W        W37625   9.200   5.352  11.982
69252W        W37626  26.498   5.924   0.457
69253W        W37627  32.060  37.523  14.344
69254W        W37628  21.721  36.047   3.264
69255W        W37629  24.166   3.947  12.889
69256W        W37630  40.831  40.047  10.457
69257W        W37631   3.249  39.990  11.480
69258W        W37632  32.611   6.298  11.537
69259W        W37633  28.985  40.362  14.981
69260W        W37634  15.252  26.658   1.830
69261W        W37635  16.701   5.282  12.870
69262W        W37636  16.803  35.544  13.871
69263W        W37637   4.805  31.631  10.890
69264W        W37638  22.663   9.757   0.454
69265W        W37639  26.548  26.152  14.884
69266W        W37640  19.069  28.534  11.034
69267W        W37641  33.565  35.921  10.049
69268W        W37642   1.415  15.662  12.494
69269W        W37643  29.162  35.591  11.601
69270W        W37644   8.346   5.346   3.663
69271W        W37645   7.324   8.720   3.327
69272W        W37646   7.181  18.708  11.933
69273W        W37647   4.708  24.678  12.995
69274W        W37648  40.494  20.127  14.420
69275W        W37649  31.632  44.415   0.369
69276W        W37650  33.475   4.874  11.879
69277W        W37651  43.831  33.516   0.906
69278W        W37652   8.353  13.233   0.392
69279W        W37653  19.065  13.797   0.449
69280W        W37654   9.755  27.196  11.123
69281W        W37655  21.727  14.284  14.285
69282W        W37656  26.119  27.013   4.688
69283W        W37657   3.884   7.318  11.600
69284W        W37658   1.240  39.853  12.466
69285W        W37659  27.150   7.743   2.677
69286W        W37660  12.142  34.096   4.819
69287W        W37661   4.811  12.321  11.508
69288W        W37662  35.477  37.563   3.324
69289W        W37663  26.058  24.580  13.854
69290W        W37664  26.127  15.285  11.886
69291W        W37665  29.531  37.904  10.929
69292W        W37666  14.246  31.436  10.993
69293W        W37667   6.840  14.287  14.357
69294W        W37668   7.346  16.213  10.619
69295W        W37669   5.792   6.768   4.778
69296W        W37670  44.365  16.176   1.905
69297W        W37671   0.801   7.752   2.249
69298W        W37672  44.798  12.295   1.222
69299W        W37673   3.772  26.607   1.871
69300W        W37674  34.934  13.694   4.763
69301W        W37675  28.161  43.311  12.351
69302W        W37676  43.944  38.388   1.364
69303W        W37677   7.799  35.596   3.223
69304W        W37678  20.547  36.947  10.548
69305W        W37679   6.211   6.242   4.765
69306W        W37680  34.496  25.534   1.740
69307W        W37681  38.841  18.258  12.356
69308W        W37682  15.760  29.124   1.395
69309W        W37683  24.973   5.296   1.840
69310W        W37684   9.376  29.524  11.075
69311W        W37685  43.918  26.639  11.928
69312W        W37686  24.026  21.200  14.852
69313W        W37687  22.137  32.395  11.099
69314W        W37688  13.638   3.369  13.933
69315W        W37689   3.725  27.515   2.839
69316W        W37690   2.272  33.917  13.391
69317W        W37691   7.413  41.392   2.782
69318W        W37692  12.659  33.597  14.974
69319W        W37693  20.692  22.046  13.016
69320W        W37694  31.615   6.853   2.821
69321W        W37695  26.473  33.033   3.686
69322W        W37696  41.829  25.067   2.790
69323W        W37697  13.661  35.080  12.418
69324W        W37698   1.747  41.019  11.913
69325W        W37699  23.621  15.793   9.972
69326W        W37700   4.383  29.496   0.480
69327W        W37701  16.108  14.781  11.082
69328W        W37702  24.012   5.801   2.279
69329W        W37703  37.476  11.835   3.691
69330W        W37704   5.248  40.018   2.873
69331W        W37705  12.672  13.712   1.897
69332W        W37706   6.406  31.015   1.379
69333W        W37707  41.424  28.447  13.422
69334W        W37708  36.906  32.620  12.996
69335W        W37709  43.928  34.374   1.838
69336W        W37710  44.993   1.886  11.516
69337W        W37711  39.903  37.915   1.289
69338W        W37712   3.255  17.671   3.151
69339W        W37713  24.506  10.369   2.300
69340W        W37714  27.957  26.980  11.398
69341W        W37715  10.857  19.244   4.824
69342W        W37716  14.189  42.899  12.571
69343W        W37717  16.650  20.582   2.416
69344W        W37718  38.858  30.481   0.449
69345W        W37719   7.407   7.191   4.685
69346W        W37720  37.003  39.379  13.826
69347W        W37721   5.343  11.149   3.743
69348W        W37722   3.905  40.396   3.821
69349W        W37723  16.662  19.756   3.632
69350W        W37724  10.138  28.571   4.820
69351W        W37725  12.623   9.712  10.959
69352W        W37726  12.833  31.495   2.837
69353W        W37727  37.355  38.038   2.185
69354W        W37728  17.608  30.504   1.407
69355W        W37729  40.935  14.783   2.719
69356W        W37730  14.315  20.166  14.282
69357W        W37731   8.841  19.653  11.537
69358W        W37732   8.259   9.775   3.205
69359W        W37733  41.465  34.509   0.919
69360W        W37734  12.779  32.136  10.896
69361W        W37735  29.923   7.723   3.302
69362W        W37736  15.672  14.773   1.388
69363W        W37737   1.766   5.848   1.433
69364W        W37738   1.239  24.158   4.659
69365W        W37739  37.547  14.333   0.788
69366W        W37740  38.903  40.412  13.992
69367W        W37741   4.893  29.461  12.339
69368W        W37742  23.618  43.391   2.745
69369W        W37743  43.415  39.504  12.969
69370W        W37744  16.611  33.885  11.891
69371W        W37745  26.659  41.372  12.891
69372W        W37746  21.590  29.051   0.746
69373W        W37747   6.689  37.451  12.397
69374W        W37748  19.238  25.051  11.503
69375W        W37749   2.833   6.840   0.772
69376W        W37750   7.235  14.758   4.123
69377W        W37751  28.086  12.130  11.052
69378W        W37752  33.063  12.205  13.836
69379W        W37753  17.777   9.344   0.370
69380W        W37754  25.682  13.166   2.344
69381W        W37755  21.697  14.198   0.731
69382W        W37756  37.989  19.571   3.203
69383W        W37757  17.159  14.638   4.303
69384W        W37758  10.740  18.764  11.442
69385W        W37759   5.408   9.252  11.540
69386W        W37760  12.345  17.140  12.957
69387W        W37761   4.321  25.977  12.384
69388W        W37762  26.973  24.133   0.340
69389W        W37763  30.073  32.400   0.868
69390W        W37764  36.074  12.292  12.558
69391W        W37765  31.983   2.872  13.914
69392W        W37766  39.844  21.210  11.073
69393W        W37767  36.454   9.886  10.918
69394W        W37768  17.668   0.922   4.779
69395W        W37769  14.182  37.907  14.926
69396W        W37770  10.259  26.952   3.661
69397W        W37771  18.161  40.467   0.855
69398W        W37772  43.774  24.557   0.356
69399W        W37773  14.669   4.358   2.323
69400W        W37774   7.776  17.074  14.953
69401W        W37775  27.581  31.088   3.635
69402W        W37776  30.607  26.184  14.901
69403W        W37777  43.374   5.752  14.278
69404W        W37778  10.324  10.678  10.604
69405W        W37779   3.287  44.840  14.297
69406W        W37780  10.238   9.170  10.948
69407W        W37781  29.478  23.667   4.657
69408W        W37782  32.910  16.722   3.343
69409W        W37783  16.780  23.078   4.813
69410W        W37784  11.328  34.485   3.745
69411W        W37785  21.615  36.876   1.430
69412W        W37786  27.473  13.145  14.434
69413W        W37787  28.576  38.488  14.290
69414W        W37788  38.906  44.347  10.064
69415W        W37789  14.118  22.072  13.514
69416W        W37790  29.040  32.609   0.880
69417W        W37791   6.692  17.766   4.341
69418W        W37792  44.857   6.900   1.832
69419W        W37793  32.614  42.912  14.948
69420W        W37794  36.353  23.621  11.977
69421W        W37795   4.402   5.224  12.934
69422W        W37796  34.100  37.388  11.421
69423W        W37797  41.516  20.163  12.034
69424W        W37798  13.264   7.760  12.538
69425W        W37799  21.612  32.548   0.324
69426W        W37800   1.416   1.262   1.702
69427W        W37801   1.763  27.451  13.980
69428W        W37802  41.335  28.072   0.243
69429W        W37803  23.025  32.496   5.160
69430W        W37804  10.801  31.071  14.764
69431W        W37805  40.318  37.945   0.297
69432W        W37806   4.220  31.916  13.947
69433W        W37807   6.871  19.156  12.833
69434W        W37808   4.315  26.656   4.347
69435W        W37809  39.919   6.187  11.074
69436W        W37810  29.958  20.248   3.279
69437W        W37811   8.291  19.709   1.719
69438W        W37812   3.897  34.369  11.426
69439W        W37813  29.145  19.761  10.998
69440W        W37814  29.573  15.710   2.292
69441W        W37815   7.772  37.391   2.293
69442W        W37816  26.065  10.352   4.336
69443W        W37817  40.035  28.955  11.610
69444W        W37818  13.619  11.665  13.809
69445W        W37819  35.076  35.946   0.435
69446W        W37820  33.441  23.708   1.451
69447W        W37821  27.128  43.919   1.835
69448W        W37822  20.548  33.933   4.179
69449W        W37823  26.085  27.071   3.306
69450W        W37824  35.497  16.693   4.258
69451W        W37825  23.058  28.650   1.736
69452W        W37826  21.257  24.720  13.900
69453W        W37827   8.383  39.486  13.829
69454W        W37828  25.618   5.385   4.168
69455W        W37829  26.646  30.630  13.390
69456W        W37830  36.385  44.494   3.852
69457W        W37831  20.701  20.668   1.903
69458W        W37832   2.790  24.611   0.297
69459W        W37833  10.220  17.210   4.666
69460W        W37834  39.835  36.435  12.014
69461W        W37835  38.861   1.378   1.706
69462W        W37836  29.931  35.897   4.172
69463W        W37837  19.106  12.283   2.801
69464W        W37838  11.681   6.820   2.842
69465W        W37839   0.442  16.570   3.370
69466W        W37840  13.723  38.486  11.533
69467W        W37841   1.440   8.209  11.856
69468W        W37842  40.899   0.796  13.370
69469W        W37843  20.114  32.530  13.474
69470W        W37844  18.619   5.831  10.509
69471W        W37845   8.810   5.287  11.913
69472W        W37846  17.261  43.347  13.927
69473W        W37847  18.077  26.076   1.304
69474W        W37848   7.815  44.909  14.808
69475W        W37849  16.126  30.054  14.466
69476W        W37850  21.548  10.661  12.947
69477W        W37851  25.668   6.300   5.194
69478W        W37852  19.564   7.742   2.709
69479W        W37853  22.999  38.061   3.384
69480W        W37854  17.115  13.313   0.897
69481W        W37855   3.729  15.088   2.280
69482W        W37856  34.887  25.650  13.520
69483W        W37857  42.924  27.668   3.792
69484W        W37858  13.837  40.975   0.858
69485W        W37859  26.596  43.414   0.895
69486W        W37860  21.703   4.749   0.471
69487W        W37861   6.262  37.351   0.362
69488W        W37862  42.316   3.783   0.469
69489W        W37863  31.527  36.066  14.836
69490W        W37864  39.982  37.358  12.918
69491W        W37865  30.956   2.443  13.024
69492W        W37866  33.940  41.388   1.282
69493W        W37867  34.383  16.705   0.362
69494W        W37868  35.570  17.256  11.579
69495W        W37869  30.967  24.552  13.310
69496W        W37870  15.198  25.118  11.024
69497W        W37871  25.073  19.667  12.405
69498W        W37872   0.353  22.027  10.903
69499W        W37873  33.622  23.986  10.474
69500W        W37874  15.192  22.675  14.888
69501W        W37875  28.521  30.135  11.574
69502W        W37876   5.904  23.681  13.335
69503W        W37877   1.802  33.012   1.405
69504W        W37878   2.758  14.280   0.919
69505W        W37879  43.946  13.844   2.334
69506W        W37880  44.810  14.220   2.289
69507W        W37881  38.837  33.930  10.552
69508W        W37882  42.904  31.622   2.666
69509W        W37883  18.097  44.404  12.352
69510W        W37884  28.176  36.084   3.859
69511W        W37885  37.377  33.524   0.274
69512W        W37886  29.927   9.271   3.837
69513W        W37887  23.698  14.319   0.794
69514W        W37888  33.380  34.988   1.293
69515W        W37889  23.687  15.721  13.534
69516W        W37890  40.916  18.290  12.486
69517W        W37891  20.037  17.202   0.331
69518W        W37892  29.981  34.381  11.417
69519W        W37893  23.169   2.367  13.917
69520W        W37894  25.977  18.180  13.389
69521W        W37895  11.743   0.860   5.318
69522W        W37896  20.200   6.364   2.200
69523W        W37897   2.788   9.657   2.844
69524W        W37898   7.306   5.873  14.827
69525W        W37899  29.959  15.174  10.893
69526W        W37900  35.884  10.220  10.573
69527W        W37901  41.456  28.047  13.978
69528W        W37902  20.159  22.502  14.421
69529W        W37903   1.295  30.924   1.275
69530W        W37904  24.562  29.930  12.500
69531W        W37905  10.253   9.329   0.315
69532W        W37906  32.992  15.156   4.316
69533W        W37907  16.266  28.620  11.013
69534W        W37908   2.324  29.045   3.327
69535W        W37909  20.523  35.536  14.479
69536W        W37910  38.028  15.212  13.515
69537W        W37911   2.240   2.930   3.348
69538W        W37912  38.483  33.077   4.753
69539W        W37913  16.159   0.412   0.396
69540W        W37914  11.647  31.899   2.291
69541W        W37915  13.675  14.662  11.566
69542W        W37916  32.142  23.662   3.661
69543W        W37917  43.991   0.838  11.018
69544W        W37918   8.228  20.583   4.237
69545W        W37919  40.047  10.154   3.815
69546W        W37920  20.265  36.048  13.362
69547W        W37921  34.865   0.387  11.037
69548W        W37922  13.183  41.331   4.615
69549W        W37923   7.367  10.679  11.496
69550W        W37924  36.512  24.720   0.323
69551W        W37925  32.499  32.891  14.948
69552W        W37926  36.912  42.471   2.844
69553W        W37927  41.428  19.753  14.438
69554W        W37928  35.467   5.854  10.934
69555W        W37929   9.387  16.775   2.725
69556W        W37930  29.951  10.767   3.802
69557W        W37931  11.656  10.250  12.984
69558W        W37932  25.535   3.899   2.373
69559W        W37933   6.912   1.294   0.832
69560W        W37934  33.983  26.056   2.860
69561W        W37935  22.710  15.618   5.250
69562W        W37936  28.176  40.335  11.860
69563W        W37937  35.067   5.724  10.149
69564W        W37938  30.653   4.782  13.064
69565W        W37939  43.876   3.729  11.903
69566W        W37940  17.137  10.663  14.774
69567W        W37941  31.443  12.137   1.337
69568W        W37942   4.850   7.690  12.451
69569W        W37943  11.312  18.228   1.928
69570W        W37944  14.145  39.353  10.550
69571W        W37945  42.480  28.165   2.887
69572W        W37946   7.866  23.032  10.909
69573W        W37947  28.667  38.884   4.119
69574W        W37948  10.217  44.009  11.602
69575W        W37949  17.605   1.375   2.746
69576W        W37950  32.527   0.406  14.023
69577W        W37951  12.292  39.353  14.317
69578W        W37952  43.869  41.827  13.795
69579W        W37953  12.853   5.822  11.990
69580W        W37954  14.167  12.215  10.918
69581W        W37955  39.847  36.880   4.304
69582W        W37956  11.137  41.497   0.845
69583W        W37957   4.887  25.588  14.281
69584W        W37958  23.186  11.340  11.458
69585W        W37959  39.894   9.649   3.758
69586W        W37960  20.560  17.594   1.411
69587W        W37961  35.903  33.117  12.499
69588W        W37962   2.431  17.793   0.811
69589W        W37963  26.577  24.569   4.124
69590W        W37964   3.779  32.107   4.692
69591W        W37965  38.830   1.816  11.471
69592W        W37966  36.040  33.993  12.905
69593W        W37967  13.751  41.365  10.983
69594W        W37968  38.867  37.933  10.496
69595W        W37969  44.452  35.360  11.040
69596W        W37970   2.357   0.869   3.249
69597W        W37971   2.321  44.997   1.904
69598W        W37972  25.132   2.470   1.719
69599W        W37973  36.970  13.220   4.738
69600W        W37974   0.282   4.351   3.273
69601W        W37975  23.649  12.241  11.926
69602W        W37976  34.993  39.837  14.969
69603W        W37977   4.857   1.336   5.235
69604W        W37978  37.519  22.523  13.434
69605W        W37979  39.968  37.530   0.842
69606W        W37980  20.268  42.358   4.801
69607W        W37981   0.936  24.644  11.019
69608W        W37982   8.194  36.414  11.454
69609W        W37983   1.964  41.867  11.035
69610W        W37984  33.088  29.630  13.965
69611W        W37985  12.332  16.671   2.414
69612W        W37986  33.477  34.982  14.385
69613W        W37987  30.569   0.955  10.619
69614W        W37988   3.282  24.609   2.872
69615W        W37989  43.509  36.428  13.407
69616W        W37990   6.788  26.645  10.899
69617W        W37991   2.274  24.682   2.852
69618W        W37992   4.219  24.706   3.243
69619W        W37993  44.855  38.522  10.643
69620W        W37994  14.235  22.999   3.218
69621W        W37995  44.502   6.903   4.348
69622W        W37996   4.869  28.953  11.555
69623W        W37997  23.575  19.143   3.836
69624W        W37998   0.989   7.205  14.447
69625W        W37999   2.833   0.265  12.920
69626W        W38000  23.631   4.903  13.359
69627W        W38001  28.587  43.942  14.381
69628W        W38002  26.964  30.585  11.389
69629W        W38003  23.111  16.130  12.435
69630W        W38004  38.036   2.917  14.427
69631W        W38005   8.779  33.129   2.719
69632W        W38006  28.476  11.164  13.944
69633W        W38007  23.192  41.311  11.034
69634W        W38008  17.146  34.979  14.297
69635W        W38009  14.770  36.067   1.855
69636W        W38010   2.237   0.394  14.952
69637W        W38011  12.819  30.130  10.968
69638W        W38012  13.192  16.271   3.289
69639W        W38013   3.739   4.740   1.232
69640W        W38014   6.228  35.982  11.581
69641W        W38015  23.516   3.401  12.558
69642W        W38016  17.202   9.845  14.903
69643W        W38017  33.897  39.020   3.662
69644W        W38018   3.819  27.984   4.814
69645W        W38019  28.457  17.682  14.379
69646W        W38020  38.529  22.206  13.543
69647W        W38021  19.111  17.212   0.386
69648W        W38022  33.566  18.290  10.419
69649W        W38023  13.296   2.235  12.388
69650W        W38024   8.858  43.012   3.725
69651W        W38025  21.712   9.199  12.831
69652W        W38026  33.383  14.130   0.950
69653W        W38027  12.119   7.372   4.628
69654W        W38028   4.321  24.507   0.405
69655W        W38029  10.655  18.221   0.454
69656W        W38030  12.325  15.596  14.283
69657W        W38031  30.526  27.140  11.058
69658W        W38032  21.131  25.132   0.302
69659W        W38033  19.041   5.241  11.490
69660W        W38034  29.489  23.599  10.631
69661W        W38035  25.212   2.388   1.429
69662W        W38036  16.722   2.744  10.914
69663W        W38037   8.894   5.760  13.396
69664W        W38038   8.246  43.013   3.750
69665W        W38039  36.064  13.176   3.275
69666W        W38040   7.370  20.066  14.906
69667W        W38041  43.003  44.792  11.545
69668W        W38042  24.673  36.930  12.052
69669W        W38043   2.934  31.093   0.290
69670W        W38044   7.302   9.183  13.061
69671W        W38045  44.004  24.550   3.678
69672W        W38046  33.920  23.607   1.723
69673W        W38047  41.483  28.538   4.198
69674W        W38048  29.002  20.191   0.961
69675W        W38049   2.937  42.486  13.920
69676W        W38050  17.098  41.978   0.848
69677W        W38051  13.195   0.371  10.038
69678W        W38052  32.620  29.437  10.485
69679W        W38053  23.182  16.645   1.832
69680W        W38054  20.662  40.452  14.862
69681W        W38055  13.704  27.455  11.969
69682W        W38056   4.842  32.886   2.180
69683W        W38057  10.247  41.501   0.320
69684W        W38058  33.476  41.419   9.960
69685W        W38059  18.223  19.645  14.963
69686W        W38060  38.459  44.495   1.346
69687W        W38061  16.148  42.945   3.864
69688W        W38062  27.186  44.383   3.145
69689W        W38063  41.412  14.192   0.290
69690W        W38064  39.055  40.806   0.767
69691W        W38065  11.331   4.219  12.072
69692W        W38066  32.428   7.670   2.195
69693W        W38067  30.117  31.090   1.442
69694W        W38068  14.146  40.859   1.741
69695W        W38069  19.268  33.508   0.757
69696W        W38070  14.200   6.413  12.996
69697W        W38071   8.385  13.142   4.628
69698W        W38072  23.668  15.783   0.951
69699W        W38073   4.439   4.372  12.444
69700W        W38074  26.180  44.957  12.905
69701W        W38075   8.368  24.657   3.383
69702W        W38076  21.646   9.886  14.935
69703W        W38077  35.011  12.357  13.316
69704W        W38078   5.896  44.865   4.143
69705W        W38079   8.332  28.439   4.775
69706W        W38080  42.994  19.666   3.783
69707W        W38081   5.865   3.854  11.101
69708W        W38082  36.479   2.863   0.797
69709W        W38083  12.624   0.385   3.219
69710W        W38084  21.241  44.356   1.929
69711W        W38085  12.732  34.511  11.398
69712W        W38086  17.290  18.084  12.082
69713W        W38087  36.879  35.603   1.737
69714W        W38088  26.562  16.635   2.713
69715W        W38089  28.992  30.021  12.445
69716W        W38090  32.909   3.228   2.684
69717W        W38091  22.641   1.466  13.309
69718W        W38092  31.916  25.524   5.081
69719W        W38093  28.626   9.878  14.424
69720W        W38094   0.389  31.026   3.718
69721W        W38095  28.586  42.974   4.299
69722W        W38096  43.925  12.347  13.834
69723W        W38097  25.522   7.193   3.812
69724W        W38098  20.180  30.651  13.855
69725W        W38099  41.986  34.464  10.613
69726W        W38100  29.110  13.216  11.381
69727W        W38101  21.736  33.016  14.875
69728W        W38102   1.444  24.505  14.889
69729W        W38103  15.725  32.417   2.849
69730W        W38104  40.375  27.120  13.919
69731W        W38105  15.111   0.381  11.864
69732W        W38106   1.854   3.380  13.898
69733W        W38107  19.750   1.303  10.602
69734W        W38108   5.919  20.189   1.378
69735W        W38109  33.906  31.434  12.565
69736W        W38110  23.648  11.819   2.190
69737W        W38111  32.962  23.575  11.022
69738W        W38112  33.448  34.544   0.344
69739W        W38113   9.279  39.881  14.379
69740W        W38114   9.259  22.655   4.715
69741W        W38115   6.191  18.601  14.427
69742W        W38116  41.339  24.615   1.874
69743W        W38117   7.185  38.460   2.366
69744W        W38118   5.784  27.545   1.856
69745W        W38119  10.693   1.365  12.845
69746W        W38120  24.680  28.602   0.253
69747W        W38121  31.922  40.524   2.344
69748W        W38122  24.557   9.352   4.670
69749W        W38123  17.259  31.550   2.276
69750W        W38124  33.544   5.885  11.903
69751W        W38125  16.649   1.877  11.015
69752W        W38126  15.739  36.397  11.396
69753W        W38127  12.322  43.498   4.669
69754W        W38128  32.555  37.531  11.961
69755W        W38129  23.192  33.088  14.955
69756W        W38130   4.221   5.916  10.595
69757W        W38131  42.970  35.889   2.742
69758W        W38132  34.396   5.864   4.728
69759W        W38133  35.919  32.626   1.235
69760W        W38134  35.533  37.464   4.318
69761W        W38135  28.501   4.799   0.452
69762W        W38136   0.880  21.603   1.307
69763W        W38137  15.256  14.201   4.677
69764W        W38138   9.317  12.137  13.980
69765W        W38139  34.052  30.594  11.609
69766W        W38140  41.452  32.404  12.837
69767W        W38141  37.942  35.603  10.474
69768W        W38142  39.988  23.731  13.496
69769W        W38143  12.264  14.594  10.488
69770W        W38144  11.209  40.993   4.277
69771W        W38145  30.414  26.180   3.629
69772W        W38146  25.486  30.033  12.883
69773W        W38147  23.108  24.619   0.797
69774W        W38148   6.425  37.338   0.781
69775W        W38149   2.381  36.365   4.676
69776W        W38150   7.314  18.234   2.345
69777W        W38151  27.114  10.755   4.334
69778W        W38152  25.598  36.002   4.147
69779W        W38153   0.339  34.910  14.821
69780W        W38154  29.023  21.576   1.414
69781W        W38155  38.013   2.751   3.754
69782W        W38156   5.411   6.749   4.114
69783W        W38157  35.438  12.752   4.678
69784W        W38158  28.648   2.878   0.866
69785W        W38159   5.716  22.112  10.521
69786W        W38160  12.774  39.398   0.247
69787W        W38161   0.408  24.051  11.443
69788W        W38162  12.843  23.117   2.720
69789W        W38163   3.268  15.617  11.028
69790W        W38164  34.095  36.956  11.999
69791W        W38165   7.412   0.749   1.343
69792W        W38166   3.801   1.385  10.918
69793W        W38167   9.825  16.174   0.758
69794W        W38168  15.790   2.730  10.547
69795W        W38169  26.042  12.735   2.338
69796W        W38170  26.145  26.634   0.273
69797W        W38171  21.244  44.786  11.895
69798W        W38172  40.515   5.908  10.594
69799W        W38173  40.402  36.371  11.570
69800W        W38174  19.087  33.120  14.011
69801W        W38175  39.531  43.286   4.186
69802W        W38176  22.522  43.785  11.467
69803W        W38177   2.262   7.718  12.448
69804W        W38178  18.246   8.179   0.807
69805W        W38179  43.787  31.985   4.190
69806W        W38180  35.892  37.373   0.904
69807W        W38181  10.189  41.293  10.583
69808W        W38182  41.431   4.819  14.301
69809W        W38183  44.356  10.871   1.419
69810W        W38184  10.774  38.976   3.180
69811W        W38185  39.496  37.931   1.264
69812W        W38186  39.839  38.438   0.957
69813W        W38187  30.157   7.825  12.565
69814W        W38188   6.861   9.698   0.887
69815W        W38189  31.460   3.780  11.471
69816W        W38190  20.056  26.067   2.306
69817W        W38191  27.099   9.694   1.421
69818W        W38192  22.147   9.800   4.173
69819W        W38193  44.971  12.325  13.504
69820W        W38194  40.411   6.897   2.368
69821W        W38195  11.858   2.761  12.423
69822W        W38196  26.484  41.302   1.386
69823W        W38197  18.598  43.838  11.386
69824W        W38198  27.688  25.470   1.383
69825W        W38199   4.732  22.542  12.035
69826W        W38200  21.036  14.174   0.820
69827W        W38201   9.820  42.327  13.807
69828W        W38202  42.016  11.865  13.986
69829W        W38203  42.292   2.952   4.615
69830W        W38204  13.215  31.414  11.490
69831W        W38205   8.300  40.904  10.497
69832W        W38206  29.944  44.834   5.679
69833W        W38207   6.765  25.061  13.337
69834W        W38208  29.919  32.406  10.412
69835W        W38209  22.169  10.175  11.538
69836W        W38210  34.036  43.372   3.356
69837W        W38211  29.026  44.898   5.125
69838W        W38212  19.100  22.226   2.830
69839W        W38213  11.193  16.727   0.824
69840W        W38214  15.764   0.453  13.017
69841W        W38215  26.015  14.096   3.838
69842W        W38216  29.138  11.678  14.890
69843W        W38217  34.927  13.777   3.785
69844W        W38218   9.875   8.226  10.461
69845W        W38219  29.034  13.842  13.542
69846W        W38220  31.030   7.788  14.296
69847W        W38221  12.166  15.233   1.828
69848W        W38222  20.062  23.186  12.007
69849W        W38223  17.234  10.287  11.964
69850W        W38224  13.836  20.692   1.920
69851W        W38225  12.799   4.293  14.411
69852W        W38226  10.678  29.994  10.939
69853W        W38227  43.915   6.892   2.733
69854W        W38228  21.576  39.001  14.347
69855W        W38229  40.487   2.820  14.385
69856W        W38230   1.291  22.562   3.332
69857W        W38231  10.681  27.496  10.561
69858W        W38232  36.938  43.813   2.662
69859W        W38233  17.683  35.011   3.177
69860W        W38234  27.644  20.548  11.891
69861W        W38235  30.514  24.587  11.099
69862W        W38236  16.141  13.222  14.863
69863W        W38237  10.803  12.701  13.934
69864W        W38238  12.820  27.137   4.814
69865W        W38239  44.977  38.974  12.390
69866W        W38240  43.453   3.933  11.909
69867W        W38241  30.137  38.562   3.288
69868W        W38242  35.893  12.187   0.371
69869W        W38243  18.625  31.134  12.033
69870W        W38244  24.524  16.775  11.985
69871W        W38245  39.867   1.966  12.829
69872W        W38246  18.622  23.609  14.905
69873W        W38247  19.094  24.689   3.672
69874W        W38248  21.130  21.616   2.227
69875W        W38249  13.674  12.152   2.868
69876W        W38250  16.108  33.991   3.302
69877W        W38251  18.546  14.622  13.053
69878W        W38252  17.126   0.362   0.943
69879W        W38253  22.701  17.602  12.056
69880W        W38254  12.850   4.864  14.343
69881W        W38255   6.202   5.385   2.307
69882W        W38256   8.889  14.310  11.388
69883W        W38257  23.193  38.344   5.257
69884W        W38258   9.168   7.690   0.375
69885W        W38259  35.865  39.831   0.783
69886W        W38260  22.062  41.368   1.422
69887W        W38261  15.731  21.545  13.415
69888W        W38262  27.453  10.212   2.280
69889W        W38263  38.429  15.710  13.036
69890W        W38264  20.131  23.014   1.792
69891W        W38265  36.565  30.596   2.709
69892W        W38266   3.365  38.370  10.593
69893W        W38267  16.634  32.907  10.602
69894W        W38268  43.414  39.369  10.912
69895W        W38269  44.485   4.726   2.882
69896W        W38270  37.838  25.510   0.312
69897W        W38271   7.852   2.381  13.830
69898W        W38272  36.573  34.936   1.751
69899W        W38273  34.604  24.069   4.239
69900W        W38274  11.807  12.732  13.850
69901W        W38275  41.814  11.791  12.854
69902W        W38276  12.815   1.398   0.754
69903W        W38277  29.145  36.399   0.796
69904W        W38278  11.788   2.409  13.944
69905W        W38279  32.527  18.078  11.982
69906W        W38280  38.820  31.508   1.300
69907W        W38281  29.581   6.709   0.473
69908W        W38282  39.058  10.732   1.251
69909W        W38283   4.762  14.103   1.730
69910W        W38284  20.609  18.682  11.912
69911W        W38285  31.904   0.446   2.404
69912W        W38286   8.802   0.822  11.108
69913W        W38287  11.634  22.087  13.918
69914W        W38288  10.245  18.659  10.553
69915W        W38289  28.134  38.465   1.279
69916W        W38290  31.605  31.459   3.838
69917W        W38291   2.272   1.352   3.282
69918W        W38292  25.611  20.236   4.141
69919W        W38293   0.910  12.639  14.400
69920W        W38294   6.695  33.492  10.416
69921W        W38295  16.603   8.707   4.161
69922W        W38296  10.138  24.484  12.544
69923W        W38297  25.034  37.565   3.374
69924W        W38298  28.659  14.797   2.816
69925W        W38299  15.123   1.269   2.413
69926W        W38300  22.535  24.610  14.949
69927W        W38301  11.356  22.014  14.421
69928W        W38302  33.383  31.602  13.380
69929W        W38303  36.868  17.142  14.481
69930W        W38304   0.787   6.857  11.381
69931W        W38305  35.489  38.522   0.768
69932W        W38306  11.350   6.199  14.275
69933W        W38307   4.818  31.570  14.501
69934W        W38308  18.579  14.660   1.437
69935W        W38309  36.399  14.703  11.523
69936W        W38310  17.120  18.167   3.327
69937W        W38311   8.879  10.661   3.244
69938W        W38312  17.094  30.044   3.756
69939W        W38313  11.271   0.818   0.890
69940W        W38314   6.338  16.702  12.556
69941W        W38315   5.705  41.832   4.674
69942W        W38316  16.605  18.163   0.262
69943W        W38317  37.979  42.928  12.452
69944W        W38318  23.493   1.307  14.824
69945W        W38319   6.807  29.115   9.501
69946W        W38320   7.851   2.930  11.868
69947W        W38321  36.893  29.641  13.444
69948W        W38322  17.267  43.855  13.933
69949W        W38323  44.290  26.473   0.473
69950W        W38324  30.100   7.829   1.367
69951W        W38325  27.545  28.983   3.637
69952W        W38326   7.196  12.649  10.410
69953W        W38327  30.536   8.364  13.369
69954W        W38328  21.704  33.060   0.862
69955W        W38329  17.195  20.525  14.426
69956W        W38330  32.894  44.298  12.398
69957W        W38331  44.346  22.133   1.361
69958W        W38332  24.641  32.076  10.073
69959W        W38333   9.277  28.072  13.440
69960W        W38334  12.686  39.899  14.764
69961W        W38335  38.335   9.175  11.405
69962W        W38336  37.901  29.563   0.443
69963W        W38337  27.663  25.670   1.805
69964W        W38338  24.497  34.951  12.392
69965W        W38339  35.604  12.230  11.856
69966W        W38340  14.644  35.455   4.821
69967W        W38341  31.627  27.948   3.664
69968W        W38342   3.910  20.648  12.067
69969W        W38343  13.137  19.223   4.762
69970W        W38344   4.712  41.956   2.867
69971W        W38345  15.214   1.417   1.751
69972W        W38346  13.672  20.719   1.214
69973W        W38347  34.502  11.305  13.394
69974W        W38348  18.211  40.461   2.331
69975W        W38349   7.210   0.418  10.975
69976W        W38350  25.524   9.188   3.862
69977W        W38351  34.871  19.082  14.915
69978W        W38352  13.333  36.364   4.157
69979W        W38353  40.461  29.989   4.672
69980W        W38354  17.637   8.664  10.990
69981W        W38355  17.081  22.142  12.428
69982W        W38356  26.603  10.837  12.362
69983W        W38357   0.287  24.519   1.840
69984W        W38358  23.111   6.863  13.034
69985W        W38359   7.280  31.092   9.991
69986W        W38360  16.238  29.461  14.327
69987W        W38361   6.291   0.864  11.406
69988W        W38362  32.516  22.011  14.837
69989W        W38363  22.619  40.947   0.868
69990W        W38364  10.232  10.645   1.380
69991W        W38365  40.379   6.341   2.669
69992W        W38366  27.962  26.197  13.792
69993W        W38367  33.947  11.323  10.478
69994W        W38368   7.302  35.000  11.080
69995W        W38369  30.011  15.637  14.015
69996W        W38370  26.593  19.101   2.271
69997W        W38371  14.179   3.790   1.754
69998W        W38372  40.969  28.114  11.591
69999W        W38373  42.472  38.413   4.174
70000W        W38374   6.335  26.546  11.979
70001W        W38375  43.382  13.286  11.373
70002W        W38376  36.095   8.707  12.558
70003W        W38377  39.901   3.869   3.274
70004W        W38378  13.613   3.224  13.307
70005W        W38379  32.499  31.465  12.537
70006W        W38380  38.462  31.553   1.233
70007W        W38381  13.739  36.057   3.794
70008W        W38382  22.613  42.323  14.823
70009W        W38383  30.130  14.130   4.733
70010W        W38384  23.501   8.183   0.287
70011W        W38385  10.152  30.040   1.316
70012W        W38386  16.206  22.615   3.297
70013W        W38387  40.417  42.494  13.490
70014W        W38388  10.308  36.887  14.401
70015W        W38389  41.538  16.231  10.632
70016W        W38390  42.388  20.590   0.343
70017W        W38391  23.713  44.320   0.398
70018W        W38392  19.593   9.843   0.962
70019W        W38393  14.679   7.198  13.544
70020W        W38394  42.805  29.622  13.379
70021W        W38395  26.694  17.687   2.361
70022W        W38396  43.392  37.517   2.304
70023W        W38397   7.759  21.102   3.777
70024W        W38398  43.340  37.913   4.763
70025W        W38399  41.297  36.997   4.710
70026W        W38400  40.490  30.034   2.280
70027W        W38401   4.726  14.691   0.341
70028W        W38402  43.845  44.468  11.375
70029W        W38403  30.544  40.033  11.082
70030W        W38404  17.758   1.465   4.616
70031W        W38405   9.717  29.604   9.513
70032W        W38406  42.030  26.186   4.211
70033W        W38407   2.292  27.121  12.006
70034W        W38408  24.643   8.293   1.427
70035W        W38409  38.548  11.769  12.065
70036W        W38410  29.638  38.029   2.248
70037W        W38411  23.990  21.705   4.724
70038W        W38412   4.870  40.546   4.328
70039W        W38413  12.304   7.388   1.880
70040W        W38414  38.493  27.084  12.384
70041W        W38415  15.243  30.585   0.259
70042W        W38416  38.450   1.406  14.302
70043W        W38417  41.971   6.846   1.700
70044W        W38418  30.058  19.777  12.862
70045W        W38419   1.400  38.876  14.025
70046W        W38420  39.929  20.695  13.495
70047W        W38421  22.046  40.393   3.849
70048W        W38422  28.062   4.301  10.934
70049W        W38423  17.104   0.743  11.127
70050W        W38424  38.996  15.742  12.555
70051W        W38425   6.228   3.347  14.478
70052W        W38426  30.430  29.633  11.489
70053W        W38427  14.624  44.860   4.184
70054W        W38428  37.528  42.824   5.190
70055W        W38429  25.666  22.085   1.256
70056W        W38430   8.682  20.648   1.914
70057W        W38431  35.095   9.671  12.047
70058W        W38432  15.794  36.386  13.801
70059W        W38433  11.150  12.178   0.374
70060W        W38434  44.266  16.130  14.504
70061W        W38435  33.495  32.918  11.601
70062W        W38436  22.013  28.095  14.786
70063W        W38437  32.099  35.442  11.455
70064W        W38438  35.392  23.611  11.596
70065W        W38439  12.322  35.037  11.855
70066W        W38440  19.042   7.748   2.716
70067W        W38441  27.463  31.574   2.185
70068W        W38442  20.212  14.712  13.058
70069W        W38443  27.164  28.457  11.523
70070W        W38444  25.164   3.929  10.938
70071W        W38445  15.629  26.017  13.384
70072W        W38446   6.204   6.414  10.060
70073W        W38447   5.906   2.944   3.790
70074W        W38448  29.137  38.953  11.558
70075W        W38449  12.281  30.014   3.711
70076W        W38450  29.635  35.602   0.400
70077W        W38451  28.494   7.873   4.210
70078W        W38452  23.683  28.512   0.276
70079W        W38453   9.387  15.202   3.186
70080W        W38454  13.298   8.679   2.304
70081W        W38455  39.906  40.369  13.542
70082W        W38456  37.953  42.412   0.250
70083W        W38457  31.071   8.406   1.390
70084W        W38458  29.044   3.455   1.360
70085W        W38459  34.078  26.155  12.955
70086W        W38460  21.180  33.487  13.466
70087W        W38461  41.040  33.929  11.594
70088W        W38462  42.856  29.494  11.501
70089W        W38463  24.673   0.887  14.022
70090W        W38464  26.032   4.206   2.371
70091W        W38465  12.173   8.697   2.720
70092W        W38466  21.706  25.655  14.300
70093W        W38467  24.630  41.035   3.834
70094W        W38468  23.588  33.009  12.000
70095W        W38469  44.375  10.843  13.528
70096W        W38470  10.336  32.392   2.664
70097W        W38471  34.458  20.196  11.064
70098W        W38472  44.983  21.604  12.067
70099W        W38473   9.753  12.822   4.233
70100W        W38474  38.967  15.091  11.498
70101W        W38475   1.348  39.407  13.453
70102W        W38476   0.316   7.195   3.250
70103W        W38477  21.180   4.218  14.951
70104W        W38478  40.475  16.151   0.320
70105W        W38479  28.558  22.577  12.959
70106W        W38480   8.865  29.439  12.461
70107W        W38481  36.425  34.518   1.861
70108W        W38482  38.514  26.020   2.210
70109W        W38483   7.894  16.629   0.391
70110W        W38484  23.694  22.181  11.509
70111W        W38485  17.126  36.022  14.783
70112W        W38486  26.673  22.050  13.848
70113W        W38487  32.569  13.690  11.473
70114W        W38488  39.429  21.127   4.200
70115W        W38489  27.132  23.547   2.238
70116W        W38490   0.926  42.953  13.331
70117W        W38491   9.879  18.670   2.750
70118W        W38492  23.182  40.490   3.252
70119W        W38493  32.892   0.780   1.744
70120W        W38494  39.479  43.335  11.932
70121W        W38495  33.623   8.833  12.480
70122W        W38496   8.200  29.059   5.257
70123W        W38497  30.004  23.571   1.817
70124W        W38498  25.132  39.834   2.256
70125W        W38499   0.883  34.953   1.726
70126W        W38500  17.649  39.354  14.340
70127W        W38501  44.818  24.574  10.950
70128W        W38502  38.883  28.007   5.219
70129W        W38503  33.412  21.711  13.381
70130W        W38504   4.935   8.172  13.539
70131W        W38505  44.328  13.257  14.289
70132W        W38506  42.797  18.559   2.272
70133W        W38507   8.725  35.461  11.469
70134W        W38508  42.925  25.568   5.241
70135W        W38509  12.184  17.755   3.695
70136W        W38510  36.577  11.769   2.734
70137W        W38511   5.781  34.513  14.464
70138W        W38512  36.026  43.790   3.218
70139W        W38513  43.498  11.790  11.597
70140W        W38514  33.960  18.695   4.676
70141W        W38515  28.937   8.379  13.510
70142W        W38516   7.288   1.298  11.588
70143W        W38517  43.270   3.877  11.599
70144W        W38518  42.927  29.032  14.887
70145W        W38519  21.665  43.283  13.450
70146W        W38520   7.340  28.575   2.756
70147W        W38521   6.782  41.509  10.916
70148W        W38522  22.514   8.163   4.338
70149W        W38523   9.287   8.874  11.926
70150W        W38524   8.373  26.147   5.189
70151W        W38525  11.653  29.050   1.798
70152W        W38526  32.394  10.731   1.890
70153W        W38527  33.446  37.445  10.515
70154W        W38528  24.591   8.740   0.735
70155W        W38529  24.206  40.039   3.247
70156W        W38530  14.686  33.948  14.284
70157W        W38531  39.444  17.629   4.761
70158W        W38532  19.243   0.829  10.644
70159W        W38533  32.437  32.524  12.545
70160W        W38534  28.105  11.262  13.523
70161W        W38535   0.276  35.876   2.364
70162W        W38536  43.497   4.932   4.641
70163W        W38537  30.631  43.895  11.569
70164W        W38538   9.806   9.351  12.995
70165W        W38539  17.291  44.400   5.175
70166W        W38540  30.564  37.002  11.533
70167W        W38541   1.818  34.455   3.189
70168W        W38542  17.662  29.971   1.421
70169W        W38543  23.564  41.300   2.346
70170W        W38544  40.806  34.601  11.117
70171W        W38545  42.447  17.286   4.141
70172W        W38546  37.435  12.161   3.736
70173W        W38547  22.049  30.524   3.230
70174W        W38548   7.192   9.678   1.894
70175W        W38549  14.168   5.217   2.818
70176W        W38550  34.487  29.432  11.532
70177W        W38551   2.870  40.510   0.828
70178W        W38552  10.673  21.182  12.054
70179W        W38553  24.520  25.203   3.164
70180W        W38554  20.252  42.492   3.375
70181W        W38555  42.474   1.783  11.938
70182W        W38556  17.278  44.005  11.426
70183W        W38557  37.519  27.478  12.361
70184W        W38558  20.046  20.122   2.865
70185W        W38559  15.298  11.301   0.321
70186W        W38560  31.914  37.441  10.433
70187W        W38561  36.463  14.652  12.997
70188W        W38562   2.893  39.327  13.946
70189W        W38563  29.030  37.363  10.419
70190W        W38564  23.146  38.027   3.716
70191W        W38565   3.376  17.152  11.420
70192W        W38566  42.009  24.645  11.389
70193W        W38567  28.503  21.651   4.348
70194W        W38568  44.932  19.039   3.699
70195W        W38569  44.378  35.569   2.850
70196W        W38570  26.060  10.237  14.293
70197W        W38571   2.879  18.732   1.808
70198W        W38572  19.664  11.811  12.561
70199W        W38573   2.365  41.827   1.739
70200W        W38574  30.929  12.189  14.297
70201W        W38575   8.677  18.069   5.273
70202W        W38576  27.503  29.094   1.381
70203W        W38577  34.511   8.199   0.358
70204W        W38578   7.897  16.710   0.883
70205W        W38579  42.909  14.334  14.028
70206W        W38580  44.381  40.891  10.936
70207W        W38581  16.760  29.638  13.448
70208W        W38582   3.773  35.409   2.730
70209W        W38583  23.518   5.879  14.923
70210W        W38584  11.793  15.593   0.301
70211W        W38585   2.251  27.133   0.298
70212W        W38586  24.986   2.929   0.338
70213W        W38587  18.141  14.147   1.754
70214W        W38588   7.308  37.083  13.887
70215W        W38589  23.700  10.722  14.479
70216W        W38590  10.248  41.845   0.813
70217W        W38591   8.359  29.073   3.329
70218W        W38592  22.233  38.825  11.441
70219W        W38593  27.544  31.603   1.778
70220W        W38594  38.858  41.937   4.192
70221W        W38595   9.773  41.507   4.629
70222W        W38596  20.709  21.106   0.834
70223W        W38597  19.548  34.105   3.833
70224W        W38598  25.518   2.251  14.026
70225W        W38599  37.422  32.482   4.609
70226W        W38600  19.698   1.355  13.844
70227W        W38601  13.762  12.654  14.899
70228W        W38602  41.040   4.287  13.919
70229W        W38603  24.651  15.197  14.863
70230W        W38604   2.309   8.405   3.743
70231W        W38605  12.316  42.514  11.943
70232W        W38606  36.853  35.926   0.747
70233W        W38607  19.152  37.013   4.318
70234W        W38608   2.949  17.794   1.930
70235W        W38609  29.157  14.262  12.375
70236W        W38610  18.646  20.045  13.863
70237W        W38611  44.474  30.933   2.720
70238W        W38612  23.619  27.516  13.802
70239W        W38613  38.491  33.466  14.763
70240W        W38614  32.103  25.194  13.948
70241W        W38615   9.698  38.859   1.838
70242W        W38616  19.190   4.765   0.466
70243W        W38617  24.109  32.913   2.184
70244W        W38618   1.825  14.725  12.565
70245W        W38619  24.058  33.054  14.902
70246W        W38620  44.413   0.865   0.759
70247W        W38621  39.846  17.768   2.362
70248W        W38622  13.749   6.232   1.894
70249W        W38623  18.052  13.795  14.344
70250W        W38624  16.678  31.061  13.322
70251W        W38625   7.850  15.125   0.931
70252W        W38626  31.615  12.677   0.957
70253W        W38627  36.015  25.104   4.813
70254W        W38628   4.241  39.494   1.915
70255W        W38629  25.489  24.603  10.988
70256W        W38630   2.388  38.961   3.306
70257W        W38631  11.850  33.582   5.287
70258W        W38632  23.532  22.643  13.509
70259W        W38633   1.927   8.693   1.360
70260W        W38634  30.938  28.537  13.880
70261W        W38635  12.199  41.411   2.267
70262W        W38636  14.746   2.852   1.789
70263W        W38637  20.759  32.505   1.768
70264W        W38638   3.423  21.682  13.957
70265W        W38639  10.143  32.470   0.764
70266W        W38640  16.260  24.522   4.116
70267W        W38641  38.994  23.592   1.730
70268W        W38642  37.355  32.422  10.409
70269W        W38643  28.666  39.472   2.769
70270W        W38644  30.969  16.300   3.289
70271W        W38645  33.572  35.867  10.990
70272W        W38646   1.797  38.959  10.610
70273W        W38647  32.554  26.984   0.910
70274W        W38648  37.571  23.035  10.572
70275W        W38649   5.892   2.766   4.148
70276W        W38650  18.571  13.766  12.454
70277W        W38651   6.692  10.774   3.855
70278W        W38652  41.365  38.447  11.506
70279W        W38653  42.307  23.563  14.940
70280W        W38654  15.115  29.135  10.439
70281W        W38655  41.418  10.170  13.060
70282W        W38656   1.354  41.874  10.889
70283W        W38657  19.203  11.327   0.413
70284W        W38658  10.187  34.889   4.749
70285W        W38659  36.927   0.934   1.317
70286W        W38660  20.068  16.813   1.786
70287W        W38661   4.413  30.053  12.826
70288W        W38662  39.808   5.398  14.015
70289W        W38663  31.644   3.351   3.633
70290W        W38664   3.725  15.607  13.408
70291W        W38665   5.719  29.158   3.294
70292W        W38666  24.190  35.954  10.588
70293W        W38667  23.091  24.613  10.555
70294W        W38668  40.937   9.834  14.509
70295W        W38669   5.866   4.442   2.713
70296W        W38670  30.975  14.659  11.411
70297W        W38671  20.690   7.786  13.364
70298W        W38672  24.168   6.827   3.653
70299W        W38673  37.995   8.394  12.354
70300W        W38674  38.416  26.633  10.945
70301W        W38675  17.240   6.362   4.299
70302W        W38676  18.290  42.803  13.385
70303W        W38677  25.078  38.566  12.915
70304W        W38678  27.651  10.805  13.909
70305W        W38679   4.781  22.164   4.272
70306W        W38680   2.243  29.070  11.591
70307W        W38681  39.964  15.624  11.886
70308W        W38682  12.781  32.916   4.621
70309W        W38683   1.245  14.144  10.563
70310W        W38684  37.831  20.645  14.983
70311W        W38685  31.593   4.241  11.435
70312W        W38686  16.274  10.239   9.562
70313W        W38687  26.583  12.820  13.052
70314W        W38688   5.256  13.683  13.825
70315W        W38689  34.433  43.905   4.200
70316W        W38690  14.288  36.533   1.296
70317W        W38691  35.006  20.129  11.033
70318W        W38692  23.582  37.486   3.319
70319W        W38693  30.097  32.597  12.405
70320W        W38694  37.514  19.269   1.406
70321W        W38695  23.110  29.116  11.444
70322W        W38696  28.108  33.906   1.710
70323W        W38697  10.193  19.646   5.260
70324W        W38698  36.561  25.162   3.805
70325W        W38699  11.771   9.675  12.978
70326W        W38700  40.436  31.912  13.312
70327W        W38701  20.138  20.247  11.919
70328W        W38702  15.226   9.889   3.253
70329W        W38703  28.941   3.266  13.466
70330W        W38704  43.414   9.869   0.884
70331W        W38705   6.301  23.684  10.488
70332W        W38706  13.137  23.596  10.046
70333W        W38707   7.842  28.053  13.370
70334W        W38708  24.090   5.196   1.436
70335W        W38709  35.069  39.490  12.045
70336W        W38710  16.236  36.894  10.913
70337W        W38711   4.248  17.203   4.274
70338W        W38712   8.270  35.378  12.356
70339W        W38713  18.174   7.900   1.254
70340W        W38714   4.876  22.658  12.904
70341W        W38715  42.917  36.886  13.404
70342W        W38716   6.790  27.094   1.836
70343W        W38717  24.714  13.168   4.117
70344W        W38718   8.726  33.969  14.954
70345W        W38719  41.803  18.192  14.411
70346W        W38720  17.706  36.014  11.548
70347W        W38721  15.092  27.055   1.327
70348W        W38722   0.780  43.960   4.305
70349W        W38723  40.907   9.720  13.008
70350W        W38724  41.832   9.333  12.407
70351W        W38725  41.786  34.499   1.752
70352W        W38726  16.151  28.151  14.772
70353W        W38727   6.200  20.059  14.856
70354W        W38728   5.399  36.515  10.532
70355W        W38729  23.508  24.679   0.479
70356W        W38730  40.846   7.787  12.085
70357W        W38731   1.420   7.247  13.392
70358W        W38732  13.332   2.338  14.340
70359W        W38733  32.018  38.468  13.486
70360W        W38734  27.518  38.543  10.905
70361W        W38735  34.076   3.909   2.292
70362W        W38736  29.641   3.222  10.010
70363W        W38737  31.572   8.257  11.953
70364W        W38738  26.615  26.177   0.285
70365W        W38739  27.028  26.497   2.359
70366W        W38740  29.631  44.010   0.342
70367W        W38741   2.792  24.111   0.841
70368W        W38742  11.660  42.799  13.858
70369W        W38743  43.491  20.680  12.561
70370W        W38744   1.747  17.206  11.023
70371W        W38745  30.945   2.309  10.991
70372W        W38746  15.584  20.587   0.357
70373W        W38747  29.617  41.017  13.845
70374W        W38748  25.196  37.916   3.286
70375W        W38749  33.384   8.273  11.079
70376W        W38750  24.681  28.133   1.282
70377W        W38751  30.123   4.757  11.859
70378W        W38752  31.974  38.430  14.895
70379W        W38753  44.379  39.989  11.393
70380W        W38754  19.178   4.245   2.843
70381W        W38755  31.552  41.905  10.495
70382W        W38756  25.040  23.624   0.803
70383W        W38757  10.183  35.974  10.127
70384W        W38758  44.820  29.965  14.927
70385W        W38759  39.348  44.475  11.477
70386W        W38760  28.156   7.299  13.034
70387W        W38761  19.620   3.249  14.362
70388W        W38762  12.262  44.757   1.366
70389W        W38763  27.497  42.830   2.728
70390W        W38764  16.219   6.869  13.026
70391W        W38765   1.900  31.533   0.371
70392W        W38766  20.211   0.752  11.908
70393W        W38767  16.122   3.243  11.060
70394W        W38768  32.584  10.283   3.733
70395W        W38769  29.106  34.595   1.802
70396W        W38770   8.824  37.494   1.834
70397W        W38771  40.485   0.303   4.665
70398W        W38772   9.246  37.434   2.679
70399W        W38773  27.150  11.225   1.895
70400W        W38774  41.500   1.335   2.850
70401W        W38775   8.217  40.452  13.382
70402W        W38776  15.278  31.901   0.295
70403W        W38777   6.255  38.428   2.288
70404W        W38778  24.626  35.406   0.437
70405W        W38779  21.606  13.323   3.753
70406W        W38780  36.040  18.164   3.149
70407W        W38781  12.146   2.933  13.887
70408W        W38782  44.864  42.978   3.832
70409W        W38783  13.678  18.603   1.822
70410W        W38784  37.864   6.809   2.369
70411W        W38785   2.895   5.797  14.910
70412W        W38786  11.803  26.607   4.173
70413W        W38787  26.014  24.721   0.821
70414W        W38788  19.141   0.838   1.932
70415W        W38789  17.189   5.314  13.325
70416W        W38790  38.047  26.478   4.197
70417W        W38791  39.975  22.561  10.543
70418W        W38792  39.934  11.672  14.406
70419W        W38793  13.705  29.628  14.495
70420W        W38794  16.570  43.347   1.695
70421W        W38795  32.125  12.613   5.252
70422W        W38796  15.665  29.960   2.728
70423W        W38797   9.845  29.065   5.117
70424W        W38798  20.600  24.701  11.069
70425W        W38799  15.148  42.946  14.411
70426W        W38800  33.423  41.359   3.849
70427W        W38801  18.243   7.367   4.787
70428W        W38802   0.851   7.717  12.007
70429W        W38803   3.354  21.670  14.341
70430W        W38804  12.681  16.155  12.451
70431W        W38805  20.162   9.691  13.035
70432W        W38806  39.065  23.987  13.406
70433W        W38807  13.239  25.080   1.431
70434W        W38808   5.406  24.064  10.964
70435W        W38809  16.263  41.333   3.354
70436W        W38810  28.964  21.249  14.328
70437W        W38811   3.721   4.845   3.306
70438W        W38812  22.210  28.605   4.651
70439W        W38813  26.137  32.571   1.915
70440W        W38814   7.171  28.158  12.093
70441W        W38815  26.050  23.586   3.193
70442W        W38816  42.485  25.683   4.141
70443W        W38817  24.660  43.004  14.955
70444W        W38818  14.171  11.792   1.890
70445W        W38819   6.214  22.233  10.451
70446W        W38820  13.830  44.966   1.707
70447W        W38821  33.112  35.977  11.997
70448W        W38822  43.831  20.618   4.819
70449W        W38823  29.160   3.461  11.890
70450W        W38824   9.150   8.705  10.990
70451W        W38825  21.131   1.481   4.628
70452W        W38826   6.861  24.108  11.914
70453W        W38827  21.022   6.426  13.321
70454W        W38828  16.167  12.771   2.877
70455W        W38829  12.680  13.127   3.340
70456W        W38830  22.195  44.910   2.711
70457W        W38831  33.038  14.266   5.265
70458W        W38832  25.522   3.344   1.844
70459W        W38833  39.409  22.144  13.330
70460W        W38834  41.363  20.648  14.984
70461W        W38835   6.688  28.595   1.331
70462W        W38836   8.849  11.797  12.094
70463W        W38837  27.616   2.419   2.323
70464W        W38838   8.826   0.273   4.597
70465W        W38839  34.598  33.915  11.533
70466W        W38840   6.871  24.580   1.758
70467W        W38841  15.257  44.384  13.361
70468W        W38842  18.747  11.296  11.096
70469W        W38843   6.870  21.637  14.394
70470W        W38844   9.881  28.119  14.979
70471W        W38845  43.503  17.284   3.826
70472W        W38846   7.714  33.475   0.734
70473W        W38847  36.903   4.339   1.923
70474W        W38848  29.020  16.599   4.315
70475W        W38849  40.968  16.221   1.899
70476W        W38850  28.569  42.452  13.885
70477W        W38851  13.835   7.217   2.859
70478W        W38852  19.061   8.777   0.742
70479W        W38853   4.434   3.367  11.993
70480W        W38854   9.373  40.981  10.419
70481W        W38855  25.151  28.155  12.389
70482W        W38856   8.741  25.673  13.031
70483W        W38857   7.222  16.676   3.154
70484W        W38858  17.094   5.800  12.903
70485W        W38859  26.521  17.602  13.403
70486W        W38860  34.014  22.046   1.811
70487W        W38861   5.323  33.015  14.349
70488W        W38862  11.348  14.673  11.091
70489W        W38863  35.046  44.272  13.877
70490W        W38864   4.413   8.659  14.786
70491W        W38865  18.268  20.739  11.060
70492W        W38866  33.417  36.092   1.263
70493W        W38867  42.943  13.658  14.974
70494W        W38868  33.124  20.684   1.893
70495W        W38869  10.834  43.308  11.105
70496W        W38870  20.273  34.443   1.256
70497W        W38871  17.162  43.867   3.865
70498W        W38872  43.466   9.346   1.697
70499W        W38873   5.252   5.345   0.267
70500W        W38874   0.265   0.387  13.548
70501W        W38875   4.203  31.082   0.365
70502W        W38876  10.811  30.443  14.433
70503W        W38877  12.135   8.261  13.531
70504W        W38878  10.869   4.367   4.811
70505W        W38879  11.346  12.736  14.475
70506W        W38880  12.747  39.316  14.874
70507W        W38881  28.176  39.458   2.256
70508W        W38882  30.075  30.015  10.992
70509W        W38883   2.870   1.255   2.742
70510W        W38884  27.511  37.563   3.328
70511W        W38885  12.202  40.353   1.411
70512W        W38886   2.390  18.184   2.710
70513W        W38887   9.231  11.753  13.502
70514W        W38888  31.001   5.702  14.498
70515W        W38889  28.987  30.540   3.695
70516W        W38890  19.563  38.411  14.335
70517W        W38891  24.583   4.227  14.990
70518W        W38892  21.646   5.839   1.840
70519W        W38893  11.805  41.042  13.405
70520W        W38894  14.242  12.824   4.660
70521W        W38895  44.977  20.235   0.935
70522W        W38896  23.007  25.129   3.699
70523W        W38897  16.771   9.320   4.633
70524W        W38898  16.623  21.654  12.086
70525W        W38899  21.571  41.799   2.685
70526W        W38900   7.675   6.693  13.488
70527W        W38901  11.331  30.945  13.498
70528W        W38902  14.613   6.253   1.771
70529W        W38903  27.089  16.622  10.468
70530W        W38904  38.392  42.343   3.835
70531W        W38905  17.797  14.659  10.489
70532W        W38906   1.971  11.231   3.689
70533W        W38907  11.356  43.386  12.543
70534W        W38908  16.775  14.660  14.329
70535W        W38909   6.391  44.406  11.860
70536W        W38910  11.145  11.262   4.245
70537W        W38911   8.777  21.686   2.734
70538W        W38912  13.311   6.334   5.240
70539W        W38913  35.548  41.890   0.453
70540W        W38914  14.193  36.453  11.099
70541W        W38915  30.626  40.854   0.406
70542W        W38916  31.126  34.537   2.873
70543W        W38917  34.595  42.910   4.791
70544W        W38918  36.089  26.994  11.030
70545W        W38919   5.358   4.283  13.062
70546W        W38920  15.771  15.622  13.905
70547W        W38921  28.985  21.149  14.802
70548W        W38922  39.421  17.640  12.994
70549W        W38923   5.332  40.878  11.053
70550W        W38924  19.208  14.821   0.745
70551W        W38925  43.769  37.561   3.800
70552W        W38926  16.788  29.958   1.864
70553W        W38927  23.000  14.129  13.944
70554W        W38928  24.049  26.111   0.479
70555W        W38929  27.497  12.636  11.975
70556W        W38930   3.399   6.799   0.375
70557W        W38931  36.042  43.788  14.885
70558W        W38932   8.399   6.850   3.314
70559W        W38933  38.430  35.595   4.741
70560W        W38934  35.600   4.360   2.319
70561W        W38935  36.025  10.266  14.820
70562W        W38936  43.999  29.506  13.804
70563W        W38937   7.797  14.155  10.993
70564W        W38938   0.319  35.594  14.290
70565W        W38939  17.773   6.291   1.764
70566W        W38940  24.534  37.525   4.676
70567W        W38941  13.215   0.971  12.951
70568W        W38942  36.575  21.041   0.755
70569W        W38943   4.746  33.087  10.049
70570W        W38944  16.300  23.633  14.352
70571W        W38945  44.349  32.572   3.726
70572W        W38946   6.247  44.929  12.907
70573W        W38947   4.894  28.135  11.406
70574W        W38948  10.300  43.388   1.778
70575W        W38949  26.609   2.834   2.855
70576W        W38950  22.655  22.590   1.229
70577W        W38951  32.480  10.704   1.365
70578W        W38952  37.536  33.558  10.432
70579W        W38953  12.722  31.098   2.816
70580W        W38954  32.912  24.658  12.854
70581W        W38955   1.454  30.475  13.852
70582W        W38956  10.872   2.446  11.959
70583W        W38957  35.507  14.102  12.897
70584W        W38958   8.348  40.870   0.252
70585W        W38959  37.419  30.954   0.730
70586W        W38960  35.501  32.980   3.731
70587W        W38961  28.105  21.048   3.771
70588W        W38962  19.606  26.594  13.529
70589W        W38963  27.516  43.850  12.493
70590W        W38964  28.169  27.606   3.686
70591W        W38965  29.992  32.064   0.288
70592W        W38966  43.332  32.410  11.902
70593W        W38967  26.047   4.417  10.623
70594W        W38968  27.526  15.799  13.892
70595W        W38969   4.372  21.189  11.532
70596W        W38970  32.131   0.285   1.342
70597W        W38971  33.940  24.725  12.948
70598W        W38972  42.395  34.491   2.409
70599W        W38973  23.084  44.810   1.305
70600W        W38974  14.252   2.814  13.833
70601W        W38975  33.021  44.955   0.844
70602W        W38976  16.232  42.002   2.211
70603W        W38977  32.521  40.799   4.193
70604W        W38978   2.462  29.944   0.811
70605W        W38979  32.501  17.195  10.623
70606W        W38980  30.488  27.140   2.374
70607W        W38981  34.538   2.895   1.309
70608W        W38982  41.975   4.893   3.719
70609W        W38983  43.935  41.509  10.925
70610W        W38984  34.526  37.546   3.845
70611W        W38985  27.667  35.976   4.118
70612W        W38986  37.430  37.907  12.534
70613W        W38987   6.854  22.204   0.773
70614W        W38988  42.800  20.176   5.224
70615W        W38989  27.046  13.811   4.770
70616W        W38990  32.556  29.975  12.520
70617W        W38991  35.022  13.637   3.208
70618W        W38992  34.558   8.697   0.341
70619W        W38993   4.782   2.759   4.766
70620W        W38994  14.781  18.555   2.369
70621W        W38995  31.643  34.889  10.493
70622W        W38996  33.947  12.227   0.850
70623W        W38997  43.460  15.782  12.526
70624W        W38998  26.049  16.096   0.909
70625W        W38999  36.360  41.975   3.339
70626W        W39000  16.792  29.936  14.964
70627W        W39001  36.463  41.487  13.501
70628W        W39002  38.552  35.016  14.906
70629W        W39003  26.051   7.284   3.201
70630W        W39004  22.691   6.348   2.814
70631W        W39005  35.011  36.964   0.413
70632W        W39006  34.103  25.556  11.002
70633W        W39007  25.631   4.250  13.813
70634W        W39008  15.638   1.827   0.767
70635W        W39009  25.981   8.366   0.746
70636W        W39010  28.540  39.901   3.820
70637W        W39011   8.317  21.140  13.439
70638W        W39012   3.401  26.199   0.305
70639W        W39013  16.211   3.336   2.341
70640W        W39014  34.425  10.308   1.433
70641W        W39015  15.689   8.219  13.486
70642W        W39016  22.695  43.435   4.303
70643W        W39017  26.651  18.559  14.898
70644W        W39018  25.480  38.868  11.911
70645W        W39019  25.009  11.734   4.191
70646W        W39020   9.701   9.370   1.845
70647W        W39021  37.914  36.935   1.318
70648W        W39022  30.428  39.475  14.983
70649W        W39023  22.025  35.600   0.736
70650W        W39024  27.489  43.381   3.814
70651W        W39025  22.187  26.495  11.915
70652W        W39026  21.512  12.212  13.441
70653W        W39027  40.392  40.042  11.898
70654W        W39028   1.395  38.836   1.313
70655W        W39029  37.378  44.440   3.312
70656W        W39030  26.149  15.316  12.559
70657W        W39031  25.515  28.945  14.934
70658W        W39032  11.242   7.861   4.333
70659W        W39033  41.914   1.792  10.094
70660W        W39034  22.647  42.425   2.794
70661W        W39035   0.816  36.862  12.402
70662W        W39036  24.541  38.960   2.369
70663W        W39037  14.661   9.312  12.573
70664W        W39038  28.456  24.211  11.054
70665W        W39039  40.961  19.151   0.729
70666W        W39040  30.657  40.351   4.272
70667W        W39041   6.813  30.597   3.695
70668W        W39042   8.406   0.250   4.220
70669W        W39043  30.650   8.760   0.778
70670W        W39044  14.171  24.632  13.882
70671W        W39045  13.243  27.091   2.395
70672W        W39046   2.446  33.593  10.566
70673W        W39047  27.166  27.568  12.994
70674W        W39048   1.831   5.310   1.842
70675W        W39049   8.188  10.360   4.795
70676W        W39050   0.280   7.195  10.948
70677W        W39051  21.184  34.583  12.537
70678W        W39052   0.924   6.700  12.497
70679W        W39053  33.907  36.081   1.837
70680W        W39054  25.475   0.446  10.532
70681W        W39055  44.271   8.780   2.666
70682W        W39056  33.003  29.006  11.544
70683W        W39057  23.037  29.576   2.834
70684W        W39058   1.859  13.187  10.930
70685W        W39059  23.125  40.330  14.314
70686W        W39060  13.761  31.067  14.327
70687W        W39061  38.008  19.220   0.347
70688W        W39062   4.444  39.356   4.759
70689W        W39063  40.325  23.553   2.841
70690W        W39064  19.265  34.117  13.324
70691W        W39065  13.107  16.191  13.362
70692W        W39066   2.302  30.534  12.390
70693W        W39067  29.590  14.173   5.115
70694W        W39068  20.216   5.253   1.769
70695W        W39069  33.023   5.759  14.807
70696W        W39070  19.558  15.749  14.998
70697W        W39071  17.174  23.605  12.369
70698W        W39072  26.170   3.804  11.419
70699W        W39073  33.489  31.014  13.459
70700W        W39074  43.992  13.688   3.812
70701W        W39075   4.442  15.651  14.379
70702W        W39076   5.337  17.750  11.539
70703W        W39077  42.503   6.273  13.844
70704W        W39078   6.680  24.163   0.473
70705W        W39079  44.430  35.394  12.884
70706W        W39080  27.538  41.395  13.497
70707W        W39081  27.627   2.252   2.710
70708W        W39082  29.450  35.955   4.663
70709W        W39083  35.965  17.120  12.482
70710W        W39084  16.258   1.887  13.026
70711W        W39085   5.917   9.183  11.575
70712W        W39086  33.085  19.131  14.398
70713W        W39087  37.460  32.586   1.707
70714W        W39088  23.612  36.060   0.842
70715W        W39089  42.028   6.849   1.426
70716W        W39090  18.107   4.907   4.658
70717W        W39091  34.871  44.387   4.825
70718W        W39092   4.304  12.116   3.225
70719W        W39093  14.115  18.595   2.811
70720W        W39094  40.977   6.862  12.842
70721W        W39095  19.543  33.058   2.279
70722W        W39096  11.345  42.508  14.933
70723W        W39097  20.117  38.354  14.506
70724W        W39098  44.447   9.727  13.901
70725W        W39099  36.370  44.385  12.907
70726W        W39100  19.768  34.975  10.891
70727W        W39101  19.724  23.170  14.792
70728W        W39102  36.535  18.208   4.142
70729W        W39103   9.871  14.105   1.302
70730W        W39104  30.507   1.976  13.815
70731W        W39105  42.333   9.202  13.903
70732W        W39106  23.706  13.166   4.676
70733W        W39107  28.023  38.861  14.899
70734W        W39108   7.292  43.277   3.799
70735W        W39109  24.174  27.153   2.395
70736W        W39110  44.826  22.076  11.054
70737W        W39111  10.209  19.264  12.547
70738W        W39112  24.578  32.918  13.007
70739W        W39113  23.167   2.755  13.895
70740W        W39114  23.626  41.862  14.022
70741W        W39115   6.918  21.201  12.915
70742W        W39116  19.710  32.054   3.770
70743W        W39117  29.175   6.427  11.957
70744W        W39118  16.666  40.948   4.234
70745W        W39119  21.545   6.423  12.345
70746W        W39120  19.767  17.605   2.409
70747W        W39121  16.298  26.970  12.859
70748W        W39122  40.960  44.498   2.754
70749W        W39123  23.663  24.044   3.697
70750W        W39124  28.970  13.716  13.933
70751W        W39125  26.631  36.938  14.407
70752W        W39126  24.567  12.836   4.639
70753W        W39127  29.569  19.252  12.445
70754W        W39128   2.371  28.156  11.084
70755W        W39129  30.420   9.818  11.039
70756W        W39130  21.532  20.032   2.326
70757W        W39131  30.473  34.985   0.743
70758W        W39132  31.898  24.595  13.943
70759W        W39133   1.761  26.001   2.228
70760W        W39134  20.061  32.609   0.243
70761W        W39135  21.192  22.117   2.238
70762W        W39136   2.358  44.421   3.216
70763W        W39137  25.550  11.236   4.690
70764W        W39138  37.450   4.730  11.454
70765W        W39139  16.108  11.334   4.761
70766W        W39140  43.810   8.171   2.767
70767W        W39141   3.816  34.564   1.443
70768W        W39142  36.849  29.523   1.251
70769W        W39143  34.553  20.693   1.823
70770W        W39144   3.263  31.051   0.829
70771W        W39145  23.021  20.662  10.985
70772W        W39146  43.938  36.558  13.002
70773W        W39147  10.248  33.601  10.147
70774W        W39148  39.481  21.728  13.881
70775W        W39149  37.967  14.723   4.153
70776W        W39150   3.412  17.069  14.780
70777W        W39151  41.994  37.923   3.359
70778W        W39152  37.039  13.210   3.164
70779W        W39153  12.227  15.211  12.045
70780W        W39154   5.350   5.712  13.486
70781W        W39155  41.340  37.996  13.503
70782W        W39156  24.687   1.424  11.487
70783W        W39157  34.416   8.246  11.025
70784W        W39158  27.597   1.369  12.082
70785W        W39159  14.321  27.520  13.466
70786W        W39160  36.975  41.922  13.935
70787W        W39161   9.699  26.112  11.883
70788W        W39162  26.602  43.864  13.428
70789W        W39163  13.684   1.797  13.915
70790W        W39164   2.723  44.758  13.908
70791W        W39165  24.014  17.790  13.404
70792W        W39166  43.934  32.412  12.903
70793W        W39167  12.724  37.360   3.867
70794W        W39168  33.546  34.093   4.283
70795W        W39169  12.744  17.306  12.044
70796W        W39170   5.194  31.971  12.435
70797W        W39171  12.282  33.418  14.804
70798W        W39172   9.835  13.681   2.417
70799W        W39173  40.350  10.694   2.669
70800W        W39174  15.281  21.139   0.771
70801W        W39175  17.699  37.846  13.402
70802W        W39176  37.415  27.519  10.058
70803W        W39177  41.021  40.014   2.700
70804W        W39178  23.547  14.595  11.014
70805W        W39179  30.654  31.990   0.317
70806W        W39180  28.137  36.555  12.882
70807W        W39181  43.800  25.099  11.591
70808W        W39182  43.487  10.339   4.243
70809W        W39183   8.887  21.256  10.906
70810W        W39184  34.988  26.461   0.753
70811W        W39185  36.382  10.196  10.156
70812W        W39186  39.823  36.528  10.618
70813W        W39187   7.296  11.717   3.812
70814W        W39188  42.016   7.273  14.416
70815W        W39189  18.595  44.325   0.865
70816W        W39190  20.614   9.684  12.516
70817W        W39191  41.938  33.590  13.022
70818W        W39192  17.099  32.936  10.587
70819W        W39193   4.892  21.517   2.306
70820W        W39194   7.332  11.634  11.410
70821W        W39195  43.270  43.390  10.641
70822W        W39196  44.386  36.058  14.012
70823W        W39197  26.206  35.035  12.064
70824W        W39198   2.350  38.489  13.411
70825W        W39199   3.352  19.266  12.947
70826W        W39200  19.112   2.837   2.883
70827W        W39201  28.447   1.248  12.887
70828W        W39202  44.400  35.949   0.884
70829W        W39203  29.557  33.621   5.223
70830W        W39204  13.176  34.525  14.976
70831W        W39205  26.661  30.609   2.295
70832W        W39206  31.564  31.628   0.439
70833W        W39207  19.580  22.162  13.844
70834W        W39208   1.940   7.176   3.164
70835W        W39209  31.540  29.167  13.379
70836W        W39210  40.308  12.746  12.076
70837W        W39211  29.089  17.707  10.579
70838W        W39212  27.195  33.392   4.804
70839W        W39213   0.930  11.269  12.930
70840W        W39214  19.704  32.020   1.424
70841W        W39215  13.264   9.814  12.034
70842W        W39216   4.881  24.168  12.086
70843W        W39217   8.756  28.126   3.262
70844W        W39218  12.320  24.608   4.826
70845W        W39219  38.908  29.595  14.865
70846W        W39220  19.192  38.562  14.766
70847W        W39221  39.946  42.963  11.396
70848W        W39222  37.374  42.777   4.162
70849W        W39223   1.468  24.550   3.860
70850W        W39224   5.816   6.387  11.067
70851W        W39225  22.555  18.197  12.073
70852W        W39226  20.617  33.976   0.443
70853W        W39227   4.845  21.187   2.322
70854W        W39228  20.104  37.042  13.899
70855W        W39229  32.977  13.197   4.146
70856W        W39230  38.502   9.736   3.256
70857W        W39231   2.463  12.208   2.868
70858W        W39232  20.660  42.379   4.167
70859W        W39233  41.002  40.856  14.407
70860W        W39234   4.449  12.829   0.440
70861W        W39235   7.318  15.160   3.681
70862W        W39236  13.316  32.093  10.528
70863W        W39237  17.300  33.413   4.187
70864W        W39238  39.553  20.227  10.618
70865W        W39239  20.748  40.319  10.149
70866W        W39240   1.942  37.991  14.839
70867W        W39241   3.341  15.304   3.372
70868W        W39242  26.679   1.250   0.381
70869W        W39243  38.935  38.412  11.956
70870W        W39244   7.417  30.955  14.771
70871W        W39245  33.009   2.302  13.896
70872W        W39246  25.983  32.625  12.469
70873W        W39247   8.702  40.941  12.371
70874W        W39248   1.481  43.923   1.354
70875W        W39249   7.872  34.114  11.062
70876W        W39250  21.550  27.692  11.387
70877W        W39251  18.115  14.809   1.300
70878W        W39252  40.947  22.155   0.376
70879W        W39253   1.259   8.760  13.882
70880W        W39254  13.326   7.252  13.034
70881W        W39255   3.759  34.388  11.083
70882W        W39256  27.510   0.930  12.352
70883W        W39257  32.634  36.526   1.309
70884W        W39258  31.918  37.394  11.478
70885W        W39259   2.917   3.358  14.330
70886W        W39260  32.486  23.128  11.507
70887W        W39261  37.943  12.262   1.325
70888W        W39262  17.792  40.502   1.754
70889W        W39263  40.803   4.876  13.911
70890W        W39264  10.679  32.397  13.886
70891W        W39265  39.858  11.733  10.443
70892W        W39266   5.924  40.504   2.337
70893W        W39267  37.506  37.540   0.297
70894W        W39268  28.579  44.376  12.440
70895W        W39269  36.999  35.941   1.226
70896W        W39270  30.432  40.820  11.592
70897W        W39271  17.211  30.467  12.415
70898W        W39272   8.230  14.592  11.416
70899W        W39273  32.501  31.450  10.508
70900W        W39274  36.440  23.657  12.498
70901W        W39275  26.003   7.396   2.663
70902W        W39276   9.664  17.673   1.216
70903W        W39277  34.887  29.478   1.716
70904W        W39278  42.977  22.087   2.870
70905W        W39279   3.309  13.709   2.868
70906W        W39280  14.329  24.519  14.484
70907W        W39281  41.513  21.736   4.827
70908W        W39282  17.216   7.320  10.417
70909W        W39283  25.038  30.658  11.905
70910W        W39284   3.761   7.240  12.916
70911W        W39285  32.463   7.885  11.911
70912W        W39286   0.423   0.310   1.697
70913W        W39287  21.595  22.632   1.718
70914W        W39288  17.651  25.219   0.257
70915W        W39289  32.923   7.349  13.498
70916W        W39290  19.689  13.105   4.690
70917W        W39291  31.144  37.516   1.718
70918W        W39292  35.596  32.469  11.051
70919W        W39293   7.894  19.639   2.820
70920W        W39294  38.968  32.004  11.566
70921W        W39295   9.372  17.236   2.670
70922W        W39296  23.232  20.072   3.249
70923W        W39297  32.627  22.717   1.212
70924W        W39298  16.274   1.368  11.963
70925W        W39299  12.254   6.377  11.524
70926W        W39300  37.360  12.197   1.784
70927W        W39301  24.691  32.450  10.140
70928W        W39302  15.163  14.758  14.765
70929W        W39303   9.305  27.495   4.623
70930W        W39304  10.212  28.621  13.359
70931W        W39305  22.194  44.871  12.488
70932W        W39306  13.304  12.159   3.865
70933W        W39307  23.014  21.553   0.338
70934W        W39308  44.962  25.580  14.418
70935W        W39309  36.487  16.623   1.838
70936W        W39310  44.383   6.362   5.102
70937W        W39311  24.189  34.569  12.557
70938W        W39312  33.006  33.013   1.353
70939W        W39313  43.970  14.278  11.530
70940W        W39314  33.595   2.952  11.474
70941W        W39315  33.519  27.035  13.817
70942W        W39316   4.802  30.937  14.937
70943W        W39317  21.261  43.997  12.890
70944W        W39318  18.736  13.655  14.281
70945W        W39319  23.027  11.777  11.395
70946W        W39320  23.998   6.336  14.781
70947W        W39321  28.545  23.699   2.674
70948W        W39322  36.520  33.485   0.367
70949W        W39323  27.057   5.312   4.157
70950W        W39324  12.249  16.672  10.522
70951W        W39325  10.776  24.086   2.241
70952W        W39326  22.173  25.125  14.515
70953W        W39327   9.253  39.479   0.911
70954W        W39328  29.150   0.359   4.619
70955W        W39329  21.025  12.341  11.581
70956W        W39330  28.069  35.594   0.739
70957W        W39331  36.490  13.135   4.135
70958W        W39332  20.256   5.774  10.911
70959W        W39333  23.185   4.757  13.347
70960W        W39334  27.033   2.469  12.016
70961W        W39335   7.819  19.586  14.378
70962W        W39336   1.804  43.842  12.396
70963W        W39337  13.794  14.828  13.332
70964W        W39338  13.250  34.889   1.236
70965W        W39339  27.600  18.202   4.181
70966W        W39340  12.335  36.043   4.724
70967W        W39341  44.346  25.467   3.804
70968W        W39342   6.736  37.440  10.129
70969W        W39343  26.994  23.155   0.795
70970W        W39344  16.577  30.655   2.901
70971W        W39345   3.729  42.337  12.386
70972W        W39346   5.365  20.105  10.543
70973W        W39347  16.176  29.548  14.922
70974W        W39348  24.541  41.980  13.433
70975W        W39349  17.290   7.713   0.913
70976W        W39350  31.572  38.556   3.358
70977W        W39351   6.306  40.369  14.770
70978W        W39352   2.730  42.918   2.826
70979W        W39353  15.205  43.440   4.744
70980W        W39354  16.605  43.834  11.996
70981W        W39355  34.398  35.036   4.291
70982W        W39356  21.253  18.070   0.399
70983W        W39357  42.885  35.092   4.673
70984W        W39358  15.672  29.544  11.988
70985W        W39359   9.839  34.492   2.198
70986W        W39360  41.850  25.509  14.414
70987W        W39361   7.184   5.324   5.252
70988W        W39362  24.995   1.465  13.317
70989W        W39363  16.612  12.270  11.049
70990W        W39364  11.265  14.692  11.872
70991W        W39365   6.234  35.885   1.328
70992W        W39366   6.336  14.223  13.064
70993W        W39367  13.282  32.532   4.306
70994W        W39368   8.703  43.816   1.896
70995W        W39369  30.993  34.965   2.218
70996W        W39370  24.224  40.534  10.418
70997W        W39371  34.445  19.594   1.732
70998W        W39372  11.701  17.582  11.573
70999W        W39373   3.292  42.509   2.720
71000W        W39374  24.978  12.153  11.484
71001W        W39375  31.643  17.596  14.843
71002W        W39376   8.257  36.062   4.267
71003W        W39377  22.074  34.490   2.269
71004W        W39378  21.539   6.711  14.018
71005W        W39379  18.755   3.883   2.897
71006W        W39380   6.872   6.316  12.992
71007W        W39381  20.093  30.029  10.581
71008W        W39382   5.418   3.353   0.826
71009W        W39383   3.730   1.735   3.766
71010W        W39384  18.596  43.930  13.382
71011W        W39385  16.253  19.590   0.737
71012W        W39386  31.127  19.280   0.399
71013W        W39387  43.405  34.588   2.853
71014W        W39388  11.179  26.030   1.825
71015W        W39389  33.397   8.362  12.446
71016W        W39390  43.828   1.327   1.293
71017W        W39391   4.897  23.071   2.705
71018W        W39392  25.033   3.761  12.891
71019W        W39393   1.894  26.150  12.370
71020W        W39394   2.434  21.519   2.758
71021W        W39395   5.892  10.375   4.762
71022W        W39396  34.864  24.978   0.917
71023W        W39397   7.186  42.299   0.848
71024W        W39398   9.672  33.551   3.359
71025W        W39399  20.715  30.522   0.366
71026W        W39400  35.095  29.536  12.410
71027W        W39401  44.779  22.150   2.683
71028W        W39402   4.855  11.347   4.182
71029W        W39403  15.228   2.851  14.336
71030W        W39404  13.238  27.034  14.016
71031W        W39405  24.222  37.359   4.769
71032W        W39406  20.095  31.127  13.876
71033W        W39407  28.521  40.036  13.805
71034W        W39408   5.206  38.414   1.396
71035W        W39409   4.428   2.397   4.117
71036W        W39410  40.007  26.618  12.574
71037W        W39411   7.279  29.987  14.911
71038W        W39412  34.425  39.929  11.410
71039W        W39413  44.926   7.222   4.601
71040W        W39414  20.714  19.642   0.869
71041W        W39415  24.513   6.298   0.299
71042W        W39416  22.182  27.969   2.299
71043W        W39417   9.341  13.734  12.877
71044W        W39418   8.215  24.123   1.868
71045W        W39419  23.650  19.152  11.562
71046W        W39420   3.857  39.996   1.697
71047W        W39421  24.697  16.707  11.438
71048W        W39422   2.379  24.658  14.902
71049W        W39423  15.767  19.621  14.872
71050W        W39424  10.697  13.733  14.985
71051W        W39425  29.613  21.186   0.307
71052W        W39426  28.116  22.747  13.309
71053W        W39427   3.295  27.120   0.392
71054W        W39428  25.197  40.993   2.851
71055W        W39429  27.995  42.342   5.648
71056W        W39430   1.770  39.967   4.642
71057W        W39431   7.714  28.601  10.490
71058W        W39432   4.274  35.947   0.858
71059W        W39433  20.266   6.738   1.288
71060W        W39434   6.427  39.010  14.500
71061W        W39435  27.011  21.082   0.318
71062W        W39436   5.389   0.269   3.790
71063W        W39437   2.831  29.621  10.478
71064W        W39438  28.507   2.235  11.493
71065W        W39439  13.791  19.261   1.290
71066W        W39440   0.436  21.677  13.916
71067W        W39441  24.977   1.826   2.275
71068W        W39442   8.865   8.843   3.165
71069W        W39443   4.212   8.841   4.608
71070W        W39444  12.265  10.826   1.287
71071W        W39445   1.790   8.363  11.931
71072W        W39446   2.350   3.373  11.602
71073W        W39447  12.659  24.685   4.333
71074W        W39448  26.014  42.836  12.039
71075W        W39449  25.625  40.487  11.954
71076W        W39450  23.555  26.989  11.867
71077W        W39451  26.581   3.250  10.995
71078W        W39452  30.972   8.163  11.906
71079W        W39453  29.131  17.671  14.969
71080W        W39454   7.173  39.557   2.793
71081W        W39455  25.573  28.680  13.876
71082W        W39456  21.046  22.590  10.550
71083W        W39457  14.824  33.620  13.059
71084W        W39458  20.063  20.231  14.351
71085W        W39459  11.829  29.606  13.462
71086W        W39460  44.358  41.449  14.934
71087W        W39461   5.308  41.008   4.244
71088W        W39462  38.402  22.028   4.637
71089W        W39463  21.125   8.743  14.794
71090W        W39464  35.860  21.093  14.938
71091W        W39465  36.029  40.405  10.408
71092W        W39466  29.052  15.163  11.387
71093W        W39467  31.104   8.667  12.466
71094W        W39468   1.261  10.367  12.007
71095W        W39469  16.212  11.665  14.981
71096W        W39470  33.530   0.437  11.050
71097W        W39471  37.837  28.013   3.712
71098W        W39472  38.958  13.170   0.474
71099W        W39473  12.694   2.813   1.399
71100W        W39474   1.440  41.442  13.835
71101W        W39475  43.830  32.067   2.729
71102W        W39476  36.575  22.196  12.048
71103W        W39477  35.048  11.756  11.919
71104W        W39478  31.556   6.375   1.216
71105W        W39479  39.832   9.665   4.303
71106W        W39480  29.952   9.193  14.813
71107W        W39481  35.479   4.430   4.799
71108W        W39482  35.995  33.409   2.361
71109W        W39483  14.334  28.180  12.895
71110W        W39484  10.230   1.752   4.198
71111W        W39485  41.835  17.296   1.337
71112W        W39486  12.714  25.525  13.959
71113W        W39487  41.294  18.621   3.318
71114W        W39488  25.096  42.314  11.589
71115W        W39489  16.164  29.009  12.842
71116W        W39490   2.771  36.390   2.206
71117W        W39491  25.467  29.633   4.609
71118W        W39492   0.952  10.726   2.287
71119W        W39493   5.267  38.372   2.821
71120W        W39494  23.045  19.761  12.917
71121W        W39495  12.257   9.686  14.516
71122W        W39496  24.652  19.182   1.285
71123W        W39497  40.971   6.355   2.793
71124W        W39498   7.277  25.626  12.437
71125W        W39499  39.402  10.829  10.461
71126W        W39500  32.948  21.202   2.822
71127W        W39501  38.076   3.824  10.591
71128W        W39502  29.114  19.615  11.407
71129W        W39503  44.367  37.877  11.069
71130W        W39504  33.109  40.979  14.891
71131W        W39505  21.550   7.281  14.930
71132W        W39506   6.368  18.647  13.392
71133W        W39507  40.889  36.039   2.886
71134W        W39508  35.572  36.364  14.478
71135W        W39509  16.651  15.312   0.964
71136W        W39510  22.128  20.762  14.765
71137W        W39511   8.350   8.861  11.909
71138W        W39512  17.607  13.129   1.884
71139W        W39513  24.682  37.919  14.313
71140W        W39514  21.556  40.399   9.677
71141W        W39515  16.259   8.876   0.741
71142W        W39516  41.869   5.254  13.883
71143W        W39517  35.939  38.893   2.350
71144W        W39518  36.355   6.887   3.815
71145W        W39519  19.548   2.381   1.724
71146W        W39520   0.862  40.540  10.520
71147W        W39521  19.276  12.662   0.394
71148W        W39522   7.398   3.423   2.284
71149W        W39523  23.613  12.763   4.195
71150W        W39524   7.196  43.402  12.390
71151W        W39525  12.713  16.722   4.640
71152W        W39526   9.784   6.223  13.517
71153W        W39527  23.709  10.221   4.221
71154W        W39528  12.844  42.514  12.495
71155W        W39529  27.964  33.964   3.855
71156W        W39530  34.588  35.053  13.964
71157W        W39531   0.453  18.548   1.898
71158W        W39532  11.151  30.147  14.031
71159W        W39533   9.253   5.364   5.672
71160W        W39534  14.833  36.449   0.372
71161W        W39535  28.641   9.366   2.739
71162W        W39536  36.915   0.785  11.573
71163W        W39537  19.178  20.600  11.085
71164W        W39538  23.496  37.871  14.391
71165W        W39539  28.638  28.026  13.331
71166W        W39540  44.478  21.056   2.240
71167W        W39541  12.288  21.156   4.312
71168W        W39542  26.703  31.918  12.516
71169W        W39543  40.014  36.057  11.383
71170W        W39544   9.758   9.205  14.891
71171W        W39545  11.156  34.604  14.832
71172W        W39546  11.213   9.710   4.121
71173W        W39547  44.927   0.883  11.605
71174W        W39548  44.349  19.607   4.331
71175W        W39549  21.123   8.765  11.412
71176W        W39550  13.200  19.594   1.358
71177W        W39551  31.915   9.265   3.740
71178W        W39552  37.086   8.329   2.338
71179W        W39553  11.314   1.767   3.818
71180W        W39554  25.173  24.981  14.887
71181W        W39555  13.762  11.198   3.708
71182W        W39556  34.523  35.400  11.947
71183W        W39557  38.360  15.139   4.640
71184W        W39558   9.827  23.997  11.375
71185W        W39559   7.777   4.425  11.892
71186W        W39560   0.744  28.023  13.381
71187W        W39561  21.751  22.066   4.826
71188W        W39562  38.383  33.413   1.877
71189W        W39563  27.517  14.313   4.275
71190W        W39564  19.141  20.551   0.331
71191W        W39565  35.043   0.279  13.009
71192W        W39566  23.133  26.028   3.694
71193W        W39567   7.368  40.490   1.826
71194W        W39568  32.438  18.745   0.731
71195W        W39569  44.442  17.213   2.261
71196W        W39570  24.493  27.448  13.323
71197W        W39571  12.286  38.894  14.853
71198W        W39572  44.778  16.153  12.557
71199W        W39573   0.337  25.973   3.870
71200W        W39574   7.781  28.603  12.565
71201W        W39575  21.133  13.762   4.277
71202W        W39576  10.872  23.034  11.999
71203W        W39577  36.055   7.255   1.880
71204W        W39578  22.647   8.306   1.450
71205W        W39579  42.859   3.386   2.405
71206W        W39580   1.921   5.432   3.858
71207W        W39581  17.734  18.600   2.243
71208W        W39582  40.406  22.601   1.805
71209W        W39583  21.609   3.906  13.012
71210W        W39584  21.534  27.029   2.766
71211W        W39585  29.428  23.172  10.475
71212W        W39586  16.170  30.148  10.966
71213W        W39587  44.761  44.342   2.823
71214W        W39588   0.866  38.382  11.098
71215W        W39589  30.466  16.104   4.328
71216W        W39590  42.010  20.176  13.339
71217W        W39591   1.345  32.564   3.269
71218W        W39592  24.555  10.734   3.158
71219W        W39593   3.914  30.149   3.374
71220W        W39594  35.964   0.494  12.513
71221W        W39595  11.801  11.326  13.333
71222W        W39596  20.678   1.756  11.460
71223W        W39597   6.773  44.785  11.864
71224W        W39598  18.649  26.024   2.727
71225W        W39599  19.719  14.275   3.740
71226W        W39600  26.020   4.846  14.871
71227W        W39601  26.614  28.440  10.586
71228W        W39602  14.641  21.564  13.798
71229W        W39603  12.280  15.620  12.955
71230W        W39604  34.538  44.845  14.472
71231W        W39605  11.758  24.185  10.917
71232W        W39606  10.273  26.032  10.044
71233W        W39607  27.123   4.270   2.223
71234W        W39608  13.135   9.183  14.442
71235W        W39609   8.281  40.531  13.803
71236W        W39610   5.247   9.329   4.345
71237W        W39611  23.575  31.055  14.377
71238W        W39612  28.131  12.268  14.462
71239W        W39613  16.585  27.063   4.680
71240W        W39614  14.630  30.087   3.206
71241W        W39615  16.274  17.779  13.893
71242W        W39616  24.509  41.871  14.912
71243W        W39617   2.729  23.670   4.267
71244W        W39618  38.866  35.440   2.181
71245W        W39619  28.503  37.978  12.402
71246W        W39620   6.231  25.107  13.489
71247W        W39621  31.044  17.786   3.315
71248W        W39622   2.778  41.430   2.753
71249W        W39623  30.428  11.243  14.768
71250W        W39624   5.734   1.375   3.229
71251W        W39625   6.729  25.656  13.975
71252W        W39626  34.024  11.846  12.022
71253W        W39627  22.179  35.510   2.319
71254W        W39628  40.398  39.044   3.707
71255W        W39629  40.344  25.571  11.873
71256W        W39630  38.408   4.310   3.725
71257W        W39631  23.169  34.917   2.847
71258W        W39632  41.355  22.118   2.863
71259W        W39633  43.436  30.483   5.243
71260W        W39634  13.136  35.065   1.822
71261W        W39635   5.712  28.972   2.739
71262W        W39636  43.500  18.619  12.932
71263W        W39637  26.179  37.064  13.462
71264W        W39638  35.962   4.755   2.245
71265W        W39639  17.171   0.914  12.496
71266W        W39640  17.098  33.521  13.986
71267W        W39641  15.775  26.153   3.694
71268W        W39642   7.665  19.234   1.448
71269W        W39643  26.064  33.124   1.295
71270W        W39644   3.423  29.109  10.455
71271W        W39645  15.774   9.253   2.831
71272W        W39646  21.698  40.360   3.814
71273W        W39647  21.628  35.400  10.573
71274W        W39648  12.150  43.881  13.367
71275W        W39649  42.331  40.527   1.712
71276W        W39650  17.569  38.428  13.992
71277W        W39651   3.720   8.794   1.316
71278W        W39652   2.372  21.152  10.999
71279W        W39653  20.167  29.501  13.429
71280W        W39654  18.222   1.888  11.496
71281W        W39655  40.399  23.213  11.119
71282W        W39656  28.579  12.688   1.696
71283W        W39657  37.369   4.771   0.856
71284W        W39658   9.334  11.709   1.406
71285W        W39659   2.835  42.462  13.545
71286W        W39660  30.424  14.789  13.886
71287W        W39661  28.053  13.131  12.970
71288W        W39662  39.480  25.144  12.093
71289W        W39663  29.625  30.634  14.808
71290W        W39664  27.002  37.845  12.340
71291W        W39665   2.303  34.596  12.485
71292W        W39666  44.358  12.713  14.907
71293W        W39667  26.193  31.962   1.889
71294W        W39668   5.348  23.590   2.323
71295W        W39669  34.106  26.066  10.419
71296W        W39670  23.537  36.915   3.220
71297W        W39671   5.910   6.763  11.898
71298W        W39672  33.052  16.092   3.762
71299W        W39673  31.130  29.602   3.304
71300W        W39674  17.697  41.801  11.061
71301W        W39675  13.109  26.993  14.412
71302W        W39676  35.508   0.481   0.904
71303W        W39677  23.553  21.526  14.389
71304W        W39678  39.052  19.586  14.784
71305W        W39679  22.525  24.013   3.678
71306W        W39680  12.318  37.894  12.087
71307W        W39681  39.048   0.795  12.843
71308W        W39682  36.491  23.646  13.022
71309W        W39683  39.314  22.666  12.846
71310W        W39684  16.240  10.373   4.327
71311W        W39685  15.688   7.379  13.494
71312W        W39686  42.913   6.425   2.320
71313W        W39687  44.881  31.419  12.507
71314W        W39688   6.404   4.886   4.760
71315W        W39689   5.903  13.318   0.862
71316W        W39690   4.912  36.893  13.967
71317W        W39691  14.804   1.815   4.694
71318W        W39692  13.237  21.227   2.827
71319W        W39693  39.046   6.738  12.538
71320W        W39694  22.194  26.499   1.853
71321W        W39695  27.566  27.590   1.859
71322W        W39696  20.228  27.986   0.474
71323W        W39697  38.478   3.713   1.723
71324W        W39698   1.388  42.360  13.939
71325W        W39699  25.694  14.146  13.842
71326W        W39700  41.901  38.532  13.393
71327W        W39701   1.850  37.889   1.270
71328W        W39702   0.837  22.043  10.518
71329W        W39703  42.381  44.361   0.728
71330W        W39704  12.197   0.418   4.714
71331W        W39705  43.947  10.195   3.352
71332W        W39706  17.605   5.868  11.023
71333W        W39707  18.071  11.749   1.811
71334W        W39708  28.537   4.352   3.185
71335W        W39709  35.891  42.480  14.826
71336W        W39710  19.238  32.580   1.766
71337W        W39711  34.456  27.976  14.846
71338W        W39712  27.460   7.280   1.237
71339W        W39713  20.219   7.685   3.169
71340W        W39714  39.489  42.957  10.989
71341W        W39715  42.807  32.990   2.379
71342W        W39716  20.254   7.689  14.902
71343W        W39717   2.858  16.187   2.722
71344W        W39718  30.960   0.478  13.960
71345W        W39719  20.695  10.221   0.876
71346W        W39720  26.494  24.639   4.613
71347W        W39721   0.421  21.022   1.722
71348W        W39722  16.188  26.174   0.824
71349W        W39723  30.919  29.100   3.352
71350W        W39724   9.389  40.358   2.361
71351W        W39725   0.909  14.713   0.871
71352W        W39726  37.989  25.110   3.373
71353W        W39727  27.505  40.018   0.290
71354W        W39728  34.056   9.712  12.538
71355W        W39729   1.742  41.406   3.681
71356W        W39730  23.702  40.939  14.955
71357W        W39731  30.603  36.953  14.347
71358W        W39732  12.274   3.342   0.273
71359W        W39733  21.256  37.436  14.897
71360W        W39734   1.895  11.230  12.485
71361W        W39735   0.376   2.863  13.990
71362W        W39736   6.746  20.032   5.256
71363W        W39737  12.248   4.836   3.769
71364W        W39738  16.594  22.067   2.898
71365W        W39739  37.888  25.472  11.956
71366W        W39740  22.170  20.198  11.435
71367W        W39741  26.206  34.102   0.952
71368W        W39742  44.344  27.649   4.320
71369W        W39743  40.420   9.196  14.442
71370W        W39744  20.749  22.106  10.417
71371W        W39745   7.188   3.374  13.048
71372W        W39746  12.191  11.157   2.677
71373W        W39747   7.285  26.557   0.308
71374W        W39748  18.190  10.244  13.795
71375W        W39749   4.908   4.710   4.127
71376W        W39750  36.450  35.452  14.860
71377W        W39751  39.922  10.673   1.246
71378W        W39752  22.208  13.746   3.649
71379W        W39753  24.133  31.137   2.256
71380W        W39754  18.199   8.849  10.579
71381W        W39755   4.268  11.680  10.445
71382W        W39756  30.599  10.824  13.871
71383W        W39757  37.344  33.507   3.154
71384W        W39758  35.940   0.280   4.761
71385W        W39759  30.117  28.959  12.898
71386W        W39760  29.021  17.698   1.444
71387W        W39761   4.864  41.848  13.326
71388W        W39762  13.321   4.345  13.501
71389W        W39763  27.012  36.074   3.633
71390W        W39764  37.564  23.551   1.310
71391W        W39765  39.387   5.408  11.463
71392W        W39766  16.219   9.196   4.127
71393W        W39767  20.688  26.954  12.027
71394W        W39768  35.383  41.466   4.210
71395W        W39769   6.841   7.350   2.889
71396W        W39770  34.448  21.165   4.629
71397W        W39771   4.761  10.716   4.652
71398W        W39772  22.721  37.536  13.548
71399W        W39773  38.393  18.234  10.970
71400W        W39774   0.753  31.055   9.996
71401W        W39775  44.293  31.469  13.440
71402W        W39776  20.647  15.579  12.997
71403W        W39777  12.794  41.907  12.075
71404W        W39778  26.179  39.988   0.345
71405W        W39779  27.657  42.306  11.372
71406W        W39780   1.969  24.633   3.712
71407W        W39781  11.264  30.547   2.808
71408W        W39782  34.066  20.620   2.863
71409W        W39783  20.084  22.028  11.413
71410W        W39784   3.215  14.713   2.359
71411W        W39785  38.435  34.990   1.881
71412W        W39786  37.850  15.817  10.075
71413W        W39787   8.676  44.414   2.779
71414W        W39788  20.056  22.746  13.873
71415W        W39789  30.448  19.612   3.287
71416W        W39790  31.558  15.741  13.910
71417W        W39791  44.421  10.144   9.980
71418W        W39792  36.429  13.128   3.773
71419W        W39793   7.285  41.458  11.459
71420W        W39794   8.404   3.930   2.852
71421W        W39795  30.482   9.851   3.281
71422W        W39796  24.487  23.623   4.744
71423W        W39797  21.526  15.604   4.169
71424W        W39798   7.211  24.101   4.115
71425W        W39799  19.042   6.689   0.411
71426W        W39800  36.383   4.897  13.465
71427W        W39801  42.407   1.364  14.003
71428W        W39802  39.933  20.255   2.197
71429W        W39803  13.828  15.323  10.623
71430W        W39804  41.009   9.241  11.995
71431W        W39805  30.139  43.840   2.363
71432W        W39806  24.994  35.046  12.549
71433W        W39807  20.603   8.220   3.822
71434W        W39808  28.184  36.579  10.481
71435W        W39809  17.578  27.112   2.673
71436W        W39810  31.572   0.327  12.553
71437W        W39811   5.230   4.241  14.776
71438W        W39812   9.305  37.853  13.873
71439W        W39813  19.225   7.878  12.564
71440W        W39814  26.077  21.529  14.875
71441W        W39815  24.157  23.547  10.626
71442W        W39816  32.489  23.733   0.349
71443W        W39817  38.531  37.014  10.492
71444W        W39818  14.304  40.936  13.019
71445W        W39819  42.941  27.130   3.358
71446W        W39820   1.412  36.422   1.892
71447W        W39821  27.579  42.826  11.910
71448W        W39822  44.327   8.679   0.482
71449W        W39823  11.738  14.309   2.703
71450W        W39824   9.186  42.938   1.864
71451W        W39825   3.450   8.194   1.771
71452W        W39826  41.298  24.552  14.340
71453W        W39827   4.934  38.353   3.700
71454W        W39828   4.823  43.384   1.376
71455W        W39829  26.505  28.500  14.468
71456W        W39830  16.278  35.108  14.967
71457W        W39831  31.429  14.320  14.378
71458W        W39832  34.608   6.854  12.471
71459W        W39833  27.598  32.481  11.067
71460W        W39834   3.384   8.215  10.571
71461W        W39835  42.441  20.640  13.394
71462W        W39836  29.615  44.941   4.165
71463W        W39837  32.141  31.991   4.685
71464W        W39838  36.868   6.780   9.927
71465W        W39839  21.523  44.973   2.373
71466W        W39840  30.580  26.551   3.313
71467W        W39841  11.212  22.573  12.883
71468W        W39842  15.107  23.120   4.661
71469W        W39843  13.284  12.621  13.541
71470W        W39844  28.131   4.384   4.290
71471W        W39845  40.344  10.307   0.733
71472W        W39846  24.546  25.652   3.226
71473W        W39847  24.125  21.598  14.415
71474W        W39848  37.990   9.647  13.330
71475W        W39849  38.372  15.782  13.488
71476W        W39850  40.483  31.585  14.473
71477W        W39851  32.582  23.654   3.294
71478W        W39852   4.289  20.650   4.827
71479W        W39853  26.114   6.739  10.619
71480W        W39854  14.233  13.200   2.354
71481W        W39855   1.866  13.828  11.026
71482W        W39856  26.102  39.029  13.528
71483W        W39857   8.163  14.711  13.411
71484W        W39858  19.226  41.451  11.395
71485W        W39859   4.357   1.444   4.711
71486W        W39860  44.920   5.823   4.257
71487W        W39861  34.536  22.055  12.487
71488W        W39862   8.844  35.855   2.232
71489W        W39863  12.659  26.050  11.608
71490W        W39864  23.084  20.568  11.432
71491W        W39865  44.478  15.307   4.198
71492W        W39866   8.313  22.155   3.719
71493W        W39867   0.887  30.457   1.426
71494W        W39868  24.047  20.159   1.745
71495W        W39869  26.602  39.830   2.895
71496W        W39870  44.273  29.126  14.277
71497W        W39871   3.718  26.192  11.090
71498W        W39872  13.302  32.519  10.910
71499W        W39873  19.095  17.169   2.798
71500W        W39874  14.818  22.027  14.506
71501W        W39875   6.352   9.241  11.459
71502W        W39876  23.735  29.037   4.181
71503W        W39877  35.876  29.632   3.736
71504W        W39878  14.327   3.839  11.447
71505W        W39879   5.295   1.749   2.406
71506W        W39880   7.827  17.245  14.340
71507W        W39881  21.528  10.835  12.340
71508W        W39882  41.313  34.531  12.033
71509W        W39883  13.780  21.660  13.793
71510W        W39884  10.140  31.518   2.774
71511W        W39885   6.740   2.300  13.852
71512W        W39886  31.086   9.823   1.417
71513W        W39887   1.302  42.527   0.435
71514W        W39888  24.083  27.065   3.375
71515W        W39889  43.499  19.144   4.704
71516W        W39890  40.994  36.898   1.335
71517W        W39891  17.693  44.412   3.708
71518W        W39892  10.640  20.260   5.804
71519W        W39893   8.236  38.955   2.202
71520W        W39894  11.198  20.720   3.236
71521W        W39895  20.224   0.812  12.505
71522W        W39896  44.804  17.662  11.023
71523W        W39897  36.563  41.894  11.123
71524W        W39898  41.295  25.587   0.469
71525W        W39899  30.002  13.137   3.338
71526W        W39900   1.432   4.711  11.540
71527W        W39901  34.436  38.047  12.844
71528W        W39902  25.188  23.530   0.283
71529W        W39903  25.516  10.327   4.648
71530W        W39904  35.971  14.759  13.448
71531W        W39905  36.539  31.911  10.093
71532W        W39906  40.875  43.903   0.454
71533W        W39907  24.522  28.657   4.825
71534W        W39908  22.738  16.592  11.384
71535W        W39909  35.883  44.796  14.031
71536W        W39910  14.293  30.032  10.523
71537W        W39911  44.272  23.571  13.819
71538W        W39912  17.750  22.537   4.286
71539W        W39913  15.643   1.791  14.318
71540W        W39914  29.555  26.962  10.981
71541W        W39915  43.281  24.542  12.877
71542W        W39916  18.735  19.780  10.575
71543W        W39917  37.356  28.081  13.351
71544W        W39918  44.885  13.836  13.352
71545W        W39919  14.269  44.334   4.199
71546W        W39920  38.334  10.265   1.430
71547W        W39921  43.851  14.102   5.307
71548W        W39922   4.715  28.011   0.910
71549W        W39923  26.111  27.984  14.788
71550W        W39924  17.173  31.618   1.394
71551W        W39925   4.878  38.571   0.892
71552W        W39926  43.962  30.547   4.828
71553W        W39927  22.668  34.990  14.401
71554W        W39928  39.045  22.248  13.975
71555W        W39929  17.702  27.968   1.808
71556W        W39930  18.242  13.139   3.810
71557W        W39931   0.381  11.202   0.270
71558W        W39932  18.076  15.800   1.410
71559W        W39933  44.441  44.005  11.499
71560W        W39934  33.088  26.585  13.526
71561W        W39935  22.072   1.873  13.795
71562W        W39936  43.817  32.433   1.265
71563W        W39937  10.694   1.864  14.029
71564W        W39938  36.435  39.014   4.326
71565W        W39939  37.950  14.714  10.639
71566W        W39940  13.798  35.443   3.695
71567W        W39941  20.224  35.054  13.392
71568W        W39942  11.248  26.655  11.951
71569W        W39943  20.611  10.868  14.411
71570W        W39944  26.970  23.159  10.542
71571W        W39945  21.744  44.505   1.854
71572W        W39946  11.247  28.681  12.923
71573W        W39947  35.872  19.616   2.733
71574W        W39948  19.635  23.661   4.338
71575W        W39949   3.710   1.870  14.492
71576W        W39950  34.886  19.646   4.757
71577W        W39951  24.625  23.989  11.383
71578W        W39952   8.657  31.112   5.211
71579W        W39953  14.288  24.210  10.449
71580W        W39954  41.320  29.149  11.102
71581W        W39955  26.064  17.165  14.764
71582W        W39956  18.226  12.231  13.339
71583W        W39957  13.119  33.387   2.218
71584W        W39958  26.550  16.736  14.803
71585W        W39959  22.074  32.600  13.504
71586W        W39960  29.004  36.379  12.947
71587W        W39961   0.488  40.925  14.911
71588W        W39962  42.956  38.022   1.887
71589W        W39963   7.846  44.268   2.804
71590W        W39964  39.977  36.921  11.955
71591W        W39965  15.589  39.473   4.725
71592W        W39966  13.194  22.196  11.094
71593W        W39967  28.172  25.516   4.619
71594W        W39968  40.421  16.206   4.789
71595W        W39969  31.977  18.192   2.788
71596W        W39970  21.192  11.783  13.952
71597W        W39971  13.179  10.665   2.821
71598W        W39972  41.985  11.270  12.024
71599W        W39973  29.035  18.287  13.793
71600W        W39974  15.319  22.207  11.586
71601W        W39975  14.791   1.358   4.649
71602W        W39976   5.293  10.701   1.709
71603W        W39977  44.460  25.488   4.291
71604W        W39978  29.541  15.099  11.031
71605W        W39979   2.426  25.487  11.513
71606W        W39980  24.706  34.085  14.010
71607W        W39981  39.493  21.754  11.413
71608W        W39982  28.980   3.302   3.362
71609W        W39983  40.932  32.417   4.277
71610W        W39984  37.969  31.997   4.344
71611W        W39985  19.045  18.555  10.917
71612W        W39986  26.104  20.653   2.753
71613W        W39987  15.746  19.571  12.921
71614W        W39988  12.244  19.769   2.788
71615W        W39989   9.198   2.465  14.274
71616W        W39990   8.356  17.797   3.770
71617W        W39991  25.687  30.022  14.492
71618W        W39992  36.904   2.955  10.404
71619W        W39993   6.313  16.239   1.325
71620W        W39994  39.031  40.418   1.318
71621W        W39995  24.230  34.053   3.366
71622W        W39996  32.399  31.029   4.626
71623W        W39997  38.062  11.237   3.199
71624W        W39998  21.062  39.547  11.059
71625W        W39999   5.431   9.333   2.368
71626W        W40000  41.418  27.051  12.555
71627W        W40001  13.253  43.990   2.276
71628W        W40002   3.901   3.796   1.285
71629W        W40003  13.706  26.027   3.818
71630W        W40004  31.919  25.480  13.448
71631W        W40005  26.533  10.635  11.539
71632W        W40006  38.487  25.711  11.395
71633W        W40007  44.931  13.219   1.732
71634W        W40008  29.047  29.426   2.677
71635W        W40009  38.838  19.651   1.792
71636W        W40010  11.290  21.113  12.834
71637W        W40011  37.466   8.818  12.369
71638W        W40012  16.233  33.485  11.885
71639W        W40013  11.158  34.398  11.455
71640W        W40014  20.088  35.860  11.539
71641W        W40015  20.568  28.041   2.741
71642W        W40016   0.968  15.095  14.774
71643W        W40017   5.249  41.512  14.964
71644W        W40018  16.664   6.762   4.148
71645W        W40019  27.514  24.206  11.024
71646W        W40020  31.068   9.711   2.857
71647W        W40021  17.666  29.952   3.692
71648W        W40022   5.914  12.242   3.780
71649W        W40023  15.132  44.758  12.074
71650W        W40024  40.951  16.254   2.670
71651W        W40025  17.584  14.236  12.429
71652W        W40026  26.575  28.478   0.784
71653W        W40027  27.621  36.063  13.410
71654W        W40028  28.466  37.407   1.929
71655W        W40029  25.661   3.773   0.845
71656W        W40030  26.018  43.878   5.125
71657W        W40031  15.674  23.996  13.905
71658W        W40032  14.629  44.879  11.528
71659W        W40033  22.101  39.924   0.346
71660W        W40034   3.815  22.683   2.360
71661W        W40035   3.286  39.507  11.376
71662W        W40036  16.629  40.488  13.475
71663W        W40037  41.301  42.304  12.064
71664W        W40038  11.260  31.119   2.307
71665W        W40039  41.468   4.236  11.387
71666W        W40040  12.257  44.833   0.416
71667W        W40041   1.461  26.978   0.466
71668W        W40042  29.164   1.881  12.378
71669W        W40043  28.114  43.487   2.806
71670W        W40044  39.332  43.778   3.261
71671W        W40045  26.187  12.345   0.967
71672W        W40046  27.163   2.304  14.427
71673W        W40047  21.564   1.238   0.471
71674W        W40048   0.408   6.251  13.359
71675W        W40049  19.710  43.436  13.960
71676W        W40050  28.469  21.635   2.700
71677W        W40051  43.948  28.965   1.450
71678W        W40052  28.453  20.616  10.549
71679W        W40053   9.319  41.928   2.664
71680W        W40054   9.299  27.133  12.983
71681W        W40055  38.368   2.830  14.374
71682W        W40056  18.671  28.959   5.128
71683W        W40057  38.024  34.080   2.820
71684W        W40058  30.016  41.949   2.707
71685W        W40059  29.931  29.924   4.621
71686W        W40060  43.830  37.948   0.472
71687W        W40061  39.358  20.239  13.850
71688W        W40062   1.381  23.223   4.804
71689W        W40063  43.901   1.241  13.524
71690W        W40064  35.580  14.765  10.590
71691W        W40065  28.630  11.815  12.916
71692W        W40066  43.475  35.597   3.296
71693W        W40067  12.668  26.500   3.362
71694W        W40068  31.953  44.986  13.971
71695W        W40069  22.089  40.005  10.985
71696W        W40070  13.125  21.210   0.745
71697W        W40071  31.593  29.142   3.363
71698W        W40072  26.976  19.737   3.337
71699W        W40073  36.984  37.913  14.029
71700W        W40074  19.187  37.367   0.375
71701W        W40075  19.563  16.710  11.030
71702W        W40076  42.928  12.268   3.864
71703W        W40077   9.375  32.584  13.337
71704W        W40078  18.282  23.988   2.812
71705W        W40079  16.786  38.541  10.435
71706W        W40080  41.356  42.495   2.252
71707W        W40081  16.231  21.255  13.837
71708W        W40082  39.521  38.429  13.515
71709W        W40083  32.032   2.778  13.349
71710W        W40084  33.975   9.674   4.767
71711W        W40085   0.377   8.870  12.844
71712W        W40086  25.166   8.845   2.774
71713W        W40087   6.680  27.063   9.633
71714W        W40088  39.049  16.606   3.709
71715W        W40089  10.309  29.103  12.087
71716W        W40090  40.958   5.212  10.984
71717W        W40091  28.079  30.637   4.639
71718W        W40092   7.803  22.153  14.462
71719W        W40093   8.745  18.763  12.463
71720W        W40094  24.039  26.699   5.132
71721W        W40095   4.218  29.139  13.485
71722W        W40096   2.368  20.180   2.334
71723W        W40097  23.596  11.742   0.895
71724W        W40098   0.977  14.117   3.214
71725W        W40099  36.962  25.590  12.411
71726W        W40100   6.190  24.514   1.828
71727W        W40101  22.566  38.400  12.538
71728W        W40102  37.445  19.749  13.474
71729W        W40103  41.299  12.714  14.964
71730W        W40104  23.696  39.444   4.270
71731W        W40105  30.139  38.426   1.381
71732W        W40106  40.902  12.147   1.751
71733W        W40107  19.114  10.748   0.259
71734W        W40108  29.011  27.519  12.851
71735W        W40109  26.558   3.885  10.899
71736W        W40110   8.285  38.064  11.067
71737W        W40111   5.273  21.539  10.450
71738W        W40112   0.465   5.316  14.411
71739W        W40113   5.865  34.923  10.924
71740W        W40114  17.133  10.642  11.000
71741W        W40115  37.902  31.124  13.862
71742W        W40116  11.831  32.117  11.912
71743W        W40117   2.328  10.265   1.858
71744W        W40118  14.310  37.019  14.369
71745W        W40119  40.003   8.660   0.269
71746W        W40120   2.351  22.115  10.625
71747W        W40121  43.934  12.143  10.999
71748W        W40122  25.156  11.136   9.931
71749W        W40123  13.320  21.173  13.374
71750W        W40124   4.389  10.223  10.587
71751W        W40125  41.465  40.809  14.477
71752W        W40126  37.456  18.198   3.308
71753W        W40127  26.982  27.079   0.391
71754W        W40128  21.058  15.206  13.979
71755W        W40129  41.957  16.766   2.778
71756W        W40130  18.232  20.250   3.273
71757W        W40131  11.850  19.713   0.909
71758W        W40132  11.263   9.252   3.351
71759W        W40133   3.276   2.229   0.352
71760W        W40134  14.255  15.216  14.501
71761W        W40135   0.983   6.407   4.317
71762W        W40136  31.072  20.081  13.500
71763W        W40137  12.708  39.333  12.833
71764W        W40138   6.767  30.051  14.949
71765W        W40139   8.165  41.421   2.236
71766W        W40140  10.291  43.324   4.640
71767W        W40141  18.708  24.678   2.273
71768W        W40142  14.326  39.025  12.881
71769W        W40143  40.856  11.745   3.716
71770W        W40144  17.227  36.583  13.354
71771W        W40145   1.419  27.026   4.312
71772W        W40146  39.910   1.384  14.467
71773W        W40147   2.402   8.669   1.742
71774W        W40148  39.390  36.509   2.800
71775W        W40149  36.031  13.178  11.068
71776W        W40150  35.359  20.567  13.034
71777W        W40151  22.502  11.659   4.345
71778W        W40152  20.039   2.395  14.774
71779W        W40153  39.553  31.434  10.566
71780W        W40154  31.603  14.130  10.936
71781W        W40155  12.618  31.023   4.348
71782W        W40156  18.588  32.574   0.742
71783W        W40157  42.803  17.583   1.225
71784W        W40158   9.178  16.120   0.292
71785W        W40159  21.101   2.928   4.224
71786W        W40160   5.202  36.550  12.960
71787W        W40161  20.131  28.508   0.395
71788W        W40162  23.629   3.459  12.013
71789W        W40163  18.278  12.729   4.790
71790W        W40164   4.937  43.281   2.187
71791W        W40165  20.131   4.699   1.766
71792W        W40166  14.651  32.425  11.894
71793W        W40167  11.140  16.623  14.510
71794W        W40168  19.681  12.620   1.301
71795W        W40169  39.827  21.638   4.155
71796W        W40170  33.895  10.703   3.349
71797W        W40171  25.488   7.306   1.773
71798W        W40172  44.975  14.812  14.822
71799W        W40173  41.421  29.929   4.204
71800W        W40174  42.282   0.828   4.790
71801W        W40175  43.870  19.129   3.191
71802W        W40176   7.672  44.466  13.524
71803W        W40177  44.471  23.097   2.897
71804W        W40178  14.811  16.771  10.487
71805W        W40179  41.323  12.856  11.600
71806W        W40180   5.711  41.519   1.266
71807W        W40181  22.663   0.780   0.335
71808W        W40182  28.059   3.424  14.860
71809W        W40183  39.033  43.839   1.388
71810W        W40184   2.752  27.171   2.312
71811W        W40185  29.505  22.632   4.261
71812W        W40186   2.851  23.498  12.949
71813W        W40187  14.644  24.165   2.217
71814W        W40188  23.591  11.699   0.432
71815W        W40189   5.858  12.262   3.333
71816W        W40190  37.078  19.200  14.287
71817W        W40191  14.832  40.797   1.403
71818W        W40192  25.567   6.835  12.978
71819W        W40193  26.081  24.147   0.449
71820W        W40194  28.967  43.837  11.120
71821W        W40195   5.822   3.716  13.490
71822W        W40196   3.806   9.235  11.949
71823W        W40197  35.056  21.236  11.896
71824W        W40198  37.541  25.483  14.926
71825W        W40199  35.003  30.117   0.462
71826W        W40200   3.317  23.560   1.880
71827W        W40201  10.382  17.250  13.346
71828W        W40202  34.456  27.485   1.343
71829W        W40203  30.545  35.859  11.504
71830W        W40204  40.409   6.227   0.799
71831W        W40205   7.181  27.975  10.446
71832W        W40206   4.799  43.983  13.538
71833W        W40207  41.013  13.286   1.776
71834W        W40208  39.401  35.994  11.977
71835W        W40209  39.006  33.610  14.873
71836W        W40210  26.155  32.518  10.551
71837W        W40211  17.156  43.338   4.838
71838W        W40212  25.216   1.270   0.444
71839W        W40213  40.856  12.282  11.564
71840W        W40214  40.042  24.099  12.467
71841W        W40215  33.087  18.264  11.989
71842W        W40216  26.955  32.527   0.920
71843W        W40217  44.875  16.305  11.415
71844W        W40218   4.403  17.579   3.329
71845W        W40219  35.524   3.855  10.414
71846W        W40220  29.575  42.913   5.148
71847W        W40221  38.993  30.514  10.571
71848W        W40222  33.422  10.331   3.791
71849W        W40223   0.900  38.893   2.302
71850W        W40224  32.997   5.341  12.056
71851W        W40225  41.494  14.660   4.267
71852W        W40226  33.435  31.642  12.859
71853W        W40227  10.257  22.617  12.836
71854W        W40228  21.525  30.958  10.604
71855W        W40229  26.097  25.501  14.871
71856W        W40230   6.879  23.537  12.374
71857W        W40231  19.210  34.506  13.925
71858W        W40232  24.065  42.506   1.712
71859W        W40233   4.370  18.123   3.281
71860W        W40234  33.483  26.655   0.435
71861W        W40235  17.242   7.729  14.937
71862W        W40236   4.428  19.057  12.400
71863W        W40237   9.314  37.448  12.894
71864W        W40238  30.995  14.306   5.177
71865W        W40239  15.580   6.750   4.815
71866W        W40240  14.291  37.577   0.762
71867W        W40241  13.311  36.926   0.332
71868W        W40242   5.784  40.351  12.996
71869W        W40243  41.798  22.741   0.260
71870W        W40244  31.025  18.585  12.423
71871W        W40245  31.923  28.552   2.805
71872W        W40246  42.809  20.222  10.424
71873W        W40247  31.583  27.104   1.915
71874W        W40248   1.889  43.805  13.416
71875W        W40249  11.198  42.426   1.838
71876W        W40250   4.278  10.164  11.430
71877W        W40251  25.038   2.954  10.579
71878W        W40252   3.267   8.757   0.738
71879W        W40253  31.984  24.094  11.120
71880W        W40254  44.873  28.042  10.417
71881W        W40255  44.488   8.775  10.631
71882W        W40256  40.921  17.170  10.413
71883W        W40257  33.926  23.082  14.483
71884W        W40258  43.840   5.348   1.849
71885W        W40259   2.852  28.577  11.503
71886W        W40260  33.597   5.692  12.861
71887W        W40261  18.757  30.440   3.691
71888W        W40262  18.599  10.257   4.259
71889W        W40263  35.421  11.193   2.798
71890W        W40264  25.062  33.458  14.759
71891W        W40265   6.843  41.907   1.434
71892W        W40266  26.147  38.482  11.494
71893W        W40267  36.490  34.996  12.480
71894W        W40268  32.634   0.436   4.719
71895W        W40269  30.618  41.927   0.850
71896W        W40270   8.187  23.653   5.583
71897W        W40271   2.955  15.695  12.517
71898W        W40272   0.416  39.900   2.247
71899W        W40273  12.709  44.008  14.414
71900W        W40274  33.971  34.445  11.871
71901W        W40275  18.211  33.955  14.423
71902W        W40276   2.307   7.369  11.453
71903W        W40277  18.649  22.737  10.935
71904W        W40278  31.998   3.332   0.433
71905W        W40279  14.696   8.765   0.352
71906W        W40280  23.070   4.876   2.311
71907W        W40281  27.546   1.358  11.066
71908W        W40282  41.453  42.834   2.252
71909W        W40283  10.187  32.596  13.437
71910W        W40284  11.178  25.150  11.562
71911W        W40285  31.909  20.184   0.805
71912W        W40286  37.059  34.539  14.430
71913W        W40287  44.278  11.142  12.399
71914W        W40288  38.980  28.146  14.024
71915W        W40289  44.774  26.044  11.968
71916W        W40290  33.988  31.945   0.303
71917W        W40291   8.867   6.689  12.940
71918W        W40292  27.186  38.379  10.935
71919W        W40293   3.416   9.790  14.344
71920W        W40294  24.661  20.274  11.555
71921W        W40295  42.441  15.144   1.372
71922W        W40296   6.729   4.323  12.868
71923W        W40297   1.372   0.908   0.269
71924W        W40298  13.201  15.098   1.389
71925W        W40299  10.320  34.545   2.684
71926W        W40300   3.819  42.858  11.932
71927W        W40301  40.910  27.194  11.586
71928W        W40302  41.800  15.742  12.485
71929W        W40303   7.366  22.680  14.857
71930W        W40304   6.403  25.531  12.446
71931W        W40305  27.192  35.601   4.709
71932W        W40306  42.900  41.846  14.848
71933W        W40307   7.678  37.563   1.275
71934W        W40308   5.364  24.596  13.976
71935W        W40309  28.001  42.909   1.437
71936W        W40310  26.512   8.230   2.706
71937W        W40311  21.083  33.104  11.968
71938W        W40312  30.464  28.655  12.579
71939W        W40313   1.385   6.236  12.435
71940W        W40314  28.149   3.736  12.550
71941W        W40315  14.734  38.374  14.401
71942W        W40316  34.404   8.768  14.776
71943W        W40317   9.248  36.013  14.768
71944W        W40318  16.788  36.899  10.415
71945W        W40319  42.505  39.482  13.883
71946W        W40320   4.273  23.133   3.787
71947W        W40321  14.792   7.727   2.820
71948W        W40322  16.777   7.328  12.393
71949W        W40323  16.714  24.141   0.904
71950W        W40324  43.948  19.107   4.722
71951W        W40325  13.130  19.566   1.717
71952W        W40326  41.927  23.598  13.853
71953W        W40327   9.831  32.604  11.991
71954W        W40328  29.469  37.911   0.249
71955W        W40329  27.073  16.645   1.270
71956W        W40330  10.711  15.137   3.252
71957W        W40331  31.057  36.998   1.812
71958W        W40332  23.524  33.463  11.113
71959W        W40333  11.652  39.442   4.751
71960W        W40334  28.022  44.471   9.967
71961W        W40335  16.193  24.032  11.505
71962W        W40336   2.309  22.542   3.320
71963W        W40337  43.884  33.533  14.014
71964W        W40338  35.920   4.782   2.748
71965W        W40339  32.894  30.476   3.238
71966W        W40340  21.043   4.841  10.459
71967W        W40341  39.334  42.019  12.036
71968W        W40342  26.048  37.461   3.688
71969W        W40343  42.430  14.218  11.447
71970W        W40344  19.727  43.841   4.755
71971W        W40345  43.361   1.327   2.267
71972W        W40346  37.440  12.298  14.983
71973W        W40347  10.787  41.330   4.271
71974W        W40348  31.988  29.156  12.001
71975W        W40349  19.638  30.598   1.777
71976W        W40350  41.790  39.496  12.868
71977W        W40351  39.927  21.714   0.477
71978W        W40352   0.364  22.535  11.497
71979W        W40353   8.271  37.543   0.325
71980W        W40354  40.923   1.776   4.611
71981W        W40355   4.229  21.039   1.256
71982W        W40356  31.036  36.917  12.918
71983W        W40357  26.204  40.942   4.331
71984W        W40358   8.784   7.365   0.921
71985W        W40359  27.539  41.947  14.374
71986W        W40360  37.418  15.658  13.525
71987W        W40361  26.141  27.623  12.877
71988W        W40362  24.037  35.474  12.998
71989W        W40363  30.548  39.354  13.543
71990W        W40364   4.875  19.632   4.119
71991W        W40365  14.275  34.019   4.305
71992W        W40366  12.786  16.220   3.257
71993W        W40367   7.871  25.032   1.439
71994W        W40368  23.491  31.046   1.805
71995W        W40369  33.451  14.812  13.457
71996W        W40370  43.379  23.554   4.708
71997W        W40371  42.355  33.990   4.238
71998W        W40372  44.380   1.464   0.270
71999W        W40373  22.212  19.252  12.892
72000W        W40374   6.835  15.291   3.755
72001W        W40375  13.153  39.365  10.594
72002W        W40376  12.178   2.930   0.423
72003W        W40377  21.040  41.786   0.275
72004W        W40378  36.520  10.750   2.249
72005W        W40379  20.619   2.805   2.311
72006W        W40380  39.832  24.616  12.037
72007W        W40381  13.807   5.391  10.917
72008W        W40382  35.433  20.265  14.759
72009W        W40383  43.479   6.237   3.682
72010W        W40384  43.822  32.897   4.333
72011W        W40385  29.482  20.031  13.891
72012W        W40386   4.280  23.169  13.307
72013W        W40387  30.579  35.883  13.360
72014W        W40388   2.385   6.681   1.794
72015W        W40389  39.338  15.652   4.640
72016W        W40390  20.264  12.693  11.864
72017W        W40391  38.993   3.839  13.356
72018W        W40392  33.039  29.635  12.831
72019W        W40393  39.994  30.563   3.161
72020W        W40394  20.084  26.644  12.415
72021W        W40395  14.310  44.349   2.402
72022W        W40396  30.448  26.522   2.257
72023W        W40397  13.214   4.859   1.391
72024W        W40398  42.004  38.964  14.877
72025W        W40399  19.715  41.855  11.514
72026W        W40400   7.731  19.576  10.974
72027W        W40401  27.195   9.305   1.392
72028W        W40402  39.843   8.167  12.484
72029W        W40403  18.133  28.078   3.710
72030W        W40404  15.788  41.869  10.501
72031W        W40405  16.788   0.271   0.923
72032W        W40406  16.194  38.365  13.424
72033W        W40407   0.891   8.665   1.709
72034W        W40408  21.692  23.072  12.387
72035W        W40409  11.181  12.347   1.337
72036W        W40410  26.539  29.451  12.498
72037W        W40411   9.222  11.368  14.865
72038W        W40412   2.837  10.817   2.302
72039W        W40413  19.561  39.338   2.187
72040W        W40414   4.228  29.617  11.062
72041W        W40415  32.079   4.324  10.908
72042W        W40416  34.863  20.608   4.720
72043W        W40417   0.785  37.077  14.785
72044W        W40418  19.218  16.143   1.290
72045W        W40419   0.283   3.290  11.096
72046W        W40420  15.766  12.359  11.922
72047W        W40421  38.010  27.962   0.810
72048W        W40422  43.429  18.763  11.460
72049W        W40423   2.232  41.500  11.510
72050W        W40424  11.182  10.734   1.719
72051W        W40425  33.533   7.873  14.998
72052W        W40426  11.718   9.269   3.339
72053W        W40427  12.642  23.696   2.780
72054W        W40428  38.066  17.149   4.259
72055W        W40429  42.487   3.732   3.798
72056W        W40430   6.234  43.294  14.440
72057W        W40431   3.881  36.446   2.346
72058W        W40432  40.918   0.427  11.435
72059W        W40433  37.874  38.931  14.440
72060W        W40434  20.042  36.425   0.844
72061W        W40435  22.595   3.933   4.664
72062W        W40436   7.373   3.936   5.254
72063W        W40437  40.459   7.171  11.420
72064W        W40438   5.865  13.689  14.432
72065W        W40439  28.449  26.026   1.761
72066W        W40440  11.867   0.846   1.369
72067W        W40441  29.172   2.851   4.697
72068W        W40442  11.642  40.887   3.716
72069W        W40443  31.578  22.065   3.847
72070W        W40444  14.191  20.649   3.259
72071W        W40445  10.736  11.855  10.976
72072W        W40446   6.738  35.504   4.227
72073W        W40447  31.142  26.524  12.343
72074W        W40448  42.439  19.668   3.315
72075W        W40449   0.792  31.986   3.230
72076W        W40450  30.040   6.390   1.335
72077W        W40451  18.058  12.815   1.884
72078W        W40452   6.343  39.942   0.866
72079W        W40453  29.062  22.203   2.390
72080W        W40454   8.714  25.214   3.861
72081W        W40455  20.165  40.341   3.334
72082W        W40456  23.077  30.586   0.325
72083W        W40457  30.136  40.544  12.921
72084W        W40458  22.546  16.582   2.369
72085W        W40459  10.660  26.003   3.317
72086W        W40460  16.115  14.664  11.386
72087W        W40461  21.101  11.335  14.002
72088W        W40462  14.757  24.165  14.288
72089W        W40463  14.110  44.485  14.924
72090W        W40464  33.450   7.327   2.292
72091W        W40465  11.864  40.379   1.755
72092W        W40466  23.237   5.742   2.796
72093W        W40467  19.753  21.592  11.396
72094W        W40468  28.567   6.347  11.465
72095W        W40469  25.675  39.548  13.418
72096W        W40470  32.997  34.588   3.687
72097W        W40471  23.213  28.536   9.672
72098W        W40472  18.704  10.795  14.773
72099W        W40473  25.529   4.844   2.253
72100W        W40474  13.351  32.433   2.257
72101W        W40475   7.875  19.616   0.859
72102W        W40476  44.373  26.611  10.984
72103W        W40477  13.140   5.293   0.386
72104W        W40478   0.808  42.524  10.470
72105W        W40479  30.084   3.390  14.005
72106W        W40480  41.538  36.093  10.895
72107W        W40481  25.010  41.040  10.947
72108W        W40482  25.710  13.750   1.230
72109W        W40483  42.418  20.527  12.874
72110W        W40484  23.674  22.661  11.575
72111W        W40485  29.095  41.890   3.329
72112W        W40486   1.285  39.488   1.854
72113W        W40487  25.638  23.498  10.471
72114W        W40488  36.988  16.661  12.038
72115W        W40489  21.681  23.213   3.221
72116W        W40490   7.414   8.715  14.463
72117W        W40491  14.782  17.142   5.167
72118W        W40492  22.593  20.123  10.921
72119W        W40493   2.872  27.488  10.593
72120W        W40494  10.266  24.570   3.242
72121W        W40495  44.470   4.218   2.271
72122W        W40496  21.661  25.173  12.058
72123W        W40497  21.520  32.583  12.058
72124W        W40498  42.326   5.917   3.765
72125W        W40499  23.705   5.768  13.409
72126W        W40500  11.662  16.280  10.592
72127W        W40501  33.115  20.737   2.365
72128W        W40502  35.377   8.387   2.330
72129W        W40503  25.523  38.467   1.726
72130W        W40504  32.000  29.958  12.984
72131W        W40505   0.479  40.424   1.379
72132W        W40506  37.018  32.913  11.606
72133W        W40507  43.497  28.087  12.079
72134W        W40508   6.763  11.250  12.076
72135W        W40509   4.842  25.188  12.562
72136W        W40510  14.211  28.976  14.401
72137W        W40511  35.041  24.116  13.033
72138W        W40512  20.144  19.638  11.022
72139W        W40513   3.256  39.060   2.208
72140W        W40514  32.463   2.945   0.278
72141W        W40515  17.687   8.729   5.151
72142W        W40516  35.935  20.708   4.248
72143W        W40517  38.408  23.732   4.815
72144W        W40518  17.280  20.608  11.585
72145W        W40519  16.712  25.705   1.359
72146W        W40520  30.481  31.916   2.216
72147W        W40521  32.392  28.460  11.861
72148W        W40522  18.257   7.774  11.574
72149W        W40523   5.858   2.260  14.940
72150W        W40524   3.752  44.299   1.420
72151W        W40525  23.579  15.144   4.195
72152W        W40526  24.495  42.335   0.291
72153W        W40527  20.604  11.316   4.656
72154W        W40528   6.264  10.815  14.942
72155W        W40529  23.512   6.785   1.299
72156W        W40530  33.614  18.728   0.433
72157W        W40531  32.551  43.445  11.467
72158W        W40532  28.582  42.454   9.946
72159W        W40533  29.495  41.382  14.494
72160W        W40534   3.267  34.865   4.670
72161W        W40535   1.294   8.263   2.243
72162W        W40536   0.427   2.421   2.337
72163W        W40537  36.905  32.565   2.708
72164W        W40538  10.789  38.511  12.033
72165W        W40539  26.464  37.537  14.516
72166W        W40540  42.981  11.816  12.339
72167W        W40541  24.714   8.836  14.397
72168W        W40542  16.701  14.191  13.844
72169W        W40543  33.880  34.461  14.478
72170W        W40544  41.977  35.572   0.284
72171W        W40545  29.457  13.785  10.529
72172W        W40546  36.958  41.437  13.949
72173W        W40547   5.870  26.580  11.970
72174W        W40548  19.259  37.019  12.420
72175W        W40549  30.444  21.088  14.429
72176W        W40550  18.185  18.592  11.948
72177W        W40551  20.726   4.375  12.068
72178W        W40552  12.720  28.577  12.531
72179W        W40553  18.239  21.715  14.979
72180W        W40554  43.975   4.300   1.426
72181W        W40555  29.962  28.120  11.005
72182W        W40556  44.427  25.680   0.242
72183W        W40557   9.779  38.842   1.411
72184W        W40558  13.214  19.120  10.938
72185W        W40559   0.414  39.958   1.360
72186W        W40560  31.532  10.142  13.959
72187W        W40561  17.195   4.788   4.824
72188W        W40562  11.626   3.314   1.904
72189W        W40563  41.883  42.826  13.310
72190W        W40564  39.939  13.681  12.900
72191W        W40565  26.050  19.623   4.269
72192W        W40566  13.675  13.247   0.897
72193W        W40567  13.311   0.902   1.420
72194W        W40568  44.954  12.657   4.319
72195W        W40569   5.903  25.547   1.362
72196W        W40570  13.114  28.929   2.388
72197W        W40571  12.264  24.562  12.493
72198W        W40572  36.982  44.965  10.607
72199W        W40573  15.087   7.268   4.759
72200W        W40574  12.830  15.755   2.272
72201W        W40575  18.185  18.178   0.949
72202W        W40576   5.838  14.173   2.741
72203W        W40577  40.946  22.062   4.617
72204W        W40578  37.019  42.395  13.434
72205W        W40579  29.041  42.514  11.908
72206W        W40580   0.371  33.019  14.927
72207W        W40581  34.527  15.132   3.862
72208W        W40582  15.284  14.771   3.745
72209W        W40583  41.967  32.003  13.527
72210W        W40584  32.532  19.564   1.251
72211W        W40585  26.125   1.350   0.265
72212W        W40586   3.899  38.484  13.437
72213W        W40587  24.493  40.007  13.907
72214W        W40588  20.576   7.847  10.609
72215W        W40589  42.284  14.160  10.485
72216W        W40590  14.315   0.478  13.016
72217W        W40591   9.775  26.614   0.286
72218W        W40592  20.064  14.299   3.294
72219W        W40593   7.862  17.714   0.404
72220W        W40594   7.801  17.135   4.699
72221W        W40595  43.363  19.195  10.597
72222W        W40596  34.006  24.065  11.968
72223W        W40597  43.479  40.022  11.016
72224W        W40598  34.970  30.503  14.303
72225W        W40599  33.502  42.524  13.365
72226W        W40600   2.856  43.993  13.016
72227W        W40601  34.988  21.609   4.151
72228W        W40602  21.542   3.910   2.371
72229W        W40603  16.095   9.749   0.314
72230W        W40604   0.843  42.417  12.891
72231W        W40605  32.506  28.673   3.725
72232W        W40606  31.041  15.284  11.569
72233W        W40607  36.382  25.997   2.898
72234W        W40608  43.463  14.610  14.019
72235W        W40609   5.823  16.693  12.557
72236W        W40610   3.345  13.252   2.706
72237W        W40611   5.842   6.273   3.300
72238W        W40612  26.595  26.068  13.346
72239W        W40613  37.532  24.072   2.831
72240W        W40614  32.926  34.919  10.926
72241W        W40615   4.739   3.944  11.599
72242W        W40616  44.945  24.150   2.698
72243W        W40617  23.642   3.355   2.279
72244W        W40618  24.591  44.360  14.840
72245W        W40619  32.097  29.548  12.829
72246W        W40620  34.082  34.599  10.967
72247W        W40621  27.999   8.263   4.120
72248W        W40622  29.473  15.203  13.040
72249W        W40623   7.396  30.481  11.377
72250W        W40624  44.825   5.699  12.961
72251W        W40625  28.985  22.249  14.451
72252W        W40626   3.246  27.133   1.353
72253W        W40627   1.907  26.564  11.024
72254W        W40628  40.894   5.305   2.307
72255W        W40629  41.411  28.629  10.605
72256W        W40630  36.483  43.858  13.506
72257W        W40631   8.791  40.981   1.765
72258W        W40632  32.950   8.665   4.116
72259W        W40633  29.550  27.621   4.627
72260W        W40634  41.809  32.949  14.389
72261W        W40635  31.986   1.327  11.570
72262W        W40636   0.859  36.414   3.734
72263W        W40637  32.022  26.570  12.989
72264W        W40638  32.953  27.100  10.466
72265W        W40639   0.823  21.135   1.831
72266W        W40640  23.076   7.361  14.991
72267W        W40641  32.086  33.030  13.900
72268W        W40642   8.700  19.169  14.472
72269W        W40643  43.495  39.405   4.784
72270W        W40644  27.108   8.872  13.536
72271W        W40645  21.741   3.426   4.806
72272W        W40646  33.004  35.949   3.229
72273W        W40647  32.620  28.109   9.994
72274W        W40648  23.168  31.905   2.415
72275W        W40649  35.103   5.778   2.755
72276W        W40650  36.891   6.335  13.385
72277W        W40651   7.374  27.446  10.049
72278W        W40652   3.953  21.626   0.287
72279W        W40653   4.369   0.791   4.740
72280W        W40654   6.192  32.590   3.366
72281W        W40655  24.656   6.199  14.514
72282W        W40656  28.130   2.298   0.922
72283W        W40657  20.144  13.169  11.995
72284W        W40658  28.671   0.894  14.779
72285W        W40659  41.988  38.828  13.410
72286W        W40660   7.307  33.965   0.469
72287W        W40661  34.513  26.634   0.781
72288W        W40662   5.909  26.971   2.278
72289W        W40663  13.118  32.112  11.458
72290W        W40664  27.646  31.053   4.645
72291W        W40665  16.770  18.120   1.387
72292W        W40666  18.787  18.186   0.761
72293W        W40667  21.211  21.096   9.962
72294W        W40668   7.887  20.215   2.733
72295W        W40669  17.588  42.306   3.810
72296W        W40670  41.343  41.528  14.877
72297W        W40671  12.346   7.797  13.385
72298W        W40672   3.343   3.224   1.902
72299W        W40673   1.257  18.763   2.340
72300W        W40674  28.134  40.900  12.531
72301W        W40675  41.527  18.288   2.224
72302W        W40676  39.848  17.174  13.393
72303W        W40677  28.948  32.041  11.421
72304W        W40678  27.528   7.337  14.282
72305W        W40679  26.675  35.429   3.708
72306W        W40680  31.929  37.050   3.699
72307W        W40681  19.768  29.976   1.397
72308W        W40682  39.497  15.236  12.036
72309W        W40683  25.975  25.636   2.395
72310W        W40684  36.922   6.753   0.802
72311W        W40685  36.015  31.436  12.444
72312W        W40686  27.151  29.091   2.249
72313W        W40687  10.295  14.124  14.857
72314W        W40688   8.364  31.100   4.761
72315W        W40689  34.023  19.684   1.705
72316W        W40690  23.057  43.015  13.477
72317W        W40691  31.991  30.469   4.809
72318W        W40692  33.047  10.149   1.290
72319W        W40693  31.576  19.116  10.552
72320W        W40694  42.027  39.494   0.735
72321W        W40695   9.673  31.407   2.672
72322W        W40696  23.098  33.399  12.882
72323W        W40697  31.622  18.286   1.233
72324W        W40698  18.061  26.971  13.875
72325W        W40699  38.902  34.962   3.193
72326W        W40700  16.117   2.853  10.519
72327W        W40701  33.060  11.700   3.208
72328W        W40702  14.789  32.945   0.731
72329W        W40703  15.309   9.366  10.059
72330W        W40704  12.145   3.326  14.470
72331W        W40705  37.359  26.074   3.734
72332W        W40706   2.792  33.504  11.399
72333W        W40707  40.442  27.566   3.214
72334W        W40708  21.521   2.827  12.572
72335W        W40709   9.394  20.608  12.363
72336W        W40710   9.720  32.141   2.371
72337W        W40711  27.180  18.737  11.100
72338W        W40712  21.145   7.371  10.051
72339W        W40713  31.917  21.551  10.460
72340W        W40714  42.438  23.624  11.471
72341W        W40715  41.974  39.841  14.902
72342W        W40716   4.426  27.651   3.761
72343W        W40717  40.360  30.157   3.804
72344W        W40718  21.238  38.020   2.836
72345W        W40719  10.730  36.870   2.809
72346W        W40720  35.476  36.002  11.531
72347W        W40721  32.913  44.950   1.771
72348W        W40722   3.383  36.940  13.009
72349W        W40723  11.325  38.558  11.877
72350W        W40724   6.406  21.583  10.969
72351W        W40725   3.294  37.917   2.219
72352W        W40726  34.951   3.324   5.317
72353W        W40727  10.868  33.118  12.052
72354W        W40728  11.637  43.358   2.670
72355W        W40729   9.305  40.006  13.462
72356W        W40730  19.232  30.419  12.007
72357W        W40731  39.933   3.434   3.382
72358W        W40732  36.590  22.146   1.709
72359W        W40733  24.107   9.267  12.085
72360W        W40734  42.474  24.572   1.701
72361W        W40735  34.032  11.659  11.448
72362W        W40736   9.673  29.921   3.179
72363W        W40737  40.325   9.244  12.935
72364W        W40738  29.011   7.887   2.866
72365W        W40739   5.339  23.225  11.451
72366W        W40740  28.071  38.974   0.348
72367W        W40741  18.607  38.997   0.323
72368W        W40742  41.443   3.760  11.101
72369W        W40743  39.987  15.607   1.918
72370W        W40744  25.551  24.178  12.349
72371W        W40745  18.619  39.558  14.347
72372W        W40746  22.572   9.293   1.292
72373W        W40747  27.985  34.004  10.962
72374W        W40748  26.544  27.522   2.209
72375W        W40749  32.518  35.003   4.313
72376W        W40750  30.101  44.849  14.506
72377W        W40751   9.647   1.762   0.738
72378W        W40752  10.690  14.605   4.118
72379W        W40753  14.339  38.970   4.806
72380W        W40754  17.691  26.059   1.775
72381W        W40755  34.051  44.293  13.361
72382W        W40756  40.505  10.811   3.324
72383W        W40757  27.062  30.615   1.815
72384W        W40758   6.348  18.747  13.995
72385W        W40759   3.886  12.649  10.974
72386W        W40760   2.894  36.372   4.613
72387W        W40761  12.691   8.660  12.834
72388W        W40762  30.991  24.546   4.164
72389W        W40763  28.445  13.327  11.008
72390W        W40764  22.129  27.675   3.240
72391W        W40765  30.095  39.906  12.407
72392W        W40766   5.895  28.060   2.271
72393W        W40767  28.029  33.991  13.906
72394W        W40768  27.150  40.999  13.918
72395W        W40769  27.148  21.251   4.273
72396W        W40770  23.529  36.469  10.978
72397W        W40771  40.367  38.949   4.220
72398W        W40772  36.885  36.557   0.291
72399W        W40773   6.773  15.707  11.034
72400W        W40774   1.411  34.067   4.282
72401W        W40775  28.060  16.110   3.645
72402W        W40776  19.554  38.941  10.888
72403W        W40777  28.533   3.944  14.416
72404W        W40778  34.612  44.449  13.351
72405W        W40779  12.149  21.660  13.356
72406W        W40780  41.889   1.930   1.380
72407W        W40781  32.908  24.500   0.402
72408W        W40782  13.807   3.820   3.155
72409W        W40783  17.644  24.085  10.941
72410W        W40784  20.097   8.734   0.454
72411W        W40785  13.147  24.119  12.561
72412W        W40786  44.766  30.144   4.226
72413W        W40787   6.886   3.323   2.741
72414W        W40788   9.815   6.318  12.051
72415W        W40789  34.550  43.868   3.862
72416W        W40790  22.541  29.444  14.313
72417W        W40791  37.336   8.277  12.378
72418W        W40792  39.889   0.484  14.396
72419W        W40793   6.797  40.942  10.990
72420W        W40794  32.959  18.164  11.503
72421W        W40795   6.871   1.385  13.059
72422W        W40796  35.397  31.950  13.866
72423W        W40797  17.200  44.918   0.379
72424W        W40798   7.274  35.956   4.668
72425W        W40799  13.704  42.004  11.388
72426W        W40800  40.315  33.945  10.405
72427W        W40801  29.584  43.286   5.139
72428W        W40802  28.155  23.013  12.552
72429W        W40803  27.528  17.209   1.781
72430W        W40804  34.615  15.713  10.516
72431W        W40805   7.408  35.361  11.003
72432W        W40806  22.136  31.627  14.030
72433W        W40807   8.365  24.522  11.496
72434W        W40808  27.574  22.641   4.341
72435W        W40809  24.604   4.874  14.916
72436W        W40810  11.370  11.310  14.968
72437W        W40811  22.094  29.004  11.119
72438W        W40812  13.287  38.502  12.535
72439W        W40813  34.876  40.910   1.263
72440W        W40814  37.982   3.885   2.363
72441W        W40815  25.993  20.186  14.760
72442W        W40816  42.354  37.863  14.893
72443W        W40817  20.177   8.403  12.005
72444W        W40818  26.147  42.943   1.363
72445W        W40819  35.478   6.185  12.544
72446W        W40820   7.818  16.120  10.995
72447W        W40821  12.188  30.119   4.286
72448W        W40822  38.457  31.958   0.882
72449W        W40823  30.952  42.453  13.541
72450W        W40824  23.721  35.888   1.924
72451W        W40825  25.516   4.256  13.413
72452W        W40826  14.190  32.576   2.713
72453W        W40827  35.537   3.836   1.766
72454W        W40828   8.390  23.193  11.563
72455W        W40829   3.807  26.137   4.717
72456W        W40830  15.777  17.272   4.642
72457W        W40831   1.816  36.437   3.831
72458W        W40832  29.996  31.151   2.198
72459W        W40833  17.249  13.681   1.797
72460W        W40834  35.891  39.929   4.145
72461W        W40835  39.325  11.776  12.007
72462W        W40836  15.194   8.697  11.412
72463W        W40837  30.432   6.188   2.303
72464W        W40838  27.999  38.950   4.189
72465W        W40839  14.188  38.910   2.335
72466W        W40840   7.877  22.999   0.476
72467W        W40841   2.936  18.200  12.492
72468W        W40842   4.214  23.238   1.327
72469W        W40843  15.801  40.305   3.334
72470W        W40844  13.207  14.830   0.915
72471W        W40845  44.393  13.830  12.559
72472W        W40846  38.571  36.563  11.073
72473W        W40847  15.821  16.609   2.695
72474W        W40848  26.028  19.673  11.967
72475W        W40849  24.565  44.808  11.971
72476W        W40850  25.591  44.288   1.431
72477W        W40851   6.272  29.466   9.498
72478W        W40852  13.232  39.812   2.847
72479W        W40853   2.419  14.817  13.018
72480W        W40854  31.993  42.362  10.958
72481W        W40855  36.093   0.493  11.959
72482W        W40856  34.022  20.147  12.385
72483W        W40857  25.669  33.996  14.438
72484W        W40858   0.292  14.248  13.311
72485W        W40859  10.827  18.575  13.311
72486W        W40860   1.942   4.218   0.267
72487W        W40861  15.802  40.038   2.410
72488W        W40862  31.978  25.963  14.794
72489W        W40863  38.076  32.553   3.183
72490W        W40864  13.288  43.797   3.772
72491W        W40865  32.909  30.918   3.155
72492W        W40866   1.804  27.964   2.398
72493W        W40867  33.090  35.056   1.901
72494W        W40868   1.303  11.821  14.885
72495W        W40869  33.465  33.950  10.953
72496W        W40870  44.973  38.895  14.948
72497W        W40871  44.341  20.233   0.752
72498W        W40872   7.407  37.530   2.245
72499W        W40873  18.627   3.864  12.566
72500W        W40874  29.005  39.940   4.324
72501W        W40875  39.428   7.242   3.710
72502W        W40876  22.203  42.884   3.153
72503W        W40877  30.107  42.862   0.853
72504W        W40878  43.361  43.475  12.349
72505W        W40879  22.160  23.494  14.962
72506W        W40880   0.271  27.578  12.375
72507W        W40881  18.591  25.694  11.094
72508W        W40882   1.474  25.714  14.853
72509W        W40883  13.653  31.518  13.886
72510W        W40884  28.584  30.429   4.194
72511W        W40885  31.999  36.860   1.448
72512W        W40886  21.033  24.147   1.233
72513W        W40887  17.648  38.329   2.297
72514W        W40888   5.363  35.969   2.779
72515W        W40889  23.610  44.948  11.549
72516W        W40890  34.039  28.576  12.513
72517W        W40891  38.512   8.705   3.793
72518W        W40892   8.404  10.858  14.505
72519W        W40893  13.649   8.336  12.433
72520W        W40894  32.081  27.948   5.189
72521W        W40895  29.144  20.762   1.804
72522W        W40896  34.389  41.370   4.831
72523W        W40897  38.052  37.497  11.542
72524W        W40898  24.220  36.464   1.739
72525W        W40899  10.791  16.663  10.555
72526W        W40900  12.711  18.207  12.930
72527W        W40901   9.797  27.133  13.368
72528W        W40902  43.336   7.190   0.302
72529W        W40903  39.551  13.288  10.458
72530W        W40904  36.447  42.385  10.933
72531W        W40905  20.693  23.064   0.394
72532W        W40906   2.737   5.810  12.951
72533W        W40907  28.501  23.984  11.421
72534W        W40908  37.410  35.061   1.392
72535W        W40909   0.976  25.604  13.802
72536W        W40910  38.364  15.631  11.564
72537W        W40911  26.697  43.820   1.255
72538W        W40912  28.172   3.798  13.348
72539W        W40913  18.708  31.941   1.867
72540W        W40914  44.354  29.136   2.260
72541W        W40915   2.789  26.601   0.482
72542W        W40916  42.465  31.585   3.382
72543W        W40917  26.511  38.024  11.056
72544W        W40918  36.068  43.510  14.471
72545W        W40919  27.181  18.690   3.834
72546W        W40920  32.997  16.629  13.876
72547W        W40921  20.687   0.275  10.897
72548W        W40922  30.573  31.585   2.865
72549W        W40923  13.132  11.856  10.627
72550W        W40924  36.091   1.864  14.510
72551W        W40925  26.985  22.120  14.398
72552W        W40926  33.426  43.956  14.986
72553W        W40927  36.427  44.841  13.847
72554W        W40928  22.631  18.712   3.329
72555W        W40929  43.422  43.423  13.805
72556W        W40930  12.292  38.534   0.367
72557W        W40931   0.277  10.664   1.437
72558W        W40932  12.652  24.610  10.979
72559W        W40933  26.100  13.315  12.965
72560W        W40934  37.558  14.306   0.392
72561W        W40935  30.658  16.760   0.822
72562W        W40936  28.058  33.410  10.511
72563W        W40937  35.012  36.077  12.872
72564W        W40938   0.969  44.313   4.775
72565W        W40939   8.390  13.264   3.330
72566W        W40940  36.592  14.170   0.366
72567W        W40941  15.820   1.747  13.995
72568W        W40942  40.313   7.300   3.237
72569W        W40943  21.535  32.016  10.149
72570W        W40944  26.150   1.838  12.534
72571W        W40945   4.360   8.288  11.446
72572W        W40946  16.128  32.470  10.996
72573W        W40947  20.736  11.743   2.329
72574W        W40948  17.073  12.641  12.068
72575W        W40949  15.161  13.164   1.421
72576W        W40950   5.246  40.399  11.008
72577W        W40951  41.374   7.874   2.274
72578W        W40952  20.613   1.278   0.451
72579W        W40953  20.569   4.709   0.284
72580W        W40954   1.247  27.187   1.830
72581W        W40955   0.385  37.900   4.728
72582W        W40956   0.888  14.825   4.239
72583W        W40957  21.260  43.483  13.055
72584W        W40958  13.642  32.911   4.639
72585W        W40959  24.105  36.369   4.663
72586W        W40960  15.636  16.678   3.202
72587W        W40961  44.964  20.659   1.379
72588W        W40962   1.931   9.776   4.632
72589W        W40963   9.315  38.499   2.254
72590W        W40964  25.073   7.783  12.508
72591W        W40965  33.597   7.195   1.231
72592W        W40966  19.721  32.435   3.829
72593W        W40967  44.294  31.027  11.011
72594W        W40968  14.196  30.510  10.419
72595W        W40969  27.161   3.240   4.192
72596W        W40970  38.920  35.088   1.805
72597W        W40971  24.499   3.934   1.360
72598W        W40972  14.208  44.435  12.347
72599W        W40973  25.211  14.279  12.885
72600W        W40974  31.936   7.761  10.406
72601W        W40975  25.571  22.196  10.941
72602W        W40976   3.903  30.618  12.379
72603W        W40977  14.290   0.763  13.385
72604W        W40978  40.446  33.893  12.571
72605W        W40979  14.248  35.913  10.119
72606W        W40980  29.995  30.920  10.486
72607W        W40981   6.346  44.789   3.668
72608W        W40982  21.538  42.989  13.518
72609W        W40983  28.569   2.332   0.331
72610W        W40984  13.273  11.208  13.459
72611W        W40985  28.167   9.729   1.286
72612W        W40986  32.481  17.244  14.294
72613W        W40987  32.038   8.798  13.419
72614W        W40988   3.348  24.563  12.922
72615W        W40989   5.428   5.724   4.783
72616W        W40990  24.553  40.043  14.833
72617W        W40991   3.716  37.423   2.178
72618W        W40992  38.365   8.822  10.985
72619W        W40993  18.094  11.815   2.269
72620W        W40994  25.471  36.441   3.635
72621W        W40995  36.032   2.807  11.045
72622W        W40996  24.053  11.182   2.261
72623W        W40997   8.703  17.145  10.992
72624W        W40998  36.067   5.406   0.785
72625W        W40999  34.388  19.249   2.701
72626W        W41000  32.070  36.367   0.855
72627W        W41001  39.921  15.130  11.499
72628W        W41002  40.521  31.403  11.500
72629W        W41003  35.854  11.353  11.570
72630W        W41004  38.338   5.328   1.916
72631W        W41005   1.287  29.638   4.693
72632W        W41006  44.260   6.241   0.952
72633W        W41007  14.613  33.116  11.986
72634W        W41008   7.754  21.178  10.507
72635W        W41009  29.639  27.659   4.298
72636W        W41010   9.352  12.752  14.428
72637W        W41011   9.884   1.741  13.005
72638W        W41012  29.943  31.026   3.208
72639W        W41013   8.264  42.810   0.865
72640W        W41014  38.420  36.870  14.919
72641W        W41015  24.214  15.672   2.827
72642W        W41016  31.134  14.164   3.377
72643W        W41017  16.157  38.945  12.085
72644W        W41018  37.900   9.843   3.313
72645W        W41019   0.300  21.250   3.204
72646W        W41020   5.753  14.170   3.249
72647W        W41021   3.219  35.575  12.518
72648W        W41022  10.812  26.082  11.080
72649W        W41023  42.820  10.281   2.898
72650W        W41024   8.814  35.545   0.256
72651W        W41025  20.596   3.283   2.402
72652W        W41026  20.565  26.078  11.062
72653W        W41027   7.687  20.268   5.220
72654W        W41028  36.061   3.772  11.015
72655W        W41029  25.611   2.789   2.290
72656W        W41030  39.404  20.079   1.243
72657W        W41031  27.039  41.907  14.944
72658W        W41032  30.566  30.035   2.794
72659W        W41033  26.054  13.625  14.329
72660W        W41034  14.284  26.564   3.838
72661W        W41035  30.967  40.476  14.893
72662W        W41036   7.821  16.149  14.973
72663W        W41037  38.498   6.428  11.392
72664W        W41038  27.150  22.599  11.078
72665W        W41039  44.964   5.865  14.019
72666W        W41040  22.733  30.128   4.257
72667W        W41041   1.923  31.645   1.907
72668W        W41042  42.776  31.936   2.798
72669W        W41043  27.954  28.075   3.726
72670W        W41044  36.889  24.566  13.823
72671W        W41045  24.578  43.870  13.902
72672W        W41046   7.891   0.790   9.993
72673W        W41047  44.909  32.008   0.966
72674W        W41048  38.942  40.342   2.691
72675W        W41049   5.286  21.593  12.995
72676W        W41050  37.056  21.166   1.227
72677W        W41051   5.932   6.428   2.268
72678W        W41052   4.919  35.002   4.816
72679W        W41053  28.671  32.066   2.288
72680W        W41054   8.190   2.745  13.405
72681W        W41055   4.933  41.032  14.484
72682W        W41056  12.350  23.040  12.897
72683W        W41057   4.731  23.626  12.866
72684W        W41058  22.559  31.437   9.454
72685W        W41059  38.373   2.720   1.713
72686W        W41060  28.034   5.731  13.344
72687W        W41061  16.723  23.568   0.766
72688W        W41062  42.799  18.744  10.434
72689W        W41063  16.223   2.875  14.275
72690W        W41064  40.423  19.191   2.351
72691W        W41065  36.351  26.034  13.886
72692W        W41066  15.701  22.239   4.627
72693W        W41067  23.235  14.174  12.513
72694W        W41068  25.211  16.566  11.459
72695W        W41069  23.065  13.648  11.881
72696W        W41070  20.260   9.719  10.638
72697W        W41071   9.236  21.175   9.487
72698W        W41072  26.172   9.155   4.353
72699W        W41073  17.286  38.502  10.567
72700W        W41074   6.342  36.419   4.197
72701W        W41075  17.616   6.793  10.544
72702W        W41076  40.303  42.806  12.838
72703W        W41077  11.214  42.498   4.333
72704W        W41078  28.613  17.732   1.425
72705W        W41079   2.928  41.003   3.838
72706W        W41080   1.244  33.913  12.071
72707W        W41081  15.593  29.119   1.878
72708W        W41082  27.450   3.340  14.366
72709W        W41083  10.231   9.788   1.862
72710W        W41084  26.593   9.384  14.855
72711W        W41085  30.154  23.526  13.014
72712W        W41086  17.200  19.612   2.292
72713W        W41087  10.359  38.036  12.833
72714W        W41088  11.837  30.999  12.085
72715W        W41089   7.709  18.616  12.009
72716W        W41090  25.086  14.644  12.360
72717W        W41091  32.406  43.395  12.833
72718W        W41092  25.078  41.318  10.544
72719W        W41093  39.420   5.871  10.904
72720W        W41094   0.865  17.295   3.755
72721W        W41095  19.183  13.323  13.999
72722W        W41096  24.052   7.171  14.016
72723W        W41097  32.107   0.838  12.032
72724W        W41098  13.824   6.691  12.408
72725W        W41099  14.198   1.924   3.814
72726W        W41100  18.123  27.973  13.811
72727W        W41101   4.372  36.401   0.432
72728W        W41102  41.300  43.920   0.298
72729W        W41103  13.263  24.707   0.281
72730W        W41104  29.555  36.381  13.802
72731W        W41105   1.348  30.137  12.830
72732W        W41106   7.723   8.397   4.680
72733W        W41107  33.035  44.996  13.892
72734W        W41108   3.721  38.453   2.369
72735W        W41109  36.098  20.120   2.190
72736W        W41110  44.337   5.864  10.120
72737W        W41111  44.865  15.090  10.890
72738W        W41112  32.065  40.920   1.867
72739W        W41113  25.063  35.043   5.081
72740W        W41114  38.029  33.055   0.480
72741W        W41115  28.605  23.112  11.438
72742W        W41116  39.315  37.072  11.086
72743W        W41117   6.855  35.558   0.252
72744W        W41118  18.643  26.964   2.277
72745W        W41119  13.733  11.645   0.406
72746W        W41120  43.964  32.920  11.581
72747W        W41121   5.757  33.425   0.337
72748W        W41122  24.489  10.165  11.591
72749W        W41123  24.117  24.010  13.530
72750W        W41124  41.445  12.272  14.009
72751W        W41125  44.473  44.312  13.990
72752W        W41126   1.736  29.076   0.461
72753W        W41127  35.019  39.969  11.116
72754W        W41128  32.539   3.859  14.830
72755W        W41129  29.426  12.207  14.864
72756W        W41130  35.588  21.651  10.946
72757W        W41131  34.881  13.173   1.922
72758W        W41132  21.597  32.540   4.233
72759W        W41133  32.894  28.547   2.895
72760W        W41134  13.714  31.938  14.784
72761W        W41135  32.086  39.066  12.430
72762W        W41136  24.111  33.040   1.776
72763W        W41137  19.752  25.010   4.761
72764W        W41138  19.176  36.029   0.478
72765W        W41139  17.698  10.838   3.244
72766W        W41140  11.179  29.595  14.954
72767W        W41141   7.863  15.252  12.433
72768W        W41142   7.855  41.812   4.772
72769W        W41143  42.023  41.502   3.841
72770W        W41144   1.345  40.857  14.302
72771W        W41145  10.736  37.576   2.204
72772W        W41146  26.016  43.511  12.009
72773W        W41147  41.303  14.599  13.399
72774W        W41148  12.149  23.136  14.370
72775W        W41149  39.354   8.353  13.386
72776W        W41150  37.962  35.396  12.889
72777W        W41151  32.441  21.671   2.290
72778W        W41152   6.219  43.019   2.687
72779W        W41153  33.603  38.397   4.735
72780W        W41154   8.183  38.936  10.937
72781W        W41155  17.664  41.982   0.883
72782W        W41156  28.080  10.174   5.125
72783W        W41157   5.342  22.586  10.422
72784W        W41158  20.722  43.019   1.350
72785W        W41159  18.241  41.391  13.994
72786W        W41160  41.996  18.751   1.353
72787W        W41161  42.386  19.680   2.664
72788W        W41162  16.117  20.129  13.953
72789W        W41163   3.908  20.589   3.147
72790W        W41164  23.198  25.687  14.841
72791W        W41165   9.851   9.360   4.667
72792W        W41166  27.483  14.633   4.836
72793W        W41167  27.191  17.246  13.531
72794W        W41168   0.900  28.935  13.902
72795W        W41169  32.589  23.116   3.325
72796W        W41170  36.844  35.414  11.467
72797W        W41171  37.361  18.238  10.537
72798W        W41172  41.442  11.224   1.916
72799W        W41173  41.488   0.327  12.927
72800W        W41174  24.641  22.177   4.149
72801W        W41175  16.607  26.975   1.835
72802W        W41176  28.681  13.740  11.550
72803W        W41177   0.807  17.591   3.270
72804W        W41178  11.301  28.463  10.565
72805W        W41179  26.078   0.345  13.526
72806W        W41180  21.688  23.693  14.979
72807W        W41181  16.703  19.687   4.709
72808W        W41182  27.610  28.452   3.785
72809W        W41183  18.204  30.083   4.162
72810W        W41184  29.099   4.223  11.424
72811W        W41185  27.137   8.880  14.474
72812W        W41186   5.922  20.613  10.994
72813W        W41187   3.851  21.049   4.797
72814W        W41188  26.072  14.791   2.372
72815W        W41189  20.121  16.757  13.388
72816W        W41190  28.458  42.481   0.788
72817W        W41191   8.325  41.371   0.963
72818W        W41192  32.932   8.284  13.813
72819W        W41193   5.736   4.206   9.666
72820W        W41194  35.431  36.417   0.291
72821W        W41195  17.693   3.757  10.562
72822W        W41196  23.678  35.944  10.525
72823W        W41197  14.792  13.144   4.700
72824W        W41198  40.935   5.203   3.667
72825W        W41199  34.496   0.845   2.418
72826W        W41200  20.627  30.913   2.735
72827W        W41201  37.524   7.867  12.052
72828W        W41202  40.383   4.738   4.319
72829W        W41203   8.805  35.023   4.835
72830W        W41204  40.894   2.938   3.266
72831W        W41205  42.394  28.438   3.359
72832W        W41206   6.363   9.657  12.041
72833W        W41207   5.807  30.164  12.914
72834W        W41208  36.521  16.282   0.422
72835W        W41209  28.513  13.233   0.257
72836W        W41210  27.643  17.730  14.939
72837W        W41211  42.885  14.596   1.412
72838W        W41212  21.701  13.236  13.885
72839W        W41213  39.513  42.781   4.263
72840W        W41214  22.126  29.460   3.736
72841W        W41215  36.968   1.802  10.410
72842W        W41216  16.568  11.288  11.889
72843W        W41217   5.840  35.969  13.451
72844W        W41218  28.101   9.698   2.681
72845W        W41219  16.677  19.663   1.848
72846W        W41220   3.440  16.100  14.346
72847W        W41221  17.129  36.914  13.359
72848W        W41222  35.455  40.332   2.385
72849W        W41223  16.804   4.283   0.469
72850W        W41224   1.315  42.870   0.462
72851W        W41225  35.387  42.888   2.405
72852W        W41226  37.569   6.238  14.856
72853W        W41227   3.396  30.038  11.540
72854W        W41228  33.518   5.749   1.852
72855W        W41229  22.227  37.556  12.509
72856W        W41230   9.200  30.113  11.410
72857W        W41231  34.396  35.482   1.347
72858W        W41232  44.444  31.981   4.247
72859W        W41233  41.033  17.162   2.867
72860W        W41234  43.807  12.180   3.706
72861W        W41235  13.330   9.864   2.251
72862W        W41236  16.301  18.095   4.600
72863W        W41237  38.429  22.643  11.045
72864W        W41238  26.972  11.173  12.844
72865W        W41239  18.740  40.402  13.874
72866W        W41240  10.218  15.130  11.435
72867W        W41241   0.798  12.274  14.344
72868W        W41242  23.496  42.512   1.299
72869W        W41243  37.371  20.080  11.430
72870W        W41244   8.754  40.039   4.647
72871W        W41245  35.085  30.129   3.726
72872W        W41246  41.922  19.589   2.663
72873W        W41247  33.938   4.432   3.792
72874W        W41248  22.569   2.785   2.213
72875W        W41249  26.679  23.165  10.645
72876W        W41250  33.474  42.520  11.910
72877W        W41251  41.471  42.029   2.410
72878W        W41252  14.774   4.335  12.077
72879W        W41253  43.480  31.977  12.990
72880W        W41254  40.037  14.162  12.578
72881W        W41255  24.095  35.955   2.210
72882W        W41256  43.862  40.975   4.225
72883W        W41257   8.688  20.747   4.626
72884W        W41258  40.374  27.450  13.491
72885W        W41259  39.959  18.628   3.301
72886W        W41260  36.500  31.134   0.311
72887W        W41261  13.255  16.631   0.736
72888W        W41262  28.001  15.158  12.901
72889W        W41263  29.624  11.257   2.325
72890W        W41264  31.063  21.558   1.898
72891W        W41265  22.073  16.636   2.821
72892W        W41266  31.069  24.570  14.768
72893W        W41267  34.030  18.195   1.219
72894W        W41268   7.283  34.071  12.348
72895W        W41269  16.805  12.203  14.495
72896W        W41270   0.768   9.261   2.902
72897W        W41271  39.397   1.245   1.855
72898W        W41272   4.332  42.413  12.464
72899W        W41273  43.021  36.871  14.997
72900W        W41274  20.570   1.858   3.370
72901W        W41275  24.639  32.516   1.315
72902W        W41276  27.589  27.064   0.447
72903W        W41277  40.923  15.785   1.873
72904W        W41278   3.296   5.287   3.723
72905W        W41279  27.645   9.359  14.319
72906W        W41280   8.748   5.276   4.286
72907W        W41281  39.846  20.252  11.950
72908W        W41282  42.304  28.536  13.001
72909W        W41283  19.130   9.274   3.382
72910W        W41284  16.802  13.698  10.971
72911W        W41285  10.306  42.384   0.866
72912W        W41286  38.357  38.911  13.061
72913W        W41287  43.362   7.242  10.426
72914W        W41288  16.781  40.483   4.714
72915W        W41289  39.026  28.516  13.008
72916W        W41290  29.920  16.764  12.986
72917W        W41291  25.483   5.288   2.774
72918W        W41292  10.861  26.701  13.483
72919W        W41293   3.754  27.164   4.827
72920W        W41294   8.832  17.775   1.716
72921W        W41295  16.125  19.574  12.522
72922W        W41296  43.514  33.990   3.790
72923W        W41297  14.822  41.040  14.859
72924W        W41298  17.608   6.692  11.490
72925W        W41299  44.477  36.495  12.417
72926W        W41300  39.815  13.110  14.473
72927W        W41301  11.153  13.719   3.860
72928W        W41302   5.299  43.413  12.945
72929W        W41303  29.953  10.703  14.342
72930W        W41304  28.125  22.521  12.925
72931W        W41305  16.174   7.314   0.270
72932W        W41306  22.579  37.396  13.920
72933W        W41307  44.446  24.152   5.164
72934W        W41308  15.583   9.370   2.294
72935W        W41309  38.979  36.844   4.285
72936W        W41310  43.916  13.219   3.294
72937W        W41311  44.929   2.448  10.422
72938W        W41312  25.078  15.687   4.299
72939W        W41313   3.805   9.177  13.940
72940W        W41314  18.586  31.535   1.272
72941W        W41315  33.506  22.589  10.488
72942W        W41316  42.974  36.423   1.380
72943W        W41317  40.335  36.416   1.907
72944W        W41318  16.676  29.479   1.733
72945W        W41319  16.776   2.272   1.919
72946W        W41320  33.444  36.589  10.903
72947W        W41321  37.853  29.649   1.419
72948W        W41322  35.533  22.710   2.403
72949W        W41323  29.484  41.992   0.935
72950W        W41324   2.918  40.335   4.244
72951W        W41325  31.622  41.811   1.881
72952W        W41326  26.534   6.840  10.638
72953W        W41327   7.284  17.160   2.903
72954W        W41328   0.469  38.403   4.795
72955W        W41329  41.411  32.510   1.219
72956W        W41330  22.135  34.953  12.878
72957W        W41331   8.385  35.460  14.824
72958W        W41332  16.294  42.309  13.064
72959W        W41333   5.868  38.483   2.360
72960W        W41334  40.806  24.702  12.548
72961W        W41335  42.484  11.313   4.777
72962W        W41336  28.096  18.646  13.895
72963W        W41337  44.819   6.839  11.487
72964W        W41338   9.329  27.958  11.915
72965W        W41339   2.430   2.822   0.455
72966W        W41340  34.109  23.515  13.495
72967W        W41341   7.841  40.869  14.385
72968W        W41342  37.370  17.127  10.603
72969W        W41343  29.084   3.861  13.387
72970W        W41344  30.152  31.541   1.334
72971W        W41345  36.417   4.337   4.299
72972W        W41346  30.076   3.891   0.880
72973W        W41347   1.367   0.323  11.003
72974W        W41348  44.878  23.597  13.484
72975W        W41349  19.641  27.499  11.945
72976W        W41350  32.071  15.188   0.281
72977W        W41351   2.841  11.802   4.258
72978W        W41352  19.772  13.667   1.290
72979W        W41353  36.460   1.424   0.871
72980W        W41354  43.017  30.123   2.718
72981W        W41355  23.578  11.177   4.649
72982W        W41356  29.549   6.737  14.457
72983W        W41357  24.671  36.090  12.036
72984W        W41358  32.059  31.512   0.296
72985W        W41359  33.880  20.583   2.307
72986W        W41360  21.596  38.871   4.166
72987W        W41361  29.075  44.818   2.243
72988W        W41362  11.312  24.577  13.921
72989W        W41363  34.099  20.556   3.825
72990W        W41364  33.591  33.005   3.709
72991W        W41365  43.796   9.298  11.427
72992W        W41366  25.980  43.779   5.572
72993W        W41367  15.161  27.577  14.471
72994W        W41368  15.188  14.624   4.239
72995W        W41369  17.076   1.285  10.499
72996W        W41370  37.924  24.111   3.199
72997W        W41371   4.439   8.225  12.871
72998W        W41372  44.766  27.950  13.328
72999W        W41373  25.164   3.714  11.863
73000W        W41374  38.894  19.729   4.610
73001W        W41375  29.096  33.618   0.463
73002W        W41376  42.392  30.908  11.565
73003W        W41377  44.941  44.940   3.711
73004W        W41378   7.670   1.316   3.275
73005W        W41379   9.737   8.819   3.175
73006W        W41380  37.471  42.010   4.299
73007W        W41381   5.910  20.234  11.444
73008W        W41382  38.844  29.176  11.935
73009W        W41383  17.200   7.234   5.213
73010W        W41384  17.295  14.186   0.465
73011W        W41385  14.643  10.185   1.813
73012W        W41386  40.306  18.104   3.172
73013W        W41387  22.718  35.963  13.427
73014W        W41388  29.620   5.865   4.793
73015W        W41389   0.389  42.954  13.849
73016W        W41390   1.469  43.985  13.506
73017W        W41391  10.338  35.030   2.891
73018W        W41392   8.859  41.975  12.372
73019W        W41393  24.034   7.207  10.054
73020W        W41394  38.399  11.198   4.180
73021W        W41395  32.899  39.957   3.324
73022W        W41396  31.097  27.097   1.285
73023W        W41397  40.905  22.116   3.655
73024W        W41398  36.095   6.374   0.355
73025W        W41399   2.261   3.794  12.563
73026W        W41400  28.563  35.439  10.530
73027W        W41401  17.695  25.127  14.871
73028W        W41402  24.605   8.163  13.020
73029W        W41403  26.004  25.102   3.664
73030W        W41404  19.164  23.653   4.320
73031W        W41405  13.704  28.647  12.474
73032W        W41406  30.441  31.513   0.782
73033W        W41407  32.946  13.255  10.998
73034W        W41408  21.159  27.040   0.944
73035W        W41409  36.365   7.217   0.788
73036W        W41410   3.215  36.539   3.180
73037W        W41411  21.576   4.879   4.334
73038W        W41412  26.629   5.232   0.927
73039W        W41413  33.436   8.383   4.331
73040W        W41414  40.054   4.780   1.864
73041W        W41415  44.848   7.836  10.510
73042W        W41416  42.520  20.166  12.918
73043W        W41417  15.280  41.854  14.867
73044W        W41418  17.193  28.171  10.612
73045W        W41419  18.059  35.491  13.047
73046W        W41420   1.745  30.099   4.330
73047W        W41421  33.460  35.097  10.595
73048W        W41422  24.229  37.897  12.053
73049W        W41423  26.195  16.289  13.371
73050W        W41424   3.833  18.239   2.839
73051W        W41425  29.964  27.530  14.367
73052W        W41426  11.170   1.377   0.954
73053W        W41427  11.794  30.960   0.960
73054W        W41428   0.985   0.779   1.799
73055W        W41429  38.367  20.530  13.048
73056W        W41430  40.903  22.732   3.205
73057W        W41431  35.015   5.903  12.093
73058W        W41432  40.815  42.374   1.233
73059W        W41433   2.788  20.237  12.412
73060W        W41434   5.194  17.119  12.010
73061W        W41435  22.594  38.956   4.677
73062W        W41436   4.736   5.384  10.094
73063W        W41437  35.040  25.551   1.853
73064W        W41438   4.838  37.958   2.209
73065W        W41439  26.497  28.629  12.966
73066W        W41440  21.695   4.274  11.098
73067W        W41441   6.214  42.391  14.776
73068W        W41442   6.405   1.267  13.492
73069W        W41443  21.626  34.548   3.767
73070W        W41444  25.191   9.805   3.723
73071W        W41445  12.235  17.123   0.438
73072W        W41446  41.792  22.681   4.834
73073W        W41447  37.033  21.585  10.966
73074W        W41448  43.974  30.112  12.999
73075W        W41449   7.306   7.236  13.924
73076W        W41450  30.541   6.818  10.516
73077W        W41451  22.596  25.978   3.214
73078W        W41452   5.693  38.517  14.350
73079W        W41453  25.666  34.969   3.324
73080W        W41454  36.422  21.214  11.446
73081W        W41455   1.249  28.947  13.466
73082W        W41456   4.354   2.321   1.329
73083W        W41457  25.062  37.849  12.922
73084W        W41458  13.688   2.352  14.845
73085W        W41459  20.720  10.718  10.982
73086W        W41460  44.453   1.944   1.440
73087W        W41461  26.573  20.623  11.594
73088W        W41462  30.016  10.696   1.381
73089W        W41463   1.386  22.042   0.284
73090W        W41464   5.332  17.066  14.421
73091W        W41465  37.885   8.232  11.373
73092W        W41466  10.872  17.594   0.463
73093W        W41467  20.554  28.095  11.085
73094W        W41468  15.163  35.094  11.407
73095W        W41469   6.870  20.036  13.805
73096W        W41470  22.108  36.984  12.553
73097W        W41471   1.875  33.006   4.809
73098W        W41472  20.058  21.144   0.470
73099W        W41473  26.574   3.382  13.914
73100W        W41474  32.999   1.484   0.405
73101W        W41475   0.831  35.951   4.176
73102W        W41476   4.334  13.181   2.762
73103W        W41477  44.781   3.341  10.994
73104W        W41478  40.456  11.258   4.681
73105W        W41479  24.170  14.668  13.890
73106W        W41480  29.100  26.997  12.046
73107W        W41481  20.136  30.977   2.291
73108W        W41482  13.231  27.051   1.375
73109W        W41483  11.224  30.622   0.816
73110W        W41484   0.848   0.802  10.605
73111W        W41485  14.812  35.544  13.793
73112W        W41486  26.518  15.147   0.287
73113W        W41487   3.776   0.295   0.380
73114W        W41488  22.140  41.536  10.597
73115W        W41489  44.776   4.805   0.940
73116W        W41490   4.402  16.735   1.281
73117W        W41491  24.482  19.544  11.943
73118W        W41492   1.449  35.502   4.173
73119W        W41493  44.882  39.405  11.532
73120W        W41494   6.905  36.389  11.433
73121W        W41495   3.350  16.288  10.994
73122W        W41496  23.642   7.381  11.413
73123W        W41497   3.406  37.982   3.230
73124W        W41498  30.983  37.838   1.787
73125W        W41499  36.081  22.186  12.096
73126W        W41500  40.045  21.606   0.832
73127W        W41501  34.986  34.465   4.184
73128W        W41502   4.421  43.299  14.407
73129W        W41503  33.943  18.760   2.869
73130W        W41504  33.882  27.585   4.655
73131W        W41505  19.708  15.119  11.997
73132W        W41506  44.496  19.258  11.930
73133W        W41507  20.571  15.256  14.409
73134W        W41508  28.538  16.654   4.224
73135W        W41509  15.621   4.789   3.711
73136W        W41510  16.300  25.081   3.378
73137W        W41511   6.864  14.834   2.701
73138W        W41512   8.705  37.885  12.357
73139W        W41513   4.727  32.467  14.804
73140W        W41514   5.196  15.679   1.370
73141W        W41515  15.313  23.182   2.716
73142W        W41516  22.585  43.501  11.504
73143W        W41517   4.396  15.290   1.384
73144W        W41518   6.817   8.208  11.907
73145W        W41519  26.173  25.620   4.802
73146W        W41520  30.954  44.970   0.336
73147W        W41521  27.553  34.529   1.242
73148W        W41522  42.506  11.696   0.817
73149W        W41523  28.176   1.882  12.475
73150W        W41524  19.620  43.796  10.896
73151W        W41525  41.882  28.980   0.381
73152W        W41526  32.549   0.831  10.542
73153W        W41527   2.748  21.672  12.075
73154W        W41528   6.723  23.598  10.475
73155W        W41529  26.051  10.292  13.059
73156W        W41530  44.283  13.737   0.917
73157W        W41531  12.838  33.119   1.819
73158W        W41532   3.350  32.451  14.814
73159W        W41533  25.029  37.959  11.020
73160W        W41534  38.346   7.284  13.309
73161W        W41535  29.016  39.324  12.953
73162W        W41536  12.802  40.497   2.863
73163W        W41537  17.165  32.633   2.864
73164W        W41538   4.791  29.494  10.457
73165W        W41539   8.328  36.864  13.318
73166W        W41540  21.028  42.803  14.997
73167W        W41541  37.498  10.214   4.836
73168W        W41542  26.553   9.710  11.088
73169W        W41543  20.549  28.061  12.007
73170W        W41544  25.641  28.678   0.825
73171W        W41545  13.776  25.523   0.936
73172W        W41546  38.015  44.867   0.834
73173W        W41547  23.705  18.116   4.615
73174W        W41548  42.794  17.574   1.790
73175W        W41549  43.978  44.349   4.316
73176W        W41550  19.710  15.149   2.390
73177W        W41551  36.970   7.411   9.523
73178W        W41552   3.799  35.068  12.974
73179W        W41553  42.874  43.454  12.508
73180W        W41554   1.321  41.934  14.805
73181W        W41555  25.218   4.300  12.824
73182W        W41556  42.940   6.723   2.735
73183W        W41557  18.078   9.301  11.995
73184W        W41558  21.226  11.216   9.932
73185W        W41559  22.227  14.737  12.838
73186W        W41560  33.029  25.523   4.756
73187W        W41561  37.836   5.743   5.086
73188W        W41562  12.189  42.979  14.297
73189W        W41563  34.611  10.805   0.387
73190W        W41564  32.042  28.558  14.023
73191W        W41565  26.008  19.135  14.796
73192W        W41566  23.187  26.526  13.826
73193W        W41567  37.390  11.829  14.277
73194W        W41568   5.929   4.417  14.778
73195W        W41569  19.662  27.122   3.856
73196W        W41570   9.240  31.973   3.838
73197W        W41571   3.925  20.124  13.844
73198W        W41572  35.573  30.652  13.482
73199W        W41573  17.764  31.112  12.887
73200W        W41574   4.308   6.707  12.910
73201W        W41575  27.569   1.861   0.336
73202W        W41576   0.259   2.230  13.404
73203W        W41577  41.530   2.253   1.907
73204W        W41578  19.623  16.757   4.781
73205W        W41579   5.871  12.810   1.319
73206W        W41580  24.103  43.999  14.980
73207W        W41581  17.576   6.751  11.060
73208W        W41582  36.526  40.987   0.903
73209W        W41583  11.698   6.729   2.202
73210W        W41584   4.751  25.025  11.061
73211W        W41585  42.504  42.800  10.635
73212W        W41586  20.134  11.718  11.440
73213W        W41587  20.696   7.418   1.425
73214W        W41588  18.124  19.240   0.358
73215W        W41589  32.002  27.054   0.853
73216W        W41590   3.276   0.905  11.571
73217W        W41591   8.693  32.620  11.120
73218W        W41592  39.419  21.226   1.220
73219W        W41593   7.867   8.695  12.460
73220W        W41594  12.120   6.768  11.384
73221W        W41595  34.913  10.155   4.745
73222W        W41596  39.957  20.587  14.933
73223W        W41597  20.235  17.787  13.461
73224W        W41598  42.286   9.825   3.167
73225W        W41599   5.288   1.779  14.449
73226W        W41600  33.528  11.751   4.314
73227W        W41601  41.929   4.383  13.052
73228W        W41602  30.414  36.537   3.763
73229W        W41603  30.983  40.840   2.835
73230W        W41604  34.579  26.623   2.825
73231W        W41605  43.446  12.759  11.060
73232W        W41606  31.523  10.163  14.316
73233W        W41607  43.851  14.801   2.786
73234W        W41608   6.822  42.427   3.673
73235W        W41609  31.056  27.958   2.857
73236W        W41610   1.357  31.551  13.901
73237W        W41611  24.512  44.297  12.366
73238W        W41612  10.804  18.703   3.188
73239W        W41613  39.473  40.878  14.769
73240W        W41614  15.089  42.303  14.777
73241W        W41615  14.263  11.765   9.945
73242W        W41616   9.280  40.346   0.408
73243W        W41617   9.244  15.596  11.551
73244W        W41618  24.709   2.356  11.483
73245W        W41619  42.788   9.261   0.738
73246W        W41620  13.769  13.675  10.540
73247W        W41621  17.755  29.945   2.386
73248W        W41622  31.991  26.687   3.287
73249W        W41623  43.434  13.247   0.388
73250W        W41624  23.605  34.453  12.845
73251W        W41625  26.659   1.324  10.443
73252W        W41626  21.169  32.042  11.986
73253W        W41627  19.091   1.953   2.842
73254W        W41628  33.976  37.388   3.656
73255W        W41629  39.041  34.592   0.745
73256W        W41630  24.642  32.556   0.462
73257W        W41631  40.906  18.133   0.785
73258W        W41632  31.120  43.460  11.426
73259W        W41633  39.001  12.340  14.852
73260W        W41634  38.412  21.518  13.028
73261W        W41635  37.902   1.908   2.703
73262W        W41636   5.704  34.028  12.085
73263W        W41637   0.967  23.724  10.408
73264W        W41638  14.640  27.447  13.917
73265W        W41639  16.308   5.255   1.856
73266W        W41640  33.055  13.303   4.621
73267W        W41641  13.712  36.862   4.638
73268W        W41642   5.243  40.328   0.885
73269W        W41643  21.241  44.272  10.921
73270W        W41644  39.495  13.194  12.468
73271W        W41645  32.110  35.942  10.576
73272W        W41646  10.216   2.303   1.928
73273W        W41647  28.580  36.953   4.654
73274W        W41648  38.556  23.681   0.834
73275W        W41649   7.734  33.045  10.620
73276W        W41650  23.003  40.527   5.316
73277W        W41651   7.171  36.352  11.936
73278W        W41652   5.734  29.097  12.988
73279W        W41653   4.242  11.284   3.736
73280W        W41654   3.455  43.811  14.807
73281W        W41655  29.980  39.520   4.233
73282W        W41656  33.070   6.283  14.310
73283W        W41657  39.839   1.291  14.930
73284W        W41658   9.701  20.238   0.909
73285W        W41659  19.146  24.518   2.696
73286W        W41660  28.119  20.132   1.853
73287W        W41661   5.437  34.465  12.985
73288W        W41662   3.948  26.052  13.897
73289W        W41663  26.605  34.012   0.871
73290W        W41664  11.677  25.114  11.934
73291W        W41665  11.178  40.017  10.507
73292W        W41666  20.605  25.709  13.910
73293W        W41667  11.808  18.599   0.362
73294W        W41668   6.394  24.099   2.285
73295W        W41669  12.339  12.761  14.502
73296W        W41670   7.861  14.297   2.403
73297W        W41671  29.000  15.165   3.767
73298W        W41672  15.723  17.228  12.488
73299W        W41673  14.814  42.948  14.811
73300W        W41674  19.130  10.287   3.152
73301W        W41675  44.282   5.755   0.831
73302W        W41676  29.022  29.172  10.516
73303W        W41677  33.101  42.915   2.715
73304W        W41678  41.875  37.888   2.784
73305W        W41679   0.813  15.324   2.902
73306W        W41680  25.085   8.736   3.777
73307W        W41681  38.886  13.179  14.305
73308W        W41682  28.100  17.257   2.759
73309W        W41683  20.531  35.052   0.385
73310W        W41684  28.533  25.111   4.620
73311W        W41685  13.163  40.375  14.857
73312W        W41686  32.141  39.372  14.327
73313W        W41687  11.785  33.900  10.534
73314W        W41688  24.482  29.918  14.339
73315W        W41689  16.123  22.522   9.933
73316W        W41690  41.386   3.713  14.001
73317W        W41691   8.392  30.059  12.420
73318W        W41692  12.808  19.613   3.748
73319W        W41693  43.873   7.324   3.158
73320W        W41694   1.948   6.688  10.432
73321W        W41695  25.481  15.108  14.515
73322W        W41696  29.645  38.521   0.462
73323W        W41697  29.084  29.944  13.998
73324W        W41698   7.344  20.226   1.277
73325W        W41699  43.492  23.078  13.368
73326W        W41700  38.879  12.279  10.943
73327W        W41701  15.267  38.342   3.681
73328W        W41702   2.884  40.405   2.305
73329W        W41703   4.301   5.817   2.785
73330W        W41704  16.754  27.512  10.585
73331W        W41705  34.548  12.738  12.893
73332W        W41706   6.302  12.316   0.426
73333W        W41707  37.552  27.159  10.623
73334W        W41708  38.326  42.994  13.991
73335W        W41709  23.162  43.972  14.366
73336W        W41710   1.252  12.351   4.769
73337W        W41711  40.311  44.462   1.223
73338W        W41712   6.422  35.495   3.804
73339W        W41713  17.063  34.999   1.355
73340W        W41714   0.762   8.849   2.189
73341W        W41715   2.450  19.584  14.772
73342W        W41716  14.765  13.749   3.859
73343W        W41717  10.852  28.608   3.845
73344W        W41718  38.543  25.668   0.894
73345W        W41719  34.880  30.139  13.993
73346W        W41720  27.620  38.422   1.359
73347W        W41721   5.714  20.031  10.430
73348W        W41722  27.121  22.014  11.598
73349W        W41723  44.770  13.690   1.439
73350W        W41724   5.302  15.159   1.839
73351W        W41725  39.889  35.887   1.883
73352W        W41726  42.491   4.216  14.823
73353W        W41727  41.301  41.864   0.765
73354W        W41728  18.086  22.656  13.407
73355W        W41729  31.959  33.916   1.842
73356W        W41730  12.232  17.740   1.827
73357W        W41731   4.887   7.414   5.143
73358W        W41732  24.589  23.687  12.562
73359W        W41733  16.211  35.893  14.999
73360W        W41734   9.220  30.580   5.643
73361W        W41735  16.089  34.968  11.487
73362W        W41736  17.583   8.734  11.493
73363W        W41737  24.600  11.159   3.356
73364W        W41738   9.166   7.176   3.345
73365W        W41739  14.773  12.623   3.270
73366W        W41740  43.369  12.219   4.241
73367W        W41741  32.917  38.923  14.514
73368W        W41742   2.443  31.625  13.908
73369W        W41743  31.409  42.357  11.433
73370W        W41744  21.748   8.715   4.247
73371W        W41745  38.337  23.677  11.439
73372W        W41746   0.951  42.362  11.398
73373W        W41747   2.468  32.023  10.556
73374W        W41748  10.216  41.327   4.122
73375W        W41749  17.762  19.629  14.408
73376W        W41750  34.452  31.084   1.791
73377W        W41751  11.314  12.787   2.301
73378W        W41752  19.125  26.117   2.301
73379W        W41753  16.599  37.482  11.502
73380W        W41754  23.213  41.027   2.788
73381W        W41755  19.114  29.618   2.393
73382W        W41756  36.936  29.618   2.676
73383W        W41757  22.699  30.038   3.689
73384W        W41758   8.203  17.214   4.799
73385W        W41759  43.901  23.007  13.955
73386W        W41760  10.753   4.772  11.048
73387W        W41761  13.720  21.650   3.257
73388W        W41762  29.619  20.613   2.186
73389W        W41763  37.435  40.043  10.488
73390W        W41764  24.592  41.022   2.231
73391W        W41765   4.230  28.466   4.683
73392W        W41766  38.405  30.079   4.344
73393W        W41767  17.186   7.881   2.295
73394W        W41768  21.031  25.509   1.242
73395W        W41769   0.847   7.763  10.948
73396W        W41770  25.696  32.107   3.822
73397W        W41771  11.655   2.277   2.363
73398W        W41772   0.448  41.343  12.895
73399W        W41773  22.505  11.856  11.886
73400W        W41774  36.026  25.485   5.273
73401W        W41775  23.641   6.248  11.486
73402W        W41776  31.465  12.694  11.487
73403W        W41777   0.461  27.994   2.368
73404W        W41778  35.597  17.208   4.143
73405W        W41779  32.470  36.576  14.810
73406W        W41780  30.911  38.357  11.587
73407W        W41781  24.005  40.443  11.893
73408W        W41782  27.493  30.450   1.697
73409W        W41783  29.969  33.607   0.261
73410W        W41784  23.685  10.319  13.314
73411W        W41785  35.532  23.678   1.400
73412W        W41786  34.002  40.937  11.880
73413W        W41787  37.416  35.475   0.957
73414W        W41788  25.029  21.522   4.712
73415W        W41789   5.871   7.713  13.856
73416W        W41790  28.629  26.520   1.391
73417W        W41791  35.862   8.402  10.417
73418W        W41792  38.069  42.454  10.903
73419W        W41793  11.320   3.286   3.165
73420W        W41794  43.954   9.879  14.353
73421W        W41795   4.429  40.946   1.448
73422W        W41796  21.072   0.421  14.409
73423W        W41797  24.128  33.577  11.411
73424W        W41798  10.296  24.631   3.795
73425W        W41799  10.783  17.740  14.848
73426W        W41800   5.235   6.787  12.074
73427W        W41801  20.115   0.351  10.577
73428W        W41802   1.961  31.004   2.807
73429W        W41803  43.000   5.247   1.718
73430W        W41804   8.869   5.823   1.290
73431W        W41805   5.728  40.939   0.305
73432W        W41806   9.874   4.362   0.284
73433W        W41807   8.679  32.612  11.928
73434W        W41808  28.478   7.773  14.855
73435W        W41809  27.656  42.916   9.628
73436W        W41810  24.102  23.591   4.224
73437W        W41811  37.573  40.989   2.287
73438W        W41812  41.529  41.914   3.847
73439W        W41813  38.954  44.918   1.866
73440W        W41814  40.868  41.925   1.344
73441W        W41815  35.359   9.157  12.899
73442W        W41816  10.339  30.016  11.914
73443W        W41817  19.246   7.320  13.353
73444W        W41818  13.335  22.530  12.086
73445W        W41819  42.341  15.792   3.167
73446W        W41820  42.328   3.272   3.767
73447W        W41821  16.690  25.686   0.920
73448W        W41822  18.577  18.565   3.725
73449W        W41823  26.646  14.632   1.751
73450W        W41824  24.096  13.209   3.724
73451W        W41825  10.760  13.616   1.302
73452W        W41826  44.305  39.358  12.957
73453W        W41827  19.653  24.719  14.474
73454W        W41828  22.626   8.362  12.566
73455W        W41829  28.165  37.972  12.510
73456W        W41830  10.739  13.337  14.337
73457W        W41831  13.333  25.005  12.889
73458W        W41832  24.608   6.808   0.782
73459W        W41833  39.958  13.623   4.126
73460W        W41834  35.359  14.191   4.831
73461W        W41835  32.631  19.159   1.280
73462W        W41836  41.853  27.545   1.800
73463W        W41837   7.291  16.140   4.655
73464W        W41838   1.824  40.461   4.193
73465W        W41839  29.930  21.582  13.898
73466W        W41840  35.444  41.511  11.529
73467W        W41841  10.729  16.660  11.470
73468W        W41842   4.228   1.939   4.133
73469W        W41843  43.431   0.482   0.359
73470W        W41844  24.995  19.627  14.797
73471W        W41845  43.936   7.334  12.569
73472W        W41846  39.964  11.238   3.804
73473W        W41847  15.287   9.370  12.959
73474W        W41848  31.513  11.781  14.377
73475W        W41849  30.587  36.092  10.642
73476W        W41850  29.006  18.244   0.429
73477W        W41851  31.551  28.184  12.085
73478W        W41852   4.832  20.058   1.711
73479W        W41853  26.967  24.619  11.041
73480W        W41854  28.975  37.481  11.876
73481W        W41855   5.251   5.286  12.553
73482W        W41856   5.696  30.613  14.928
73483W        W41857  28.003  33.490   2.879
73484W        W41858  22.682  29.159   0.954
73485W        W41859  27.052  28.037  12.409
73486W        W41860  33.878   9.671   3.367
73487W        W41861  40.462   8.708  12.932
73488W        W41862   4.249  28.024  10.476
73489W        W41863  11.343   5.689  12.936
73490W        W41864  21.066   9.819  11.873
73491W        W41865  42.489  10.674   1.881
73492W        W41866  16.782  26.484  11.876
73493W        W41867  17.191  31.038  12.556
73494W        W41868  22.210  39.344   2.259
73495W        W41869   4.784   4.903  14.494
73496W        W41870  34.493  24.227   1.389
73497W        W41871  10.672   6.839  13.401
73498W        W41872   4.203  34.538  13.315
73499W        W41873  26.175  20.080   4.677
73500W        W41874  15.325  32.431   4.598
73501W        W41875  43.011   3.906  11.910
73502W        W41876  27.495  32.495   4.308
73503W        W41877   7.331  34.501   2.359
73504W        W41878   6.797  32.917  13.817
73505W        W41879  33.983  18.732  10.564
73506W        W41880  22.528   0.962   2.867
73507W        W41881  42.877  19.114   1.362
73508W        W41882  19.604   4.923  13.521
73509W        W41883  35.892   7.670   4.619
73510W        W41884  36.557  14.316   2.725
73511W        W41885  26.494  37.082  10.431
73512W        W41886  32.980  29.089   4.703
73513W        W41887  44.382  44.841   1.905
73514W        W41888   1.965  35.983  11.955
73515W        W41889  27.137  40.311   2.338
73516W        W41890  42.457   6.285  12.525
73517W        W41891  31.421   7.827   1.812
73518W        W41892  34.062   0.366   0.856
73519W        W41893  29.055   9.840   2.770
73520W        W41894  10.210  44.331   3.778
73521W        W41895  31.622  39.964  14.933
73522W        W41896  23.621  35.950  13.429
73523W        W41897  24.045  44.002   2.414
73524W        W41898   3.373  40.043  13.054
73525W        W41899  15.649  31.558  12.860
73526W        W41900  14.193  18.701  11.393
73527W        W41901  37.480  42.921  12.893
73528W        W41902  43.952  19.060   4.347
73529W        W41903  21.231  25.025  12.909
73530W        W41904  30.082  42.333  12.579
73531W        W41905  42.479  39.463   4.741
73532W        W41906  19.560  18.111  13.045
73533W        W41907   5.903  11.725  10.897
73534W        W41908  25.181  25.623  11.051
73535W        W41909  27.576  23.208  11.385
73536W        W41910  19.607  10.718   0.861
73537W        W41911  34.025  36.871  12.482
73538W        W41912  17.605   4.263   1.694
73539W        W41913   8.275  17.125  11.997
73540W        W41914  19.204   2.937   0.834
73541W        W41915  22.127  42.372   4.327
73542W        W41916  24.662   2.852  14.367
73543W        W41917  33.099  23.719  13.833
73544W        W41918  19.581  38.472  11.901
73545W        W41919  31.420   9.845  13.055
73546W        W41920  24.056  40.873  14.916
73547W        W41921  24.664  16.265  12.993
73548W        W41922   9.821  44.498  10.985
73549W        W41923  25.591  18.548   4.290
73550W        W41924  13.295  34.936  13.543
73551W        W41925   6.338   0.905   4.346
73552W        W41926  29.565   2.389   1.747
73553W        W41927  25.563   7.371  12.390
73554W        W41928  20.145   7.909  13.023
73555W        W41929  23.226  21.165  10.580
73556W        W41930  31.896   7.698  13.319
73557W        W41931  22.698  34.442   3.861
73558W        W41932  10.638  20.602   0.806
73559W        W41933  40.956   3.217   3.368
73560W        W41934  31.061  35.999  10.951
73561W        W41935  19.271  15.169  12.426
73562W        W41936  16.581  28.579  14.988
73563W        W41937  12.634  11.365  13.816
73564W        W41938  16.245  11.271   1.858
73565W        W41939  19.668  29.631  11.491
73566W        W41940   5.247  20.109   0.741
73567W        W41941  25.143   9.822  14.370
73568W        W41942  23.550  36.053   1.262
73569W        W41943   6.210  20.674  11.989
73570W        W41944  11.792   4.884  12.377
73571W        W41945  11.799  27.691  13.416
73572W        W41946  41.472  14.686  10.546
73573W        W41947  20.229  37.504   3.780
73574W        W41948  26.955  16.578   0.356
73575W        W41949   0.415   5.265   3.746
73576W        W41950  32.091  19.678   3.157
73577W        W41951  30.538  15.084   1.735
73578W        W41952  21.237  28.127  14.988
73579W        W41953  13.671  43.510   0.271
73580W        W41954  31.942   1.366  12.931
73581W        W41955  24.500   8.291  12.384
73582W        W41956  30.133  27.520   0.260
73583W        W41957  39.969  36.971  12.927
73584W        W41958  20.750  41.989  13.495
73585W        W41959  21.651  36.958   4.662
73586W        W41960  37.907  36.488   3.744
73587W        W41961  26.103  41.912   1.310
73588W        W41962   9.286  19.223  13.884
73589W        W41963  16.663   3.273   0.465
73590W        W41964  14.644  16.740   4.813
73591W        W41965  28.018  11.828  13.018
73592W        W41966  16.174   7.905   4.835
73593W        W41967   5.904  44.834  13.889
73594W        W41968  11.130   1.268  13.512
73595W        W41969  28.176   3.891  11.964
73596W        W41970  36.583  35.396  13.038
73597W        W41971  33.990   1.781   2.746
73598W        W41972  28.955  42.505   4.272
73599W        W41973  33.406  13.295  13.799
73600W        W41974  21.135  18.114   4.302
73601W        W41975  13.699  30.064  11.555
73602W        W41976   6.699  15.717   2.674
73603W        W41977  15.100  35.003  12.498
73604W        W41978  24.127   9.165  10.645
73605W        W41979  27.128  40.941   2.309
73606W        W41980  20.246  23.707  10.139
73607W        W41981  23.991  31.461   5.220
73608W        W41982  35.872  11.711  11.593
73609W        W41983  37.054  12.671   4.257
73610W        W41984  31.422  44.949   0.888
73611W        W41985   0.391  17.156  10.993
73612W        W41986  38.557  18.188  14.294
73613W        W41987  32.436   0.742   1.824
73614W        W41988  39.502  12.643  11.398
73615W        W41989  25.037  28.026   0.431
73616W        W41990   4.733  42.344  13.524
73617W        W41991   3.747  44.906  13.981
73618W        W41992  38.947   0.973  14.824
73619W        W41993  11.152  44.329  11.019
73620W        W41994   5.832   9.837  12.546
73621W        W41995   8.892  13.618  14.776
73622W        W41996  20.226  34.612  14.920
73623W        W41997  19.712  14.688   3.723
73624W        W41998  37.870   6.189   4.139
73625W        W41999  41.295  26.628   2.791
73626W        W42000  41.882  25.212  14.413
73627W        W42001  13.680  38.871   2.730
73628W        W42002  21.081  29.097  12.562
73629W        W42003  38.503  33.566  13.947
73630W        W42004  39.937  36.475   3.807
73631W        W42005  22.236  22.181   0.860
73632W        W42006  43.368  31.981  13.850
73633W        W42007  37.344  12.705  10.601
73634W        W42008   5.408  27.055   3.379
73635W        W42009  41.391  36.004  12.988
73636W        W42010   9.768  37.022  10.421
73637W        W42011  30.091   8.712  13.036
73638W        W42012  25.057   1.874   4.633
73639W        W42013   9.360   3.837  13.345
73640W        W42014  36.097  15.662  10.892
73641W        W42015  23.683   5.773  12.387
73642W        W42016  10.673  43.343  13.521
73643W        W42017  17.230   1.455   0.340
73644W        W42018   9.809  37.412  14.347
73645W        W42019  25.208   5.362  13.801
73646W        W42020   4.702  33.998   0.734
73647W        W42021  30.585   8.836  14.403
73648W        W42022  44.813  25.503  12.545
73649W        W42023  24.647  29.109   1.280
73650W        W42024   5.277  41.853   0.460
73651W        W42025  29.162  32.914  10.409
73652W        W42026  29.031  12.791   0.796
73653W        W42027  41.929  29.614   4.829
73654W        W42028  33.480   1.470   3.848
73655W        W42029  41.447  13.813   2.842
73656W        W42030   7.694  20.084  12.993
73657W        W42031   3.819  24.499   4.708
73658W        W42032  29.007  37.507   3.321
73659W        W42033  44.865  19.632   1.703
73660W        W42034  31.432  40.011   1.324
73661W        W42035  30.647   9.760  14.822
73662W        W42036  22.717  40.455   4.120
73663W        W42037  34.972  38.907  13.424
73664W        W42038  22.154  22.683  14.820
73665W        W42039  41.805   8.405   3.336
73666W        W42040  29.606  32.016  12.459
73667W        W42041  12.332  43.459   0.949
73668W        W42042  40.008   7.751   4.136
73669W        W42043  32.994  36.976  12.481
73670W        W42044  19.140  32.629   4.166
73671W        W42045  38.559  27.130   4.613
73672W        W42046  39.953  12.704   3.732
73673W        W42047  20.197  27.445  11.429
73674W        W42048  16.778  22.209  11.966
73675W        W42049  20.079   2.862   4.820
73676W        W42050  11.694  35.933  14.479
73677W        W42051  39.925  15.699   0.370
73678W        W42052   4.406  44.769  12.346
73679W        W42053   2.339  30.519   3.253
73680W        W42054  19.618  35.059  11.512
73681W        W42055  26.119  20.636   0.807
73682W        W42056  29.016  43.928   0.390
73683W        W42057  10.318  36.905   2.331
73684W        W42058  29.623  33.986   4.829
73685W        W42059  41.904  39.375  10.888
73686W        W42060  33.067  38.531   4.604
73687W        W42061  21.243  40.869  13.805
73688W        W42062   4.224  15.191   3.289
73689W        W42063  20.204   4.773   4.347
73690W        W42064  12.296  12.247  11.425
73691W        W42065   2.437   4.791   3.833
73692W        W42066   1.318  40.467   2.334
73693W        W42067  21.155  17.064   4.235
73694W        W42068  14.102  19.582   2.800
73695W        W42069  31.526  34.090  12.916
73696W        W42070  15.721  43.416   1.351
73697W        W42071  14.164   3.380   2.707
73698W        W42072   5.393   7.777   4.236
73699W        W42073  36.970  15.163   4.291
73700W        W42074  18.593  12.278  12.914
73701W        W42075   0.743  22.193  13.309
73702W        W42076  25.520  44.293  13.438
73703W        W42077  44.376  32.515  13.799
73704W        W42078  26.196   0.321   0.423
73705W        W42079   3.220  37.393   3.167
73706W        W42080  24.093  41.520  13.454
73707W        W42081  28.956  38.875   0.349
73708W        W42082  43.796  12.719  13.340
73709W        W42083   7.813   5.390  11.917
73710W        W42084   9.339  26.043   1.322
73711W        W42085  22.625  31.594  14.986
73712W        W42086  29.932  39.369  13.541
73713W        W42087   5.703   1.802  12.885
73714W        W42088  22.224  23.154  14.321
73715W        W42089   4.714  36.011   3.184
73716W        W42090  17.223  42.892   4.808
73717W        W42091  19.706  15.229  11.028
73718W        W42092  34.052  35.529   4.127
73719W        W42093  27.183  12.663   2.359
73720W        W42094  35.553  22.653  14.289
73721W        W42095  44.267  20.596  12.909
73722W        W42096  29.631  37.038   3.306
73723W        W42097   5.707  37.373   1.792
73724W        W42098  10.677   9.184  14.962
73725W        W42099  25.617  32.995   4.336
73726W        W42100  30.439  28.441  11.445
73727W        W42101   8.272  21.053   1.212
73728W        W42102  10.755  21.703  14.820
73729W        W42103   5.931  15.251  10.437
73730W        W42104  41.461   9.779   2.800
73731W        W42105  11.747  32.078  10.533
73732W        W42106   8.807  35.418  12.918
73733W        W42107  38.399  27.010  14.946
73734W        W42108  30.452   0.475  13.525
73735W        W42109   8.381  17.776  14.806
73736W        W42110  38.075   2.746   2.695
73737W        W42111  32.023  17.248   4.154
73738W        W42112  19.194  26.554   1.434
73739W        W42113   9.379   9.319   4.720
73740W        W42114  36.080  36.573   1.710
73741W        W42115  32.911  22.014  11.039
73742W        W42116  27.584  17.750  13.985
73743W        W42117  32.632  21.091  12.829
73744W        W42118   1.319  31.631   3.158
73745W        W42119  38.501  25.586  10.440
73746W        W42120   2.387  28.933   0.924
73747W        W42121  11.183   2.383  11.948
73748W        W42122  38.371  39.880  12.340
73749W        W42123  28.982  22.093   2.880
73750W        W42124  29.503   6.187   1.860
73751W        W42125  17.255  25.062   4.623
73752W        W42126   7.846  27.639  11.530
73753W        W42127   9.861   0.410   2.815
73754W        W42128   6.289  28.110   2.365
73755W        W42129  26.164  17.614   2.338
73756W        W42130  16.163  31.922  13.900
73757W        W42131  24.118  17.748   0.861
73758W        W42132  15.329  14.667   0.853
73759W        W42133  28.662  21.756   3.669
73760W        W42134  35.926  17.592   2.201
73761W        W42135  31.619   2.857   4.340
73762W        W42136  28.047  40.364  12.514
73763W        W42137  38.356  26.030   3.153
73764W        W42138  39.030  31.040   2.401
73765W        W42139  17.706  40.898  11.060
73766W        W42140   8.204  33.595   1.865
73767W        W42141  43.885   7.193  14.412
73768W        W42142  38.885  22.008   1.343
73769W        W42143   5.306  12.749   2.902
73770W        W42144  19.271  26.495   1.855
73771W        W42145  39.035   7.214   5.173
73772W        W42146   3.329  27.600   0.929
73773W        W42147   6.389  37.525   4.289
73774W        W42148   2.427   3.252  10.620
73775W        W42149  32.962  39.479   4.284
73776W        W42150  33.001  36.039   0.470
73777W        W42151  38.881  36.531   3.317
73778W        W42152  33.485  27.102  11.383
73779W        W42153   9.259  10.873   1.709
73780W        W42154  30.609  39.939   2.258
73781W        W42155  39.534  32.593   3.763
73782W        W42156  37.393   4.788  11.955
73783W        W42157  25.054  33.901  12.349
73784W        W42158   6.289  34.401   0.455
73785W        W42159  33.070   2.856  10.429
73786W        W42160  18.564  41.036   1.775
73787W        W42161   5.902  41.008   1.702
73788W        W42162   7.342  22.175   4.704
73789W        W42163  15.662  27.459  13.038
73790W        W42164  34.506   8.376   4.829
73791W        W42165  22.160  25.149  10.512
73792W        W42166  32.126  21.516   4.134
73793W        W42167  20.550  39.437  11.053
73794W        W42168  44.978  18.271   4.351
73795W        W42169   6.714  17.765   3.322
73796W        W42170  11.841  38.527   3.745
73797W        W42171  36.492   7.178  11.495
73798W        W42172   5.814  12.334   1.390
73799W        W42173  29.484   1.421   2.395
73800W        W42174  27.691  27.669   3.240
73801W        W42175  12.358  22.184   4.226
73802W        W42176   4.356  43.368   3.760
73803W        W42177  17.632  23.563   4.231
73804W        W42178   2.886  16.265   4.693
73805W        W42179  41.434  18.103  14.780
73806W        W42180  25.691  21.561  13.960
73807W        W42181   5.824  28.990  14.794
73808W        W42182  28.066  14.123   5.083
73809W        W42183  22.721  38.426  11.926
73810W        W42184  41.036  29.492   1.725
73811W        W42185  44.916  23.554  11.588
73812W        W42186  25.622  29.472  11.040
73813W        W42187  37.988   3.753   4.122
73814W        W42188  44.394  27.628  12.832
73815W        W42189  43.908   8.878   5.197
73816W        W42190  40.499  17.751  11.934
73817W        W42191  31.455  18.617  12.920
73818W        W42192  40.346  20.188  12.574
73819W        W42193   9.339  14.265   0.453
73820W        W42194  40.371   7.787  12.015
73821W        W42195  25.559  44.976   3.326
73822W        W42196  38.059  38.354  12.827
73823W        W42197  19.537  15.145   0.407
73824W        W42198  42.807  35.871   3.319
73825W        W42199   3.303  44.985  10.586
73826W        W42200  13.630   7.302   3.659
73827W        W42201  10.694  29.467  14.016
73828W        W42202   0.253  26.020   4.206
73829W        W42203  21.750  23.021   1.401
73830W        W42204  13.758   5.353  12.362
73831W        W42205   9.845   7.215  13.490
73832W        W42206  15.190   2.927  13.965
73833W        W42207  26.107  32.407  13.001
73834W        W42208  16.568  40.965   0.824
73835W        W42209  39.821  36.921   1.834
73836W        W42210   6.721  38.467   4.656
73837W        W42211  14.812  43.977   2.691
73838W        W42212  17.602   8.735   2.184
73839W        W42213  12.326  44.849   4.753
73840W        W42214  13.243  14.334   2.244
73841W        W42215  42.920  21.705  13.435
73842W        W42216  12.626  25.091   5.134
73843W        W42217  25.067  34.558  14.889
73844W        W42218  37.079  20.549  12.533
73845W        W42219   5.703  42.997   0.735
73846W        W42220  12.132   1.943   1.911
73847W        W42221  21.611  33.537   3.187
73848W        W42222  14.139  34.076   1.449
73849W        W42223  38.971   1.434   3.636
73850W        W42224  15.810  39.994  14.771
73851W        W42225   3.445  14.685  12.931
73852W        W42226  23.069  29.534  14.487
73853W        W42227  42.524  42.317  10.498
73854W        W42228  43.005  40.804  12.370
73855W        W42229  38.496  41.916   0.398
73856W        W42230   3.746   1.872   3.308
73857W        W42231   1.432   4.279  12.500
73858W        W42232  13.806  24.044  10.432
73859W        W42233   2.318  25.671  13.987
73860W        W42234  27.573  44.454   0.378
73861W        W42235  28.183   2.746  13.794
73862W        W42236   7.404  26.542   1.707
73863W        W42237   1.365   1.295  14.895
73864W        W42238  29.996   1.481  12.858
73865W        W42239   3.952  19.092  12.090
73866W        W42240  42.332  26.999   2.192
73867W        W42241  15.808  17.201   5.183
73868W        W42242  12.615  30.544  11.860
73869W        W42243  39.957   6.693  13.970
73870W        W42244  26.030  24.604   3.783
73871W        W42245   0.880  13.173  10.493
73872W        W42246  23.555  22.709  12.945
73873W        W42247   4.943  12.813  10.922
73874W        W42248  19.562   3.875   3.180
73875W        W42249  37.914  13.662  14.887
73876W        W42250   9.692  38.019  14.284
73877W        W42251  34.004  24.997   4.168
73878W        W42252  13.224  26.458  11.003
73879W        W42253  13.197  31.086   0.799
73880W        W42254  44.995  37.580  11.896
73881W        W42255   2.826  37.018  11.526
73882W        W42256   9.149  39.946  10.974
73883W        W42257  33.978  29.572  14.368
73884W        W42258  34.481  19.124   2.277
73885W        W42259  28.177   2.374  11.454
73886W        W42260  20.090  36.539   1.861
73887W        W42261  42.422  36.422  13.433
73888W        W42262   1.741  12.257  11.411
73889W        W42263  36.046  17.139   0.826
73890W        W42264  20.190  18.700  12.399
73891W        W42265   1.378  11.164  11.097
73892W        W42266  22.028  27.563  12.843
73893W        W42267  17.692  27.096  12.046
73894W        W42268  40.818  24.490   3.791
73895W        W42269  26.657  24.118   4.164
73896W        W42270  44.945   5.291  10.575
73897W        W42271  21.718   5.787   0.796
73898W        W42272   9.327  31.481  12.940
73899W        W42273  33.030  30.574   0.955
73900W        W42274  24.629  22.684   2.231
73901W        W42275  22.551  36.049   4.817
73902W        W42276   1.447  17.797   0.348
73903W        W42277   3.948   8.731  12.885
73904W        W42278  43.018  36.947   1.390
73905W        W42279  34.425  44.330   3.664
73906W        W42280  34.880  21.145   1.754
73907W        W42281  17.236  39.413  12.983
73908W        W42282  42.001  23.173  14.331
73909W        W42283   2.351  30.059   3.183
73910W        W42284  31.065   6.877  13.997
73911W        W42285  19.254  27.941  13.365
73912W        W42286  37.876   4.876   0.440
73913W        W42287  31.048  21.576  12.405
73914W        W42288  19.721  37.955   9.950
73915W        W42289  19.675  26.028   0.871
73916W        W42290   1.925  28.100  14.410
73917W        W42291  35.896  41.913   3.667
73918W        W42292  24.712  44.408   2.834
73919W        W42293  21.705  33.481  12.063
73920W        W42294  10.205  42.959   3.314
73921W        W42295  14.758  39.819  12.094
73922W        W42296  14.825  30.473   2.734
73923W        W42297  40.902  34.964   4.801
73924W        W42298  44.827  44.883  10.925
73925W        W42299  28.115  34.902   4.252
73926W        W42300  39.998  20.046   2.767
73927W        W42301  43.855   2.249  11.559
73928W        W42302   5.337  44.827  13.323
73929W        W42303  18.123  40.981  14.366
73930W        W42304  30.631  19.554   0.930
73931W        W42305   4.856   6.284  11.915
73932W        W42306  44.760  27.961   2.839
73933W        W42307  31.492   8.688  14.356
73934W        W42308  21.056  18.784  12.375
73935W        W42309   2.361   4.903  11.576
73936W        W42310  36.054  36.393  13.064
73937W        W42311  30.087  36.552   1.289
73938W        W42312  17.616   1.772  14.385
73939W        W42313  25.200  32.075   3.867
73940W        W42314   1.330  15.117  12.014
73941W        W42315  20.037  39.376   9.519
73942W        W42316  17.799  12.822   4.819
73943W        W42317  38.462  35.862  10.427
73944W        W42318   1.259  23.638   2.248
73945W        W42319  12.240  24.484  14.468
73946W        W42320   5.911  33.512   1.876
73947W        W42321  42.022  16.675   3.705
73948W        W42322  16.236  22.191  14.793
73949W        W42323  36.351   9.381   4.251
73950W        W42324  36.858  10.732  10.603
73951W        W42325  17.609   7.671  13.453
73952W        W42326  31.071  31.416   4.294
73953W        W42327  11.334  22.524  13.329
73954W        W42328  19.653  31.130  13.339
73955W        W42329  19.779   6.415  13.313
73956W        W42330  20.146   2.471  11.984
73957W        W42331   9.169  15.173   0.779
73958W        W42332  16.105   7.191  10.538
73959W        W42333  12.726   6.918  11.046
73960W        W42334  19.176  43.769  13.947
73961W        W42335   3.248  23.640   2.194
73962W        W42336  32.105   5.341  11.068
73963W        W42337  33.994  21.533  10.922
73964W        W42338  15.247  25.016  13.838
73965W        W42339   3.300   9.659   1.280
73966W        W42340   4.868  18.282  12.492
73967W        W42341  29.635  40.542  11.459
73968W        W42342  34.426  18.568   1.807
73969W        W42343  35.981  41.011   1.232
73970W        W42344  36.559  40.028  11.524
73971W        W42345  25.078  34.476  11.408
73972W        W42346   9.320  40.844  11.129
73973W        W42347  24.101  28.663  14.450
73974W        W42348  36.053  32.093  10.928
73975W        W42349  38.509   6.870  10.550
73976W        W42350  28.087  20.679  10.007
73977W        W42351  20.033  26.480  10.524
73978W        W42352  38.936  21.676   1.336
73979W        W42353  15.789  31.143   1.261
73980W        W42354  11.277  39.984  14.279
73981W        W42355  25.209  34.907  14.480
73982W        W42356  17.114  28.177  13.997
73983W        W42357  27.108  28.984   3.164
73984W        W42358  31.083  36.351   3.636
73985W        W42359  35.537  23.562   2.209
73986W        W42360  42.023   0.471  13.469
73987W        W42361  40.461  26.494   2.674
73988W        W42362  31.926  12.638  14.786
73989W        W42363  15.108  24.023  13.040
73990W        W42364  24.000  31.576  13.400
73991W        W42365  43.935  40.503  14.832
73992W        W42366   3.847  29.436   4.216
73993W        W42367   8.659  30.111   1.414
73994W        W42368  17.680  39.314  11.485
73995W        W42369   5.933  25.470  11.510
73996W        W42370  39.861  31.009  13.442
73997W        W42371  21.243  40.479  11.512
73998W        W42372  10.219  42.338  12.045
73999W        W42373  17.139  30.559   3.717
74000W        W42374  36.547  18.105  13.467
74001W        W42375  25.568  17.078  13.535
74002W        W42376  27.043  44.386  12.037
74003W        W42377  28.057   4.703  10.931
74004W        W42378  29.556  37.032  13.948
74005W        W42379   4.262   6.728  10.469
74006W        W42380  39.318   0.978   9.929
74007W        W42381  20.610  13.729  10.444
74008W        W42382  13.834  29.021   2.218
74009W        W42383  24.180  10.679  14.927
74010W        W42384  42.381  18.789  13.314
74011W        W42385  22.008   2.880  14.808
74012W        W42386  43.004  30.098  14.011
74013W        W42387   3.319   3.714   3.673
74014W        W42388   0.779  38.427   2.322
74015W        W42389  33.592  19.235  11.042
74016W        W42390   0.382  37.553   3.154
74017W        W42391   1.408   6.378   0.384
74018W        W42392  43.485   8.845   5.190
74019W        W42393  18.566   6.229   1.434
74020W        W42394  23.145  39.927  11.486
74021W        W42395  44.891  35.592  13.882
74022W        W42396  44.824   8.838  14.369
74023W        W42397   4.704   0.769  10.919
74024W        W42398  12.688  22.141   4.293
74025W        W42399  38.547  32.607  12.097
74026W        W42400  31.423  16.308   4.116
74027W        W42401  11.738  33.883  14.004
74028W        W42402  13.267   9.660   1.928
74029W        W42403   5.898  14.615  10.566
74030W        W42404  14.331  20.664   4.215
74031W        W42405  32.994   6.749   1.293
74032W        W42406  13.744  14.171  13.351
74033W        W42407  31.442  41.029   3.300
74034W        W42408  18.279  40.054  13.812
74035W        W42409   7.858  30.499   0.877
74036W        W42410  20.141  22.541   1.378
74037W        W42411  39.390  21.140  10.045
74038W        W42412  26.018   8.284   3.690
74039W        W42413  30.006  15.613   9.943
74040W        W42414  36.370   1.812  10.958
74041W        W42415  37.509   5.734  14.786
74042W        W42416  42.512  22.090   0.906
74043W        W42417  14.593  29.609   2.797
74044W        W42418  20.531  21.576   3.293
74045W        W42419  21.108  36.441  12.967
74046W        W42420  18.791   7.702  14.406
74047W        W42421  17.282   6.230  13.889
74048W        W42422  34.603   5.260  11.062
74049W        W42423   3.868   5.924   0.831
74050W        W42424  27.008   4.894   3.655
74051W        W42425  21.088  32.079   2.218
74052W        W42426  21.020  25.484  11.429
74053W        W42427  30.086  39.484  12.011
74054W        W42428  42.407   9.837  13.005
74055W        W42429  27.505  29.071  11.009
74056W        W42430  32.967  13.661  13.009
74057W        W42431  34.083  10.375  13.882
74058W        W42432   9.773  43.991  12.958
74059W        W42433  25.992  34.888  13.978
74060W        W42434  22.122  20.752  13.840
74061W        W42435  14.632  29.136   3.781
74062W        W42436  30.955   8.837  14.304
74063W        W42437  11.855   7.888  14.815
74064W        W42438  42.016  17.576   0.806
74065W        W42439  38.955  28.566  11.978
74066W        W42440   3.379   9.335   0.801
74067W        W42441  10.142   0.876   5.300
74068W        W42442   6.412  17.739   3.769
74069W        W42443  24.485  35.363  11.971
74070W        W42444  13.209  11.831   3.792
74071W        W42445   9.195  27.654   3.225
74072W        W42446   2.918   1.876   3.281
74073W        W42447  16.246  31.925  14.305
74074W        W42448  36.354  42.911  10.624
74075W        W42449  34.867  11.728  11.557
74076W        W42450  30.632   6.204   2.784
74077W        W42451  10.868  34.484  12.827
74078W        W42452  36.930   6.738   2.808
74079W        W42453  29.510  26.524   2.285
74080W        W42454  18.153   7.398  10.608
74081W        W42455  11.300  15.232   1.225
74082W        W42456  16.647  33.445  14.938
74083W        W42457   9.658  30.977  13.903
74084W        W42458   0.263   6.860   2.258
74085W        W42459  40.428  44.888   1.385
74086W        W42460  22.642  44.375  13.977
74087W        W42461  12.143  33.452  11.398
74088W        W42462  21.566  20.618   4.207
74089W        W42463  32.969  43.403   2.286
74090W        W42464  17.295   0.452  11.035
74091W        W42465  42.435  26.495  10.950
74092W        W42466   8.667  34.584  10.410
74093W        W42467  13.607  11.714   4.132
74094W        W42468  19.197  14.819   3.794
74095W        W42469   2.306  21.186   2.817
74096W        W42470  25.144  15.106  12.998
74097W        W42471  12.719  37.530  13.893
74098W        W42472  19.740  40.417  14.953
74099W        W42473  34.432   0.353  11.018
74100W        W42474  38.477  44.851  12.084
74101W        W42475  29.542  35.406  12.880
74102W        W42476  38.334  42.789   1.718
74103W        W42477  18.678  36.587  14.359
74104W        W42478  33.115  14.800  10.557
74105W        W42479  34.493  24.145   4.777
74106W        W42480  23.634   1.320   3.275
74107W        W42481  30.985  43.797   0.407
74108W        W42482  22.626  34.377  14.954
74109W        W42483  23.083  42.424   1.786
74110W        W42484   7.278  17.289  14.759
74111W        W42485  37.065   1.732   3.271
74112W        W42486  25.019  37.830  13.456
74113W        W42487  30.420  24.572  13.423
74114W        W42488  36.878  26.509   3.646
74115W        W42489  33.532  27.950  11.127
74116W        W42490   8.182  29.533  13.495
74117W        W42491  20.539  33.096   1.778
74118W        W42492  43.482  28.667   2.723
74119W        W42493   5.274  23.516   0.257
74120W        W42494   8.262  34.541   1.413
74121W        W42495  30.467  26.092  13.373
74122W        W42496   0.284  25.149  13.991
74123W        W42497  15.647  29.665  10.463
74124W        W42498  22.554  22.138   2.384
74125W        W42499  25.023  39.813   0.745
74126W        W42500  25.151  29.545   5.085
74127W        W42501  17.145  17.769   2.185
74128W        W42502  19.575  15.091  11.444
74129W        W42503  26.000  33.891  14.894
74130W        W42504  13.728  20.708   2.863
74131W        W42505  13.628  22.654   2.672
74132W        W42506  40.354  37.879  14.917
74133W        W42507  30.074  35.923   2.851
74134W        W42508  23.527  16.801   5.123
74135W        W42509  17.794   7.245  11.974
74136W        W42510  33.483  32.927  11.899
74137W        W42511  10.796  24.556   3.778
74138W        W42512  30.413  24.720  11.893
74139W        W42513  22.111  36.887   0.903
74140W        W42514  20.076   3.871   4.612
74141W        W42515   8.306  42.869  11.469
74142W        W42516  20.681   7.822   3.242
74143W        W42517  14.785  24.489  13.928
74144W        W42518  34.938  41.343   5.160
74145W        W42519  23.659   2.847   3.262
74146W        W42520  36.984  26.154   4.303
74147W        W42521  12.678   8.379   0.837
74148W        W42522   5.381   8.239   2.322
74149W        W42523  22.148   6.288  12.046
74150W        W42524  25.088  23.510   3.837
74151W        W42525  36.068  34.865   0.255
74152W        W42526  36.054  26.157  11.583
74153W        W42527  13.742  21.209   1.319
74154W        W42528  29.137   4.423   1.323
74155W        W42529  42.900  38.469  12.964
74156W        W42530  29.469  17.071   0.792
74157W        W42531  25.154  17.701  10.624
74158W        W42532   2.852   0.842  12.490
74159W        W42533  12.224  20.643  14.476
74160W        W42534  23.684  21.642   1.837
74161W        W42535  35.561  13.801   2.776
74162W        W42536  37.843  31.988   4.732
74163W        W42537  27.636   8.195   0.417
74164W        W42538  37.861  17.186  14.925
74165W        W42539  38.028  28.098  10.967
74166W        W42540  43.479  32.404  11.484
74167W        W42541  26.091  20.717  12.516
74168W        W42542  37.052  43.505  12.358
74169W        W42543   9.808  20.167   2.405
74170W        W42544  12.159  44.454  12.921
74171W        W42545  30.593  44.842   2.785
74172W        W42546  34.992  18.580  11.975
74173W        W42547  42.842  13.780   2.288
74174W        W42548  42.902  14.299   1.311
74175W        W42549  18.615   2.825   4.831
74176W        W42550  23.525  43.005   5.225
74177W        W42551  16.206   9.861  11.111
74178W        W42552  15.321   8.807  12.468
74179W        W42553  26.997  35.525   2.298
74180W        W42554   2.295  26.029  14.288
74181W        W42555   7.289   9.716   4.145
74182W        W42556  41.832  16.738  10.587
74183W        W42557  38.342  22.178  14.887
74184W        W42558  32.563  23.499  11.106
74185W        W42559   9.298   1.308   2.369
74186W        W42560  15.210  10.769   0.283
74187W        W42561  21.090  34.108   5.129
74188W        W42562  26.997  38.450  11.463
74189W        W42563  27.168  30.118  12.056
74190W        W42564  27.672  23.620   3.715
74191W        W42565  40.319  40.985   0.312
74192W        W42566  38.914  30.981  11.075
74193W        W42567  25.515  11.317  12.523
74194W        W42568   5.926  32.941   0.915
74195W        W42569  38.537  33.095  13.464
74196W        W42570   2.339  36.358  12.935
74197W        W42571  39.039   5.839  13.874
74198W        W42572   4.262   1.268   3.180
74199W        W42573  42.383  10.327  11.565
74200W        W42574   2.903  42.325   4.344
74201W        W42575   6.313  28.599  14.424
74202W        W42576  25.078  38.928   4.692
74203W        W42577  29.461  37.425  13.312
74204W        W42578  42.014  22.591  12.386
74205W        W42579  23.563  22.165  10.419
74206W        W42580   9.384  12.117   3.349
74207W        W42581  19.174  42.953   5.093
74208W        W42582  39.894  14.833  12.827
74209W        W42583  17.619  28.666  12.947
74210W        W42584  18.679  14.099   2.349
74211W        W42585  39.361  36.027   1.867
74212W        W42586  14.699  15.099   1.220
74213W        W42587   7.242  11.771  10.533
74214W        W42588  42.019  25.642  12.381
74215W        W42589  31.594  37.457  10.614
74216W        W42590  43.304  23.055  14.966
74217W        W42591  33.437   2.263   0.746
74218W        W42592   7.821  38.517  11.927
74219W        W42593  43.854  32.470  13.840
74220W        W42594  17.730  29.438  14.784
74221W        W42595  15.601  36.918   1.390
74222W        W42596  11.300  13.672   1.291
74223W        W42597   3.311   6.400  14.945
74224W        W42598   1.816   6.728  11.588
74225W        W42599  31.641   2.416   4.227
74226W        W42600  31.003   8.851  13.035
74227W        W42601  22.073  34.448  13.905
74228W        W42602   1.811  10.842   1.914
74229W        W42603   2.245   0.348  12.428
74230W        W42604   7.756  28.035   3.793
74231W        W42605  35.392  30.430  14.893
74232W        W42606  44.926  37.507  13.356
74233W        W42607  12.634  18.164  12.498
74234W        W42608   0.365   6.692  13.520
74235W        W42609  27.963  25.052   4.780
74236W        W42610  43.919  18.203  13.833
74237W        W42611  28.946  39.521  12.472
74238W        W42612  12.695  43.307   0.440
74239W        W42613  16.782   5.278  12.507
74240W        W42614   0.490  31.511   0.393
74241W        W42615  25.057  19.063  11.938
74242W        W42616  21.074   9.165   3.146
74243W        W42617   3.294  21.248  11.116
74244W        W42618   7.882   0.898  13.498
74245W        W42619   6.735  39.485   0.402
74246W        W42620  43.799  35.088  13.453
74247W        W42621   5.429  10.194  13.884
74248W        W42622   1.368   0.413  14.995
74249W        W42623  15.083  39.809   2.221
74250W        W42624  11.315  19.139   3.365
74251W        W42625  29.647  36.977  10.413
74252W        W42626   5.207  24.497  13.534
74253W        W42627  16.712  20.054   0.247
74254W        W42628  36.419   1.887   2.835
74255W        W42629  19.693  34.880  12.378
74256W        W42630   3.826  28.061   0.828
74257W        W42631  35.400  14.825   0.352
74258W        W42632   9.803  38.837  13.355
74259W        W42633   1.242  27.547  13.461
74260W        W42634  40.395   3.740   3.871
74261W        W42635  29.496  14.207  14.414
74262W        W42636  26.970  43.898  13.018
74263W        W42637  10.240  13.125   2.842
74264W        W42638  30.096  26.654  10.644
74265W        W42639  32.416   6.295  14.994
74266W        W42640   5.808  31.552   3.841
74267W        W42641  20.733  16.756   0.344
74268W        W42642   7.262  44.408  14.953
74269W        W42643  42.433  39.908   1.440
74270W        W42644  30.650  10.244   1.816
74271W        W42645  38.921  23.690   3.286
74272W        W42646  40.467  26.121  13.534
74273W        W42647  35.933  34.446  13.544
74274W        W42648  31.115  35.038  13.924
74275W        W42649  23.984  10.743   4.313
74276W        W42650  30.581   5.843   0.253
74277W        W42651  13.331  35.390   4.131
74278W        W42652  41.366  38.874  14.019
74279W        W42653  10.287  28.137  14.291
74280W        W42654  39.011  27.687  11.044
74281W        W42655  28.504   4.293  11.963
74282W        W42656  25.025  43.406   0.386
74283W        W42657  30.082  31.913  10.551
74284W        W42658   6.284   7.228   3.791
74285W        W42659   8.388  29.437   0.916
74286W        W42660   4.356  18.158   0.464
74287W        W42661  14.130  26.514   3.219
74288W        W42662   5.197  30.448   2.346
74289W        W42663  12.220  33.949  13.881
74290W        W42664  26.136  27.565   1.269
74291W        W42665  23.173  14.152  11.468
74292W        W42666  15.187  44.333   0.789
74293W        W42667  23.658  23.024   3.304
74294W        W42668   0.251  28.182  11.117
74295W        W42669  23.185  13.709   2.299
74296W        W42670  24.112   8.372   2.692
74297W        W42671   9.866   1.453   2.218
74298W        W42672  26.063  11.260   3.346
74299W        W42673  44.338  36.041  10.935
74300W        W42674   3.239  21.101   4.697
74301W        W42675   2.917  28.154  13.432
74302W        W42676   5.213  33.557  14.406
74303W        W42677  20.191   5.361   4.812
74304W        W42678  17.709  29.479   0.448
74305W        W42679   3.255  34.916   1.367
74306W        W42680  32.048  20.216   5.162
74307W        W42681   0.410  36.516   2.761
74308W        W42682   6.727  32.122   0.913
74309W        W42683  18.152  14.604  10.469
74310W        W42684  11.272  36.379   1.866
74311W        W42685   7.720  38.464   2.736
74312W        W42686  24.619  36.489  11.583
74313W        W42687  41.928  11.273  11.522
74314W        W42688  18.648  33.010  11.468
74315W        W42689  23.020  40.946   3.704
74316W        W42690  22.205  39.015   2.705
74317W        W42691  27.169  12.688   0.278
74318W        W42692  41.982  29.543  14.851
74319W        W42693  13.704  15.326   0.774
74320W        W42694  29.463  34.492   3.170
74321W        W42695  32.490   2.370  13.461
74322W        W42696  36.392  40.026   2.849
74323W        W42697  32.459  39.413   1.435
74324W        W42698  37.492  43.386  11.954
74325W        W42699  27.097   5.420  12.073
74326W        W42700  41.001  38.824   1.374
74327W        W42701  29.487  25.022   2.859
74328W        W42702  20.158  39.825  10.059
74329W        W42703  36.504  23.175   1.813
74330W        W42704  32.455  20.043  11.479
74331W        W42705  28.658  31.124  13.351
74332W        W42706   5.375  41.408  13.548
74333W        W42707  17.595   6.760  14.803
74334W        W42708  36.416   7.809  11.939
74335W        W42709   6.702   6.294  14.499
74336W        W42710  22.199  42.028   0.395
74337W        W42711  35.058  15.789   2.752
74338W        W42712  30.029  37.030   2.179
74339W        W42713  17.714  40.347  14.290
74340W        W42714   9.286  36.985  13.396
74341W        W42715   2.380  19.649   3.815
74342W        W42716  32.610   4.225  10.949
74343W        W42717  30.644  38.393  13.360
74344W        W42718   6.766  29.025   4.738
74345W        W42719  11.749  15.132  10.631
74346W        W42720   8.698   0.986   0.301
74347W        W42721  35.881  35.451   2.711
74348W        W42722  40.529  37.947  11.412
74349W        W42723  15.322  30.097   2.781
74350W        W42724   6.908  23.711  11.033
74351W        W42725   4.216   8.707   3.279
74352W        W42726   6.735  16.669  12.964
74353W        W42727   4.916  15.217   1.841
74354W        W42728  29.140  23.093   4.767
74355W        W42729   1.783  13.716   3.811
74356W        W42730  16.592   6.389   0.869
74357W        W42731  34.481  22.648   3.685
74358W        W42732  14.799  12.623   5.127
74359W        W42733  32.972  42.994  14.820
74360W        W42734  14.189   3.357   4.838
74361W        W42735  29.654  16.215   4.716
74362W        W42736  14.120  17.572  14.371
74363W        W42737  24.186  33.603  14.340
74364W        W42738  22.738  10.692   4.817
74365W        W42739  39.557  34.986   2.359
74366W        W42740   0.836  44.954  13.451
74367W        W42741  39.497  24.201   1.422
74368W        W42742   2.233  25.559   0.324
74369W        W42743  37.974  40.815   1.725
74370W        W42744  21.214  35.510  13.988
74371W        W42745   1.966  34.436  12.054
74372W        W42746  35.455  26.593  10.508
74373W        W42747  42.449  18.290  14.354
74374W        W42748  36.458   2.918   1.822
74375W        W42749  16.133  18.566  12.967
74376W        W42750  19.047  44.989   2.252
74377W        W42751  36.467  29.108   2.682
74378W        W42752  10.206  33.044  13.944
74379W        W42753  36.551  19.146  12.536
74380W        W42754  29.939  42.888  13.507
74381W        W42755  34.951  10.813   0.807
74382W        W42756   5.259  39.414  10.406
74383W        W42757  38.962  17.777   0.323
74384W        W42758  41.336  24.503  12.909
74385W        W42759  38.861   5.274   0.407
74386W        W42760  32.443  24.139   3.668
74387W        W42761   3.752  14.136  12.514
74388W        W42762  43.995  43.810  13.427
74389W        W42763  20.164  20.657  11.860
74390W        W42764  25.563  15.095  13.490
74391W        W42765  12.753  38.382   2.201
74392W        W42766   2.336  42.831   3.296
74393W        W42767  14.591   5.431  12.540
74394W        W42768  13.234  15.681  13.429
74395W        W42769   7.891  27.665   9.638
74396W        W42770   6.345  30.616   0.269
74397W        W42771   9.204  22.095  11.055
74398W        W42772   1.950  42.949   3.331
74399W        W42773  30.492   1.385   1.216
74400W        W42774  22.507  26.544  12.414
74401W        W42775   8.790  18.667   1.828
74402W        W42776   1.820   9.695  13.958
74403W        W42777  29.005  31.055   0.838
74404W        W42778  26.640  28.971  14.812
74405W        W42779   2.273  17.067   2.312
74406W        W42780  44.933   8.327   1.411
74407W        W42781  36.873  25.017  14.902
74408W        W42782  32.917  11.829  14.782
74409W        W42783  33.483   6.249  12.975
74410W        W42784  21.558  24.135  12.383
74411W        W42785  31.607  31.613  11.090
74412W        W42786  25.643  21.526  11.532
74413W        W42787  44.407  32.086  10.121
74414W        W42788  42.396   9.179  14.831
74415W        W42789   1.762  30.601  13.402
74416W        W42790  44.394  21.722  14.931
74417W        W42791  18.115   0.826   3.779
74418W        W42792  19.699  40.385   5.298
74419W        W42793  44.385   4.873  13.474
74420W        W42794   1.823   9.221  13.531
74421W        W42795  44.357  25.087  11.858
74422W        W42796  26.612  29.644  11.059
74423W        W42797   4.734  37.477  14.355
74424W        W42798  18.279  25.158  13.051
74425W        W42799   1.779   1.940   3.255
74426W        W42800  26.171  28.621  12.068
74427W        W42801  15.240  37.071  10.471
74428W        W42802   7.305  16.254   1.934
74429W        W42803  34.422  14.669   3.193
74430W        W42804  19.198  43.913  10.933
74431W        W42805  24.088  21.028   5.310
74432W        W42806  19.552  42.019  14.487
74433W        W42807  28.077   3.818   0.436
74434W        W42808  12.759  19.233   2.239
74435W        W42809  36.412  18.258   3.815
74436W        W42810  43.773  31.974  11.039
74437W        W42811  19.671   1.764   2.731
74438W        W42812  32.545  41.031  11.932
74439W        W42813   7.215  17.621  10.417
74440W        W42814  27.152   7.417   3.157
74441W        W42815  19.040  34.996   1.342
74442W        W42816  15.157  17.555   0.851
74443W        W42817  37.534  22.011  14.314
74444W        W42818  22.645  30.495  14.509
74445W        W42819  27.093  17.680   0.453
74446W        W42820  20.270  44.919  10.999
74447W        W42821   8.876  19.695  11.993
74448W        W42822   2.389  32.039   4.784
74449W        W42823  25.632   5.722   4.151
74450W        W42824  34.112  15.731  11.052
74451W        W42825  18.639  16.573  14.370
74452W        W42826  28.073   2.450   1.800
74453W        W42827  14.108  40.897   0.780
74454W        W42828   0.910  16.180  13.460
74455W        W42829  22.159   4.798   0.252
74456W        W42830  23.638  23.668  14.461
74457W        W42831  29.095  36.072  10.610
74458W        W42832   5.322   0.295  14.325
74459W        W42833  24.037  32.104  11.066
74460W        W42834   6.852  33.567  13.946
74461W        W42835  43.831  33.603  11.553
74462W        W42836   8.366  21.537  12.045
74463W        W42837   7.861  23.110  13.356
74464W        W42838  20.224  41.025   4.122
74465W        W42839   4.834  32.888  10.988
74466W        W42840  17.220  14.599  10.614
74467W        W42841  42.428   9.856   4.651
74468W        W42842  22.529  37.057   4.751
74469W        W42843  27.668  34.082   3.263
74470W        W42844   1.823   4.879   3.820
74471W        W42845   3.224  10.759  12.473
74472W        W42846  38.533  35.086   0.351
74473W        W42847  21.115  31.517   0.749
74474W        W42848   5.781  32.409   3.155
74475W        W42849  31.940  39.819   2.695
74476W        W42850  39.376  25.089  14.452
74477W        W42851  41.323   0.388   4.698
74478W        W42852   7.191  25.990   3.733
74479W        W42853  11.663  30.481   5.203
74480W        W42854   8.674   1.951  11.476
74481W        W42855  39.903  18.791   4.128
74482W        W42856  10.840  28.440  10.424
74483W        W42857  31.412  29.053   0.312
74484W        W42858  30.487  38.408  10.946
74485W        W42859  25.554   4.212   2.308
74486W        W42860  29.588  14.644  10.548
74487W        W42861  21.605  10.731  11.570
74488W        W42862  33.475  37.560   4.696
74489W        W42863  43.272   1.455  11.029
74490W        W42864  23.685   7.202   1.350
74491W        W42865  16.699  29.957  12.949
74492W        W42866  34.416   5.873  13.959
74493W        W42867   8.314   0.342   1.723
74494W        W42868  35.516  12.747   1.387
74495W        W42869  44.381  15.167   2.796
74496W        W42870  19.212  42.013  12.448
74497W        W42871  23.649  24.486  11.591
74498W        W42872  29.607   9.880   4.615
74499W        W42873  35.550  10.719  12.554
74500W        W42874   2.468  19.550   0.397
74501W        W42875  32.914  27.646  12.023
74502W        W42876  33.388  38.865  11.870
74503W        W42877  28.106  15.158   4.715
74504W        W42878  34.909   4.378  12.074
74505W        W42879  35.883  19.747   4.314
74506W        W42880  17.651  30.459   0.306
74507W        W42881   8.183   2.302  13.929
74508W        W42882  20.696  18.565   0.371
74509W        W42883   6.227  24.020   3.154
74510W        W42884  23.594  28.576  12.861
74511W        W42885  23.183  17.772   1.413
74512W        W42886  37.890  33.548   0.799
74513W        W42887  27.534  29.152  13.879
74514W        W42888  32.523  14.607   0.963
74515W        W42889  27.517   6.331  14.343
74516W        W42890  12.171  24.048  11.100
74517W        W42891  13.303  43.869   3.252
74518W        W42892  25.199  17.721   3.315
74519W        W42893  35.019  26.051   3.804
74520W        W42894  41.924   7.790  11.919
74521W        W42895  23.602   0.938  10.992
74522W        W42896  27.125   7.718   2.307
74523W        W42897  14.104  23.995   4.201
74524W        W42898  28.089   6.319  12.355
74525W        W42899  38.497  29.154  12.042
74526W        W42900   0.472   4.307  12.441
74527W        W42901  11.366   0.459   2.871
74528W        W42902  20.658  43.810  13.033
74529W        W42903  39.340  10.382  14.366
74530W        W42904  26.673  43.382  13.895
74531W        W42905  29.992  23.494  14.304
74532W        W42906  22.657  21.073  14.767
74533W        W42907  35.432  28.984   2.679
74534W        W42908   3.276  13.351  13.052
74535W        W42909  35.477  33.075   0.742
74536W        W42910  35.870  10.650   1.435
74537W        W42911  32.432  17.592  13.864
74538W        W42912  24.131  21.067  13.523
74539W        W42913  23.515  16.145   2.672
74540W        W42914  35.447  10.176   2.699
74541W        W42915  31.142  22.611   4.221
74542W        W42916  19.104  35.370  11.498
74543W        W42917  31.630  11.153   2.765
74544W        W42918  31.432   9.721   3.656
74545W        W42919   3.922  33.026  10.643
74546W        W42920   4.746   6.840   2.354
74547W        W42921   6.776  28.484   9.955
74548W        W42922  25.660  35.462   1.742
74549W        W42923   6.901  26.206   2.744
74550W        W42924  23.549  32.474   0.299
74551W        W42925   7.862  32.451   0.734
74552W        W42926  20.536  27.599  13.503
74553W        W42927  34.877  20.714  12.371
74554W        W42928   5.233  13.168   3.323
74555W        W42929  23.570   0.897  13.389
74556W        W42930  22.680  21.179   2.802
74557W        W42931  27.119  44.768   2.286
74558W        W42932  27.569   8.837   2.372
74559W        W42933  27.587   3.940  13.036
74560W        W42934  19.655  38.920  10.079
74561W        W42935  18.641   7.710  10.926
74562W        W42936  36.370   6.760   0.888
74563W        W42937   4.384   6.893  12.487
74564W        W42938  33.921  26.690  12.964
74565W        W42939  19.071  39.466  13.464
74566W        W42940   5.863  15.646   5.144
74567W        W42941  12.163  13.334   2.259
74568W        W42942  27.949  12.292   3.647
74569W        W42943  24.090  32.136   3.656
74570W        W42944  30.125   7.221  13.350
74571W        W42945   8.347   7.894  14.978
74572W        W42946  21.729  33.990  12.905
74573W        W42947  43.452  37.081  14.430
74574W        W42948  36.448  16.776  14.791
74575W        W42949  10.755  25.084   0.741
74576W        W42950  18.293  13.841  13.813
74577W        W42951  35.576  33.923  11.002
74578W        W42952  37.557  33.130  12.017
74579W        W42953  41.843  44.934  12.862
74580W        W42954  24.622  19.740   4.172
74581W        W42955  20.165   5.726   3.261
74582W        W42956  42.897  39.031  12.412
74583W        W42957  31.585   8.842  14.999
74584W        W42958  15.254  34.085  14.465
74585W        W42959  22.594  17.716   2.346
74586W        W42960  13.265  37.893  12.041
74587W        W42961  36.938   4.229  10.644
74588W        W42962   1.281  44.501  13.329
74589W        W42963  34.990  33.048  12.450
74590W        W42964   0.468  27.122  14.368
74591W        W42965  19.720  42.419  11.022
74592W        W42966  23.686  39.909  12.918
74593W        W42967  39.454  39.455  13.457
74594W        W42968  38.403   5.874   5.119
74595W        W42969  18.742   8.178  10.966
74596W        W42970  32.080   1.771   3.648
74597W        W42971  27.667  16.147  11.407
74598W        W42972  15.601  30.962  10.992
74599W        W42973  22.683  43.368  13.961
74600W        W42974  40.905  41.974  10.908
74601W        W42975   6.305  27.448  14.942
74602W        W42976  44.293  17.738  14.875
74603W        W42977  37.890  16.736  12.067
74604W        W42978  16.808  32.477  10.965
74605W        W42979  13.133   8.164  11.490
74606W        W42980  22.995  29.662   4.792
74607W        W42981  23.180   7.790   3.825
74608W        W42982  41.456   3.434  13.437
74609W        W42983  21.253  44.797  11.443
74610W        W42984  13.610  30.593   0.770
74611W        W42985  35.064  34.402   2.364
74612W        W42986  39.013   8.212   1.764
74613W        W42987  16.809  24.539  11.990
74614W        W42988   1.447   2.931   1.216
74615W        W42989  28.617   5.364  10.981
74616W        W42990  23.202  29.108   0.759
74617W        W42991  22.096  13.658   3.297
74618W        W42992   6.731  32.632   4.115
74619W        W42993  17.205   5.927  10.040
74620W        W42994  14.753  13.795   3.191
74621W        W42995  32.543  16.270   4.672
74622W        W42996  10.690  13.782  13.491
74623W        W42997  32.128   6.811   3.694
74624W        W42998  10.326  27.024  14.863
74625W        W42999  37.866  30.941  12.052
74626W        W43000  11.641   5.858  11.124
74627W        W43001  10.773  12.217  14.402
74628W        W43002   2.400  39.441   1.299
74629W        W43003  34.055  32.973  13.873
74630W        W43004  36.522  25.103  11.945
74631W        W43005   2.258  26.697   3.822
74632W        W43006  33.079   1.740   2.241
74633W        W43007  20.071  21.523  14.786
74634W        W43008  34.906  36.925  14.002
74635W        W43009  42.297   7.216  11.590
74636W        W43010  19.602  38.021   2.785
74637W        W43011  41.876  32.416   2.194
74638W        W43012   4.295  16.191   3.279
74639W        W43013  38.912  35.440  10.433
74640W        W43014  30.977  17.258  10.049
74641W        W43015  21.155  22.638  13.977
74642W        W43016   5.817  12.654   2.840
74643W        W43017   1.325   4.803  11.862
74644W        W43018  15.178  40.860   2.280
74645W        W43019  22.608  24.595   4.672
74646W        W43020  25.970  30.145   3.814
74647W        W43021   4.937  41.457   1.851
74648W        W43022  13.336  40.957  11.388
74649W        W43023   2.838  29.103   1.868
74650W        W43024  13.841  11.690  12.969
74651W        W43025  19.138  42.280  14.365
74652W        W43026   3.409  44.462   2.210
74653W        W43027  25.126   6.265  11.945
74654W        W43028  40.941  32.393  10.903
74655W        W43029  12.792  35.017   3.780
74656W        W43030  16.743   6.881  11.474
74657W        W43031  40.926  42.452   3.270
74658W        W43032  15.313   4.833  13.051
74659W        W43033  16.162  11.799   3.313
74660W        W43034  20.215  19.086  14.915
74661W        W43035  29.633   4.285  14.853
74662W        W43036  29.534  39.528  10.496
74663W        W43037  11.751  25.476  10.528
74664W        W43038  36.553  26.205  11.447
74665W        W43039  36.873  37.453  14.289
74666W        W43040  39.551   8.294   0.925
74667W        W43041   9.251   1.456   3.726
74668W        W43042  39.548  12.690  14.783
74669W        W43043   2.911  16.285  13.932
74670W        W43044  43.857   8.659  12.567
74671W        W43045  11.647  23.621  11.866
74672W        W43046  19.218  34.598  14.358
74673W        W43047  40.970   7.356  12.893
74674W        W43048  24.193  34.492   1.284
74675W        W43049  36.843  28.023   3.247
74676W        W43050  28.655  29.497   4.235
74677W        W43051  37.417  43.435   4.665
74678W        W43052   1.863  43.484   1.266
74679W        W43053  33.077  19.561  11.946
74680W        W43054   7.268  12.255  14.885
74681W        W43055  37.949  39.397   0.949
74682W        W43056  20.126  33.385  13.388
74683W        W43057  43.493  25.157  12.968
74684W        W43058  15.273  29.952  13.048
74685W        W43059  22.161  29.479   1.923
74686W        W43060   4.355  44.271  14.344
74687W        W43061  30.058  43.822   4.829
74688W        W43062  12.769  30.101  13.987
74689W        W43063  35.943  37.056   2.204
74690W        W43064  36.931  14.706  14.803
74691W        W43065   7.892   2.896   4.791
74692W        W43066  20.700   1.929   2.343
74693W        W43067   9.859   3.257  13.857
74694W        W43068   2.451  28.129   3.825
74695W        W43069   1.943  20.533  11.934
74696W        W43070  16.173  42.904  13.945
74697W        W43071  15.184   0.435  11.041
74698W        W43072  13.257  30.114  14.854
74699W        W43073  21.078  38.975  12.541
74700W        W43074  42.856   0.413  14.503
74701W        W43075  17.711  32.044  13.895
74702W        W43076   1.357  12.805  13.332
74703W        W43077  11.727  22.676  14.821
74704W        W43078  38.031  34.948   4.187
74705W        W43079  38.484  35.529   4.242
74706W        W43080   7.310   9.259   1.748
74707W        W43081  34.541  30.014  10.541
74708W        W43082  18.216  16.695  13.907
74709W        W43083  27.661  20.262  13.056
74710W        W43084  10.756  39.514  13.859
74711W        W43085  31.621   1.767  14.415
74712W        W43086  39.391  23.075  11.520
74713W        W43087  30.606  43.481  12.876
74714W        W43088  28.056  35.396  12.863
74715W        W43089  30.043   6.766  14.283
74716W        W43090  34.921  32.502  12.837
74717W        W43091  29.136   3.355   0.817
74718W        W43092   6.347  33.884  12.831
74719W        W43093  44.867  38.507   4.633
74720W        W43094  25.022  21.128   2.387
74721W        W43095   0.988   4.791  14.854
74722W        W43096  37.384  42.921   1.803
74723W        W43097  34.056  36.984  10.631
74724W        W43098  43.955  36.036   0.417
74725W        W43099   1.953   4.927   3.168
74726W        W43100  40.003  28.477   3.266
74727W        W43101  17.120  31.056  11.114
74728W        W43102   5.348  11.806   4.776
74729W        W43103  29.551   0.479   0.914
74730W        W43104  41.391  24.529  11.119
74731W        W43105   3.275  28.003  13.326
74732W        W43106  31.913  37.918  12.841
74733W        W43107  12.631   8.666  13.937
74734W        W43108  12.664   3.305  12.485
74735W        W43109  34.051   0.443   4.787
74736W        W43110  44.906  43.904   4.820
74737W        W43111  43.768   2.822   0.440
74738W        W43112   6.283  44.494  14.992
74739W        W43113  23.506  41.295  11.478
74740W        W43114  25.711  27.104   2.870
74741W        W43115  10.685  43.371  12.854
74742W        W43116  12.255  10.174  13.803
74743W        W43117  37.944  16.653  13.361
74744W        W43118  11.860  39.469   0.732
74745W        W43119   7.691   8.832  13.959
74746W        W43120   3.806  18.225  14.949
74747W        W43121  41.427  33.114   1.248
74748W        W43122  25.574   1.345  13.899
74749W        W43123   3.849  36.054   0.955
74750W        W43124  39.486  12.707   3.731
74751W        W43125   4.883   6.799   4.344
74752W        W43126   2.374  40.391   3.863
74753W        W43127  40.407  44.294   1.778
74754W        W43128  43.365   5.235  12.866
74755W        W43129  42.436   9.227  10.988
74756W        W43130  19.249   5.922   0.822
74757W        W43131  38.476   4.421   2.674
74758W        W43132  43.394  10.307  13.834
74759W        W43133  43.900  14.196  12.989
74760W        W43134   2.818  29.042  13.505
74761W        W43135  21.123  29.438   3.250
74762W        W43136  34.545  20.168  11.543
74763W        W43137  11.287  27.130  11.379
74764W        W43138  18.119  40.033  13.479
74765W        W43139  33.955   8.847  13.498
74766W        W43140  41.874  17.631  10.483
74767W        W43141  18.158  32.623   2.361
74768W        W43142  39.979   4.370   0.448
74769W        W43143  24.093  43.317  12.976
74770W        W43144  43.956  20.206  14.476
74771W        W43145  29.120  12.174  12.900
74772W        W43146  22.193  29.473  12.350
74773W        W43147  36.566  35.081  12.879
74774W        W43148  16.300  37.915  10.560
74775W        W43149  37.896  33.511  13.333
74776W        W43150  27.502   7.838   1.698
74777W        W43151   7.203  16.143   2.296
74778W        W43152  11.761  28.462  14.869
74779W        W43153  30.621  12.727   0.394
74780W        W43154  36.406  19.584   3.811
74781W        W43155   1.457  31.580  12.966
74782W        W43156  43.779  34.381   1.308
74783W        W43157   5.859   8.295  10.476
74784W        W43158   6.861  15.120   4.618
74785W        W43159  32.516  24.638  12.962
74786W        W43160  32.545   1.292   3.309
74787W        W43161  21.030   8.169  14.984
74788W        W43162  15.095  38.938   2.371
74789W        W43163  32.526  30.060  12.001
74790W        W43164  43.309  11.628  13.884
74791W        W43165  24.567  21.571   1.315
74792W        W43166  20.109  21.587   4.171
74793W        W43167  10.370  11.272  12.987
74794W        W43168  19.682  33.983  13.334
74795W        W43169  23.171  37.422   3.174
74796W        W43170  39.831  44.770  12.875
74797W        W43171  20.706  32.461  13.490
74798W        W43172  37.371  37.888   5.233
74799W        W43173  37.900   5.321  10.905
74800W        W43174  14.117   1.442   3.645
74801W        W43175  23.698  38.968   3.820
74802W        W43176  27.500   4.219  13.870
74803W        W43177  24.087  29.153  12.566
74804W        W43178  39.948  23.105  12.923
74805W        W43179  20.662  32.966   2.286
74806W        W43180  12.141  40.448  14.795
74807W        W43181  14.171   2.833  10.630
74808W        W43182  29.166  23.077  14.945
74809W        W43183  41.463  19.757   1.863
74810W        W43184  29.503  28.934  14.291
74811W        W43185   6.259  17.184   0.951
74812W        W43186   2.816  40.957  10.588
74813W        W43187  27.583   8.245  10.452
74814W        W43188  10.793   3.329  12.385
74815W        W43189   6.270  11.291  12.457
74816W        W43190   7.276  37.975  12.978
74817W        W43191  34.436   8.834   0.779
74818W        W43192   6.306  44.502  14.369
74819W        W43193  19.200  24.080  14.504
74820W        W43194  35.965   7.357  14.357
74821W        W43195  25.161  24.188  12.916
74822W        W43196  15.319  29.438  14.322
74823W        W43197  24.611  26.574   3.729
74824W        W43198  14.719  41.042  11.373
74825W        W43199  15.617  38.459  12.043
74826W        W43200  40.992   2.721  13.512
74827W        W43201  30.566  19.165   4.252
74828W        W43202  11.665  32.576   4.817
74829W        W43203  18.759  22.050   3.793
74830W        W43204  31.127  33.459   1.786
74831W        W43205  35.477  44.889  13.923
74832W        W43206  28.561  27.572   1.436
74833W        W43207  34.887  12.298  13.013
74834W        W43208  36.400  26.504   4.156
74835W        W43209  25.162   7.805   2.824
74836W        W43210   3.453  43.422  14.975
74837W        W43211  23.225   0.466   1.738
74838W        W43212  15.755  34.899  14.318
74839W        W43213  21.561   1.336  13.040
74840W        W43214  42.339   3.858  14.383
74841W        W43215  15.755  30.102   4.650
74842W        W43216  36.860  18.780  14.369
74843W        W43217   9.213  15.594   9.956
74844W        W43218  23.011  27.578  11.001
74845W        W43219  17.198  34.466  14.860
74846W        W43220  17.620  32.593  13.818
74847W        W43221  36.443  26.094   4.743
74848W        W43222   5.756  13.261  14.922
74849W        W43223   1.479  19.558   4.797
74850W        W43224   5.422  29.430   1.750
74851W        W43225   2.798   8.695  11.426
74852W        W43226  33.465  42.779  12.355
74853W        W43227  43.929  17.570   2.407
74854W        W43228  35.970  25.046  14.356
74855W        W43229  22.520  33.994   1.402
74856W        W43230  42.856  27.488   0.853
74857W        W43231  33.100  32.425  12.943
74858W        W43232   2.836  23.993  13.401
74859W        W43233  33.957  24.498   2.178
74860W        W43234  41.791  42.363   1.339
74861W        W43235  26.012  26.014   4.338
74862W        W43236   8.827   1.456   4.739
74863W        W43237   1.317  19.544   0.869
74864W        W43238  27.015  22.168   3.280
74865W        W43239  33.410  32.412  12.504
74866W        W43240  36.550  38.515  10.580
74867W        W43241  18.207   5.317   1.319
74868W        W43242  14.706   1.752  10.983
74869W        W43243  31.985  34.585  10.565
74870W        W43244  24.479  35.358   2.893
74871W        W43245  16.234  38.954  13.956
74872W        W43246  36.972   9.760   1.337
74873W        W43247  33.560  34.992   1.743
74874W        W43248  28.986  13.304   2.765
74875W        W43249   9.374  25.614  10.537
74876W        W43250  24.202  44.442  11.046
74877W        W43251  44.876   1.318   0.850
74878W        W43252  21.705  15.672   3.629
74879W        W43253  25.620  40.533   3.214
74880W        W43254   1.890  12.322   1.798
74881W        W43255  40.943   8.668   4.615
74882W        W43256  30.127  34.518  12.398
74883W        W43257  10.632  39.325   3.212
74884W        W43258  22.097  12.725   1.730
74885W        W43259  41.035  44.311  13.854
74886W        W43260   9.225  27.008   2.330
74887W        W43261   9.196  27.049  11.863
74888W        W43262  32.976  23.239  12.535
74889W        W43263  40.026  29.106   0.481
74890W        W43264   8.230   7.171   2.188
74891W        W43265  27.122  27.683   4.643
74892W        W43266   5.413  34.040   0.743
74893W        W43267  28.123   8.212   3.356
74894W        W43268  18.262   1.789  14.908
74895W        W43269  14.321   5.712  12.955
74896W        W43270  41.449  43.861   2.719
74897W        W43271   2.354  24.222   4.637
74898W        W43272  43.370  21.549  14.466
74899W        W43273   8.713  37.403  12.367
74900W        W43274   8.159  44.768  11.043
74901W        W43275  32.430  26.498  11.377
74902W        W43276  35.589   0.768  13.973
74903W        W43277  42.892  25.567   2.876
74904W        W43278   6.877  37.504   1.776
74905W        W43279  28.440  19.711   0.965
74906W        W43280  15.091  25.495   1.389
74907W        W43281  27.628   6.383   0.854
74908W        W43282  40.331   8.352  13.460
74909W        W43283  12.181  41.026   2.237
74910W        W43284  42.890  29.650   1.702
74911W        W43285   4.853  16.791   2.257
74912W        W43286  18.618  38.055  12.021
74913W        W43287   7.352   1.279   4.142
74914W        W43288  18.114  37.427  12.858
74915W        W43289   6.748  21.071  11.461
74916W        W43290  17.083   6.688   4.630
74917W        W43291  24.117  42.989   5.102
74918W        W43292  17.792  29.449   0.904
74919W        W43293  42.389  39.867  10.440
74920W        W43294   2.399  15.159   0.734
74921W        W43295  44.908  39.912   2.847
74922W        W43296  22.200  13.306   0.795
74923W        W43297  44.775   5.704   4.701
74924W        W43298  37.006  22.077   4.192
74925W        W43299  14.613  22.239   0.908
74926W        W43300  24.516  37.577   2.687
74927W        W43301   3.230   7.790   3.810
74928W        W43302  13.171  16.777   3.797
74929W        W43303  21.533  32.630  11.102
74930W        W43304  37.001  29.126   0.425
74931W        W43305  20.050  17.299   4.354
74932W        W43306  41.026  17.679  11.866
74933W        W43307  34.593   0.392  13.442
74934W        W43308  21.708  29.521   2.335
74935W        W43309  26.667  38.496  13.958
74936W        W43310   3.405  21.689   4.264
74937W        W43311  28.075   2.861  10.411
74938W        W43312  10.847  39.916   0.911
74939W        W43313  34.895   1.274  14.398
74940W        W43314  36.533  42.351   1.931
74941W        W43315  31.418   2.736  10.584
74942W        W43316  29.548   2.760   2.737
74943W        W43317  17.765  25.162   2.680
74944W        W43318  15.168  18.630  14.321
74945W        W43319  41.821  43.281   0.351
74946W        W43320  25.152  26.170  10.079
74947W        W43321   6.816  28.119   4.647
74948W        W43322  17.717  28.991  12.479
74949W        W43323  27.056   6.394  13.323
74950W        W43324  24.590  34.868  14.828
74951W        W43325   2.467  28.035  14.767
74952W        W43326   3.231  29.048   2.869
74953W        W43327  27.532  34.069  14.426
74954W        W43328  12.274  11.828  13.041
74955W        W43329   2.812   1.793   4.666
74956W        W43330  22.725   6.819  13.031
74957W        W43331  36.449  31.519  12.888
74958W        W43332  25.491  23.672   1.695
74959W        W43333  23.149  11.274  14.019
74960W        W43334   6.308   3.953   3.723
74961W        W43335  36.536   9.703   1.405
74962W        W43336  32.555  18.149  10.967
74963W        W43337  30.637   0.876   0.814
74964W        W43338  30.959  31.899  12.964
74965W        W43339  27.469  31.129   2.873
74966W        W43340  35.541  41.788   4.789
74967W        W43341  41.348  35.502  13.927
74968W        W43342  33.466  42.402   0.249
74969W        W43343  29.175  27.481  11.397
74970W        W43344  28.638   6.887   3.743
74971W        W43345  21.023  21.213   3.842
74972W        W43346  27.011  28.039  11.968
74973W        W43347  40.367  11.285   0.798
74974W        W43348  25.028  31.077  12.964
74975W        W43349   5.802   9.820  14.944
74976W        W43350   1.355  16.076   0.275
74977W        W43351  41.877  18.628  11.604
74978W        W43352  42.385  11.277  12.921
74979W        W43353  16.076  35.994   0.794
74980W        W43354  43.956   3.448  14.008
74981W        W43355  38.341   2.910  10.545
74982W        W43356   7.729   7.220  11.999
74983W        W43357  37.962  23.148  11.476
74984W        W43358  10.274  30.535   3.217
74985W        W43359   8.249  34.462  13.404
74986W        W43360  11.303   9.661  13.930
74987W        W43361  32.075  13.762  14.032
74988W        W43362  26.479  12.710  12.362
74989W        W43363  31.095  19.286   4.654
74990W        W43364  24.684  14.151  14.483
74991W        W43365   5.381  39.044  14.000
74992W        W43366  30.422  21.037  13.828
74993W        W43367  41.018   7.676   0.386
74994W        W43368  24.988  30.088  10.160
74995W        W43369  18.213  31.914  13.401
74996W        W43370  26.012  10.710   0.292
74997W        W43371  32.626  44.394  12.040
74998W        W43372  21.075  36.940  14.821
74999W        W43373   6.732  43.807  10.900
75000W        W43374  28.083  13.305   4.742
75001W        W43375   0.454  11.241  12.973
75002W        W43376  31.630  13.720   4.632
75003W        W43377  23.121  34.878   0.351
75004W        W43378  20.560  30.985   2.330
75005W        W43379   3.923  34.586  13.948
75006W        W43380  16.299  44.868   0.898
75007W        W43381  19.622  24.178   3.818
75008W        W43382  31.122  24.078   0.806
75009W        W43383  19.619  35.976   2.812
75010W        W43384  31.482  44.503   3.711
75011W        W43385  12.149  44.940  11.117
75012W        W43386   3.796  40.800  11.089
75013W        W43387  18.097  26.600   3.787
75014W        W43388  15.151   2.778   1.233
75015W        W43389  18.269  33.381   0.900
75016W        W43390  33.925   0.467  13.888
75017W        W43391   4.874   1.360   2.827
75018W        W43392  34.613   8.786   4.606
75019W        W43393  15.716  41.975  14.900
75020W        W43394  43.294  31.411  12.874
75021W        W43395  30.467   4.779  10.922
75022W        W43396   1.290   5.231   2.378
75023W        W43397  14.261   5.795  11.859
75024W        W43398   1.878  38.056   3.781
75025W        W43399  19.722  40.959  10.952
75026W        W43400  29.459  19.240  12.944
75027W        W43401  16.632  31.603   3.290
75028W        W43402  28.930   3.439   0.293
75029W        W43403  30.979  29.140  11.536
75030W        W43404  38.847   9.805  13.381
75031W        W43405  38.928  33.068   1.328
75032W        W43406  35.602   6.390   2.763
75033W        W43407  14.262  22.616  13.916
75034W        W43408   0.791  22.705   1.227
75035W        W43409  11.362  38.066  14.399
75036W        W43410  26.011  43.416  12.855
75037W        W43411   8.760  35.598   4.292
75038W        W43412  40.835   3.215   1.772
75039W        W43413   3.939  30.426  13.849
75040W        W43414   7.240  40.881   1.709
75041W        W43415  26.662  43.895  11.921
75042W        W43416  37.025  10.843  10.925
75043W        W43417  30.422  40.541   1.913
75044W        W43418   7.225   9.206  12.363
75045W        W43419  34.571  35.380   3.719
75046W        W43420   4.729   1.944   3.820
75047W        W43421   5.349  40.814  14.954
75048W        W43422  32.941  29.495   3.648
75049W        W43423  30.159  42.906  14.999
75050W        W43424  12.828  20.656   1.722
75051W        W43425   8.774  41.416  13.410
75052W        W43426   0.840  40.542   4.803
75053W        W43427  40.914   0.908  13.915
75054W        W43428  18.782  44.377  13.837
75055W        W43429  43.859  22.555   0.869
75056W        W43430  24.623  40.390   1.398
75057W        W43431  33.079   3.882   3.855
75058W        W43432  35.885  31.446   1.336
75059W        W43433  14.150  33.082   3.680
75060W        W43434  32.980  16.097   4.146
75061W        W43435  10.637  34.460  13.889
75062W        W43436  13.121  32.566  11.394
75063W        W43437  20.104  40.386   1.439
75064W        W43438  28.149  42.336  12.904
75065W        W43439  30.009  12.635   0.929
75066W        W43440  29.567   0.415  12.574
75067W        W43441  40.933   0.971   1.794
75068W        W43442  19.065  23.726  12.417
75069W        W43443  13.650  39.879   2.795
75070W        W43444  36.494   7.686  14.963
75071W        W43445   8.210  38.912  12.513
75072W        W43446  13.195  36.400   3.349
75073W        W43447  32.595  22.541  13.497
75074W        W43448  19.567  13.301  14.925
75075W        W43449  36.891  35.011  14.465
75076W        W43450   3.443  34.117  12.957
75077W        W43451  20.745  44.342  13.851
75078W        W43452  16.234  18.115   2.254
75079W        W43453   5.196  30.508  10.443
75080W        W43454  19.095   0.775   1.211
75081W        W43455  40.855  14.161  10.517
75082W        W43456   0.980  16.720  10.411
75083W        W43457  28.477  41.456   3.278
75084W        W43458  33.013  32.943  13.052
75085W        W43459  36.951  21.071  13.377
75086W        W43460   6.315  31.583   0.832
75087W        W43461  43.863  36.897   0.415
75088W        W43462   6.249   2.292  14.309
75089W        W43463  18.242  31.490   3.657
75090W        W43464   3.276  44.485  14.774
75091W        W43465  10.172  20.700   0.247
75092W        W43466   4.345  37.859   4.300
75093W        W43467  10.371  12.647   4.309
75094W        W43468  28.155   7.284  10.446
75095W        W43469  14.697  44.421   0.841
75096W        W43470   0.367  32.018  12.021
75097W        W43471  27.008  44.307   4.789
75098W        W43472   6.341  21.053   0.764
75099W        W43473  10.156   7.331   1.815
75100W        W43474  22.115  31.047   1.898
75101W        W43475  32.412  33.624  12.093
75102W        W43476   2.259  40.336   4.766
75103W        W43477  38.432  22.684  12.038
75104W        W43478  18.752  25.051   0.370
75105W        W43479  16.652   3.264  11.542
75106W        W43480   8.723  32.017  14.389
75107W        W43481  36.430  21.061   4.801
75108W        W43482  28.083  11.713   5.166
75109W        W43483  34.421  15.689   2.275
75110W        W43484  36.512  34.494  14.877
75111W        W43485   9.841   7.840   3.769
75112W        W43486  41.407  32.901  13.380
75113W        W43487   0.395  30.005  13.454
75114W        W43488  31.077   9.379   4.774
75115W        W43489  38.942  10.834  13.845
75116W        W43490  36.394  43.909  10.565
75117W        W43491   3.802   6.900  14.439
75118W        W43492  21.594  37.516   2.894
75119W        W43493  30.105   2.915   0.914
75120W        W43494  20.157  33.407   4.613
75121W        W43495  15.640   0.881   0.322
75122W        W43496  12.852  25.216   0.844
75123W        W43497  29.130  32.998  12.385
75124W        W43498   3.910  13.140  13.471
75125W        W43499  38.943  25.514  12.344
75126W        W43500   0.468  27.463  11.866
75127W        W43501  17.720  16.646  10.558
75128W        W43502  34.439   4.762   0.889
75129W        W43503  38.050  14.097  10.434
75130W        W43504  25.659  33.891   3.319
75131W        W43505  22.553  24.047  14.353
75132W        W43506  25.028  35.489   2.743
75133W        W43507  21.103  34.942  14.830
75134W        W43508  42.441  42.372   0.453
75135W        W43509  25.555  41.319  13.010
75136W        W43510  27.584  14.130   2.223
75137W        W43511   7.345   6.333  13.992
75138W        W43512  41.873   7.271  10.408
75139W        W43513  19.662  14.824  14.802
75140W        W43514  40.905   3.903  11.439
75141W        W43515  38.045  31.633   3.686
75142W        W43516  12.747  42.341  14.867
75143W        W43517   2.899   6.239   3.739
75144W        W43518  19.276  26.607   4.650
75145W        W43519  43.883  32.958   3.649
75146W        W43520  32.032  31.910   0.740
75147W        W43521  37.396  28.642  12.976
75148W        W43522  31.448  44.841   3.277
75149W        W43523  36.921  21.028   5.260
75150W        W43524  12.826   0.266  10.488
75151W        W43525  15.658  41.445   0.329
75152W        W43526  16.700   5.271  11.585
75153W        W43527  18.053   9.387   3.680
75154W        W43528  22.059  40.810  13.886
75155W        W43529  16.808  40.055   1.247
75156W        W43530  17.715  27.633   0.248
75157W        W43531  12.755  34.010  11.105
75158W        W43532  16.698  30.427  11.955
75159W        W43533  13.127   8.753   0.923
75160W        W43534   1.960   0.299   1.714
75161W        W43535  28.111  14.643  12.483
75162W        W43536  34.116  31.108   2.687
75163W        W43537  29.633  39.950  10.412
75164W        W43538  32.559  13.120  14.797
75165W        W43539  11.805  37.434  11.980
75166W        W43540  39.998   0.309   0.463
75167W        W43541  34.580   0.986  12.357
75168W        W43542  34.119  37.534   1.244
75169W        W43543  24.086  27.549   2.755
75170W        W43544   7.848   7.858   0.352
75171W        W43545   7.267  39.514   1.867
75172W        W43546  29.935  35.543   3.374
75173W        W43547  29.514  44.973   2.279
75174W        W43548  17.157   2.769   2.767
75175W        W43549   3.793  12.685  13.941
75176W        W43550  31.625  43.986  12.381
75177W        W43551  41.877  29.597  13.513
75178W        W43552  44.919   6.802   0.444
75179W        W43553   3.888   1.874  14.904
75180W        W43554  21.179  12.748   1.227
75181W        W43555   9.685  20.615  10.958
75182W        W43556  30.503  12.127  10.448
75183W        W43557  25.573  38.035  12.843
75184W        W43558   2.412  44.503  12.544
75185W        W43559  31.069  16.790  13.952
75186W        W43560  38.362  29.611   0.402
75187W        W43561  22.622  20.571   4.251
75188W        W43562   3.895  33.484  14.887
75189W        W43563  19.280  10.661  10.621
75190W        W43564  35.580  27.027   1.707
75191W        W43565   2.328  24.724   4.269
75192W        W43566  27.110  14.301  13.328
75193W        W43567  41.041  37.921  14.904
75194W        W43568  14.327  14.619  13.363
75195W        W43569  42.323   8.801  10.557
75196W        W43570   0.846  18.551   3.751
75197W        W43571  18.667  15.668  10.035
75198W        W43572  27.948  37.922   0.762
75199W        W43573  23.120   6.421   2.712
75200W        W43574   4.265  19.691  14.811
75201W        W43575   7.386   8.899   5.296
75202W        W43576  27.099  28.592   1.873
75203W        W43577   2.862   2.733   2.800
75204W        W43578   4.851  31.021  11.406
75205W        W43579  40.834   1.948  10.903
75206W        W43580  28.970  17.655   1.812
75207W        W43581  24.220   9.708  13.027
75208W        W43582  35.984  26.146   1.786
75209W        W43583  31.958  23.689  12.985
75210W        W43584   6.184  10.697  13.455
75211W        W43585  22.042   7.348  11.000
75212W        W43586  19.162  40.447  14.012
75213W        W43587  40.339   1.787  10.108
75214W        W43588  26.582  44.268  12.511
75215W        W43589  16.587  12.744  13.425
75216W        W43590  29.144  44.834  12.945
75217W        W43591  13.809  14.162  12.001
75218W        W43592  23.696   0.302  11.378
75219W        W43593   1.350  37.458  12.862
75220W        W43594  12.664  29.097  11.096
75221W        W43595  31.142  10.253   4.307
75222W        W43596  12.810  15.588  10.971
75223W        W43597  41.808  44.760   1.285
75224W        W43598  22.085  32.010   3.337
75225W        W43599  21.555  15.157  12.455
75226W        W43600  13.165  29.513  12.878
75227W        W43601  19.738   5.329  12.566
75228W        W43602  15.267  36.470  13.374
75229W        W43603   7.879  25.580  11.419
75230W        W43604   1.477  22.738  12.860
75231W        W43605  28.035  21.131  12.426
75232W        W43606  19.602   3.879   2.269
75233W        W43607   0.985  34.942  13.006
75234W        W43608  13.740  44.376  12.965
75235W        W43609  20.658  10.793  11.563
75236W        W43610   1.749  33.879  12.345
75237W        W43611  31.629   1.859  13.877
75238W        W43612  37.846  35.447   4.637
75239W        W43613  13.720  43.008  10.476
75240W        W43614   9.643  25.684  10.499
75241W        W43615  15.733  19.246   1.805
75242W        W43616  19.280  14.262  13.451
75243W        W43617  39.037  36.924  12.864
75244W        W43618  41.468  32.469  11.049
75245W        W43619  17.145  19.593   0.252
75246W        W43620   0.437   9.834   3.821
75247W        W43621  10.814  14.804  10.639
75248W        W43622  11.362  32.495   1.934
75249W        W43623  41.425   8.695   4.820
75250W        W43624  11.639  13.240   4.273
75251W        W43625   5.754  23.586  14.366
75252W        W43626  25.040   0.264   0.433
75253W        W43627  10.860  27.652  12.366
75254W        W43628   9.702  18.613   4.751
75255W        W43629   4.426  35.490  14.281
75256W        W43630  11.671   5.733   1.381
75257W        W43631  33.902  43.770   3.868
75258W        W43632  33.940  10.747   0.954
75259W        W43633  12.217  27.679  12.445
75260W        W43634  29.661  41.856   4.808
75261W        W43635   3.446  40.534   3.198
75262W        W43636  21.535  10.197  11.025
75263W        W43637  19.658  35.914   3.740
75264W        W43638  43.902  18.631   4.334
75265W        W43639  34.591  15.629   0.774
75266W        W43640  17.760  15.766  13.490
75267W        W43641  16.214  24.214   2.333
75268W        W43642  19.738   7.865  12.422
75269W        W43643  14.801  29.504  13.995
75270W        W43644  27.951  27.493  11.047
75271W        W43645  43.310  15.094   4.831
75272W        W43646   8.812   4.906   2.211
75273W        W43647  29.065  25.152   0.859
75274W        W43648  22.149   5.306  11.537
75275W        W43649  17.248   0.931   2.196
75276W        W43650   6.287   4.935  10.448
75277W        W43651  23.723  25.166  14.814
75278W        W43652  17.152   8.174  10.941
75279W        W43653  36.391  18.278   2.773
75280W        W43654  37.007   5.306   3.679
75281W        W43655  26.479  32.632   1.830
75282W        W43656   9.374  12.715   4.599
75283W        W43657  29.066  19.569  13.910
75284W        W43658  22.571  31.644  11.086
75285W        W43659  42.398   2.365  14.420
75286W        W43660  12.251  20.694  10.573
75287W        W43661  38.011  26.661  11.435
75288W        W43662  36.482   4.920   3.261
75289W        W43663  32.434  16.293  10.504
75290W        W43664  35.087  42.828   3.382
75291W        W43665  41.386  43.777  12.513
75292W        W43666  27.976   6.711  14.903
75293W        W43667  24.988  42.877   2.817
75294W        W43668  14.729   0.472   0.957
75295W        W43669  40.373  24.230   0.255
75296W        W43670  22.715  44.987   0.967
75297W        W43671  18.721  21.612   4.767
75298W        W43672  42.519  20.121  14.319
75299W        W43673  42.966  22.183  10.073
75300W        W43674  31.063  28.102  10.461
75301W        W43675  27.119  31.467  11.424
75302W        W43676   0.412  42.968   4.627
75303W        W43677   9.836  17.117  12.000
75304W        W43678   6.725  15.603  14.393
75305W        W43679  19.681  32.495   2.712
75306W        W43680  34.419  23.493   4.603
75307W        W43681   8.238  31.411  10.964
75308W        W43682  30.976   5.437   2.810
75309W        W43683  13.184  26.129  14.914
75310W        W43684  39.036  25.568  11.897
75311W        W43685  17.223   0.848  14.903
75312W        W43686  29.479   0.893  10.077
75313W        W43687  44.429  33.510  12.443
75314W        W43688   8.803  23.578  12.521
75315W        W43689  12.137  36.062  11.053
75316W        W43690  38.555  14.648  13.908
75317W        W43691  31.059   1.888  11.496
75318W        W43692  28.595  22.601   0.433
75319W        W43693  43.901   6.803  14.834
75320W        W43694  11.337  10.793   4.202
75321W        W43695  44.355   1.976   2.879
75322W        W43696   7.266   8.274   1.713
75323W        W43697  34.870   4.823   1.708
75324W        W43698  12.702  41.031  13.321
75325W        W43699  11.689  20.642   4.218
75326W        W43700   0.985  15.741   2.671
75327W        W43701  33.072  32.118   2.874
75328W        W43702  41.041  39.452   3.715
75329W        W43703  36.045  35.577   2.262
75330W        W43704   6.425   6.731   4.720
75331W        W43705  26.978  35.989   1.827
75332W        W43706   8.170   2.329   1.350
75333W        W43707  10.255  43.819   4.805
75334W        W43708  40.872   1.408   4.725
75335W        W43709   9.845  24.004  14.819
75336W        W43710  31.547  15.273   0.347
75337W        W43711  18.591  14.143  13.460
75338W        W43712  27.570  37.398  13.422
75339W        W43713  39.017  42.011   4.803
75340W        W43714  31.510  10.354   2.306
75341W        W43715  19.660  23.582  14.469
75342W        W43716  11.752  37.392  13.036
75343W        W43717   9.843  30.482   3.266
75344W        W43718  21.037  19.628   4.705
75345W        W43719  41.377  36.899  14.968
75346W        W43720  29.960   9.822  13.936
75347W        W43721  36.386  29.624   4.132
75348W        W43722  35.915  10.678  11.103
75349W        W43723  35.097   2.766   2.369
75350W        W43724  40.335  40.538   1.785
75351W        W43725  33.979  33.550   4.266
75352W        W43726  31.615  14.792   0.424
75353W        W43727  35.531  31.472  11.462
75354W        W43728   0.879  42.284   2.356
75355W        W43729   7.811   2.234   3.176
75356W        W43730  30.919  40.871   0.952
75357W        W43731   0.762  13.190   4.144
75358W        W43732   8.735  11.329  13.510
75359W        W43733   0.783   2.252   4.310
75360W        W43734  23.086  39.003  12.044
75361W        W43735  13.133   7.226   2.187
75362W        W43736  39.940  14.277   1.428
75363W        W43737  27.069   3.719  13.530
75364W        W43738   3.256  31.587  12.437
75365W        W43739  15.598   8.337  14.813
75366W        W43740  22.092  32.020   0.848
75367W        W43741  12.747   7.896   3.691
75368W        W43742  37.844  30.111  12.945
75369W        W43743  12.225  36.484   0.483
75370W        W43744  13.207   3.356   1.823
75371W        W43745   6.223  19.547  13.320
75372W        W43746  20.744   4.828   2.230
75373W        W43747  21.600  22.010  13.063
75374W        W43748  25.617  33.618  13.986
75375W        W43749   0.383  44.796   2.851
75376W        W43750  15.810  26.609   1.873
75377W        W43751  37.952  23.644  11.454
75378W        W43752  26.064  43.368   5.277
75379W        W43753   1.256  37.467  13.869
75380W        W43754  22.741  23.675  13.026
75381W        W43755   5.745  28.507   2.686
75382W        W43756  25.575  23.632  14.338
75383W        W43757   0.276  31.937   1.835
75384W        W43758  16.687  43.295  12.380
75385W        W43759  31.106   4.725  13.872
75386W        W43760  22.221  33.470  13.453
75387W        W43761   2.814  31.898   3.162
75388W        W43762  41.440  16.772  11.600
75389W        W43763  11.814  24.663  11.928
75390W        W43764   2.735  19.745  13.517
75391W        W43765   7.846  20.034   0.811
75392W        W43766  31.465  35.470   0.863
75393W        W43767  10.856  43.933   3.745
75394W        W43768   2.315  10.752   3.317
75395W        W43769  14.104   7.864   2.761
75396W        W43770  22.686  30.431  11.897
75397W        W43771  39.429   6.295  11.015
75398W        W43772  23.109  36.478  12.903
75399W        W43773  21.104  26.473  10.570
75400W        W43774   8.297  20.093   3.284
75401W        W43775  13.214   7.795  10.534
75402W        W43776  38.454  44.505   3.796
75403W        W43777  33.948  36.092  12.407
75404W        W43778  38.067   8.807   2.759
75405W        W43779  40.921   4.835   4.265
75406W        W43780  35.362   0.831  12.958
75407W        W43781   6.312  34.591   0.812
75408W        W43782  40.427  24.176  13.014
75409W        W43783  32.022  30.435  13.423
75410W        W43784  36.445   4.826  12.905
75411W        W43785  15.270   8.183  10.909
75412W        W43786  39.811  38.076   3.772
75413W        W43787  24.492   9.196  11.461
75414W        W43788  21.238  25.042  11.550
75415W        W43789  26.954  13.708   0.299
75416W        W43790  30.518   7.799   3.317
75417W        W43791  29.942   6.186   0.767
75418W        W43792  42.396  32.004  10.408
75419W        W43793  17.728  15.308  11.567
75420W        W43794  35.470  17.156  12.834
75421W        W43795  30.922  43.905  10.434
75422W        W43796  13.268  11.252  12.002
75423W        W43797  43.380  18.690   0.455
75424W        W43798  13.212   0.300  13.333
75425W        W43799  14.597  13.697  13.496
75426W        W43800  28.615   2.887   2.713
75427W        W43801  35.451  42.444   1.714
75428W        W43802   8.402  25.156  14.296
75429W        W43803  34.986  13.631   1.862
75430W        W43804   2.412  43.009   4.829
75431W        W43805   1.322   5.842   1.866
75432W        W43806  29.465   1.456  10.471
75433W        W43807   5.222  24.044  13.392
75434W        W43808  29.010   9.204   0.428
75435W        W43809  26.590  37.996  14.800
75436W        W43810   1.310  11.331  14.399
75437W        W43811  10.874  11.630  13.334
75438W        W43812   2.757   9.292  13.346
75439W        W43813   3.233  17.147   4.779
75440W        W43814  24.088  41.896   0.356
75441W        W43815  40.363   0.808  11.560
75442W        W43816  41.396  27.078  10.628
75443W        W43817   3.457  24.149   0.957
75444W        W43818  27.044  14.826  11.555
75445W        W43819  25.123  33.397   4.625
75446W        W43820   5.808  18.250  11.434
75447W        W43821  29.930  44.383   2.403
75448W        W43822  17.703   8.363  10.572
75449W        W43823  43.798  35.386   1.700
75450W        W43824  27.007  26.043  13.438
75451W        W43825  39.515  16.280   1.851
75452W        W43826  28.566   9.248   1.344
75453W        W43827  21.253  21.674   2.841
75454W        W43828   5.343  43.958   4.335
75455W        W43829  42.289  36.029  12.898
75456W        W43830  25.196  14.791   0.360
75457W        W43831  38.929  37.860   3.317
75458W        W43832  20.095   5.822  12.413
75459W        W43833  28.957  29.086  13.024
75460W        W43834  43.891  25.693  11.411
75461W        W43835  23.234  20.630  12.410
75462W        W43836  14.810  13.649  10.609
75463W        W43837   3.744  35.551   2.306
75464W        W43838  43.478  23.656  14.315
75465W        W43839  42.959  38.950  10.888
75466W        W43840  21.562  21.202   2.287
75467W        W43841  39.974  19.728   2.376
75468W        W43842  22.602   6.388  12.498
75469W        W43843  38.443  38.929   2.859
75470W        W43844  29.554  13.675   2.701
75471W        W43845  37.545  22.592  12.973
75472W        W43846  25.067  28.434   0.967
75473W        W43847  36.394  18.704  14.514
75474W        W43848   8.747   7.193   4.226
75475W        W43849  34.073   5.904   4.787
75476W        W43850  15.780  31.616  13.910
75477W        W43851  36.000  20.194  11.397
75478W        W43852  24.084  10.736  10.498
75479W        W43853  13.658  32.111   0.376
75480W        W43854  17.232  24.151  12.464
75481W        W43855   0.826  27.028  11.433
75482W        W43856  38.053  16.746   3.813
75483W        W43857  40.002  31.026   2.746
75484W        W43858  15.647  33.064  13.833
75485W        W43859   9.246  38.827   1.912
75486W        W43860  31.043  30.497   2.809
75487W        W43861  36.057   8.253  11.050
75488W        W43862  21.163  11.349  14.848
75489W        W43863   5.703  31.896  14.970
75490W        W43864  31.082  33.463  10.109
75491W        W43865  13.693  17.678   1.774
75492W        W43866  43.957  22.721   2.260
75493W        W43867  30.514   7.332   4.163
75494W        W43868  38.371  14.320  10.459
75495W        W43869   8.160  39.065  14.495
75496W        W43870   9.660  44.273   4.119
75497W        W43871  34.113  32.021   1.740
75498W        W43872  35.071   8.382   2.754
75499W        W43873  15.105  30.116  14.364
75500W        W43874  29.031   7.672  14.926
75501W        W43875  34.434  22.717   2.338
75502W        W43876   6.782  25.505   1.739
75503W        W43877  31.948   8.242  14.903
75504W        W43878  39.989  11.653   1.420
75505W        W43879  12.349  42.012  12.374
75506W        W43880  16.177   2.247  13.810
75507W        W43881  40.547  37.495  11.530
75508W        W43882   9.197  22.520   2.414
75509W        W43883  15.231  16.092   0.933
75510W        W43884  36.503  15.121  13.805
75511W        W43885   7.313   4.409   3.763
75512W        W43886  12.848  13.638   4.147
75513W        W43887  32.491  17.635   4.781
75514W        W43888  33.088  43.790  11.948
75515W        W43889  42.375  42.507   4.829
75516W        W43890  11.646  37.872   1.254
75517W        W43891  14.243  44.790  12.980
75518W        W43892  16.812  17.079  11.437
75519W        W43893  15.778   8.790  13.346
75520W        W43894  13.824  14.299   4.660
75521W        W43895  43.973  13.182  12.007
75522W        W43896  24.075   7.692   2.697
75523W        W43897  27.994  36.354  11.008
75524W        W43898  29.986  26.987  14.329
75525W        W43899  13.106  15.248   4.785
75526W        W43900  24.701  13.174  11.082
75527W        W43901  20.242  17.789  14.324
75528W        W43902  32.527  26.961   3.861
75529W        W43903  10.675  22.615  11.502
75530W        W43904   5.915  26.602  13.007
75531W        W43905  29.034  23.028   3.805
75532W        W43906  26.176   0.906   0.452
75533W        W43907  14.274  44.808  14.352
75534W        W43908   9.387   0.327  14.448
75535W        W43909   3.308  33.048  14.439
75536W        W43910  44.423  13.294   4.609
75537W        W43911  43.449  27.640  12.978
75538W        W43912  34.574  27.535  14.872
75539W        W43913  22.024  23.151   3.280
75540W        W43914  17.285  40.327   3.737
75541W        W43915   0.858   5.865  14.302
75542W        W43916  12.643  39.393   4.187
75543W        W43917  23.531   7.782   4.134
75544W        W43918  39.417  38.488   4.795
75545W        W43919  40.807  10.252   3.191
75546W        W43920  13.350  16.275   2.381
75547W        W43921  14.818   2.460   2.746
75548W        W43922  35.020  19.062   2.828
75549W        W43923  28.958  39.487   0.884
75550W        W43924  18.251   7.823   3.759
75551W        W43925  32.118  15.629   0.243
75552W        W43926  26.129   5.912  13.512
75553W        W43927  14.102   0.265  12.345
75554W        W43928  34.044  14.273   3.261
75555W        W43929  25.023  36.919   0.780
75556W        W43930  10.193  17.128  10.528
75557W        W43931  27.163  36.077  11.603
75558W        W43932  35.468   1.269  13.385
75559W        W43933   9.773  10.276   4.605
75560W        W43934  33.970   9.173  10.430
75561W        W43935  34.534  19.063   4.769
75562W        W43936  24.152  18.762  11.942
75563W        W43937  40.337  32.093  13.935
75564W        W43938   3.763  17.657   3.774
75565W        W43939  15.620   5.293  12.417
75566W        W43940  26.048   2.458  12.531
75567W        W43941  22.124  35.403  12.919
75568W        W43942   9.856  40.938   4.810
75569W        W43943  40.386   9.783   0.464
75570W        W43944  22.170  21.749  13.901
75571W        W43945  31.489  41.950  11.584
75572W        W43946   4.754  30.959   2.813
75573W        W43947  34.934  36.410  11.941
75574W        W43948  29.651  38.975   1.406
75575W        W43949  15.221   6.190  12.409
75576W        W43950  42.501  31.974   4.278
75577W        W43951   5.882  27.455   4.284
75578W        W43952  28.032  40.484  11.569
75579W        W43953   9.258  19.281  10.623
75580W        W43954  16.617  32.959   0.738
75581W        W43955  10.310  26.966  11.996
75582W        W43956  10.677   3.924   2.224
75583W        W43957  13.612  31.135   0.810
75584W        W43958  27.040  11.306  12.436
75585W        W43959  11.204  38.950   3.199
75586W        W43960   6.890  28.475  13.959
75587W        W43961  34.024   3.908   0.348
75588W        W43962  33.081  39.526   2.886
75589W        W43963  35.543  15.280  12.503
75590W        W43964  25.549  28.612   2.820
75591W        W43965   7.327   5.253   0.769
75592W        W43966  22.158  39.353   0.817
75593W        W43967  22.098  20.149   2.751
75594W        W43968  31.003  43.336  13.888
75595W        W43969  24.578  26.625   0.798
75596W        W43970  23.611  32.988  13.906
75597W        W43971  18.080   8.339  10.989
75598W        W43972  19.688  39.906  10.912
75599W        W43973   8.167   9.201  11.090
75600W        W43974   4.426  15.587  13.905
75601W        W43975  21.022   2.391   0.782
75602W        W43976  20.591  20.642  10.529
75603W        W43977  16.203  23.018  11.411
75604W        W43978   0.870  27.020  14.767
75605W        W43979  18.611  27.630   1.916
75606W        W43980  42.471  11.351   2.415
75607W        W43981   0.851  32.115  14.975
75608W        W43982  31.434  38.506   4.766
75609W        W43983   1.792   5.275   3.147
75610W        W43984   1.365  31.934   0.323
75611W        W43985  19.084  41.481  12.363
75612W        W43986  33.475  27.132  12.832
75613W        W43987  39.840   8.887   2.229
75614W        W43988   7.890  32.129  11.065
75615W        W43989  33.089   6.278  11.072
75616W        W43990  17.668  38.999  11.880
75617W        W43991  18.193  39.500  14.812
75618W        W43992  15.751  32.413  13.827
75619W        W43993  21.742  22.663  14.310
75620W        W43994  12.806   8.757   0.470
75621W        W43995  21.573   6.227   2.209
75622W        W43996  28.966  39.932  11.925
75623W        W43997  29.996  21.570   0.333
75624W        W43998  14.741   5.787  10.476
75625W        W43999  41.302  14.784  12.522
75626W        W44000  29.454  34.936   0.296
75627W        W44001  15.677  17.127   3.229
75628W        W44002  24.532  37.056   0.873
75629W        W44003   6.710  43.331   3.679
75630W        W44004  37.458  29.972  11.059
75631W        W44005  36.048  35.497  10.553
75632W        W44006  27.039  30.536   1.278
75633W        W44007  15.767   9.237   3.277
75634W        W44008   1.326   7.302   1.918
75635W        W44009  14.225  26.962  10.938
75636W        W44010  24.610  36.375  12.497
75637W        W44011   7.349   0.862  11.601
75638W        W44012  34.885  16.679   1.744
75639W        W44013  29.930   7.186  14.417
75640W        W44014  19.566  34.515  12.568
75641W        W44015   7.668  41.513   4.745
75642W        W44016   5.405  38.053   3.326
75643W        W44017   0.906   0.884  14.878
75644W        W44018  22.228  18.601   3.632
75645W        W44019  32.959   3.903  14.011
75646W        W44020  40.399  24.123   4.752
75647W        W44021  43.323  28.602   4.691
75648W        W44022  18.261  25.216  14.512
75649W        W44023   9.749  24.036  13.797
75650W        W44024   2.463   7.822   3.755
75651W        W44025  30.006  38.405  14.497
75652W        W44026  29.959   7.689   4.824
75653W        W44027  18.675  24.522  13.905
75654W        W44028   6.331  29.640  14.395
75655W        W44029  43.770  33.454   1.842
75656W        W44030  17.131   8.315  13.886
75657W        W44031  23.695  42.283   4.118
75658W        W44032  10.809  13.300  14.845
75659W        W44033  36.092  42.405  13.425
75660W        W44034   8.700   1.779  14.777
75661W        W44035   2.276  25.684   2.845
75662W        W44036  41.354  44.949   4.612
75663W        W44037   0.836   9.736  11.034
75664W        W44038  19.762  41.023  11.517
75665W        W44039   7.238  15.741   4.304
75666W        W44040   9.345   1.346   4.817
75667W        W44041   2.882  39.480  12.362
75668W        W44042  33.952  12.206   3.773
75669W        W44043   7.264  34.112  13.005
75670W        W44044  36.078  22.176  13.869
75671W        W44045  10.285  29.539  10.956
75672W        W44046   4.256  25.141   2.272
75673W        W44047  36.374  27.670  12.480
75674W        W44048  19.698  11.256  11.103
75675W        W44049  41.959   1.357   0.903
75676W        W44050  20.123  24.005   3.203
75677W        W44051  18.096  28.990  14.375
75678W        W44052  25.065  25.176  12.392
75679W        W44053  23.619  16.804  14.281
75680W        W44054  13.119  21.053  12.984
75681W        W44055  44.450   0.375  10.062
75682W        W44056   2.877   1.745  14.983
75683W        W44057  24.635   9.378   3.233
75684W        W44058  19.570  33.514  13.830
75685W        W44059   9.366  40.338   3.235
75686W        W44060  43.476  18.216   4.730
75687W        W44061  14.737  36.976  10.540
75688W        W44062  12.283   0.866  14.931
75689W        W44063  21.703   5.200   1.712
75690W        W44064   7.275   9.775  14.429
75691W        W44065  27.665   5.376  12.374
75692W        W44066  29.639  35.439   4.284
75693W        W44067  42.462   7.897   4.246
75694W        W44068   8.290  14.726   2.740
75695W        W44069  40.807   6.349  12.996
75696W        W44070  30.517   7.417   1.872
75697W        W44071   8.803  14.247   2.401
75698W        W44072  44.280  31.982   0.822
75699W        W44073  14.101   3.747   4.252
75700W        W44074  24.653  11.856  12.413
75701W        W44075  20.622  38.972  14.976
75702W        W44076  30.431  32.608  14.507
75703W        W44077  22.046  42.515   2.345
75704W        W44078   4.328  31.923  14.402
75705W        W44079  40.387   5.430  10.552
75706W        W44080  13.269  40.905  10.902
75707W        W44081  21.074  29.134   0.909
75708W        W44082   3.331  36.080   2.688
75709W        W44083  20.759  39.323   9.991
75710W        W44084  22.623  28.073  11.947
75711W        W44085   3.307  23.241  12.912
75712W        W44086  17.108  34.003  12.994
75713W        W44087  43.964  44.364   0.447
75714W        W44088  44.291  29.653   3.746
75715W        W44089   4.783  22.016  12.487
75716W        W44090   9.269  14.099  11.514
75717W        W44091  28.019  40.978   3.229
75718W        W44092  43.796  42.302  10.500
75719W        W44093   1.282   0.484   4.619
75720W        W44094  36.373   9.812  12.976
75721W        W44095  18.274  38.052  11.972
75722W        W44096  19.103   7.739  11.906
75723W        W44097  35.549  34.918  14.907
75724W        W44098  14.147  24.552  10.910
75725W        W44099  35.076   8.319   0.946
75726W        W44100   6.249  10.853   1.369
75727W        W44101  27.085   4.396  10.968
75728W        W44102  19.650  18.564  10.484
75729W        W44103  20.548  19.688   3.827
75730W        W44104  21.737   3.401  11.868
75731W        W44105   3.772  15.602  14.382
75732W        W44106  41.314  31.126   1.380
75733W        W44107  21.156  36.903  12.911
75734W        W44108  28.489  28.991   2.243
75735W        W44109  18.064  15.305  10.456
75736W        W44110  40.977   5.253  11.465
75737W        W44111  12.217  13.779   3.768
75738W        W44112  11.661   5.769  12.547
75739W        W44113  42.410  19.121   0.383
75740W        W44114  38.402  27.095  12.975
75741W        W44115  29.561   1.929  11.543
75742W        W44116   3.379  30.948  13.905
75743W        W44117  39.055  41.314   3.233
75744W        W44118   5.916  19.124   3.384
75745W        W44119  22.697  11.255   1.277
75746W        W44120  26.637  27.979   0.802
75747W        W44121  25.583  35.473   3.289
75748W        W44122  29.652   0.399   3.675
75749W        W44123  32.104  36.547  11.967
75750W        W44124  36.485  42.295   3.168
75751W        W44125  17.698  28.102  11.538
75752W        W44126  22.620  26.528   2.292
75753W        W44127  38.022  29.974  14.296
75754W        W44128  18.282  14.266  14.998
75755W        W44129  26.468  42.376   2.858
75756W        W44130  19.548   3.808   3.757
75757W        W44131  43.516  10.687   2.413
75758W        W44132  40.513  23.127  13.510
75759W        W44133  20.701   9.283  11.543
75760W        W44134  30.085  23.035   4.330
75761W        W44135  32.431  35.418  12.057
75762W        W44136  17.770  22.576   1.352
75763W        W44137  21.059  40.906  10.096
75764W        W44138  44.938  40.812   3.246
75765W        W44139   6.763   1.765  11.975
75766W        W44140  33.466  42.788   0.383
75767W        W44141  29.514  40.055   0.743
75768W        W44142   4.251   0.343   0.855
75769W        W44143  39.343  40.923  14.308
75770W        W44144  43.400   8.725  13.501
75771W        W44145  11.689  16.624  10.581
75772W        W44146  13.806   8.684  14.790
75773W        W44147  37.956  33.426   1.275
75774W        W44148  30.596  19.647   2.328
75775W        W44149   3.719  34.975  13.956
75776W        W44150  15.621  33.945   0.783
75777W        W44151  30.974  19.142  11.445
75778W        W44152   8.739   4.810  13.353
75779W        W44153  19.714  42.930  11.564
75780W        W44154  11.370  10.197  14.836
75781W        W44155  35.398  11.853   1.883
75782W        W44156  38.020  26.188   3.761
75783W        W44157  25.143  17.198   1.891
75784W        W44158  25.026   9.726   3.286
75785W        W44159   7.250  20.257   3.843
75786W        W44160  36.943  33.057  14.300
75787W        W44161  18.291   6.868   0.484
75788W        W44162  40.917  26.996   4.168
75789W        W44163  39.446   8.177  11.082
75790W        W44164   7.247  44.369   0.862
75791W        W44165  11.313   8.274   3.784
75792W        W44166  30.034   1.929  14.381
75793W        W44167  40.542  44.434   0.276
75794W        W44168  33.003  19.080  13.320
75795W        W44169  24.120  42.396   2.410
75796W        W44170  31.468  29.163  11.483
75797W        W44171  32.506  38.946  12.990
75798W        W44172  11.773  21.135   0.910
75799W        W44173  43.513  41.510  10.533
75800W        W44174   1.250  37.077  13.933
75801W        W44175  29.525  34.569  13.412
75802W        W44176  40.506  26.965  13.407
75803W        W44177   9.648  30.511  10.892
75804W        W44178  16.214  33.125  10.473
75805W        W44179  43.414   6.261   1.890
75806W        W44180  14.798  38.446  10.570
75807W        W44181  11.665   4.290   3.174
75808W        W44182   9.291  21.738   1.414
75809W        W44183  25.065  39.338   1.935
75810W        W44184  34.886   3.433   0.276
75811W        W44185   4.287  19.650  12.053
75812W        W44186  43.850  26.985   4.221
75813W        W44187  33.909  14.641  10.999
75814W        W44188  43.482   3.948  14.433
75815W        W44189  44.398  38.841  12.025
75816W        W44190  38.941  41.935   0.965
75817W        W44191  42.471   5.349  11.941
75818W        W44192  19.598   2.746  10.518
75819W        W44193  26.040  10.722  14.921
75820W        W44194  35.545  20.769   4.820
75821W        W44195  22.048  37.534   9.952
75822W        W44196  10.831  34.006   2.312
75823W        W44197   2.281  31.048  11.439
75824W        W44198   3.382  38.910  14.968
75825W        W44199  27.022  24.639   0.796
75826W        W44200  16.746  16.157  14.910
75827W        W44201  27.058  14.211  14.365
75828W        W44202  33.033  38.563   2.332
75829W        W44203  33.480  20.101  14.491
75830W        W44204  24.538  39.517   1.788
75831W        W44205  22.159  29.991  12.925
75832W        W44206  26.601   2.920   4.602
75833W        W44207  13.650  23.221   0.787
75834W        W44208  41.402   8.675  12.512
75835W        W44209  18.086   7.188   0.254
75836W        W44210   8.845  25.533   4.313
75837W        W44211  39.376  16.666   1.384
75838W        W44212   6.847  26.166  10.543
75839W        W44213  34.583   0.329   2.362
75840W        W44214  13.112  25.017  13.355
75841W        W44215  44.955  15.246   4.805
75842W        W44216  26.497  34.444   0.782
75843W        W44217  14.263  35.016  12.093
75844W        W44218  18.645  41.399  14.996
75845W        W44219  32.584  34.417   0.927
75846W        W44220   0.269  27.070  10.428
75847W        W44221  22.014  17.289  13.406
75848W        W44222  42.408  20.533   1.744
75849W        W44223  10.195  17.678  10.096
75850W        W44224  29.091  34.465  11.860
75851W        W44225  11.350  40.875  13.314
75852W        W44226  28.026  10.838   1.396
75853W        W44227   0.804   9.841  14.852
75854W        W44228  15.662  13.136  14.925
75855W        W44229   0.371  26.098  13.400
75856W        W44230  36.510  37.343   3.807
75857W        W44231   6.208  23.543  13.844
75858W        W44232  28.481  18.588   4.173
75859W        W44233  40.803  24.157   1.786
75860W        W44234   5.404  33.993   2.268
75861W        W44235  41.990  16.307  14.879
75862W        W44236  35.437  22.011   0.245
75863W        W44237  33.888  23.639  14.018
75864W        W44238  17.712  11.787  10.506
75865W        W44239  37.946  21.134   1.311
75866W        W44240  13.645  12.140  12.968
75867W        W44241  44.265  38.403  13.901
75868W        W44242  31.463   8.193   3.284
75869W        W44243  14.593  43.848  13.465
75870W        W44244  39.368  27.173   0.813
75871W        W44245   5.315  27.080   0.822
75872W        W44246  16.211  30.060   0.377
75873W        W44247  19.265  18.754  12.564
75874W        W44248   2.847  15.137   4.814
75875W        W44249   4.421   5.890  13.377
75876W        W44250  30.632  35.000   3.281
75877W        W44251  16.755  32.930   2.866
75878W        W44252   5.342  30.064  13.882
75879W        W44253   2.455  34.054   4.624
75880W        W44254  23.034  18.062  12.438
75881W        W44255  40.326   2.878   2.352
75882W        W44256  31.897  12.157  14.995
75883W        W44257  25.605  22.148  14.860
75884W        W44258  32.903   0.746  10.624
75885W        W44259  34.609  26.545  11.055
75886W        W44260  13.715  15.253  11.983
75887W        W44261  33.613   7.742  10.522
75888W        W44262  25.069   6.205  12.462
75889W        W44263  19.669  41.902   4.688
75890W        W44264  37.944  38.041   1.896
75891W        W44265  20.176  36.935   4.113
75892W        W44266  40.804  43.439   4.603
75893W        W44267  35.041   2.798   0.791
75894W        W44268  16.310  15.720   1.450
75895W        W44269  13.113  33.980   0.743
75896W        W44270  37.063  35.591  10.929
75897W        W44271   6.228  34.372  10.110
75898W        W44272  43.765  25.567   2.245
75899W        W44273  28.121   4.360  12.035
75900W        W44274  14.744  33.927  11.445
75901W        W44275  20.700  26.508   2.310
75902W        W44276  11.822   9.743  11.968
75903W        W44277   2.873  10.186   2.762
75904W        W44278  11.642  36.575  13.862
75905W        W44279  10.215  16.805   5.121
75906W        W44280  29.511  26.534  12.863
75907W        W44281  44.439  22.055   4.300
75908W        W44282  18.546  17.099   3.353
75909W        W44283  38.914  20.732   0.838
75910W        W44284  15.325  30.486   4.277
75911W        W44285  26.995   5.317  11.468
75912W        W44286  20.125  10.210   3.818
75913W        W44287   1.241  35.056  12.539
75914W        W44288  43.465  26.149  10.918
75915W        W44289   2.273  32.632   0.371
75916W        W44290   5.861  41.351   2.856
75917W        W44291  36.980  37.454  11.587
75918W        W44292  32.468  27.096   3.297
75919W        W44293  15.322   5.703  13.049
75920W        W44294  14.708  10.800  11.968
75921W        W44295  37.436   9.306   1.849
75922W        W44296   7.327  28.043  13.958
75923W        W44297   7.905  10.174  13.934
75924W        W44298  23.190   0.295  13.030
75925W        W44299  33.577  24.179   4.644
75926W        W44300   6.718  26.181   5.212
75927W        W44301  44.318  26.544   3.150
75928W        W44302  12.176  33.914  14.423
75929W        W44303  15.315  36.903  12.394
75930W        W44304  37.005  36.022  12.394
75931W        W44305  27.521   8.220   4.764
75932W        W44306   9.678  33.010  10.935
75933W        W44307  37.836  19.230  14.912
75934W        W44308  38.929  35.544   0.398
75935W        W44309  18.201  21.022   1.375
75936W        W44310  16.798  28.082   0.398
75937W        W44311  42.848  36.526   5.090
75938W        W44312  27.596  14.298   0.342
75939W        W44313  18.209  23.055   1.347
75940W        W44314  32.480  20.264  14.415
75941NA+    NA+44315  19.173  10.378  11.599
75942NA+    NA+44316  39.047  24.183   0.811
75943NA+    NA+44317  30.914  20.597   0.417
75944NA+    NA+44318   3.253  39.977  10.420
75945NA+    NA+44319  32.051   0.747  13.796
75946NA+    NA+44320  13.646  19.621  10.914
75947NA+    NA+44321  34.029   5.276   1.900
75948NA+    NA+44322   7.247  41.312   3.672
75949NA+    NA+44323   4.305  12.285   4.808
75950NA+    NA+44324  43.774  28.437   1.735
75951NA+    NA+44325  13.826  42.301  14.800
75952NA+    NA+44326  15.126  29.090  12.551
75953NA+    NA+44327  16.211  20.691   3.858
75954NA+    NA+44328   3.787   8.783   4.803
75955NA+    NA+44329  34.950  30.152   2.180
75956NA+    NA+44330  28.078  38.014   2.312
75957NA+    NA+44331  25.470   0.949  14.485
75958NA+    NA+44332   5.901  28.131  13.990
75959NA+    NA+44333  17.768  41.955   3.634
75960NA+    NA+44334  10.309  40.363   3.177
75961NA+    NA+44335   9.373   5.401  12.928
75962NA+    NA+44336  18.712  26.493   0.899
75963NA+    NA+44337  36.863  34.464  10.620
75964NA+    NA+44338  21.675   2.244   1.350
75965NA+    NA+44339  40.841  30.543   4.639
75966NA+    NA+44340  28.932  24.648  14.432
75967NA+    NA+44341   9.386   5.818   4.791
75968NA+    NA+44342   4.291  24.195  12.073
75969NA+    NA+44343  23.538  29.073   5.113
75970NA+    NA+44344  21.732   2.965   0.295
75971NA+    NA+44345  25.005  24.070   3.851
75972NA+    NA+44346  33.570  37.067   4.264
75973NA+    NA+44347  34.072  26.061   3.686
75974NA+    NA+44348  42.898  34.593   3.810
75975NA+    NA+44349  15.661  32.087   4.319
75976NA+    NA+44350   4.748   4.776  10.626
75977NA+    NA+44351  19.682   4.320  12.371
75978NA+    NA+44352  22.570  35.519  11.547
75979NA+    NA+44353  37.427  25.162  14.907
75980NA+    NA+44354  14.743   7.906   5.149
75981NA+    NA+44355  38.998  19.636  14.422
75982NA+    NA+44356  33.600  38.064   0.298
75983NA+    NA+44357  19.206   8.686   1.830
75984NA+    NA+44358   3.947   2.396  13.907
75985NA+    NA+44359  22.542  42.363  12.007
75986NA+    NA+44360   1.801  43.491   1.881
75987NA+    NA+44361  11.204  10.682  13.965
75988NA+    NA+44362  42.356  29.464   0.340
75989NA+    NA+44363  43.450  13.641  11.104
75990NA+    NA+44364  21.184  29.592   0.881
75991NA+    NA+44365  25.060  36.587   0.436
75992NA+    NA+44366   9.189   5.930  10.498
75993NA+    NA+44367  32.457   9.803  12.524
75994NA+    NA+44368  28.015  44.996   1.887
75995NA+    NA+44369  24.102  40.976  12.572
75996NA+    NA+44370   2.368  28.184   4.774
75997NA+    NA+44371  20.033  41.451  13.525
75998NA+    NA+44372  11.653   6.808  13.426
75999NA+    NA+44373  20.654  14.317  13.994
76000NA+    NA+44374  39.354  42.939   3.212
76001NA+    NA+44375   7.322  44.843   3.699
76002NA+    NA+44376  19.057   6.833  11.592
76003NA+    NA+44377  31.966  20.560  11.473
76004NA+    NA+44378   7.879   2.802  14.768
76005NA+    NA+44379   2.468  20.155   0.824
76006NA+    NA+44380   6.227  41.346   1.221
76007NA+    NA+44381  34.428  30.909   0.366
76008NA+    NA+44382  13.700   9.752   2.223
76009NA+    NA+44383  42.500  12.640  10.635
76010NA+    NA+44384  41.865  40.430  13.858
76011NA+    NA+44385  10.772  13.287   0.774
76012NA+    NA+44386  34.942  40.927   2.701
76013NA+    NA+44387  22.635  19.676   9.954
76014NA+    NA+44388  15.278  39.372  13.525
76015NA+    NA+44389  31.126  11.198   4.634
76016NA+    NA+44390  32.002  44.499  13.930
76017NA+    NA+44391   6.761   8.725  11.515
76018NA+    NA+44392  29.089  33.117   2.224
76019NA+    NA+44393  37.026  17.234  12.858
76020NA+    NA+44394  16.591  13.756   4.123
76021NA+    NA+44395  22.020   6.912  10.509
76022NA+    NA+44396  38.328  24.075  14.892
76023NA+    NA+44397   6.428  30.969  11.882
76024NA+    NA+44398   5.305  44.323  13.971
76025NA+    NA+44399  32.957  15.240  11.051
76026NA+    NA+44400  14.780  44.325  10.485
76027NA+    NA+44401  30.516   9.208  13.543
76028NA+    NA+44402   1.956  10.322   3.260
76029NA+    NA+44403  23.990   3.717   3.816
76030NA+    NA+44404  43.465  43.503   2.277
76031NA+    NA+44405  42.385  18.213  14.986
76032NA+    NA+44406   5.320  23.187  10.627
76033NA+    NA+44407  27.130  28.949   1.860
76034NA+    NA+44408  13.688  29.448   2.785
76035NA+    NA+44409  35.965  10.637  11.531
76036NA+    NA+44410   8.709   2.792   9.465
76037NA+    NA+44411  35.371  27.553   4.136
76038NA+    NA+44412   0.758  27.637   4.288
76039NA+    NA+44413   1.415   0.459  13.515
76040NA+    NA+44414   0.965  25.629  14.867
76041NA+    NA+44415  26.486  14.633   2.877
76042NA+    NA+44416  20.177  36.423  12.073
76043NA+    NA+44417  38.885  28.140   1.737
76044NA+    NA+44418  24.497  28.933   2.896
76045NA+    NA+44419  17.771   9.818   4.814
76046NA+    NA+44420  30.092  10.741  14.760
76047NA+    NA+44421  19.239  40.434  12.965
76048NA+    NA+44422  13.145  42.989   0.760
76049NA+    NA+44423  40.977   7.800  10.915
76050NA+    NA+44424   0.470  26.161  11.945
76051NA+    NA+44425  34.545  27.691  13.952
76052NA+    NA+44426  30.978  32.101   0.402
76053NA+    NA+44427  17.576  20.226   3.271
76054NA+    NA+44428   5.860  16.214  14.502
76055NA+    NA+44429  39.317  13.702   0.462
76056NA+    NA+44430  44.913   7.381  11.440
76057NA+    NA+44431  26.606  20.660  12.831
76058NA+    NA+44432  28.464  27.097   3.864
76059NA+    NA+44433   4.829  16.789   0.394
76060NA+    NA+44434   6.192  36.035  10.417
76061NA+    NA+44435   1.383  22.554   0.327
76062NA+    NA+44436  24.581   8.658  12.940
76063NA+    NA+44437  35.903  30.551   1.239
76064NA+    NA+44438   3.748  11.226  13.817
76065NA+    NA+44439  18.062  26.072   1.706
76066NA+    NA+44440  43.419  18.279   1.306
76067NA+    NA+44441   3.240  43.906   1.373
76068NA+    NA+44442  38.472  44.768   0.860
76069NA+    NA+44443  30.635  15.740   0.767
76070NA+    NA+44444   3.453   3.328  14.357
76071NA+    NA+44445  22.634   8.788   3.360
76072NA+    NA+44446  43.013   9.728  12.007
76073NA+    NA+44447  19.737  32.901   2.806
76074NA+    NA+44448   1.778  15.227  13.927
76075NA+    NA+44449  36.917   6.877  13.346
76076NA+    NA+44450  11.296   0.286  13.414
76077NA+    NA+44451  42.031  27.157   3.150
76078NA+    NA+44452  42.303  43.298  11.887
76079NA+    NA+44453  10.315  22.095  11.863
76080NA+    NA+44454   8.773  37.983  11.556
76081NA+    NA+44455  28.661  36.467   4.319
76082NA+    NA+44456  15.105  33.615  14.358
76083NA+    NA+44457   3.824  36.431   2.880
76084NA+    NA+44458  30.109  35.497   0.252
76085NA+    NA+44459  36.020  28.488   4.283
76086NA+    NA+44460  41.929  36.415  10.471
76087NA+    NA+44461  22.020  41.466  14.276
76088NA+    NA+44462  26.147   5.753   0.965
76089NA+    NA+44463  43.004  13.788  14.383
76090NA+    NA+44464   4.919  27.685   5.196
76091NA+    NA+44465  31.641   7.893  14.916
76092NA+    NA+44466   1.906  43.411   2.348
76093NA+    NA+44467  20.223  24.067   0.734
76094NA+    NA+44468  21.078  14.215  11.114
76095NA+    NA+44469  33.381  44.433   1.860
76096NA+    NA+44470  44.830  18.683  12.447
76097NA+    NA+44471  32.005  14.752  13.011
76098NA+    NA+44472  18.130   4.242   4.836
76099NA+    NA+44473  16.179   5.703   1.269
76100NA+    NA+44474  13.208  10.649  13.331
76101NA+    NA+44475   9.800  32.512   1.932
76102NA+    NA+44476  11.746   1.255  14.331
76103NA+    NA+44477  13.701  30.415   0.351
76104NA+    NA+44478  30.642  34.557   2.721
76105NA+    NA+44479   6.679  21.752   2.757
76106NA+    NA+44480  37.554  13.290   0.767
76107NA+    NA+44481  36.062  39.424  12.522
76108NA+    NA+44482   4.777  18.293  14.409
76109NA+    NA+44483  31.144  42.448   1.401
76110NA+    NA+44484  14.613  11.237  11.034
76111NA+    NA+44485  24.111   7.859  13.449
76112NA+    NA+44486  43.020  22.247  11.451
76113NA+    NA+44487   9.889  28.574   4.680
76114NA+    NA+44488  26.952  36.450   4.119
76115NA+    NA+44489  31.610  23.644  10.600
76116NA+    NA+44490  30.933  11.761   1.883
76117NA+    NA+44491  12.806  25.102  14.977
76118NA+    NA+44492  11.627  15.702   4.114
76119NA+    NA+44493   2.817   0.881   4.712
76120NA+    NA+44494   7.776  28.671   4.158
76121NA+    NA+44495   7.714   6.841  11.471
76122NA+    NA+44496   1.871  33.511   3.732
76123NA+    NA+44497  28.450  39.319  10.997
76124NA+    NA+44498  29.559   4.450   4.675
76125NA+    NA+44499  23.114   3.359  13.012
76126NA+    NA+44500  34.504   6.189   0.852
76127NA+    NA+44501  27.473  33.462  13.060
76128NA+    NA+44502   0.929  21.077  14.004
76129NA+    NA+44503   8.878  32.454   3.722
76130NA+    NA+44504  10.702  28.168   9.981
76131NA+    NA+44505  31.969   7.838   4.238
76132NA+    NA+44506   3.850  27.999  14.430
76133NA+    NA+44507  44.383  30.416   3.185
76134NA+    NA+44508  12.264  20.596   0.355
76135NA+    NA+44509  20.643   0.953  10.451
76136NA+    NA+44510  37.553  34.410  13.507
76137NA+    NA+44511   0.777   9.814  12.496
76138NA+    NA+44512  36.408  19.046   0.763
76139NA+    NA+44513  12.315  27.530  11.464
76140NA+    NA+44514  13.147  19.680  12.081
76141NA+    NA+44515  28.658   4.220   0.435
76142NA+    NA+44516  39.897  18.739   2.318
76143NA+    NA+44517  29.987  28.647   2.224
76144NA+    NA+44518  23.180  44.488   2.789
76145NA+    NA+44519   2.358  11.135  14.316
76146NA+    NA+44520  38.842  24.623  13.443
76147NA+    NA+44521  19.256  30.633   4.683
76148NA+    NA+44522  35.951  33.612   3.674
76149NA+    NA+44523   8.283  29.544  12.967
76150NA+    NA+44524  33.612  29.006   3.688
76151NA+    NA+44525  41.789  29.938  14.463
76152NA+    NA+44526  22.713  37.502   3.384
76153NA+    NA+44527  29.559  10.729   2.858
76154NA+    NA+44528  38.349  10.206   2.753
76155NA+    NA+44529  35.576   6.420   1.748
76156NA+    NA+44530  21.728  34.091   0.902
76157NA+    NA+44531  38.974  20.756   3.765
76158NA+    NA+44532  27.043  17.558   0.901
76159NA+    NA+44533  18.569  33.392   3.826
76160NA+    NA+44534   4.301  20.700  14.296
76161NA+    NA+44535  22.065  36.552  14.017
76162NA+    NA+44536  25.069  18.242   9.962
76163NA+    NA+44537  36.435  16.786  14.340
76164NA+    NA+44538  28.630  15.315   4.252
76165NA+    NA+44539  14.202  37.896   4.645
76166NA+    NA+44540  37.486  19.157   4.281
76167NA+    NA+44541   4.862  42.436  13.794
76168NA+    NA+44542   0.776  43.422  14.010
76169NA+    NA+44543   6.369  38.347  14.364
76170NA+    NA+44544  37.391  17.277   3.354
76171NA+    NA+44545  24.605   0.367   3.635
76172NA+    NA+44546  15.786  13.305   3.734
76173NA+    NA+44547  32.564  42.906   1.808
76174NA+    NA+44548  20.216  19.567   1.703
76175NA+    NA+44549  19.070  26.126   4.342
76176NA+    NA+44550  18.295  21.238   0.758
76177NA+    NA+44551   4.437  22.233  12.424
76178NA+    NA+44552  23.540  27.068   1.911
76179NA+    NA+44553  23.519   7.338   3.715
76180NA+    NA+44554  34.576  13.134  14.864
76181NA+    NA+44555  14.767  20.649   4.281
76182NA+    NA+44556  19.173  30.643  12.482
76183NA+    NA+44557  14.258   5.284   0.269
76184NA+    NA+44558  10.203  15.697  11.067
76185NA+    NA+44559   2.406  19.556   9.978
76186NA+    NA+44560   0.428   7.681   4.245
76187NA+    NA+44561  26.630  29.064   5.120
76188NA+    NA+44562  19.581   9.345  11.877
76189NA+    NA+44563  15.816  43.994   1.325
76190NA+    NA+44564  27.091   4.729  11.599
76191NA+    NA+44565  18.260  35.543  14.995
76192NA+    NA+44566  14.235  26.071  12.841
76193NA+    NA+44567  27.543  15.120   2.872
76194NA+    NA+44568  14.334  11.139  10.097
76195NA+    NA+44569   0.958  22.558   3.312
76196NA+    NA+44570  43.350   3.297   4.637
76197NA+    NA+44571  39.375   7.764  12.941
76198NA+    NA+44572  41.344  39.946   4.115
76199NA+    NA+44573  40.945  36.054   3.326
76200NA+    NA+44574   1.302  15.252   2.370
76201NA+    NA+44575  19.103  23.067   4.134
76202NA+    NA+44576  36.584  23.023  13.814
76203NA+    NA+44577   5.388   2.351  13.387
76204NA+    NA+44578   7.797  39.011   3.304
76205NA+    NA+44579  31.642  25.175  11.126
76206NA+    NA+44580  14.308  19.769   2.342
76207NA+    NA+44581   9.754  23.069  14.279
76208NA+    NA+44582  22.104  24.003  14.390
76209NA+    NA+44583   0.966  14.818  13.479
76210NA+    NA+44584  16.290  29.125   3.280
76211NA+    NA+44585   2.955   1.367   3.248
76212NA+    NA+44586  23.669  20.675  11.987
76213NA+    NA+44587  11.324  25.097  11.922
76214NA+    NA+44588  44.896  21.629   1.387
76215NA+    NA+44589   3.307  32.449  10.604
76216NA+    NA+44590  18.199  43.440  12.417
76217NA+    NA+44591  33.391  30.052   1.425
76218NA+    NA+44592  31.079  19.692  12.028
76219NA+    NA+44593  19.264  28.636   0.958
76220NA+    NA+44594  28.076  28.974  12.986
76221NA+    NA+44595  43.890  42.974   2.234
76222NA+    NA+44596  37.919  27.550  13.836
76223NA+    NA+44597  24.546   3.748  12.968
76224NA+    NA+44598  22.073   1.376   0.921
76225NA+    NA+44599  35.479  27.489  12.361
76226NA+    NA+44600  22.159   8.896   0.352
76227NA+    NA+44601  13.605   6.398   3.768
76228NA+    NA+44602  28.976  32.054  14.973
76229NA+    NA+44603  24.702  27.078   4.217
76230NA+    NA+44604   1.897  10.639  13.514
76231NA+    NA+44605   8.281   5.743   3.801
76232NA+    NA+44606  22.550  40.430   1.904
76233NA+    NA+44607  13.287  43.320  10.415
76234NA+    NA+44608  40.028  15.757  12.497
76235NA+    NA+44609  10.269  18.134  11.529
76236NA+    NA+44610  11.179  11.721  11.117
76237NA+    NA+44611  17.171   6.821  13.840
76238NA+    NA+44612  23.588   9.651  10.408
76239NA+    NA+44613  39.490  43.808   4.805
76240NA+    NA+44614   9.252   9.235   0.279
76241NA+    NA+44615  10.364  11.310   3.272
76242NA+    NA+44616  29.045  40.005   2.316
76243NA+    NA+44617  27.079  40.820  14.414
76244NA+    NA+44618  18.248  37.418   0.242
76245NA+    NA+44619  29.056   2.798  10.535
76246NA+    NA+44620  38.826  35.435  10.937
76247NA+    NA+44621  35.983  27.017  14.804
76248NA+    NA+44622  12.325   4.330  11.499
76249NA+    NA+44623   7.725   2.942  14.018
76250NA+    NA+44624  16.202   6.363   2.216
76251NA+    NA+44625  13.305  44.368   4.142
76252NA+    NA+44626   6.312  44.780  10.602
76253NA+    NA+44627  24.975  26.618  12.000
76254NA+    NA+44628   0.874  29.959   3.169
76255NA+    NA+44629   4.247  23.520  11.050
76256NA+    NA+44630  10.366  33.424   2.867
76257NA+    NA+44631  20.523   3.329  10.943
76258NA+    NA+44632  44.760  19.748   4.310
76259NA+    NA+44633  41.917  28.585   4.760
76260NA+    NA+44634  38.363  36.933  11.912
76261NA+    NA+44635  37.528   9.726  14.357
76262NA+    NA+44636  35.855  22.734  13.008
76263NA+    NA+44637   3.438  39.527  14.022
76264NA+    NA+44638  37.931  43.435  14.408
76265NA+    NA+44639  32.913  40.984  11.084
76266NA+    NA+44640  42.782  41.974  12.470
76267NA+    NA+44641  41.959   7.360  12.884
76268NA+    NA+44642  40.478  16.245   0.836
76269NA+    NA+44643  28.046  39.970   3.798
76270NA+    NA+44644  23.985  19.039  13.938
76271NA+    NA+44645  18.705  16.158  10.445
76272NA+    NA+44646  24.073   7.694  14.305
76273NA+    NA+44647   0.894  41.891   3.342
76274NA+    NA+44648   5.423   7.766   3.283
76275NA+    NA+44649  10.707  30.645   2.390
76276NA+    NA+44650   3.848  38.427   4.251
76277NA+    NA+44651  22.076  26.126  14.418
76278NA+    NA+44652   2.338  13.754   2.727
76279NA+    NA+44653   1.738  19.753   1.712
76280NA+    NA+44654  26.967   7.758   0.817
76281NA+    NA+44655   4.819  38.520  12.870
76282NA+    NA+44656  34.063  42.471  14.324
76283NA+    NA+44657  24.485  30.139  13.013
76284NA+    NA+44658   0.817   7.396  12.433
76285NA+    NA+44659  10.836  24.098   3.640
76286NA+    NA+44660  35.439  43.956   2.194
76287NA+    NA+44661  25.532  12.221  14.390
76288NA+    NA+44662   7.667   1.755   1.896
76289NA+    NA+44663  24.550  40.549  13.411
76290NA+    NA+44664  16.148  16.580  14.425
76291NA+    NA+44665  32.540  22.026   3.823
76292NA+    NA+44666  21.110   3.881  10.469
76293NA+    NA+44667  39.026   3.400  11.384
76294NA+    NA+44668  21.210  29.425   5.298
76295NA+    NA+44669   4.737   0.895   1.740
76296NA+    NA+44670  27.476  37.538  12.369
76297NA+    NA+44671  16.135   5.367  10.992
76298NA+    NA+44672   1.736  44.799  12.921
76299NA+    NA+44673  35.461   8.877  12.467
76300NA+    NA+44674  11.669  24.018   0.314
76301NA+    NA+44675  37.041  34.459  13.904
76302NA+    NA+44676  29.631  19.706   0.787
76303NA+    NA+44677  14.693   1.811  10.469
76304NA+    NA+44678  41.848  37.555   2.286
76305NA+    NA+44679  11.223   1.452  10.972
76306NA+    NA+44680  31.623  23.622   1.708
76307NA+    NA+44681  35.502  33.480   1.384
76308NA+    NA+44682  14.181  33.928   3.744
76309NA+    NA+44683  39.553  26.031  10.925
76310NA+    NA+44684  15.622  10.850   5.111
76311NA+    NA+44685   1.784  39.930   1.229
76312NA+    NA+44686  41.433  44.407  12.044
76313NA+    NA+44687  18.157  38.447  13.531
76314NA+    NA+44688  43.492  25.162   2.775
76315NA+    NA+44689  29.999  24.529  14.873
76316NA+    NA+44690  17.299  10.817  12.523
76317NA+    NA+44691  25.017  16.666   0.787
76318NA+    NA+44692   5.296   8.854  12.479
76319NA+    NA+44693  31.983  44.476   3.760
76320NA+    NA+44694   4.775   0.259   1.237
76321NA+    NA+44695  41.951  24.104  13.516
76322NA+    NA+44696  21.227  28.998  13.525
76323NA+    NA+44697   8.320  31.036   4.318
76324NA+    NA+44698   8.220  42.394   3.823
76325NA+    NA+44699  18.641  31.960  10.439
76326NA+    NA+44700  12.811  21.527  11.070
76327NA+    NA+44701   2.456   9.766  10.466
76328NA+    NA+44702  11.735  16.094  11.082
76329NA+    NA+44703  39.534  34.051   1.424
76330NA+    NA+44704  29.613  10.803  14.937
76331NA+    NA+44705  35.523  26.141  13.351
76332NA+    NA+44706  17.289  15.648  10.994
76333NA+    NA+44707  22.556  21.174  11.059
76334NA+    NA+44708   2.876  35.989  14.280
76335NA+    NA+44709   4.752  34.456  14.982
76336NA+    NA+44710  23.643  23.528  12.031
76337NA+    NA+44711   3.324  42.877   4.697
76338NA+    NA+44712   4.210  20.071  14.992
76339NA+    NA+44713  30.543  42.777   1.336
76340NA+    NA+44714  26.108  40.834   2.354
76341NA+    NA+44715  22.109  39.445  13.442
76342NA+    NA+44716   7.240  25.981  10.944
76343NA+    NA+44717   9.847   4.803   1.412
76344NA+    NA+44718  41.866  31.034  14.499
76345NA+    NA+44719  27.163  20.028  13.862
76346NA+    NA+44720  34.067  34.022   0.864
76347NA+    NA+44721  18.599  42.326  10.420
76348NA+    NA+44722  15.318  33.524   2.345
76349NA+    NA+44723  19.226  15.728   1.752
76350NA+    NA+44724  22.653  30.551  11.470
76351NA+    NA+44725  19.174   2.390  10.474
76352NA+    NA+44726  29.928  32.909  14.497
76353NA+    NA+44727  32.073   5.861  10.103
76354NA+    NA+44728  31.008  21.656  11.387
76355NA+    NA+44729  17.569  16.682   3.284
76356NA+    NA+44730  10.241  21.681  12.975
76357NA+    NA+44731  41.805   3.215   0.784
76358NA+    NA+44732  33.915  27.194  13.942
76359NA+    NA+44733   7.337  42.914   4.256
76360NA+    NA+44734   5.807  32.096   0.744
76361NA+    NA+44735  41.006   3.356   2.877
76362NA+    NA+44736  39.043  33.514  14.449
76363NA+    NA+44737  11.640  32.492  10.466
76364NA+    NA+44738  44.497  20.243  10.983
76365NA+    NA+44739  25.150   2.745   1.441
76366NA+    NA+44740  34.438   1.347  11.512
76367NA+    NA+44741   0.446  29.120   0.836
76368NA+    NA+44742  21.675  17.205   4.312
76369NA+    NA+44743  43.323  44.358  12.419
76370NA+    NA+44744  15.223   5.434   3.266
76371NA+    NA+44745  22.208  37.417   0.936
76372NA+    NA+44746  26.041  24.178  10.568
76373NA+    NA+44747  18.197  16.271   2.393
76374NA+    NA+44748  41.870  10.221  10.160
76375NA+    NA+44749  12.717   0.361  12.390
76376NA+    NA+44750  25.577  28.038  11.434
76377NA+    NA+44751  36.078  34.403  11.893
76378NA+    NA+44752  44.787  10.647  13.869
76379NA+    NA+44753  34.001   8.240  10.567
76380NA+    NA+44754  31.909  16.288   2.741
76381NA+    NA+44755  25.153   9.158   4.710
76382NA+    NA+44756  30.933  10.200  12.450
76383NA+    NA+44757  12.628  32.960  13.512
76384NA+    NA+44758   3.373  16.794   3.850
76385NA+    NA+44759  37.427   1.433   1.698
76386NA+    NA+44760  14.678   3.896   4.637
76387NA+    NA+44761  37.447  40.484  11.582
76388NA+    NA+44762  23.659  29.996  12.524
76389NA+    NA+44763  41.360  10.182   4.782
76390NA+    NA+44764   0.900  12.290   2.379
76391NA+    NA+44765  37.369  30.650   3.777
76392NA+    NA+44766  31.457  24.036  14.811
76393NA+    NA+44767  13.783   0.319   2.211
76394NA+    NA+44768  31.094  36.580   3.364
76395NA+    NA+44769   4.891  35.081   0.906
76396NA+    NA+44770   6.736  34.940  10.482
76397NA+    NA+44771  26.612  19.198  13.485
76398NA+    NA+44772  35.538  33.419  11.427
76399NA+    NA+44773  31.940  34.968  12.894
76400NA+    NA+44774  43.448  33.094   2.744
76401NA+    NA+44775  20.550  35.381   4.635
76402NA+    NA+44776  33.558   6.715   0.892
76403NA+    NA+44777  29.166  44.842  10.458
76404NA+    NA+44778   1.257  24.190  14.482
76405NA+    NA+44779  26.035  26.589   1.246
76406NA+    NA+44780   9.760   4.890   2.857
76407NA+    NA+44781  37.921  22.643  11.901
76408NA+    NA+44782  43.328  11.338  11.041
76409NA+    NA+44783  43.858  12.330  14.377
76410NA+    NA+44784   8.671  19.250  10.458
76411NA+    NA+44785  11.852  29.034   0.245
76412NA+    NA+44786   8.668  28.071   2.383
76413NA+    NA+44787   8.887  37.049   3.750
76414NA+    NA+44788  29.932  29.136   1.244
76415NA+    NA+44789  32.946  43.491  11.885
76416NA+    NA+44790  43.309   2.336   3.283
76417NA+    NA+44791   6.399  23.596   0.441
76418NA+    NA+44792   1.774  17.684  13.980
76419NA+    NA+44793   1.908  39.465  12.864
76420NA+    NA+44794  40.843   2.343   3.736
76421NA+    NA+44795  21.572  42.978  13.836
76422NA+    NA+44796   2.811   8.731   4.790
76423NA+    NA+44797  41.838   6.287  14.022
76424NA+    NA+44798  42.916  30.518   3.291
76425NA+    NA+44799  37.843  43.473  11.466
76426NA+    NA+44800   1.776  22.607   2.769
76427NA+    NA+44801  39.328  23.579   3.659
76428NA+    NA+44802  42.921   9.694  14.309
76429NA+    NA+44803  19.083  21.632  11.508
76430NA+    NA+44804   3.924  33.435   4.642
76431NA+    NA+44805  39.419   0.803   1.909
76432NA+    NA+44806  42.885  25.106   4.656
76433NA+    NA+44807  16.229  29.521   4.655
76434NA+    NA+44808  26.073   7.210   3.732
76435NA+    NA+44809   3.357  14.631   3.307
76436NA+    NA+44810  11.704  41.945  10.426
76437NA+    NA+44811  16.685  12.128   0.246
76438NA+    NA+44812  43.837  15.270   4.735
76439NA+    NA+44813   6.412  42.867   3.664
76440NA+    NA+44814  33.000  33.439   1.259
76441NA+    NA+44815   4.860  33.979   3.753
76442NA+    NA+44816  38.913  31.076   3.720
76443NA+    NA+44817   9.878  12.786  12.097
76444NA+    NA+44818  18.788  19.257   4.338
76445NA+    NA+44819  44.867  12.719   4.663
76446NA+    NA+44820  44.976  43.367   3.236
76447NA+    NA+44821   4.216   8.403   3.265
76448NA+    NA+44822  21.754  26.642   4.203
76449NA+    NA+44823   7.389   9.190   2.893
76450NA+    NA+44824   5.438  35.576   0.800
76451NA+    NA+44825  41.340  44.768   2.333
76452NA+    NA+44826  34.579   7.865  10.462
76453NA+    NA+44827   9.321  29.997  10.584
76454NA+    NA+44828  12.173  22.720  12.008
76455NA+    NA+44829  35.856  14.218   2.664
76456NA+    NA+44830  38.477   4.229  11.946
76457NA+    NA+44831  16.798  14.251   1.828
76458NA+    NA+44832  41.013  24.121  11.057
76459NA+    NA+44833  27.173  22.692   1.405
76460NA+    NA+44834  44.958  11.701  12.855
76461NA+    NA+44835  22.088  38.047   3.171
76462NA+    NA+44836  25.194  40.977  14.398
76463NA+    NA+44837  25.489  32.603   1.242
76464NA+    NA+44838   3.379  13.119  10.421
76465NA+    NA+44839  19.721   9.170   1.246
76466NA+    NA+44840  16.668  33.084  11.582
76467NA+    NA+44841   3.953  11.753   3.692
76468NA+    NA+44842  44.298  15.680  10.130
76469NA+    NA+44843   6.869  37.920   3.253
76470NA+    NA+44844   1.391   2.285  10.607
76471NA+    NA+44845   6.191  34.958   5.103
76472NA+    NA+44846  14.225  31.955  12.515
76473NA+    NA+44847  12.656  23.500  14.440
76474NA+    NA+44848  23.655  30.038   0.304
76475NA+    NA+44849  34.007  44.391  10.465
76476NA+    NA+44850  35.858  24.052   1.256
76477NA+    NA+44851  33.562  19.662   0.936
76478NA+    NA+44852   3.343   4.817  11.859
76479NA+    NA+44853  21.098  24.992  14.948
76480NA+    NA+44854  33.051   4.435  12.045
76481NA+    NA+44855   2.412  40.369  14.476
76482NA+    NA+44856  24.207  24.190  10.081
76483NA+    NA+44857   2.735  15.088   0.853
76484NA+    NA+44858  36.085  38.538   1.698
76485NA+    NA+44859  29.564  42.776   3.826
76486NA+    NA+44860  22.650   0.451  13.392
76487NA+    NA+44861   9.255  17.274   1.241
76488NA+    NA+44862  24.976  22.249   0.388
76489NA+    NA+44863  39.470  13.218   4.783
76490NA+    NA+44864   0.289  12.304   2.669
76491NA+    NA+44865  29.590  10.263  12.863
76492NA+    NA+44866  27.075  14.159   3.150
76493NA+    NA+44867  19.140  11.854   2.269
76494NA+    NA+44868  35.094  19.256  11.487
76495NA+    NA+44869  41.502   0.837  12.545
76496NA+    NA+44870  43.318   4.919   2.210
76497NA+    NA+44871  13.712  33.119   0.935
76498NA+    NA+44872  32.119  26.480   1.884
76499NA+    NA+44873  21.048  25.213   3.727
76500NA+    NA+44874   6.198  29.936  14.957
76501NA+    NA+44875  19.542  12.356   4.265
76502NA+    NA+44876  41.463  34.584  14.871
76503NA+    NA+44877  31.967  34.434  13.873
76504NA+    NA+44878  36.011  21.175   3.174
76505NA+    NA+44879  23.002  32.625   3.756
76506NA+    NA+44880  27.622  35.542  12.349
76507NA+    NA+44881  32.925  23.147  12.033
76508NA+    NA+44882  35.864  34.545  11.467
76509NA+    NA+44883  30.578   7.848   4.117
76510NA+    NA+44884  16.171  16.305   4.620
76511NA+    NA+44885  38.923  23.986  11.887
76512NA+    NA+44886  35.422  25.513   2.845
76513NA+    NA+44887  22.685  15.653  11.902
76514NA+    NA+44888  23.122  30.091   3.794
76515NA+    NA+44889  22.244   3.895  10.498
76516NA+    NA+44890   5.716  33.443   4.138
76517NA+    NA+44891  16.175  34.429   1.420
76518NA+    NA+44892  25.969  18.186  10.973
76519NA+    NA+44893   7.717  29.163   5.112
76520NA+    NA+44894  21.609   1.353   0.938
76521NA+    NA+44895  24.091  16.626  11.523
76522NA+    NA+44896   0.324   0.316   3.687
76523NA+    NA+44897  21.559  29.630  11.972
76524NA+    NA+44898  44.803  16.666  14.350
76525NA+    NA+44899  20.191  12.853  11.493
76526NA+    NA+44900  33.123  34.953   3.728
76527NA+    NA+44901  31.996  41.511   4.134
76528NA+    NA+44902   8.807  34.042   2.874
76529NA+    NA+44903  24.607  28.501   2.403
76530NA+    NA+44904  41.897  33.442  13.492
76531NA+    NA+44905   0.884   0.418  10.453
76532NA+    NA+44906  14.322  23.671   1.773
76533NA+    NA+44907  30.578  21.654   1.224
76534NA+    NA+44908  10.794  44.937   3.794
76535NA+    NA+44909  41.466   6.397   4.748
76536NA+    NA+44910  32.585  32.050  11.041
76537NA+    NA+44911  44.848  43.326  13.062
76538NA+    NA+44912  12.805  12.664   4.806
76539NA+    NA+44913  31.076  35.370  12.508
76540NA+    NA+44914   8.379   4.315  14.310
76541NA+    NA+44915   6.363  19.210   4.281
76542NA+    NA+44916  23.163  26.106   3.378
76543NA+    NA+44917  32.542  42.013  11.029
76544NA+    NA+44918  40.025  21.682   1.826
76545NA+    NA+44919  38.383  16.187   2.668
76546NA+    NA+44920  30.634  24.481  14.421
76547NA+    NA+44921   1.254   2.817  13.446
76548NA+    NA+44922  12.317  26.972  10.579
76549NA+    NA+44923   2.952  34.572  14.305
76550NA+    NA+44924  19.710   2.338   4.286
76551NA+    NA+44925  27.030  26.025   3.663
76552NA+    NA+44926  41.812   3.343   2.874
76553NA+    NA+44927  34.924  21.732  11.549
76554NA+    NA+44928  12.765   6.324  14.028
76555NA+    NA+44929  13.746  13.127  14.031
76556NA+    NA+44930   1.413  36.405  13.803
76557NA+    NA+44931  34.976  12.254   4.626
76558NA+    NA+44932   4.434   9.752   0.333
76559NA+    NA+44933   4.699  17.094   4.331
76560NA+    NA+44934   0.276  21.581   2.726
76561NA+    NA+44935  44.003  14.272   3.837
76562NA+    NA+44936  24.582   6.713  13.801
76563NA+    NA+44937   3.427  33.531   1.706
76564NA+    NA+44938  16.161  18.706   4.179
76565NA+    NA+44939  20.705  35.563   0.351
76566NA+    NA+44940  26.965  43.416   5.119
76567NA+    NA+44941  24.499  18.662   0.322
76568NA+    NA+44942  12.747  28.930   3.228
76569NA+    NA+44943   9.857  34.096  12.465
76570NA+    NA+44944  35.915  33.101   1.282
76571NA+    NA+44945  16.213  41.496   1.790
76572NA+    NA+44946  18.714  23.538   2.750
76573NA+    NA+44947   1.874  25.488  14.374
76574NA+    NA+44948   6.329  11.168  11.451
76575NA+    NA+44949  37.920  24.627  11.569
76576NA+    NA+44950  11.717  10.316  11.972
76577NA+    NA+44951   1.314  41.812  13.322
76578NA+    NA+44952  15.254  32.095  14.872
76579NA+    NA+44953  22.121  23.037  14.013
76580NA+    NA+44954  21.601  21.708  11.585
76581NA+    NA+44955   2.425  21.151   1.707
76582NA+    NA+44956  17.096  14.236  13.875
76583NA+    NA+44957   7.781  23.120   3.312
76584NA+    NA+44958  18.636  16.079   1.358
76585NA+    NA+44959  42.006  15.699   1.219
76586NA+    NA+44960   8.347  26.626   1.288
76587NA+    NA+44961  32.507   7.782  12.921
76588NA+    NA+44962  34.886  39.045   4.173
76589NA+    NA+44963   4.780  41.017   3.202
76590NA+    NA+44964  33.437  19.585  13.931
76591NA+    NA+44965  30.573   5.399  10.931
76592NA+    NA+44966  42.874  38.016   1.259
76593NA+    NA+44967  15.715  18.175  10.114
76594NA+    NA+44968  20.044  18.184  11.950
76595NA+    NA+44969   8.779   2.911  13.381
76596NA+    NA+44970  44.927  34.024  11.514
76597NA+    NA+44971  31.590  20.244   1.274
76598NA+    NA+44972  31.107   3.886   3.161
76599NA+    NA+44973  28.003  20.747   3.150
76600NA+    NA+44974   6.682  34.371  13.914
76601NA+    NA+44975   0.488   4.841  13.382
76602NA+    NA+44976  32.974  35.450   0.457
76603NA+    NA+44977  32.481  39.916   3.287
76604NA+    NA+44978  20.144  38.883   0.362
76605NA+    NA+44979  23.702   6.726  14.380
76606NA+    NA+44980  40.802  39.880   1.359
76607NA+    NA+44981  11.366  21.069   4.622
76608NA+    NA+44982   8.756  31.522   1.293
76609NA+    NA+44983  43.820  25.192   0.779
76610NA+    NA+44984   8.659   8.368  14.412
76611NA+    NA+44985  21.655  12.124   0.377
76612NA+    NA+44986  28.572   0.279   3.688
76613NA+    NA+44987   4.420  16.574  11.885
76614NA+    NA+44988  14.617  31.018   4.830
76615NA+    NA+44989  43.834   1.389   2.382
76616NA+    NA+44990  41.984  30.992   1.317
76617NA+    NA+44991  39.982  28.642  12.411
76618NA+    NA+44992   6.685   4.436   1.706
76619NA+    NA+44993  37.070  44.259  10.424
76620NA+    NA+44994   2.229  22.136   3.250
76621NA+    NA+44995  31.420  25.125   3.853
76622NA+    NA+44996  34.881  24.662   3.189
76623NA+    NA+44997  44.756  43.359  13.482
76624NA+    NA+44998  29.939   5.922   4.146
76625NA+    NA+44999   9.796   5.826  13.993
76626NA+    NA+45000   5.329  35.450   3.770
76627NA+    NA+45001   4.717  34.001   4.816
76628NA+    NA+45002  20.245  36.466   3.285
76629NA+    NA+45003   9.246   5.403   4.829
76630NA+    NA+45004   5.909   9.175  11.074
76631NA+    NA+45005  43.005   6.315  10.611
76632NA+    NA+45006   9.795  32.001  10.531
76633NA+    NA+45007  30.930  29.644   1.883
76634NA+    NA+45008  17.280   4.302   4.216
76635NA+    NA+45009   2.444  37.842   0.291
76636NA+    NA+45010  15.752  43.316  13.954
76637NA+    NA+45011  10.347  30.494   4.779
76638NA+    NA+45012  21.595   7.665  14.495
76639NA+    NA+45013  28.548  16.754  14.932
76640NA+    NA+45014   9.779  34.385  14.004
76641NA+    NA+45015   5.428  16.277  11.503
76642NA+    NA+45016  16.608  19.727   4.134
76643NA+    NA+45017   4.386  14.700   1.771
76644NA+    NA+45018  34.092  16.156   0.425
76645NA+    NA+45019  31.064  42.808  11.957
76646NA+    NA+45020   7.828  18.226  14.298
76647NA+    NA+45021  18.237  35.903   4.745
76648NA+    NA+45022  29.669   7.908   4.661
76649NA+    NA+45023  43.410  32.602   3.807
76650NA+    NA+45024  39.000  15.739   4.819
76651NA+    NA+45025  20.265  41.532  11.452
76652NA+    NA+45026  12.703  21.132  10.439
76653NA+    NA+45027   0.265  34.886   4.782
76654NA+    NA+45028   7.328  35.520  13.542
76655NA+    NA+45029   7.667  43.852   4.320
76656NA+    NA+45030  23.170  21.756  13.027
76657NA+    NA+45031   6.362  22.648   5.261
76658NA+    NA+45032   3.823  31.110  14.788
76659NA+    NA+45033  19.704  25.678  14.395
76660NA+    NA+45034  32.072  18.097  14.901
76661NA+    NA+45035  44.912  15.250  11.987
76662NA+    NA+45036  29.125   1.254   2.756
76663NA+    NA+45037  29.160  40.405   0.298
76664NA+    NA+45038  40.957  40.467   2.881
76665NA+    NA+45039  14.193  13.310  14.803
76666NA+    NA+45040  38.457  28.565  12.077
76667NA+    NA+45041  22.220  42.906  14.361
76668NA+    NA+45042  26.054  15.104  10.937
76669NA+    NA+45043   9.393   1.790   3.236
76670NA+    NA+45044  30.930   0.394   1.358
76671NA+    NA+45045  33.532  43.008  14.002
76672NA+    NA+45046  26.460  16.224  13.910
76673NA+    NA+45047  31.636   4.699   3.255
76674NA+    NA+45048  35.064  22.033  11.609
76675NA+    NA+45049  44.971  18.051   2.233
76676NA+    NA+45050  19.626  28.976   4.276
76677NA+    NA+45051  43.894  17.605   1.849
76678NA+    NA+45052  38.868  39.948  11.402
76679NA+    NA+45053   4.404  11.183  11.058
76680NA+    NA+45054   2.963   6.291  13.938
76681NA+    NA+45055  10.267  20.167  14.796
76682NA+    NA+45056   9.255  19.152  13.042
76683NA+    NA+45057  27.561  21.048  12.418
76684NA+    NA+45058  25.973  28.529   4.745
76685NA+    NA+45059  34.988  21.153   0.375
76686NA+    NA+45060  27.109  31.012  12.984
76687NA+    NA+45061  14.670  10.776   2.762
76688NA+    NA+45062   7.820   5.692  14.342
76689NA+    NA+45063  35.384  23.686   0.458
76690NA+    NA+45064  18.153  13.324   2.862
76691NA+    NA+45065  13.243  29.041   4.802
76692NA+    NA+45066   4.917  34.607  11.053
76693NA+    NA+45067  22.622  24.586  12.528
76694NA+    NA+45068  31.980   8.784   3.821
76695NA+    NA+45069  29.649   0.937  14.819
76696NA+    NA+45070  39.491  23.595  11.396
76697NA+    NA+45071  36.912  38.985  12.559
76698NA+    NA+45072  39.348  11.325   4.305
76699NA+    NA+45073  44.307   4.746   0.828
76700NA+    NA+45074  29.442  14.144  10.445
76701NA+    NA+45075  21.632  28.957   4.249
76702NA+    NA+45076   7.218   6.841   3.795
76703NA+    NA+45077  13.346  17.597   4.241
76704NA+    NA+45078   6.777  38.880  11.547
76705NA+    NA+45079  31.100   8.363  13.792
76706NA+    NA+45080  37.028  14.727   1.801
76707NA+    NA+45081   5.284  39.994   1.892
76708NA+    NA+45082  27.507  38.865  12.454
76709NA+    NA+45083  42.351   6.904  11.983
76710NA+    NA+45084  29.590   5.741  10.989
76711NA+    NA+45085  26.488  43.389  13.332
76712NA+    NA+45086   0.808   4.260  14.898
76713NA+    NA+45087  33.946  22.170  10.524
76714NA+    NA+45088  17.230  17.576  11.019
76715NA+    NA+45089  13.321  17.068   2.772
76716NA+    NA+45090  27.523  19.161  11.859
76717NA+    NA+45091   9.171  12.803   4.321
76718NA+    NA+45092  13.325   0.974  14.820
76719NA+    NA+45093   9.293  40.005   3.256
76720NA+    NA+45094  43.901   4.336  14.884
76721NA+    NA+45095  28.513  43.482   5.772
76722NA+    NA+45096  20.523  38.055   2.228
76723NA+    NA+45097  11.259   3.908  11.404
76724NA+    NA+45098  40.952  10.149  11.554
76725NA+    NA+45099   0.466  17.280   2.758
76726NA+    NA+45100   3.856  19.534  10.901
76727NA+    NA+45101  34.078  28.054   4.799
76728NA+    NA+45102  22.188  32.403   9.672
76729NA+    NA+45103   7.866   2.927  14.312
76730NA+    NA+45104  33.424  25.174  10.995
76731NA+    NA+45105   7.227  28.461  11.516
76732NA+    NA+45106   2.785  32.082   4.678
76733NA+    NA+45107  29.146  43.020  13.049
76734NA+    NA+45108  38.477  33.906  10.551
76735NA+    NA+45109  32.076  20.621  13.449
76736NA+    NA+45110   4.772  19.664   2.353
76737NA+    NA+45111  18.284   3.859  11.401
76738NA+    NA+45112  13.201  37.905   2.398
76739NA+    NA+45113  25.690  31.131  11.899
76740NA+    NA+45114  16.308  12.139  13.980
76741NA+    NA+45115  19.059   7.317   0.318
76742NA+    NA+45116  38.034  25.480   1.902
76743NA+    NA+45117  18.285  42.795   2.862
76744NA+    NA+45118  38.882   2.316  14.812
76745NA+    NA+45119  16.104  32.432   0.417
76746NA+    NA+45120  33.901  32.923  14.961
76747NA+    NA+45121  15.689  44.427  12.043
76748NA+    NA+45122   4.808  18.259  11.110
76749NA+    NA+45123  15.602  30.520  11.086
76750NA+    NA+45124  15.732  20.622  13.909
76751NA+    NA+45125  11.373  25.991  11.526
76752NA+    NA+45126  41.847  13.117  12.895
76753NA+    NA+45127  20.725  14.235   2.715
76754NA+    NA+45128  21.049   8.686  12.089
76755NA+    NA+45129  41.516  22.500   2.273
76756NA+    NA+45130  43.375  32.415  13.850
76757NA+    NA+45131  15.085  31.951   1.807
76758NA+    NA+45132  11.693  13.681  11.099
76759NA+    NA+45133  40.822  28.544   2.357
76760NA+    NA+45134  17.193  31.465  14.470
76761NA+    NA+45135  25.151  21.239  14.501
76762NA+    NA+45136  11.262  26.534   4.692
76763NA+    NA+45137  26.991  13.696   3.661
76764NA+    NA+45138  26.694   7.314  14.857
76765NA+    NA+45139   9.650  43.295  12.856
76766NA+    NA+45140  25.026   4.822   4.350
76767NA+    NA+45141  43.406  33.587  12.540
76768NA+    NA+45142  25.593  16.694  14.903
76769NA+    NA+45143   1.962   9.303   3.220
76770NA+    NA+45144  35.454  16.595  12.991
76771NA+    NA+45145   1.345  14.672   2.860
76772NA+    NA+45146   5.876   5.912  13.927
76773NA+    NA+45147  18.277  25.107  12.493
76774NA+    NA+45148  22.214  33.492   3.177
76775NA+    NA+45149   5.253   3.867   4.113
76776NA+    NA+45150  24.220  34.565   1.926
76777NA+    NA+45151  38.931  15.303   4.750
76778NA+    NA+45152  27.954   1.838  14.955
76779NA+    NA+45153  32.616  28.960  11.115
76780NA+    NA+45154  40.991  12.323   1.400
76781NA+    NA+45155  37.371   7.235   5.284
76782NA+    NA+45156  35.958  10.804   3.718
76783NA+    NA+45157  32.576  13.798   0.386
76784NA+    NA+45158   8.247  14.659   0.268
76785NA+    NA+45159  39.023  14.597  12.862
76786NA+    NA+45160  25.475   4.715  14.868
76787NA+    NA+45161   8.783   0.269   1.737
76788NA+    NA+45162  34.499  29.142   3.159
76789NA+    NA+45163  23.033  38.452   0.478
76790NA+    NA+45164  25.703  10.862  11.086
76791NA+    NA+45165  24.157   5.281  10.576
76792NA+    NA+45166   7.711  44.003  12.019
76793NA+    NA+45167  33.446   9.303  10.919
76794NA+    NA+45168  44.882  23.635  11.089
76795NA+    NA+45169  24.528  26.592  11.983
76796NA+    NA+45170  17.225  14.265   2.220
76797NA+    NA+45171  28.541  11.764   2.704
76798NA+    NA+45172   3.796  32.442  12.094
76799NA+    NA+45173  25.627  12.741   2.714
76800NA+    NA+45174   4.265  30.442  12.956
76801NA+    NA+45175   1.856   4.374  14.787
76802NA+    NA+45176  37.444  35.358  10.626
76803NA+    NA+45177  38.562  41.827  11.075
76804NA+    NA+45178  11.143   7.248  10.486
76805NA+    NA+45179  31.994   3.853  12.067
76806NA+    NA+45180  36.097  32.007  11.878
76807NA+    NA+45181  29.561   5.921   3.662
76808NA+    NA+45182  29.632   4.781  13.969
76809NA+    NA+45183  31.638  32.446  11.608
76810NA+    NA+45184  33.079  10.734  14.886
76811NA+    NA+45185  43.765   0.813  12.564
76812NA+    NA+45186  32.897  12.202   3.280
76813NA+    NA+45187  34.425  19.229  14.407
76814NA+    NA+45188  11.633  42.434  11.093
76815NA+    NA+45189   5.784   9.318   4.168
76816NA+    NA+45190  13.142  29.651   1.902
76817NA+    NA+45191   3.866   5.230   2.223
76818NA+    NA+45192   4.725  33.080   0.294
76819NA+    NA+45193   4.843  28.009  13.342
76820NA+    NA+45194  28.519  23.108   3.191
76821NA+    NA+45195  13.792  32.475  12.445
76822NA+    NA+45196  36.033  41.867  13.349
76823NA+    NA+45197  31.958  14.816   3.160
76824NA+    NA+45198  28.059  26.964  14.863
76825NA+    NA+45199  22.514  16.242   1.429
76826NA+    NA+45200  36.422   1.264   4.162
76827NA+    NA+45201   1.375   3.918  10.478
76828NA+    NA+45202  12.128  14.220  12.354
76829NA+    NA+45203  36.917  35.028  12.475
76830NA+    NA+45204  16.620  36.486   4.346
76831NA+    NA+45205  32.020   6.765   0.468
76832NA+    NA+45206   7.190  33.072   2.246
76833NA+    NA+45207  35.938  30.533   3.234
76834NA+    NA+45208   2.865   9.366  11.870
76835NA+    NA+45209  16.082  24.577   0.863
76836NA+    NA+45210  32.440  29.576   2.777
76837NA+    NA+45211  40.938  32.108  13.062
76838NA+    NA+45212  44.465  17.155   4.339
76839NA+    NA+45213  31.548   1.256   0.452
76840NA+    NA+45214  38.562   1.321   0.430
76841NA+    NA+45215  30.561  28.442   1.271
76842NA+    NA+45216  33.108  43.335  11.383
76843NA+    NA+45217   2.376  33.526   4.205
76844NA+    NA+45218  24.018  25.071   9.932
76845NA+    NA+45219  10.682  36.515  13.818
76846NA+    NA+45220  29.666  18.274  13.473
76847NA+    NA+45221   6.265  41.955  10.436
76848NA+    NA+45222   3.240  20.762   2.353
76849NA+    NA+45223  26.094   6.761   2.702
76850NA+    NA+45224   5.713   1.905  12.504
76851NA+    NA+45225  24.725  43.428   4.720
76852NA+    NA+45226  19.541  40.988   1.793
76853NA+    NA+45227  30.001  27.194  11.542
76854NA+    NA+45228   7.804  35.414   0.310
76855NA+    NA+45229  39.429   9.385  12.473
76856NA+    NA+45230  41.321  16.589  10.453
76857NA+    NA+45231  33.587  19.085   1.321
76858NA+    NA+45232  19.282   3.425  14.305
76859NA+    NA+45233  26.120  17.125   5.581
76860NA+    NA+45234  40.976   3.460  12.469
76861NA+    NA+45235  18.249  37.458   4.289
76862NA+    NA+45236  36.494  41.038   1.878
76863NA+    NA+45237  23.616  15.686  11.961
76864NA+    NA+45238   5.204   0.261   4.695
76865NA+    NA+45239  28.542  10.741  11.946
76866NA+    NA+45240  17.147  33.482   3.639
76867NA+    NA+45241   9.228  29.626  10.500
76868NA+    NA+45242  23.077   3.412   4.765
76869NA+    NA+45243  28.665  38.336  13.337
76870NA+    NA+45244  21.199  19.245   0.732
76871NA+    NA+45245   9.858  16.573   1.398
76872NA+    NA+45246  21.123   2.821   3.355
76873NA+    NA+45247  20.626  15.627   1.720
76874NA+    NA+45248  41.390  29.583  12.486
76875NA+    NA+45249  32.091  41.371  12.380
76876NA+    NA+45250  29.984   2.428   0.835
76877NA+    NA+45251   4.847   6.256  12.973
76878NA+    NA+45252  20.169  43.302   2.849
76879NA+    NA+45253   0.853  17.094  12.993
76880NA+    NA+45254  33.919  41.999   1.427
76881NA+    NA+45255  42.921  12.186   4.151
76882NA+    NA+45256  24.714  27.591  14.882
76883NA+    NA+45257  44.281  10.836  12.918
76884NA+    NA+45258  43.772  36.545   2.667
76885NA+    NA+45259  44.364  16.790  14.358
76886NA+    NA+45260  13.834   2.884  12.982
76887NA+    NA+45261   3.374  36.956   1.289
76888NA+    NA+45262  17.173  39.513  10.608
76889NA+    NA+45263  20.265  19.252  12.354
76890NA+    NA+45264  24.985   7.308   4.334
76891NA+    NA+45265  43.854  15.100  14.398
76892NA+    NA+45266   5.889  44.406   0.426
76893NA+    NA+45267  20.238  41.503  12.555
76894NA+    NA+45268  36.981  32.903   0.958
76895NA+    NA+45269  36.593  21.727  10.557
76896NA+    NA+45270  34.984   5.270  11.427
76897NA+    NA+45271  23.654  18.748  14.463
76898NA+    NA+45272  39.416  27.027  11.451
76899NA+    NA+45273  40.936  29.019   2.885
76900NA+    NA+45274  43.990  31.908  12.043
76901NA+    NA+45275  29.141   1.459  14.960
76902NA+    NA+45276  21.521   2.291  14.845
76903NA+    NA+45277  28.964  43.810   0.791
76904NA+    NA+45278  15.221  14.222  14.936
76905NA+    NA+45279  33.958  32.428   4.644
76906NA+    NA+45280  21.542  10.706  12.006
76907NA+    NA+45281  36.074  31.509  14.308
76908NA+    NA+45282  37.553   9.210  10.597
76909NA+    NA+45283  27.109  20.127   3.821
76910NA+    NA+45284   0.324  44.345  11.524
76911NA+    NA+45285  25.161  24.161   4.310
76912NA+    NA+45286  26.598  33.974  11.046
76913NA+    NA+45287  39.403  44.284   0.831
76914NA+    NA+45288  26.686  40.040   9.957
76915NA+    NA+45289   2.905  10.865  13.874
76916NA+    NA+45290  25.477  42.409   4.139
76917NA+    NA+45291  41.924  28.964  12.995
76918NA+    NA+45292  43.765  19.734   3.287
76919NA+    NA+45293  30.554  43.949   3.386
76920NA+    NA+45294   8.667  19.650   2.210
76921NA+    NA+45295  34.005   5.837   4.300
76922NA+    NA+45296  24.666   3.234  12.045
76923NA+    NA+45297  29.487  16.583  14.363
76924NA+    NA+45298  40.025  43.351  14.859
76925NA+    NA+45299  10.695   0.886  10.616
76926NA+    NA+45300  17.149  12.221  14.979
76927NA+    NA+45301  27.154  35.083  14.388
76928NA+    NA+45302  29.669  36.360   4.274
76929NA+    NA+45303  21.060  23.086   0.254
76930NA+    NA+45304  41.399  11.746  13.054
76931NA+    NA+45305   8.187  17.195   2.319
76932NA+    NA+45306   4.206  19.198   2.401
76933NA+    NA+45307  22.179   2.727   2.300
76934NA+    NA+45308  13.760  34.976   3.237
76935NA+    NA+45309  12.771   6.369   4.741
76936NA+    NA+45310  38.519  30.573   2.319
76937NA+    NA+45311  25.991  21.028   1.874
76938NA+    NA+45312  14.209  10.275   0.334
76939NA+    NA+45313  27.120  43.440   1.699
76940NA+    NA+45314  30.617  25.578  14.978
76941NA+    NA+45315   8.822  12.741  10.899
76942NA+    NA+45316  15.240  25.027  14.425
76943NA+    NA+45317  36.378   8.226   2.310
76944NA+    NA+45318  40.546  44.474   2.328
76945NA+    NA+45319   1.309  35.381   2.777
76946NA+    NA+45320   8.857  42.874   4.341
76947NA+    NA+45321  18.246  11.292   1.245
76948NA+    NA+45322  42.848  11.304  13.866
76949NA+    NA+45323  31.620  38.855  14.327
76950NA+    NA+45324  11.163  36.451   2.731
76951NA+    NA+45325  19.158  28.078   3.770
76952NA+    NA+45326  14.194  14.677   0.794
76953NA+    NA+45327  33.576  44.462   0.816
76954NA+    NA+45328  23.705  19.618  12.866
76955NA+    NA+45329  33.551  10.364  11.938
76956NA+    NA+45330  42.962  41.516   4.827
76957NA+    NA+45331  22.692  11.236   0.902
76958NA+    NA+45332  38.487  37.577  14.893
76959NA+    NA+45333  42.847  14.168   0.392
76960NA+    NA+45334  40.011  41.536   3.683
76961NA+    NA+45335  14.722  39.831   2.187
76962NA+    NA+45336  24.720   9.803   2.854
76963NA+    NA+45337  28.548  40.021   2.269
76964NA+    NA+45338  21.610  24.683   4.183
76965NA+    NA+45339   8.270  23.241   1.256
76966NA+    NA+45340  29.170  19.168  14.406
76967NA+    NA+45341  34.413  38.462  13.461
76968NA+    NA+45342  33.093  28.589   0.921
76969NA+    NA+45343  18.135  29.428   3.757
76970NA+    NA+45344  41.862  43.910  12.092
76971NA+    NA+45345   2.849  32.135  14.398
76972NA+    NA+45346  24.721   9.244  14.296
76973NA+    NA+45347  33.026  24.664  14.808
76974NA+    NA+45348   0.766  33.927  14.024
76975NA+    NA+45349  43.325  34.531  13.841
76976NA+    NA+45350   6.916   9.312   3.271
76977NA+    NA+45351  28.655  37.053   4.225
76978NA+    NA+45352  40.893   9.829  13.907
76979NA+    NA+45353  43.878   1.461  13.011
76980NA+    NA+45354   9.875   8.661  12.069
76981NA+    NA+45355  19.098   1.764   0.450
76982NA+    NA+45356   2.312  27.999  13.487
76983NA+    NA+45357   4.434   4.801   2.795
76984NA+    NA+45358  23.146  15.321  14.325
76985NA+    NA+45359  19.222   3.422   1.315
76986NA+    NA+45360  32.006  28.110   4.317
76987NA+    NA+45361   9.299  20.526  11.916
76988NA+    NA+45362   3.761  16.691  13.491
76989NA+    NA+45363  26.161  23.735  11.589
76990NA+    NA+45364  19.241  32.459   3.808
76991NA+    NA+45365  31.594  33.581  12.356
76992NA+    NA+45366  43.881  15.677   1.742
76993NA+    NA+45367  18.114   5.430  14.951
76994NA+    NA+45368  42.915  36.037  10.896
76995NA+    NA+45369  37.924   9.292  11.986
76996NA+    NA+45370  43.307   9.323   1.359
76997NA+    NA+45371  40.451  28.462  12.908
76998NA+    NA+45372  39.396   0.752  11.065
76999NA+    NA+45373  27.132   3.929   2.744
77000NA+    NA+45374   0.480  32.008   4.306
77001NA+    NA+45375   2.729   5.727   0.316
77002NA+    NA+45376  39.021  44.890  14.391
77003NA+    NA+45377  29.072  14.663  10.922
77004NA+    NA+45378  29.499  33.032   2.829
77005NA+    NA+45379  11.250  21.589   0.871
77006NA+    NA+45380  18.648   1.281  14.789
77007NA+    NA+45381  18.636  36.894  12.437
77008NA+    NA+45382  15.656  25.061  14.470
77009NA+    NA+45383  13.691  12.771   4.731
77010NA+    NA+45384   1.439  29.053  13.972
77011NA+    NA+45385  15.117   8.341   5.278
77012NA+    NA+45386   1.453  32.895  14.412
77013NA+    NA+45387   9.720   7.734  14.378
77014NA+    NA+45388  23.154  29.495   9.455
77015NA+    NA+45389  14.663  39.030   2.251
77016NA+    NA+45390  38.552   8.269   0.926
77017NA+    NA+45391  39.993  36.572   3.254
77018NA+    NA+45392  35.559  42.324  11.537
77019NA+    NA+45393   6.868  26.472   3.312
77020NA+    NA+45394  32.071  42.395   3.691
77021NA+    NA+45395  41.432  13.324  11.557
77022NA+    NA+45396  37.407  26.526  10.603
77023NA+    NA+45397  44.784  31.123  12.010
77024NA+    NA+45398  42.473  15.119   2.666
77025NA+    NA+45399  41.872  21.144  11.504
77026NA+    NA+45400  36.052  36.558   0.431
77027NA+    NA+45401  30.998  17.158   3.662
77028NA+    NA+45402  25.046  19.230  14.447
77029NA+    NA+45403  26.183  27.509   0.348
77030NA+    NA+45404  43.954  40.992   1.933
77031NA+    NA+45405   8.781   9.686  11.090
77032NA+    NA+45406  28.580  16.642  12.047
77033NA+    NA+45407  36.576  43.935   2.222
77034NA+    NA+45408   6.724  32.978   3.864
77035NA+    NA+45409  19.746  36.082   0.474
77036NA+    NA+45410  17.177  19.745  13.827
77037NA+    NA+45411   1.791  18.748  12.048
77038NA+    NA+45412  30.475   3.226  12.825
77039NA+    NA+45413  31.131  11.171  13.008
77040NA+    NA+45414  16.592  31.956   3.783
77041NA+    NA+45415  31.612  25.974  12.428
77042NA+    NA+45416   8.841   8.199   3.847
77043NA+    NA+45417  42.920  37.348   2.846
77044NA+    NA+45418  35.587   5.264   4.787
77045NA+    NA+45419  41.481  28.488   0.396
77046NA+    NA+45420  21.156  19.127  12.828
77047NA+    NA+45421  27.675  31.644   0.349
77048NA+    NA+45422  12.733   6.710  14.990
77049NA+    NA+45423   3.789  15.805   4.172
77050NA+    NA+45424  20.044  18.710  14.426
77051NA+    NA+45425  35.056   2.813   1.871
77052NA+    NA+45426  11.832  39.891   3.320
77053NA+    NA+45427  16.710  15.303  10.939
77054NA+    NA+45428   3.874   5.864  12.507
77055NA+    NA+45429  12.125  26.464   2.264
77056NA+    NA+45430   6.187   0.369   0.264
77057NA+    NA+45431  39.369  31.071   3.669
77058NA+    NA+45432  42.323   6.812   2.222
77059NA+    NA+45433  27.029   4.714   1.877
77060NA+    NA+45434  31.494  43.810   0.396
77061NA+    NA+45435  34.981  44.772  14.762
77062NA+    NA+45436  16.727  44.944   2.190
77063NA+    NA+45437   3.234  21.053   4.276
77064NA+    NA+45438  31.952   2.319  13.839
77065NA+    NA+45439   2.856   0.473   1.771
77066NA+    NA+45440  30.637  44.923   4.697
77067NA+    NA+45441   2.426  25.076   3.206
77068NA+    NA+45442  44.815  22.575  10.062
77069NA+    NA+45443  29.991  12.642  11.953
77070NA+    NA+45444   1.749  28.041   4.640
77071NA+    NA+45445  25.527  30.577  11.610
77072NA+    NA+45446   6.294   4.870   3.814
77073NA+    NA+45447   2.287  42.337  10.509
77074NA+    NA+45448  20.550  26.081   4.340
77075NA+    NA+45449  19.201   1.479  14.814
77076NA+    NA+45450  35.964  14.276  14.391
77077NA+    NA+45451   4.258  40.535   0.745
77078NA+    NA+45452  32.410  38.341   2.366
77079NA+    NA+45453  13.679  34.021   0.861
77080NA+    NA+45454  41.343  29.961  12.945
77081NA+    NA+45455   5.195  13.260   4.130
77082NA+    NA+45456  13.133  34.440  13.988
77083NA+    NA+45457  27.524  21.130   4.318
77084NA+    NA+45458  17.770   2.794  11.975
77085NA+    NA+45459  21.163  33.028   0.937
77086NA+    NA+45460  22.628  24.070  12.473
77087NA+    NA+45461  39.358  20.153   1.694
77088NA+    NA+45462   1.908   2.823   2.396
77089NA+    NA+45463  20.056  40.940  13.443
77090NA+    NA+45464  40.355   9.154   3.228
77091NA+    NA+45465   7.724  26.616  11.391
77092NA+    NA+45466  37.050  35.587   4.666
77093NA+    NA+45467  35.415  11.785   4.652
77094NA+    NA+45468  26.009  43.306  11.501
77095NA+    NA+45469  36.048   3.863   4.143
77096NA+    NA+45470   2.815   4.450  10.440
77097NA+    NA+45471  20.046  23.719  11.435
77098NA+    NA+45472  26.459  25.634   0.895
77099NA+    NA+45473  12.704  40.474  13.360
77100NA+    NA+45474  33.413  14.602   3.639
77101NA+    NA+45475  40.496   3.942  12.507
77102NA+    NA+45476  38.054  29.132  12.522
77103NA+    NA+45477  10.808  14.639   2.298
77104NA+    NA+45478  41.343  40.904   0.844
77105NA+    NA+45479  10.367  15.759   4.148
77106NA+    NA+45480  32.545  44.378  13.462
77107NA+    NA+45481  25.701   8.310  12.877
77108NA+    NA+45482  20.072  21.752  11.442
77109NA+    NA+45483  44.834  13.718   4.343
77110NA+    NA+45484   2.328   0.748   0.842
77111NA+    NA+45485  23.986  12.217  12.574
77112NA+    NA+45486   3.444  27.024  13.413
77113NA+    NA+45487  35.587  37.409  13.969
77114NA+    NA+45488  44.787  30.942  11.539
77115NA+    NA+45489   3.941   7.356   0.885
77116NA+    NA+45490  42.293   1.393   4.667
77117NA+    NA+45491  39.993   0.921   0.387
77118NA+    NA+45492  38.074  42.994  14.819
77119NA+    NA+45493  40.386  16.573  13.832
77120NA+    NA+45494  41.370  26.567   1.251
77121NA+    NA+45495  16.810   0.283   2.764
77122NA+    NA+45496  14.746  25.493   0.798
77123NA+    NA+45497  42.283  23.239  13.011
77124NA+    NA+45498  15.644  17.794  14.930
77125NA+    NA+45499  40.936  20.662   1.787
77126NA+    NA+45500  21.733  17.792   0.381
77127NA+    NA+45501  40.030  27.610  12.985
77128NA+    NA+45502  43.439  44.493  13.488
77129NA+    NA+45503   0.290   8.819  11.929
77130NA+    NA+45504   2.267  14.821  11.885
77131NA+    NA+45505  14.100   7.226   3.362
77132NA+    NA+45506   7.384  38.013   0.808
77133NA+    NA+45507  14.252  22.510  14.281
77134NA+    NA+45508  37.383  26.502   0.844
77135NA+    NA+45509  42.338  34.419  12.568
77136NA+    NA+45510  43.925  24.084  11.060
77137NA+    NA+45511  20.740  39.993   3.734
77138NA+    NA+45512   8.807  33.402  11.570
77139NA+    NA+45513  42.928  23.596   0.959
77140NA+    NA+45514  38.517  31.514  12.535
77141NA+    NA+45515  23.532  13.154  12.484
77142NA+    NA+45516  40.318  22.996   0.371
77143NA+    NA+45517  30.625  40.370   3.380
77144NA+    NA+45518  44.423  15.131  10.576
77145NA+    NA+45519  22.744  30.127  10.488
77146NA+    NA+45520  32.987   7.394   2.289
77147NA+    NA+45521  10.251  16.150   4.253
77148NA+    NA+45522  23.035  30.499  14.394
77149NA+    NA+45523   4.394   0.291  13.943
77150NA+    NA+45524  44.478  23.723  12.974
77151NA+    NA+45525  41.309  27.104   3.852
77152NA+    NA+45526  17.736   6.282  12.864
77153NA+    NA+45527  37.003  23.642   2.784
77154NA+    NA+45528   4.366  25.082   3.382
77155NA+    NA+45529   6.428  31.475   2.310
77156NA+    NA+45530  18.264  11.237   0.832
77157NA+    NA+45531  29.640  25.118   1.699
77158NA+    NA+45532  32.481   0.861  12.426
77159NA+    NA+45533  10.865  19.155   2.250
77160NA+    NA+45534  44.354   8.710  12.355
77161NA+    NA+45535  27.192  19.585  14.475
77162NA+    NA+45536  42.775   7.361   2.667
77163NA+    NA+45537  31.646  17.153  13.357
77164NA+    NA+45538   6.891  10.735  11.888
77165NA+    NA+45539  40.985  36.389   0.774
77166NA+    NA+45540  30.611  31.911  11.451
77167NA+    NA+45541   7.727  42.330   1.357
77168NA+    NA+45542  28.123  27.563  14.285
77169NA+    NA+45543  41.406  30.036  14.507
77170NA+    NA+45544  44.369   4.845  14.912
77171NA+    NA+45545  37.908  28.592   0.919
77172NA+    NA+45546  28.449  28.158   3.157
77173NA+    NA+45547   6.825   2.846  11.074
77174NA+    NA+45548  31.080  18.228  12.359
77175NA+    NA+45549  42.372  24.000   2.859
77176NA+    NA+45550  36.061  35.499  13.054
77177NA+    NA+45551  33.041  38.553  10.527
77178NA+    NA+45552  32.553  25.617  13.313
77179NA+    NA+45553  26.643   7.795  13.389
77180NA+    NA+45554  21.755   6.878  10.633
77181NA+    NA+45555  44.831  32.126   3.703
77182NA+    NA+45556  28.955  22.012   1.901
77183NA+    NA+45557  37.550  22.166   2.841
77184NA+    NA+45558  21.647  23.604  11.900
77185NA+    NA+45559  34.932  18.690   4.119
77186NA+    NA+45560  32.972  26.034   4.643
77187NA+    NA+45561  36.962   3.871   2.405
77188NA+    NA+45562  40.447  30.918  11.858
77189NA+    NA+45563  43.488  36.980  13.412
77190NA+    NA+45564  33.403  16.781  13.353
77191NA+    NA+45565  32.595   0.817   3.190
77192NA+    NA+45566  28.593   8.697   3.382
77193NA+    NA+45567  27.448   3.948   3.719
77194NA+    NA+45568  15.685  17.782   1.401
77195NA+    NA+45569  30.006  28.015   2.374
77196NA+    NA+45570  26.460  24.688  11.885
77197NA+    NA+45571  39.021   2.311   4.240
77198NA+    NA+45572  28.114  21.206   1.256
77199NA+    NA+45573  20.759  30.462  12.457
77200NA+    NA+45574   5.857  38.405  11.375
77201NA+    NA+45575  23.086   0.427   4.735
77202NA+    NA+45576  41.435   4.756  12.076
77203NA+    NA+45577  19.177  42.370  12.380
77204NA+    NA+45578   7.390  31.648   3.276
77205NA+    NA+45579  32.414  33.933   0.311
77206NA+    NA+45580  44.758  34.006  10.460
77207NA+    NA+45581  20.657  33.009  14.934
77208NA+    NA+45582   1.318   2.904   3.305
77209NA+    NA+45583  22.055  11.226  13.527
77210NA+    NA+45584   4.345  22.120  10.969
77211NA+    NA+45585  38.552   5.348   0.751
77212NA+    NA+45586  35.064  12.661   0.437
77213NA+    NA+45587   1.778   6.323  12.086
77214NA+    NA+45588  38.392   0.333   2.342
77215NA+    NA+45589  41.820   1.444  11.882
77216NA+    NA+45590  40.437  18.283  12.945
77217NA+    NA+45591   8.849  21.670  12.431
77218NA+    NA+45592  31.422  11.650   3.780
77219NA+    NA+45593  19.740  13.306  12.024
77220NA+    NA+45594   8.893  12.357  13.990
77221NA+    NA+45595  12.813  27.548   0.329
77222NA+    NA+45596  41.037   7.831  13.451
77223NA+    NA+45597  34.002   6.396  12.474
77224NA+    NA+45598  39.538   0.763  14.910
77225NA+    NA+45599  12.728   5.773   1.318
77226NA+    NA+45600   0.769   3.904   0.817
77227NA+    NA+45601  31.919   4.337  10.638
77228NA+    NA+45602  36.863  35.409   3.199
77229NA+    NA+45603  28.461  33.106  11.912
77230NA+    NA+45604   1.786  43.960   0.928
77231NA+    NA+45605   4.716  27.195   2.294
77232NA+    NA+45606  19.627  39.412   4.175
77233NA+    NA+45607  38.511  33.975   3.700
77234NA+    NA+45608  22.584   3.235   0.318
77235NA+    NA+45609   6.196  42.426  14.008
77236NA+    NA+45610  19.614  25.688   2.673
77237NA+    NA+45611  38.823   7.348  12.085
77238NA+    NA+45612  40.457   2.241  11.122
77239NA+    NA+45613  26.518   0.797  13.944
77240NA+    NA+45614  19.594   4.825   4.756
77241NA+    NA+45615  44.383  35.071   1.373
77242NA+    NA+45616  27.516  26.458  14.358
77243NA+    NA+45617   6.687  13.252  13.482
77244NA+    NA+45618  14.268  32.973  12.964
77245NA+    NA+45619  14.735  28.500   4.805
77246NA+    NA+45620  42.358  32.455   2.180
77247NA+    NA+45621   9.287  33.049   3.355
77248NA+    NA+45622  28.546  31.977   2.732
77249NA+    NA+45623  34.381  21.157   2.235
77250NA+    NA+45624   8.869  34.610  13.469
77251NA+    NA+45625  13.217  10.198   0.942
77252NA+    NA+45626  44.916  20.645   4.822
77253NA+    NA+45627  23.001  31.425   2.278
77254NA+    NA+45628  38.014  10.177   4.701
77255NA+    NA+45629  19.044  12.130  13.397
77256NA+    NA+45630  26.636  11.351  11.569
77257NA+    NA+45631  23.118   0.877   1.908
77258NA+    NA+45632  12.244  32.631  14.888
77259NA+    NA+45633  23.083   1.892  13.044
77260NA+    NA+45634  23.665  39.052   4.135
77261NA+    NA+45635  37.943  37.382   3.682
77262NA+    NA+45636   3.770  43.931  11.043
77263NA+    NA+45637  22.606  40.910  12.451
77264NA+    NA+45638  13.340   3.218   2.203
77265NA+    NA+45639  16.720  23.007   2.712
77266NA+    NA+45640   0.326  11.628  11.469
77267NA+    NA+45641  40.883  18.708  10.551
77268NA+    NA+45642  19.096  31.136  11.387
77269NA+    NA+45643   3.848   6.716   1.424
77270NA+    NA+45644   5.367  11.811   9.929
77271NA+    NA+45645  43.962  38.991  12.904
77272NA+    NA+45646   5.792  31.948  10.990
77273NA+    NA+45647   8.406   1.342   1.926
77274NA+    NA+45648   8.350  11.819  13.487
77275NA+    NA+45649  21.521  18.081  12.845
77276NA+    NA+45650  23.123  24.034  11.076
77277NA+    NA+45651   5.305  14.797  14.375
77278NA+    NA+45652  43.420  14.804   3.662
77279NA+    NA+45653   9.821  40.372  11.588
77280NA+    NA+45654  25.680  29.919   3.310
77281NA+    NA+45655  10.872  14.756  12.537
77282NA+    NA+45656   8.397  16.158   2.396
77283NA+    NA+45657  17.225  13.810   4.601
77284NA+    NA+45658  19.673   8.774   5.269
77285NA+    NA+45659   6.877  28.671   0.751
77286NA+    NA+45660  37.448  19.121  12.058
77287NA+    NA+45661  32.890  17.133  10.624
77288NA+    NA+45662   1.273  34.519  10.579
77289NA+    NA+45663  37.845  43.272  13.449
77290NA+    NA+45664  44.880  39.817  13.003
77291NA+    NA+45665  32.106  36.389   2.252
77292NA+    NA+45666  43.508  27.042  12.902
77293NA+    NA+45667  30.981   8.699   3.311
77294NA+    NA+45668  17.574  29.014   0.967
77295NA+    NA+45669  35.576   8.809   2.771
77296NA+    NA+45670   4.930   7.748  10.556
77297NA+    NA+45671   5.328  10.648   4.604
77298NA+    NA+45672  33.402  40.985   2.897
77299NA+    NA+45673   8.227  10.230  13.380
77300NA+    NA+45674  15.717  18.107  11.599
77301NA+    NA+45675  16.788  39.856   4.343
77302NA+    NA+45676  26.500   2.448  11.860
77303NA+    NA+45677  14.200  16.073  12.534
77304NA+    NA+45678  22.636   3.771  11.485
77305NA+    NA+45679  21.564  28.542  13.044
77306NA+    NA+45680  37.353   7.211  12.561
77307NA+    NA+45681  34.505  25.077  12.842
77308NA+    NA+45682  22.530  36.049   1.303
77309NA+    NA+45683  15.603   2.330   0.788
77310NA+    NA+45684  25.186  11.787   5.148
77311NA+    NA+45685  36.581  39.942   4.704
77312NA+    NA+45686  15.141   2.956  12.482
77313NA+    NA+45687  31.936  43.419   4.610
77314NA+    NA+45688  40.993  36.849  13.854
77315NA+    NA+45689  35.932  19.676   3.268
77316NA+    NA+45690   4.326  22.744  10.482
77317NA+    NA+45691  23.060  41.944  12.376
77318NA+    NA+45692  12.782  22.521  10.529
77319NA+    NA+45693   7.187  17.240   0.865
77320NA+    NA+45694  32.952   8.182  11.483
77321NA+    NA+45695  19.275  38.977  12.490
77322NA+    NA+45696  40.413  41.469   4.611
77323NA+    NA+45697  33.950  32.965   0.314
77324NA+    NA+45698  37.505  23.145   1.741
77325NA+    NA+45699   1.240  23.688  13.995
77326NA+    NA+45700   8.254  43.436  12.082
77327NA+    NA+45701  34.026   8.346   0.752
77328NA+    NA+45702  39.448  12.176  10.497
77329NA+    NA+45703  22.687   2.962  13.962
77330NA+    NA+45704   2.774  24.112  14.406
77331NA+    NA+45705  12.277  15.806   1.888
77332NA+    NA+45706  15.605  12.335  10.563
77333NA+    NA+45707  36.451  44.832   0.295
77334NA+    NA+45708  11.627  38.070  12.946
77335NA+    NA+45709   5.743  37.536  12.046
77336NA+    NA+45710  27.140   6.278   1.241
77337NA+    NA+45711   1.294  13.341   2.413
77338NA+    NA+45712  22.162  44.298  13.939
77339NA+    NA+45713  11.279  39.922   1.820
77340NA+    NA+45714  37.941  34.963   4.735
77341NA+    NA+45715  16.664  41.847  10.632
77342NA+    NA+45716  35.987  37.983   2.764
77343NA+    NA+45717  40.420  30.572   4.714
77344NA+    NA+45718  10.835  40.038   4.198
77345NA+    NA+45719  21.155  15.233  14.804
77346NA+    NA+45720  31.063  40.500   3.258
77347NA+    NA+45721  12.205  17.096  11.582
77348NA+    NA+45722  39.326  16.079  14.467
77349NA+    NA+45723  39.914  33.015  13.398
77350NA+    NA+45724  20.187  30.423   2.385
77351NA+    NA+45725  30.921  12.163  13.316
77352NA+    NA+45726   9.668  40.508  10.618
77353NA+    NA+45727  12.151  18.744   2.254
77354NA+    NA+45728   9.165   1.266  14.286
77355NA+    NA+45729  22.714  43.344  11.869
77356NA+    NA+45730  25.562   3.443   1.432
77357NA+    NA+45731   7.819   9.817  11.982
77358NA+    NA+45732  29.476  44.845  14.957
77359NA+    NA+45733  11.662  37.870   0.261
77360NA+    NA+45734  13.758   5.706  11.540
77361NA+    NA+45735  11.764  27.635   2.886
77362NA+    NA+45736  15.798   4.794  14.830
77363NA+    NA+45737  33.480  39.426  12.063
77364NA+    NA+45738  16.665  28.973   0.249
77365NA+    NA+45739  24.551   3.351  10.461
77366NA+    NA+45740  32.483  35.062   3.182
77367NA+    NA+45741  10.308  30.601   3.740
77368NA+    NA+45742  23.575  29.599   1.915
77369NA+    NA+45743   3.756  44.973   3.182
77370NA+    NA+45744  40.900  35.431   0.764
77371NA+    NA+45745  39.917   7.176   4.650
77372NA+    NA+45746  38.954   0.386  11.455
77373NA+    NA+45747  19.133   4.238   1.866
77374NA+    NA+45748  12.187  28.956  13.378
77375NA+    NA+45749  30.508  12.836   3.634
77376NA+    NA+45750  21.144  32.090   5.146
77377NA+    NA+45751   8.671  25.487  12.403
77378NA+    NA+45752  41.380  28.151  14.882
77379NA+    NA+45753  44.480  23.115   1.281
77380NA+    NA+45754   0.322   9.796  10.925
77381NA+    NA+45755  33.549  39.883   4.260
77382NA+    NA+45756   2.792  40.513  13.447
77383NA+    NA+45757  33.989  14.201   1.247
77384NA+    NA+45758   9.764  28.966  12.078
77385NA+    NA+45759   5.761  14.246  12.536
77386NA+    NA+45760  16.165  32.041   0.785
77387NA+    NA+45761   8.729  19.599  13.039
77388NA+    NA+45762  24.175  43.420   4.177
77389NA+    NA+45763  28.017  23.570   3.250
77390NA+    NA+45764  17.786  12.262   3.807
77391NA+    NA+45765  27.475  25.620  14.831
77392NA+    NA+45766  42.334  27.643   4.661
77393NA+    NA+45767  13.672  35.583  13.480
77394NA+    NA+45768  20.191  33.076  13.406
77395NA+    NA+45769  41.407  11.313  12.407
77396NA+    NA+45770  32.951  23.645  14.951
77397NA+    NA+45771   3.951  27.690  13.903
77398NA+    NA+45772  39.450   4.228  12.854
77399NA+    NA+45773  15.222   9.202  11.011
77400NA+    NA+45774  39.036  17.233   4.325
77401NA+    NA+45775  27.495  13.136  12.825
77402NA+    NA+45776  41.443  38.075   4.791
77403NA+    NA+45777  25.595  21.643   0.292
77404NA+    NA+45778  13.142  13.811  11.034
77405NA+    NA+45779  17.254  13.319   2.783
77406NA+    NA+45780  22.215  37.076   3.714
77407NA+    NA+45781  15.265  40.015   1.911
77408NA+    NA+45782  18.776  37.945   4.180
77409NA+    NA+45783  40.908   3.383  12.095
77410NA+    NA+45784  18.241   0.946   2.336
77411NA+    NA+45785  15.142  11.788  12.372
77412NA+    NA+45786   8.813  44.482   4.671
77413NA+    NA+45787  32.098  24.206   4.325
77414NA+    NA+45788  37.921  42.359  13.940
77415NA+    NA+45789  18.252   4.329  13.971
77416NA+    NA+45790  13.257  23.566   4.317
77417NA+    NA+45791  14.251  33.403  14.031
77418NA+    NA+45792  44.822  25.632  13.487
77419NA+    NA+45793  39.392  17.205   3.354
77420NA+    NA+45794  25.650  30.029  13.879
77421NA+    NA+45795  36.477   1.901  12.060
77422NA+    NA+45796  40.407  18.770   1.324
77423NA+    NA+45797   9.257  34.980  11.001
77424NA+    NA+45798  34.042  13.652  11.389
77425NA+    NA+45799   1.823  22.558   2.297
77426NA+    NA+45800   9.306   4.406  12.843
77427NA+    NA+45801  11.333  42.830   4.202
77428NA+    NA+45802  11.174  39.527   0.329
77429NA+    NA+45803  24.683  40.942  12.891
77430NA+    NA+45804   5.256   9.884  10.893
77431NA+    NA+45805  22.252  20.606  13.532
77432NA+    NA+45806  37.352  22.641   0.894
77433NA+    NA+45807   9.873  14.652   0.402
77434NA+    NA+45808  26.593  28.982   4.789
77435NA+    NA+45809   7.799  33.069  12.506
77436NA+    NA+45810  12.254   7.851   2.221
77437NA+    NA+45811  33.549  11.767   1.717
77438NA+    NA+45812  10.834  24.693   1.397
77439NA+    NA+45813   3.823  37.938  13.057
77440NA+    NA+45814  38.362  13.611  12.480
77441NA+    NA+45815  37.553  18.214  14.838
77442NA+    NA+45816  26.079  12.318  12.541
77443NA+    NA+45817  37.508  42.946  14.317
77444NA+    NA+45818  17.239  32.116   9.953
77445NA+    NA+45819   8.396  20.180   1.805
77446NA+    NA+45820   7.880  13.272  10.515
77447NA+    NA+45821  28.989  17.086  13.509
77448NA+    NA+45822  32.973   3.738  14.995
77449NA+    NA+45823  13.663  10.368  12.379
77450NA+    NA+45824   6.694   0.954  12.946
77451NA+    NA+45825  16.787  10.656  10.529
77452NA+    NA+45826  29.951  33.049   0.832
77453NA+    NA+45827  14.192   8.255   5.158
77454NA+    NA+45828  41.492  29.613  14.980
77455NA+    NA+45829  15.654  19.603   5.213
77456NA+    NA+45830   6.245  14.291  12.453
77457NA+    NA+45831  18.645  29.160  11.117
77458NA+    NA+45832  21.639  19.053  14.801
77459NA+    NA+45833   4.358  44.792  11.524
77460NA+    NA+45834   2.780  17.571  14.820
77461NA+    NA+45835  36.890  43.393  12.992
77462NA+    NA+45836   7.320  26.560  11.378
77463NA+    NA+45837  34.612  32.121  12.848
77464NA+    NA+45838  36.385  11.721  13.332
77465NA+    NA+45839  22.665   6.706   4.279
77466NA+    NA+45840  35.069  19.080  13.006
77467NA+    NA+45841  15.631  12.690   4.157
77468NA+    NA+45842  35.571  35.006   4.693
77469NA+    NA+45843   2.352   4.830  14.288
77470NA+    NA+45844  30.514  20.685   2.377
77471NA+    NA+45845  44.763  30.485  13.414
77472NA+    NA+45846   2.472  40.351  11.492
77473NA+    NA+45847  36.013  26.073   1.409
77474NA+    NA+45848  25.012  37.388   1.338
77475NA+    NA+45849  20.761  35.047   3.294
77476NA+    NA+45850   2.805  33.012  13.815
77477NA+    NA+45851   2.423  43.864   3.792
77478NA+    NA+45852   2.235  14.300   5.272
77479NA+    NA+45853  15.589   3.424  14.455
77480NA+    NA+45854   2.402  27.106   1.935
77481NA+    NA+45855   6.712  14.647  14.947
77482NA+    NA+45856  14.293  25.199  11.015
77483NA+    NA+45857  10.728  19.167  14.502
77484NA+    NA+45858   6.290  39.447   1.851
77485NA+    NA+45859  12.704  27.510   2.859
77486NA+    NA+45860  44.770  41.978   4.226
77487NA+    NA+45861  18.063   2.230   2.367
77488NA+    NA+45862  13.279  44.459   0.474
77489NA+    NA+45863  19.719  44.862  12.510
77490NA+    NA+45864  12.844  12.692   2.799
77491NA+    NA+45865  41.305  34.057   0.307
77492NA+    NA+45866  43.855  33.984   0.246
77493NA+    NA+45867  40.412  30.060  12.960
77494NA+    NA+45868  26.986  34.015  10.437
77495NA+    NA+45869   9.332   9.811  14.286
77496NA+    NA+45870  43.425   5.845   0.890
77497NA+    NA+45871  30.945   4.385  13.918
77498NA+    NA+45872  35.008   8.339  13.903
77499NA+    NA+45873  35.011   8.218  11.075
77500NA+    NA+45874  31.570  24.704   2.869
77501NA+    NA+45875  34.957  38.897   5.310
77502NA+    NA+45876  41.415  33.626  10.430
77503NA+    NA+45877  19.707  17.576   1.917
77504NA+    NA+45878  38.561  25.517  14.916
77505NA+    NA+45879  27.196   9.184  14.024
77506NA+    NA+45880  22.640   1.361  10.595
77507NA+    NA+45881  25.149  19.656  13.343
77508NA+    NA+45882  44.300  25.992  11.904
77509NA+    NA+45883   4.280   9.709  11.382
77510NA+    NA+45884  15.239   3.907  13.858
77511NA+    NA+45885  35.979  15.167  14.435
77512NA+    NA+45886  14.113   5.820  13.460
77513NA+    NA+45887   3.747  31.542  10.558
77514NA+    NA+45888   4.859  25.193   4.628
77515NA+    NA+45889  20.728  34.507   2.302
77516NA+    NA+45890   1.755  21.260   1.722
77517NA+    NA+45891   6.919  19.704   0.361
77518NA+    NA+45892  36.067  15.252   0.450
77519NA+    NA+45893  30.529  16.125   3.371
77520NA+    NA+45894  28.944   7.220   1.860
77521NA+    NA+45895  21.525  11.648   4.149
77522NA+    NA+45896   2.359  10.293  14.963
77523NA+    NA+45897  42.848  24.106  11.877
77524NA+    NA+45898  14.708  24.723  13.309
77525NA+    NA+45899   9.826  41.812  14.948
77526NA+    NA+45900  22.121  12.716  11.992
77527NA+    NA+45901  28.958  30.632  13.951
77528NA+    NA+45902  28.950  20.234   4.199
77529NA+    NA+45903  36.356  18.105  14.953
77530NA+    NA+45904  38.967  33.034   1.867
77531NA+    NA+45905  30.050  37.392  12.508
77532NA+    NA+45906  21.129   3.408  10.132
77533NA+    NA+45907  31.529  33.064   4.325
77534NA+    NA+45908  37.365   3.723  14.000
77535NA+    NA+45909  40.528   6.232  11.495
77536NA+    NA+45910  30.532  31.434  13.365
77537NA+    NA+45911  16.737  28.659   2.765
77538NA+    NA+45912  33.618  43.473  11.089
77539NA+    NA+45913  26.113  19.186   3.824
77540NA+    NA+45914  15.233  39.532  14.812
77541NA+    NA+45915  40.460  41.904  12.042
77542NA+    NA+45916  19.120  17.186   4.833
77543NA+    NA+45917  19.129  35.099  14.319
77544NA+    NA+45918  27.957  42.418   2.813
77545NA+    NA+45919  15.307  27.985  14.302
77546NA+    NA+45920  24.157   6.850  12.030
77547NA+    NA+45921  37.973  22.219   2.313
77548NA+    NA+45922  21.227   7.709   5.092
77549NA+    NA+45923  39.906   1.847  14.509
77550NA+    NA+45924  23.527   2.376   1.384
77551NA+    NA+45925  26.465  44.977   3.349
77552NA+    NA+45926  17.061  44.806   1.791
77553NA+    NA+45927   4.903  26.153   1.419
77554NA+    NA+45928  22.247  42.306  13.308
77555NA+    NA+45929  40.964  25.526   3.233
77556NA+    NA+45930   7.905  44.767  13.318
77557NA+    NA+45931   3.923  40.870  12.028
77558NA+    NA+45932   4.208   8.682  12.091
77559NA+    NA+45933  39.811  28.102  12.465
77560NA+    NA+45934   3.950  39.009   1.385
77561NA+    NA+45935  42.494  19.072   4.221
77562NA+    NA+45936  14.229  43.501  14.285
77563NA+    NA+45937  30.562  24.229  14.905
77564NA+    NA+45938   3.729   3.229   3.355
77565NA+    NA+45939   5.878  33.430  13.377
77566NA+    NA+45940  25.986  44.435   4.633
77567NA+    NA+45941   0.394  20.233  12.932
77568NA+    NA+45942  21.524  39.472  12.463
77569NA+    NA+45943  22.214   1.867   0.343
77570NA+    NA+45944  20.654  29.083  14.331
77571NA+    NA+45945   8.387  22.521  11.378
77572NA+    NA+45946  23.103  42.445   2.388
77573NA+    NA+45947  14.255  38.348  12.926
77574NA+    NA+45948  17.620   9.342  10.406
77575NA+    NA+45949  34.101  11.249   3.382
77576NA+    NA+45950  20.128  31.928  14.413
77577NA+    NA+45951  28.111   7.225  11.101
77578NA+    NA+45952  16.709   0.830  12.979
77579NA+    NA+45953   5.836  42.363  11.592
77580NA+    NA+45954  24.024  13.642  14.462
77581NA+    NA+45955  36.436  40.907  13.453
77582NA+    NA+45956   9.168   8.195  12.521
77583NA+    NA+45957  20.032  20.587  11.486
77584NA+    NA+45958  30.921  32.888  14.986
77585NA+    NA+45959  21.563  16.105  11.101
77586NA+    NA+45960  13.210  10.684  14.800
77587NA+    NA+45961   7.208  27.506   1.858
77588NA+    NA+45962  44.403   7.714   2.312
77589NA+    NA+45963  27.954   4.232   1.754
77590NA+    NA+45964  17.609   4.380   0.917
77591NA+    NA+45965  10.331  25.074   4.817
77592NA+    NA+45966  43.815  42.800  10.994
77593NA+    NA+45967  33.453  23.614   3.866
77594NA+    NA+45968  10.705   9.387  10.545
77595NA+    NA+45969  33.444  39.386  11.557
77596NA+    NA+45970  24.631   6.802   0.451
77597NA+    NA+45971  11.356  14.106  11.477
77598NA+    NA+45972  10.665  10.303   0.302
77599NA+    NA+45973   7.754  41.459  13.523
77600NA+    NA+45974  39.463  19.578   3.686
77601NA+    NA+45975  20.077  34.046   0.431
77602NA+    NA+45976   6.838  41.862  13.343
77603NA+    NA+45977  15.689  40.993  11.478
77604NA+    NA+45978  17.286  12.626   3.842
77605NA+    NA+45979  24.642   1.280  13.470
77606NA+    NA+45980  40.354  10.807  11.499
77607NA+    NA+45981  28.940  44.396   9.939
77608NA+    NA+45982  28.995  22.104  14.810
77609NA+    NA+45983  34.393  30.028   4.242
77610NA+    NA+45984  12.713  15.598   0.370
77611NA+    NA+45985   6.908  23.141  12.501
77612NA+    NA+45986  13.227   9.688   1.267
77613NA+    NA+45987  37.541  17.660  13.401
77614NA+    NA+45988  14.674  18.188  10.418
77615NA+    NA+45989  19.119  24.542   4.623
77616NA+    NA+45990  27.987  28.587  13.019
77617NA+    NA+45991  27.462  40.945  12.971
77618NA+    NA+45992  28.149  40.412   1.707
77619NA+    NA+45993   4.810  42.824  14.474
77620NA+    NA+45994  44.419   2.301   2.812
77621NA+    NA+45995   6.900  25.509   2.790
77622NA+    NA+45996  36.059  35.948   0.352
77623NA+    NA+45997  38.820  27.494   3.784
77624NA+    NA+45998  20.239  39.063  10.142
77625NA+    NA+45999  38.865  36.874  12.345
77626NA+    NA+46000   8.164   7.725  10.415
77627NA+    NA+46001  11.353  24.111  10.463
77628NA+    NA+46002  16.620  18.784   3.357
77629NA+    NA+46003   2.384  21.051   0.263
77630NA+    NA+46004  41.350  18.626  12.865
77631NA+    NA+46005  11.711   8.406  14.883
77632NA+    NA+46006  24.578   9.828  10.593
77633NA+    NA+46007  12.849  29.974  12.457
77634NA+    NA+46008   8.186  36.010  12.515
77635NA+    NA+46009  37.879  12.763   0.471
77636NA+    NA+46010  16.700   5.712  10.904
77637NA+    NA+46011  27.044  42.292  13.813
77638NA+    NA+46012  31.121   3.781  11.590
77639NA+    NA+46013  29.659  28.652  11.499
77640NA+    NA+46014   8.848  30.085  11.884
77641NA+    NA+46015  33.930  29.541  10.453
77642NA+    NA+46016  22.539  10.254  13.481
77643NA+    NA+46017  12.134  42.867  12.008
77644NA+    NA+46018  14.099  31.438   2.902
77645NA+    NA+46019  18.059  23.054   2.246
77646NA+    NA+46020  19.654  21.629   4.164
77647NA+    NA+46021  38.963   4.889   3.679
77648NA+    NA+46022  23.600   3.272   4.808
77649NA+    NA+46023  44.963  20.243  12.485
77650NA+    NA+46024  21.068  26.487   1.444
77651NA+    NA+46025   4.928  32.402  11.010
77652NA+    NA+46026  15.593  41.364   2.688
77653NA+    NA+46027  32.010  39.867   0.421
77654NA+    NA+46028  42.407  21.024  12.024
77655NA+    NA+46029  38.039  28.987   3.174
77656NA+    NA+46030  11.278  21.119   3.219
77657NA+    NA+46031  28.034  14.687   4.277
77658NA+    NA+46032  44.442  19.600   3.175
77659NA+    NA+46033  24.122  27.500  14.444
77660NA+    NA+46034  12.284  25.005  10.539
77661NA+    NA+46035  29.975  13.824   1.339
77662NA+    NA+46036  31.940   4.363   4.252
77663NA+    NA+46037   4.766  14.146  12.357
77664NA+    NA+46038  18.758  31.065   3.802
77665NA+    NA+46039  30.038  20.189   2.275
77666NA+    NA+46040  10.867  34.525   3.657
77667NA+    NA+46041  13.816   2.464   0.925
77668NA+    NA+46042  13.280  31.575   3.850
77669NA+    NA+46043  31.091   4.813  10.075
77670NA+    NA+46044   5.389   2.403  14.014
77671NA+    NA+46045  13.324  36.947  14.475
77672NA+    NA+46046  16.087  25.604   0.833
77673NA+    NA+46047  41.348  11.166   4.632
77674NA+    NA+46048   8.232  18.282   5.639
77675NA+    NA+46049   1.849  39.517   2.775
77676NA+    NA+46050   9.849  16.226   1.917
77677NA+    NA+46051   9.775  41.934  13.966
77678NA+    NA+46052  29.046  35.070   4.676
77679NA+    NA+46053  25.496  30.050   0.951
77680NA+    NA+46054  20.157  22.252  13.336
77681NA+    NA+46055  21.062   9.217  10.584
77682NA+    NA+46056  28.470  15.204  11.573
77683NA+    NA+46057  16.222  14.785  13.514
77684NA+    NA+46058  27.587  16.198  10.941
77685NA+    NA+46059  15.129  40.460   2.185
77686NA+    NA+46060  27.501  18.709  13.901
77687NA+    NA+46061   8.332   5.903  12.438
77688NA+    NA+46062   7.812  30.917   3.204
77689NA+    NA+46063  39.955   5.899  12.869
77690NA+    NA+46064  37.060  40.804   3.744
77691NA+    NA+46065  41.446   1.333   1.261
77692NA+    NA+46066  44.374  15.180   0.317
77693NA+    NA+46067  20.760  42.332  14.812
77694NA+    NA+46068   4.899   7.200  14.399
77695NA+    NA+46069  17.758   9.311  14.298
77696NA+    NA+46070   8.787  18.569   2.670
77697NA+    NA+46071  34.581  43.386   1.359
77698NA+    NA+46072  42.303   2.759  11.856
77699NA+    NA+46073  43.422  37.948  14.382
77700NA+    NA+46074   9.688   0.908   4.657
77701NA+    NA+46075  41.409  25.609  14.889
77702NA+    NA+46076  36.982  43.313   2.392
77703NA+    NA+46077  22.555  36.910   3.176
77704NA+    NA+46078   8.279  37.868   0.936
77705NA+    NA+46079  41.370   9.860  13.532
77706NA+    NA+46080  28.593  23.565  13.424
77707NA+    NA+46081   6.720  16.227  14.417
77708NA+    NA+46082  25.594  27.480   3.264
77709NA+    NA+46083   5.221  14.228  12.555
77710NA+    NA+46084   3.455  29.037   0.827
77711NA+    NA+46085  30.426  37.052  12.828
77712NA+    NA+46086  39.316   8.356   2.216
77713NA+    NA+46087   5.813  20.029  13.393
77714NA+    NA+46088  19.223   5.225   4.816
77715NA+    NA+46089   8.309  41.991  12.370
77716NA+    NA+46090   6.840   2.438   1.866
77717NA+    NA+46091  22.571  44.844   2.796
77718NA+    NA+46092  11.353  15.614  13.030
77719NA+    NA+46093   9.749   8.196  14.924
77720NA+    NA+46094  23.712  31.122   4.675
77721NA+    NA+46095   3.344  34.009   4.831
77722NA+    NA+46096  28.532   5.375  12.033
77723NA+    NA+46097   0.876   9.760   4.600
77724NA+    NA+46098  40.826   9.229  12.440
77725NA+    NA+46099  21.643  12.699  14.777
77726NA+    NA+46100  19.086  28.533  10.474
77727NA+    NA+46101   1.336  34.456   1.827
77728NA+    NA+46102  34.409   9.209  10.563
77729NA+    NA+46103  35.424  25.639   0.460
77730NA+    NA+46104  17.695  15.627   4.308
77731NA+    NA+46105  24.517  12.222   3.313
77732NA+    NA+46106  28.938  37.866  14.899
77733NA+    NA+46107  23.670  11.782   4.674
77734NA+    NA+46108   4.283  37.346   1.850
77735NA+    NA+46109  40.920   0.794  11.107
77736NA+    NA+46110  40.337  22.632  11.884
77737NA+    NA+46111  38.437  29.142   0.775
77738NA+    NA+46112  44.797  32.034  11.118
77739NA+    NA+46113   4.885  21.741   1.392
77740NA+    NA+46114  26.525  23.058  11.892
77741NA+    NA+46115  27.643   5.725  12.906
77742NA+    NA+46116  35.525  23.721  13.386
77743NA+    NA+46117  28.676  39.425  11.982
77744NA+    NA+46118  38.455  40.505  13.524
77745NA+    NA+46119  38.524  29.424   2.194
77746NA+    NA+46120  43.439  18.621  11.002
77747NA+    NA+46121   9.336  44.434  11.494
77748NA+    NA+46122  43.427  23.032  12.543
77749NA+    NA+46123  20.046  16.585  10.574
77750NA+    NA+46124   5.244  30.507  11.499
77751NA+    NA+46125  31.009  31.037  13.361
77752NA+    NA+46126  32.046  16.600  13.526
77753NA+    NA+46127   6.237  39.858  14.913
77754NA+    NA+46128  21.754  24.126  14.306
77755NA+    NA+46129  25.698  43.373   3.162
77756NA+    NA+46130  43.810  38.863  11.507
77757NA+    NA+46131  43.851   4.754  13.055
77758NA+    NA+46132  11.754  27.072   2.821
77759NA+    NA+46133  27.012  11.213   2.339
77760NA+    NA+46134   2.865  20.146   0.426
77761NA+    NA+46135  17.291  27.993   2.675
77762NA+    NA+46136  26.048  43.902   1.252
77763NA+    NA+46137  30.454  28.137  11.070
77764NA+    NA+46138   2.294  40.988  13.931
77765NA+    NA+46139  42.863  25.100   3.757
77766NA+    NA+46140  10.357  44.832  11.083
77767NA+    NA+46141  15.594  19.121   3.848
77768NA+    NA+46142  41.982  30.541   3.236
77769NA+    NA+46143  18.746  26.102   4.647
77770NA+    NA+46144  22.583  23.108  14.977
77771NA+    NA+46145   9.721  11.681   3.672
77772NA+    NA+46146  42.847  24.158   4.671
77773NA+    NA+46147  32.616  20.571  13.063
77774CL-    CL-46148  10.740   0.454  10.896
77775CL-    CL-46149  23.175  18.789  12.425
77776CL-    CL-46150   8.895  39.465  12.067
77777CL-    CL-46151   5.717  44.762   2.859
77778CL-    CL-46152  24.978  28.958   1.257
77779CL-    CL-46153  11.797  11.276  12.364
77780CL-    CL-46154  22.608  38.979  13.855
77781CL-    CL-46155  39.035  39.516  13.408
77782CL-    CL-46156   0.466  41.455  13.796
77783CL-    CL-46157  18.144  31.942  12.544
77784CL-    CL-46158  42.297  10.789   3.196
77785CL-    CL-46159  18.648  31.090   1.239
77786CL-    CL-46160  38.974  42.946   0.332
77787CL-    CL-46161   1.289  32.578  14.768
77788CL-    CL-46162   2.782  19.088  10.559
77789CL-    CL-46163  35.598  29.436  13.940
77790CL-    CL-46164   4.780   9.799  12.570
77791CL-    CL-46165  24.083   3.909  12.486
77792CL-    CL-46166  22.225  12.706  11.373
77793CL-    CL-46167  22.613  18.623   0.937
77794CL-    CL-46168   2.876  32.971   2.324
77795CL-    CL-46169  34.551  10.765  10.478
77796CL-    CL-46170   5.220  29.465   4.776
77797CL-    CL-46171  11.751  18.183   4.631
77798CL-    CL-46172  42.846  43.858   3.356
77799CL-    CL-46173   9.371  28.602   5.761
77800CL-    CL-46174  23.176  19.081  12.932
77801CL-    CL-46175  35.017  15.702   0.308
77802CL-    CL-46176  14.322  41.041  13.880
77803CL-    CL-46177  15.735  26.602   0.941
77804CL-    CL-46178  36.990  34.553   0.269
77805CL-    CL-46179  24.537  37.895   2.227
77806CL-    CL-46180  16.786  44.390   0.307
77807CL-    CL-46181   3.867   9.811  12.852
77808CL-    CL-46182  22.031  21.158   2.746
77809CL-    CL-46183  12.158   1.864  14.451
77810CL-    CL-46184  17.643   5.435  10.940
77811CL-    CL-46185  35.483  24.513   0.954
77812CL-    CL-46186  41.002   2.393   1.890
77813CL-    CL-46187  12.766  13.726  11.535
77814CL-    CL-46188  43.905  13.330   3.745
77815CL-    CL-46189  27.949  34.403   3.228
77816CL-    CL-46190  17.195  16.252  12.377
77817CL-    CL-46191  37.553  44.859  11.045
77818CL-    CL-46192  44.481  26.689  14.283
77819CL-    CL-46193  38.964   2.833   2.292
77820CL-    CL-46194  30.949  35.363  13.024
77821CL-    CL-46195   1.399  25.525  13.061
77822CL-    CL-46196  33.096  19.745   2.385
77823CL-    CL-46197  34.385  17.776   0.951
77824CL-    CL-46198  30.132  36.985  12.515
77825CL-    CL-46199  41.810  15.652  14.829
77826CL-    CL-46200  33.999   0.258   2.666
77827CL-    CL-46201  17.600  20.070   3.845
77828CL-    CL-46202  30.004  41.035  11.901
77829CL-    CL-46203   9.726  29.441   4.680
77830CL-    CL-46204  27.501   2.472  12.386
77831CL-    CL-46205  15.812  33.564   0.422
77832CL-    CL-46206  16.809  30.563  10.432
77833CL-    CL-46207   4.374  19.743  10.928
77834CL-    CL-46208  13.350  34.469   4.659
77835CL-    CL-46209  25.514  16.304   2.243
77836CL-    CL-46210   0.392   3.316   0.258
77837CL-    CL-46211  26.545  39.464   4.223
77838CL-    CL-46212  36.028   7.763   3.790
77839CL-    CL-46213  17.158  17.602   2.692
77840CL-    CL-46214  40.937   7.361  14.458
77841CL-    CL-46215  18.229  34.436  13.975
77842CL-    CL-46216  39.315  24.112   2.332
77843CL-    CL-46217  26.139   2.863  11.565
77844CL-    CL-46218  42.500  28.128   0.284
77845CL-    CL-46219  14.331  16.129  10.917
77846CL-    CL-46220  13.309  24.656  13.521
77847CL-    CL-46221   9.704  19.640   1.803
77848CL-    CL-46222   0.769  28.072  11.898
77849CL-    CL-46223  33.939  25.153  11.475
77850CL-    CL-46224   6.887  20.534  10.534
77851CL-    CL-46225  13.159  39.560  11.102
77852CL-    CL-46226   1.879  19.622  14.028
77853CL-    CL-46227  40.490   1.423  13.336
77854CL-    CL-46228  23.009  39.436  11.015
77855CL-    CL-46229  27.004  29.014   2.800
77856CL-    CL-46230  13.759  27.174  11.958
77857CL-    CL-46231  36.554  42.956   5.294
77858CL-    CL-46232  16.808   9.747  11.480
77859CL-    CL-46233  11.296  39.387   1.408
77860CL-    CL-46234  10.637   9.387   1.806
77861CL-    CL-46235  34.892  31.468   0.756
77862CL-    CL-46236  21.048   4.210   3.666
77863CL-    CL-46237  20.738  12.154  12.478
77864CL-    CL-46238  26.958  11.183   4.795
77865CL-    CL-46239   1.484   1.295   1.439
77866CL-    CL-46240  28.505  25.706   2.702
77867CL-    CL-46241   2.425  38.848   0.259
77868CL-    CL-46242  44.953  33.076  12.877
77869CL-    CL-46243  20.656  34.038   2.805
77870CL-    CL-46244  22.009  36.935  14.460
77871CL-    CL-46245  28.601  40.051   4.723
77872CL-    CL-46246  13.762  23.063   4.320
77873CL-    CL-46247  19.226  26.696  10.513
77874CL-    CL-46248  30.469   7.367   2.386
77875CL-    CL-46249   8.839   4.789   0.942
77876CL-    CL-46250   9.706   8.208   2.355
77877CL-    CL-46251  25.572  13.667  13.895
77878CL-    CL-46252  40.373  23.696   1.842
77879CL-    CL-46253  32.130  27.020  14.361
77880CL-    CL-46254   8.861  22.609  11.519
77881CL-    CL-46255  42.295  42.998  11.041
77882CL-    CL-46256   8.786  36.052  12.938
77883CL-    CL-46257  16.654  21.060  13.398
77884CL-    CL-46258  19.170  44.328  14.340
77885CL-    CL-46259  32.482  14.216  10.456
77886CL-    CL-46260  33.098   1.465  14.513
77887CL-    CL-46261  32.590  10.844  11.962
77888CL-    CL-46262  18.650  10.729   2.376
77889CL-    CL-46263  43.930   7.232   1.274
77890CL-    CL-46264  35.879   1.241   4.125
77891CL-    CL-46265  18.054   1.901   2.399
77892CL-    CL-46266   0.431   3.929  11.965
77893CL-    CL-46267  39.533  14.776   2.665
77894CL-    CL-46268  39.334  17.771  11.468
77895CL-    CL-46269  42.350  21.662   0.337
77896CL-    CL-46270  14.751  35.969   2.838
77897CL-    CL-46271   0.866  40.053   2.716
77898CL-    CL-46272  35.543  13.152  10.925
77899CL-    CL-46273  34.597  28.638   2.347
77900CL-    CL-46274   1.271  40.414  11.570
77901CL-    CL-46275   5.842  37.352   3.251
77902CL-    CL-46276  41.325  30.439   4.716
77903CL-    CL-46277   7.323  24.185   1.766
77904CL-    CL-46278  38.423  26.164   4.184
77905CL-    CL-46279  19.250  15.137   3.288
77906CL-    CL-46280  16.671  43.434   3.366
77907CL-    CL-46281  34.385   7.866   0.764
77908CL-    CL-46282  37.569  23.002   1.430
77909CL-    CL-46283  21.115  42.932   0.836
77910CL-    CL-46284  29.544  13.266   4.640
77911CL-    CL-46285  33.512  39.962  12.531
77912CL-    CL-46286   8.716  37.949   4.625
77913CL-    CL-46287  41.952  27.087   2.279
77914CL-    CL-46288  42.865  14.801   0.412
77915CL-    CL-46289  32.424  17.674   0.324
77916CL-    CL-46290  18.586  22.717   4.259
77917CL-    CL-46291  40.983  25.059  12.893
77918CL-    CL-46292   5.927  31.464   4.262
77919CL-    CL-46293  15.698  15.208  10.455
77920CL-    CL-46294  32.624   9.334   3.655
77921CL-    CL-46295  43.431  41.029   4.767
77922CL-    CL-46296  38.935  31.522   3.278
77923CL-    CL-46297  21.710   0.839  13.991
77924CL-    CL-46298   9.354  17.776   9.671
77925CL-    CL-46299  43.953   6.301  10.584
77926CL-    CL-46300   9.167  10.685   4.343
77927CL-    CL-46301  28.492   7.216  12.950
77928CL-    CL-46302   2.945  25.649   1.235
77929CL-    CL-46303  30.468  17.148  12.497
77930CL-    CL-46304  36.879  22.249   2.852
77931CL-    CL-46305   7.815  36.006   3.649
77932CL-    CL-46306  16.662   7.176  13.513
77933CL-    CL-46307  26.043  37.534  12.435
77934CL-    CL-46308  21.651   4.699   0.746
77935CL-    CL-46309  24.502  18.180   5.291
77936CL-    CL-46310  11.621  34.869   4.219
77937CL-    CL-46311   8.899  25.184   3.330
77938CL-    CL-46312  44.921   4.714   4.208
77939CL-    CL-46313  37.459  39.551  11.955
77940CL-    CL-46314  25.990  35.511  13.899
77941CL-    CL-46315  12.294   5.867  13.853
77942CL-    CL-46316  29.055  27.509   0.419
77943CL-    CL-46317  36.914   0.424   0.305
77944CL-    CL-46318   2.399   3.369  12.521
77945CL-    CL-46319  20.716  28.039   1.335
77946CL-    CL-46320   4.700  10.854  12.841
77947CL-    CL-46321  40.308  15.733   0.801
77948CL-    CL-46322  39.065   6.728   2.367
77949CL-    CL-46323  11.198  38.897   4.798
77950CL-    CL-46324  18.657  31.933   2.370
77951CL-    CL-46325  34.949  29.052  12.376
77952CL-    CL-46326  18.267   9.828  13.945
77953CL-    CL-46327  20.543  13.118  10.407
77954CL-    CL-46328  30.086  11.693   0.364
77955CL-    CL-46329   3.789   4.780   4.161
77956CL-    CL-46330  14.228  38.429   1.920
77957CL-    CL-46331  29.091   2.731  11.038
77958CL-    CL-46332   2.246   9.715  11.938
77959CL-    CL-46333   5.194  42.475   4.179
77960CL-    CL-46334  43.302  24.196  13.451
77961CL-    CL-46335  17.611   2.879  10.407
77962CL-    CL-46336  44.366  32.070  10.897
77963CL-    CL-46337  18.696  31.434  13.504
77964CL-    CL-46338  23.663  29.653   4.610
77965CL-    CL-46339  19.644  12.134   3.243
77966CL-    CL-46340  11.299   9.220   3.634
77967CL-    CL-46341  29.491  42.824   2.859
77968CL-    CL-46342  44.378  18.762   0.295
77969CL-    CL-46343   2.297  44.287  12.074
77970CL-    CL-46344  10.219  37.370   3.755
77971CL-    CL-46345  41.793  22.015  13.841
77972CL-    CL-46346  22.173  27.130  13.849
77973CL-    CL-46347  39.326  20.677  12.546
77974CL-    CL-46348  38.913  25.634  14.010
77975CL-    CL-46349  28.512  33.475  11.025
77976CL-    CL-46350  14.631  37.878   1.792
77977CL-    CL-46351  36.913  43.021  12.829
77978CL-    CL-46352  15.637   3.952   1.291
77979CL-    CL-46353   6.296  24.633  14.361
77980CL-    CL-46354  18.566   1.968   2.407
77981CL-    CL-46355  32.112  33.543  11.053
77982CL-    CL-46356  33.571  34.591  13.926
77983CL-    CL-46357   4.910  33.412  13.873
77984CL-    CL-46358  15.099  17.070   1.747
77985CL-    CL-46359  31.135  42.881   1.229
77986CL-    CL-46360  31.134  33.595  13.866
77987CL-    CL-46361  35.592  28.981  13.450
77988CL-    CL-46362  22.538  39.431   3.202
77989CL-    CL-46363  39.508  33.414   4.279
77990CL-    CL-46364  32.461  44.391   4.328
77991CL-    CL-46365  29.159  27.093   1.444
77992CL-    CL-46366  39.035  10.700   4.272
77993CL-    CL-46367   2.841   3.423  13.400
77994CL-    CL-46368  41.371  35.426  10.459
77995CL-    CL-46369  18.148  18.140   1.215
77996CL-    CL-46370   5.430   0.400   0.763
77997CL-    CL-46371  21.093  23.048  13.973
77998CL-    CL-46372  37.482  10.351   3.310
77999CL-    CL-46373  29.013  31.063   4.659
78000CL-    CL-46374  21.587  36.929   5.614
78001CL-    CL-46375  39.025  19.129   4.802
78002CL-    CL-46376  10.704  41.834  14.791
78003CL-    CL-46377   5.751  39.540   0.736
78004CL-    CL-46378  32.140  19.137   2.183
78005CL-    CL-46379  28.132   0.776  11.557
78006CL-    CL-46380  44.904  23.674  10.518
78007CL-    CL-46381   7.320   6.734   4.163
78008CL-    CL-46382  11.755  38.436  11.463
78009CL-    CL-46383  19.115  12.228   4.717
78010CL-    CL-46384  19.756   0.914  14.827
78011CL-    CL-46385  11.150   1.814  12.861
78012CL-    CL-46386  15.188  37.956   4.299
78013CL-    CL-46387  23.705  22.087  12.914
78014CL-    CL-46388   5.852   8.852   4.150
78015CL-    CL-46389  13.253   7.333   5.278
78016CL-    CL-46390  28.556   0.490  14.008
78017CL-    CL-46391  43.470  38.560   3.718
78018CL-    CL-46392  18.103   4.923   1.914
78019CL-    CL-46393   2.339  25.594   3.202
78020CL-    CL-46394  34.388  31.613   0.827
78021CL-    CL-46395  40.861  25.994  13.885
78022CL-    CL-46396  13.255  30.640   0.941
78023CL-    CL-46397  15.786  43.273   4.271
78024CL-    CL-46398   4.913  18.106   4.326
78025CL-    CL-46399  10.798  26.053   1.279
78026CL-    CL-46400  40.887  27.067   0.930
78027CL-    CL-46401  36.947  22.140   3.187
78028CL-    CL-46402  27.479  38.470  11.529
78029CL-    CL-46403  27.077  19.071  14.458
78030CL-    CL-46404  10.377  29.439  12.573
78031CL-    CL-46405   4.781  32.420  13.479
78032CL-    CL-46406  35.006   5.823  11.589
78033CL-    CL-46407  20.046  34.046  10.960
78034CL-    CL-46408  42.876  13.287   3.240
78035CL-    CL-46409  29.619   4.206  14.454
78036CL-    CL-46410  44.916  13.157  12.016
78037CL-    CL-46411  43.984  41.033   3.360
78038CL-    CL-46412   1.853  16.167   0.766
78039CL-    CL-46413  29.997  36.057   2.330
78040CL-    CL-46414  14.324  24.723   1.709
78041CL-    CL-46415  34.492  44.872   0.881
78042CL-    CL-46416  38.897  19.129   1.260
78043CL-    CL-46417  39.841  43.860  12.515
78044CL-    CL-46418  29.580  15.094  14.759
78045CL-    CL-46419  41.335  39.836   1.413
78046CL-    CL-46420  32.479   2.438  11.879
78047CL-    CL-46421  23.633  36.976  13.507
78048CL-    CL-46422  37.878  44.450   2.840
78049CL-    CL-46423  21.611   1.388   2.884
78050CL-    CL-46424   5.808   6.871   2.768
78051CL-    CL-46425  36.854  11.229  12.964
78052CL-    CL-46426  13.762  10.182   1.365
78053CL-    CL-46427  29.974  39.467   2.684
78054CL-    CL-46428   6.709  27.581   2.244
78055CL-    CL-46429  36.366  12.811  10.632
78056CL-    CL-46430   3.261  26.061  10.469
78057CL-    CL-46431  40.915  19.181   3.629
78058CL-    CL-46432  41.504  19.185   2.748
78059CL-    CL-46433   9.357  34.535   4.635
78060CL-    CL-46434  13.682  36.926  14.389
78061CL-    CL-46435  36.348  10.859   3.790
78062CL-    CL-46436  25.557   3.366  13.323
78063CL-    CL-46437  30.558  37.921   0.431
78064CL-    CL-46438  37.868  19.764  13.317
78065CL-    CL-46439  37.424  36.401   3.379
78066CL-    CL-46440  16.279  32.519   4.147
78067CL-    CL-46441  15.258  18.219   1.873
78068CL-    CL-46442   3.710   1.818   2.320
78069CL-    CL-46443   7.757  16.592  11.053
78070CL-    CL-46444  30.128  42.840  12.032
78071CL-    CL-46445  33.604  36.043  14.814
78072CL-    CL-46446   6.908  31.978  11.566
78073CL-    CL-46447  37.446  23.012  12.362
78074CL-    CL-46448  11.185  18.078   2.899
78075CL-    CL-46449  16.144  29.031   4.832
78076CL-    CL-46450  16.781  11.687   4.734
78077CL-    CL-46451   3.443   1.340  10.609
78078CL-    CL-46452   3.883  44.447  12.540
78079CL-    CL-46453   7.702  44.424  12.975
78080CL-    CL-46454  31.115  18.127   1.379
78081CL-    CL-46455  29.956  26.163   3.267
78082CL-    CL-46456  36.397   9.229  14.476
78083CL-    CL-46457   6.829  44.776   1.798
78084CL-    CL-46458  37.839  14.721  13.314
78085CL-    CL-46459  41.325  19.265  13.337
78086CL-    CL-46460  23.216  31.553  11.073
78087CL-    CL-46461   0.377  28.953  14.802
78088CL-    CL-46462  28.643   2.800   3.714
78089CL-    CL-46463  37.389  27.482  14.013
78090CL-    CL-46464  13.201  18.555   2.260
78091CL-    CL-46465  32.067  14.589   0.443
78092CL-    CL-46466   6.741  18.142  10.920
78093CL-    CL-46467  19.246  11.775   4.320
78094CL-    CL-46468  33.980  11.807   1.424
78095CL-    CL-46469   5.826  21.028  12.845
78096CL-    CL-46470   2.876  20.601  13.364
78097CL-    CL-46471  19.593   7.257  12.088
78098CL-    CL-46472   9.271   5.410  12.415
78099CL-    CL-46473  22.115  16.261   4.663
78100CL-    CL-46474  19.578   5.409   4.761
78101CL-    CL-46475  38.949  17.570  12.988
78102CL-    CL-46476  20.726  19.227   1.280
78103CL-    CL-46477  26.141  42.465  14.831
78104CL-    CL-46478  10.851  11.183  11.487
78105CL-    CL-46479   3.374  26.618   0.951
78106CL-    CL-46480  43.821  26.683   5.125
78107CL-    CL-46481   1.286   6.195   3.385
78108CL-    CL-46482  42.433  13.804  14.431
78109CL-    CL-46483  13.702  19.707   4.302
78110CL-    CL-46484  35.604  36.877   2.812
78111CL-    CL-46485  22.563  34.074  13.840
78112CL-    CL-46486   6.396  23.640   2.382
78113CL-    CL-46487   5.917  30.510  13.897
78114CL-    CL-46488   7.194  30.551   0.423
78115CL-    CL-46489  14.686   3.216  10.137
78116CL-    CL-46490  26.502  25.698  13.414
78117CL-    CL-46491  12.767  29.670  12.370
78118CL-    CL-46492  10.835  41.950   1.303
78119CL-    CL-46493  33.414  28.184   1.696
78120CL-    CL-46494   2.415  20.221   4.200
78121CL-    CL-46495  35.530   0.922  14.410
78122CL-    CL-46496  36.011  29.579  10.415
78123CL-    CL-46497   8.401  39.553  11.951
78124CL-    CL-46498  31.549  42.322   0.964
78125CL-    CL-46499  33.130  16.583   2.814
78126CL-    CL-46500  10.270  38.835  11.464
78127CL-    CL-46501  26.087  35.396  14.991
78128CL-    CL-46502  28.181  36.957   1.816
78129CL-    CL-46503   9.784  38.400   0.416
78130CL-    CL-46504  39.972  21.726   4.694
78131CL-    CL-46505  42.886  39.827   2.807
78132CL-    CL-46506   3.821  23.171   2.799
78133CL-    CL-46507   5.395  38.433  11.954
78134CL-    CL-46508  15.589  38.056   0.357
78135CL-    CL-46509  21.117  26.116   0.323
78136CL-    CL-46510  23.676  23.205   2.679
78137CL-    CL-46511  21.172  24.495  12.979
78138CL-    CL-46512  10.140  37.389   5.299
78139CL-    CL-46513   8.741   7.192   0.275
78140CL-    CL-46514  23.073  33.078   0.339
78141CL-    CL-46515   2.846  19.235   3.166
78142CL-    CL-46516   3.431   4.752   3.229
78143CL-    CL-46517  11.718  25.595   3.805
78144CL-    CL-46518   7.849  14.121   4.282
78145CL-    CL-46519  24.494  44.986  14.281
78146CL-    CL-46520  30.483  17.681  12.842
78147CL-    CL-46521  40.540  12.685   9.932
78148CL-    CL-46522   6.727  43.782  14.869
78149CL-    CL-46523  11.622  13.656  14.388
78150CL-    CL-46524  18.690  43.378  14.322
78151CL-    CL-46525  12.307  22.558  14.011
78152CL-    CL-46526  41.910  11.641  10.641
78153CL-    CL-46527  33.424  14.253  10.145
78154CL-    CL-46528  15.637   2.891  13.503
78155CL-    CL-46529  19.694  12.770  10.439
78156CL-    CL-46530  10.748  29.515  12.520
78157CL-    CL-46531   9.172   3.360   0.408
78158CL-    CL-46532  33.076  16.617  14.293
78159CL-    CL-46533  30.631  12.641  14.931
78160CL-    CL-46534  37.924   3.281   2.826
78161CL-    CL-46535   3.928  13.277  13.845
78162CL-    CL-46536  40.950  31.132  11.990
78163CL-    CL-46537  23.065  34.919   1.420
78164CL-    CL-46538  27.482  15.133  14.444
78165CL-    CL-46539  43.807  14.144  13.963
78166CL-    CL-46540   9.648  29.142  10.012
78167CL-    CL-46541  19.246   4.271  12.473
78168CL-    CL-46542  31.628   2.777   2.254
78169CL-    CL-46543  23.637  34.868  10.915
78170CL-    CL-46544  26.110  39.556  10.954
78171CL-    CL-46545  18.633  42.319  14.895
78172CL-    CL-46546  26.153  34.057  12.855
78173CL-    CL-46547  26.685  18.608  13.853
78174CL-    CL-46548  20.166  27.943   3.321
78175CL-    CL-46549  22.188  27.191  10.641
78176CL-    CL-46550  32.963  29.172  12.841
78177CL-    CL-46551  33.614  43.500   2.304
78178CL-    CL-46552  15.099  11.697   3.301
78179CL-    CL-46553  34.934  32.041   4.824
78180CL-    CL-46554  16.201  33.575   4.649
78181CL-    CL-46555  39.964  28.575   2.268
78182CL-    CL-46556  25.998   9.686  12.502
78183CL-    CL-46557  11.250  23.499   3.268
78184CL-    CL-46558  29.170  44.873   1.343
78185CL-    CL-46559  41.834  18.237   3.785
78186CL-    CL-46560  25.153  15.681   3.185
78187CL-    CL-46561  24.057  33.920  11.047
78188CL-    CL-46562  36.877   8.729   4.612
78189CL-    CL-46563  18.098   3.259  13.982
78190CL-    CL-46564  26.517   6.809  13.994
78191CL-    CL-46565  36.524   2.452   1.720
78192CL-    CL-46566   6.280  10.274  14.496
78193CL-    CL-46567  16.197  30.135   2.681
78194CL-    CL-46568   2.867  17.064  14.395
78195CL-    CL-46569  15.587  30.507   3.192
78196CL-    CL-46570  21.556  33.052   0.351
78197CL-    CL-46571  36.921  39.536   2.695
78198CL-    CL-46572   4.943  23.018   4.194
78199CL-    CL-46573  17.728  33.081  13.457
78200CL-    CL-46574  37.992  18.707  11.876
78201CL-    CL-46575  39.314  37.064   3.319
78202CL-    CL-46576  40.353  31.024   3.166
78203CL-    CL-46577  22.248   3.413   4.114
78204CL-    CL-46578   5.838   8.281  12.942
78205CL-    CL-46579   7.255  23.723  14.380
78206CL-    CL-46580  40.393   6.781  12.855
78207CL-    CL-46581  23.195  40.990   3.161
78208CL-    CL-46582  41.512  42.829   3.189
78209CL-    CL-46583  32.136  24.229  11.389
78210CL-    CL-46584   9.222  17.078   0.949
78211CL-    CL-46585  17.689   3.413  11.950
78212CL-    CL-46586  31.053  12.817  10.628
78213CL-    CL-46587  18.132  14.095   2.874
78214CL-    CL-46588  27.174  39.874   4.139
78215CL-    CL-46589  44.342  18.123  13.320
78216CL-    CL-46590  10.168  22.098   0.384
78217CL-    CL-46591   3.440   4.395   4.679
78218CL-    CL-46592  23.093  22.157  14.830
78219CL-    CL-46593  32.550  17.220   3.221
78220CL-    CL-46594  41.375  36.973  10.513
78221CL-    CL-46595  36.524  15.206  12.961
78222CL-    CL-46596  15.096  35.451  13.881
78223CL-    CL-46597   3.242  40.946  11.867
78224CL-    CL-46598   9.858  34.564  12.987
78225CL-    CL-46599  30.533   4.244   4.694
78226CL-    CL-46600  15.672  10.258   1.724
78227CL-    CL-46601  32.084   4.933   2.196
78228CL-    CL-46602  38.840  21.529   3.655
78229CL-    CL-46603  44.960  30.472   3.656
78230CL-    CL-46604  14.178  17.156  13.400
78231CL-    CL-46605  12.292  29.991  10.456
78232CL-    CL-46606  16.212  29.138  10.605
78233CL-    CL-46607  43.846   5.911   2.360
78234CL-    CL-46608  17.231  24.637  12.487
78235CL-    CL-46609  11.368  12.245  11.489
78236CL-    CL-46610   5.697  30.091   2.340
78237CL-    CL-46611  31.418  40.034  13.006
78238CL-    CL-46612  30.968  39.065  10.137
78239CL-    CL-46613  44.347  12.630  14.285
78240CL-    CL-46614   0.746  22.064   0.450
78241CL-    CL-46615   1.831   1.320  13.907
78242CL-    CL-46616  14.766  29.142  13.494
78243CL-    CL-46617  13.692   5.830   3.735
78244CL-    CL-46618   1.908   6.822   0.748
78245CL-    CL-46619  12.710  10.727   2.229
78246CL-    CL-46620   0.796   3.415   4.242
78247CL-    CL-46621   1.373  44.971  13.378
78248CL-    CL-46622  20.214  42.876   4.266
78249CL-    CL-46623  18.293  37.347   3.181
78250CL-    CL-46624  28.543  20.167  12.085
78251CL-    CL-46625  26.697  21.655  13.830
78252CL-    CL-46626   0.878   3.454  14.935
78253CL-    CL-46627  31.955  16.728  11.394
78254CL-    CL-46628   8.818  27.606   3.815
78255CL-    CL-46629  17.163   9.362  11.476
78256CL-    CL-46630  44.841  18.087   1.819
78257CL-    CL-46631   9.806  20.686   3.712
78258CL-    CL-46632  36.995   3.729  13.999
78259CL-    CL-46633  39.868  26.043  14.908
78260CL-    CL-46634  33.384  30.480  14.293
78261CL-    CL-46635  16.718  23.670   3.712
78262CL-    CL-46636  35.876  32.128  14.777
78263CL-    CL-46637  14.726   1.766   4.248
78264CL-    CL-46638  10.741   2.327  13.999
78265CL-    CL-46639  30.127  29.948  14.950
78266CL-    CL-46640   5.289  15.667   0.752
78267CL-    CL-46641  20.054  17.612   4.693
78268CL-    CL-46642   7.281  42.869   2.781
78269CL-    CL-46643   7.907  27.477   5.295
78270CL-    CL-46644  13.685  32.480  10.423
78271CL-    CL-46645   5.913  14.739  12.012
78272CL-    CL-46646  27.485  12.793  14.904
78273CL-    CL-46647  14.826  15.249   4.150
78274CL-    CL-46648  19.702  30.643   0.414
78275CL-    CL-46649  10.153  18.097   9.628
78276CL-    CL-46650   4.875  36.583  14.003
78277CL-    CL-46651  18.632  34.019  10.510
78278CL-    CL-46652   7.390  23.132   0.804
78279CL-    CL-46653  32.911  29.132  11.067
78280CL-    CL-46654  30.506  14.604   0.340
78281CL-    CL-46655   1.949   1.963   3.693
78282CL-    CL-46656  32.499  24.986  12.435
78283CL-    CL-46657  37.571  41.031  14.789
78284CL-    CL-46658  16.220   0.977  11.461
78285CL-    CL-46659  32.915  44.499  14.832
78286CL-    CL-46660  33.582  33.443   0.927
78287CL-    CL-46661  24.212  35.499   0.439
78288CL-    CL-46662  41.394  30.119   3.252
78289CL-    CL-46663  14.235  33.589   2.785
78290CL-    CL-46664  35.593   5.331  11.009
78291CL-    CL-46665   6.365  34.978   0.272
78292CL-    CL-46666   7.709  43.948   2.183
78293CL-    CL-46667  28.085  26.172   3.781
78294CL-    CL-46668  24.175   3.726  14.472
78295CL-    CL-46669   2.296  42.927   2.789
78296CL-    CL-46670  24.559   7.368   3.178
78297CL-    CL-46671  22.581   1.931   2.408
78298CL-    CL-46672   0.277  19.042   0.923
78299CL-    CL-46673  23.571   6.778   3.233
78300CL-    CL-46674   5.357   9.392   1.879
78301CL-    CL-46675  36.855   9.294   1.431
78302CL-    CL-46676  31.913  25.982   2.756
78303CL-    CL-46677  40.963  23.202  11.966
78304CL-    CL-46678  34.035   4.866   4.716
78305CL-    CL-46679  28.102  33.558  12.909
78306CL-    CL-46680  29.492  11.685   3.237
78307CL-    CL-46681  36.012  14.764   0.727
78308CL-    CL-46682   4.836   1.859  10.156
78309CL-    CL-46683  28.640  39.055  12.379
78310CL-    CL-46684  15.625  10.196   0.948
78311CL-    CL-46685  24.636   4.836   1.858
78312CL-    CL-46686  17.207   4.276   2.383
78313CL-    CL-46687  41.388   6.215   3.667
78314CL-    CL-46688   5.219  38.410   0.354
78315CL-    CL-46689  28.613  28.596  12.354
78316CL-    CL-46690  32.109  38.422  12.902
78317CL-    CL-46691  30.007  20.035   4.800
78318CL-    CL-46692  26.562   7.289  12.346
78319CL-    CL-46693  44.763  33.394  14.889
78320CL-    CL-46694  43.473  16.133   3.176
78321CL-    CL-46695  18.242  30.544   0.300
78322CL-    CL-46696  40.914  39.555  11.518
78323CL-    CL-46697   0.941  43.915   1.367
78324CL-    CL-46698  33.091  17.670  12.045
78325CL-    CL-46699  38.939  25.148  13.498
78326CL-    CL-46700   5.932   3.219   4.340
78327CL-    CL-46701   2.903   6.257   0.365
78328CL-    CL-46702  31.111   0.876   1.909
78329CL-    CL-46703  25.710  14.190  11.093
78330CL-    CL-46704  37.362  24.522   1.438
78331CL-    CL-46705   8.756   8.240  11.550
78332CL-    CL-46706  40.929  42.014  12.997
78333CL-    CL-46707  31.138  44.283   4.788
78334CL-    CL-46708  41.442  22.196  12.880
78335CL-    CL-46709  34.874  35.876   4.699
78336CL-    CL-46710  39.044   6.273   0.317
78337CL-    CL-46711  37.542  40.350   4.690
78338CL-    CL-46712  15.153  14.289  12.439
78339CL-    CL-46713  10.262  29.075  12.350
78340CL-    CL-46714   9.681  15.121  12.919
78341CL-    CL-46715  12.673   1.865  11.060
78342CL-    CL-46716  27.664   4.765  14.938
78343CL-    CL-46717  28.463  44.770   4.293
78344CL-    CL-46718   6.716  34.044   2.351
78345CL-    CL-46719  34.421  42.347  11.051
78346CL-    CL-46720  44.992   6.805   1.292
78347CL-    CL-46721  35.082  10.339  14.813
78348CL-    CL-46722  20.535  28.528   4.643
78349CL-    CL-46723  12.836  24.991  12.538
78350CL-    CL-46724  12.353  31.010   1.770
78351CL-    CL-46725  44.850  32.497   2.765
78352CL-    CL-46726  40.334   7.701   4.815
78353CL-    CL-46727  12.158  12.142  13.895
78354CL-    CL-46728  23.706  32.432  11.386
78355CL-    CL-46729  18.716  17.629  11.589
78356CL-    CL-46730  26.973  42.975   1.852
78357CL-    CL-46731   6.715  29.560  11.605
78358CL-    CL-46732  29.540   7.296  11.123
78359CL-    CL-46733  26.155  15.615  12.936
78360CL-    CL-46734  20.096   3.776  13.863
78361CL-    CL-46735  37.446  34.567  14.948
78362CL-    CL-46736  43.344  12.767  11.577
78363CL-    CL-46737  35.067  17.598  10.404
78364CL-    CL-46738  23.136  13.155   2.377
78365CL-    CL-46739  17.556  28.934  11.038
78366CL-    CL-46740   4.419   3.864   4.151
78367CL-    CL-46741  28.606   8.781   0.945
78368CL-    CL-46742  27.948  21.555  12.967
78369CL-    CL-46743  12.169  11.690   3.775
78370CL-    CL-46744  40.050  19.756  11.096
78371CL-    CL-46745  26.459  20.171   0.954
78372CL-    CL-46746  22.043  36.067  12.361
78373CL-    CL-46747  13.835  30.074  13.993
78374CL-    CL-46748   4.719  35.029   3.276
78375CL-    CL-46749   0.745   8.750   5.318
78376CL-    CL-46750   3.345  32.966  10.455
78377CL-    CL-46751  41.317  16.609   2.670
78378CL-    CL-46752   2.900  32.940   2.808
78379CL-    CL-46753  28.956   8.386   4.189
78380CL-    CL-46754  40.022  29.432  14.400
78381CL-    CL-46755  32.567  25.099   5.287
78382CL-    CL-46756   7.223  44.447   3.146
78383CL-    CL-46757  21.685  16.680   0.294
78384CL-    CL-46758  11.745  36.549  11.050
78385CL-    CL-46759   1.466  39.444  12.876
78386CL-    CL-46760  26.591   1.805  11.517
78387CL-    CL-46761  43.459  32.027   4.694
78388CL-    CL-46762  19.581   8.259   2.222
78389CL-    CL-46763  39.362   2.280   3.255
78390CL-    CL-46764  30.600  12.825  11.882
78391CL-    CL-46765   0.743  23.165   3.763
78392CL-    CL-46766  28.511  11.311  14.376
78393CL-    CL-46767  11.790  25.132   3.667
78394CL-    CL-46768  25.703  19.557  13.535
78395CL-    CL-46769  40.375  29.173  11.987
78396CL-    CL-46770  11.274   1.303   4.253
78397CL-    CL-46771  39.438  36.044  12.547
78398CL-    CL-46772   3.785  41.361   3.175
78399CL-    CL-46773  11.141  33.076   2.257
78400CL-    CL-46774   7.726  30.924   2.329
78401CL-    CL-46775  15.320  18.159   4.608
78402CL-    CL-46776  30.912  24.206   3.343
78403CL-    CL-46777  12.701   9.865   1.876
78404CL-    CL-46778   0.285   6.275  10.551
78405CL-    CL-46779   4.945  43.843   2.329
78406CL-    CL-46780   4.748   0.818  12.039
78407CL-    CL-46781  22.704  27.471  11.528
78408CL-    CL-46782  26.545  26.580  13.961
78409CL-    CL-46783  37.509   1.808  10.488
78410CL-    CL-46784  33.539   1.472  12.918
78411CL-    CL-46785  10.150  44.773   5.234
78412CL-    CL-46786  36.457  30.600   1.893
78413CL-    CL-46787  15.289  44.498  10.454
78414CL-    CL-46788  19.636  39.911   4.610
78415CL-    CL-46789  22.698  31.477  12.523
78416CL-    CL-46790  31.089  32.400   1.420
78417CL-    CL-46791  41.894   5.294  14.968
78418CL-    CL-46792  41.986  38.883   4.640
78419CL-    CL-46793  13.258  21.630  12.871
78420CL-    CL-46794   7.888  37.852   0.763
78421CL-    CL-46795  29.596  44.788   3.709
78422CL-    CL-46796  42.938  33.458  12.069
78423CL-    CL-46797  18.679  12.265  11.063
78424CL-    CL-46798  40.329  44.825  10.967
78425CL-    CL-46799  26.027  28.110  13.525
78426CL-    CL-46800   3.946  22.501  14.787
78427CL-    CL-46801  13.823   8.247   4.211
78428CL-    CL-46802  23.204  21.561   1.388
78429CL-    CL-46803  36.412  21.526   1.211
78430CL-    CL-46804  27.588  23.171  10.644
78431CL-    CL-46805  42.301  10.333   1.309
78432CL-    CL-46806  18.203   6.747  12.033
78433CL-    CL-46807   9.732  30.937   3.797
78434CL-    CL-46808  16.293   5.199   0.438
78435CL-    CL-46809  26.628   7.351  13.937
78436CL-    CL-46810  40.353  43.490   4.167
78437CL-    CL-46811   2.440  33.054  13.314
78438CL-    CL-46812  16.232  35.084  12.549
78439CL-    CL-46813   2.284  42.340  12.550
78440CL-    CL-46814   3.403  32.998   4.704
78441CL-    CL-46815  12.636  17.602   3.746
78442CL-    CL-46816  26.009  36.436   0.251
78443CL-    CL-46817  36.035  10.351   3.173
78444CL-    CL-46818   0.973  25.195  12.950
78445CL-    CL-46819  13.783   9.700   1.800
78446CL-    CL-46820  42.310  18.769  12.506
78447CL-    CL-46821  12.144  32.934   1.711
78448CL-    CL-46822  16.737   8.877   0.294
78449CL-    CL-46823  26.566  44.964  10.062
78450CL-    CL-46824  38.483  25.213   4.217
78451CL-    CL-46825  31.043  20.029  12.824
78452CL-    CL-46826  30.448   9.395  11.002
78453CL-    CL-46827  21.578  32.537   2.368
78454CL-    CL-46828   1.377  42.522  10.593
78455CL-    CL-46829  38.022   9.274   0.926
78456CL-    CL-46830  42.848   3.892  10.888
78457CL-    CL-46831  27.499  11.746  14.303
78458CL-    CL-46832  28.543  39.431  14.903
78459CL-    CL-46833  16.148  43.408  12.385
78460CL-    CL-46834  19.159  39.840  11.016
78461CL-    CL-46835  22.078  38.986   3.266
78462CL-    CL-46836  31.554   5.194   0.892
78463CL-    CL-46837  21.612  40.419   4.184
78464CL-    CL-46838  22.584  12.168   0.854
78465CL-    CL-46839  19.560  14.324   4.132
78466CL-    CL-46840  36.854  26.658   1.727
78467CL-    CL-46841  40.041  35.456   4.238
78468CL-    CL-46842  11.753   8.259  13.823
78469CL-    CL-46843   2.261  42.330   4.144
78470CL-    CL-46844  12.741  15.765   0.737
78471CL-    CL-46845   9.273   0.764  10.423
78472CL-    CL-46846   0.975  19.283  10.637
78473CL-    CL-46847   6.256  33.013   2.338
78474CL-    CL-46848  33.463   2.408   4.261
78475CL-    CL-46849  21.262  27.592   1.865
78476CL-    CL-46850  27.564  39.006  14.362
78477CL-    CL-46851  12.116   8.844   1.296
78478CL-    CL-46852   6.729  24.983   3.227
78479CL-    CL-46853  36.505  31.987  12.059
78480CL-    CL-46854   9.769   6.858  11.886
78481CL-    CL-46855  39.007   8.338  11.005
78482CL-    CL-46856   1.960   7.881   2.411
78483CL-    CL-46857  27.619  29.115   3.288
78484CL-    CL-46858   5.856  22.559   0.933
78485CL-    CL-46859  31.557  43.795   4.316
78486CL-    CL-46860  12.193  31.960  14.502
78487CL-    CL-46861  29.170  10.641   2.757
78488CL-    CL-46862  38.360   8.187  13.502
78489CL-    CL-46863  14.746   5.399  14.361
78490CL-    CL-46864   0.782  24.043  13.019
78491CL-    CL-46865  35.488  17.121   1.255
78492CL-    CL-46866   1.453  14.668   0.754
78493CL-    CL-46867  30.963  13.128   3.836
78494CL-    CL-46868   5.881  44.479  12.951
78495CL-    CL-46869   1.254   6.415   2.237
78496CL-    CL-46870  26.975  44.863   0.315
78497CL-    CL-46871  27.153   6.428  12.917
78498CL-    CL-46872   6.828  39.820  11.908
78499CL-    CL-46873  23.712   0.282  14.344
78500CL-    CL-46874  28.541  18.777   3.295
78501CL-    CL-46875  38.404  36.546  14.955
78502CL-    CL-46876  20.556  31.986   3.852
78503CL-    CL-46877  41.997  17.557  12.378
78504CL-    CL-46878  41.923  31.046  12.409
78505CL-    CL-46879  11.737  24.541  12.504
78506CL-    CL-46880  41.482  37.380   3.216
78507CL-    CL-46881  35.492  16.708   1.423
78508CL-    CL-46882  29.523  18.277   0.433
78509CL-    CL-46883  23.683  15.646   2.823
78510CL-    CL-46884  28.528  17.257  10.963
78511CL-    CL-46885  36.436  21.029   2.816
78512CL-    CL-46886   6.698  10.334   1.825
78513CL-    CL-46887  25.648  42.924  14.926
78514CL-    CL-46888  26.087  15.255   2.350
78515CL-    CL-46889  43.995  23.559  10.612
78516CL-    CL-46890  18.259  32.946  10.603
78517CL-    CL-46891  41.884  43.366   1.776
78518CL-    CL-46892  28.451  16.263   1.426
78519CL-    CL-46893  34.577  23.115  12.950
78520CL-    CL-46894  27.495   8.799   3.256
78521CL-    CL-46895  41.345  36.511  14.024
78522CL-    CL-46896  17.661   1.297  13.804
78523CL-    CL-46897  44.986  30.464   4.316
78524CL-    CL-46898  13.330  23.160  11.062
78525CL-    CL-46899   5.413  31.928  14.831
78526CL-    CL-46900  44.808  21.212  14.813
78527CL-    CL-46901  33.570  30.107  12.863
78528CL-    CL-46902  27.659  18.625   4.667
78529CL-    CL-46903  43.974  37.563  13.479
78530CL-    CL-46904   7.261   1.293   3.870
78531CL-    CL-46905   0.294  41.013  13.394
78532CL-    CL-46906  23.493  16.703  11.481
78533CL-    CL-46907  40.883  40.864   3.726
78534CL-    CL-46908  13.841  17.285  14.763
78535CL-    CL-46909   5.769  24.636  14.323
78536CL-    CL-46910  44.765  12.203   3.632
78537CL-    CL-46911  38.513   4.832   3.171
78538CL-    CL-46912  36.358  27.020   3.667
78539CL-    CL-46913  25.470  13.661  12.496
78540CL-    CL-46914  31.097  18.280   0.355
78541CL-    CL-46915   8.327  19.216   3.254
78542CL-    CL-46916  32.889  26.193   0.273
78543CL-    CL-46917  44.961   5.253  11.549
78544CL-    CL-46918   1.869  38.862  13.906
78545CL-    CL-46919   4.409  17.248   3.326
78546CL-    CL-46920   1.330  24.182   0.376
78547CL-    CL-46921  41.992  33.386  14.760
78548CL-    CL-46922  44.279  17.702  10.928
78549CL-    CL-46923  39.387  16.288  12.953
78550CL-    CL-46924   2.451  33.038  11.452
78551CL-    CL-46925  24.714   5.695  12.455
78552CL-    CL-46926  43.499  36.426  12.548
78553CL-    CL-46927  11.301   7.377  13.051
78554CL-    CL-46928  42.510  15.607   2.281
78555CL-    CL-46929  29.657  27.468   3.719
78556CL-    CL-46930  28.965   0.899  14.946
78557CL-    CL-46931  40.857  36.050   1.308
78558CL-    CL-46932   5.284  29.450   2.386
78559CL-    CL-46933  32.521  25.007  10.568
78560CL-    CL-46934  21.668  34.988  11.380
78561CL-    CL-46935  22.613  42.360   0.923
78562CL-    CL-46936   0.449  29.549  11.525
78563CL-    CL-46937  21.146  14.105  11.997
78564CL-    CL-46938  35.090  14.253   0.830
78565CL-    CL-46939   4.273  33.985   1.727
78566CL-    CL-46940  25.975  17.792   1.285
78567CL-    CL-46941  20.668  13.207  14.000
78568CL-    CL-46942  43.991   8.235   4.260
78569CL-    CL-46943  17.112  35.096  12.065
78570CL-    CL-46944  30.122  28.154   2.878
78571CL-    CL-46945   6.777  37.847   3.768
78572CL-    CL-46946  27.553  16.285  14.388
78573CL-    CL-46947   7.865   4.738   2.267
78574CL-    CL-46948   0.460  34.519  14.465
78575CL-    CL-46949  38.475  40.547  11.957
78576CL-    CL-46950  15.158   2.274   2.831
78577CL-    CL-46951  41.822   1.391  14.818
78578CL-    CL-46952  20.104  18.286  14.933
78579CL-    CL-46953  22.647  19.095   0.736
78580CL-    CL-46954  17.714  16.151  13.331
78581CL-    CL-46955   5.811  20.108  13.020
78582CL-    CL-46956  11.203  14.752   2.736
78583CL-    CL-46957   3.915   3.847  12.911
78584CL-    CL-46958  20.605  34.605  10.504
78585CL-    CL-46959  31.402  31.122   0.283
78586CL-    CL-46960   7.263  20.262  10.905
78587CL-    CL-46961  13.121  20.201  12.082
78588CL-    CL-46962  44.426   3.444  14.951
78589CL-    CL-46963  21.572  36.983   0.260
78590CL-    CL-46964  35.028   4.321   3.745
78591CL-    CL-46965  23.507  41.414  13.502
78592CL-    CL-46966  44.339   9.661  11.074
78593CL-    CL-46967  17.688  23.634   4.632
78594CL-    CL-46968  35.934   6.334   2.279
78595CL-    CL-46969  25.166  40.924   2.333
78596CL-    CL-46970  20.715  22.092  14.446
78597CL-    CL-46971  41.829   3.816   1.421
78598CL-    CL-46972  20.273   7.784  14.019
78599CL-    CL-46973  34.587  37.874  12.563
78600CL-    CL-46974  40.449   8.330   3.727
78601CL-    CL-46975   1.848  34.901  14.352
78602CL-    CL-46976  16.685  11.226  14.498
78603CL-    CL-46977   8.787  25.041  13.329
78604CL-    CL-46978  18.174  23.986  12.502
78605CL-    CL-46979  44.432   2.337  14.803
78606CL-    CL-46980  11.790  39.343  13.803
78607CL-    CL-46981  25.106   7.776   4.179
78608CL-    CL-46982   3.872  36.531   1.316
78609CL-    CL-46983  15.680  37.477   9.947
78610CL-    CL-46984  44.988   7.208  10.542
78611CL-    CL-46985  33.430   4.747   2.755
78612CL-    CL-46986  26.668   1.431   1.733
78613CL-    CL-46987   4.849  36.553  13.040
78614CL-    CL-46988  34.495  23.685   0.392
78615CL-    CL-46989   0.891  34.991  10.467
78616CL-    CL-46990  21.720  26.992  11.996
78617CL-    CL-46991  14.295  25.022   4.743
78618CL-    CL-46992  31.999  19.554   9.988
78619CL-    CL-46993  38.365  13.738  11.891
78620CL-    CL-46994   5.884  11.687   3.671
78621CL-    CL-46995  43.394  26.552   2.226
78622CL-    CL-46996  34.455   1.312  11.062
78623CL-    CL-46997  44.890  38.947  11.033
78624CL-    CL-46998  39.554  40.316   1.833
78625CL-    CL-46999  27.608   8.379  13.397
78626CL-    CL-47000  20.196  37.440   0.847
78627CL-    CL-47001  38.011  24.702   4.661
78628CL-    CL-47002  22.634   1.805  12.359
78629CL-    CL-47003   5.213  26.976  10.584
78630CL-    CL-47004  38.916  41.535   2.348
78631CL-    CL-47005   6.791   1.853  10.903
78632CL-    CL-47006  44.418  13.711   4.194
78633CL-    CL-47007  26.035   8.293   0.320
78634CL-    CL-47008  38.821  40.909   4.130
78635CL-    CL-47009   3.306  22.675   4.158
78636CL-    CL-47010  40.842  30.528   0.897
78637CL-    CL-47011   1.281  10.188  12.912
78638CL-    CL-47012  19.232  15.792   3.781
78639CL-    CL-47013  22.136   5.814  14.496
78640CL-    CL-47014  26.052  12.206  10.508
78641CL-    CL-47015  18.558  18.569  10.625
78642CL-    CL-47016  20.203  35.427   4.146
78643CL-    CL-47017  15.820  42.015   4.240
78644CL-    CL-47018  21.633   9.816   2.663
78645CL-    CL-47019  27.478  33.005  13.826
78646CL-    CL-47020  15.678   8.329  10.123
78647CL-    CL-47021  35.858  13.305  11.939
78648CL-    CL-47022  14.702  31.438   2.748
78649CL-    CL-47023  13.832  36.098   4.690
78650CL-    CL-47024  13.803  34.905  10.429
78651CL-    CL-47025  38.554  16.208  12.914
78652CL-    CL-47026  23.500  17.203   3.257
78653CL-    CL-47027  37.837  11.792  11.574
78654CL-    CL-47028  18.062  41.008   0.744
78655CL-    CL-47029  19.663  12.829  12.915
78656CL-    CL-47030  20.247  26.465   2.354
78657CL-    CL-47031  25.147  37.007   4.676
78658CL-    CL-47032   6.331  38.952   0.805
78659CL-    CL-47033   8.882   2.302   2.330
78660CL-    CL-47034  31.621   6.354  13.916
78661CL-    CL-47035   8.731  24.085  13.483
78662CL-    CL-47036  18.567  14.758  12.397
78663CL-    CL-47037  26.172  39.458   0.364
78664CL-    CL-47038  34.994  40.320  12.416
78665CL-    CL-47039  21.665  23.633  14.023
78666CL-    CL-47040  12.138  24.229   3.269
78667CL-    CL-47041  40.045   3.397   2.277
78668CL-    CL-47042  17.765  23.491  11.068
78669CL-    CL-47043  19.601  38.368   4.794
78670CL-    CL-47044   2.837   9.871   2.390
78671CL-    CL-47045  14.202  22.555  11.020
78672CL-    CL-47046  40.962  16.156  14.458
78673CL-    CL-47047  37.472   8.824   1.434
78674CL-    CL-47048  20.108  12.215   4.313
78675CL-    CL-47049   2.359  39.957   3.220
78676CL-    CL-47050  30.924  34.069   4.610
78677CL-    CL-47051   7.357  39.444   4.620
78678CL-    CL-47052  42.816   9.771   9.994
78679CL-    CL-47053  12.696  38.461  12.551
78680CL-    CL-47054  13.603  26.504  14.790
78681CL-    CL-47055   8.796  12.304   0.361
78682CL-    CL-47056  22.226  27.953  10.538
78683CL-    CL-47057   2.354  39.560  11.924
78684CL-    CL-47058   1.906  39.428   0.474
78685CL-    CL-47059  39.862  26.136   4.684
78686CL-    CL-47060   4.449   9.797  10.405
78687CL-    CL-47061  43.493  33.592   4.624
78688CL-    CL-47062  33.885  17.749  14.960
78689CL-    CL-47063  32.025  11.289  14.397
78690CL-    CL-47064  28.667  34.521   3.226
78691CL-    CL-47065  15.662  17.275  10.895
78692CL-    CL-47066  36.540   8.660  12.857
78693CL-    CL-47067  34.940  27.581  12.002
78694CL-    CL-47068   8.728   2.860   4.237
78695CL-    CL-47069   3.289  29.439   1.449
78696CL-    CL-47070  12.828  33.417  10.641
78697CL-    CL-47071  36.539   6.715   2.743
78698CL-    CL-47072  11.301  19.261   3.799
78699CL-    CL-47073  44.924  11.165   3.804
78700CL-    CL-47074  35.956  18.786   1.250
78701CL-    CL-47075  32.028   4.940  10.512
78702CL-    CL-47076  33.539  36.579  10.478
78703CL-    CL-47077  36.962  25.701  14.338
78704CL-    CL-47078  12.769  39.913  14.481
78705CL-    CL-47079  14.654  10.282   4.113
78706CL-    CL-47080   4.861  33.912   3.387
78707CL-    CL-47081  32.931  42.317   3.795
78708CL-    CL-47082  33.506  17.190  11.936
78709CL-    CL-47083  24.038   5.426  13.325
78710CL-    CL-47084  30.530  18.625   3.821
78711CL-    CL-47085  19.615   8.832   4.689
78712CL-    CL-47086   2.720  34.101  11.060
78713CL-    CL-47087  41.891  15.148   0.451
78714CL-    CL-47088   1.478  18.673   4.224
78715CL-    CL-47089   2.330  11.705  11.889
78716CL-    CL-47090   5.812   9.201  14.877
78717CL-    CL-47091   4.891  30.633   0.869
78718CL-    CL-47092  13.788   5.716   3.277
78719CL-    CL-47093  25.654  35.502  14.797
78720CL-    CL-47094   8.829  36.969  14.838
78721CL-    CL-47095   2.373  20.625   0.965
78722CL-    CL-47096  37.832   1.388   4.149
78723CL-    CL-47097  36.427  10.862  11.905
78724CL-    CL-47098  18.604  13.271   4.120
78725CL-    CL-47099  28.582  44.298   1.813
78726CL-    CL-47100  10.211  29.049  13.392
78727CL-    CL-47101  37.575  44.297   2.300
78728CL-    CL-47102  42.386   2.894  13.884
78729CL-    CL-47103  29.607  15.785  12.563
78730CL-    CL-47104  11.622  32.636   3.289
78731CL-    CL-47105  36.492  23.190   2.357
78732CL-    CL-47106  39.808  22.068   2.834
78733CL-    CL-47107  20.668  27.616  11.509
78734CL-    CL-47108  21.754  13.754  13.880
78735CL-    CL-47109  35.569  43.294  13.941
78736CL-    CL-47110  37.011  18.602  13.816
78737CL-    CL-47111   9.701  30.517  14.447
78738CL-    CL-47112  30.595  10.352   4.811
78739CL-    CL-47113  25.962  34.604  12.906
78740CL-    CL-47114  42.417  37.980  12.349
78741CL-    CL-47115  44.415  19.062   4.602
78742CL-    CL-47116  35.500  31.036   1.766
78743CL-    CL-47117  24.692   1.348  10.490
78744CL-    CL-47118   0.397   6.911   4.676
78745CL-    CL-47119   6.798  28.454   1.896
78746CL-    CL-47120  42.466  27.953  11.116
78747CL-    CL-47121   2.820  26.500   2.228
78748CL-    CL-47122  25.653  32.994  13.814
78749CL-    CL-47123  11.219  34.108   0.365
78750CL-    CL-47124   3.336  24.163  10.926
78751CL-    CL-47125  30.062   4.857  11.053
78752CL-    CL-47126   4.712  24.996   1.227
78753CL-    CL-47127  31.000   7.242   0.873
78754CL-    CL-47128  29.469  28.536   0.424
78755CL-    CL-47129  34.966   3.361   2.730
78756CL-    CL-47130  34.469  22.067  14.385
78757CL-    CL-47131  18.660  29.173   0.740
78758CL-    CL-47132   8.785  12.296  10.904
78759CL-    CL-47133  17.692  16.194   4.211
78760CL-    CL-47134  34.418  23.726   0.839
78761CL-    CL-47135  31.955  32.888   4.797
78762CL-    CL-47136  30.092  10.636  11.886
78763CL-    CL-47137  14.192   9.320  10.414
78764CL-    CL-47138  44.872  15.209  13.477
78765CL-    CL-47139  41.459  44.966  11.115
78766CL-    CL-47140  30.429  18.653  14.790
78767CL-    CL-47141  34.599  39.851  14.333
78768CL-    CL-47142  39.957  10.841   3.286
78769CL-    CL-47143  15.658  40.490  14.873
78770CL-    CL-47144  38.042   1.474  11.503
78771CL-    CL-47145  10.705  18.209  14.023
78772CL-    CL-47146  28.164  18.211  12.988
78773CL-    CL-47147  43.864  26.046   4.825
78774CL-    CL-47148   2.430  36.085   4.135
78775CL-    CL-47149  29.156  26.051  13.826
78776CL-    CL-47150  39.850  16.163   0.848
78777CL-    CL-47151  43.955  27.153   2.309
78778CL-    CL-47152  22.559  30.487   2.247
78779CL-    CL-47153   3.405  25.077  12.858
78780CL-    CL-47154  26.012  34.076  11.979
78781CL-    CL-47155  23.681  31.974  14.371
78782CL-    CL-47156  22.034  15.681  13.858
78783CL-    CL-47157  12.314   4.763   4.723
78784CL-    CL-47158  38.502  18.062   4.269
78785CL-    CL-47159  30.145  28.435   1.317
78786CL-    CL-47160  14.785  37.837   4.230
78787CL-    CL-47161   6.744  28.474  14.845
78788CL-    CL-47162   1.272   4.332  10.991
78789CL-    CL-47163  27.975  39.369   3.813
78790CL-    CL-47164   7.753  27.162   1.229
78791CL-    CL-47165  28.072   5.773   9.945
78792CL-    CL-47166  11.645  42.337   4.667
78793CL-    CL-47167  10.291  33.081  10.932
78794CL-    CL-47168  41.968  27.631  12.580
78795CL-    CL-47169   8.878  16.087   1.255
78796CL-    CL-47170  43.327  23.150  11.875
78797CL-    CL-47171  32.963   2.434  12.917
78798CL-    CL-47172  43.801  18.169  14.438
78799CL-    CL-47173  37.982  19.694   5.233
78800CL-    CL-47174  34.381  21.135  12.342
78801CL-    CL-47175  12.719   9.312  12.520
78802CL-    CL-47176  30.918  11.328  10.157
78803CL-    CL-47177  35.471  16.722   2.852
78804CL-    CL-47178   6.796  28.443   3.293
78805CL-    CL-47179  33.436   6.734  12.830
78806CL-    CL-47180   2.917  18.140  13.339
78807CL-    CL-47181  26.607  37.414   5.273
78808CL-    CL-47182  15.227  24.067   4.781
78809CL-    CL-47183  29.114  31.500   4.727
78810CL-    CL-47184   7.755   5.843  10.632
78811CL-    CL-47185  29.068  22.527  14.914
78812CL-    CL-47186  11.750  28.540  13.460
78813CL-    CL-47187   6.238  23.553   5.718
78814CL-    CL-47188  13.796  37.911   4.803
78815CL-    CL-47189   9.374  20.665  12.908
78816CL-    CL-47190  30.036  36.984   3.774
78817CL-    CL-47191  38.884  27.073   3.248
78818CL-    CL-47192  38.881   8.303   1.289
78819CL-    CL-47193  27.000  25.032   3.698
78820CL-    CL-47194  13.800  30.492  14.466
78821CL-    CL-47195   2.801  28.172   2.714
78822CL-    CL-47196  30.608   0.773  12.895
78823CL-    CL-47197   0.902  10.737   1.387
78824CL-    CL-47198  12.148  10.845  13.356
78825CL-    CL-47199  27.465  37.887   3.845
78826CL-    CL-47200  36.999  33.969  14.409
78827CL-    CL-47201  25.593  35.959   5.261
78828CL-    CL-47202  35.421   6.722   2.768
78829CL-    CL-47203  13.276   6.824  14.890
78830CL-    CL-47204  18.660  34.430   4.346
78831CL-    CL-47205  42.520   0.302  10.624
78832CL-    CL-47206  31.086  27.548   0.946
78833CL-    CL-47207   7.409  44.282  10.997
78834CL-    CL-47208  22.704  22.500  10.897
78835CL-    CL-47209  14.763   8.854   0.731
78836CL-    CL-47210   6.364   0.329  11.529
78837CL-    CL-47211  29.123  27.568  12.005
78838CL-    CL-47212  31.142  23.531  14.832
78839CL-    CL-47213   4.228  38.333  13.355
78840CL-    CL-47214  17.747  27.450  12.035
78841CL-    CL-47215   0.488  18.126  14.405
78842CL-    CL-47216  13.772  10.740  12.062
78843CL-    CL-47217  18.075   2.732   1.240
78844CL-    CL-47218  38.420  36.408   3.210
78845CL-    CL-47219   5.371  41.015   1.404
78846CL-    CL-47220   2.924  44.774   1.769
78847CL-    CL-47221  44.995  21.691  12.912
78848CL-    CL-47222  31.557   4.240   4.709
78849CL-    CL-47223  12.776  27.513  11.059
78850CL-    CL-47224  32.463  38.558  11.011
78851CL-    CL-47225   1.735  31.018  14.414
78852CL-    CL-47226  36.531  33.105  14.950
78853CL-    CL-47227  22.570  42.929  10.012
78854CL-    CL-47228  14.188   3.732   0.246
78855CL-    CL-47229  18.249  21.130   3.805
78856CL-    CL-47230   3.785  30.467  10.927
78857CL-    CL-47231   0.417  20.660  14.409
78858CL-    CL-47232  29.457  33.914  13.826
78859CL-    CL-47233  10.702  26.195   2.686
78860CL-    CL-47234  26.618  19.575   4.333
78861CL-    CL-47235  18.617  43.504   0.935
78862CL-    CL-47236   7.827   1.384  10.558
78863CL-    CL-47237  18.676  22.580   0.345
78864CL-    CL-47238   4.831  39.057  11.534
78865CL-    CL-47239   0.485  25.553  13.340
78866CL-    CL-47240   2.346  33.896   0.851
78867CL-    CL-47241   2.415  24.574  10.625
78868CL-    CL-47242  14.826  20.033   0.287
78869CL-    CL-47243  26.500  30.540  12.854
78870CL-    CL-47244  36.396  29.622   4.705
78871CL-    CL-47245  29.584  14.769  14.931
78872CL-    CL-47246  22.157  29.492  13.844
78873CL-    CL-47247  41.457  26.608  11.959
78874CL-    CL-47248  28.036   3.459  14.475
78875CL-    CL-47249   5.351  44.306  10.560
78876CL-    CL-47250  43.341  30.165  13.355
78877CL-    CL-47251   2.366   9.678   2.674
78878CL-    CL-47252  12.302  29.665  11.380
78879CL-    CL-47253  17.215  19.072  12.876
78880CL-    CL-47254  36.979  40.491  10.645
78881CL-    CL-47255  38.917  35.002  13.960
78882CL-    CL-47256  34.939  33.011  12.080
78883CL-    CL-47257  33.492  23.012  14.354
78884CL-    CL-47258  17.263   0.458   3.690
78885CL-    CL-47259  21.190  35.866   0.296
78886CL-    CL-47260   8.685  26.168   2.378
78887CL-    CL-47261  38.033  25.622   2.717
78888CL-    CL-47262   8.371  26.601   3.321
78889CL-    CL-47263  31.146   1.844  11.873
78890CL-    CL-47264  39.032  21.045   3.791
78891CL-    CL-47265  38.932  37.905  14.325
78892CL-    CL-47266  36.365  20.244   3.381
78893CL-    CL-47267  17.242  20.169  13.843
78894CL-    CL-47268  27.998   0.302   0.361
78895CL-    CL-47269  40.928  31.551  14.488
78896CL-    CL-47270  19.723  20.705   1.322
78897CL-    CL-47271  37.977  36.081  11.981
78898CL-    CL-47272   7.264  29.076  13.375
78899CL-    CL-47273   9.748   3.933  11.603
78900CL-    CL-47274  19.106  40.513  14.459
78901CL-    CL-47275  29.500  43.774  14.387
78902CL-    CL-47276  22.659  25.607  10.435
78903CL-    CL-47277  30.022  25.472  13.795
78904CL-    CL-47278  27.528   6.218  12.885
78905CL-    CL-47279  20.693   5.711   4.798
78906CL-    CL-47280  31.082  34.987  14.916
78907CL-    CL-47281  14.098   0.864  14.361
78908CL-    CL-47282  34.579  14.706  14.327
78909CL-    CL-47283  43.502  43.422  14.497
78910CL-    CL-47284  36.030  11.830   4.315
78911CL-    CL-47285  41.337  24.555   3.269
78912CL-    CL-47286   4.855  37.948   4.661
78913CL-    CL-47287  28.665  19.611  11.010
78914CL-    CL-47288  18.787  23.507  10.945
78915CL-    CL-47289  30.048  44.987  10.057
78916CL-    CL-47290   5.275  18.601   3.362
78917CL-    CL-47291  11.761  34.908  14.795
78918CL-    CL-47292  30.515  23.096   0.915
78919CL-    CL-47293  41.992  23.602  12.419
78920CL-    CL-47294  44.424  20.248  11.456
78921CL-    CL-47295  27.028  38.886  11.093
78922CL-    CL-47296   8.231  31.989   0.409
78923CL-    CL-47297  16.611   8.346   3.224
78924CL-    CL-47298  38.568  18.776   4.119
78925CL-    CL-47299  19.593  37.837   2.231
78926CL-    CL-47300   2.411   7.415  14.379
78927CL-    CL-47301   5.880  36.391   1.930
78928CL-    CL-47302  36.970  28.076   2.696
78929CL-    CL-47303  35.385   9.194   1.824
78930CL-    CL-47304   9.657  19.181  13.548
78931CL-    CL-47305  41.943   1.370   3.794
78932CL-    CL-47306   8.760  12.855   3.336
78933CL-    CL-47307   2.442  41.330  11.027
78934CL-    CL-47308  16.722  24.572  10.417
78935CL-    CL-47309  22.100  16.664  13.542
78936CL-    CL-47310  12.180  21.070   3.247
78937CL-    CL-47311  18.674  30.025   0.800
78938CL-    CL-47312  12.259  31.621   1.435
78939CL-    CL-47313  16.723  26.608   4.764
78940CL-    CL-47314  37.893   4.427  13.455
78941CL-    CL-47315   5.332  21.576  11.393
78942CL-    CL-47316   0.439  30.999   2.812
78943CL-    CL-47317   7.369  32.143  10.455
78944CL-    CL-47318  41.859  35.904   2.871
78945CL-    CL-47319   4.334  23.023  10.955
78946CL-    CL-47320  18.058  10.371   1.883
78947CL-    CL-47321  14.795  26.546  11.115
78948CL-    CL-47322  22.501  10.851  14.377
78949CL-    CL-47323  19.239   4.855  11.573
78950CL-    CL-47324  12.325  40.376   2.795
78951CL-    CL-47325  19.679  41.300  10.161
78952CL-    CL-47326  42.521  25.655   1.373
78953CL-    CL-47327   9.735  17.625   9.520
78954CL-    CL-47328   9.715   5.748  10.524
78955CL-    CL-47329   9.763  19.773  10.017
78956CL-    CL-47330  38.016  23.706   1.895
78957CL-    CL-47331  10.320  43.319  11.972
78958CL-    CL-47332  39.333  30.507  14.801
78959CL-    CL-47333  19.087  33.611   1.320
78960CL-    CL-47334  25.531  43.423  13.813
78961CL-    CL-47335  18.295  19.111  13.473
78962CL-    CL-47336  42.856  22.119   0.857
78963CL-    CL-47337  10.289  27.658  13.473
78964CL-    CL-47338  37.032  26.064  11.052
78965CL-    CL-47339  25.592   1.948  10.948
78966CL-    CL-47340  32.895  10.356  14.441
78967CL-    CL-47341  12.641  35.402  13.488
78968CL-    CL-47342  21.738  36.406  12.357
78969CL-    CL-47343   8.343  39.521   2.227
78970CL-    CL-47344  33.589  31.613   4.124
78971CL-    CL-47345  20.166   8.791   3.835
78972CL-    CL-47346  24.110  40.025   0.329
78973CL-    CL-47347  37.479  33.013   1.283
78974CL-    CL-47348   7.883  13.703   1.723
78975CL-    CL-47349  21.138  14.218  12.966
78976CL-    CL-47350  12.852  36.450  13.436
78977CL-    CL-47351   4.936   6.251   2.244
78978CL-    CL-47352  14.664   5.279   2.256
78979CL-    CL-47353  25.004  11.252   2.198
78980CL-    CL-47354   4.911  23.038   1.360
78981CL-    CL-47355  23.201  17.721  10.091
78982CL-    CL-47356  23.539  35.405  12.898
78983CL-    CL-47357  14.818  25.681  13.887
78984CL-    CL-47358   1.910  44.902  12.528
78985CL-    CL-47359  44.766  25.132   2.759
78986CL-    CL-47360  28.170  39.970   2.878
78987CL-    CL-47361  39.408  18.236  11.542
78988CL-    CL-47362  15.645   7.297  12.535
78989CL-    CL-47363   1.419  35.549   1.707
78990CL-    CL-47364  37.081  43.430   3.631
78991CL-    CL-47365   6.212  23.138  10.022
78992CL-    CL-47366   0.474  27.472   2.680
78993CL-    CL-47367  37.500  42.986  13.528
78994CL-    CL-47368  29.032  24.061   3.320
78995CL-    CL-47369  27.621  34.412  12.856
78996CL-    CL-47370  25.470  10.765   2.309
78997CL-    CL-47371   1.873  37.369   5.088
78998CL-    CL-47372   2.799  17.775   0.341
78999CL-    CL-47373   6.840  31.972  12.367
79000CL-    CL-47374  18.192  17.747  10.536
79001CL-    CL-47375  19.754  35.431  10.418
79002CL-    CL-47376  30.081  21.755   4.312
79003CL-    CL-47377  10.162  37.013  13.318
79004CL-    CL-47378  44.981  20.746   3.661
79005CL-    CL-47379  15.699  13.122   0.932
79006CL-    CL-47380  35.470  20.717  13.841
79007CL-    CL-47381   2.300  20.261  12.578
79008CL-    CL-47382  15.093  29.600  14.919
79009CL-    CL-47383  43.386  34.899   0.928
79010CL-    CL-47384  18.220  33.062   0.822
79011CL-    CL-47385  24.687  39.881  10.932
79012CL-    CL-47386  44.794  34.398  13.546
79013CL-    CL-47387  26.079   8.374  10.890
79014CL-    CL-47388   9.190  21.134   0.948
79015CL-    CL-47389   7.763   0.936   4.603
79016CL-    CL-47390  19.641  29.997  13.351
79017CL-    CL-47391  32.084  30.527  11.882
79018CL-    CL-47392  19.690  40.313  10.113
79019CL-    CL-47393  10.228  11.784  12.970
79020CL-    CL-47394  33.454  21.583   1.329
79021CL-    CL-47395   8.883   2.927  14.512
79022CL-    CL-47396   3.424  17.239   0.453
79023CL-    CL-47397   8.850  39.842   2.380
79024CL-    CL-47398   2.284  29.120   1.888
79025CL-    CL-47399  29.076   8.889  12.032
79026CL-    CL-47400  34.989  18.172   1.909
79027CL-    CL-47401  15.180  38.336  10.579
79028CL-    CL-47402  27.986  33.455  12.405
79029CL-    CL-47403   9.389   3.901   1.761
79030CL-    CL-47404  13.201  27.182  14.815
79031CL-    CL-47405  23.664  36.873   3.811
79032CL-    CL-47406  25.058  37.956  11.402
79033CL-    CL-47407   4.440  28.441   1.420
79034CL-    CL-47408   7.342  17.178   2.207
79035CL-    CL-47409  31.502   1.872   3.697
79036CL-    CL-47410   3.345  20.130   4.769
79037CL-    CL-47411  18.173  20.562  10.623
79038CL-    CL-47412  10.302  26.574  13.033
79039CL-    CL-47413  28.085   9.849   0.383
79040CL-    CL-47414  21.208  38.880   0.248
79041CL-    CL-47415  24.673  19.254   2.415
79042CL-    CL-47416  40.379  37.869   1.250
79043CL-    CL-47417  43.825   9.392  10.487
79044CL-    CL-47418  38.019  17.690  12.091
79045CL-    CL-47419  29.462  33.911  14.948
79046CL-    CL-47420   8.802  41.410  14.857
79047CL-    CL-47421  40.900  37.545  10.894
79048CL-    CL-47422  12.299   6.858   2.765
79049CL-    CL-47423  12.793  41.786  12.831
79050CL-    CL-47424  33.978  38.524  12.470
79051CL-    CL-47425  32.042  33.467  13.963
79052CL-    CL-47426   8.876  27.609  10.006
79053CL-    CL-47427  40.421   5.768   3.260
79054CL-    CL-47428  19.634  36.878  14.326
79055CL-    CL-47429  23.147   3.786  11.471
79056CL-    CL-47430   8.699  30.114   0.330
79057CL-    CL-47431  22.159  28.644   2.410
79058CL-    CL-47432  26.103  36.417   3.317
79059CL-    CL-47433  19.071  31.973  14.335
79060CL-    CL-47434  32.629  39.472   2.384
79061CL-    CL-47435  10.206  33.038   0.454
79062CL-    CL-47436  10.665  25.211  12.857
79063CL-    CL-47437   4.863  13.630  12.075
79064CL-    CL-47438  31.896  27.133   0.256
79065CL-    CL-47439  39.915   7.399  10.914
79066CL-    CL-47440  16.734  11.624   2.323
79067CL-    CL-47441  44.451  40.942   3.856
79068CL-    CL-47442   1.274  17.147   0.740
79069CL-    CL-47443   6.821  27.592   1.778
79070CL-    CL-47444  27.161  20.073  11.859
79071CL-    CL-47445  36.968  38.052   0.834
79072CL-    CL-47446   9.646  44.776  14.903
79073CL-    CL-47447   0.340  23.531  13.970
79074CL-    CL-47448  25.039  10.297  11.513
79075CL-    CL-47449  11.328  19.582  12.371
79076CL-    CL-47450  30.602   9.178   2.280
79077CL-    CL-47451  35.410  39.442  11.997
79078CL-    CL-47452  12.807  23.149  11.859
79079CL-    CL-47453  10.773  19.124   0.929
79080CL-    CL-47454  22.586  32.914  10.406
79081CL-    CL-47455  14.785  10.673   3.863
79082CL-    CL-47456  11.200  39.946  13.406
79083CL-    CL-47457  35.018  41.476  10.998
79084CL-    CL-47458  13.273  33.434  12.475
79085CL-    CL-47459   8.373  21.514   2.271
79086CL-    CL-47460  40.455   4.249  12.504
79087CL-    CL-47461  12.116   0.825   1.883
79088CL-    CL-47462  10.160  20.273  12.062
79089CL-    CL-47463  18.723  34.058  12.833
79090CL-    CL-47464  44.316  38.344  12.081
79091CL-    CL-47465  33.481   2.247   1.701
79092CL-    CL-47466  43.973  15.246  10.459
79093CL-    CL-47467  11.714  12.295  14.359
79094CL-    CL-47468  29.001  36.551  14.506
79095CL-    CL-47469  13.799  39.506   1.420
79096CL-    CL-47470  34.014  42.499  10.896
79097CL-    CL-47471  43.379  38.013   0.263
79098CL-    CL-47472  27.037  44.791  14.408
79099CL-    CL-47473  17.643   0.464  13.977
79100CL-    CL-47474   9.259   9.187  13.977
79101CL-    CL-47475  19.568  34.042  12.451
79102CL-    CL-47476  11.858  37.940   0.910
79103CL-    CL-47477  28.542   9.347  11.552
79104CL-    CL-47478  14.630  26.608  11.924
79105CL-    CL-47479  34.413  24.711  14.314
79106CL-    CL-47480  16.806  21.719  14.359
79107CL-    CL-47481   3.790  10.655  13.964
79108CL-    CL-47482  39.951   3.729  11.543
79109CL-    CL-47483  22.165  15.227   1.726
79110CL-    CL-47484  13.746   4.447   1.254
79111CL-    CL-47485   9.653   9.653   2.779
79112CL-    CL-47486   1.905  16.103   4.755
79113CL-    CL-47487  37.388  42.455  11.863
79114CL-    CL-47488  38.852  18.254   1.922
79115CL-    CL-47489  24.187  16.097   2.779
79116CL-    CL-47490  33.015   9.176   0.833
79117CL-    CL-47491  14.321  23.685   4.275
79118CL-    CL-47492   0.815   8.181   0.886
79119CL-    CL-47493  29.935  17.278  13.323
79120CL-    CL-47494  39.447  22.716  12.061
79121CL-    CL-47495   4.779   5.791   2.832
79122CL-    CL-47496  38.436  20.162   1.707
79123CL-    CL-47497  31.457  21.110  14.434
79124CL-    CL-47498   2.406  34.866  13.963
79125CL-    CL-47499  38.025   7.365  10.940
79126CL-    CL-47500  44.324  30.935   3.330
79127CL-    CL-47501  14.249  18.711  11.997
79128CL-    CL-47502   7.313  16.609  10.486
79129CL-    CL-47503  24.520  33.576  10.492
79130CL-    CL-47504  29.432   7.341   1.905
79131CL-    CL-47505  30.926  33.403   0.375
79132CL-    CL-47506  41.847  23.026   0.314
79133CL-    CL-47507  10.356  29.507  13.455
79134CL-    CL-47508   7.857   4.908  13.923
79135CL-    CL-47509  31.555  24.183   0.966
79136CL-    CL-47510   8.198  43.421   3.755
79137CL-    CL-47511  15.686  22.011   0.935
79138CL-    CL-47512  13.333  18.168   1.890
79139CL-    CL-47513  42.317  23.701  14.405
79140CL-    CL-47514  21.547   8.684  11.124
79141CL-    CL-47515  36.352   2.308   1.394
79142CL-    CL-47516   6.242  16.586  14.850
79143CL-    CL-47517   7.866  24.079   2.287
79144CL-    CL-47518  30.053  16.100   3.649
79145CL-    CL-47519  22.103  39.379   2.681
79146CL-    CL-47520  39.533  29.485  11.899
79147CL-    CL-47521  19.262   3.941  11.919
79148CL-    CL-47522  18.184  13.280  14.806
79149CL-    CL-47523  40.306   3.371   0.925
79150CL-    CL-47524  32.030  36.881   2.310
79151CL-    CL-47525  12.330  41.529   0.807
79152CL-    CL-47526  27.089  17.662   4.160
79153CL-    CL-47527  28.648  19.777  14.852
79154CL-    CL-47528  38.510  35.478  11.568
79155CL-    CL-47529  18.604   1.417  12.579
79156CL-    CL-47530  10.278  10.751  11.906
79157CL-    CL-47531  22.570   2.901  11.528
79158CL-    CL-47532  29.997   7.238   1.706
79159CL-    CL-47533  20.046  23.512   4.319
79160CL-    CL-47534  10.636  23.550   4.251
79161CL-    CL-47535  37.996   7.173   2.418
79162CL-    CL-47536   6.869  41.446  12.986
79163CL-    CL-47537  29.123  38.389  13.823
79164CL-    CL-47538  43.969  27.174   3.310
79165CL-    CL-47539  35.572   9.793   2.873
79166CL-    CL-47540  31.584   6.342  12.423
79167CL-    CL-47541  34.534  36.409   1.736
79168CL-    CL-47542  18.202  25.109  11.084
79169CL-    CL-47543  42.813  14.278  10.977
79170CL-    CL-47544  31.103  35.982   9.926
79171CL-    CL-47545  37.545  14.212   4.310
79172CL-    CL-47546  13.135   1.765  12.914
79173CL-    CL-47547  24.503  28.585  14.939
79174CL-    CL-47548  30.644  42.781   0.441
79175CL-    CL-47549  40.537  29.152   0.812
79176CL-    CL-47550  38.533   7.800  11.408
79177CL-    CL-47551   5.913  19.269   3.673
79178CL-    CL-47552   9.169  11.359   2.781
79179CL-    CL-47553   8.371   5.886  12.829
79180CL-    CL-47554  15.140  24.644  10.896
79181CL-    CL-47555  21.512  23.631  14.329
79182CL-    CL-47556   6.423   0.979  13.383
79183CL-    CL-47557  11.655  15.703  11.917
79184CL-    CL-47558  33.532  19.249  13.847
79185CL-    CL-47559  13.715  44.425   2.735
79186CL-    CL-47560  12.760   0.306  11.573
79187CL-    CL-47561  23.063   5.220  13.329
79188CL-    CL-47562  35.496  12.633   0.438
79189CL-    CL-47563  27.094  31.913   5.269
79190CL-    CL-47564  33.589  32.513   1.250
79191CL-    CL-47565   6.893   8.673  10.906
79192CL-    CL-47566   3.455  40.416   4.754
79193CL-    CL-47567  13.340  37.483  11.485
79194CL-    CL-47568  42.396  23.026   4.602
79195CL-    CL-47569  18.790  20.052   1.758
79196CL-    CL-47570  21.073  27.591  14.760
79197CL-    CL-47571   1.910  12.762  10.964
79198CL-    CL-47572  28.478  29.081  12.511
79199CL-    CL-47573   7.252  17.101   3.768
79200CL-    CL-47574  11.168  25.000   3.229
79201CL-    CL-47575  38.021   1.446   1.362
79202CL-    CL-47576  28.953  11.363   4.199
79203CL-    CL-47577  30.919  39.032   3.380
79204CL-    CL-47578  35.524  34.972   4.169
79205CL-    CL-47579  31.077  38.990  14.849
79206CL-    CL-47580  27.538   6.193   1.229
79207CL-    CL-47581  40.411  39.375   3.217
79208CL-    CL-47582  14.118  23.237  12.930
79209CL-    CL-47583  20.223  32.474   4.212
79210CL-    CL-47584   9.733  14.638  14.962
79211CL-    CL-47585   3.717  29.553  12.399
79212CL-    CL-47586  35.009  26.535   1.435
79213CL-    CL-47587  17.564  39.863  14.007
79214CL-    CL-47588  32.590  42.838   1.343
79215CL-    CL-47589  16.649  38.033  13.361
79216CL-    CL-47590  12.190   8.687  13.530
79217CL-    CL-47591  12.846  44.896   2.367
79218CL-    CL-47592  32.973   4.860   3.706
79219CL-    CL-47593   9.694  38.333   4.169
79220CL-    CL-47594   0.463  38.492  10.595
79221CL-    CL-47595  32.987  44.843  14.369
79222CL-    CL-47596  38.010  14.295  13.053
79223CL-    CL-47597  21.633  32.410  10.443
79224CL-    CL-47598  27.192  10.778  14.994
79225CL-    CL-47599  43.408  13.198  13.900
79226CL-    CL-47600  31.919  22.116   0.242
79227CL-    CL-47601  38.527  33.889   4.601
79228CL-    CL-47602  28.049  38.978  13.901
79229CL-    CL-47603   9.872   6.897   3.726
79230CL-    CL-47604   3.333  42.923   3.712
79231CL-    CL-47605  10.176   4.341   1.293
79232CL-    CL-47606   3.842  29.554   4.614
79233CL-    CL-47607  37.472  33.009   3.281
79234CL-    CL-47608   1.736  25.472   2.354
79235CL-    CL-47609  34.372   6.750   4.285
79236CL-    CL-47610  41.862  27.118  14.304
79237CL-    CL-47611   2.936  38.411   2.336
79238CL-    CL-47612  27.563  29.985  12.461
79239CL-    CL-47613  21.610  14.304   3.670
79240CL-    CL-47614  37.953  28.672   4.299
79241CL-    CL-47615   0.457  21.610   1.288
79242CL-    CL-47616  30.654  22.113  11.946
79243CL-    CL-47617  19.558  24.592   4.334
79244CL-    CL-47618   8.361   3.261  14.874
79245CL-    CL-47619   7.742  40.006  13.400
79246CL-    CL-47620  23.641  15.136  11.976
79247CL-    CL-47621  27.555  40.502  14.488
79248CL-    CL-47622  36.539   7.691  11.610
79249CL-    CL-47623  36.419  11.326   2.267
79250CL-    CL-47624   1.871  40.890   0.896
79251CL-    CL-47625  21.555  26.176  11.423
79252CL-    CL-47626  12.687  34.585  10.506
79253CL-    CL-47627  19.698   7.864  14.908
79254CL-    CL-47628  22.735  16.104  13.398
79255CL-    CL-47629  19.065  36.355  11.382
79256CL-    CL-47630  39.551  12.172   4.349
79257CL-    CL-47631  20.552  31.918   0.888
79258CL-    CL-47632  14.594  30.491   0.751
79259CL-    CL-47633  43.307  10.802  14.410
79260CL-    CL-47634  20.216  22.161  11.914
79261CL-    CL-47635  43.301  20.767   3.207
79262CL-    CL-47636  17.289  10.702   4.252
79263CL-    CL-47637  14.172  27.528   0.942
79264CL-    CL-47638  44.472  44.849  13.981
79265CL-    CL-47639  24.096  29.051   1.775
79266CL-    CL-47640  14.676  19.208  10.967
79267CL-    CL-47641  44.769  42.515  12.547
79268CL-    CL-47642  31.051  39.329  14.315
79269CL-    CL-47643  21.556  12.302  14.353
79270CL-    CL-47644  33.064  15.608   1.754
79271CL-    CL-47645  28.049  18.143   3.648
79272CL-    CL-47646  10.209  14.673  13.537
79273CL-    CL-47647  31.544  38.010  13.345
79274CL-    CL-47648   4.787  35.891   1.252
79275CL-    CL-47649  44.808  24.586  12.876
79276CL-    CL-47650  17.123   5.871  12.425
79277CL-    CL-47651   0.489  26.121   0.408
79278CL-    CL-47652  26.134  40.363  12.538
79279CL-    CL-47653  10.256  18.594   5.118
79280CL-    CL-47654   1.298  30.137  14.927
79281CL-    CL-47655  34.911  33.059  13.483
79282CL-    CL-47656  34.401  43.294   1.786
79283CL-    CL-47657  17.223  34.471   1.353
79284CL-    CL-47658  18.222   1.364   4.650
79285CL-    CL-47659  41.531  32.417  11.588
79286CL-    CL-47660   5.855  39.408  12.932
79287CL-    CL-47661  20.238   3.354  10.448
79288CL-    CL-47662  22.715  38.496   3.166
79289CL-    CL-47663   6.294   4.759  11.114
79290CL-    CL-47664  14.787  31.927   4.634
79291CL-    CL-47665  43.496  17.092  12.550
79292CL-    CL-47666  38.077  11.741   0.416
79293CL-    CL-47667  37.069  34.427   4.308
79294CL-    CL-47668   2.806   7.868   0.408
79295CL-    CL-47669  27.450   6.188   4.822
79296CL-    CL-47670  32.047  31.454  14.005
79297CL-    CL-47671  14.791  16.737  13.418
79298CL-    CL-47672   2.835  22.148  12.031
79299CL-    CL-47673  44.328  36.550  13.831
79300CL-    CL-47674  37.989  12.650  11.001
79301CL-    CL-47675  19.737  12.846   3.648
79302CL-    CL-47676  34.518  35.857  10.992
79303CL-    CL-47677  11.674   6.237  14.919
79304CL-    CL-47678  29.928  19.604  13.400
79305CL-    CL-47679  18.550  23.736  14.381
79306CL-    CL-47680  14.195   4.907  11.377
79307CL-    CL-47681  16.161  35.473  12.409
79308CL-    CL-47682  26.699  19.197  11.453
79309CL-    CL-47683  12.221  41.787   3.201
79310CL-    CL-47684  42.460   3.747  13.838
79311CL-    CL-47685  33.504  32.484   3.146
79312CL-    CL-47686  13.621  36.998   3.306
79313CL-    CL-47687  19.086   8.658  12.472
79314CL-    CL-47688  29.513  10.674  10.483
79315CL-    CL-47689  17.248   0.936   5.311
79316CL-    CL-47690  42.365   8.875   1.256
79317CL-    CL-47691  24.040  24.057   0.943
79318CL-    CL-47692  42.519  40.380  10.423
79319CL-    CL-47693  32.479   8.379  13.989
79320CL-    CL-47694   8.180  39.893   0.864
79321CL-    CL-47695   2.242  43.496  11.893
79322CL-    CL-47696   8.264  36.999   0.743
79323CL-    CL-47697  36.455  24.223   3.219
79324CL-    CL-47698  29.158  15.317  12.837
79325CL-    CL-47699   5.396  40.022  10.994
79326CL-    CL-47700   0.356  22.185   2.338
79327CL-    CL-47701   9.756  34.460  12.051
79328CL-    CL-47702  36.039  21.707   4.294
79329CL-    CL-47703  32.075  18.697   3.362
79330CL-    CL-47704  15.656  36.912   0.466
79331CL-    CL-47705  26.197   9.219  11.371
79332CL-    CL-47706  33.426  20.031  11.905
79333CL-    CL-47707  39.922  25.159   3.341
79334CL-    CL-47708  13.610   3.904  13.332
79335CL-    CL-47709  11.840  39.013   4.728
79336CL-    CL-47710  36.984  27.016  12.367
79337CL-    CL-47711  37.431   8.212   3.824
79338CL-    CL-47712  25.027  18.661   3.189
79339CL-    CL-47713  35.015  27.567   3.275
79340CL-    CL-47714   7.348  15.821   1.898
79341CL-    CL-47715  37.931  43.388  10.520
79342CL-    CL-47716  39.372  27.013  13.315
79343CL-    CL-47717   4.245  41.437  10.440
79344CL-    CL-47718   6.409  42.810  14.468
79345CL-    CL-47719  17.653   0.979  13.818
79346CL-    CL-47720   3.953  24.521   3.643
79347CL-    CL-47721   1.361  41.912   4.836
79348CL-    CL-47722  25.619  36.388  11.575
79349CL-    CL-47723  44.371  30.930  10.478
79350CL-    CL-47724  20.223  11.187  12.911
79351CL-    CL-47725  43.988  17.740  14.846
79352CL-    CL-47726  44.822  24.528  14.357
79353CL-    CL-47727  42.861  19.145   2.674
79354CL-    CL-47728  24.038   0.336  10.960
79355CL-    CL-47729  14.737   3.939  12.012
79356CL-    CL-47730  36.451   9.339   9.474
79357CL-    CL-47731  23.504  30.609  11.884
79358CL-    CL-47732   4.245  44.263  13.859
79359CL-    CL-47733  32.964  38.835  14.763
79360CL-    CL-47734   2.274   8.788   3.823
79361CL-    CL-47735  32.525   8.399   4.749
79362CL-    CL-47736  35.445   9.311   4.161
79363CL-    CL-47737  43.764  24.585   1.408
79364CL-    CL-47738  17.252  31.539  10.894
79365CL-    CL-47739  43.013  42.348  12.091
79366CL-    CL-47740  30.107  35.950  11.969
79367CL-    CL-47741  31.428  23.622   4.635
79368CL-    CL-47742  32.937  38.851  12.022
79369CL-    CL-47743  22.659  40.020   3.833
79370CL-    CL-47744   9.763  43.351   1.320
79371CL-    CL-47745  41.000  32.040   3.674
79372CL-    CL-47746  33.595  37.530  11.453
79373CL-    CL-47747  27.092  39.473  10.465
79374CL-    CL-47748  40.851  10.696   3.823
79375CL-    CL-47749   8.164  21.653  14.496
79376CL-    CL-47750  40.806   4.396  14.290
79377CL-    CL-47751  19.735   9.350   3.829
79378CL-    CL-47752  39.392  21.053   0.794
79379CL-    CL-47753  17.698  31.024  10.948
79380CL-    CL-47754  19.761  43.291   1.927
79381CL-    CL-47755  36.858  23.036   0.932
79382CL-    CL-47756  43.477  39.033  13.850
79383CL-    CL-47757  44.451   3.955  10.532
79384CL-    CL-47758  15.220   6.284  11.961
79385CL-    CL-47759   2.885  12.764   2.216
79386CL-    CL-47760  12.353  25.097  14.434
79387CL-    CL-47761  36.876  42.382   4.268
79388CL-    CL-47762   4.720  16.569   4.317
79389CL-    CL-47763  37.378  15.146  12.550
79390CL-    CL-47764   4.878  36.045   4.812
79391CL-    CL-47765   9.313  36.039   1.700
79392CL-    CL-47766  10.735  43.962  12.851
79393CL-    CL-47767  16.718  11.138   0.823
79394CL-    CL-47768   0.840  34.412  10.409
79395CL-    CL-47769  29.056  41.320  11.962
79396CL-    CL-47770  39.466   5.880   4.159
79397CL-    CL-47771  37.897  21.065  14.852
79398CL-    CL-47772  21.672  42.905  10.477
79399CL-    CL-47773  29.602  24.086  12.516
79400CL-    CL-47774  33.606   4.902   4.260
79401CL-    CL-47775  27.153  28.964  13.807
79402CL-    CL-47776  39.058  29.540  10.587
79403CL-    CL-47777  18.169  11.164   2.410
79404CL-    CL-47778  32.472  19.183  11.579
79405CL-    CL-47779  22.537  24.661  11.482
79406CL-    CL-47780  33.423  25.472   2.351
79407CL-    CL-47781  13.332  10.733   0.916
79408CL-    CL-47782  35.090  30.973  12.942
79409CL-    CL-47783  21.151  26.191  11.519
79410CL-    CL-47784  12.218  34.989  13.793
79411CL-    CL-47785  32.415  40.896   1.758
79412CL-    CL-47786  35.598   4.206   4.253
79413CL-    CL-47787  36.382   6.265  10.515
79414CL-    CL-47788  27.190  43.846   1.229
79415CL-    CL-47789  31.146  40.902  10.471
79416CL-    CL-47790  28.541   8.244  12.882
79417CL-    CL-47791  35.920  32.405  14.386
79418CL-    CL-47792  18.161  21.628  11.911
79419CL-    CL-47793  31.066   2.936   1.353
79420CL-    CL-47794  26.537  38.544   4.753
79421CL-    CL-47795  28.115  41.313   2.827
79422CL-    CL-47796  40.046  38.926  13.469
79423CL-    CL-47797   1.880   1.859   4.157
79424CL-    CL-47798  26.569   2.367  10.979
79425CL-    CL-47799  24.516  31.582  13.039
79426CL-    CL-47800   4.310  24.659  10.992
79427CL-    CL-47801  38.413  23.190  13.312
79428CL-    CL-47802  32.137  19.153   2.724
79429CL-    CL-47803  30.106  27.520   3.805
79430CL-    CL-47804   7.718  33.914  12.459
79431CL-    CL-47805   9.363  18.126  12.858
79432CL-    CL-47806  24.558  12.778   4.344
79433CL-    CL-47807  33.953  32.400  10.556
79434CL-    CL-47808   4.718  17.647   3.854
79435CL-    CL-47809  11.692  42.492  13.887
79436CL-    CL-47810  31.938  15.164  11.058
79437CL-    CL-47811  41.039  30.956  11.010
79438CL-    CL-47812   3.377  18.728  11.065
79439CL-    CL-47813  35.379   8.691  12.994
79440CL-    CL-47814  40.431   8.396   4.248
79441CL-    CL-47815  24.720  43.330  14.818
79442CL-    CL-47816   9.168  27.072  11.094
79443CL-    CL-47817  14.751  24.130   0.933
79444CL-    CL-47818  26.143  28.508   0.388
79445CL-    CL-47819  44.808  14.126   3.208
79446CL-    CL-47820   5.693  19.240   2.790
79447CL-    CL-47821  10.679  41.927  12.552
79448CL-    CL-47822   2.271   6.213   0.406
79449CL-    CL-47823  13.277  19.686  13.510
79450CL-    CL-47824   3.865  36.520  13.513
79451CL-    CL-47825  13.307   5.826   3.732
79452CL-    CL-47826   6.399  27.101  11.569
79453CL-    CL-47827  12.693  12.296   0.251
79454CL-    CL-47828  36.094  14.809   3.797
79455CL-    CL-47829   6.727   2.310  12.876
79456CL-    CL-47830  38.848  13.632   0.377
79457CL-    CL-47831  21.107  37.569  12.039
79458CL-    CL-47832   6.774   0.349  13.042
79459CL-    CL-47833  44.884  18.116   0.331
79460CL-    CL-47834  40.416  35.862  13.962
79461CL-    CL-47835   1.297  29.927  14.026
79462CL-    CL-47836  25.182  15.111   2.824
79463CL-    CL-47837  38.434  24.719  14.296
79464CL-    CL-47838   7.270  26.005   5.309
79465CL-    CL-47839   5.899  19.119   1.819
79466CL-    CL-47840  20.539  43.973   2.233
79467CL-    CL-47841  37.414  21.183   5.235
79468CL-    CL-47842  19.661  14.790  12.082
79469CL-    CL-47843  16.771  10.774  14.989
79470CL-    CL-47844  44.990   1.410  12.034
79471CL-    CL-47845   9.186  20.613   5.685
79472CL-    CL-47846  38.904   7.675  10.444
79473CL-    CL-47847  17.766  36.091   3.803
79474CL-    CL-47848  33.549  21.084   4.660
79475CL-    CL-47849  36.417  40.956   3.305
79476CL-    CL-47850  19.547   3.881   0.439
79477CL-    CL-47851  32.495  42.404   0.896
79478CL-    CL-47852  38.949  21.568  12.577
79479CL-    CL-47853  30.014  37.851  12.952
79480CL-    CL-47854   4.342  26.083   1.319
79481CL-    CL-47855   2.432  16.790  14.021
79482CL-    CL-47856  43.810   9.846   3.828
79483CL-    CL-47857  34.874  19.691   3.684
79484CL-    CL-47858   6.307  23.579   0.730
79485CL-    CL-47859  13.625  20.694  12.545
79486CL-    CL-47860  28.523  15.223  10.965
79487CL-    CL-47861   1.287  10.686  11.056
79488CL-    CL-47862   4.233  44.897   0.812
79489CL-    CL-47863  26.148  21.122   3.816
79490CL-    CL-47864   1.754  35.979   1.218
79491CL-    CL-47865   5.712  12.251  13.432
79492CL-    CL-47866  19.259  22.193   3.770
79493CL-    CL-47867   1.905  41.457  13.534
79494CL-    CL-47868  38.325  28.544   4.119
79495CL-    CL-47869  27.102  19.260   3.333
79496CL-    CL-47870   2.864  23.523  10.539
79497CL-    CL-47871  22.629   0.373  10.639
79498CL-    CL-47872  20.251   0.347  13.856
79499CL-    CL-47873  43.456  44.969   1.922
79500CL-    CL-47874  14.724   1.430  11.518
79501CL-    CL-47875  33.119  11.286   1.352
79502CL-    CL-47876   0.864   3.389   2.397
79503CL-    CL-47877  40.027  37.346   0.453
79504CL-    CL-47878  22.072  43.485   0.846
79505CL-    CL-47879  44.771  24.664   3.786
79506CL-    CL-47880   5.857   5.368   4.708
79507CL-    CL-47881  35.972   8.771  10.427
79508CL-    CL-47882  23.647  14.781  11.982
79509CL-    CL-47883  33.557   3.417   1.745
79510CL-    CL-47884   4.921  44.354  14.912
79511CL-    CL-47885  30.919  19.239   2.392
79512CL-    CL-47886   3.890  21.198   1.418
79513CL-    CL-47887  18.547  44.869  14.915
79514CL-    CL-47888  22.150   3.233   1.816
79515CL-    CL-47889  27.536  25.026   3.263
79516CL-    CL-47890   8.900   3.222  14.943
79517CL-    CL-47891  35.417   7.883  10.890
79518CL-    CL-47892  10.823  44.759  12.082
79519CL-    CL-47893   0.274   7.186   1.853
79520CL-    CL-47894  21.134  37.552   4.832
79521CL-    CL-47895  42.969   8.809  14.025
79522CL-    CL-47896  14.318  27.652  13.847
79523CL-    CL-47897  29.667  30.461  11.091
79524CL-    CL-47898  36.099  43.835  11.944
79525CL-    CL-47899  12.660  19.587   4.298
79526CL-    CL-47900  12.203  32.528  10.517
79527CL-    CL-47901  33.025  34.445   2.211
79528CL-    CL-47902  34.601  25.593   1.305
79529CL-    CL-47903  28.480  39.468  13.461
79530CL-    CL-47904  41.452  42.308   2.753
79531CL-    CL-47905  27.553  15.275  13.397
79532CL-    CL-47906  20.263  34.589   4.688
79533CL-    CL-47907  13.235  13.135   0.834
79534CL-    CL-47908   3.320   5.774  11.384
79535CL-    CL-47909  11.316  43.967   1.834
79536CL-    CL-47910   4.253   7.670   1.291
79537CL-    CL-47911  33.565   1.872   3.169
79538CL-    CL-47912  40.345  28.935  14.993
79539CL-    CL-47913  39.487  38.446   1.393
79540CL-    CL-47914  38.397  40.491  10.603
79541CL-    CL-47915  12.348  30.539   1.789
79542CL-    CL-47916  28.940  15.801  13.890
79543CL-    CL-47917  31.046  20.576  11.483
79544CL-    CL-47918  24.632  17.213  13.861
79545CL-    CL-47919  40.981  39.971   3.706
79546CL-    CL-47920  30.440  12.116  12.511
79547CL-    CL-47921  10.143  26.176  12.356
79548CL-    CL-47922  38.332   7.305  14.342
79549CL-    CL-47923  14.205  29.106  11.913
79550CL-    CL-47924  41.885  15.090  10.897
79551CL-    CL-47925  38.471  14.756   0.288
79552CL-    CL-47926  25.091  29.102  14.456
79553CL-    CL-47927  18.785  25.006   3.773
79554CL-    CL-47928  42.930   3.854   1.837
79555CL-    CL-47929  15.084  13.231  14.821
79556CL-    CL-47930   6.393  29.482  12.447
79557CL-    CL-47931  10.180  11.775  10.526
79558CL-    CL-47932  33.455  23.094  13.019
79559CL-    CL-47933  34.093   6.341  12.916
79560CL-    CL-47934  27.543  19.123  13.461
79561CL-    CL-47935  29.658  40.341  11.897
79562CL-    CL-47936  33.502  33.561   5.251
79563CL-    CL-47937  44.386  17.068   3.670
79564CL-    CL-47938   4.802  11.342   3.656
79565CL-    CL-47939  23.573  43.506  14.767
79566CL-    CL-47940  30.419  33.584   1.803
79567CL-    CL-47941   7.382  12.120   0.769
79568CL-    CL-47942  44.346  36.505  10.967
79569CL-    CL-47943  16.253  41.311  14.830
79570CL-    CL-47944  29.100  12.319  11.455
79571CL-    CL-47945  20.593  40.921  11.071
79572CL-    CL-47946  39.822  21.518  12.966
79573CL-    CL-47947  17.584  43.976  12.342
79574CL-    CL-47948  40.929  44.338   0.447
79575CL-    CL-47949  22.238  43.986   1.907
79576CL-    CL-47950  29.517  36.431  13.548
79577CL-    CL-47951  17.764  31.517  12.375
79578CL-    CL-47952  10.287   6.689  14.479
79579CL-    CL-47953  17.294  23.149   2.767
79580CL-    CL-47954  26.654   3.321  12.916
79581CL-    CL-47955  44.340  16.279   9.980
79582CL-    CL-47956   3.921  13.835   2.218
79583CL-    CL-47957   2.318  14.622  10.578
79584CL-    CL-47958  14.141  11.807  13.027
79585CL-    CL-47959   0.798  23.070   3.315
79586CL-    CL-47960  30.097  33.530  12.896
79587CL-    CL-47961   2.746  37.882  14.468
79588CL-    CL-47962  19.244  38.567  11.925
79589CL-    CL-47963  26.613  20.646   2.857
79590CL-    CL-47964  29.652   1.798   2.742
79591CL-    CL-47965   1.378  14.320   4.343
79592CL-    CL-47966  15.253  21.226   3.302
79593CL-    CL-47967  25.977  21.711   1.907
79594CL-    CL-47968  37.507   4.231   2.853
79595CL-    CL-47969  27.997  36.894   4.246
79596CL-    CL-47970  14.322  24.133   3.650
79597CL-    CL-47971  12.662  32.491   3.800
79598CL-    CL-47972  35.550  42.463   3.780
79599CL-    CL-47973   4.836  17.695   2.781
79600CL-    CL-47974   1.846   5.886  12.500
79601CL-    CL-47975  19.044  17.103   1.333
79602CL-    CL-47976  13.710   0.861  14.828
79603CL-    CL-47977  37.049  26.954   1.373
79604CL-    CL-47978  44.469  12.286   0.954
79605CL-    CL-47979  34.070   5.249  13.798
79606CL-    CL-47980  30.969  15.634  11.607
  45.00000  45.00000  15.00000   0.00000   0.00000   0.00000   0.00000   0.00000   0.00000

